Protein in INSANE! Membrane UpperLeaflet>POPC=1.0 LowerLeaflet>POPC=1.0
249030
   14AUC    AUC    1  24.954  38.765   7.501
   15AUC    AUC    2  25.199  38.765   7.349
   16AUC    AUC    3  25.199  38.765   7.652
   17AUC    AUC    4  24.708  38.765   7.349
   18AUC    AUC    5  24.708  38.765   7.652
   19AUC    AUC    6  24.802  39.010   7.501
   20AUC    AUC    7  25.105  39.010   7.501
   21AUC    AUC    8  24.802  38.519   7.501
   22AUC    AUC    9  25.105  38.519   7.501
   23AUC    AUC   10  24.954  38.613   7.746
   24AUC    AUC   11  24.954  38.916   7.746
   25AUC    AUC   12  24.954  38.613   7.255
   26AUC    AUC   13  24.954  38.916   7.255
   27AUC    AUC   14  25.445  38.765   7.197
   28AUC    AUC   15  25.445  38.765   7.501
   29AUC    AUC   16  25.445  38.765   7.804
   30AUC    AUC   17  24.463  38.765   7.197
   31AUC    AUC   18  24.463  38.765   7.501
   32AUC    AUC   19  24.463  38.765   7.804
   33AUC    AUC   20  24.650  39.255   7.501
   34AUC    AUC   21  24.954  39.255   7.501
   35AUC    AUC   22  25.257  39.255   7.501
   36AUC    AUC   23  24.650  38.274   7.501
   37AUC    AUC   24  24.954  38.274   7.501
   38AUC    AUC   25  25.257  38.274   7.501
   39AUC    AUC   26  24.954  38.461   7.991
   40AUC    AUC   27  24.954  38.765   7.991
   41AUC    AUC   28  24.954  39.068   7.991
   42AUC    AUC   29  24.954  38.461   7.010
   43AUC    AUC   30  24.954  38.765   7.010
   44AUC    AUC   31  24.954  39.068   7.010
   45AUC    AUC   32  25.199  38.613   7.898
   46AUC    AUC   33  25.199  38.916   7.898
   47AUC    AUC   34  25.199  38.613   7.103
   48AUC    AUC   35  25.199  38.916   7.103
   49AUC    AUC   36  24.708  38.613   7.898
   50AUC    AUC   37  24.708  38.916   7.898
   51AUC    AUC   38  24.708  38.613   7.103
   52AUC    AUC   39  24.708  38.916   7.103
   53AUC    AUC   40  25.351  39.010   7.349
   54AUC    AUC   41  25.351  39.010   7.652
   55AUC    AUC   42  24.557  39.010   7.349
   56AUC    AUC   43  24.557  39.010   7.652
   57AUC    AUC   44  25.351  38.519   7.349
   58AUC    AUC   45  25.351  38.519   7.652
   59AUC    AUC   46  24.557  38.519   7.349
   60AUC    AUC   47  24.557  38.519   7.652
   61AUC    AUC   48  24.802  39.162   7.746
   62AUC    AUC   49  25.105  39.162   7.746
   63AUC    AUC   50  24.802  38.368   7.746
   64AUC    AUC   51  25.105  38.368   7.746
   65AUC    AUC   52  24.802  39.162   7.255
   66AUC    AUC   53  25.105  39.162   7.255
   67AUC    AUC   54  24.802  38.368   7.255
   68AUC    AUC   55  25.105  38.368   7.255
   69AUSL   AUS   56  25.363  38.765   8.081
   70AUSL   AUS   57  25.219  38.348   8.011
   71AUL    AUL   58  25.445  38.461   8.295
   72THSLK    S   59  25.346  38.160   8.163
   73ETHY    C1   60  25.504  37.839   8.456
   74ETHY    C1   61  25.752  37.526   8.845
   75THSLK    S   62  25.468  38.725   8.333
   76ETHY    C1   63  25.711  38.658   8.720
   77ETHY    C1   64  26.004  38.677   9.194
   78AUSL   AUS   65  25.117  38.613   8.174
   79AUSL   AUS   66  24.790  38.916   8.174
   80AUL    AUL   67  24.954  38.765   8.482
   81THSLK    S   68  25.204  38.567   8.426
   82ETHY    C1   69  25.317  38.426   8.852
   83ETHY    C1   70  25.466  38.355   9.385
   84THSLK    S   71  24.702  38.885   8.439
   85ETHY    C1   72  24.597  38.896   8.889
   86ETHY    C1   73  24.447  39.004   9.415
   87AUSL   AUS   74  25.117  38.916   8.174
   88AUSL   AUS   75  25.464  39.029   7.917
   89AUL    AUL   76  25.445  39.068   8.295
   90THSLK    S   77  25.205  38.962   8.426
   91ETHY    C1   78  25.311  39.102   8.854
   92ETHY    C1   79  25.461  39.174   9.386
   93THSLK    S   80  25.644  39.145   8.082
   94ETHY    C1   81  25.989  39.280   8.358
   95ETHY    C1   82  26.364  39.534   8.683
   96AUSL   AUS   83  25.363  38.765   6.921
   97AUSL   AUS   84  25.219  39.181   6.990
   98AUL    AUL   85  25.445  39.068   6.706
   99THSLK    S   86  25.469  38.725   6.668
  100ETHY    C1   87  25.706  38.658   6.278
  101ETHY    C1   88  25.999  38.677   5.804
  102THSLK    S   89  25.394  39.309   6.816
  103ETHY    C1   90  25.625  39.527   6.480
  104ETHY    C1   91  25.851  39.869   6.102
  105AUSL   AUS   92  25.117  38.613   6.827
  106AUSL   AUS   93  25.464  38.500   7.084
  107AUL    AUL   94  25.445  38.461   6.706
  108THSLK    S   95  25.610  38.313   6.932
  109ETHY    C1   96  25.894  38.059   6.670
  110ETHY    C1   97  26.286  37.839   6.340
  111THSLK    S   98  25.205  38.567   6.575
  112ETHY    C1   99  25.311  38.427   6.147
  113ETHY    C1  100  25.461  38.355   5.615
  114AUSL   AUS  101  25.117  38.916   6.827
  115AUSL   AUS  102  24.790  38.613   6.827
  116AUL    AUL  103  24.954  38.765   6.519
  117THSLK    S  104  24.690  38.567   6.579
  118ETHY    C1  105  24.556  38.429   6.158
  119ETHY    C1  106  24.413  38.357   5.624
  120THSLK    S  107  25.218  38.884   6.566
  121ETHY    C1  108  25.345  38.893   6.121
  122ETHY    C1  109  25.489  39.002   5.594
  123AUSL   AUS  110  24.545  38.765   8.081
  124AUSL   AUS  111  24.689  39.181   8.011
  125AUL    AUL  112  24.463  39.068   8.295
  126THSLK    S  113  24.439  38.725   8.333
  127ETHY    C1  114  24.202  38.658   8.723
  128ETHY    C1  115  23.908  38.677   9.197
  129THSLK    S  116  24.561  39.323   8.202
  130ETHY    C1  117  24.408  39.568   8.563
  131ETHY    C1  118  24.160  39.903   8.933
  132AUSL   AUS  119  24.790  38.613   8.174
  133AUSL   AUS  120  24.444  38.500   7.917
  134AUL    AUL  121  24.463  38.461   8.295
  135THSLK    S  122  24.263  38.332   8.043
  136ETHY    C1  123  23.922  38.106   8.259
  137ETHY    C1  124  23.546  37.878   8.602
  138THSLK    S  125  24.690  38.567   8.422
  139ETHY    C1  126  24.562  38.428   8.844
  140ETHY    C1  127  24.418  38.356   9.378
  141AUSL   AUS  128  24.545  38.765   6.921
  142AUSL   AUS  129  24.689  38.348   6.990
  143AUL    AUL  130  24.463  38.461   6.706
  144THSLK    S  131  24.440  38.725   6.668
  145ETHY    C1  132  24.196  38.658   6.281
  146ETHY    C1  133  23.904  38.677   5.807
  147THSLK    S  134  24.515  38.174   6.855
  148ETHY    C1  135  24.278  37.881   6.587
  149ETHY    C1  136  24.053  37.560   6.190
  150AUSL   AUS  137  24.790  38.916   6.827
  151AUSL   AUS  138  24.444  39.029   7.084
  152AUL    AUL  139  24.463  39.068   6.706
  153THSLK    S  140  24.298  39.164   6.894
  154ETHY    C1  141  24.009  39.328   6.572
  155ETHY    C1  142  23.618  39.573   6.259
  156THSLK    S  143  24.703  38.885   6.562
  157ETHY    C1  144  24.590  38.895   6.114
  158ETHY    C1  145  24.442  39.003   5.587
  159AUSL   AUS  146  25.534  39.174   7.501
  160AUSL   AUS  147  25.464  39.029   7.084
  161AUL    AUL  148  25.748  39.255   7.197
  162THSLK    S  149  25.644  39.146   6.920
  163ETHY    C1  150  25.985  39.279   6.638
  164ETHY    C1  151  26.361  39.533   6.314
  165THSLK    S  152  25.807  39.245   7.501
  166ETHY    C1  153  26.231  39.429   7.497
  167ETHY    C1  154  26.695  39.738   7.498
  168AUSL   AUS  155  25.628  38.928   7.349
  169AUSL   AUS  156  25.628  38.601   7.652
  170AUL    AUL  157  25.935  38.765   7.501
  171THSLK    S  158  25.895  38.983   7.341
  172ETHY    C1  159  26.347  39.039   7.262
  173ETHY    C1  160  26.872  39.204   7.172
  174THSLK    S  161  25.874  38.469   7.659
  175ETHY    C1  162  26.291  38.284   7.728
  176ETHY    C1  163  26.827  38.156   7.820
  177AUSL   AUS  164  25.628  38.928   7.652
  178AUSL   AUS  165  25.370  39.275   7.765
  179AUL    AUL  166  25.748  39.255   7.804
  180THSLK    S  167  25.556  39.410   7.925
  181ETHY    C1  168  25.872  39.678   8.128
  182ETHY    C1  169  26.187  40.075   8.362
  183THSLK    S  170  25.895  38.983   7.661
  184ETHY    C1  171  26.347  39.039   7.733
  185ETHY    C1  172  26.873  39.204   7.824
  186AUSL   AUS  173  24.374  39.174   7.501
  187AUSL   AUS  174  24.444  39.029   7.917
  188AUL    AUL  175  24.160  39.255   7.804
  189THSLK    S  176  24.297  39.164   8.107
  190ETHY    C1  177  24.013  39.333   8.430
  191ETHY    C1  178  23.621  39.578   8.743
  192THSLK    S  179  24.143  39.312   7.501
  193ETHY    C1  180  23.789  39.610   7.497
  194ETHY    C1  181  23.305  39.887   7.498
  195AUSL   AUS  182  24.280  38.928   7.349
  196AUSL   AUS  183  24.537  39.275   7.236
  197AUL    AUL  184  24.160  39.255   7.197
  198THSLK    S  185  24.034  39.038   7.307
  199ETHY    C1  186  23.616  39.183   7.173
  200ETHY    C1  187  23.081  39.323   7.099
  201THSLK    S  188  24.406  39.444   7.056
  202ETHY    C1  189  24.182  39.766   6.812
  203ETHY    C1  190  23.842  40.148   6.589
  204AUSL   AUS  191  24.280  38.928   7.652
  205AUSL   AUS  192  24.280  38.601   7.349
  206AUL    AUL  193  23.972  38.765   7.501
  207THSLK    S  194  24.013  38.523   7.377
  208ETHY    C1  195  23.560  38.434   7.359
  209ETHY    C1  196  23.035  38.279   7.252
  210THSLK    S  197  24.034  39.038   7.694
  211ETHY    C1  198  23.617  39.189   7.825
  212ETHY    C1  199  23.082  39.327   7.900
  213AUSL   AUS  200  25.534  38.356   7.501
  214AUSL   AUS  201  25.464  38.500   7.917
  215AUL    AUL  202  25.748  38.274   7.804
  216THSLK    S  203  25.765  38.217   7.501
  217ETHY    C1  204  26.119  37.919   7.497
  218ETHY    C1  205  26.603  37.642   7.498
  219THSLK    S  206  25.610  38.313   8.070
  220ETHY    C1  207  25.898  38.058   8.326
  221ETHY    C1  208  26.290  37.838   8.657
  222AUSL   AUS  209  25.628  38.601   7.349
  223AUSL   AUS  210  25.370  38.254   7.236
  224AUL    AUL  211  25.748  38.274   7.197
  225THSLK    S  212  25.874  38.469   7.343
  226ETHY    C1  213  26.290  38.284   7.266
  227ETHY    C1  214  26.826  38.156   7.176
  228THSLK    S  215  25.502  38.063   7.092
  229ETHY    C1  216  25.723  37.702   6.907
  230ETHY    C1  217  26.064  37.332   6.667
  231AUSL   AUS  218  24.374  38.356   7.501
  232AUSL   AUS  219  24.444  38.500   7.084
  233AUL    AUL  220  24.160  38.274   7.197
  234THSLK    S  221  24.264  38.332   6.958
  235ETHY    C1  222  23.918  38.112   6.743
  236ETHY    C1  223  23.543  37.882   6.400
  237THSLK    S  224  24.101  38.284   7.501
  238ETHY    C1  225  23.677  38.101   7.497
  239ETHY    C1  226  23.213  37.791   7.498
  240AUSL   AUS  227  24.280  38.601   7.652
  241AUSL   AUS  228  24.537  38.254   7.765
  242AUL    AUL  229  24.160  38.274   7.804
  243THSLK    S  230  24.351  38.097   7.889
  244ETHY    C1  231  24.038  37.791   8.033
  245ETHY    C1  232  23.723  37.404   8.284
  246THSLK    S  233  24.013  38.524   7.625
  247ETHY    C1  234  23.561  38.428   7.639
  248ETHY    C1  235  23.036  38.275   7.746
  249AUSL   AUS  236  24.954  39.345   7.910
  250AUSL   AUS  237  24.537  39.275   7.765
  251AUL    AUL  238  24.650  39.559   7.991
  252THSLK    S  239  24.406  39.443   7.945
  253ETHY    C1  240  24.185  39.771   8.185
  254ETHY    C1  241  23.844  40.151   8.409
  255THSLK    S  242  24.988  39.586   8.033
  256ETHY    C1  243  25.046  39.958   8.301
  257ETHY    C1  244  25.030  40.437   8.586
  258AUSL   AUS  245  24.802  39.438   7.664
  259AUSL   AUS  246  25.105  39.438   7.337
  260AUL    AUL  247  24.954  39.746   7.501
  261THSLK    S  248  24.833  39.698   7.770
  262ETHY    C1  249  24.823  40.139   7.907
  263ETHY    C1  250  24.714  40.668   8.048
  264THSLK    S  251  25.150  39.687   7.235
  265ETHY    C1  252  25.288  40.105   7.097
  266ETHY    C1  253  25.360  40.640   6.955
  267AUSL   AUS  254  25.105  39.438   7.664
  268AUSL   AUS  255  25.219  39.181   8.011
  269AUL    AUL  256  25.257  39.559   7.991
  270THSLK    S  257  25.393  39.309   8.185
  271ETHY    C1  258  25.629  39.528   8.517
  272ETHY    C1  259  25.855  39.870   8.895
  273THSLK    S  260  25.150  39.686   7.767
  274ETHY    C1  261  25.289  40.107   7.898
  275ETHY    C1  262  25.362  40.641   8.041
  276AUSL   AUS  263  24.954  38.185   7.910
  277AUSL   AUS  264  25.370  38.254   7.765
  278AUL    AUL  265  25.257  37.970   7.991
  279THSLK    S  266  24.920  37.921   7.997
  280ETHY    C1  267  24.865  37.512   8.205
  281ETHY    C1  268  24.880  37.044   8.507
  282THSLK    S  269  25.502  38.063   7.910
  283ETHY    C1  270  25.725  37.701   8.089
  284ETHY    C1  271  26.066  37.331   8.330
  285AUSL   AUS  272  24.802  38.091   7.664
  286AUSL   AUS  273  24.689  38.348   8.011
  287AUL    AUL  274  24.650  37.970   7.991
  288THSLK    S  275  24.757  37.838   7.746
  289ETHY    C1  276  24.620  37.407   7.843
  290ETHY    C1  277  24.547  36.875   7.996
  291THSLK    S  278  24.514  38.174   8.146
  292ETHY    C1  279  24.283  37.876   8.413
  293ETHY    C1  280  24.056  37.556   8.810
  294AUSL   AUS  281  25.105  38.091   7.664
  295AUSL   AUS  282  24.802  38.091   7.337
  296AUL    AUL  283  24.954  37.783   7.501
  297THSLK    S  284  24.757  37.838   7.255
  298ETHY    C1  285  24.618  37.409   7.152
  299ETHY    C1  286  24.546  36.877   7.001
  300THSLK    S  287  25.074  37.826   7.750
  301ETHY    C1  288  25.087  37.375   7.852
  302ETHY    C1  289  25.195  36.849   8.003
  303AUSL   AUS  290  24.954  39.345   7.092
  304AUSL   AUS  291  25.370  39.275   7.236
  305AUL    AUL  292  25.257  39.559   7.010
  306THSLK    S  293  24.988  39.586   6.969
  307ETHY    C1  294  25.043  39.955   6.696
  308ETHY    C1  295  25.027  40.434   6.412
  309THSLK    S  296  25.557  39.410   7.077
  310ETHY    C1  297  25.870  39.677   6.868
  311ETHY    C1  298  26.185  40.074   6.634
  312AUSL   AUS  299  24.802  39.438   7.337
  313AUSL   AUS  300  24.689  39.181   6.990
  314AUL    AUL  301  24.650  39.559   7.010
  315THSLK    S  302  24.833  39.699   7.232
  316ETHY    C1  303  24.821  40.137   7.088
  317ETHY    C1  304  24.713  40.666   6.948
  318THSLK    S  305  24.562  39.324   6.799
  319ETHY    C1  306  24.404  39.564   6.437
  320ETHY    C1  307  24.156  39.899   6.067
  321AUSL   AUS  308  24.954  38.185   7.092
  322AUSL   AUS  309  24.537  38.254   7.236
  323AUL    AUL  310  24.650  37.970   7.010
  324THSLK    S  311  24.351  38.097   7.113
  325ETHY    C1  312  24.035  37.795   6.964
  326ETHY    C1  313  23.721  37.408   6.714
  327THSLK    S  314  24.920  37.921   7.004
  328ETHY    C1  315  24.861  37.516   6.791
  329ETHY    C1  316  24.878  37.046   6.490
  330AUSL   AUS  317  25.105  38.091   7.337
  331AUSL   AUS  318  25.219  38.348   6.990
  332AUL    AUL  319  25.257  37.970   7.010
  333THSLK    S  320  25.075  37.825   7.252
  334ETHY    C1  321  25.085  37.377   7.143
  335ETHY    C1  322  25.193  36.850   6.993
  336THSLK    S  323  25.347  38.159   6.839
  337ETHY    C1  324  25.499  37.841   6.541
  338ETHY    C1  325  25.748  37.527   6.152
  339AUC    AUC  326  26.603  11.018   7.501
  340AUC    AUC  327  26.848  11.018   7.349
  341AUC    AUC  328  26.848  11.018   7.652
  342AUC    AUC  329  26.357  11.018   7.349
  343AUC    AUC  330  26.357  11.018   7.652
  344AUC    AUC  331  26.451  11.263   7.501
  345AUC    AUC  332  26.754  11.263   7.501
  346AUC    AUC  333  26.451  10.772   7.501
  347AUC    AUC  334  26.754  10.772   7.501
  348AUC    AUC  335  26.603  10.866   7.746
  349AUC    AUC  336  26.603  11.169   7.746
  350AUC    AUC  337  26.603  10.866   7.255
  351AUC    AUC  338  26.603  11.169   7.255
  352AUC    AUC  339  27.094  11.018   7.197
  353AUC    AUC  340  27.094  11.018   7.501
  354AUC    AUC  341  27.094  11.018   7.804
  355AUC    AUC  342  26.112  11.018   7.197
  356AUC    AUC  343  26.112  11.018   7.501
  357AUC    AUC  344  26.112  11.018   7.804
  358AUC    AUC  345  26.299  11.508   7.501
  359AUC    AUC  346  26.603  11.508   7.501
  360AUC    AUC  347  26.906  11.508   7.501
  361AUC    AUC  348  26.299  10.527   7.501
  362AUC    AUC  349  26.603  10.527   7.501
  363AUC    AUC  350  26.906  10.527   7.501
  364AUC    AUC  351  26.603  10.714   7.991
  365AUC    AUC  352  26.603  11.018   7.991
  366AUC    AUC  353  26.603  11.321   7.991
  367AUC    AUC  354  26.603  10.714   7.010
  368AUC    AUC  355  26.603  11.018   7.010
  369AUC    AUC  356  26.603  11.321   7.010
  370AUC    AUC  357  26.848  10.866   7.898
  371AUC    AUC  358  26.848  11.169   7.898
  372AUC    AUC  359  26.848  10.866   7.103
  373AUC    AUC  360  26.848  11.169   7.103
  374AUC    AUC  361  26.357  10.866   7.898
  375AUC    AUC  362  26.357  11.169   7.898
  376AUC    AUC  363  26.357  10.866   7.103
  377AUC    AUC  364  26.357  11.169   7.103
  378AUC    AUC  365  27.000  11.263   7.349
  379AUC    AUC  366  27.000  11.263   7.652
  380AUC    AUC  367  26.206  11.263   7.349
  381AUC    AUC  368  26.206  11.263   7.652
  382AUC    AUC  369  27.000  10.772   7.349
  383AUC    AUC  370  27.000  10.772   7.652
  384AUC    AUC  371  26.206  10.772   7.349
  385AUC    AUC  372  26.206  10.772   7.652
  386AUC    AUC  373  26.451  11.415   7.746
  387AUC    AUC  374  26.754  11.415   7.746
  388AUC    AUC  375  26.451  10.621   7.746
  389AUC    AUC  376  26.754  10.621   7.746
  390AUC    AUC  377  26.451  11.415   7.255
  391AUC    AUC  378  26.754  11.415   7.255
  392AUC    AUC  379  26.451  10.621   7.255
  393AUC    AUC  380  26.754  10.621   7.255
  394AUSL   AUS  381  27.012  11.018   8.081
  395AUSL   AUS  382  26.868  10.601   8.011
  396AUL    AUL  383  27.094  10.714   8.295
  397THSLK    S  384  26.995  10.413   8.163
  398ETHY    C1  385  27.153  10.092   8.456
  399ETHY    C1  386  27.401   9.779   8.845
  400THSLK    S  387  27.117  10.978   8.333
  401ETHY    C1  388  27.360  10.911   8.720
  402ETHY    C1  389  27.653  10.930   9.194
  403AUSL   AUS  390  26.766  10.866   8.174
  404AUSL   AUS  391  26.439  11.169   8.174
  405AUL    AUL  392  26.603  11.018   8.482
  406THSLK    S  393  26.853  10.820   8.426
  407ETHY    C1  394  26.966  10.679   8.852
  408ETHY    C1  395  27.115  10.608   9.385
  409THSLK    S  396  26.351  11.138   8.439
  410ETHY    C1  397  26.246  11.149   8.889
  411ETHY    C1  398  26.096  11.257   9.415
  412AUSL   AUS  399  26.766  11.169   8.174
  413AUSL   AUS  400  27.113  11.282   7.917
  414AUL    AUL  401  27.094  11.321   8.295
  415THSLK    S  402  26.854  11.215   8.426
  416ETHY    C1  403  26.960  11.355   8.854
  417ETHY    C1  404  27.110  11.427   9.386
  418THSLK    S  405  27.293  11.398   8.082
  419ETHY    C1  406  27.638  11.533   8.358
  420ETHY    C1  407  28.013  11.787   8.683
  421AUSL   AUS  408  27.012  11.018   6.921
  422AUSL   AUS  409  26.868  11.434   6.990
  423AUL    AUL  410  27.094  11.321   6.706
  424THSLK    S  411  27.118  10.978   6.668
  425ETHY    C1  412  27.355  10.911   6.278
  426ETHY    C1  413  27.648  10.930   5.804
  427THSLK    S  414  27.043  11.562   6.816
  428ETHY    C1  415  27.274  11.780   6.480
  429ETHY    C1  416  27.500  12.122   6.102
  430AUSL   AUS  417  26.766  10.866   6.827
  431AUSL   AUS  418  27.113  10.753   7.084
  432AUL    AUL  419  27.094  10.714   6.706
  433THSLK    S  420  27.259  10.566   6.932
  434ETHY    C1  421  27.543  10.312   6.670
  435ETHY    C1  422  27.935  10.092   6.340
  436THSLK    S  423  26.854  10.820   6.575
  437ETHY    C1  424  26.960  10.680   6.147
  438ETHY    C1  425  27.110  10.608   5.615
  439AUSL   AUS  426  26.766  11.169   6.827
  440AUSL   AUS  427  26.439  10.866   6.827
  441AUL    AUL  428  26.603  11.018   6.519
  442THSLK    S  429  26.339  10.820   6.579
  443ETHY    C1  430  26.205  10.682   6.158
  444ETHY    C1  431  26.062  10.610   5.624
  445THSLK    S  432  26.867  11.137   6.566
  446ETHY    C1  433  26.994  11.146   6.121
  447ETHY    C1  434  27.138  11.255   5.594
  448AUSL   AUS  435  26.194  11.018   8.081
  449AUSL   AUS  436  26.338  11.434   8.011
  450AUL    AUL  437  26.112  11.321   8.295
  451THSLK    S  438  26.088  10.978   8.333
  452ETHY    C1  439  25.851  10.911   8.723
  453ETHY    C1  440  25.557  10.930   9.197
  454THSLK    S  441  26.210  11.576   8.202
  455ETHY    C1  442  26.057  11.821   8.563
  456ETHY    C1  443  25.809  12.156   8.933
  457AUSL   AUS  444  26.439  10.866   8.174
  458AUSL   AUS  445  26.093  10.753   7.917
  459AUL    AUL  446  26.112  10.714   8.295
  460THSLK    S  447  25.912  10.585   8.043
  461ETHY    C1  448  25.571  10.359   8.259
  462ETHY    C1  449  25.195  10.131   8.602
  463THSLK    S  450  26.339  10.820   8.422
  464ETHY    C1  451  26.211  10.681   8.844
  465ETHY    C1  452  26.067  10.609   9.378
  466AUSL   AUS  453  26.194  11.018   6.921
  467AUSL   AUS  454  26.338  10.601   6.990
  468AUL    AUL  455  26.112  10.714   6.706
  469THSLK    S  456  26.089  10.978   6.668
  470ETHY    C1  457  25.845  10.911   6.281
  471ETHY    C1  458  25.553  10.930   5.807
  472THSLK    S  459  26.164  10.427   6.855
  473ETHY    C1  460  25.927  10.134   6.587
  474ETHY    C1  461  25.702   9.813   6.190
  475AUSL   AUS  462  26.439  11.169   6.827
  476AUSL   AUS  463  26.093  11.282   7.084
  477AUL    AUL  464  26.112  11.321   6.706
  478THSLK    S  465  25.947  11.417   6.894
  479ETHY    C1  466  25.658  11.581   6.572
  480ETHY    C1  467  25.267  11.826   6.259
  481THSLK    S  468  26.352  11.138   6.562
  482ETHY    C1  469  26.239  11.148   6.114
  483ETHY    C1  470  26.091  11.256   5.587
  484AUSL   AUS  471  27.183  11.427   7.501
  485AUSL   AUS  472  27.113  11.282   7.084
  486AUL    AUL  473  27.397  11.508   7.197
  487THSLK    S  474  27.293  11.399   6.920
  488ETHY    C1  475  27.634  11.532   6.638
  489ETHY    C1  476  28.010  11.786   6.314
  490THSLK    S  477  27.456  11.498   7.501
  491ETHY    C1  478  27.880  11.682   7.497
  492ETHY    C1  479  28.344  11.991   7.498
  493AUSL   AUS  480  27.277  11.181   7.349
  494AUSL   AUS  481  27.277  10.854   7.652
  495AUL    AUL  482  27.584  11.018   7.501
  496THSLK    S  483  27.544  11.236   7.341
  497ETHY    C1  484  27.996  11.292   7.262
  498ETHY    C1  485  28.521  11.457   7.172
  499THSLK    S  486  27.523  10.722   7.659
  500ETHY    C1  487  27.940  10.537   7.728
  501ETHY    C1  488  28.476  10.409   7.820
  502AUSL   AUS  489  27.277  11.181   7.652
  503AUSL   AUS  490  27.019  11.528   7.765
  504AUL    AUL  491  27.397  11.508   7.804
  505THSLK    S  492  27.205  11.663   7.925
  506ETHY    C1  493  27.521  11.931   8.128
  507ETHY    C1  494  27.836  12.328   8.362
  508THSLK    S  495  27.544  11.236   7.661
  509ETHY    C1  496  27.996  11.292   7.733
  510ETHY    C1  497  28.522  11.457   7.824
  511AUSL   AUS  498  26.023  11.427   7.501
  512AUSL   AUS  499  26.093  11.282   7.917
  513AUL    AUL  500  25.809  11.508   7.804
  514THSLK    S  501  25.946  11.417   8.107
  515ETHY    C1  502  25.662  11.586   8.430
  516ETHY    C1  503  25.270  11.831   8.743
  517THSLK    S  504  25.792  11.565   7.501
  518ETHY    C1  505  25.438  11.863   7.497
  519ETHY    C1  506  24.954  12.140   7.498
  520AUSL   AUS  507  25.929  11.181   7.349
  521AUSL   AUS  508  26.186  11.528   7.236
  522AUL    AUL  509  25.809  11.508   7.197
  523THSLK    S  510  25.683  11.291   7.307
  524ETHY    C1  511  25.265  11.436   7.173
  525ETHY    C1  512  24.730  11.576   7.099
  526THSLK    S  513  26.055  11.697   7.056
  527ETHY    C1  514  25.831  12.019   6.812
  528ETHY    C1  515  25.491  12.401   6.589
  529AUSL   AUS  516  25.929  11.181   7.652
  530AUSL   AUS  517  25.929  10.854   7.349
  531AUL    AUL  518  25.621  11.018   7.501
  532THSLK    S  519  25.662  10.776   7.377
  533ETHY    C1  520  25.209  10.687   7.359
  534ETHY    C1  521  24.684  10.532   7.252
  535THSLK    S  522  25.683  11.291   7.694
  536ETHY    C1  523  25.266  11.442   7.825
  537ETHY    C1  524  24.731  11.580   7.900
  538AUSL   AUS  525  27.183  10.609   7.501
  539AUSL   AUS  526  27.113  10.753   7.917
  540AUL    AUL  527  27.397  10.527   7.804
  541THSLK    S  528  27.414  10.470   7.501
  542ETHY    C1  529  27.768  10.172   7.497
  543ETHY    C1  530  28.252   9.895   7.498
  544THSLK    S  531  27.259  10.566   8.070
  545ETHY    C1  532  27.547  10.311   8.326
  546ETHY    C1  533  27.939  10.091   8.657
  547AUSL   AUS  534  27.277  10.854   7.349
  548AUSL   AUS  535  27.019  10.507   7.236
  549AUL    AUL  536  27.397  10.527   7.197
  550THSLK    S  537  27.523  10.722   7.343
  551ETHY    C1  538  27.939  10.537   7.266
  552ETHY    C1  539  28.475  10.409   7.176
  553THSLK    S  540  27.151  10.316   7.092
  554ETHY    C1  541  27.372   9.955   6.907
  555ETHY    C1  542  27.713   9.585   6.667
  556AUSL   AUS  543  26.023  10.609   7.501
  557AUSL   AUS  544  26.093  10.753   7.084
  558AUL    AUL  545  25.809  10.527   7.197
  559THSLK    S  546  25.913  10.585   6.958
  560ETHY    C1  547  25.567  10.365   6.743
  561ETHY    C1  548  25.192  10.135   6.400
  562THSLK    S  549  25.750  10.537   7.501
  563ETHY    C1  550  25.326  10.354   7.497
  564ETHY    C1  551  24.862  10.044   7.498
  565AUSL   AUS  552  25.929  10.854   7.652
  566AUSL   AUS  553  26.186  10.507   7.765
  567AUL    AUL  554  25.809  10.527   7.804
  568THSLK    S  555  26.000  10.350   7.889
  569ETHY    C1  556  25.687  10.044   8.033
  570ETHY    C1  557  25.372   9.657   8.284
  571THSLK    S  558  25.662  10.777   7.625
  572ETHY    C1  559  25.210  10.681   7.639
  573ETHY    C1  560  24.685  10.528   7.746
  574AUSL   AUS  561  26.603  11.598   7.910
  575AUSL   AUS  562  26.186  11.528   7.765
  576AUL    AUL  563  26.299  11.812   7.991
  577THSLK    S  564  26.055  11.696   7.945
  578ETHY    C1  565  25.834  12.024   8.185
  579ETHY    C1  566  25.493  12.404   8.409
  580THSLK    S  567  26.637  11.839   8.033
  581ETHY    C1  568  26.695  12.211   8.301
  582ETHY    C1  569  26.679  12.690   8.586
  583AUSL   AUS  570  26.451  11.691   7.664
  584AUSL   AUS  571  26.754  11.691   7.337
  585AUL    AUL  572  26.603  11.999   7.501
  586THSLK    S  573  26.482  11.951   7.770
  587ETHY    C1  574  26.472  12.392   7.907
  588ETHY    C1  575  26.363  12.921   8.048
  589THSLK    S  576  26.799  11.940   7.235
  590ETHY    C1  577  26.937  12.358   7.097
  591ETHY    C1  578  27.009  12.893   6.955
  592AUSL   AUS  579  26.754  11.691   7.664
  593AUSL   AUS  580  26.868  11.434   8.011
  594AUL    AUL  581  26.906  11.812   7.991
  595THSLK    S  582  27.042  11.562   8.185
  596ETHY    C1  583  27.278  11.781   8.517
  597ETHY    C1  584  27.504  12.123   8.895
  598THSLK    S  585  26.799  11.939   7.767
  599ETHY    C1  586  26.938  12.360   7.898
  600ETHY    C1  587  27.011  12.894   8.041
  601AUSL   AUS  588  26.603  10.438   7.910
  602AUSL   AUS  589  27.019  10.507   7.765
  603AUL    AUL  590  26.906  10.223   7.991
  604THSLK    S  591  26.569  10.174   7.997
  605ETHY    C1  592  26.514   9.765   8.205
  606ETHY    C1  593  26.529   9.297   8.507
  607THSLK    S  594  27.151  10.316   7.910
  608ETHY    C1  595  27.374   9.954   8.089
  609ETHY    C1  596  27.715   9.584   8.330
  610AUSL   AUS  597  26.451  10.344   7.664
  611AUSL   AUS  598  26.338  10.601   8.011
  612AUL    AUL  599  26.299  10.223   7.991
  613THSLK    S  600  26.406  10.091   7.746
  614ETHY    C1  601  26.269   9.660   7.843
  615ETHY    C1  602  26.196   9.128   7.996
  616THSLK    S  603  26.163  10.427   8.146
  617ETHY    C1  604  25.932  10.129   8.413
  618ETHY    C1  605  25.705   9.809   8.810
  619AUSL   AUS  606  26.754  10.344   7.664
  620AUSL   AUS  607  26.451  10.344   7.337
  621AUL    AUL  608  26.603  10.036   7.501
  622THSLK    S  609  26.406  10.091   7.255
  623ETHY    C1  610  26.267   9.662   7.152
  624ETHY    C1  611  26.195   9.130   7.001
  625THSLK    S  612  26.723  10.079   7.750
  626ETHY    C1  613  26.736   9.628   7.852
  627ETHY    C1  614  26.844   9.102   8.003
  628AUSL   AUS  615  26.603  11.598   7.092
  629AUSL   AUS  616  27.019  11.528   7.236
  630AUL    AUL  617  26.906  11.812   7.010
  631THSLK    S  618  26.637  11.839   6.969
  632ETHY    C1  619  26.692  12.208   6.696
  633ETHY    C1  620  26.676  12.687   6.412
  634THSLK    S  621  27.206  11.663   7.077
  635ETHY    C1  622  27.519  11.930   6.868
  636ETHY    C1  623  27.834  12.327   6.634
  637AUSL   AUS  624  26.451  11.691   7.337
  638AUSL   AUS  625  26.338  11.434   6.990
  639AUL    AUL  626  26.299  11.812   7.010
  640THSLK    S  627  26.482  11.952   7.232
  641ETHY    C1  628  26.470  12.390   7.088
  642ETHY    C1  629  26.362  12.919   6.948
  643THSLK    S  630  26.211  11.577   6.799
  644ETHY    C1  631  26.053  11.817   6.437
  645ETHY    C1  632  25.805  12.152   6.067
  646AUSL   AUS  633  26.603  10.438   7.092
  647AUSL   AUS  634  26.186  10.507   7.236
  648AUL    AUL  635  26.299  10.223   7.010
  649THSLK    S  636  26.000  10.350   7.113
  650ETHY    C1  637  25.684  10.048   6.964
  651ETHY    C1  638  25.370   9.661   6.714
  652THSLK    S  639  26.569  10.174   7.004
  653ETHY    C1  640  26.510   9.769   6.791
  654ETHY    C1  641  26.527   9.299   6.490
  655AUSL   AUS  642  26.754  10.344   7.337
  656AUSL   AUS  643  26.868  10.601   6.990
  657AUL    AUL  644  26.906  10.223   7.010
  658THSLK    S  645  26.724  10.078   7.252
  659ETHY    C1  646  26.734   9.630   7.143
  660ETHY    C1  647  26.842   9.103   6.993
  661THSLK    S  648  26.996  10.412   6.839
  662ETHY    C1  649  27.148  10.094   6.541
  663ETHY    C1  650  27.397   9.780   6.152
  664AUC    AUC  651  11.189  17.984   7.501
  665AUC    AUC  652  11.434  17.984   7.349
  666AUC    AUC  653  11.434  17.984   7.652
  667AUC    AUC  654  10.943  17.984   7.349
  668AUC    AUC  655  10.943  17.984   7.652
  669AUC    AUC  656  11.037  18.229   7.501
  670AUC    AUC  657  11.340  18.229   7.501
  671AUC    AUC  658  11.037  17.738   7.501
  672AUC    AUC  659  11.340  17.738   7.501
  673AUC    AUC  660  11.189  17.832   7.746
  674AUC    AUC  661  11.189  18.135   7.746
  675AUC    AUC  662  11.189  17.832   7.255
  676AUC    AUC  663  11.189  18.135   7.255
  677AUC    AUC  664  11.680  17.984   7.197
  678AUC    AUC  665  11.680  17.984   7.501
  679AUC    AUC  666  11.680  17.984   7.804
  680AUC    AUC  667  10.698  17.984   7.197
  681AUC    AUC  668  10.698  17.984   7.501
  682AUC    AUC  669  10.698  17.984   7.804
  683AUC    AUC  670  10.885  18.474   7.501
  684AUC    AUC  671  11.189  18.474   7.501
  685AUC    AUC  672  11.492  18.474   7.501
  686AUC    AUC  673  10.885  17.493   7.501
  687AUC    AUC  674  11.189  17.493   7.501
  688AUC    AUC  675  11.492  17.493   7.501
  689AUC    AUC  676  11.189  17.680   7.991
  690AUC    AUC  677  11.189  17.984   7.991
  691AUC    AUC  678  11.189  18.287   7.991
  692AUC    AUC  679  11.189  17.680   7.010
  693AUC    AUC  680  11.189  17.984   7.010
  694AUC    AUC  681  11.189  18.287   7.010
  695AUC    AUC  682  11.434  17.832   7.898
  696AUC    AUC  683  11.434  18.135   7.898
  697AUC    AUC  684  11.434  17.832   7.103
  698AUC    AUC  685  11.434  18.135   7.103
  699AUC    AUC  686  10.943  17.832   7.898
  700AUC    AUC  687  10.943  18.135   7.898
  701AUC    AUC  688  10.943  17.832   7.103
  702AUC    AUC  689  10.943  18.135   7.103
  703AUC    AUC  690  11.586  18.229   7.349
  704AUC    AUC  691  11.586  18.229   7.652
  705AUC    AUC  692  10.792  18.229   7.349
  706AUC    AUC  693  10.792  18.229   7.652
  707AUC    AUC  694  11.586  17.738   7.349
  708AUC    AUC  695  11.586  17.738   7.652
  709AUC    AUC  696  10.792  17.738   7.349
  710AUC    AUC  697  10.792  17.738   7.652
  711AUC    AUC  698  11.037  18.381   7.746
  712AUC    AUC  699  11.340  18.381   7.746
  713AUC    AUC  700  11.037  17.587   7.746
  714AUC    AUC  701  11.340  17.587   7.746
  715AUC    AUC  702  11.037  18.381   7.255
  716AUC    AUC  703  11.340  18.381   7.255
  717AUC    AUC  704  11.037  17.587   7.255
  718AUC    AUC  705  11.340  17.587   7.255
  719AUSL   AUS  706  11.598  17.984   8.081
  720AUSL   AUS  707  11.454  17.567   8.011
  721AUL    AUL  708  11.680  17.680   8.295
  722THSLK    S  709  11.581  17.379   8.163
  723ETHY    C1  710  11.739  17.058   8.456
  724ETHY    C1  711  11.987  16.745   8.845
  725THSLK    S  712  11.703  17.944   8.333
  726ETHY    C1  713  11.946  17.877   8.720
  727ETHY    C1  714  12.239  17.896   9.194
  728AUSL   AUS  715  11.352  17.832   8.174
  729AUSL   AUS  716  11.025  18.135   8.174
  730AUL    AUL  717  11.189  17.984   8.482
  731THSLK    S  718  11.439  17.786   8.426
  732ETHY    C1  719  11.552  17.645   8.852
  733ETHY    C1  720  11.701  17.574   9.385
  734THSLK    S  721  10.937  18.104   8.439
  735ETHY    C1  722  10.832  18.115   8.889
  736ETHY    C1  723  10.682  18.223   9.415
  737AUSL   AUS  724  11.352  18.135   8.174
  738AUSL   AUS  725  11.699  18.248   7.917
  739AUL    AUL  726  11.680  18.287   8.295
  740THSLK    S  727  11.440  18.181   8.426
  741ETHY    C1  728  11.546  18.321   8.854
  742ETHY    C1  729  11.696  18.393   9.386
  743THSLK    S  730  11.879  18.364   8.082
  744ETHY    C1  731  12.224  18.499   8.358
  745ETHY    C1  732  12.599  18.753   8.683
  746AUSL   AUS  733  11.598  17.984   6.921
  747AUSL   AUS  734  11.454  18.400   6.990
  748AUL    AUL  735  11.680  18.287   6.706
  749THSLK    S  736  11.704  17.944   6.668
  750ETHY    C1  737  11.941  17.877   6.278
  751ETHY    C1  738  12.234  17.896   5.804
  752THSLK    S  739  11.629  18.528   6.816
  753ETHY    C1  740  11.860  18.746   6.480
  754ETHY    C1  741  12.086  19.088   6.102
  755AUSL   AUS  742  11.352  17.832   6.827
  756AUSL   AUS  743  11.699  17.719   7.084
  757AUL    AUL  744  11.680  17.680   6.706
  758THSLK    S  745  11.845  17.532   6.932
  759ETHY    C1  746  12.129  17.278   6.670
  760ETHY    C1  747  12.521  17.058   6.340
  761THSLK    S  748  11.440  17.786   6.575
  762ETHY    C1  749  11.546  17.646   6.147
  763ETHY    C1  750  11.696  17.574   5.615
  764AUSL   AUS  751  11.352  18.135   6.827
  765AUSL   AUS  752  11.025  17.832   6.827
  766AUL    AUL  753  11.189  17.984   6.519
  767THSLK    S  754  10.925  17.786   6.579
  768ETHY    C1  755  10.791  17.648   6.158
  769ETHY    C1  756  10.648  17.576   5.624
  770THSLK    S  757  11.453  18.103   6.566
  771ETHY    C1  758  11.580  18.112   6.121
  772ETHY    C1  759  11.724  18.221   5.594
  773AUSL   AUS  760  10.780  17.984   8.081
  774AUSL   AUS  761  10.924  18.400   8.011
  775AUL    AUL  762  10.698  18.287   8.295
  776THSLK    S  763  10.674  17.944   8.333
  777ETHY    C1  764  10.437  17.877   8.723
  778ETHY    C1  765  10.143  17.896   9.197
  779THSLK    S  766  10.796  18.542   8.202
  780ETHY    C1  767  10.643  18.787   8.563
  781ETHY    C1  768  10.395  19.122   8.933
  782AUSL   AUS  769  11.025  17.832   8.174
  783AUSL   AUS  770  10.679  17.719   7.917
  784AUL    AUL  771  10.698  17.680   8.295
  785THSLK    S  772  10.498  17.551   8.043
  786ETHY    C1  773  10.157  17.325   8.259
  787ETHY    C1  774   9.781  17.097   8.602
  788THSLK    S  775  10.925  17.786   8.422
  789ETHY    C1  776  10.797  17.647   8.844
  790ETHY    C1  777  10.653  17.575   9.378
  791AUSL   AUS  778  10.780  17.984   6.921
  792AUSL   AUS  779  10.924  17.567   6.990
  793AUL    AUL  780  10.698  17.680   6.706
  794THSLK    S  781  10.675  17.944   6.668
  795ETHY    C1  782  10.431  17.877   6.281
  796ETHY    C1  783  10.139  17.896   5.807
  797THSLK    S  784  10.750  17.393   6.855
  798ETHY    C1  785  10.513  17.100   6.587
  799ETHY    C1  786  10.288  16.779   6.190
  800AUSL   AUS  787  11.025  18.135   6.827
  801AUSL   AUS  788  10.679  18.248   7.084
  802AUL    AUL  789  10.698  18.287   6.706
  803THSLK    S  790  10.533  18.383   6.894
  804ETHY    C1  791  10.244  18.547   6.572
  805ETHY    C1  792   9.853  18.792   6.259
  806THSLK    S  793  10.938  18.104   6.562
  807ETHY    C1  794  10.825  18.114   6.114
  808ETHY    C1  795  10.677  18.222   5.587
  809AUSL   AUS  796  11.769  18.393   7.501
  810AUSL   AUS  797  11.699  18.248   7.084
  811AUL    AUL  798  11.983  18.474   7.197
  812THSLK    S  799  11.879  18.365   6.920
  813ETHY    C1  800  12.220  18.498   6.638
  814ETHY    C1  801  12.596  18.752   6.314
  815THSLK    S  802  12.042  18.464   7.501
  816ETHY    C1  803  12.466  18.648   7.497
  817ETHY    C1  804  12.930  18.957   7.498
  818AUSL   AUS  805  11.863  18.147   7.349
  819AUSL   AUS  806  11.863  17.820   7.652
  820AUL    AUL  807  12.170  17.984   7.501
  821THSLK    S  808  12.130  18.202   7.341
  822ETHY    C1  809  12.582  18.258   7.262
  823ETHY    C1  810  13.107  18.423   7.172
  824THSLK    S  811  12.109  17.688   7.659
  825ETHY    C1  812  12.526  17.503   7.728
  826ETHY    C1  813  13.062  17.375   7.820
  827AUSL   AUS  814  11.863  18.147   7.652
  828AUSL   AUS  815  11.605  18.494   7.765
  829AUL    AUL  816  11.983  18.474   7.804
  830THSLK    S  817  11.791  18.629   7.925
  831ETHY    C1  818  12.107  18.897   8.128
  832ETHY    C1  819  12.422  19.294   8.362
  833THSLK    S  820  12.130  18.202   7.661
  834ETHY    C1  821  12.582  18.258   7.733
  835ETHY    C1  822  13.108  18.423   7.824
  836AUSL   AUS  823  10.609  18.393   7.501
  837AUSL   AUS  824  10.679  18.248   7.917
  838AUL    AUL  825  10.395  18.474   7.804
  839THSLK    S  826  10.532  18.383   8.107
  840ETHY    C1  827  10.248  18.552   8.430
  841ETHY    C1  828   9.856  18.797   8.743
  842THSLK    S  829  10.378  18.531   7.501
  843ETHY    C1  830  10.024  18.829   7.497
  844ETHY    C1  831   9.540  19.106   7.498
  845AUSL   AUS  832  10.515  18.147   7.349
  846AUSL   AUS  833  10.772  18.494   7.236
  847AUL    AUL  834  10.395  18.474   7.197
  848THSLK    S  835  10.269  18.257   7.307
  849ETHY    C1  836   9.851  18.402   7.173
  850ETHY    C1  837   9.316  18.542   7.099
  851THSLK    S  838  10.641  18.663   7.056
  852ETHY    C1  839  10.417  18.985   6.812
  853ETHY    C1  840  10.077  19.367   6.589
  854AUSL   AUS  841  10.515  18.147   7.652
  855AUSL   AUS  842  10.515  17.820   7.349
  856AUL    AUL  843  10.207  17.984   7.501
  857THSLK    S  844  10.248  17.742   7.377
  858ETHY    C1  845   9.795  17.653   7.359
  859ETHY    C1  846   9.270  17.498   7.252
  860THSLK    S  847  10.269  18.257   7.694
  861ETHY    C1  848   9.852  18.408   7.825
  862ETHY    C1  849   9.317  18.546   7.900
  863AUSL   AUS  850  11.769  17.575   7.501
  864AUSL   AUS  851  11.699  17.719   7.917
  865AUL    AUL  852  11.983  17.493   7.804
  866THSLK    S  853  12.000  17.436   7.501
  867ETHY    C1  854  12.354  17.138   7.497
  868ETHY    C1  855  12.838  16.861   7.498
  869THSLK    S  856  11.845  17.532   8.070
  870ETHY    C1  857  12.133  17.277   8.326
  871ETHY    C1  858  12.525  17.057   8.657
  872AUSL   AUS  859  11.863  17.820   7.349
  873AUSL   AUS  860  11.605  17.473   7.236
  874AUL    AUL  861  11.983  17.493   7.197
  875THSLK    S  862  12.109  17.688   7.343
  876ETHY    C1  863  12.525  17.503   7.266
  877ETHY    C1  864  13.061  17.375   7.176
  878THSLK    S  865  11.737  17.282   7.092
  879ETHY    C1  866  11.958  16.921   6.907
  880ETHY    C1  867  12.299  16.551   6.667
  881AUSL   AUS  868  10.609  17.575   7.501
  882AUSL   AUS  869  10.679  17.719   7.084
  883AUL    AUL  870  10.395  17.493   7.197
  884THSLK    S  871  10.499  17.551   6.958
  885ETHY    C1  872  10.153  17.331   6.743
  886ETHY    C1  873   9.778  17.101   6.400
  887THSLK    S  874  10.336  17.503   7.501
  888ETHY    C1  875   9.912  17.320   7.497
  889ETHY    C1  876   9.448  17.010   7.498
  890AUSL   AUS  877  10.515  17.820   7.652
  891AUSL   AUS  878  10.772  17.473   7.765
  892AUL    AUL  879  10.395  17.493   7.804
  893THSLK    S  880  10.586  17.316   7.889
  894ETHY    C1  881  10.273  17.010   8.033
  895ETHY    C1  882   9.958  16.623   8.284
  896THSLK    S  883  10.248  17.743   7.625
  897ETHY    C1  884   9.796  17.647   7.639
  898ETHY    C1  885   9.271  17.494   7.746
  899AUSL   AUS  886  11.189  18.564   7.910
  900AUSL   AUS  887  10.772  18.494   7.765
  901AUL    AUL  888  10.885  18.778   7.991
  902THSLK    S  889  10.641  18.662   7.945
  903ETHY    C1  890  10.420  18.990   8.185
  904ETHY    C1  891  10.079  19.370   8.409
  905THSLK    S  892  11.223  18.805   8.033
  906ETHY    C1  893  11.281  19.177   8.301
  907ETHY    C1  894  11.265  19.656   8.586
  908AUSL   AUS  895  11.037  18.657   7.664
  909AUSL   AUS  896  11.340  18.657   7.337
  910AUL    AUL  897  11.189  18.965   7.501
  911THSLK    S  898  11.068  18.917   7.770
  912ETHY    C1  899  11.058  19.358   7.907
  913ETHY    C1  900  10.949  19.887   8.048
  914THSLK    S  901  11.385  18.906   7.235
  915ETHY    C1  902  11.523  19.324   7.097
  916ETHY    C1  903  11.595  19.859   6.955
  917AUSL   AUS  904  11.340  18.657   7.664
  918AUSL   AUS  905  11.454  18.400   8.011
  919AUL    AUL  906  11.492  18.778   7.991
  920THSLK    S  907  11.628  18.528   8.185
  921ETHY    C1  908  11.864  18.747   8.517
  922ETHY    C1  909  12.090  19.089   8.895
  923THSLK    S  910  11.385  18.905   7.767
  924ETHY    C1  911  11.524  19.326   7.898
  925ETHY    C1  912  11.597  19.860   8.041
  926AUSL   AUS  913  11.189  17.404   7.910
  927AUSL   AUS  914  11.605  17.473   7.765
  928AUL    AUL  915  11.492  17.189   7.991
  929THSLK    S  916  11.155  17.140   7.997
  930ETHY    C1  917  11.100  16.731   8.205
  931ETHY    C1  918  11.115  16.263   8.507
  932THSLK    S  919  11.737  17.282   7.910
  933ETHY    C1  920  11.960  16.920   8.089
  934ETHY    C1  921  12.301  16.550   8.330
  935AUSL   AUS  922  11.037  17.310   7.664
  936AUSL   AUS  923  10.924  17.567   8.011
  937AUL    AUL  924  10.885  17.189   7.991
  938THSLK    S  925  10.992  17.057   7.746
  939ETHY    C1  926  10.855  16.626   7.843
  940ETHY    C1  927  10.782  16.094   7.996
  941THSLK    S  928  10.749  17.393   8.146
  942ETHY    C1  929  10.518  17.095   8.413
  943ETHY    C1  930  10.291  16.775   8.810
  944AUSL   AUS  931  11.340  17.310   7.664
  945AUSL   AUS  932  11.037  17.310   7.337
  946AUL    AUL  933  11.189  17.002   7.501
  947THSLK    S  934  10.992  17.057   7.255
  948ETHY    C1  935  10.853  16.628   7.152
  949ETHY    C1  936  10.781  16.096   7.001
  950THSLK    S  937  11.309  17.045   7.750
  951ETHY    C1  938  11.322  16.594   7.852
  952ETHY    C1  939  11.430  16.068   8.003
  953AUSL   AUS  940  11.189  18.564   7.092
  954AUSL   AUS  941  11.605  18.494   7.236
  955AUL    AUL  942  11.492  18.778   7.010
  956THSLK    S  943  11.223  18.805   6.969
  957ETHY    C1  944  11.278  19.174   6.696
  958ETHY    C1  945  11.262  19.653   6.412
  959THSLK    S  946  11.792  18.629   7.077
  960ETHY    C1  947  12.105  18.896   6.868
  961ETHY    C1  948  12.420  19.293   6.634
  962AUSL   AUS  949  11.037  18.657   7.337
  963AUSL   AUS  950  10.924  18.400   6.990
  964AUL    AUL  951  10.885  18.778   7.010
  965THSLK    S  952  11.068  18.918   7.232
  966ETHY    C1  953  11.056  19.356   7.088
  967ETHY    C1  954  10.948  19.885   6.948
  968THSLK    S  955  10.797  18.543   6.799
  969ETHY    C1  956  10.639  18.783   6.437
  970ETHY    C1  957  10.391  19.118   6.067
  971AUSL   AUS  958  11.189  17.404   7.092
  972AUSL   AUS  959  10.772  17.473   7.236
  973AUL    AUL  960  10.885  17.189   7.010
  974THSLK    S  961  10.586  17.316   7.113
  975ETHY    C1  962  10.270  17.014   6.964
  976ETHY    C1  963   9.956  16.627   6.714
  977THSLK    S  964  11.155  17.140   7.004
  978ETHY    C1  965  11.096  16.735   6.791
  979ETHY    C1  966  11.113  16.265   6.490
  980AUSL   AUS  967  11.340  17.310   7.337
  981AUSL   AUS  968  11.454  17.567   6.990
  982AUL    AUL  969  11.492  17.189   7.010
  983THSLK    S  970  11.310  17.044   7.252
  984ETHY    C1  971  11.320  16.596   7.143
  985ETHY    C1  972  11.428  16.069   6.993
  986THSLK    S  973  11.582  17.378   6.839
  987ETHY    C1  974  11.734  17.060   6.541
  988ETHY    C1  975  11.983  16.746   6.152
  989AUC    AUC  976  41.070  14.670   7.501
  990AUC    AUC  977  41.315  14.670   7.349
  991AUC    AUC  978  41.315  14.670   7.652
  992AUC    AUC  979  40.824  14.670   7.349
  993AUC    AUC  980  40.824  14.670   7.652
  994AUC    AUC  981  40.918  14.915   7.501
  995AUC    AUC  982  41.221  14.915   7.501
  996AUC    AUC  983  40.918  14.424   7.501
  997AUC    AUC  984  41.221  14.424   7.501
  998AUC    AUC  985  41.070  14.518   7.746
  999AUC    AUC  986  41.070  14.821   7.746
 1000AUC    AUC  987  41.070  14.518   7.255
 1001AUC    AUC  988  41.070  14.821   7.255
 1002AUC    AUC  989  41.561  14.670   7.197
 1003AUC    AUC  990  41.561  14.670   7.501
 1004AUC    AUC  991  41.561  14.670   7.804
 1005AUC    AUC  992  40.579  14.670   7.197
 1006AUC    AUC  993  40.579  14.670   7.501
 1007AUC    AUC  994  40.579  14.670   7.804
 1008AUC    AUC  995  40.766  15.160   7.501
 1009AUC    AUC  996  41.070  15.160   7.501
 1010AUC    AUC  997  41.373  15.160   7.501
 1011AUC    AUC  998  40.766  14.179   7.501
 1012AUC    AUC  999  41.070  14.179   7.501
 1013AUC    AUC 1000  41.373  14.179   7.501
 1014AUC    AUC 1001  41.070  14.366   7.991
 1015AUC    AUC 1002  41.070  14.670   7.991
 1016AUC    AUC 1003  41.070  14.973   7.991
 1017AUC    AUC 1004  41.070  14.366   7.010
 1018AUC    AUC 1005  41.070  14.670   7.010
 1019AUC    AUC 1006  41.070  14.973   7.010
 1020AUC    AUC 1007  41.315  14.518   7.898
 1021AUC    AUC 1008  41.315  14.821   7.898
 1022AUC    AUC 1009  41.315  14.518   7.103
 1023AUC    AUC 1010  41.315  14.821   7.103
 1024AUC    AUC 1011  40.824  14.518   7.898
 1025AUC    AUC 1012  40.824  14.821   7.898
 1026AUC    AUC 1013  40.824  14.518   7.103
 1027AUC    AUC 1014  40.824  14.821   7.103
 1028AUC    AUC 1015  41.467  14.915   7.349
 1029AUC    AUC 1016  41.467  14.915   7.652
 1030AUC    AUC 1017  40.673  14.915   7.349
 1031AUC    AUC 1018  40.673  14.915   7.652
 1032AUC    AUC 1019  41.467  14.424   7.349
 1033AUC    AUC 1020  41.467  14.424   7.652
 1034AUC    AUC 1021  40.673  14.424   7.349
 1035AUC    AUC 1022  40.673  14.424   7.652
 1036AUC    AUC 1023  40.918  15.067   7.746
 1037AUC    AUC 1024  41.221  15.067   7.746
 1038AUC    AUC 1025  40.918  14.273   7.746
 1039AUC    AUC 1026  41.221  14.273   7.746
 1040AUC    AUC 1027  40.918  15.067   7.255
 1041AUC    AUC 1028  41.221  15.067   7.255
 1042AUC    AUC 1029  40.918  14.273   7.255
 1043AUC    AUC 1030  41.221  14.273   7.255
 1044AUSL   AUS 1031  41.479  14.670   8.081
 1045AUSL   AUS 1032  41.335  14.253   8.011
 1046AUL    AUL 1033  41.561  14.366   8.295
 1047THSLK    S 1034  41.462  14.065   8.163
 1048ETHY    C1 1035  41.620  13.744   8.456
 1049ETHY    C1 1036  41.868  13.431   8.845
 1050THSLK    S 1037  41.584  14.630   8.333
 1051ETHY    C1 1038  41.827  14.563   8.720
 1052ETHY    C1 1039  42.120  14.582   9.194
 1053AUSL   AUS 1040  41.233  14.518   8.174
 1054AUSL   AUS 1041  40.906  14.821   8.174
 1055AUL    AUL 1042  41.070  14.670   8.482
 1056THSLK    S 1043  41.320  14.472   8.426
 1057ETHY    C1 1044  41.433  14.331   8.852
 1058ETHY    C1 1045  41.582  14.260   9.385
 1059THSLK    S 1046  40.818  14.790   8.439
 1060ETHY    C1 1047  40.713  14.801   8.889
 1061ETHY    C1 1048  40.563  14.909   9.415
 1062AUSL   AUS 1049  41.233  14.821   8.174
 1063AUSL   AUS 1050  41.580  14.934   7.917
 1064AUL    AUL 1051  41.561  14.973   8.295
 1065THSLK    S 1052  41.321  14.867   8.426
 1066ETHY    C1 1053  41.427  15.007   8.854
 1067ETHY    C1 1054  41.577  15.079   9.386
 1068THSLK    S 1055  41.760  15.050   8.082
 1069ETHY    C1 1056  42.105  15.185   8.358
 1070ETHY    C1 1057  42.480  15.439   8.683
 1071AUSL   AUS 1058  41.479  14.670   6.921
 1072AUSL   AUS 1059  41.335  15.086   6.990
 1073AUL    AUL 1060  41.561  14.973   6.706
 1074THSLK    S 1061  41.585  14.630   6.668
 1075ETHY    C1 1062  41.822  14.563   6.278
 1076ETHY    C1 1063  42.115  14.582   5.804
 1077THSLK    S 1064  41.510  15.214   6.816
 1078ETHY    C1 1065  41.741  15.432   6.480
 1079ETHY    C1 1066  41.967  15.774   6.102
 1080AUSL   AUS 1067  41.233  14.518   6.827
 1081AUSL   AUS 1068  41.580  14.405   7.084
 1082AUL    AUL 1069  41.561  14.366   6.706
 1083THSLK    S 1070  41.726  14.218   6.932
 1084ETHY    C1 1071  42.010  13.964   6.670
 1085ETHY    C1 1072  42.402  13.744   6.340
 1086THSLK    S 1073  41.321  14.472   6.575
 1087ETHY    C1 1074  41.427  14.332   6.147
 1088ETHY    C1 1075  41.577  14.260   5.615
 1089AUSL   AUS 1076  41.233  14.821   6.827
 1090AUSL   AUS 1077  40.906  14.518   6.827
 1091AUL    AUL 1078  41.070  14.670   6.519
 1092THSLK    S 1079  40.806  14.472   6.579
 1093ETHY    C1 1080  40.672  14.334   6.158
 1094ETHY    C1 1081  40.529  14.262   5.624
 1095THSLK    S 1082  41.334  14.789   6.566
 1096ETHY    C1 1083  41.461  14.798   6.121
 1097ETHY    C1 1084  41.605  14.907   5.594
 1098AUSL   AUS 1085  40.661  14.670   8.081
 1099AUSL   AUS 1086  40.805  15.086   8.011
 1100AUL    AUL 1087  40.579  14.973   8.295
 1101THSLK    S 1088  40.555  14.630   8.333
 1102ETHY    C1 1089  40.318  14.563   8.723
 1103ETHY    C1 1090  40.024  14.582   9.197
 1104THSLK    S 1091  40.677  15.228   8.202
 1105ETHY    C1 1092  40.524  15.473   8.563
 1106ETHY    C1 1093  40.276  15.808   8.933
 1107AUSL   AUS 1094  40.906  14.518   8.174
 1108AUSL   AUS 1095  40.560  14.405   7.917
 1109AUL    AUL 1096  40.579  14.366   8.295
 1110THSLK    S 1097  40.379  14.237   8.043
 1111ETHY    C1 1098  40.038  14.011   8.259
 1112ETHY    C1 1099  39.662  13.783   8.602
 1113THSLK    S 1100  40.806  14.472   8.422
 1114ETHY    C1 1101  40.678  14.333   8.844
 1115ETHY    C1 1102  40.534  14.261   9.378
 1116AUSL   AUS 1103  40.661  14.670   6.921
 1117AUSL   AUS 1104  40.805  14.253   6.990
 1118AUL    AUL 1105  40.579  14.366   6.706
 1119THSLK    S 1106  40.556  14.630   6.668
 1120ETHY    C1 1107  40.312  14.563   6.281
 1121ETHY    C1 1108  40.020  14.582   5.807
 1122THSLK    S 1109  40.631  14.079   6.855
 1123ETHY    C1 1110  40.394  13.786   6.587
 1124ETHY    C1 1111  40.169  13.465   6.190
 1125AUSL   AUS 1112  40.906  14.821   6.827
 1126AUSL   AUS 1113  40.560  14.934   7.084
 1127AUL    AUL 1114  40.579  14.973   6.706
 1128THSLK    S 1115  40.414  15.069   6.894
 1129ETHY    C1 1116  40.125  15.233   6.572
 1130ETHY    C1 1117  39.734  15.478   6.259
 1131THSLK    S 1118  40.819  14.790   6.562
 1132ETHY    C1 1119  40.706  14.800   6.114
 1133ETHY    C1 1120  40.558  14.908   5.587
 1134AUSL   AUS 1121  41.650  15.079   7.501
 1135AUSL   AUS 1122  41.580  14.934   7.084
 1136AUL    AUL 1123  41.864  15.160   7.197
 1137THSLK    S 1124  41.760  15.051   6.920
 1138ETHY    C1 1125  42.101  15.184   6.638
 1139ETHY    C1 1126  42.477  15.438   6.314
 1140THSLK    S 1127  41.923  15.150   7.501
 1141ETHY    C1 1128  42.347  15.334   7.497
 1142ETHY    C1 1129  42.811  15.643   7.498
 1143AUSL   AUS 1130  41.744  14.833   7.349
 1144AUSL   AUS 1131  41.744  14.506   7.652
 1145AUL    AUL 1132  42.051  14.670   7.501
 1146THSLK    S 1133  42.011  14.888   7.341
 1147ETHY    C1 1134  42.463  14.944   7.262
 1148ETHY    C1 1135  42.988  15.109   7.172
 1149THSLK    S 1136  41.990  14.374   7.659
 1150ETHY    C1 1137  42.407  14.189   7.728
 1151ETHY    C1 1138  42.943  14.061   7.820
 1152AUSL   AUS 1139  41.744  14.833   7.652
 1153AUSL   AUS 1140  41.486  15.180   7.765
 1154AUL    AUL 1141  41.864  15.160   7.804
 1155THSLK    S 1142  41.672  15.315   7.925
 1156ETHY    C1 1143  41.988  15.583   8.128
 1157ETHY    C1 1144  42.303  15.980   8.362
 1158THSLK    S 1145  42.011  14.888   7.661
 1159ETHY    C1 1146  42.463  14.944   7.733
 1160ETHY    C1 1147  42.989  15.109   7.824
 1161AUSL   AUS 1148  40.490  15.079   7.501
 1162AUSL   AUS 1149  40.560  14.934   7.917
 1163AUL    AUL 1150  40.276  15.160   7.804
 1164THSLK    S 1151  40.413  15.069   8.107
 1165ETHY    C1 1152  40.129  15.238   8.430
 1166ETHY    C1 1153  39.737  15.483   8.743
 1167THSLK    S 1154  40.259  15.217   7.501
 1168ETHY    C1 1155  39.905  15.515   7.497
 1169ETHY    C1 1156  39.421  15.792   7.498
 1170AUSL   AUS 1157  40.396  14.833   7.349
 1171AUSL   AUS 1158  40.653  15.180   7.236
 1172AUL    AUL 1159  40.276  15.160   7.197
 1173THSLK    S 1160  40.150  14.943   7.307
 1174ETHY    C1 1161  39.732  15.088   7.173
 1175ETHY    C1 1162  39.197  15.228   7.099
 1176THSLK    S 1163  40.522  15.349   7.056
 1177ETHY    C1 1164  40.298  15.671   6.812
 1178ETHY    C1 1165  39.958  16.053   6.589
 1179AUSL   AUS 1166  40.396  14.833   7.652
 1180AUSL   AUS 1167  40.396  14.506   7.349
 1181AUL    AUL 1168  40.088  14.670   7.501
 1182THSLK    S 1169  40.129  14.428   7.377
 1183ETHY    C1 1170  39.676  14.339   7.359
 1184ETHY    C1 1171  39.151  14.184   7.252
 1185THSLK    S 1172  40.150  14.943   7.694
 1186ETHY    C1 1173  39.733  15.094   7.825
 1187ETHY    C1 1174  39.198  15.232   7.900
 1188AUSL   AUS 1175  41.650  14.261   7.501
 1189AUSL   AUS 1176  41.580  14.405   7.917
 1190AUL    AUL 1177  41.864  14.179   7.804
 1191THSLK    S 1178  41.881  14.122   7.501
 1192ETHY    C1 1179  42.235  13.824   7.497
 1193ETHY    C1 1180  42.719  13.547   7.498
 1194THSLK    S 1181  41.726  14.218   8.070
 1195ETHY    C1 1182  42.014  13.963   8.326
 1196ETHY    C1 1183  42.406  13.743   8.657
 1197AUSL   AUS 1184  41.744  14.506   7.349
 1198AUSL   AUS 1185  41.486  14.159   7.236
 1199AUL    AUL 1186  41.864  14.179   7.197
 1200THSLK    S 1187  41.990  14.374   7.343
 1201ETHY    C1 1188  42.406  14.189   7.266
 1202ETHY    C1 1189  42.942  14.061   7.176
 1203THSLK    S 1190  41.618  13.968   7.092
 1204ETHY    C1 1191  41.839  13.607   6.907
 1205ETHY    C1 1192  42.180  13.237   6.667
 1206AUSL   AUS 1193  40.490  14.261   7.501
 1207AUSL   AUS 1194  40.560  14.405   7.084
 1208AUL    AUL 1195  40.276  14.179   7.197
 1209THSLK    S 1196  40.380  14.237   6.958
 1210ETHY    C1 1197  40.034  14.017   6.743
 1211ETHY    C1 1198  39.659  13.787   6.400
 1212THSLK    S 1199  40.217  14.189   7.501
 1213ETHY    C1 1200  39.793  14.006   7.497
 1214ETHY    C1 1201  39.329  13.696   7.498
 1215AUSL   AUS 1202  40.396  14.506   7.652
 1216AUSL   AUS 1203  40.653  14.159   7.765
 1217AUL    AUL 1204  40.276  14.179   7.804
 1218THSLK    S 1205  40.467  14.002   7.889
 1219ETHY    C1 1206  40.154  13.696   8.033
 1220ETHY    C1 1207  39.839  13.309   8.284
 1221THSLK    S 1208  40.129  14.429   7.625
 1222ETHY    C1 1209  39.677  14.333   7.639
 1223ETHY    C1 1210  39.152  14.180   7.746
 1224AUSL   AUS 1211  41.070  15.250   7.910
 1225AUSL   AUS 1212  40.653  15.180   7.765
 1226AUL    AUL 1213  40.766  15.464   7.991
 1227THSLK    S 1214  40.522  15.348   7.945
 1228ETHY    C1 1215  40.301  15.676   8.185
 1229ETHY    C1 1216  39.960  16.056   8.409
 1230THSLK    S 1217  41.104  15.491   8.033
 1231ETHY    C1 1218  41.162  15.863   8.301
 1232ETHY    C1 1219  41.146  16.342   8.586
 1233AUSL   AUS 1220  40.918  15.343   7.664
 1234AUSL   AUS 1221  41.221  15.343   7.337
 1235AUL    AUL 1222  41.070  15.651   7.501
 1236THSLK    S 1223  40.949  15.603   7.770
 1237ETHY    C1 1224  40.939  16.044   7.907
 1238ETHY    C1 1225  40.830  16.573   8.048
 1239THSLK    S 1226  41.266  15.592   7.235
 1240ETHY    C1 1227  41.404  16.010   7.097
 1241ETHY    C1 1228  41.476  16.545   6.955
 1242AUSL   AUS 1229  41.221  15.343   7.664
 1243AUSL   AUS 1230  41.335  15.086   8.011
 1244AUL    AUL 1231  41.373  15.464   7.991
 1245THSLK    S 1232  41.509  15.214   8.185
 1246ETHY    C1 1233  41.745  15.433   8.517
 1247ETHY    C1 1234  41.971  15.775   8.895
 1248THSLK    S 1235  41.266  15.591   7.767
 1249ETHY    C1 1236  41.405  16.012   7.898
 1250ETHY    C1 1237  41.478  16.546   8.041
 1251AUSL   AUS 1238  41.070  14.090   7.910
 1252AUSL   AUS 1239  41.486  14.159   7.765
 1253AUL    AUL 1240  41.373  13.875   7.991
 1254THSLK    S 1241  41.036  13.826   7.997
 1255ETHY    C1 1242  40.981  13.417   8.205
 1256ETHY    C1 1243  40.996  12.949   8.507
 1257THSLK    S 1244  41.618  13.968   7.910
 1258ETHY    C1 1245  41.841  13.606   8.089
 1259ETHY    C1 1246  42.182  13.236   8.330
 1260AUSL   AUS 1247  40.918  13.996   7.664
 1261AUSL   AUS 1248  40.805  14.253   8.011
 1262AUL    AUL 1249  40.766  13.875   7.991
 1263THSLK    S 1250  40.873  13.743   7.746
 1264ETHY    C1 1251  40.736  13.312   7.843
 1265ETHY    C1 1252  40.663  12.780   7.996
 1266THSLK    S 1253  40.630  14.079   8.146
 1267ETHY    C1 1254  40.399  13.781   8.413
 1268ETHY    C1 1255  40.172  13.461   8.810
 1269AUSL   AUS 1256  41.221  13.996   7.664
 1270AUSL   AUS 1257  40.918  13.996   7.337
 1271AUL    AUL 1258  41.070  13.688   7.501
 1272THSLK    S 1259  40.873  13.743   7.255
 1273ETHY    C1 1260  40.734  13.314   7.152
 1274ETHY    C1 1261  40.662  12.782   7.001
 1275THSLK    S 1262  41.190  13.731   7.750
 1276ETHY    C1 1263  41.203  13.280   7.852
 1277ETHY    C1 1264  41.311  12.754   8.003
 1278AUSL   AUS 1265  41.070  15.250   7.092
 1279AUSL   AUS 1266  41.486  15.180   7.236
 1280AUL    AUL 1267  41.373  15.464   7.010
 1281THSLK    S 1268  41.104  15.491   6.969
 1282ETHY    C1 1269  41.159  15.860   6.696
 1283ETHY    C1 1270  41.143  16.339   6.412
 1284THSLK    S 1271  41.673  15.315   7.077
 1285ETHY    C1 1272  41.986  15.582   6.868
 1286ETHY    C1 1273  42.301  15.979   6.634
 1287AUSL   AUS 1274  40.918  15.343   7.337
 1288AUSL   AUS 1275  40.805  15.086   6.990
 1289AUL    AUL 1276  40.766  15.464   7.010
 1290THSLK    S 1277  40.949  15.604   7.232
 1291ETHY    C1 1278  40.937  16.042   7.088
 1292ETHY    C1 1279  40.829  16.571   6.948
 1293THSLK    S 1280  40.678  15.229   6.799
 1294ETHY    C1 1281  40.520  15.469   6.437
 1295ETHY    C1 1282  40.272  15.804   6.067
 1296AUSL   AUS 1283  41.070  14.090   7.092
 1297AUSL   AUS 1284  40.653  14.159   7.236
 1298AUL    AUL 1285  40.766  13.875   7.010
 1299THSLK    S 1286  40.467  14.002   7.113
 1300ETHY    C1 1287  40.151  13.700   6.964
 1301ETHY    C1 1288  39.837  13.313   6.714
 1302THSLK    S 1289  41.036  13.826   7.004
 1303ETHY    C1 1290  40.977  13.421   6.791
 1304ETHY    C1 1291  40.994  12.951   6.490
 1305AUSL   AUS 1292  41.221  13.996   7.337
 1306AUSL   AUS 1293  41.335  14.253   6.990
 1307AUL    AUL 1294  41.373  13.875   7.010
 1308THSLK    S 1295  41.191  13.730   7.252
 1309ETHY    C1 1296  41.201  13.282   7.143
 1310ETHY    C1 1297  41.309  12.755   6.993
 1311THSLK    S 1298  41.463  14.064   6.839
 1312ETHY    C1 1299  41.615  13.746   6.541
 1313ETHY    C1 1300  41.864  13.432   6.152
 1314AUC    AUC 1301   8.085  40.505   7.501
 1315AUC    AUC 1302   8.330  40.505   7.349
 1316AUC    AUC 1303   8.330  40.505   7.652
 1317AUC    AUC 1304   7.839  40.505   7.349
 1318AUC    AUC 1305   7.839  40.505   7.652
 1319AUC    AUC 1306   7.933  40.750   7.501
 1320AUC    AUC 1307   8.236  40.750   7.501
 1321AUC    AUC 1308   7.933  40.259   7.501
 1322AUC    AUC 1309   8.236  40.259   7.501
 1323AUC    AUC 1310   8.085  40.353   7.746
 1324AUC    AUC 1311   8.085  40.656   7.746
 1325AUC    AUC 1312   8.085  40.353   7.255
 1326AUC    AUC 1313   8.085  40.656   7.255
 1327AUC    AUC 1314   8.576  40.505   7.197
 1328AUC    AUC 1315   8.576  40.505   7.501
 1329AUC    AUC 1316   8.576  40.505   7.804
 1330AUC    AUC 1317   7.594  40.505   7.197
 1331AUC    AUC 1318   7.594  40.505   7.501
 1332AUC    AUC 1319   7.594  40.505   7.804
 1333AUC    AUC 1320   7.781  40.995   7.501
 1334AUC    AUC 1321   8.085  40.995   7.501
 1335AUC    AUC 1322   8.388  40.995   7.501
 1336AUC    AUC 1323   7.781  40.014   7.501
 1337AUC    AUC 1324   8.085  40.014   7.501
 1338AUC    AUC 1325   8.388  40.014   7.501
 1339AUC    AUC 1326   8.085  40.201   7.991
 1340AUC    AUC 1327   8.085  40.505   7.991
 1341AUC    AUC 1328   8.085  40.808   7.991
 1342AUC    AUC 1329   8.085  40.201   7.010
 1343AUC    AUC 1330   8.085  40.505   7.010
 1344AUC    AUC 1331   8.085  40.808   7.010
 1345AUC    AUC 1332   8.330  40.353   7.898
 1346AUC    AUC 1333   8.330  40.656   7.898
 1347AUC    AUC 1334   8.330  40.353   7.103
 1348AUC    AUC 1335   8.330  40.656   7.103
 1349AUC    AUC 1336   7.839  40.353   7.898
 1350AUC    AUC 1337   7.839  40.656   7.898
 1351AUC    AUC 1338   7.839  40.353   7.103
 1352AUC    AUC 1339   7.839  40.656   7.103
 1353AUC    AUC 1340   8.482  40.750   7.349
 1354AUC    AUC 1341   8.482  40.750   7.652
 1355AUC    AUC 1342   7.688  40.750   7.349
 1356AUC    AUC 1343   7.688  40.750   7.652
 1357AUC    AUC 1344   8.482  40.259   7.349
 1358AUC    AUC 1345   8.482  40.259   7.652
 1359AUC    AUC 1346   7.688  40.259   7.349
 1360AUC    AUC 1347   7.688  40.259   7.652
 1361AUC    AUC 1348   7.933  40.902   7.746
 1362AUC    AUC 1349   8.236  40.902   7.746
 1363AUC    AUC 1350   7.933  40.108   7.746
 1364AUC    AUC 1351   8.236  40.108   7.746
 1365AUC    AUC 1352   7.933  40.902   7.255
 1366AUC    AUC 1353   8.236  40.902   7.255
 1367AUC    AUC 1354   7.933  40.108   7.255
 1368AUC    AUC 1355   8.236  40.108   7.255
 1369AUSL   AUS 1356   8.494  40.505   8.081
 1370AUSL   AUS 1357   8.350  40.088   8.011
 1371AUL    AUL 1358   8.576  40.201   8.295
 1372THSLK    S 1359   8.477  39.900   8.163
 1373ETHY    C1 1360   8.635  39.579   8.456
 1374ETHY    C1 1361   8.883  39.266   8.845
 1375THSLK    S 1362   8.599  40.465   8.333
 1376ETHY    C1 1363   8.842  40.398   8.720
 1377ETHY    C1 1364   9.135  40.417   9.194
 1378AUSL   AUS 1365   8.248  40.353   8.174
 1379AUSL   AUS 1366   7.921  40.656   8.174
 1380AUL    AUL 1367   8.085  40.505   8.482
 1381THSLK    S 1368   8.335  40.307   8.426
 1382ETHY    C1 1369   8.448  40.166   8.852
 1383ETHY    C1 1370   8.597  40.095   9.385
 1384THSLK    S 1371   7.833  40.625   8.439
 1385ETHY    C1 1372   7.728  40.636   8.889
 1386ETHY    C1 1373   7.578  40.744   9.415
 1387AUSL   AUS 1374   8.248  40.656   8.174
 1388AUSL   AUS 1375   8.595  40.769   7.917
 1389AUL    AUL 1376   8.576  40.808   8.295
 1390THSLK    S 1377   8.336  40.702   8.426
 1391ETHY    C1 1378   8.442  40.842   8.854
 1392ETHY    C1 1379   8.592  40.914   9.386
 1393THSLK    S 1380   8.775  40.885   8.082
 1394ETHY    C1 1381   9.120  41.020   8.358
 1395ETHY    C1 1382   9.495  41.274   8.683
 1396AUSL   AUS 1383   8.494  40.505   6.921
 1397AUSL   AUS 1384   8.350  40.921   6.990
 1398AUL    AUL 1385   8.576  40.808   6.706
 1399THSLK    S 1386   8.600  40.465   6.668
 1400ETHY    C1 1387   8.837  40.398   6.278
 1401ETHY    C1 1388   9.130  40.417   5.804
 1402THSLK    S 1389   8.525  41.049   6.816
 1403ETHY    C1 1390   8.756  41.267   6.480
 1404ETHY    C1 1391   8.982  41.609   6.102
 1405AUSL   AUS 1392   8.248  40.353   6.827
 1406AUSL   AUS 1393   8.595  40.240   7.084
 1407AUL    AUL 1394   8.576  40.201   6.706
 1408THSLK    S 1395   8.741  40.053   6.932
 1409ETHY    C1 1396   9.025  39.799   6.670
 1410ETHY    C1 1397   9.417  39.579   6.340
 1411THSLK    S 1398   8.336  40.307   6.575
 1412ETHY    C1 1399   8.442  40.167   6.147
 1413ETHY    C1 1400   8.592  40.095   5.615
 1414AUSL   AUS 1401   8.248  40.656   6.827
 1415AUSL   AUS 1402   7.921  40.353   6.827
 1416AUL    AUL 1403   8.085  40.505   6.519
 1417THSLK    S 1404   7.821  40.307   6.579
 1418ETHY    C1 1405   7.687  40.169   6.158
 1419ETHY    C1 1406   7.544  40.097   5.624
 1420THSLK    S 1407   8.349  40.624   6.566
 1421ETHY    C1 1408   8.476  40.633   6.121
 1422ETHY    C1 1409   8.620  40.742   5.594
 1423AUSL   AUS 1410   7.676  40.505   8.081
 1424AUSL   AUS 1411   7.820  40.921   8.011
 1425AUL    AUL 1412   7.594  40.808   8.295
 1426THSLK    S 1413   7.570  40.465   8.333
 1427ETHY    C1 1414   7.333  40.398   8.723
 1428ETHY    C1 1415   7.039  40.417   9.197
 1429THSLK    S 1416   7.692  41.063   8.202
 1430ETHY    C1 1417   7.539  41.308   8.563
 1431ETHY    C1 1418   7.291  41.643   8.933
 1432AUSL   AUS 1419   7.921  40.353   8.174
 1433AUSL   AUS 1420   7.575  40.240   7.917
 1434AUL    AUL 1421   7.594  40.201   8.295
 1435THSLK    S 1422   7.394  40.072   8.043
 1436ETHY    C1 1423   7.053  39.846   8.259
 1437ETHY    C1 1424   6.677  39.618   8.602
 1438THSLK    S 1425   7.821  40.307   8.422
 1439ETHY    C1 1426   7.693  40.168   8.844
 1440ETHY    C1 1427   7.549  40.096   9.378
 1441AUSL   AUS 1428   7.676  40.505   6.921
 1442AUSL   AUS 1429   7.820  40.088   6.990
 1443AUL    AUL 1430   7.594  40.201   6.706
 1444THSLK    S 1431   7.571  40.465   6.668
 1445ETHY    C1 1432   7.327  40.398   6.281
 1446ETHY    C1 1433   7.035  40.417   5.807
 1447THSLK    S 1434   7.646  39.914   6.855
 1448ETHY    C1 1435   7.409  39.621   6.587
 1449ETHY    C1 1436   7.184  39.300   6.190
 1450AUSL   AUS 1437   7.921  40.656   6.827
 1451AUSL   AUS 1438   7.575  40.769   7.084
 1452AUL    AUL 1439   7.594  40.808   6.706
 1453THSLK    S 1440   7.429  40.904   6.894
 1454ETHY    C1 1441   7.140  41.068   6.572
 1455ETHY    C1 1442   6.749  41.313   6.259
 1456THSLK    S 1443   7.834  40.625   6.562
 1457ETHY    C1 1444   7.721  40.635   6.114
 1458ETHY    C1 1445   7.573  40.743   5.587
 1459AUSL   AUS 1446   8.665  40.914   7.501
 1460AUSL   AUS 1447   8.595  40.769   7.084
 1461AUL    AUL 1448   8.879  40.995   7.197
 1462THSLK    S 1449   8.775  40.886   6.920
 1463ETHY    C1 1450   9.116  41.019   6.638
 1464ETHY    C1 1451   9.492  41.273   6.314
 1465THSLK    S 1452   8.938  40.985   7.501
 1466ETHY    C1 1453   9.362  41.169   7.497
 1467ETHY    C1 1454   9.826  41.478   7.498
 1468AUSL   AUS 1455   8.759  40.668   7.349
 1469AUSL   AUS 1456   8.759  40.341   7.652
 1470AUL    AUL 1457   9.066  40.505   7.501
 1471THSLK    S 1458   9.026  40.723   7.341
 1472ETHY    C1 1459   9.478  40.779   7.262
 1473ETHY    C1 1460  10.003  40.944   7.172
 1474THSLK    S 1461   9.005  40.209   7.659
 1475ETHY    C1 1462   9.422  40.024   7.728
 1476ETHY    C1 1463   9.958  39.896   7.820
 1477AUSL   AUS 1464   8.759  40.668   7.652
 1478AUSL   AUS 1465   8.501  41.015   7.765
 1479AUL    AUL 1466   8.879  40.995   7.804
 1480THSLK    S 1467   8.687  41.150   7.925
 1481ETHY    C1 1468   9.003  41.418   8.128
 1482ETHY    C1 1469   9.318  41.815   8.362
 1483THSLK    S 1470   9.026  40.723   7.661
 1484ETHY    C1 1471   9.478  40.779   7.733
 1485ETHY    C1 1472  10.004  40.944   7.824
 1486AUSL   AUS 1473   7.505  40.914   7.501
 1487AUSL   AUS 1474   7.575  40.769   7.917
 1488AUL    AUL 1475   7.291  40.995   7.804
 1489THSLK    S 1476   7.428  40.904   8.107
 1490ETHY    C1 1477   7.144  41.073   8.430
 1491ETHY    C1 1478   6.752  41.318   8.743
 1492THSLK    S 1479   7.274  41.052   7.501
 1493ETHY    C1 1480   6.920  41.350   7.497
 1494ETHY    C1 1481   6.436  41.627   7.498
 1495AUSL   AUS 1482   7.411  40.668   7.349
 1496AUSL   AUS 1483   7.668  41.015   7.236
 1497AUL    AUL 1484   7.291  40.995   7.197
 1498THSLK    S 1485   7.165  40.778   7.307
 1499ETHY    C1 1486   6.747  40.923   7.173
 1500ETHY    C1 1487   6.212  41.063   7.099
 1501THSLK    S 1488   7.537  41.184   7.056
 1502ETHY    C1 1489   7.313  41.506   6.812
 1503ETHY    C1 1490   6.973  41.888   6.589
 1504AUSL   AUS 1491   7.411  40.668   7.652
 1505AUSL   AUS 1492   7.411  40.341   7.349
 1506AUL    AUL 1493   7.103  40.505   7.501
 1507THSLK    S 1494   7.144  40.263   7.377
 1508ETHY    C1 1495   6.691  40.174   7.359
 1509ETHY    C1 1496   6.166  40.019   7.252
 1510THSLK    S 1497   7.165  40.778   7.694
 1511ETHY    C1 1498   6.748  40.929   7.825
 1512ETHY    C1 1499   6.213  41.067   7.900
 1513AUSL   AUS 1500   8.665  40.096   7.501
 1514AUSL   AUS 1501   8.595  40.240   7.917
 1515AUL    AUL 1502   8.879  40.014   7.804
 1516THSLK    S 1503   8.896  39.957   7.501
 1517ETHY    C1 1504   9.250  39.659   7.497
 1518ETHY    C1 1505   9.734  39.382   7.498
 1519THSLK    S 1506   8.741  40.053   8.070
 1520ETHY    C1 1507   9.029  39.798   8.326
 1521ETHY    C1 1508   9.421  39.578   8.657
 1522AUSL   AUS 1509   8.759  40.341   7.349
 1523AUSL   AUS 1510   8.501  39.994   7.236
 1524AUL    AUL 1511   8.879  40.014   7.197
 1525THSLK    S 1512   9.005  40.209   7.343
 1526ETHY    C1 1513   9.421  40.024   7.266
 1527ETHY    C1 1514   9.957  39.896   7.176
 1528THSLK    S 1515   8.633  39.803   7.092
 1529ETHY    C1 1516   8.854  39.442   6.907
 1530ETHY    C1 1517   9.195  39.072   6.667
 1531AUSL   AUS 1518   7.505  40.096   7.501
 1532AUSL   AUS 1519   7.575  40.240   7.084
 1533AUL    AUL 1520   7.291  40.014   7.197
 1534THSLK    S 1521   7.395  40.072   6.958
 1535ETHY    C1 1522   7.049  39.852   6.743
 1536ETHY    C1 1523   6.674  39.622   6.400
 1537THSLK    S 1524   7.232  40.024   7.501
 1538ETHY    C1 1525   6.808  39.841   7.497
 1539ETHY    C1 1526   6.344  39.531   7.498
 1540AUSL   AUS 1527   7.411  40.341   7.652
 1541AUSL   AUS 1528   7.668  39.994   7.765
 1542AUL    AUL 1529   7.291  40.014   7.804
 1543THSLK    S 1530   7.482  39.837   7.889
 1544ETHY    C1 1531   7.169  39.531   8.033
 1545ETHY    C1 1532   6.854  39.144   8.284
 1546THSLK    S 1533   7.144  40.264   7.625
 1547ETHY    C1 1534   6.692  40.168   7.639
 1548ETHY    C1 1535   6.167  40.015   7.746
 1549AUSL   AUS 1536   8.085  41.085   7.910
 1550AUSL   AUS 1537   7.668  41.015   7.765
 1551AUL    AUL 1538   7.781  41.299   7.991
 1552THSLK    S 1539   7.537  41.183   7.945
 1553ETHY    C1 1540   7.316  41.511   8.185
 1554ETHY    C1 1541   6.975  41.891   8.409
 1555THSLK    S 1542   8.119  41.326   8.033
 1556ETHY    C1 1543   8.177  41.698   8.301
 1557ETHY    C1 1544   8.161  42.177   8.586
 1558AUSL   AUS 1545   7.933  41.178   7.664
 1559AUSL   AUS 1546   8.236  41.178   7.337
 1560AUL    AUL 1547   8.085  41.486   7.501
 1561THSLK    S 1548   7.964  41.438   7.770
 1562ETHY    C1 1549   7.954  41.879   7.907
 1563ETHY    C1 1550   7.845  42.408   8.048
 1564THSLK    S 1551   8.281  41.427   7.235
 1565ETHY    C1 1552   8.419  41.845   7.097
 1566ETHY    C1 1553   8.491  42.380   6.955
 1567AUSL   AUS 1554   8.236  41.178   7.664
 1568AUSL   AUS 1555   8.350  40.921   8.011
 1569AUL    AUL 1556   8.388  41.299   7.991
 1570THSLK    S 1557   8.524  41.049   8.185
 1571ETHY    C1 1558   8.760  41.268   8.517
 1572ETHY    C1 1559   8.986  41.610   8.895
 1573THSLK    S 1560   8.281  41.426   7.767
 1574ETHY    C1 1561   8.420  41.847   7.898
 1575ETHY    C1 1562   8.493  42.381   8.041
 1576AUSL   AUS 1563   8.085  39.925   7.910
 1577AUSL   AUS 1564   8.501  39.994   7.765
 1578AUL    AUL 1565   8.388  39.710   7.991
 1579THSLK    S 1566   8.051  39.661   7.997
 1580ETHY    C1 1567   7.996  39.252   8.205
 1581ETHY    C1 1568   8.011  38.784   8.507
 1582THSLK    S 1569   8.633  39.803   7.910
 1583ETHY    C1 1570   8.856  39.441   8.089
 1584ETHY    C1 1571   9.197  39.071   8.330
 1585AUSL   AUS 1572   7.933  39.831   7.664
 1586AUSL   AUS 1573   7.820  40.088   8.011
 1587AUL    AUL 1574   7.781  39.710   7.991
 1588THSLK    S 1575   7.888  39.578   7.746
 1589ETHY    C1 1576   7.751  39.147   7.843
 1590ETHY    C1 1577   7.678  38.615   7.996
 1591THSLK    S 1578   7.645  39.914   8.146
 1592ETHY    C1 1579   7.414  39.616   8.413
 1593ETHY    C1 1580   7.187  39.296   8.810
 1594AUSL   AUS 1581   8.236  39.831   7.664
 1595AUSL   AUS 1582   7.933  39.831   7.337
 1596AUL    AUL 1583   8.085  39.523   7.501
 1597THSLK    S 1584   7.888  39.578   7.255
 1598ETHY    C1 1585   7.749  39.149   7.152
 1599ETHY    C1 1586   7.677  38.617   7.001
 1600THSLK    S 1587   8.205  39.566   7.750
 1601ETHY    C1 1588   8.218  39.115   7.852
 1602ETHY    C1 1589   8.326  38.589   8.003
 1603AUSL   AUS 1590   8.085  41.085   7.092
 1604AUSL   AUS 1591   8.501  41.015   7.236
 1605AUL    AUL 1592   8.388  41.299   7.010
 1606THSLK    S 1593   8.119  41.326   6.969
 1607ETHY    C1 1594   8.174  41.695   6.696
 1608ETHY    C1 1595   8.158  42.174   6.412
 1609THSLK    S 1596   8.688  41.150   7.077
 1610ETHY    C1 1597   9.001  41.417   6.868
 1611ETHY    C1 1598   9.316  41.814   6.634
 1612AUSL   AUS 1599   7.933  41.178   7.337
 1613AUSL   AUS 1600   7.820  40.921   6.990
 1614AUL    AUL 1601   7.781  41.299   7.010
 1615THSLK    S 1602   7.964  41.439   7.232
 1616ETHY    C1 1603   7.952  41.877   7.088
 1617ETHY    C1 1604   7.844  42.406   6.948
 1618THSLK    S 1605   7.693  41.064   6.799
 1619ETHY    C1 1606   7.535  41.304   6.437
 1620ETHY    C1 1607   7.287  41.639   6.067
 1621AUSL   AUS 1608   8.085  39.925   7.092
 1622AUSL   AUS 1609   7.668  39.994   7.236
 1623AUL    AUL 1610   7.781  39.710   7.010
 1624THSLK    S 1611   7.482  39.837   7.113
 1625ETHY    C1 1612   7.166  39.535   6.964
 1626ETHY    C1 1613   6.852  39.148   6.714
 1627THSLK    S 1614   8.051  39.661   7.004
 1628ETHY    C1 1615   7.992  39.256   6.791
 1629ETHY    C1 1616   8.009  38.786   6.490
 1630AUSL   AUS 1617   8.236  39.831   7.337
 1631AUSL   AUS 1618   8.350  40.088   6.990
 1632AUL    AUL 1619   8.388  39.710   7.010
 1633THSLK    S 1620   8.206  39.565   7.252
 1634ETHY    C1 1621   8.216  39.117   7.143
 1635ETHY    C1 1622   8.324  38.590   6.993
 1636THSLK    S 1623   8.478  39.899   6.839
 1637ETHY    C1 1624   8.630  39.581   6.541
 1638ETHY    C1 1625   8.879  39.267   6.152
 1639AUC    AUC 1626  20.768  44.627   7.501
 1640AUC    AUC 1627  21.013  44.627   7.349
 1641AUC    AUC 1628  21.013  44.627   7.652
 1642AUC    AUC 1629  20.522  44.627   7.349
 1643AUC    AUC 1630  20.522  44.627   7.652
 1644AUC    AUC 1631  20.616  44.872   7.501
 1645AUC    AUC 1632  20.919  44.872   7.501
 1646AUC    AUC 1633  20.616  44.381   7.501
 1647AUC    AUC 1634  20.919  44.381   7.501
 1648AUC    AUC 1635  20.768  44.475   7.746
 1649AUC    AUC 1636  20.768  44.778   7.746
 1650AUC    AUC 1637  20.768  44.475   7.255
 1651AUC    AUC 1638  20.768  44.778   7.255
 1652AUC    AUC 1639  21.259  44.627   7.197
 1653AUC    AUC 1640  21.259  44.627   7.501
 1654AUC    AUC 1641  21.259  44.627   7.804
 1655AUC    AUC 1642  20.277  44.627   7.197
 1656AUC    AUC 1643  20.277  44.627   7.501
 1657AUC    AUC 1644  20.277  44.627   7.804
 1658AUC    AUC 1645  20.464  45.117   7.501
 1659AUC    AUC 1646  20.768  45.117   7.501
 1660AUC    AUC 1647  21.071  45.117   7.501
 1661AUC    AUC 1648  20.464  44.136   7.501
 1662AUC    AUC 1649  20.768  44.136   7.501
 1663AUC    AUC 1650  21.071  44.136   7.501
 1664AUC    AUC 1651  20.768  44.323   7.991
 1665AUC    AUC 1652  20.768  44.627   7.991
 1666AUC    AUC 1653  20.768  44.930   7.991
 1667AUC    AUC 1654  20.768  44.323   7.010
 1668AUC    AUC 1655  20.768  44.627   7.010
 1669AUC    AUC 1656  20.768  44.930   7.010
 1670AUC    AUC 1657  21.013  44.475   7.898
 1671AUC    AUC 1658  21.013  44.778   7.898
 1672AUC    AUC 1659  21.013  44.475   7.103
 1673AUC    AUC 1660  21.013  44.778   7.103
 1674AUC    AUC 1661  20.522  44.475   7.898
 1675AUC    AUC 1662  20.522  44.778   7.898
 1676AUC    AUC 1663  20.522  44.475   7.103
 1677AUC    AUC 1664  20.522  44.778   7.103
 1678AUC    AUC 1665  21.165  44.872   7.349
 1679AUC    AUC 1666  21.165  44.872   7.652
 1680AUC    AUC 1667  20.371  44.872   7.349
 1681AUC    AUC 1668  20.371  44.872   7.652
 1682AUC    AUC 1669  21.165  44.381   7.349
 1683AUC    AUC 1670  21.165  44.381   7.652
 1684AUC    AUC 1671  20.371  44.381   7.349
 1685AUC    AUC 1672  20.371  44.381   7.652
 1686AUC    AUC 1673  20.616  45.024   7.746
 1687AUC    AUC 1674  20.919  45.024   7.746
 1688AUC    AUC 1675  20.616  44.230   7.746
 1689AUC    AUC 1676  20.919  44.230   7.746
 1690AUC    AUC 1677  20.616  45.024   7.255
 1691AUC    AUC 1678  20.919  45.024   7.255
 1692AUC    AUC 1679  20.616  44.230   7.255
 1693AUC    AUC 1680  20.919  44.230   7.255
 1694AUSL   AUS 1681  21.177  44.627   8.081
 1695AUSL   AUS 1682  21.033  44.210   8.011
 1696AUL    AUL 1683  21.259  44.323   8.295
 1697THSLK    S 1684  21.160  44.022   8.163
 1698ETHY    C1 1685  21.318  43.701   8.456
 1699ETHY    C1 1686  21.566  43.388   8.845
 1700THSLK    S 1687  21.282  44.587   8.333
 1701ETHY    C1 1688  21.525  44.520   8.720
 1702ETHY    C1 1689  21.818  44.539   9.194
 1703AUSL   AUS 1690  20.931  44.475   8.174
 1704AUSL   AUS 1691  20.604  44.778   8.174
 1705AUL    AUL 1692  20.768  44.627   8.482
 1706THSLK    S 1693  21.018  44.429   8.426
 1707ETHY    C1 1694  21.131  44.288   8.852
 1708ETHY    C1 1695  21.280  44.217   9.385
 1709THSLK    S 1696  20.516  44.747   8.439
 1710ETHY    C1 1697  20.411  44.758   8.889
 1711ETHY    C1 1698  20.261  44.866   9.415
 1712AUSL   AUS 1699  20.931  44.778   8.174
 1713AUSL   AUS 1700  21.278  44.891   7.917
 1714AUL    AUL 1701  21.259  44.930   8.295
 1715THSLK    S 1702  21.019  44.824   8.426
 1716ETHY    C1 1703  21.125  44.964   8.854
 1717ETHY    C1 1704  21.275  45.036   9.386
 1718THSLK    S 1705  21.458  45.007   8.082
 1719ETHY    C1 1706  21.803  45.142   8.358
 1720ETHY    C1 1707  22.178  45.396   8.683
 1721AUSL   AUS 1708  21.177  44.627   6.921
 1722AUSL   AUS 1709  21.033  45.043   6.990
 1723AUL    AUL 1710  21.259  44.930   6.706
 1724THSLK    S 1711  21.283  44.587   6.668
 1725ETHY    C1 1712  21.520  44.520   6.278
 1726ETHY    C1 1713  21.813  44.539   5.804
 1727THSLK    S 1714  21.208  45.171   6.816
 1728ETHY    C1 1715  21.439  45.389   6.480
 1729ETHY    C1 1716  21.665  45.731   6.102
 1730AUSL   AUS 1717  20.931  44.475   6.827
 1731AUSL   AUS 1718  21.278  44.362   7.084
 1732AUL    AUL 1719  21.259  44.323   6.706
 1733THSLK    S 1720  21.424  44.175   6.932
 1734ETHY    C1 1721  21.708  43.921   6.670
 1735ETHY    C1 1722  22.100  43.701   6.340
 1736THSLK    S 1723  21.019  44.429   6.575
 1737ETHY    C1 1724  21.125  44.289   6.147
 1738ETHY    C1 1725  21.275  44.217   5.615
 1739AUSL   AUS 1726  20.931  44.778   6.827
 1740AUSL   AUS 1727  20.604  44.475   6.827
 1741AUL    AUL 1728  20.768  44.627   6.519
 1742THSLK    S 1729  20.504  44.429   6.579
 1743ETHY    C1 1730  20.370  44.291   6.158
 1744ETHY    C1 1731  20.227  44.219   5.624
 1745THSLK    S 1732  21.032  44.746   6.566
 1746ETHY    C1 1733  21.159  44.755   6.121
 1747ETHY    C1 1734  21.303  44.864   5.594
 1748AUSL   AUS 1735  20.359  44.627   8.081
 1749AUSL   AUS 1736  20.503  45.043   8.011
 1750AUL    AUL 1737  20.277  44.930   8.295
 1751THSLK    S 1738  20.253  44.587   8.333
 1752ETHY    C1 1739  20.016  44.520   8.723
 1753ETHY    C1 1740  19.722  44.539   9.197
 1754THSLK    S 1741  20.375  45.185   8.202
 1755ETHY    C1 1742  20.222  45.430   8.563
 1756ETHY    C1 1743  19.974  45.765   8.933
 1757AUSL   AUS 1744  20.604  44.475   8.174
 1758AUSL   AUS 1745  20.258  44.362   7.917
 1759AUL    AUL 1746  20.277  44.323   8.295
 1760THSLK    S 1747  20.077  44.194   8.043
 1761ETHY    C1 1748  19.736  43.968   8.259
 1762ETHY    C1 1749  19.360  43.740   8.602
 1763THSLK    S 1750  20.504  44.429   8.422
 1764ETHY    C1 1751  20.376  44.290   8.844
 1765ETHY    C1 1752  20.232  44.218   9.378
 1766AUSL   AUS 1753  20.359  44.627   6.921
 1767AUSL   AUS 1754  20.503  44.210   6.990
 1768AUL    AUL 1755  20.277  44.323   6.706
 1769THSLK    S 1756  20.254  44.587   6.668
 1770ETHY    C1 1757  20.010  44.520   6.281
 1771ETHY    C1 1758  19.718  44.539   5.807
 1772THSLK    S 1759  20.329  44.036   6.855
 1773ETHY    C1 1760  20.092  43.743   6.587
 1774ETHY    C1 1761  19.867  43.422   6.190
 1775AUSL   AUS 1762  20.604  44.778   6.827
 1776AUSL   AUS 1763  20.258  44.891   7.084
 1777AUL    AUL 1764  20.277  44.930   6.706
 1778THSLK    S 1765  20.112  45.026   6.894
 1779ETHY    C1 1766  19.823  45.190   6.572
 1780ETHY    C1 1767  19.432  45.435   6.259
 1781THSLK    S 1768  20.517  44.747   6.562
 1782ETHY    C1 1769  20.404  44.757   6.114
 1783ETHY    C1 1770  20.256  44.865   5.587
 1784AUSL   AUS 1771  21.348  45.036   7.501
 1785AUSL   AUS 1772  21.278  44.891   7.084
 1786AUL    AUL 1773  21.562  45.117   7.197
 1787THSLK    S 1774  21.458  45.008   6.920
 1788ETHY    C1 1775  21.799  45.141   6.638
 1789ETHY    C1 1776  22.175  45.395   6.314
 1790THSLK    S 1777  21.621  45.107   7.501
 1791ETHY    C1 1778  22.045  45.291   7.497
 1792ETHY    C1 1779  22.509  45.600   7.498
 1793AUSL   AUS 1780  21.442  44.790   7.349
 1794AUSL   AUS 1781  21.442  44.463   7.652
 1795AUL    AUL 1782  21.749  44.627   7.501
 1796THSLK    S 1783  21.709  44.845   7.341
 1797ETHY    C1 1784  22.161  44.901   7.262
 1798ETHY    C1 1785  22.686  45.066   7.172
 1799THSLK    S 1786  21.688  44.331   7.659
 1800ETHY    C1 1787  22.105  44.146   7.728
 1801ETHY    C1 1788  22.641  44.018   7.820
 1802AUSL   AUS 1789  21.442  44.790   7.652
 1803AUSL   AUS 1790  21.184  45.137   7.765
 1804AUL    AUL 1791  21.562  45.117   7.804
 1805THSLK    S 1792  21.370  45.272   7.925
 1806ETHY    C1 1793  21.686  45.540   8.128
 1807ETHY    C1 1794  22.001  45.937   8.362
 1808THSLK    S 1795  21.709  44.845   7.661
 1809ETHY    C1 1796  22.161  44.901   7.733
 1810ETHY    C1 1797  22.687  45.066   7.824
 1811AUSL   AUS 1798  20.188  45.036   7.501
 1812AUSL   AUS 1799  20.258  44.891   7.917
 1813AUL    AUL 1800  19.974  45.117   7.804
 1814THSLK    S 1801  20.111  45.026   8.107
 1815ETHY    C1 1802  19.827  45.195   8.430
 1816ETHY    C1 1803  19.435  45.440   8.743
 1817THSLK    S 1804  19.957  45.174   7.501
 1818ETHY    C1 1805  19.603  45.472   7.497
 1819ETHY    C1 1806  19.119  45.749   7.498
 1820AUSL   AUS 1807  20.094  44.790   7.349
 1821AUSL   AUS 1808  20.351  45.137   7.236
 1822AUL    AUL 1809  19.974  45.117   7.197
 1823THSLK    S 1810  19.848  44.900   7.307
 1824ETHY    C1 1811  19.430  45.045   7.173
 1825ETHY    C1 1812  18.895  45.185   7.099
 1826THSLK    S 1813  20.220  45.306   7.056
 1827ETHY    C1 1814  19.996  45.628   6.812
 1828ETHY    C1 1815  19.656  46.010   6.589
 1829AUSL   AUS 1816  20.094  44.790   7.652
 1830AUSL   AUS 1817  20.094  44.463   7.349
 1831AUL    AUL 1818  19.786  44.627   7.501
 1832THSLK    S 1819  19.827  44.385   7.377
 1833ETHY    C1 1820  19.374  44.296   7.359
 1834ETHY    C1 1821  18.849  44.141   7.252
 1835THSLK    S 1822  19.848  44.900   7.694
 1836ETHY    C1 1823  19.431  45.051   7.825
 1837ETHY    C1 1824  18.896  45.189   7.900
 1838AUSL   AUS 1825  21.348  44.218   7.501
 1839AUSL   AUS 1826  21.278  44.362   7.917
 1840AUL    AUL 1827  21.562  44.136   7.804
 1841THSLK    S 1828  21.579  44.079   7.501
 1842ETHY    C1 1829  21.933  43.781   7.497
 1843ETHY    C1 1830  22.417  43.504   7.498
 1844THSLK    S 1831  21.424  44.175   8.070
 1845ETHY    C1 1832  21.712  43.920   8.326
 1846ETHY    C1 1833  22.104  43.700   8.657
 1847AUSL   AUS 1834  21.442  44.463   7.349
 1848AUSL   AUS 1835  21.184  44.116   7.236
 1849AUL    AUL 1836  21.562  44.136   7.197
 1850THSLK    S 1837  21.688  44.331   7.343
 1851ETHY    C1 1838  22.104  44.146   7.266
 1852ETHY    C1 1839  22.640  44.018   7.176
 1853THSLK    S 1840  21.316  43.925   7.092
 1854ETHY    C1 1841  21.537  43.564   6.907
 1855ETHY    C1 1842  21.878  43.194   6.667
 1856AUSL   AUS 1843  20.188  44.218   7.501
 1857AUSL   AUS 1844  20.258  44.362   7.084
 1858AUL    AUL 1845  19.974  44.136   7.197
 1859THSLK    S 1846  20.078  44.194   6.958
 1860ETHY    C1 1847  19.732  43.974   6.743
 1861ETHY    C1 1848  19.357  43.744   6.400
 1862THSLK    S 1849  19.915  44.146   7.501
 1863ETHY    C1 1850  19.491  43.963   7.497
 1864ETHY    C1 1851  19.027  43.653   7.498
 1865AUSL   AUS 1852  20.094  44.463   7.652
 1866AUSL   AUS 1853  20.351  44.116   7.765
 1867AUL    AUL 1854  19.974  44.136   7.804
 1868THSLK    S 1855  20.165  43.959   7.889
 1869ETHY    C1 1856  19.852  43.653   8.033
 1870ETHY    C1 1857  19.537  43.266   8.284
 1871THSLK    S 1858  19.827  44.386   7.625
 1872ETHY    C1 1859  19.375  44.290   7.639
 1873ETHY    C1 1860  18.850  44.137   7.746
 1874AUSL   AUS 1861  20.768  45.207   7.910
 1875AUSL   AUS 1862  20.351  45.137   7.765
 1876AUL    AUL 1863  20.464  45.421   7.991
 1877THSLK    S 1864  20.220  45.305   7.945
 1878ETHY    C1 1865  19.999  45.633   8.185
 1879ETHY    C1 1866  19.658  46.013   8.409
 1880THSLK    S 1867  20.802  45.448   8.033
 1881ETHY    C1 1868  20.860  45.820   8.301
 1882ETHY    C1 1869  20.844  46.299   8.586
 1883AUSL   AUS 1870  20.616  45.300   7.664
 1884AUSL   AUS 1871  20.919  45.300   7.337
 1885AUL    AUL 1872  20.768  45.608   7.501
 1886THSLK    S 1873  20.647  45.560   7.770
 1887ETHY    C1 1874  20.637  46.001   7.907
 1888ETHY    C1 1875  20.528  46.530   8.048
 1889THSLK    S 1876  20.964  45.549   7.235
 1890ETHY    C1 1877  21.102  45.967   7.097
 1891ETHY    C1 1878  21.174  46.502   6.955
 1892AUSL   AUS 1879  20.919  45.300   7.664
 1893AUSL   AUS 1880  21.033  45.043   8.011
 1894AUL    AUL 1881  21.071  45.421   7.991
 1895THSLK    S 1882  21.207  45.171   8.185
 1896ETHY    C1 1883  21.443  45.390   8.517
 1897ETHY    C1 1884  21.669  45.732   8.895
 1898THSLK    S 1885  20.964  45.548   7.767
 1899ETHY    C1 1886  21.103  45.969   7.898
 1900ETHY    C1 1887  21.176  46.503   8.041
 1901AUSL   AUS 1888  20.768  44.047   7.910
 1902AUSL   AUS 1889  21.184  44.116   7.765
 1903AUL    AUL 1890  21.071  43.832   7.991
 1904THSLK    S 1891  20.734  43.783   7.997
 1905ETHY    C1 1892  20.679  43.374   8.205
 1906ETHY    C1 1893  20.694  42.906   8.507
 1907THSLK    S 1894  21.316  43.925   7.910
 1908ETHY    C1 1895  21.539  43.563   8.089
 1909ETHY    C1 1896  21.880  43.193   8.330
 1910AUSL   AUS 1897  20.616  43.953   7.664
 1911AUSL   AUS 1898  20.503  44.210   8.011
 1912AUL    AUL 1899  20.464  43.832   7.991
 1913THSLK    S 1900  20.571  43.700   7.746
 1914ETHY    C1 1901  20.434  43.269   7.843
 1915ETHY    C1 1902  20.361  42.737   7.996
 1916THSLK    S 1903  20.328  44.036   8.146
 1917ETHY    C1 1904  20.097  43.738   8.413
 1918ETHY    C1 1905  19.870  43.418   8.810
 1919AUSL   AUS 1906  20.919  43.953   7.664
 1920AUSL   AUS 1907  20.616  43.953   7.337
 1921AUL    AUL 1908  20.768  43.645   7.501
 1922THSLK    S 1909  20.571  43.700   7.255
 1923ETHY    C1 1910  20.432  43.271   7.152
 1924ETHY    C1 1911  20.360  42.739   7.001
 1925THSLK    S 1912  20.888  43.688   7.750
 1926ETHY    C1 1913  20.901  43.237   7.852
 1927ETHY    C1 1914  21.009  42.711   8.003
 1928AUSL   AUS 1915  20.768  45.207   7.092
 1929AUSL   AUS 1916  21.184  45.137   7.236
 1930AUL    AUL 1917  21.071  45.421   7.010
 1931THSLK    S 1918  20.802  45.448   6.969
 1932ETHY    C1 1919  20.857  45.817   6.696
 1933ETHY    C1 1920  20.841  46.296   6.412
 1934THSLK    S 1921  21.371  45.272   7.077
 1935ETHY    C1 1922  21.684  45.539   6.868
 1936ETHY    C1 1923  21.999  45.936   6.634
 1937AUSL   AUS 1924  20.616  45.300   7.337
 1938AUSL   AUS 1925  20.503  45.043   6.990
 1939AUL    AUL 1926  20.464  45.421   7.010
 1940THSLK    S 1927  20.647  45.561   7.232
 1941ETHY    C1 1928  20.635  45.999   7.088
 1942ETHY    C1 1929  20.527  46.528   6.948
 1943THSLK    S 1930  20.376  45.186   6.799
 1944ETHY    C1 1931  20.218  45.426   6.437
 1945ETHY    C1 1932  19.970  45.761   6.067
 1946AUSL   AUS 1933  20.768  44.047   7.092
 1947AUSL   AUS 1934  20.351  44.116   7.236
 1948AUL    AUL 1935  20.464  43.832   7.010
 1949THSLK    S 1936  20.165  43.959   7.113
 1950ETHY    C1 1937  19.849  43.657   6.964
 1951ETHY    C1 1938  19.535  43.270   6.714
 1952THSLK    S 1939  20.734  43.783   7.004
 1953ETHY    C1 1940  20.675  43.378   6.791
 1954ETHY    C1 1941  20.692  42.908   6.490
 1955AUSL   AUS 1942  20.919  43.953   7.337
 1956AUSL   AUS 1943  21.033  44.210   6.990
 1957AUL    AUL 1944  21.071  43.832   7.010
 1958THSLK    S 1945  20.889  43.687   7.252
 1959ETHY    C1 1946  20.899  43.239   7.143
 1960ETHY    C1 1947  21.007  42.712   6.993
 1961THSLK    S 1948  21.161  44.021   6.839
 1962ETHY    C1 1949  21.313  43.703   6.541
 1963ETHY    C1 1950  21.562  43.389   6.152
 1964AUC    AUC 1951  -6.604   7.129   7.501
 1965AUC    AUC 1952  -6.359   7.129   7.349
 1966AUC    AUC 1953  -6.359   7.129   7.652
 1967AUC    AUC 1954  -6.850   7.129   7.349
 1968AUC    AUC 1955  -6.850   7.129   7.652
 1969AUC    AUC 1956  -6.756   7.374   7.501
 1970AUC    AUC 1957  -6.453   7.374   7.501
 1971AUC    AUC 1958  -6.756   6.883   7.501
 1972AUC    AUC 1959  -6.453   6.883   7.501
 1973AUC    AUC 1960  -6.604   6.977   7.746
 1974AUC    AUC 1961  -6.604   7.280   7.746
 1975AUC    AUC 1962  -6.604   6.977   7.255
 1976AUC    AUC 1963  -6.604   7.280   7.255
 1977AUC    AUC 1964  -6.113   7.129   7.197
 1978AUC    AUC 1965  -6.113   7.129   7.501
 1979AUC    AUC 1966  -6.113   7.129   7.804
 1980AUC    AUC 1967  -7.095   7.129   7.197
 1981AUC    AUC 1968  -7.095   7.129   7.501
 1982AUC    AUC 1969  -7.095   7.129   7.804
 1983AUC    AUC 1970  -6.908   7.619   7.501
 1984AUC    AUC 1971  -6.604   7.619   7.501
 1985AUC    AUC 1972  -6.301   7.619   7.501
 1986AUC    AUC 1973  -6.908   6.638   7.501
 1987AUC    AUC 1974  -6.604   6.638   7.501
 1988AUC    AUC 1975  -6.301   6.638   7.501
 1989AUC    AUC 1976  -6.604   6.825   7.991
 1990AUC    AUC 1977  -6.604   7.129   7.991
 1991AUC    AUC 1978  -6.604   7.432   7.991
 1992AUC    AUC 1979  -6.604   6.825   7.010
 1993AUC    AUC 1980  -6.604   7.129   7.010
 1994AUC    AUC 1981  -6.604   7.432   7.010
 1995AUC    AUC 1982  -6.359   6.977   7.898
 1996AUC    AUC 1983  -6.359   7.280   7.898
 1997AUC    AUC 1984  -6.359   6.977   7.103
 1998AUC    AUC 1985  -6.359   7.280   7.103
 1999AUC    AUC 1986  -6.850   6.977   7.898
 2000AUC    AUC 1987  -6.850   7.280   7.898
 2001AUC    AUC 1988  -6.850   6.977   7.103
 2002AUC    AUC 1989  -6.850   7.280   7.103
 2003AUC    AUC 1990  -6.207   7.374   7.349
 2004AUC    AUC 1991  -6.207   7.374   7.652
 2005AUC    AUC 1992  -7.001   7.374   7.349
 2006AUC    AUC 1993  -7.001   7.374   7.652
 2007AUC    AUC 1994  -6.207   6.883   7.349
 2008AUC    AUC 1995  -6.207   6.883   7.652
 2009AUC    AUC 1996  -7.001   6.883   7.349
 2010AUC    AUC 1997  -7.001   6.883   7.652
 2011AUC    AUC 1998  -6.756   7.526   7.746
 2012AUC    AUC 1999  -6.453   7.526   7.746
 2013AUC    AUC 2000  -6.756   6.732   7.746
 2014AUC    AUC 2001  -6.453   6.732   7.746
 2015AUC    AUC 2002  -6.756   7.526   7.255
 2016AUC    AUC 2003  -6.453   7.526   7.255
 2017AUC    AUC 2004  -6.756   6.732   7.255
 2018AUC    AUC 2005  -6.453   6.732   7.255
 2019AUSL   AUS 2006  -6.195   7.129   8.081
 2020AUSL   AUS 2007  -6.339   6.712   8.011
 2021AUL    AUL 2008  -6.113   6.825   8.295
 2022THSLK    S 2009  -6.212   6.524   8.163
 2023ETHY    C1 2010  -6.054   6.203   8.456
 2024ETHY    C1 2011  -5.806   5.890   8.845
 2025THSLK    S 2012  -6.090   7.089   8.333
 2026ETHY    C1 2013  -5.847   7.022   8.720
 2027ETHY    C1 2014  -5.554   7.041   9.194
 2028AUSL   AUS 2015  -6.441   6.977   8.174
 2029AUSL   AUS 2016  -6.768   7.280   8.174
 2030AUL    AUL 2017  -6.604   7.129   8.482
 2031THSLK    S 2018  -6.354   6.931   8.426
 2032ETHY    C1 2019  -6.241   6.790   8.852
 2033ETHY    C1 2020  -6.092   6.719   9.385
 2034THSLK    S 2021  -6.856   7.249   8.439
 2035ETHY    C1 2022  -6.961   7.260   8.889
 2036ETHY    C1 2023  -7.111   7.368   9.415
 2037AUSL   AUS 2024  -6.441   7.280   8.174
 2038AUSL   AUS 2025  -6.094   7.393   7.917
 2039AUL    AUL 2026  -6.113   7.432   8.295
 2040THSLK    S 2027  -6.353   7.326   8.426
 2041ETHY    C1 2028  -6.247   7.466   8.854
 2042ETHY    C1 2029  -6.097   7.538   9.386
 2043THSLK    S 2030  -5.914   7.509   8.082
 2044ETHY    C1 2031  -5.569   7.644   8.358
 2045ETHY    C1 2032  -5.194   7.898   8.683
 2046AUSL   AUS 2033  -6.195   7.129   6.921
 2047AUSL   AUS 2034  -6.339   7.545   6.990
 2048AUL    AUL 2035  -6.113   7.432   6.706
 2049THSLK    S 2036  -6.089   7.089   6.668
 2050ETHY    C1 2037  -5.852   7.022   6.278
 2051ETHY    C1 2038  -5.559   7.041   5.804
 2052THSLK    S 2039  -6.164   7.673   6.816
 2053ETHY    C1 2040  -5.933   7.891   6.480
 2054ETHY    C1 2041  -5.707   8.233   6.102
 2055AUSL   AUS 2042  -6.441   6.977   6.827
 2056AUSL   AUS 2043  -6.094   6.864   7.084
 2057AUL    AUL 2044  -6.113   6.825   6.706
 2058THSLK    S 2045  -5.948   6.677   6.932
 2059ETHY    C1 2046  -5.664   6.423   6.670
 2060ETHY    C1 2047  -5.272   6.203   6.340
 2061THSLK    S 2048  -6.353   6.931   6.575
 2062ETHY    C1 2049  -6.247   6.791   6.147
 2063ETHY    C1 2050  -6.097   6.719   5.615
 2064AUSL   AUS 2051  -6.441   7.280   6.827
 2065AUSL   AUS 2052  -6.768   6.977   6.827
 2066AUL    AUL 2053  -6.604   7.129   6.519
 2067THSLK    S 2054  -6.868   6.931   6.579
 2068ETHY    C1 2055  -7.002   6.793   6.158
 2069ETHY    C1 2056  -7.145   6.721   5.624
 2070THSLK    S 2057  -6.340   7.248   6.566
 2071ETHY    C1 2058  -6.213   7.257   6.121
 2072ETHY    C1 2059  -6.069   7.366   5.594
 2073AUSL   AUS 2060  -7.013   7.129   8.081
 2074AUSL   AUS 2061  -6.869   7.545   8.011
 2075AUL    AUL 2062  -7.095   7.432   8.295
 2076THSLK    S 2063  -7.119   7.089   8.333
 2077ETHY    C1 2064  -7.356   7.022   8.723
 2078ETHY    C1 2065  -7.650   7.041   9.197
 2079THSLK    S 2066  -6.997   7.687   8.202
 2080ETHY    C1 2067  -7.150   7.932   8.563
 2081ETHY    C1 2068  -7.398   8.267   8.933
 2082AUSL   AUS 2069  -6.768   6.977   8.174
 2083AUSL   AUS 2070  -7.114   6.864   7.917
 2084AUL    AUL 2071  -7.095   6.825   8.295
 2085THSLK    S 2072  -7.295   6.696   8.043
 2086ETHY    C1 2073  -7.636   6.470   8.259
 2087ETHY    C1 2074  -8.012   6.242   8.602
 2088THSLK    S 2075  -6.868   6.931   8.422
 2089ETHY    C1 2076  -6.996   6.792   8.844
 2090ETHY    C1 2077  -7.140   6.720   9.378
 2091AUSL   AUS 2078  -7.013   7.129   6.921
 2092AUSL   AUS 2079  -6.869   6.712   6.990
 2093AUL    AUL 2080  -7.095   6.825   6.706
 2094THSLK    S 2081  -7.118   7.089   6.668
 2095ETHY    C1 2082  -7.362   7.022   6.281
 2096ETHY    C1 2083  -7.654   7.041   5.807
 2097THSLK    S 2084  -7.043   6.538   6.855
 2098ETHY    C1 2085  -7.280   6.245   6.587
 2099ETHY    C1 2086  -7.505   5.924   6.190
 2100AUSL   AUS 2087  -6.768   7.280   6.827
 2101AUSL   AUS 2088  -7.114   7.393   7.084
 2102AUL    AUL 2089  -7.095   7.432   6.706
 2103THSLK    S 2090  -7.260   7.528   6.894
 2104ETHY    C1 2091  -7.549   7.692   6.572
 2105ETHY    C1 2092  -7.940   7.937   6.259
 2106THSLK    S 2093  -6.855   7.249   6.562
 2107ETHY    C1 2094  -6.968   7.259   6.114
 2108ETHY    C1 2095  -7.116   7.367   5.587
 2109AUSL   AUS 2096  -6.024   7.538   7.501
 2110AUSL   AUS 2097  -6.094   7.393   7.084
 2111AUL    AUL 2098  -5.810   7.619   7.197
 2112THSLK    S 2099  -5.914   7.510   6.920
 2113ETHY    C1 2100  -5.573   7.643   6.638
 2114ETHY    C1 2101  -5.197   7.897   6.314
 2115THSLK    S 2102  -5.751   7.609   7.501
 2116ETHY    C1 2103  -5.327   7.793   7.497
 2117ETHY    C1 2104  -4.863   8.102   7.498
 2118AUSL   AUS 2105  -5.930   7.292   7.349
 2119AUSL   AUS 2106  -5.930   6.965   7.652
 2120AUL    AUL 2107  -5.623   7.129   7.501
 2121THSLK    S 2108  -5.663   7.347   7.341
 2122ETHY    C1 2109  -5.211   7.403   7.262
 2123ETHY    C1 2110  -4.686   7.568   7.172
 2124THSLK    S 2111  -5.684   6.833   7.659
 2125ETHY    C1 2112  -5.267   6.648   7.728
 2126ETHY    C1 2113  -4.731   6.520   7.820
 2127AUSL   AUS 2114  -5.930   7.292   7.652
 2128AUSL   AUS 2115  -6.188   7.639   7.765
 2129AUL    AUL 2116  -5.810   7.619   7.804
 2130THSLK    S 2117  -6.002   7.774   7.925
 2131ETHY    C1 2118  -5.686   8.042   8.128
 2132ETHY    C1 2119  -5.371   8.439   8.362
 2133THSLK    S 2120  -5.663   7.347   7.661
 2134ETHY    C1 2121  -5.211   7.403   7.733
 2135ETHY    C1 2122  -4.685   7.568   7.824
 2136AUSL   AUS 2123  -7.184   7.538   7.501
 2137AUSL   AUS 2124  -7.114   7.393   7.917
 2138AUL    AUL 2125  -7.398   7.619   7.804
 2139THSLK    S 2126  -7.261   7.528   8.107
 2140ETHY    C1 2127  -7.545   7.697   8.430
 2141ETHY    C1 2128  -7.937   7.942   8.743
 2142THSLK    S 2129  -7.415   7.676   7.501
 2143ETHY    C1 2130  -7.769   7.974   7.497
 2144ETHY    C1 2131  -8.253   8.251   7.498
 2145AUSL   AUS 2132  -7.278   7.292   7.349
 2146AUSL   AUS 2133  -7.021   7.639   7.236
 2147AUL    AUL 2134  -7.398   7.619   7.197
 2148THSLK    S 2135  -7.524   7.402   7.307
 2149ETHY    C1 2136  -7.942   7.547   7.173
 2150ETHY    C1 2137  -8.477   7.687   7.099
 2151THSLK    S 2138  -7.152   7.808   7.056
 2152ETHY    C1 2139  -7.376   8.130   6.812
 2153ETHY    C1 2140  -7.716   8.512   6.589
 2154AUSL   AUS 2141  -7.278   7.292   7.652
 2155AUSL   AUS 2142  -7.278   6.965   7.349
 2156AUL    AUL 2143  -7.586   7.129   7.501
 2157THSLK    S 2144  -7.545   6.887   7.377
 2158ETHY    C1 2145  -7.998   6.798   7.359
 2159ETHY    C1 2146  -8.523   6.643   7.252
 2160THSLK    S 2147  -7.524   7.402   7.694
 2161ETHY    C1 2148  -7.941   7.553   7.825
 2162ETHY    C1 2149  -8.476   7.691   7.900
 2163AUSL   AUS 2150  -6.024   6.720   7.501
 2164AUSL   AUS 2151  -6.094   6.864   7.917
 2165AUL    AUL 2152  -5.810   6.638   7.804
 2166THSLK    S 2153  -5.793   6.581   7.501
 2167ETHY    C1 2154  -5.439   6.283   7.497
 2168ETHY    C1 2155  -4.955   6.006   7.498
 2169THSLK    S 2156  -5.948   6.677   8.070
 2170ETHY    C1 2157  -5.660   6.422   8.326
 2171ETHY    C1 2158  -5.268   6.202   8.657
 2172AUSL   AUS 2159  -5.930   6.965   7.349
 2173AUSL   AUS 2160  -6.188   6.618   7.236
 2174AUL    AUL 2161  -5.810   6.638   7.197
 2175THSLK    S 2162  -5.684   6.833   7.343
 2176ETHY    C1 2163  -5.268   6.648   7.266
 2177ETHY    C1 2164  -4.732   6.520   7.176
 2178THSLK    S 2165  -6.056   6.427   7.092
 2179ETHY    C1 2166  -5.835   6.066   6.907
 2180ETHY    C1 2167  -5.494   5.696   6.667
 2181AUSL   AUS 2168  -7.184   6.720   7.501
 2182AUSL   AUS 2169  -7.114   6.864   7.084
 2183AUL    AUL 2170  -7.398   6.638   7.197
 2184THSLK    S 2171  -7.294   6.696   6.958
 2185ETHY    C1 2172  -7.640   6.476   6.743
 2186ETHY    C1 2173  -8.015   6.246   6.400
 2187THSLK    S 2174  -7.457   6.648   7.501
 2188ETHY    C1 2175  -7.881   6.465   7.497
 2189ETHY    C1 2176  -8.345   6.155   7.498
 2190AUSL   AUS 2177  -7.278   6.965   7.652
 2191AUSL   AUS 2178  -7.021   6.618   7.765
 2192AUL    AUL 2179  -7.398   6.638   7.804
 2193THSLK    S 2180  -7.207   6.461   7.889
 2194ETHY    C1 2181  -7.520   6.155   8.033
 2195ETHY    C1 2182  -7.835   5.768   8.284
 2196THSLK    S 2183  -7.545   6.888   7.625
 2197ETHY    C1 2184  -7.997   6.792   7.639
 2198ETHY    C1 2185  -8.522   6.639   7.746
 2199AUSL   AUS 2186  -6.604   7.709   7.910
 2200AUSL   AUS 2187  -7.021   7.639   7.765
 2201AUL    AUL 2188  -6.908   7.923   7.991
 2202THSLK    S 2189  -7.152   7.807   7.945
 2203ETHY    C1 2190  -7.373   8.135   8.185
 2204ETHY    C1 2191  -7.714   8.515   8.409
 2205THSLK    S 2192  -6.570   7.950   8.033
 2206ETHY    C1 2193  -6.512   8.322   8.301
 2207ETHY    C1 2194  -6.528   8.801   8.586
 2208AUSL   AUS 2195  -6.756   7.802   7.664
 2209AUSL   AUS 2196  -6.453   7.802   7.337
 2210AUL    AUL 2197  -6.604   8.110   7.501
 2211THSLK    S 2198  -6.725   8.062   7.770
 2212ETHY    C1 2199  -6.735   8.503   7.907
 2213ETHY    C1 2200  -6.844   9.032   8.048
 2214THSLK    S 2201  -6.408   8.051   7.235
 2215ETHY    C1 2202  -6.270   8.469   7.097
 2216ETHY    C1 2203  -6.198   9.004   6.955
 2217AUSL   AUS 2204  -6.453   7.802   7.664
 2218AUSL   AUS 2205  -6.339   7.545   8.011
 2219AUL    AUL 2206  -6.301   7.923   7.991
 2220THSLK    S 2207  -6.165   7.673   8.185
 2221ETHY    C1 2208  -5.929   7.892   8.517
 2222ETHY    C1 2209  -5.703   8.234   8.895
 2223THSLK    S 2210  -6.408   8.050   7.767
 2224ETHY    C1 2211  -6.269   8.471   7.898
 2225ETHY    C1 2212  -6.196   9.005   8.041
 2226AUSL   AUS 2213  -6.604   6.549   7.910
 2227AUSL   AUS 2214  -6.188   6.618   7.765
 2228AUL    AUL 2215  -6.301   6.334   7.991
 2229THSLK    S 2216  -6.638   6.285   7.997
 2230ETHY    C1 2217  -6.693   5.876   8.205
 2231ETHY    C1 2218  -6.678   5.408   8.507
 2232THSLK    S 2219  -6.056   6.427   7.910
 2233ETHY    C1 2220  -5.833   6.065   8.089
 2234ETHY    C1 2221  -5.492   5.695   8.330
 2235AUSL   AUS 2222  -6.756   6.455   7.664
 2236AUSL   AUS 2223  -6.869   6.712   8.011
 2237AUL    AUL 2224  -6.908   6.334   7.991
 2238THSLK    S 2225  -6.801   6.202   7.746
 2239ETHY    C1 2226  -6.938   5.771   7.843
 2240ETHY    C1 2227  -7.011   5.239   7.996
 2241THSLK    S 2228  -7.044   6.538   8.146
 2242ETHY    C1 2229  -7.275   6.240   8.413
 2243ETHY    C1 2230  -7.502   5.920   8.810
 2244AUSL   AUS 2231  -6.453   6.455   7.664
 2245AUSL   AUS 2232  -6.756   6.455   7.337
 2246AUL    AUL 2233  -6.604   6.147   7.501
 2247THSLK    S 2234  -6.801   6.202   7.255
 2248ETHY    C1 2235  -6.940   5.773   7.152
 2249ETHY    C1 2236  -7.012   5.241   7.001
 2250THSLK    S 2237  -6.484   6.190   7.750
 2251ETHY    C1 2238  -6.471   5.739   7.852
 2252ETHY    C1 2239  -6.363   5.213   8.003
 2253AUSL   AUS 2240  -6.604   7.709   7.092
 2254AUSL   AUS 2241  -6.188   7.639   7.236
 2255AUL    AUL 2242  -6.301   7.923   7.010
 2256THSLK    S 2243  -6.570   7.950   6.969
 2257ETHY    C1 2244  -6.515   8.319   6.696
 2258ETHY    C1 2245  -6.531   8.798   6.412
 2259THSLK    S 2246  -6.001   7.774   7.077
 2260ETHY    C1 2247  -5.688   8.041   6.868
 2261ETHY    C1 2248  -5.373   8.438   6.634
 2262AUSL   AUS 2249  -6.756   7.802   7.337
 2263AUSL   AUS 2250  -6.869   7.545   6.990
 2264AUL    AUL 2251  -6.908   7.923   7.010
 2265THSLK    S 2252  -6.725   8.063   7.232
 2266ETHY    C1 2253  -6.737   8.501   7.088
 2267ETHY    C1 2254  -6.845   9.030   6.948
 2268THSLK    S 2255  -6.996   7.688   6.799
 2269ETHY    C1 2256  -7.154   7.928   6.437
 2270ETHY    C1 2257  -7.402   8.263   6.067
 2271AUSL   AUS 2258  -6.604   6.549   7.092
 2272AUSL   AUS 2259  -7.021   6.618   7.236
 2273AUL    AUL 2260  -6.908   6.334   7.010
 2274THSLK    S 2261  -7.207   6.461   7.113
 2275ETHY    C1 2262  -7.523   6.159   6.964
 2276ETHY    C1 2263  -7.837   5.772   6.714
 2277THSLK    S 2264  -6.638   6.285   7.004
 2278ETHY    C1 2265  -6.697   5.880   6.791
 2279ETHY    C1 2266  -6.680   5.410   6.490
 2280AUSL   AUS 2267  -6.453   6.455   7.337
 2281AUSL   AUS 2268  -6.339   6.712   6.990
 2282AUL    AUL 2269  -6.301   6.334   7.010
 2283THSLK    S 2270  -6.483   6.189   7.252
 2284ETHY    C1 2271  -6.473   5.741   7.143
 2285ETHY    C1 2272  -6.365   5.214   6.993
 2286THSLK    S 2273  -6.211   6.523   6.839
 2287ETHY    C1 2274  -6.059   6.205   6.541
 2288ETHY    C1 2275  -5.810   5.891   6.152
 2289AUC    AUC 2276  39.643   0.200   7.501
 2290AUC    AUC 2277  39.888   0.200   7.349
 2291AUC    AUC 2278  39.888   0.200   7.652
 2292AUC    AUC 2279  39.397   0.200   7.349
 2293AUC    AUC 2280  39.397   0.200   7.652
 2294AUC    AUC 2281  39.491   0.445   7.501
 2295AUC    AUC 2282  39.794   0.445   7.501
 2296AUC    AUC 2283  39.491  -0.046   7.501
 2297AUC    AUC 2284  39.794  -0.046   7.501
 2298AUC    AUC 2285  39.643   0.048   7.746
 2299AUC    AUC 2286  39.643   0.351   7.746
 2300AUC    AUC 2287  39.643   0.048   7.255
 2301AUC    AUC 2288  39.643   0.351   7.255
 2302AUC    AUC 2289  40.134   0.200   7.197
 2303AUC    AUC 2290  40.134   0.200   7.501
 2304AUC    AUC 2291  40.134   0.200   7.804
 2305AUC    AUC 2292  39.152   0.200   7.197
 2306AUC    AUC 2293  39.152   0.200   7.501
 2307AUC    AUC 2294  39.152   0.200   7.804
 2308AUC    AUC 2295  39.339   0.690   7.501
 2309AUC    AUC 2296  39.643   0.690   7.501
 2310AUC    AUC 2297  39.946   0.690   7.501
 2311AUC    AUC 2298  39.339  -0.291   7.501
 2312AUC    AUC 2299  39.643  -0.291   7.501
 2313AUC    AUC 2300  39.946  -0.291   7.501
 2314AUC    AUC 2301  39.643  -0.104   7.991
 2315AUC    AUC 2302  39.643   0.200   7.991
 2316AUC    AUC 2303  39.643   0.503   7.991
 2317AUC    AUC 2304  39.643  -0.104   7.010
 2318AUC    AUC 2305  39.643   0.200   7.010
 2319AUC    AUC 2306  39.643   0.503   7.010
 2320AUC    AUC 2307  39.888   0.048   7.898
 2321AUC    AUC 2308  39.888   0.351   7.898
 2322AUC    AUC 2309  39.888   0.048   7.103
 2323AUC    AUC 2310  39.888   0.351   7.103
 2324AUC    AUC 2311  39.397   0.048   7.898
 2325AUC    AUC 2312  39.397   0.351   7.898
 2326AUC    AUC 2313  39.397   0.048   7.103
 2327AUC    AUC 2314  39.397   0.351   7.103
 2328AUC    AUC 2315  40.040   0.445   7.349
 2329AUC    AUC 2316  40.040   0.445   7.652
 2330AUC    AUC 2317  39.246   0.445   7.349
 2331AUC    AUC 2318  39.246   0.445   7.652
 2332AUC    AUC 2319  40.040  -0.046   7.349
 2333AUC    AUC 2320  40.040  -0.046   7.652
 2334AUC    AUC 2321  39.246  -0.046   7.349
 2335AUC    AUC 2322  39.246  -0.046   7.652
 2336AUC    AUC 2323  39.491   0.597   7.746
 2337AUC    AUC 2324  39.794   0.597   7.746
 2338AUC    AUC 2325  39.491  -0.197   7.746
 2339AUC    AUC 2326  39.794  -0.197   7.746
 2340AUC    AUC 2327  39.491   0.597   7.255
 2341AUC    AUC 2328  39.794   0.597   7.255
 2342AUC    AUC 2329  39.491  -0.197   7.255
 2343AUC    AUC 2330  39.794  -0.197   7.255
 2344AUSL   AUS 2331  40.052   0.200   8.081
 2345AUSL   AUS 2332  39.908  -0.217   8.011
 2346AUL    AUL 2333  40.134  -0.104   8.295
 2347THSLK    S 2334  40.035  -0.405   8.163
 2348ETHY    C1 2335  40.193  -0.726   8.456
 2349ETHY    C1 2336  40.441  -1.039   8.845
 2350THSLK    S 2337  40.157   0.160   8.333
 2351ETHY    C1 2338  40.400   0.093   8.720
 2352ETHY    C1 2339  40.693   0.112   9.194
 2353AUSL   AUS 2340  39.806   0.048   8.174
 2354AUSL   AUS 2341  39.479   0.351   8.174
 2355AUL    AUL 2342  39.643   0.200   8.482
 2356THSLK    S 2343  39.893   0.002   8.426
 2357ETHY    C1 2344  40.006  -0.139   8.852
 2358ETHY    C1 2345  40.155  -0.210   9.385
 2359THSLK    S 2346  39.391   0.320   8.439
 2360ETHY    C1 2347  39.286   0.331   8.889
 2361ETHY    C1 2348  39.136   0.439   9.415
 2362AUSL   AUS 2349  39.806   0.351   8.174
 2363AUSL   AUS 2350  40.153   0.464   7.917
 2364AUL    AUL 2351  40.134   0.503   8.295
 2365THSLK    S 2352  39.894   0.397   8.426
 2366ETHY    C1 2353  40.000   0.537   8.854
 2367ETHY    C1 2354  40.150   0.609   9.386
 2368THSLK    S 2355  40.333   0.580   8.082
 2369ETHY    C1 2356  40.678   0.715   8.358
 2370ETHY    C1 2357  41.053   0.969   8.683
 2371AUSL   AUS 2358  40.052   0.200   6.921
 2372AUSL   AUS 2359  39.908   0.616   6.990
 2373AUL    AUL 2360  40.134   0.503   6.706
 2374THSLK    S 2361  40.158   0.160   6.668
 2375ETHY    C1 2362  40.395   0.093   6.278
 2376ETHY    C1 2363  40.688   0.112   5.804
 2377THSLK    S 2364  40.083   0.744   6.816
 2378ETHY    C1 2365  40.314   0.962   6.480
 2379ETHY    C1 2366  40.540   1.304   6.102
 2380AUSL   AUS 2367  39.806   0.048   6.827
 2381AUSL   AUS 2368  40.153  -0.065   7.084
 2382AUL    AUL 2369  40.134  -0.104   6.706
 2383THSLK    S 2370  40.299  -0.252   6.932
 2384ETHY    C1 2371  40.583  -0.506   6.670
 2385ETHY    C1 2372  40.975  -0.726   6.340
 2386THSLK    S 2373  39.894   0.002   6.575
 2387ETHY    C1 2374  40.000  -0.138   6.147
 2388ETHY    C1 2375  40.150  -0.210   5.615
 2389AUSL   AUS 2376  39.806   0.351   6.827
 2390AUSL   AUS 2377  39.479   0.048   6.827
 2391AUL    AUL 2378  39.643   0.200   6.519
 2392THSLK    S 2379  39.379   0.002   6.579
 2393ETHY    C1 2380  39.245  -0.136   6.158
 2394ETHY    C1 2381  39.102  -0.208   5.624
 2395THSLK    S 2382  39.907   0.319   6.566
 2396ETHY    C1 2383  40.034   0.328   6.121
 2397ETHY    C1 2384  40.178   0.437   5.594
 2398AUSL   AUS 2385  39.234   0.200   8.081
 2399AUSL   AUS 2386  39.378   0.616   8.011
 2400AUL    AUL 2387  39.152   0.503   8.295
 2401THSLK    S 2388  39.128   0.160   8.333
 2402ETHY    C1 2389  38.891   0.093   8.723
 2403ETHY    C1 2390  38.597   0.112   9.197
 2404THSLK    S 2391  39.250   0.758   8.202
 2405ETHY    C1 2392  39.097   1.003   8.563
 2406ETHY    C1 2393  38.849   1.338   8.933
 2407AUSL   AUS 2394  39.479   0.048   8.174
 2408AUSL   AUS 2395  39.133  -0.065   7.917
 2409AUL    AUL 2396  39.152  -0.104   8.295
 2410THSLK    S 2397  38.952  -0.233   8.043
 2411ETHY    C1 2398  38.611  -0.459   8.259
 2412ETHY    C1 2399  38.235  -0.687   8.602
 2413THSLK    S 2400  39.379   0.002   8.422
 2414ETHY    C1 2401  39.251  -0.137   8.844
 2415ETHY    C1 2402  39.107  -0.209   9.378
 2416AUSL   AUS 2403  39.234   0.200   6.921
 2417AUSL   AUS 2404  39.378  -0.217   6.990
 2418AUL    AUL 2405  39.152  -0.104   6.706
 2419THSLK    S 2406  39.129   0.160   6.668
 2420ETHY    C1 2407  38.885   0.093   6.281
 2421ETHY    C1 2408  38.593   0.112   5.807
 2422THSLK    S 2409  39.204  -0.391   6.855
 2423ETHY    C1 2410  38.967  -0.684   6.587
 2424ETHY    C1 2411  38.742  -1.005   6.190
 2425AUSL   AUS 2412  39.479   0.351   6.827
 2426AUSL   AUS 2413  39.133   0.464   7.084
 2427AUL    AUL 2414  39.152   0.503   6.706
 2428THSLK    S 2415  38.987   0.599   6.894
 2429ETHY    C1 2416  38.698   0.763   6.572
 2430ETHY    C1 2417  38.307   1.008   6.259
 2431THSLK    S 2418  39.392   0.320   6.562
 2432ETHY    C1 2419  39.279   0.330   6.114
 2433ETHY    C1 2420  39.131   0.438   5.587
 2434AUSL   AUS 2421  40.223   0.609   7.501
 2435AUSL   AUS 2422  40.153   0.464   7.084
 2436AUL    AUL 2423  40.437   0.690   7.197
 2437THSLK    S 2424  40.333   0.581   6.920
 2438ETHY    C1 2425  40.674   0.714   6.638
 2439ETHY    C1 2426  41.050   0.968   6.314
 2440THSLK    S 2427  40.496   0.680   7.501
 2441ETHY    C1 2428  40.920   0.864   7.497
 2442ETHY    C1 2429  41.384   1.173   7.498
 2443AUSL   AUS 2430  40.317   0.363   7.349
 2444AUSL   AUS 2431  40.317   0.036   7.652
 2445AUL    AUL 2432  40.624   0.200   7.501
 2446THSLK    S 2433  40.584   0.418   7.341
 2447ETHY    C1 2434  41.036   0.474   7.262
 2448ETHY    C1 2435  41.561   0.639   7.172
 2449THSLK    S 2436  40.563  -0.096   7.659
 2450ETHY    C1 2437  40.980  -0.281   7.728
 2451ETHY    C1 2438  41.516  -0.409   7.820
 2452AUSL   AUS 2439  40.317   0.363   7.652
 2453AUSL   AUS 2440  40.059   0.710   7.765
 2454AUL    AUL 2441  40.437   0.690   7.804
 2455THSLK    S 2442  40.245   0.845   7.925
 2456ETHY    C1 2443  40.561   1.113   8.128
 2457ETHY    C1 2444  40.876   1.510   8.362
 2458THSLK    S 2445  40.584   0.418   7.661
 2459ETHY    C1 2446  41.036   0.474   7.733
 2460ETHY    C1 2447  41.562   0.639   7.824
 2461AUSL   AUS 2448  39.063   0.609   7.501
 2462AUSL   AUS 2449  39.133   0.464   7.917
 2463AUL    AUL 2450  38.849   0.690   7.804
 2464THSLK    S 2451  38.986   0.599   8.107
 2465ETHY    C1 2452  38.702   0.768   8.430
 2466ETHY    C1 2453  38.310   1.013   8.743
 2467THSLK    S 2454  38.832   0.747   7.501
 2468ETHY    C1 2455  38.478   1.045   7.497
 2469ETHY    C1 2456  37.994   1.322   7.498
 2470AUSL   AUS 2457  38.969   0.363   7.349
 2471AUSL   AUS 2458  39.226   0.710   7.236
 2472AUL    AUL 2459  38.849   0.690   7.197
 2473THSLK    S 2460  38.723   0.473   7.307
 2474ETHY    C1 2461  38.305   0.618   7.173
 2475ETHY    C1 2462  37.770   0.758   7.099
 2476THSLK    S 2463  39.095   0.879   7.056
 2477ETHY    C1 2464  38.871   1.201   6.812
 2478ETHY    C1 2465  38.531   1.583   6.589
 2479AUSL   AUS 2466  38.969   0.363   7.652
 2480AUSL   AUS 2467  38.969   0.036   7.349
 2481AUL    AUL 2468  38.661   0.200   7.501
 2482THSLK    S 2469  38.702  -0.042   7.377
 2483ETHY    C1 2470  38.249  -0.131   7.359
 2484ETHY    C1 2471  37.724  -0.286   7.252
 2485THSLK    S 2472  38.723   0.473   7.694
 2486ETHY    C1 2473  38.306   0.624   7.825
 2487ETHY    C1 2474  37.771   0.762   7.900
 2488AUSL   AUS 2475  40.223  -0.209   7.501
 2489AUSL   AUS 2476  40.153  -0.065   7.917
 2490AUL    AUL 2477  40.437  -0.291   7.804
 2491THSLK    S 2478  40.454  -0.348   7.501
 2492ETHY    C1 2479  40.808  -0.646   7.497
 2493ETHY    C1 2480  41.292  -0.923   7.498
 2494THSLK    S 2481  40.299  -0.252   8.070
 2495ETHY    C1 2482  40.587  -0.507   8.326
 2496ETHY    C1 2483  40.979  -0.727   8.657
 2497AUSL   AUS 2484  40.317   0.036   7.349
 2498AUSL   AUS 2485  40.059  -0.311   7.236
 2499AUL    AUL 2486  40.437  -0.291   7.197
 2500THSLK    S 2487  40.563  -0.096   7.343
 2501ETHY    C1 2488  40.979  -0.281   7.266
 2502ETHY    C1 2489  41.515  -0.409   7.176
 2503THSLK    S 2490  40.191  -0.502   7.092
 2504ETHY    C1 2491  40.412  -0.863   6.907
 2505ETHY    C1 2492  40.753  -1.233   6.667
 2506AUSL   AUS 2493  39.063  -0.209   7.501
 2507AUSL   AUS 2494  39.133  -0.065   7.084
 2508AUL    AUL 2495  38.849  -0.291   7.197
 2509THSLK    S 2496  38.953  -0.233   6.958
 2510ETHY    C1 2497  38.607  -0.453   6.743
 2511ETHY    C1 2498  38.232  -0.683   6.400
 2512THSLK    S 2499  38.790  -0.281   7.501
 2513ETHY    C1 2500  38.366  -0.464   7.497
 2514ETHY    C1 2501  37.902  -0.774   7.498
 2515AUSL   AUS 2502  38.969   0.036   7.652
 2516AUSL   AUS 2503  39.226  -0.311   7.765
 2517AUL    AUL 2504  38.849  -0.291   7.804
 2518THSLK    S 2505  39.040  -0.468   7.889
 2519ETHY    C1 2506  38.727  -0.774   8.033
 2520ETHY    C1 2507  38.412  -1.161   8.284
 2521THSLK    S 2508  38.702  -0.041   7.625
 2522ETHY    C1 2509  38.250  -0.137   7.639
 2523ETHY    C1 2510  37.725  -0.290   7.746
 2524AUSL   AUS 2511  39.643   0.780   7.910
 2525AUSL   AUS 2512  39.226   0.710   7.765
 2526AUL    AUL 2513  39.339   0.994   7.991
 2527THSLK    S 2514  39.095   0.878   7.945
 2528ETHY    C1 2515  38.874   1.206   8.185
 2529ETHY    C1 2516  38.533   1.586   8.409
 2530THSLK    S 2517  39.677   1.021   8.033
 2531ETHY    C1 2518  39.735   1.393   8.301
 2532ETHY    C1 2519  39.719   1.872   8.586
 2533AUSL   AUS 2520  39.491   0.873   7.664
 2534AUSL   AUS 2521  39.794   0.873   7.337
 2535AUL    AUL 2522  39.643   1.181   7.501
 2536THSLK    S 2523  39.522   1.133   7.770
 2537ETHY    C1 2524  39.512   1.574   7.907
 2538ETHY    C1 2525  39.403   2.103   8.048
 2539THSLK    S 2526  39.839   1.122   7.235
 2540ETHY    C1 2527  39.977   1.540   7.097
 2541ETHY    C1 2528  40.049   2.075   6.955
 2542AUSL   AUS 2529  39.794   0.873   7.664
 2543AUSL   AUS 2530  39.908   0.616   8.011
 2544AUL    AUL 2531  39.946   0.994   7.991
 2545THSLK    S 2532  40.082   0.744   8.185
 2546ETHY    C1 2533  40.318   0.963   8.517
 2547ETHY    C1 2534  40.544   1.305   8.895
 2548THSLK    S 2535  39.839   1.121   7.767
 2549ETHY    C1 2536  39.978   1.542   7.898
 2550ETHY    C1 2537  40.051   2.076   8.041
 2551AUSL   AUS 2538  39.643  -0.380   7.910
 2552AUSL   AUS 2539  40.059  -0.311   7.765
 2553AUL    AUL 2540  39.946  -0.595   7.991
 2554THSLK    S 2541  39.609  -0.644   7.997
 2555ETHY    C1 2542  39.554  -1.053   8.205
 2556ETHY    C1 2543  39.569  -1.521   8.507
 2557THSLK    S 2544  40.191  -0.502   7.910
 2558ETHY    C1 2545  40.414  -0.864   8.089
 2559ETHY    C1 2546  40.755  -1.234   8.330
 2560AUSL   AUS 2547  39.491  -0.474   7.664
 2561AUSL   AUS 2548  39.378  -0.217   8.011
 2562AUL    AUL 2549  39.339  -0.595   7.991
 2563THSLK    S 2550  39.446  -0.727   7.746
 2564ETHY    C1 2551  39.309  -1.158   7.843
 2565ETHY    C1 2552  39.236  -1.690   7.996
 2566THSLK    S 2553  39.203  -0.391   8.146
 2567ETHY    C1 2554  38.972  -0.689   8.413
 2568ETHY    C1 2555  38.745  -1.009   8.810
 2569AUSL   AUS 2556  39.794  -0.474   7.664
 2570AUSL   AUS 2557  39.491  -0.474   7.337
 2571AUL    AUL 2558  39.643  -0.782   7.501
 2572THSLK    S 2559  39.446  -0.727   7.255
 2573ETHY    C1 2560  39.307  -1.156   7.152
 2574ETHY    C1 2561  39.235  -1.688   7.001
 2575THSLK    S 2562  39.763  -0.739   7.750
 2576ETHY    C1 2563  39.776  -1.190   7.852
 2577ETHY    C1 2564  39.884  -1.716   8.003
 2578AUSL   AUS 2565  39.643   0.780   7.092
 2579AUSL   AUS 2566  40.059   0.710   7.236
 2580AUL    AUL 2567  39.946   0.994   7.010
 2581THSLK    S 2568  39.677   1.021   6.969
 2582ETHY    C1 2569  39.732   1.390   6.696
 2583ETHY    C1 2570  39.716   1.869   6.412
 2584THSLK    S 2571  40.246   0.845   7.077
 2585ETHY    C1 2572  40.559   1.112   6.868
 2586ETHY    C1 2573  40.874   1.509   6.634
 2587AUSL   AUS 2574  39.491   0.873   7.337
 2588AUSL   AUS 2575  39.378   0.616   6.990
 2589AUL    AUL 2576  39.339   0.994   7.010
 2590THSLK    S 2577  39.522   1.134   7.232
 2591ETHY    C1 2578  39.510   1.572   7.088
 2592ETHY    C1 2579  39.402   2.101   6.948
 2593THSLK    S 2580  39.251   0.759   6.799
 2594ETHY    C1 2581  39.093   0.999   6.437
 2595ETHY    C1 2582  38.845   1.334   6.067
 2596AUSL   AUS 2583  39.643  -0.380   7.092
 2597AUSL   AUS 2584  39.226  -0.311   7.236
 2598AUL    AUL 2585  39.339  -0.595   7.010
 2599THSLK    S 2586  39.040  -0.468   7.113
 2600ETHY    C1 2587  38.724  -0.770   6.964
 2601ETHY    C1 2588  38.410  -1.157   6.714
 2602THSLK    S 2589  39.609  -0.644   7.004
 2603ETHY    C1 2590  39.550  -1.049   6.791
 2604ETHY    C1 2591  39.567  -1.519   6.490
 2605AUSL   AUS 2592  39.794  -0.474   7.337
 2606AUSL   AUS 2593  39.908  -0.217   6.990
 2607AUL    AUL 2594  39.946  -0.595   7.010
 2608THSLK    S 2595  39.764  -0.740   7.252
 2609ETHY    C1 2596  39.774  -1.188   7.143
 2610ETHY    C1 2597  39.882  -1.715   6.993
 2611THSLK    S 2598  40.036  -0.406   6.839
 2612ETHY    C1 2599  40.188  -0.724   6.541
 2613ETHY    C1 2600  40.437  -1.038   6.152
 2614AUC    AUC 2601  23.367  17.825   7.501
 2615AUC    AUC 2602  23.612  17.825   7.349
 2616AUC    AUC 2603  23.612  17.825   7.652
 2617AUC    AUC 2604  23.121  17.825   7.349
 2618AUC    AUC 2605  23.121  17.825   7.652
 2619AUC    AUC 2606  23.215  18.070   7.501
 2620AUC    AUC 2607  23.518  18.070   7.501
 2621AUC    AUC 2608  23.215  17.579   7.501
 2622AUC    AUC 2609  23.518  17.579   7.501
 2623AUC    AUC 2610  23.367  17.673   7.746
 2624AUC    AUC 2611  23.367  17.976   7.746
 2625AUC    AUC 2612  23.367  17.673   7.255
 2626AUC    AUC 2613  23.367  17.976   7.255
 2627AUC    AUC 2614  23.858  17.825   7.197
 2628AUC    AUC 2615  23.858  17.825   7.501
 2629AUC    AUC 2616  23.858  17.825   7.804
 2630AUC    AUC 2617  22.876  17.825   7.197
 2631AUC    AUC 2618  22.876  17.825   7.501
 2632AUC    AUC 2619  22.876  17.825   7.804
 2633AUC    AUC 2620  23.063  18.315   7.501
 2634AUC    AUC 2621  23.367  18.315   7.501
 2635AUC    AUC 2622  23.670  18.315   7.501
 2636AUC    AUC 2623  23.063  17.334   7.501
 2637AUC    AUC 2624  23.367  17.334   7.501
 2638AUC    AUC 2625  23.670  17.334   7.501
 2639AUC    AUC 2626  23.367  17.521   7.991
 2640AUC    AUC 2627  23.367  17.825   7.991
 2641AUC    AUC 2628  23.367  18.128   7.991
 2642AUC    AUC 2629  23.367  17.521   7.010
 2643AUC    AUC 2630  23.367  17.825   7.010
 2644AUC    AUC 2631  23.367  18.128   7.010
 2645AUC    AUC 2632  23.612  17.673   7.898
 2646AUC    AUC 2633  23.612  17.976   7.898
 2647AUC    AUC 2634  23.612  17.673   7.103
 2648AUC    AUC 2635  23.612  17.976   7.103
 2649AUC    AUC 2636  23.121  17.673   7.898
 2650AUC    AUC 2637  23.121  17.976   7.898
 2651AUC    AUC 2638  23.121  17.673   7.103
 2652AUC    AUC 2639  23.121  17.976   7.103
 2653AUC    AUC 2640  23.764  18.070   7.349
 2654AUC    AUC 2641  23.764  18.070   7.652
 2655AUC    AUC 2642  22.970  18.070   7.349
 2656AUC    AUC 2643  22.970  18.070   7.652
 2657AUC    AUC 2644  23.764  17.579   7.349
 2658AUC    AUC 2645  23.764  17.579   7.652
 2659AUC    AUC 2646  22.970  17.579   7.349
 2660AUC    AUC 2647  22.970  17.579   7.652
 2661AUC    AUC 2648  23.215  18.222   7.746
 2662AUC    AUC 2649  23.518  18.222   7.746
 2663AUC    AUC 2650  23.215  17.428   7.746
 2664AUC    AUC 2651  23.518  17.428   7.746
 2665AUC    AUC 2652  23.215  18.222   7.255
 2666AUC    AUC 2653  23.518  18.222   7.255
 2667AUC    AUC 2654  23.215  17.428   7.255
 2668AUC    AUC 2655  23.518  17.428   7.255
 2669AUSL   AUS 2656  23.776  17.825   8.081
 2670AUSL   AUS 2657  23.632  17.408   8.011
 2671AUL    AUL 2658  23.858  17.521   8.295
 2672THSLK    S 2659  23.759  17.220   8.163
 2673ETHY    C1 2660  23.917  16.899   8.456
 2674ETHY    C1 2661  24.165  16.586   8.845
 2675THSLK    S 2662  23.881  17.785   8.333
 2676ETHY    C1 2663  24.124  17.718   8.720
 2677ETHY    C1 2664  24.417  17.737   9.194
 2678AUSL   AUS 2665  23.530  17.673   8.174
 2679AUSL   AUS 2666  23.203  17.976   8.174
 2680AUL    AUL 2667  23.367  17.825   8.482
 2681THSLK    S 2668  23.617  17.627   8.426
 2682ETHY    C1 2669  23.730  17.486   8.852
 2683ETHY    C1 2670  23.879  17.415   9.385
 2684THSLK    S 2671  23.115  17.945   8.439
 2685ETHY    C1 2672  23.010  17.956   8.889
 2686ETHY    C1 2673  22.860  18.064   9.415
 2687AUSL   AUS 2674  23.530  17.976   8.174
 2688AUSL   AUS 2675  23.877  18.089   7.917
 2689AUL    AUL 2676  23.858  18.128   8.295
 2690THSLK    S 2677  23.618  18.022   8.426
 2691ETHY    C1 2678  23.724  18.162   8.854
 2692ETHY    C1 2679  23.874  18.234   9.386
 2693THSLK    S 2680  24.057  18.205   8.082
 2694ETHY    C1 2681  24.402  18.340   8.358
 2695ETHY    C1 2682  24.777  18.594   8.683
 2696AUSL   AUS 2683  23.776  17.825   6.921
 2697AUSL   AUS 2684  23.632  18.241   6.990
 2698AUL    AUL 2685  23.858  18.128   6.706
 2699THSLK    S 2686  23.882  17.785   6.668
 2700ETHY    C1 2687  24.119  17.718   6.278
 2701ETHY    C1 2688  24.412  17.737   5.804
 2702THSLK    S 2689  23.807  18.369   6.816
 2703ETHY    C1 2690  24.038  18.587   6.480
 2704ETHY    C1 2691  24.264  18.929   6.102
 2705AUSL   AUS 2692  23.530  17.673   6.827
 2706AUSL   AUS 2693  23.877  17.560   7.084
 2707AUL    AUL 2694  23.858  17.521   6.706
 2708THSLK    S 2695  24.023  17.373   6.932
 2709ETHY    C1 2696  24.307  17.119   6.670
 2710ETHY    C1 2697  24.699  16.899   6.340
 2711THSLK    S 2698  23.618  17.627   6.575
 2712ETHY    C1 2699  23.724  17.487   6.147
 2713ETHY    C1 2700  23.874  17.415   5.615
 2714AUSL   AUS 2701  23.530  17.976   6.827
 2715AUSL   AUS 2702  23.203  17.673   6.827
 2716AUL    AUL 2703  23.367  17.825   6.519
 2717THSLK    S 2704  23.103  17.627   6.579
 2718ETHY    C1 2705  22.969  17.489   6.158
 2719ETHY    C1 2706  22.826  17.417   5.624
 2720THSLK    S 2707  23.631  17.944   6.566
 2721ETHY    C1 2708  23.758  17.953   6.121
 2722ETHY    C1 2709  23.902  18.062   5.594
 2723AUSL   AUS 2710  22.958  17.825   8.081
 2724AUSL   AUS 2711  23.102  18.241   8.011
 2725AUL    AUL 2712  22.876  18.128   8.295
 2726THSLK    S 2713  22.852  17.785   8.333
 2727ETHY    C1 2714  22.615  17.718   8.723
 2728ETHY    C1 2715  22.321  17.737   9.197
 2729THSLK    S 2716  22.974  18.383   8.202
 2730ETHY    C1 2717  22.821  18.628   8.563
 2731ETHY    C1 2718  22.573  18.963   8.933
 2732AUSL   AUS 2719  23.203  17.673   8.174
 2733AUSL   AUS 2720  22.857  17.560   7.917
 2734AUL    AUL 2721  22.876  17.521   8.295
 2735THSLK    S 2722  22.676  17.392   8.043
 2736ETHY    C1 2723  22.335  17.166   8.259
 2737ETHY    C1 2724  21.959  16.938   8.602
 2738THSLK    S 2725  23.103  17.627   8.422
 2739ETHY    C1 2726  22.975  17.488   8.844
 2740ETHY    C1 2727  22.831  17.416   9.378
 2741AUSL   AUS 2728  22.958  17.825   6.921
 2742AUSL   AUS 2729  23.102  17.408   6.990
 2743AUL    AUL 2730  22.876  17.521   6.706
 2744THSLK    S 2731  22.853  17.785   6.668
 2745ETHY    C1 2732  22.609  17.718   6.281
 2746ETHY    C1 2733  22.317  17.737   5.807
 2747THSLK    S 2734  22.928  17.234   6.855
 2748ETHY    C1 2735  22.691  16.941   6.587
 2749ETHY    C1 2736  22.466  16.620   6.190
 2750AUSL   AUS 2737  23.203  17.976   6.827
 2751AUSL   AUS 2738  22.857  18.089   7.084
 2752AUL    AUL 2739  22.876  18.128   6.706
 2753THSLK    S 2740  22.711  18.224   6.894
 2754ETHY    C1 2741  22.422  18.388   6.572
 2755ETHY    C1 2742  22.031  18.633   6.259
 2756THSLK    S 2743  23.116  17.945   6.562
 2757ETHY    C1 2744  23.003  17.955   6.114
 2758ETHY    C1 2745  22.855  18.063   5.587
 2759AUSL   AUS 2746  23.947  18.234   7.501
 2760AUSL   AUS 2747  23.877  18.089   7.084
 2761AUL    AUL 2748  24.161  18.315   7.197
 2762THSLK    S 2749  24.057  18.206   6.920
 2763ETHY    C1 2750  24.398  18.339   6.638
 2764ETHY    C1 2751  24.774  18.593   6.314
 2765THSLK    S 2752  24.220  18.305   7.501
 2766ETHY    C1 2753  24.644  18.489   7.497
 2767ETHY    C1 2754  25.108  18.798   7.498
 2768AUSL   AUS 2755  24.041  17.988   7.349
 2769AUSL   AUS 2756  24.041  17.661   7.652
 2770AUL    AUL 2757  24.348  17.825   7.501
 2771THSLK    S 2758  24.308  18.043   7.341
 2772ETHY    C1 2759  24.760  18.099   7.262
 2773ETHY    C1 2760  25.285  18.264   7.172
 2774THSLK    S 2761  24.287  17.529   7.659
 2775ETHY    C1 2762  24.704  17.344   7.728
 2776ETHY    C1 2763  25.240  17.216   7.820
 2777AUSL   AUS 2764  24.041  17.988   7.652
 2778AUSL   AUS 2765  23.783  18.335   7.765
 2779AUL    AUL 2766  24.161  18.315   7.804
 2780THSLK    S 2767  23.969  18.470   7.925
 2781ETHY    C1 2768  24.285  18.738   8.128
 2782ETHY    C1 2769  24.600  19.135   8.362
 2783THSLK    S 2770  24.308  18.043   7.661
 2784ETHY    C1 2771  24.760  18.099   7.733
 2785ETHY    C1 2772  25.286  18.264   7.824
 2786AUSL   AUS 2773  22.787  18.234   7.501
 2787AUSL   AUS 2774  22.857  18.089   7.917
 2788AUL    AUL 2775  22.573  18.315   7.804
 2789THSLK    S 2776  22.710  18.224   8.107
 2790ETHY    C1 2777  22.426  18.393   8.430
 2791ETHY    C1 2778  22.034  18.638   8.743
 2792THSLK    S 2779  22.556  18.372   7.501
 2793ETHY    C1 2780  22.202  18.670   7.497
 2794ETHY    C1 2781  21.718  18.947   7.498
 2795AUSL   AUS 2782  22.693  17.988   7.349
 2796AUSL   AUS 2783  22.950  18.335   7.236
 2797AUL    AUL 2784  22.573  18.315   7.197
 2798THSLK    S 2785  22.447  18.098   7.307
 2799ETHY    C1 2786  22.029  18.243   7.173
 2800ETHY    C1 2787  21.494  18.383   7.099
 2801THSLK    S 2788  22.819  18.504   7.056
 2802ETHY    C1 2789  22.595  18.826   6.812
 2803ETHY    C1 2790  22.255  19.208   6.589
 2804AUSL   AUS 2791  22.693  17.988   7.652
 2805AUSL   AUS 2792  22.693  17.661   7.349
 2806AUL    AUL 2793  22.385  17.825   7.501
 2807THSLK    S 2794  22.426  17.583   7.377
 2808ETHY    C1 2795  21.973  17.494   7.359
 2809ETHY    C1 2796  21.448  17.339   7.252
 2810THSLK    S 2797  22.447  18.098   7.694
 2811ETHY    C1 2798  22.030  18.249   7.825
 2812ETHY    C1 2799  21.495  18.387   7.900
 2813AUSL   AUS 2800  23.947  17.416   7.501
 2814AUSL   AUS 2801  23.877  17.560   7.917
 2815AUL    AUL 2802  24.161  17.334   7.804
 2816THSLK    S 2803  24.178  17.277   7.501
 2817ETHY    C1 2804  24.532  16.979   7.497
 2818ETHY    C1 2805  25.016  16.702   7.498
 2819THSLK    S 2806  24.023  17.373   8.070
 2820ETHY    C1 2807  24.311  17.118   8.326
 2821ETHY    C1 2808  24.703  16.898   8.657
 2822AUSL   AUS 2809  24.041  17.661   7.349
 2823AUSL   AUS 2810  23.783  17.314   7.236
 2824AUL    AUL 2811  24.161  17.334   7.197
 2825THSLK    S 2812  24.287  17.529   7.343
 2826ETHY    C1 2813  24.703  17.344   7.266
 2827ETHY    C1 2814  25.239  17.216   7.176
 2828THSLK    S 2815  23.915  17.123   7.092
 2829ETHY    C1 2816  24.136  16.762   6.907
 2830ETHY    C1 2817  24.477  16.392   6.667
 2831AUSL   AUS 2818  22.787  17.416   7.501
 2832AUSL   AUS 2819  22.857  17.560   7.084
 2833AUL    AUL 2820  22.573  17.334   7.197
 2834THSLK    S 2821  22.677  17.392   6.958
 2835ETHY    C1 2822  22.331  17.172   6.743
 2836ETHY    C1 2823  21.956  16.942   6.400
 2837THSLK    S 2824  22.514  17.344   7.501
 2838ETHY    C1 2825  22.090  17.161   7.497
 2839ETHY    C1 2826  21.626  16.851   7.498
 2840AUSL   AUS 2827  22.693  17.661   7.652
 2841AUSL   AUS 2828  22.950  17.314   7.765
 2842AUL    AUL 2829  22.573  17.334   7.804
 2843THSLK    S 2830  22.764  17.157   7.889
 2844ETHY    C1 2831  22.451  16.851   8.033
 2845ETHY    C1 2832  22.136  16.464   8.284
 2846THSLK    S 2833  22.426  17.584   7.625
 2847ETHY    C1 2834  21.974  17.488   7.639
 2848ETHY    C1 2835  21.449  17.335   7.746
 2849AUSL   AUS 2836  23.367  18.405   7.910
 2850AUSL   AUS 2837  22.950  18.335   7.765
 2851AUL    AUL 2838  23.063  18.619   7.991
 2852THSLK    S 2839  22.819  18.503   7.945
 2853ETHY    C1 2840  22.598  18.831   8.185
 2854ETHY    C1 2841  22.257  19.211   8.409
 2855THSLK    S 2842  23.401  18.646   8.033
 2856ETHY    C1 2843  23.459  19.018   8.301
 2857ETHY    C1 2844  23.443  19.497   8.586
 2858AUSL   AUS 2845  23.215  18.498   7.664
 2859AUSL   AUS 2846  23.518  18.498   7.337
 2860AUL    AUL 2847  23.367  18.806   7.501
 2861THSLK    S 2848  23.246  18.758   7.770
 2862ETHY    C1 2849  23.236  19.199   7.907
 2863ETHY    C1 2850  23.127  19.728   8.048
 2864THSLK    S 2851  23.563  18.747   7.235
 2865ETHY    C1 2852  23.701  19.165   7.097
 2866ETHY    C1 2853  23.773  19.700   6.955
 2867AUSL   AUS 2854  23.518  18.498   7.664
 2868AUSL   AUS 2855  23.632  18.241   8.011
 2869AUL    AUL 2856  23.670  18.619   7.991
 2870THSLK    S 2857  23.806  18.369   8.185
 2871ETHY    C1 2858  24.042  18.588   8.517
 2872ETHY    C1 2859  24.268  18.930   8.895
 2873THSLK    S 2860  23.563  18.746   7.767
 2874ETHY    C1 2861  23.702  19.167   7.898
 2875ETHY    C1 2862  23.775  19.701   8.041
 2876AUSL   AUS 2863  23.367  17.245   7.910
 2877AUSL   AUS 2864  23.783  17.314   7.765
 2878AUL    AUL 2865  23.670  17.030   7.991
 2879THSLK    S 2866  23.333  16.981   7.997
 2880ETHY    C1 2867  23.278  16.572   8.205
 2881ETHY    C1 2868  23.293  16.104   8.507
 2882THSLK    S 2869  23.915  17.123   7.910
 2883ETHY    C1 2870  24.138  16.761   8.089
 2884ETHY    C1 2871  24.479  16.391   8.330
 2885AUSL   AUS 2872  23.215  17.151   7.664
 2886AUSL   AUS 2873  23.102  17.408   8.011
 2887AUL    AUL 2874  23.063  17.030   7.991
 2888THSLK    S 2875  23.170  16.898   7.746
 2889ETHY    C1 2876  23.033  16.467   7.843
 2890ETHY    C1 2877  22.960  15.935   7.996
 2891THSLK    S 2878  22.927  17.234   8.146
 2892ETHY    C1 2879  22.696  16.936   8.413
 2893ETHY    C1 2880  22.469  16.616   8.810
 2894AUSL   AUS 2881  23.518  17.151   7.664
 2895AUSL   AUS 2882  23.215  17.151   7.337
 2896AUL    AUL 2883  23.367  16.843   7.501
 2897THSLK    S 2884  23.170  16.898   7.255
 2898ETHY    C1 2885  23.031  16.469   7.152
 2899ETHY    C1 2886  22.959  15.937   7.001
 2900THSLK    S 2887  23.487  16.886   7.750
 2901ETHY    C1 2888  23.500  16.435   7.852
 2902ETHY    C1 2889  23.608  15.909   8.003
 2903AUSL   AUS 2890  23.367  18.405   7.092
 2904AUSL   AUS 2891  23.783  18.335   7.236
 2905AUL    AUL 2892  23.670  18.619   7.010
 2906THSLK    S 2893  23.401  18.646   6.969
 2907ETHY    C1 2894  23.456  19.015   6.696
 2908ETHY    C1 2895  23.440  19.494   6.412
 2909THSLK    S 2896  23.970  18.470   7.077
 2910ETHY    C1 2897  24.283  18.737   6.868
 2911ETHY    C1 2898  24.598  19.134   6.634
 2912AUSL   AUS 2899  23.215  18.498   7.337
 2913AUSL   AUS 2900  23.102  18.241   6.990
 2914AUL    AUL 2901  23.063  18.619   7.010
 2915THSLK    S 2902  23.246  18.759   7.232
 2916ETHY    C1 2903  23.234  19.197   7.088
 2917ETHY    C1 2904  23.126  19.726   6.948
 2918THSLK    S 2905  22.975  18.384   6.799
 2919ETHY    C1 2906  22.817  18.624   6.437
 2920ETHY    C1 2907  22.569  18.959   6.067
 2921AUSL   AUS 2908  23.367  17.245   7.092
 2922AUSL   AUS 2909  22.950  17.314   7.236
 2923AUL    AUL 2910  23.063  17.030   7.010
 2924THSLK    S 2911  22.764  17.157   7.113
 2925ETHY    C1 2912  22.448  16.855   6.964
 2926ETHY    C1 2913  22.134  16.468   6.714
 2927THSLK    S 2914  23.333  16.981   7.004
 2928ETHY    C1 2915  23.274  16.576   6.791
 2929ETHY    C1 2916  23.291  16.106   6.490
 2930AUSL   AUS 2917  23.518  17.151   7.337
 2931AUSL   AUS 2918  23.632  17.408   6.990
 2932AUL    AUL 2919  23.670  17.030   7.010
 2933THSLK    S 2920  23.488  16.885   7.252
 2934ETHY    C1 2921  23.498  16.437   7.143
 2935ETHY    C1 2922  23.606  15.910   6.993
 2936THSLK    S 2923  23.760  17.219   6.839
 2937ETHY    C1 2924  23.912  16.901   6.541
 2938ETHY    C1 2925  24.161  16.587   6.152
 2939AUC    AUC 2926  35.933  32.471   7.501
 2940AUC    AUC 2927  36.178  32.471   7.349
 2941AUC    AUC 2928  36.178  32.471   7.652
 2942AUC    AUC 2929  35.687  32.471   7.349
 2943AUC    AUC 2930  35.687  32.471   7.652
 2944AUC    AUC 2931  35.781  32.716   7.501
 2945AUC    AUC 2932  36.084  32.716   7.501
 2946AUC    AUC 2933  35.781  32.225   7.501
 2947AUC    AUC 2934  36.084  32.225   7.501
 2948AUC    AUC 2935  35.933  32.319   7.746
 2949AUC    AUC 2936  35.933  32.622   7.746
 2950AUC    AUC 2937  35.933  32.319   7.255
 2951AUC    AUC 2938  35.933  32.622   7.255
 2952AUC    AUC 2939  36.424  32.471   7.197
 2953AUC    AUC 2940  36.424  32.471   7.501
 2954AUC    AUC 2941  36.424  32.471   7.804
 2955AUC    AUC 2942  35.442  32.471   7.197
 2956AUC    AUC 2943  35.442  32.471   7.501
 2957AUC    AUC 2944  35.442  32.471   7.804
 2958AUC    AUC 2945  35.629  32.961   7.501
 2959AUC    AUC 2946  35.933  32.961   7.501
 2960AUC    AUC 2947  36.236  32.961   7.501
 2961AUC    AUC 2948  35.629  31.980   7.501
 2962AUC    AUC 2949  35.933  31.980   7.501
 2963AUC    AUC 2950  36.236  31.980   7.501
 2964AUC    AUC 2951  35.933  32.167   7.991
 2965AUC    AUC 2952  35.933  32.471   7.991
 2966AUC    AUC 2953  35.933  32.774   7.991
 2967AUC    AUC 2954  35.933  32.167   7.010
 2968AUC    AUC 2955  35.933  32.471   7.010
 2969AUC    AUC 2956  35.933  32.774   7.010
 2970AUC    AUC 2957  36.178  32.319   7.898
 2971AUC    AUC 2958  36.178  32.622   7.898
 2972AUC    AUC 2959  36.178  32.319   7.103
 2973AUC    AUC 2960  36.178  32.622   7.103
 2974AUC    AUC 2961  35.687  32.319   7.898
 2975AUC    AUC 2962  35.687  32.622   7.898
 2976AUC    AUC 2963  35.687  32.319   7.103
 2977AUC    AUC 2964  35.687  32.622   7.103
 2978AUC    AUC 2965  36.330  32.716   7.349
 2979AUC    AUC 2966  36.330  32.716   7.652
 2980AUC    AUC 2967  35.536  32.716   7.349
 2981AUC    AUC 2968  35.536  32.716   7.652
 2982AUC    AUC 2969  36.330  32.225   7.349
 2983AUC    AUC 2970  36.330  32.225   7.652
 2984AUC    AUC 2971  35.536  32.225   7.349
 2985AUC    AUC 2972  35.536  32.225   7.652
 2986AUC    AUC 2973  35.781  32.868   7.746
 2987AUC    AUC 2974  36.084  32.868   7.746
 2988AUC    AUC 2975  35.781  32.074   7.746
 2989AUC    AUC 2976  36.084  32.074   7.746
 2990AUC    AUC 2977  35.781  32.868   7.255
 2991AUC    AUC 2978  36.084  32.868   7.255
 2992AUC    AUC 2979  35.781  32.074   7.255
 2993AUC    AUC 2980  36.084  32.074   7.255
 2994AUSL   AUS 2981  36.342  32.471   8.081
 2995AUSL   AUS 2982  36.198  32.054   8.011
 2996AUL    AUL 2983  36.424  32.167   8.295
 2997THSLK    S 2984  36.325  31.866   8.163
 2998ETHY    C1 2985  36.483  31.545   8.456
 2999ETHY    C1 2986  36.731  31.232   8.845
 3000THSLK    S 2987  36.447  32.431   8.333
 3001ETHY    C1 2988  36.690  32.364   8.720
 3002ETHY    C1 2989  36.983  32.383   9.194
 3003AUSL   AUS 2990  36.096  32.319   8.174
 3004AUSL   AUS 2991  35.769  32.622   8.174
 3005AUL    AUL 2992  35.933  32.471   8.482
 3006THSLK    S 2993  36.183  32.273   8.426
 3007ETHY    C1 2994  36.296  32.132   8.852
 3008ETHY    C1 2995  36.445  32.061   9.385
 3009THSLK    S 2996  35.681  32.591   8.439
 3010ETHY    C1 2997  35.576  32.602   8.889
 3011ETHY    C1 2998  35.426  32.710   9.415
 3012AUSL   AUS 2999  36.096  32.622   8.174
 3013AUSL   AUS 3000  36.443  32.735   7.917
 3014AUL    AUL 3001  36.424  32.774   8.295
 3015THSLK    S 3002  36.184  32.668   8.426
 3016ETHY    C1 3003  36.290  32.808   8.854
 3017ETHY    C1 3004  36.440  32.880   9.386
 3018THSLK    S 3005  36.623  32.851   8.082
 3019ETHY    C1 3006  36.968  32.986   8.358
 3020ETHY    C1 3007  37.343  33.240   8.683
 3021AUSL   AUS 3008  36.342  32.471   6.921
 3022AUSL   AUS 3009  36.198  32.887   6.990
 3023AUL    AUL 3010  36.424  32.774   6.706
 3024THSLK    S 3011  36.448  32.431   6.668
 3025ETHY    C1 3012  36.685  32.364   6.278
 3026ETHY    C1 3013  36.978  32.383   5.804
 3027THSLK    S 3014  36.373  33.015   6.816
 3028ETHY    C1 3015  36.604  33.233   6.480
 3029ETHY    C1 3016  36.830  33.575   6.102
 3030AUSL   AUS 3017  36.096  32.319   6.827
 3031AUSL   AUS 3018  36.443  32.206   7.084
 3032AUL    AUL 3019  36.424  32.167   6.706
 3033THSLK    S 3020  36.589  32.019   6.932
 3034ETHY    C1 3021  36.873  31.765   6.670
 3035ETHY    C1 3022  37.265  31.545   6.340
 3036THSLK    S 3023  36.184  32.273   6.575
 3037ETHY    C1 3024  36.290  32.133   6.147
 3038ETHY    C1 3025  36.440  32.061   5.615
 3039AUSL   AUS 3026  36.096  32.622   6.827
 3040AUSL   AUS 3027  35.769  32.319   6.827
 3041AUL    AUL 3028  35.933  32.471   6.519
 3042THSLK    S 3029  35.669  32.273   6.579
 3043ETHY    C1 3030  35.535  32.135   6.158
 3044ETHY    C1 3031  35.392  32.063   5.624
 3045THSLK    S 3032  36.197  32.590   6.566
 3046ETHY    C1 3033  36.324  32.599   6.121
 3047ETHY    C1 3034  36.468  32.708   5.594
 3048AUSL   AUS 3035  35.524  32.471   8.081
 3049AUSL   AUS 3036  35.668  32.887   8.011
 3050AUL    AUL 3037  35.442  32.774   8.295
 3051THSLK    S 3038  35.418  32.431   8.333
 3052ETHY    C1 3039  35.181  32.364   8.723
 3053ETHY    C1 3040  34.887  32.383   9.197
 3054THSLK    S 3041  35.540  33.029   8.202
 3055ETHY    C1 3042  35.387  33.274   8.563
 3056ETHY    C1 3043  35.139  33.609   8.933
 3057AUSL   AUS 3044  35.769  32.319   8.174
 3058AUSL   AUS 3045  35.423  32.206   7.917
 3059AUL    AUL 3046  35.442  32.167   8.295
 3060THSLK    S 3047  35.242  32.038   8.043
 3061ETHY    C1 3048  34.901  31.812   8.259
 3062ETHY    C1 3049  34.525  31.584   8.602
 3063THSLK    S 3050  35.669  32.273   8.422
 3064ETHY    C1 3051  35.541  32.134   8.844
 3065ETHY    C1 3052  35.397  32.062   9.378
 3066AUSL   AUS 3053  35.524  32.471   6.921
 3067AUSL   AUS 3054  35.668  32.054   6.990
 3068AUL    AUL 3055  35.442  32.167   6.706
 3069THSLK    S 3056  35.419  32.431   6.668
 3070ETHY    C1 3057  35.175  32.364   6.281
 3071ETHY    C1 3058  34.883  32.383   5.807
 3072THSLK    S 3059  35.494  31.880   6.855
 3073ETHY    C1 3060  35.257  31.587   6.587
 3074ETHY    C1 3061  35.032  31.266   6.190
 3075AUSL   AUS 3062  35.769  32.622   6.827
 3076AUSL   AUS 3063  35.423  32.735   7.084
 3077AUL    AUL 3064  35.442  32.774   6.706
 3078THSLK    S 3065  35.277  32.870   6.894
 3079ETHY    C1 3066  34.988  33.034   6.572
 3080ETHY    C1 3067  34.597  33.279   6.259
 3081THSLK    S 3068  35.682  32.591   6.562
 3082ETHY    C1 3069  35.569  32.601   6.114
 3083ETHY    C1 3070  35.421  32.709   5.587
 3084AUSL   AUS 3071  36.513  32.880   7.501
 3085AUSL   AUS 3072  36.443  32.735   7.084
 3086AUL    AUL 3073  36.727  32.961   7.197
 3087THSLK    S 3074  36.623  32.852   6.920
 3088ETHY    C1 3075  36.964  32.985   6.638
 3089ETHY    C1 3076  37.340  33.239   6.314
 3090THSLK    S 3077  36.786  32.951   7.501
 3091ETHY    C1 3078  37.210  33.135   7.497
 3092ETHY    C1 3079  37.674  33.444   7.498
 3093AUSL   AUS 3080  36.607  32.634   7.349
 3094AUSL   AUS 3081  36.607  32.307   7.652
 3095AUL    AUL 3082  36.914  32.471   7.501
 3096THSLK    S 3083  36.874  32.689   7.341
 3097ETHY    C1 3084  37.326  32.745   7.262
 3098ETHY    C1 3085  37.851  32.910   7.172
 3099THSLK    S 3086  36.853  32.175   7.659
 3100ETHY    C1 3087  37.270  31.990   7.728
 3101ETHY    C1 3088  37.806  31.862   7.820
 3102AUSL   AUS 3089  36.607  32.634   7.652
 3103AUSL   AUS 3090  36.349  32.981   7.765
 3104AUL    AUL 3091  36.727  32.961   7.804
 3105THSLK    S 3092  36.535  33.116   7.925
 3106ETHY    C1 3093  36.851  33.384   8.128
 3107ETHY    C1 3094  37.166  33.781   8.362
 3108THSLK    S 3095  36.874  32.689   7.661
 3109ETHY    C1 3096  37.326  32.745   7.733
 3110ETHY    C1 3097  37.852  32.910   7.824
 3111AUSL   AUS 3098  35.353  32.880   7.501
 3112AUSL   AUS 3099  35.423  32.735   7.917
 3113AUL    AUL 3100  35.139  32.961   7.804
 3114THSLK    S 3101  35.276  32.870   8.107
 3115ETHY    C1 3102  34.992  33.039   8.430
 3116ETHY    C1 3103  34.600  33.284   8.743
 3117THSLK    S 3104  35.122  33.018   7.501
 3118ETHY    C1 3105  34.768  33.316   7.497
 3119ETHY    C1 3106  34.284  33.593   7.498
 3120AUSL   AUS 3107  35.259  32.634   7.349
 3121AUSL   AUS 3108  35.516  32.981   7.236
 3122AUL    AUL 3109  35.139  32.961   7.197
 3123THSLK    S 3110  35.013  32.744   7.307
 3124ETHY    C1 3111  34.595  32.889   7.173
 3125ETHY    C1 3112  34.060  33.029   7.099
 3126THSLK    S 3113  35.385  33.150   7.056
 3127ETHY    C1 3114  35.161  33.472   6.812
 3128ETHY    C1 3115  34.821  33.854   6.589
 3129AUSL   AUS 3116  35.259  32.634   7.652
 3130AUSL   AUS 3117  35.259  32.307   7.349
 3131AUL    AUL 3118  34.951  32.471   7.501
 3132THSLK    S 3119  34.992  32.229   7.377
 3133ETHY    C1 3120  34.539  32.140   7.359
 3134ETHY    C1 3121  34.014  31.985   7.252
 3135THSLK    S 3122  35.013  32.744   7.694
 3136ETHY    C1 3123  34.596  32.895   7.825
 3137ETHY    C1 3124  34.061  33.033   7.900
 3138AUSL   AUS 3125  36.513  32.062   7.501
 3139AUSL   AUS 3126  36.443  32.206   7.917
 3140AUL    AUL 3127  36.727  31.980   7.804
 3141THSLK    S 3128  36.744  31.923   7.501
 3142ETHY    C1 3129  37.098  31.625   7.497
 3143ETHY    C1 3130  37.582  31.348   7.498
 3144THSLK    S 3131  36.589  32.019   8.070
 3145ETHY    C1 3132  36.877  31.764   8.326
 3146ETHY    C1 3133  37.269  31.544   8.657
 3147AUSL   AUS 3134  36.607  32.307   7.349
 3148AUSL   AUS 3135  36.349  31.960   7.236
 3149AUL    AUL 3136  36.727  31.980   7.197
 3150THSLK    S 3137  36.853  32.175   7.343
 3151ETHY    C1 3138  37.269  31.990   7.266
 3152ETHY    C1 3139  37.805  31.862   7.176
 3153THSLK    S 3140  36.481  31.769   7.092
 3154ETHY    C1 3141  36.702  31.408   6.907
 3155ETHY    C1 3142  37.043  31.038   6.667
 3156AUSL   AUS 3143  35.353  32.062   7.501
 3157AUSL   AUS 3144  35.423  32.206   7.084
 3158AUL    AUL 3145  35.139  31.980   7.197
 3159THSLK    S 3146  35.243  32.038   6.958
 3160ETHY    C1 3147  34.897  31.818   6.743
 3161ETHY    C1 3148  34.522  31.588   6.400
 3162THSLK    S 3149  35.080  31.990   7.501
 3163ETHY    C1 3150  34.656  31.807   7.497
 3164ETHY    C1 3151  34.192  31.497   7.498
 3165AUSL   AUS 3152  35.259  32.307   7.652
 3166AUSL   AUS 3153  35.516  31.960   7.765
 3167AUL    AUL 3154  35.139  31.980   7.804
 3168THSLK    S 3155  35.330  31.803   7.889
 3169ETHY    C1 3156  35.017  31.497   8.033
 3170ETHY    C1 3157  34.702  31.110   8.284
 3171THSLK    S 3158  34.992  32.230   7.625
 3172ETHY    C1 3159  34.540  32.134   7.639
 3173ETHY    C1 3160  34.015  31.981   7.746
 3174AUSL   AUS 3161  35.933  33.051   7.910
 3175AUSL   AUS 3162  35.516  32.981   7.765
 3176AUL    AUL 3163  35.629  33.265   7.991
 3177THSLK    S 3164  35.385  33.149   7.945
 3178ETHY    C1 3165  35.164  33.477   8.185
 3179ETHY    C1 3166  34.823  33.857   8.409
 3180THSLK    S 3167  35.967  33.292   8.033
 3181ETHY    C1 3168  36.025  33.664   8.301
 3182ETHY    C1 3169  36.009  34.143   8.586
 3183AUSL   AUS 3170  35.781  33.144   7.664
 3184AUSL   AUS 3171  36.084  33.144   7.337
 3185AUL    AUL 3172  35.933  33.452   7.501
 3186THSLK    S 3173  35.812  33.404   7.770
 3187ETHY    C1 3174  35.802  33.845   7.907
 3188ETHY    C1 3175  35.693  34.374   8.048
 3189THSLK    S 3176  36.129  33.393   7.235
 3190ETHY    C1 3177  36.267  33.811   7.097
 3191ETHY    C1 3178  36.339  34.346   6.955
 3192AUSL   AUS 3179  36.084  33.144   7.664
 3193AUSL   AUS 3180  36.198  32.887   8.011
 3194AUL    AUL 3181  36.236  33.265   7.991
 3195THSLK    S 3182  36.372  33.015   8.185
 3196ETHY    C1 3183  36.608  33.234   8.517
 3197ETHY    C1 3184  36.834  33.576   8.895
 3198THSLK    S 3185  36.129  33.392   7.767
 3199ETHY    C1 3186  36.268  33.813   7.898
 3200ETHY    C1 3187  36.341  34.347   8.041
 3201AUSL   AUS 3188  35.933  31.891   7.910
 3202AUSL   AUS 3189  36.349  31.960   7.765
 3203AUL    AUL 3190  36.236  31.676   7.991
 3204THSLK    S 3191  35.899  31.627   7.997
 3205ETHY    C1 3192  35.844  31.218   8.205
 3206ETHY    C1 3193  35.859  30.750   8.507
 3207THSLK    S 3194  36.481  31.769   7.910
 3208ETHY    C1 3195  36.704  31.407   8.089
 3209ETHY    C1 3196  37.045  31.037   8.330
 3210AUSL   AUS 3197  35.781  31.797   7.664
 3211AUSL   AUS 3198  35.668  32.054   8.011
 3212AUL    AUL 3199  35.629  31.676   7.991
 3213THSLK    S 3200  35.736  31.544   7.746
 3214ETHY    C1 3201  35.599  31.113   7.843
 3215ETHY    C1 3202  35.526  30.581   7.996
 3216THSLK    S 3203  35.493  31.880   8.146
 3217ETHY    C1 3204  35.262  31.582   8.413
 3218ETHY    C1 3205  35.035  31.262   8.810
 3219AUSL   AUS 3206  36.084  31.797   7.664
 3220AUSL   AUS 3207  35.781  31.797   7.337
 3221AUL    AUL 3208  35.933  31.489   7.501
 3222THSLK    S 3209  35.736  31.544   7.255
 3223ETHY    C1 3210  35.597  31.115   7.152
 3224ETHY    C1 3211  35.525  30.583   7.001
 3225THSLK    S 3212  36.053  31.532   7.750
 3226ETHY    C1 3213  36.066  31.081   7.852
 3227ETHY    C1 3214  36.174  30.555   8.003
 3228AUSL   AUS 3215  35.933  33.051   7.092
 3229AUSL   AUS 3216  36.349  32.981   7.236
 3230AUL    AUL 3217  36.236  33.265   7.010
 3231THSLK    S 3218  35.967  33.292   6.969
 3232ETHY    C1 3219  36.022  33.661   6.696
 3233ETHY    C1 3220  36.006  34.140   6.412
 3234THSLK    S 3221  36.536  33.116   7.077
 3235ETHY    C1 3222  36.849  33.383   6.868
 3236ETHY    C1 3223  37.164  33.780   6.634
 3237AUSL   AUS 3224  35.781  33.144   7.337
 3238AUSL   AUS 3225  35.668  32.887   6.990
 3239AUL    AUL 3226  35.629  33.265   7.010
 3240THSLK    S 3227  35.812  33.405   7.232
 3241ETHY    C1 3228  35.800  33.843   7.088
 3242ETHY    C1 3229  35.692  34.372   6.948
 3243THSLK    S 3230  35.541  33.030   6.799
 3244ETHY    C1 3231  35.383  33.270   6.437
 3245ETHY    C1 3232  35.135  33.605   6.067
 3246AUSL   AUS 3233  35.933  31.891   7.092
 3247AUSL   AUS 3234  35.516  31.960   7.236
 3248AUL    AUL 3235  35.629  31.676   7.010
 3249THSLK    S 3236  35.330  31.803   7.113
 3250ETHY    C1 3237  35.014  31.501   6.964
 3251ETHY    C1 3238  34.700  31.114   6.714
 3252THSLK    S 3239  35.899  31.627   7.004
 3253ETHY    C1 3240  35.840  31.222   6.791
 3254ETHY    C1 3241  35.857  30.752   6.490
 3255AUSL   AUS 3242  36.084  31.797   7.337
 3256AUSL   AUS 3243  36.198  32.054   6.990
 3257AUL    AUL 3244  36.236  31.676   7.010
 3258THSLK    S 3245  36.054  31.531   7.252
 3259ETHY    C1 3246  36.064  31.083   7.143
 3260ETHY    C1 3247  36.172  30.556   6.993
 3261THSLK    S 3248  36.326  31.865   6.839
 3262ETHY    C1 3249  36.478  31.547   6.541
 3263ETHY    C1 3250  36.727  31.233   6.152
 3264POPC   NC3 3251  10.569  22.113   9.450
 3264POPC   PO4 3252  10.561  22.137   9.150
 3264POPC   GL1 3253  10.537  22.133   8.850
 3264POPC   GL2 3254  10.564  21.992   8.850
 3264POPC   C1A 3255  10.511  22.180   8.550
 3264POPC   D2A 3256  10.541  22.171   8.250
 3264POPC   C3A 3257  10.539  22.152   7.950
 3264POPC   C4A 3258  10.542  22.137   7.650
 3264POPC   C1B 3259  10.541  21.866   8.550
 3264POPC   C2B 3260  10.508  21.882   8.250
 3264POPC   C3B 3261  10.526  21.874   7.950
 3264POPC   C4B 3262  10.570  21.883   7.650
 3265POPC   NC3 3263  13.592  40.013   9.450
 3265POPC   PO4 3264  13.588  40.022   9.150
 3265POPC   GL1 3265  13.644  40.015   8.850
 3265POPC   GL2 3266  13.762  39.952   8.850
 3265POPC   C1A 3267  13.610  40.025   8.550
 3265POPC   D2A 3268  13.611  39.977   8.250
 3265POPC   C3A 3269  13.612  40.003   7.950
 3265POPC   C4A 3270  13.654  40.036   7.650
 3265POPC   C1B 3271  13.883  39.980   8.550
 3265POPC   C2B 3272  13.897  39.940   8.250
 3265POPC   C3B 3273  13.873  40.018   7.950
 3265POPC   C4B 3274  13.920  39.920   7.650
 3266POPC   NC3 3275  21.412  31.444   9.450
 3266POPC   PO4 3276  21.389  31.468   9.150
 3266POPC   GL1 3277  21.392  31.513   8.850
 3266POPC   GL2 3278  21.433  31.396   8.850
 3266POPC   C1A 3279  21.353  31.425   8.550
 3266POPC   D2A 3280  21.359  31.512   8.250
 3266POPC   C3A 3281  21.413  31.514   7.950
 3266POPC   C4A 3282  21.344  31.497   7.650
 3266POPC   C1B 3283  21.387  31.199   8.550
 3266POPC   C2B 3284  21.456  31.200   8.250
 3266POPC   C3B 3285  21.401  31.202   7.950
 3266POPC   C4B 3286  21.391  31.225   7.650
 3267POPC   NC3 3287  16.686  29.941   9.450
 3267POPC   PO4 3288  16.748  29.943   9.150
 3267POPC   GL1 3289  16.752  29.923   8.850
 3267POPC   GL2 3290  16.703  29.792   8.850
 3267POPC   C1A 3291  16.741  29.928   8.550
 3267POPC   D2A 3292  16.734  29.956   8.250
 3267POPC   C3A 3293  16.755  29.963   7.950
 3267POPC   C4A 3294  16.715  29.935   7.650
 3267POPC   C1B 3295  16.611  29.718   8.550
 3267POPC   C2B 3296  16.634  29.671   8.250
 3267POPC   C3B 3297  16.682  29.668   7.950
 3267POPC   C4B 3298  16.683  29.647   7.650
 3268POPC   NC3 3299  36.884  42.298   9.450
 3268POPC   PO4 3300  36.940  42.315   9.150
 3268POPC   GL1 3301  36.920  42.304   8.850
 3268POPC   GL2 3302  37.029  42.223   8.850
 3268POPC   C1A 3303  36.872  42.343   8.550
 3268POPC   D2A 3304  36.930  42.329   8.250
 3268POPC   C3A 3305  36.913  42.371   7.950
 3268POPC   C4A 3306  36.900  42.295   7.650
 3268POPC   C1B 3307  37.128  42.202   8.550
 3268POPC   C2B 3308  37.046  42.170   8.250
 3268POPC   C3B 3309  37.126  42.154   7.950
 3268POPC   C4B 3310  37.086  42.134   7.650
 3269POPC   NC3 3311  29.968  11.278   9.450
 3269POPC   PO4 3312  29.888  11.271   9.150
 3269POPC   GL1 3313  29.878  11.297   8.850
 3269POPC   GL2 3314  29.840  11.348   8.850
 3269POPC   C1A 3315  29.890  11.269   8.550
 3269POPC   D2A 3316  29.961  11.326   8.250
 3269POPC   C3A 3317  29.923  11.259   7.950
 3269POPC   C4A 3318  29.960  11.299   7.650
 3269POPC   C1B 3319  29.730  11.386   8.550
 3269POPC   C2B 3320  29.698  11.365   8.250
 3269POPC   C3B 3321  29.690  11.366   7.950
 3269POPC   C4B 3322  29.689  11.362   7.650
 3270POPC   NC3 3323  34.575   7.393   9.450
 3270POPC   PO4 3324  34.579   7.429   9.150
 3270POPC   GL1 3325  34.541   7.371   8.850
 3270POPC   GL2 3326  34.450   7.538   8.850
 3270POPC   C1A 3327  34.552   7.469   8.550
 3270POPC   D2A 3328  34.568   7.434   8.250
 3270POPC   C3A 3329  34.584   7.438   7.950
 3270POPC   C4A 3330  34.565   7.398   7.650
 3270POPC   C1B 3331  34.399   7.634   8.550
 3270POPC   C2B 3332  34.450   7.582   8.250
 3270POPC   C3B 3333  34.436   7.649   7.950
 3270POPC   C4B 3334  34.409   7.570   7.650
 3271POPC   NC3 3335  28.383  16.717   9.450
 3271POPC   PO4 3336  28.336  16.681   9.150
 3271POPC   GL1 3337  28.323  16.773   8.850
 3271POPC   GL2 3338  28.451  16.672   8.850
 3271POPC   C1A 3339  28.363  16.695   8.550
 3271POPC   D2A 3340  28.363  16.703   8.250
 3271POPC   C3A 3341  28.380  16.731   7.950
 3271POPC   C4A 3342  28.392  16.686   7.650
 3271POPC   C1B 3343  28.643  16.741   8.550
 3271POPC   C2B 3344  28.580  16.706   8.250
 3271POPC   C3B 3345  28.637  16.697   7.950
 3271POPC   C4B 3346  28.633  16.721   7.650
 3272POPC   NC3 3347   4.275  17.488   9.450
 3272POPC   PO4 3348   4.291  17.505   9.150
 3272POPC   GL1 3349   4.349  17.504   8.850
 3272POPC   GL2 3350   4.365  17.376   8.850
 3272POPC   C1A 3351   4.356  17.477   8.550
 3272POPC   D2A 3352   4.288  17.459   8.250
 3272POPC   C3A 3353   4.309  17.527   7.950
 3272POPC   C4A 3354   4.282  17.479   7.650
 3272POPC   C1B 3355   4.483  17.309   8.550
 3272POPC   C2B 3356   4.467  17.339   8.250
 3272POPC   C3B 3357   4.475  17.331   7.950
 3272POPC   C4B 3358   4.435  17.319   7.650
 3273POPC   NC3 3359  33.049   9.786   9.450
 3273POPC   PO4 3360  33.005   9.753   9.150
 3273POPC   GL1 3361  33.044   9.778   8.850
 3273POPC   GL2 3362  33.172   9.776   8.850
 3273POPC   C1A 3363  32.994   9.742   8.550
 3273POPC   D2A 3364  32.996   9.750   8.250
 3273POPC   C3A 3365  32.993   9.773   7.950
 3273POPC   C4A 3366  33.010   9.762   7.650
 3273POPC   C1B 3367  33.312   9.724   8.550
 3273POPC   C2B 3368  33.287   9.718   8.250
 3273POPC   C3B 3369  33.317   9.749   7.950
 3273POPC   C4B 3370  33.225   9.752   7.650
 3274POPC   NC3 3371  15.973  42.371   9.450
 3274POPC   PO4 3372  15.975  42.382   9.150
 3274POPC   GL1 3373  15.988  42.384   8.850
 3274POPC   GL2 3374  15.829  42.334   8.850
 3274POPC   C1A 3375  15.967  42.339   8.550
 3274POPC   D2A 3376  15.950  42.303   8.250
 3274POPC   C3A 3377  15.913  42.298   7.950
 3274POPC   C4A 3378  15.908  42.317   7.650
 3274POPC   C1B 3379  15.695  42.402   8.550
 3274POPC   C2B 3380  15.676  42.389   8.250
 3274POPC   C3B 3381  15.757  42.362   7.950
 3274POPC   C4B 3382  15.695  42.372   7.650
 3275POPC   NC3 3383  15.922  11.272   9.450
 3275POPC   PO4 3384  15.976  11.302   9.150
 3275POPC   GL1 3385  15.959  11.276   8.850
 3275POPC   GL2 3386  16.034  11.323   8.850
 3275POPC   C1A 3387  15.956  11.332   8.550
 3275POPC   D2A 3388  15.938  11.332   8.250
 3275POPC   C3A 3389  15.945  11.305   7.950
 3275POPC   C4A 3390  15.972  11.299   7.650
 3275POPC   C1B 3391  16.178  11.395   8.550
 3275POPC   C2B 3392  16.205  11.422   8.250
 3275POPC   C3B 3393  16.163  11.365   7.950
 3275POPC   C4B 3394  16.143  11.344   7.650
 3276POPC   NC3 3395  28.400  12.838   9.450
 3276POPC   PO4 3396  28.323  12.846   9.150
 3276POPC   GL1 3397  28.385  12.849   8.850
 3276POPC   GL2 3398  28.379  12.952   8.850
 3276POPC   C1A 3399  28.341  12.847   8.550
 3276POPC   D2A 3400  28.377  12.871   8.250
 3276POPC   C3A 3401  28.391  12.828   7.950
 3276POPC   C4A 3402  28.330  12.886   7.650
 3276POPC   C1B 3403  28.315  13.142   8.550
 3276POPC   C2B 3404  28.395  13.144   8.250
 3276POPC   C3B 3405  28.310  13.107   7.950
 3276POPC   C4B 3406  28.370  13.125   7.650
 3277POPC   NC3 3407  39.222  38.473   9.450
 3277POPC   PO4 3408  39.231  38.409   9.150
 3277POPC   GL1 3409  39.196  38.409   8.850
 3277POPC   GL2 3410  39.240  38.579   8.850
 3277POPC   C1A 3411  39.265  38.480   8.550
 3277POPC   D2A 3412  39.196  38.414   8.250
 3277POPC   C3A 3413  39.189  38.468   7.950
 3277POPC   C4A 3414  39.182  38.489   7.650
 3277POPC   C1B 3415  39.227  38.686   8.550
 3277POPC   C2B 3416  39.214  38.698   8.250
 3277POPC   C3B 3417  39.180  38.742   7.950
 3277POPC   C4B 3418  39.173  38.725   7.650
 3278POPC   NC3 3419  15.951  26.862   9.450
 3278POPC   PO4 3420  15.910  26.770   9.150
 3278POPC   GL1 3421  15.925  26.781   8.850
 3278POPC   GL2 3422  16.070  26.815   8.850
 3278POPC   C1A 3423  15.958  26.785   8.550
 3278POPC   D2A 3424  15.911  26.801   8.250
 3278POPC   C3A 3425  15.925  26.821   7.950
 3278POPC   C4A 3426  15.955  26.830   7.650
 3278POPC   C1B 3427  16.183  26.763   8.550
 3278POPC   C2B 3428  16.161  26.675   8.250
 3278POPC   C3B 3429  16.175  26.716   7.950
 3278POPC   C4B 3430  16.184  26.737   7.650
 3279POPC   NC3 3431  27.621  13.676   9.450
 3279POPC   PO4 3432  27.547  13.599   9.150
 3279POPC   GL1 3433  27.617  13.595   8.850
 3279POPC   GL2 3434  27.549  13.693   8.850
 3279POPC   C1A 3435  27.564  13.651   8.550
 3279POPC   D2A 3436  27.600  13.653   8.250
 3279POPC   C3A 3437  27.590  13.620   7.950
 3279POPC   C4A 3438  27.589  13.634   7.650
 3279POPC   C1B 3439  27.517  13.884   8.550
 3279POPC   C2B 3440  27.435  13.872   8.250
 3279POPC   C3B 3441  27.472  13.847   7.950
 3279POPC   C4B 3442  27.467  13.824   7.650
 3280POPC   NC3 3443  24.456  15.917   9.450
 3280POPC   PO4 3444  24.482  16.004   9.150
 3280POPC   GL1 3445  24.533  15.966   8.850
 3280POPC   GL2 3446  24.400  15.978   8.850
 3280POPC   C1A 3447  24.524  15.981   8.550
 3280POPC   D2A 3448  24.477  15.931   8.250
 3280POPC   C3A 3449  24.504  15.990   7.950
 3280POPC   C4A 3450  24.476  15.940   7.650
 3280POPC   C1B 3451  24.254  15.916   8.550
 3280POPC   C2B 3452  24.258  15.903   8.250
 3280POPC   C3B 3453  24.213  15.919   7.950
 3280POPC   C4B 3454  24.224  15.943   7.650
 3281POPC   NC3 3455  26.784  20.604   9.450
 3281POPC   PO4 3456  26.865  20.600   9.150
 3281POPC   GL1 3457  26.854  20.648   8.850
 3281POPC   GL2 3458  26.702  20.738   8.850
 3281POPC   C1A 3459  26.821  20.575   8.550
 3281POPC   D2A 3460  26.820  20.580   8.250
 3281POPC   C3A 3461  26.850  20.605   7.950
 3281POPC   C4A 3462  26.777  20.587   7.650
 3281POPC   C1B 3463  26.678  20.739   8.550
 3281POPC   C2B 3464  26.594  20.797   8.250
 3281POPC   C3B 3465  26.591  20.750   7.950
 3281POPC   C4B 3466  26.596  20.784   7.650
 3282POPC   NC3 3467   5.848   5.822   9.450
 3282POPC   PO4 3468   5.826   5.881   9.150
 3282POPC   GL1 3469   5.850   5.866   8.850
 3282POPC   GL2 3470   5.805   5.814   8.850
 3282POPC   C1A 3471   5.893   5.869   8.550
 3282POPC   D2A 3472   5.863   5.871   8.250
 3282POPC   C3A 3473   5.907   5.872   7.950
 3282POPC   C4A 3474   5.863   5.863   7.650
 3282POPC   C1B 3475   5.677   5.660   8.550
 3282POPC   C2B 3476   5.657   5.725   8.250
 3282POPC   C3B 3477   5.709   5.735   7.950
 3282POPC   C4B 3478   5.650   5.741   7.650
 3283POPC   NC3 3479  16.772  39.205   9.450
 3283POPC   PO4 3480  16.772  39.255   9.150
 3283POPC   GL1 3481  16.727  39.216   8.850
 3283POPC   GL2 3482  16.778  39.371   8.850
 3283POPC   C1A 3483  16.732  39.237   8.550
 3283POPC   D2A 3484  16.712  39.269   8.250
 3283POPC   C3A 3485  16.718  39.234   7.950
 3283POPC   C4A 3486  16.698  39.187   7.650
 3283POPC   C1B 3487  16.808  39.506   8.550
 3283POPC   C2B 3488  16.728  39.503   8.250
 3283POPC   C3B 3489  16.743  39.502   7.950
 3283POPC   C4B 3490  16.776  39.506   7.650
 3284POPC   NC3 3491  36.920  12.892   9.450
 3284POPC   PO4 3492  36.941  12.833   9.150
 3284POPC   GL1 3493  36.943  12.886   8.850
 3284POPC   GL2 3494  36.980  12.927   8.850
 3284POPC   C1A 3495  36.878  12.818   8.550
 3284POPC   D2A 3496  36.858  12.851   8.250
 3284POPC   C3A 3497  36.866  12.871   7.950
 3284POPC   C4A 3498  36.904  12.838   7.650
 3284POPC   C1B 3499  37.102  13.006   8.550
 3284POPC   C2B 3500  37.119  13.032   8.250
 3284POPC   C3B 3501  37.101  13.007   7.950
 3284POPC   C4B 3502  37.085  13.068   7.650
 3285POPC   NC3 3503  43.065  42.359   9.450
 3285POPC   PO4 3504  43.075  42.322   9.150
 3285POPC   GL1 3505  43.130  42.325   8.850
 3285POPC   GL2 3506  43.166  42.367   8.850
 3285POPC   C1A 3507  43.064  42.382   8.550
 3285POPC   D2A 3508  43.108  42.343   8.250
 3285POPC   C3A 3509  43.102  42.330   7.950
 3285POPC   C4A 3510  43.148  42.344   7.650
 3285POPC   C1B 3511  43.297  42.442   8.550
 3285POPC   C2B 3512  43.324  42.516   8.250
 3285POPC   C3B 3513  43.345  42.451   7.950
 3285POPC   C4B 3514  43.310  42.442   7.650
 3286POPC   NC3 3515  14.409  19.062   9.450
 3286POPC   PO4 3516  14.406  19.081   9.150
 3286POPC   GL1 3517  14.354  19.090   8.850
 3286POPC   GL2 3518  14.318  19.036   8.850
 3286POPC   C1A 3519  14.416  19.044   8.550
 3286POPC   D2A 3520  14.370  19.075   8.250
 3286POPC   C3A 3521  14.414  19.075   7.950
 3286POPC   C4A 3522  14.364  19.055   7.650
 3286POPC   C1B 3523  14.158  18.968   8.550
 3286POPC   C2B 3524  14.194  18.968   8.250
 3286POPC   C3B 3525  14.183  18.916   7.950
 3286POPC   C4B 3526  14.203  18.917   7.650
 3287POPC   NC3 3527   1.235  29.123   9.450
 3287POPC   PO4 3528   1.192  29.142   9.150
 3287POPC   GL1 3529   1.231  29.173   8.850
 3287POPC   GL2 3530   1.278  29.014   8.850
 3287POPC   C1A 3531   1.211  29.183   8.550
 3287POPC   D2A 3532   1.210  29.155   8.250
 3287POPC   C3A 3533   1.247  29.173   7.950
 3287POPC   C4A 3534   1.189  29.100   7.650
 3287POPC   C1B 3535   1.354  28.992   8.550
 3287POPC   C2B 3536   1.390  28.933   8.250
 3287POPC   C3B 3537   1.383  28.969   7.950
 3287POPC   C4B 3538   1.349  28.986   7.650
 3288POPC   NC3 3539   0.425  19.074   9.450
 3288POPC   PO4 3540   0.396  19.015   9.150
 3288POPC   GL1 3541   0.423  19.083   8.850
 3288POPC   GL2 3542   0.559  18.967   8.850
 3288POPC   C1A 3543   0.436  19.081   8.550
 3288POPC   D2A 3544   0.466  19.068   8.250
 3288POPC   C3A 3545   0.438  19.066   7.950
 3288POPC   C4A 3546   0.480  19.031   7.650
 3288POPC   C1B 3547   0.620  18.821   8.550
 3288POPC   C2B 3548   0.586  18.865   8.250
 3288POPC   C3B 3549   0.610  18.894   7.950
 3288POPC   C4B 3550   0.631  18.886   7.650
 3289POPC   NC3 3551  18.321  34.624   9.450
 3289POPC   PO4 3552  18.313  34.597   9.150
 3289POPC   GL1 3553  18.237  34.538   8.850
 3289POPC   GL2 3554  18.409  34.580   8.850
 3289POPC   C1A 3555  18.286  34.577   8.550
 3289POPC   D2A 3556  18.279  34.591   8.250
 3289POPC   C3A 3557  18.310  34.531   7.950
 3289POPC   C4A 3558  18.333  34.624   7.650
 3289POPC   C1B 3559  18.573  34.657   8.550
 3289POPC   C2B 3560  18.503  34.640   8.250
 3289POPC   C3B 3561  18.530  34.600   7.950
 3289POPC   C4B 3562  18.493  34.656   7.650
 3290POPC   NC3 3563  36.910   8.215   9.450
 3290POPC   PO4 3564  36.921   8.193   9.150
 3290POPC   GL1 3565  36.906   8.208   8.850
 3290POPC   GL2 3566  37.059   8.190   8.850
 3290POPC   C1A 3567  36.921   8.180   8.550
 3290POPC   D2A 3568  36.876   8.164   8.250
 3290POPC   C3A 3569  36.887   8.216   7.950
 3290POPC   C4A 3570  36.942   8.223   7.650
 3290POPC   C1B 3571  37.093   8.110   8.550
 3290POPC   C2B 3572  37.159   8.130   8.250
 3290POPC   C3B 3573  37.091   8.114   7.950
 3290POPC   C4B 3574  37.184   8.068   7.650
 3291POPC   NC3 3575  19.061  24.463   9.450
 3291POPC   PO4 3576  19.091  24.521   9.150
 3291POPC   GL1 3577  19.044  24.489   8.850
 3291POPC   GL2 3578  18.997  24.349   8.850
 3291POPC   C1A 3579  19.025  24.497   8.550
 3291POPC   D2A 3580  19.046  24.451   8.250
 3291POPC   C3A 3581  19.101  24.463   7.950
 3291POPC   C4A 3582  19.060  24.452   7.650
 3291POPC   C1B 3583  18.984  24.239   8.550
 3291POPC   C2B 3584  18.983  24.257   8.250
 3291POPC   C3B 3585  18.951  24.221   7.950
 3291POPC   C4B 3586  18.997  24.253   7.650
 3292POPC   NC3 3587  25.282  21.358   9.450
 3292POPC   PO4 3588  25.220  21.364   9.150
 3292POPC   GL1 3589  25.310  21.340   8.850
 3292POPC   GL2 3590  25.188  21.375   8.850
 3292POPC   C1A 3591  25.232  21.387   8.550
 3292POPC   D2A 3592  25.252  21.415   8.250
 3292POPC   C3A 3593  25.232  21.355   7.950
 3292POPC   C4A 3594  25.292  21.396   7.650
 3292POPC   C1B 3595  25.024  21.412   8.550
 3292POPC   C2B 3596  25.000  21.455   8.250
 3292POPC   C3B 3597  25.005  21.397   7.950
 3292POPC   C4B 3598  25.017  21.398   7.650
 3293POPC   NC3 3599  31.433  26.859   9.450
 3293POPC   PO4 3600  31.497  26.862   9.150
 3293POPC   GL1 3601  31.459  26.769   8.850
 3293POPC   GL2 3602  31.417  26.956   8.850
 3293POPC   C1A 3603  31.475  26.818   8.550
 3293POPC   D2A 3604  31.438  26.864   8.250
 3293POPC   C3A 3605  31.476  26.803   7.950
 3293POPC   C4A 3606  31.497  26.823   7.650
 3293POPC   C1B 3607  31.389  27.024   8.550
 3293POPC   C2B 3608  31.395  27.042   8.250
 3293POPC   C3B 3609  31.421  27.028   7.950
 3293POPC   C4B 3610  31.371  27.042   7.650
 3294POPC   NC3 3611  37.712  10.494   9.450
 3294POPC   PO4 3612  37.707  10.541   9.150
 3294POPC   GL1 3613  37.714  10.570   8.850
 3294POPC   GL2 3614  37.758  10.516   8.850
 3294POPC   C1A 3615  37.703  10.566   8.550
 3294POPC   D2A 3616  37.695  10.560   8.250
 3294POPC   C3A 3617  37.633  10.499   7.950
 3294POPC   C4A 3618  37.727  10.549   7.650
 3294POPC   C1B 3619  37.906  10.612   8.550
 3294POPC   C2B 3620  37.925  10.601   8.250
 3294POPC   C3B 3621  37.929  10.586   7.950
 3294POPC   C4B 3622  37.945  10.561   7.650
 3295POPC   NC3 3623  39.986  20.646   9.450
 3295POPC   PO4 3624  40.031  20.590   9.150
 3295POPC   GL1 3625  39.962  20.623   8.850
 3295POPC   GL2 3626  40.096  20.646   8.850
 3295POPC   C1A 3627  39.994  20.561   8.550
 3295POPC   D2A 3628  39.985  20.613   8.250
 3295POPC   C3A 3629  39.983  20.639   7.950
 3295POPC   C4A 3630  39.991  20.594   7.650
 3295POPC   C1B 3631  40.262  20.696   8.550
 3295POPC   C2B 3632  40.264  20.711   8.250
 3295POPC   C3B 3633  40.226  20.669   7.950
 3295POPC   C4B 3634  40.225  20.652   7.650
 3296POPC   NC3 3635  12.116  38.410   9.450
 3296POPC   PO4 3636  12.095  38.406   9.150
 3296POPC   GL1 3637  12.097  38.441   8.850
 3296POPC   GL2 3638  11.947  38.462   8.850
 3296POPC   C1A 3639  12.028  38.483   8.550
 3296POPC   D2A 3640  12.050  38.497   8.250
 3296POPC   C3A 3641  12.124  38.450   7.950
 3296POPC   C4A 3642  12.028  38.500   7.650
 3296POPC   C1B 3643  11.813  38.375   8.550
 3296POPC   C2B 3644  11.799  38.382   8.250
 3296POPC   C3B 3645  11.829  38.396   7.950
 3296POPC   C4B 3646  11.791  38.436   7.650
 3297POPC   NC3 3647  43.901  10.562   9.450
 3297POPC   PO4 3648  43.872  10.525   9.150
 3297POPC   GL1 3649  43.930  10.517   8.850
 3297POPC   GL2 3650  44.042  10.422   8.850
 3297POPC   C1A 3651  43.837  10.557   8.550
 3297POPC   D2A 3652  43.879  10.541   8.250
 3297POPC   C3A 3653  43.876  10.500   7.950
 3297POPC   C4A 3654  43.868  10.511   7.650
 3297POPC   C1B 3655  44.131  10.348   8.550
 3297POPC   C2B 3656  44.133  10.365   8.250
 3297POPC   C3B 3657  44.103  10.392   7.950
 3297POPC   C4B 3658  44.128  10.383   7.650
 3298POPC   NC3 3659   8.168   1.205   9.450
 3298POPC   PO4 3660   8.204   1.237   9.150
 3298POPC   GL1 3661   8.189   1.210   8.850
 3298POPC   GL2 3662   8.128   1.078   8.850
 3298POPC   C1A 3663   8.202   1.218   8.550
 3298POPC   D2A 3664   8.193   1.181   8.250
 3298POPC   C3A 3665   8.199   1.236   7.950
 3298POPC   C4A 3666   8.224   1.232   7.650
 3298POPC   C1B 3667   8.174   0.988   8.550
 3298POPC   C2B 3668   8.174   0.967   8.250
 3298POPC   C3B 3669   8.144   0.946   7.950
 3298POPC   C4B 3670   8.124   0.998   7.650
 3299POPC   NC3 3671  10.515  12.101   9.450
 3299POPC   PO4 3672  10.506  12.039   9.150
 3299POPC   GL1 3673  10.554  12.049   8.850
 3299POPC   GL2 3674  10.510  12.223   8.850
 3299POPC   C1A 3675  10.515  12.090   8.550
 3299POPC   D2A 3676  10.513  12.043   8.250
 3299POPC   C3A 3677  10.525  12.036   7.950
 3299POPC   C4A 3678  10.542  12.104   7.650
 3299POPC   C1B 3679  10.518  12.347   8.550
 3299POPC   C2B 3680  10.501  12.331   8.250
 3299POPC   C3B 3681  10.501  12.316   7.950
 3299POPC   C4B 3682  10.557  12.365   7.650
 3300POPC   NC3 3683   2.025  13.581   9.450
 3300POPC   PO4 3684   2.036  13.652   9.150
 3300POPC   GL1 3685   1.996  13.602   8.850
 3300POPC   GL2 3686   1.930  13.523   8.850
 3300POPC   C1A 3687   1.957  13.616   8.550
 3300POPC   D2A 3688   2.005  13.595   8.250
 3300POPC   C3A 3689   1.985  13.590   7.950
 3300POPC   C4A 3690   1.975  13.649   7.650
 3300POPC   C1B 3691   1.787  13.514   8.550
 3300POPC   C2B 3692   1.748  13.483   8.250
 3300POPC   C3B 3693   1.750  13.469   7.950
 3300POPC   C4B 3694   1.749  13.526   7.650
 3301POPC   NC3 3695  25.217  22.914   9.450
 3301POPC   PO4 3696  25.244  22.956   9.150
 3301POPC   GL1 3697  25.314  22.921   8.850
 3301POPC   GL2 3698  25.317  22.874   8.850
 3301POPC   C1A 3699  25.280  22.968   8.550
 3301POPC   D2A 3700  25.283  22.953   8.250
 3301POPC   C3A 3701  25.305  22.921   7.950
 3301POPC   C4A 3702  25.268  22.914   7.650
 3301POPC   C1B 3703  25.427  22.798   8.550
 3301POPC   C2B 3704  25.445  22.742   8.250
 3301POPC   C3B 3705  25.393  22.705   7.950
 3301POPC   C4B 3706  25.474  22.793   7.650
 3302POPC   NC3 3707  25.232  18.252   9.450
 3302POPC   PO4 3708  25.225  18.331   9.150
 3302POPC   GL1 3709  25.299  18.270   8.850
 3302POPC   GL2 3710  25.152  18.318   8.850
 3302POPC   C1A 3711  25.284  18.288   8.550
 3302POPC   D2A 3712  25.259  18.237   8.250
 3302POPC   C3A 3713  25.245  18.244   7.950
 3302POPC   C4A 3714  25.250  18.329   7.650
 3302POPC   C1B 3715  25.071  18.398   8.550
 3302POPC   C2B 3716  25.010  18.320   8.250
 3302POPC   C3B 3717  25.065  18.309   7.950
 3302POPC   C4B 3718  25.038  18.345   7.650
 3303POPC   NC3 3719  25.262  14.418   9.450
 3303POPC   PO4 3720  25.232  14.406   9.150
 3303POPC   GL1 3721  25.220  14.447   8.850
 3303POPC   GL2 3722  25.353  14.369   8.850
 3303POPC   C1A 3723  25.290  14.361   8.550
 3303POPC   D2A 3724  25.218  14.375   8.250
 3303POPC   C3A 3725  25.249  14.415   7.950
 3303POPC   C4A 3726  25.286  14.385   7.650
 3303POPC   C1B 3727  25.451  14.280   8.550
 3303POPC   C2B 3728  25.459  14.256   8.250
 3303POPC   C3B 3729  25.505  14.240   7.950
 3303POPC   C4B 3730  25.500  14.229   7.650
 3304POPC   NC3 3731   1.973  31.499   9.450
 3304POPC   PO4 3732   1.993  31.517   9.150
 3304POPC   GL1 3733   1.957  31.443   8.850
 3304POPC   GL2 3734   1.954  31.593   8.850
 3304POPC   C1A 3735   1.964  31.442   8.550
 3304POPC   D2A 3736   2.005  31.454   8.250
 3304POPC   C3A 3737   2.032  31.446   7.950
 3304POPC   C4A 3738   2.011  31.437   7.650
 3304POPC   C1B 3739   1.955  31.770   8.550
 3304POPC   C2B 3740   1.971  31.770   8.250
 3304POPC   C3B 3741   1.997  31.753   7.950
 3304POPC   C4B 3742   1.986  31.720   7.650
 3305POPC   NC3 3743  28.353  41.597   9.450
 3305POPC   PO4 3744  28.401  41.537   9.150
 3305POPC   GL1 3745  28.330  41.576   8.850
 3305POPC   GL2 3746  28.455  41.625   8.850
 3305POPC   C1A 3747  28.408  41.608   8.550
 3305POPC   D2A 3748  28.396  41.536   8.250
 3305POPC   C3A 3749  28.395  41.572   7.950
 3305POPC   C4A 3750  28.350  41.527   7.650
 3305POPC   C1B 3751  28.575  41.648   8.550
 3305POPC   C2B 3752  28.585  41.622   8.250
 3305POPC   C3B 3753  28.559  41.708   7.950
 3305POPC   C4B 3754  28.633  41.629   7.650
 3306POPC   NC3 3755  36.863  44.697   9.450
 3306POPC   PO4 3756  36.894  44.618   9.150
 3306POPC   GL1 3757  36.914  44.653   8.850
 3306POPC   GL2 3758  36.921  44.827   8.850
 3306POPC   C1A 3759  36.884  44.651   8.550
 3306POPC   D2A 3760  36.938  44.647   8.250
 3306POPC   C3A 3761  36.898  44.674   7.950
 3306POPC   C4A 3762  36.896  44.642   7.650
 3306POPC   C1B 3763  36.823  44.863   8.550
 3306POPC   C2B 3764  36.865  44.924   8.250
 3306POPC   C3B 3765  36.867  44.864   7.950
 3306POPC   C4B 3766  36.822  44.938   7.650
 3307POPC   NC3 3767  22.931  27.627   9.450
 3307POPC   PO4 3768  22.919  27.616   9.150
 3307POPC   GL1 3769  22.950  27.550   8.850
 3307POPC   GL2 3770  22.883  27.506   8.850
 3307POPC   C1A 3771  22.987  27.551   8.550
 3307POPC   D2A 3772  22.948  27.591   8.250
 3307POPC   C3A 3773  22.952  27.622   7.950
 3307POPC   C4A 3774  22.926  27.618   7.650
 3307POPC   C1B 3775  22.692  27.462   8.550
 3307POPC   C2B 3776  22.701  27.469   8.250
 3307POPC   C3B 3777  22.737  27.475   7.950
 3307POPC   C4B 3778  22.709  27.442   7.650
 3308POPC   NC3 3779  10.561  28.341   9.450
 3308POPC   PO4 3780  10.490  28.417   9.150
 3308POPC   GL1 3781  10.500  28.336   8.850
 3308POPC   GL2 3782  10.459  28.241   8.850
 3308POPC   C1A 3783  10.573  28.369   8.550
 3308POPC   D2A 3784  10.508  28.353   8.250
 3308POPC   C3A 3785  10.493  28.373   7.950
 3308POPC   C4A 3786  10.547  28.382   7.650
 3308POPC   C1B 3787  10.326  28.230   8.550
 3308POPC   C2B 3788  10.339  28.207   8.250
 3308POPC   C3B 3789  10.323  28.224   7.950
 3308POPC   C4B 3790  10.342  28.170   7.650
 3309POPC   NC3 3791  27.642  44.617   9.450
 3309POPC   PO4 3792  27.548  44.648   9.150
 3309POPC   GL1 3793  27.596  44.697   8.850
 3309POPC   GL2 3794  27.732  44.535   8.850
 3309POPC   C1A 3795  27.609  44.698   8.550
 3309POPC   D2A 3796  27.574  44.701   8.250
 3309POPC   C3A 3797  27.604  44.623   7.950
 3309POPC   C4A 3798  27.616  44.701   7.650
 3309POPC   C1B 3799  27.776  44.541   8.550
 3309POPC   C2B 3800  27.735  44.467   8.250
 3309POPC   C3B 3801  27.816  44.540   7.950
 3309POPC   C4B 3802  27.732  44.525   7.650
 3310POPC   NC3 3803  18.329   5.099   9.450
 3310POPC   PO4 3804  18.330   5.094   9.150
 3310POPC   GL1 3805  18.330   5.053   8.850
 3310POPC   GL2 3806  18.344   4.988   8.850
 3310POPC   C1A 3807  18.272   5.080   8.550
 3310POPC   D2A 3808  18.250   5.129   8.250
 3310POPC   C3A 3809  18.314   5.075   7.950
 3310POPC   C4A 3810  18.268   5.058   7.650
 3310POPC   C1B 3811  18.515   5.000   8.550
 3310POPC   C2B 3812  18.538   4.956   8.250
 3310POPC   C3B 3813  18.541   4.933   7.950
 3310POPC   C4B 3814  18.481   4.926   7.650
 3311POPC   NC3 3815  16.746  16.763   9.450
 3311POPC   PO4 3816  16.719  16.726   9.150
 3311POPC   GL1 3817  16.736  16.738   8.850
 3311POPC   GL2 3818  16.820  16.672   8.850
 3311POPC   C1A 3819  16.739  16.704   8.550
 3311POPC   D2A 3820  16.698  16.775   8.250
 3311POPC   C3A 3821  16.746  16.708   7.950
 3311POPC   C4A 3822  16.767  16.732   7.650
 3311POPC   C1B 3823  16.887  16.632   8.550
 3311POPC   C2B 3824  16.970  16.574   8.250
 3311POPC   C3B 3825  16.892  16.601   7.950
 3311POPC   C4B 3826  16.898  16.625   7.650
 3312POPC   NC3 3827  13.677  26.767   9.450
 3312POPC   PO4 3828  13.602  26.778   9.150
 3312POPC   GL1 3829  13.605  26.779   8.850
 3312POPC   GL2 3830  13.573  26.988   8.850
 3312POPC   C1A 3831  13.657  26.802   8.550
 3312POPC   D2A 3832  13.594  26.850   8.250
 3312POPC   C3A 3833  13.656  26.823   7.950
 3312POPC   C4A 3834  13.658  26.781   7.650
 3312POPC   C1B 3835  13.640  27.069   8.550
 3312POPC   C2B 3836  13.602  27.109   8.250
 3312POPC   C3B 3837  13.605  27.056   7.950
 3312POPC   C4B 3838  13.634  27.053   7.650
 3313POPC   NC3 3839  27.641  23.690   9.450
 3313POPC   PO4 3840  27.584  23.679   9.150
 3313POPC   GL1 3841  27.608  23.739   8.850
 3313POPC   GL2 3842  27.531  23.663   8.850
 3313POPC   C1A 3843  27.602  23.680   8.550
 3313POPC   D2A 3844  27.630  23.743   8.250
 3313POPC   C3A 3845  27.603  23.698   7.950
 3313POPC   C4A 3846  27.579  23.693   7.650
 3313POPC   C1B 3847  27.412  23.587   8.550
 3313POPC   C2B 3848  27.424  23.560   8.250
 3313POPC   C3B 3849  27.365  23.556   7.950
 3313POPC   C4B 3850  27.392  23.560   7.650
 3314POPC   NC3 3851  32.234  26.088   9.450
 3314POPC   PO4 3852  32.288  26.083   9.150
 3314POPC   GL1 3853  32.205  26.048   8.850
 3314POPC   GL2 3854  32.329  26.006   8.850
 3314POPC   C1A 3855  32.258  26.042   8.550
 3314POPC   D2A 3856  32.199  26.012   8.250
 3314POPC   C3A 3857  32.207  26.071   7.950
 3314POPC   C4A 3858  32.247  26.019   7.650
 3314POPC   C1B 3859  32.421  25.931   8.550
 3314POPC   C2B 3860  32.432  25.869   8.250
 3314POPC   C3B 3861  32.425  25.878   7.950
 3314POPC   C4B 3862  32.424  25.933   7.650
 3315POPC   NC3 3863   2.722  38.414   9.450
 3315POPC   PO4 3864   2.766  38.493   9.150
 3315POPC   GL1 3865   2.749  38.439   8.850
 3315POPC   GL2 3866   2.681  38.523   8.850
 3315POPC   C1A 3867   2.814  38.406   8.550
 3315POPC   D2A 3868   2.738  38.479   8.250
 3315POPC   C3A 3869   2.769  38.412   7.950
 3315POPC   C4A 3870   2.737  38.453   7.650
 3315POPC   C1B 3871   2.550  38.619   8.550
 3315POPC   C2B 3872   2.607  38.610   8.250
 3315POPC   C3B 3873   2.612  38.653   7.950
 3315POPC   C4B 3874   2.615  38.653   7.650
 3316POPC   NC3 3875  26.842  27.571   9.450
 3316POPC   PO4 3876  26.801  27.571   9.150
 3316POPC   GL1 3877  26.768  27.604   8.850
 3316POPC   GL2 3878  26.947  27.484   8.850
 3316POPC   C1A 3879  26.841  27.548   8.550
 3316POPC   D2A 3880  26.848  27.561   8.250
 3316POPC   C3A 3881  26.779  27.633   7.950
 3316POPC   C4A 3882  26.838  27.600   7.650
 3316POPC   C1B 3883  26.980  27.454   8.550
 3316POPC   C2B 3884  27.045  27.474   8.250
 3316POPC   C3B 3885  26.997  27.426   7.950
 3316POPC   C4B 3886  26.974  27.456   7.650
 3317POPC   NC3 3887  32.288  23.698   9.450
 3317POPC   PO4 3888  32.245  23.728   9.150
 3317POPC   GL1 3889  32.235  23.701   8.850
 3317POPC   GL2 3890  32.343  23.793   8.850
 3317POPC   C1A 3891  32.234  23.705   8.550
 3317POPC   D2A 3892  32.210  23.694   8.250
 3317POPC   C3A 3893  32.266  23.708   7.950
 3317POPC   C4A 3894  32.270  23.708   7.650
 3317POPC   C1B 3895  32.502  23.773   8.550
 3317POPC   C2B 3896  32.513  23.740   8.250
 3317POPC   C3B 3897  32.447  23.825   7.950
 3317POPC   C4B 3898  32.472  23.826   7.650
 3318POPC   NC3 3899  19.811   5.078   9.450
 3318POPC   PO4 3900  19.880   5.125   9.150
 3318POPC   GL1 3901  19.872   5.066   8.850
 3318POPC   GL2 3902  19.980   5.079   8.850
 3318POPC   C1A 3903  19.816   5.135   8.550
 3318POPC   D2A 3904  19.880   5.139   8.250
 3318POPC   C3A 3905  19.843   5.123   7.950
 3318POPC   C4A 3906  19.796   5.087   7.650
 3318POPC   C1B 3907  20.048   5.124   8.550
 3318POPC   C2B 3908  20.045   5.082   8.250
 3318POPC   C3B 3909  20.063   5.114   7.950
 3318POPC   C4B 3910  20.114   5.106   7.650
 3319POPC   NC3 3911  21.404  25.287   9.450
 3319POPC   PO4 3912  21.430  25.254   9.150
 3319POPC   GL1 3913  21.350  25.234   8.850
 3319POPC   GL2 3914  21.351  25.142   8.850
 3319POPC   C1A 3915  21.424  25.298   8.550
 3319POPC   D2A 3916  21.416  25.249   8.250
 3319POPC   C3A 3917  21.428  25.293   7.950
 3319POPC   C4A 3918  21.362  25.248   7.650
 3319POPC   C1B 3919  21.224  25.009   8.550
 3319POPC   C2B 3920  21.244  25.077   8.250
 3319POPC   C3B 3921  21.208  25.073   7.950
 3319POPC   C4B 3922  21.291  25.077   7.650
 3320POPC   NC3 3923  44.649  20.625   9.450
 3320POPC   PO4 3924  44.669  20.572   9.150
 3320POPC   GL1 3925  44.700  20.632   8.850
 3320POPC   GL2 3926  44.658  20.500   8.850
 3320POPC   C1A 3927  44.691  20.611   8.550
 3320POPC   D2A 3928  44.684  20.580   8.250
 3320POPC   C3A 3929  44.647  20.638   7.950
 3320POPC   C4A 3930  44.672  20.640   7.650
 3320POPC   C1B 3931  44.679  20.363   8.550
 3320POPC   C2B 3932  44.650  20.333   8.250
 3320POPC   C3B 3933  44.666  20.359   7.950
 3320POPC   C4B 3934  44.639  20.378   7.650
 3321POPC   NC3 3935   1.979  12.076   9.450
 3321POPC   PO4 3936   1.997  12.057   9.150
 3321POPC   GL1 3937   1.962  12.067   8.850
 3321POPC   GL2 3938   1.876  12.055   8.850
 3321POPC   C1A 3939   1.944  12.062   8.550
 3321POPC   D2A 3940   2.028  12.046   8.250
 3321POPC   C3A 3941   1.976  12.100   7.950
 3321POPC   C4A 3942   2.022  12.089   7.650
 3321POPC   C1B 3943   1.755  12.022   8.550
 3321POPC   C2B 3944   1.796  11.978   8.250
 3321POPC   C3B 3945   1.753  12.028   7.950
 3321POPC   C4B 3946   1.716  12.011   7.650
 3322POPC   NC3 3947  31.475  34.558   9.450
 3322POPC   PO4 3948  31.496  34.547   9.150
 3322POPC   GL1 3949  31.464  34.584   8.850
 3322POPC   GL2 3950  31.480  34.499   8.850
 3322POPC   C1A 3951  31.474  34.550   8.550
 3322POPC   D2A 3952  31.475  34.540   8.250
 3322POPC   C3A 3953  31.472  34.579   7.950
 3322POPC   C4A 3954  31.493  34.581   7.650
 3322POPC   C1B 3955  31.485  34.343   8.550
 3322POPC   C2B 3956  31.436  34.294   8.250
 3322POPC   C3B 3957  31.433  34.342   7.950
 3322POPC   C4B 3958  31.497  34.309   7.650
 3323POPC   NC3 3959  25.259  31.473   9.450
 3323POPC   PO4 3960  25.242  31.520   9.150
 3323POPC   GL1 3961  25.299  31.444   8.850
 3323POPC   GL2 3962  25.252  31.355   8.850
 3323POPC   C1A 3963  25.314  31.513   8.550
 3323POPC   D2A 3964  25.224  31.448   8.250
 3323POPC   C3A 3965  25.224  31.458   7.950
 3323POPC   C4A 3966  25.219  31.441   7.650
 3323POPC   C1B 3967  25.114  31.276   8.550
 3323POPC   C2B 3968  25.193  31.219   8.250
 3323POPC   C3B 3969  25.176  31.282   7.950
 3323POPC   C4B 3970  25.112  31.297   7.650
 3324POPC   NC3 3971   5.054  38.462   9.450
 3324POPC   PO4 3972   5.132  38.473   9.150
 3324POPC   GL1 3973   5.133  38.424   8.850
 3324POPC   GL2 3974   5.152  38.382   8.850
 3324POPC   C1A 3975   5.119  38.477   8.550
 3324POPC   D2A 3976   5.121  38.413   8.250
 3324POPC   C3A 3977   5.139  38.450   7.950
 3324POPC   C4A 3978   5.113  38.451   7.650
 3324POPC   C1B 3979   5.170  38.247   8.550
 3324POPC   C2B 3980   5.219  38.243   8.250
 3324POPC   C3B 3981   5.217  38.198   7.950
 3324POPC   C4B 3982   5.177  38.239   7.650
 3325POPC   NC3 3983  17.459  27.548   9.450
 3325POPC   PO4 3984  17.545  27.614   9.150
 3325POPC   GL1 3985  17.553  27.590   8.850
 3325POPC   GL2 3986  17.587  27.763   8.850
 3325POPC   C1A 3987  17.554  27.620   8.550
 3325POPC   D2A 3988  17.533  27.610   8.250
 3325POPC   C3A 3989  17.520  27.596   7.950
 3325POPC   C4A 3990  17.521  27.636   7.650
 3325POPC   C1B 3991  17.605  27.865   8.550
 3325POPC   C2B 3992  17.570  27.826   8.250
 3325POPC   C3B 3993  17.594  27.795   7.950
 3325POPC   C4B 3994  17.621  27.848   7.650
 3326POPC   NC3 3995  37.666   8.963   9.450
 3326POPC   PO4 3996  37.678   8.955   9.150
 3326POPC   GL1 3997  37.695   8.956   8.850
 3326POPC   GL2 3998  37.605   9.129   8.850
 3326POPC   C1A 3999  37.644   8.951   8.550
 3326POPC   D2A 4000  37.719   9.003   8.250
 3326POPC   C3A 4001  37.710   8.936   7.950
 3326POPC   C4A 4002  37.662   8.967   7.650
 3326POPC   C1B 4003  37.571   9.212   8.550
 3326POPC   C2B 4004  37.594   9.159   8.250
 3326POPC   C3B 4005  37.592   9.163   7.950
 3326POPC   C4B 4006  37.533   9.214   7.650
 3327POPC   NC3 4007   7.432  43.915   9.450
 3327POPC   PO4 4008   7.457  43.842   9.150
 3327POPC   GL1 4009   7.458  43.842   8.850
 3327POPC   GL2 4010   7.273  43.966   8.850
 3327POPC   C1A 4011   7.424  43.918   8.550
 3327POPC   D2A 4012   7.459  43.849   8.250
 3327POPC   C3A 4013   7.426  43.925   7.950
 3327POPC   C4A 4014   7.422  43.881   7.650
 3327POPC   C1B 4015   7.202  44.050   8.550
 3327POPC   C2B 4016   7.174  43.959   8.250
 3327POPC   C3B 4017   7.169  43.963   7.950
 3327POPC   C4B 4018   7.182  43.966   7.650
 3328POPC   NC3 4019  19.022  44.687   9.450
 3328POPC   PO4 4020  19.027  44.649   9.150
 3328POPC   GL1 4021  19.045  44.614   8.850
 3328POPC   GL2 4022  19.020  44.577   8.850
 3328POPC   C1A 4023  19.064  44.624   8.550
 3328POPC   D2A 4024  19.022  44.704   8.250
 3328POPC   C3A 4025  19.043  44.705   7.950
 3328POPC   C4A 4026  19.065  44.694   7.650
 3328POPC   C1B 4027  18.894  44.478   8.550
 3328POPC   C2B 4028  18.967  44.430   8.250
 3328POPC   C3B 4029  18.938  44.408   7.950
 3328POPC   C4B 4030  18.936  44.466   7.650
 3329POPC   NC3 4031   8.195  29.885   9.450
 3329POPC   PO4 4032   8.171  29.872   9.150
 3329POPC   GL1 4033   8.210  29.871   8.850
 3329POPC   GL2 4034   8.266  29.921   8.850
 3329POPC   C1A 4035   8.199  29.911   8.550
 3329POPC   D2A 4036   8.152  29.921   8.250
 3329POPC   C3A 4037   8.177  29.903   7.950
 3329POPC   C4A 4038   8.201  29.891   7.650
 3329POPC   C1B 4039   8.465  29.792   8.550
 3329POPC   C2B 4040   8.468  29.887   8.250
 3329POPC   C3B 4041   8.399  29.820   7.950
 3329POPC   C4B 4042   8.455  29.845   7.650
 3330POPC   NC3 4043  18.320   8.148   9.450
 3330POPC   PO4 4044  18.266   8.192   9.150
 3330POPC   GL1 4045  18.290   8.151   8.850
 3330POPC   GL2 4046  18.326   8.107   8.850
 3330POPC   C1A 4047  18.332   8.147   8.550
 3330POPC   D2A 4048  18.270   8.152   8.250
 3330POPC   C3A 4049  18.267   8.204   7.950
 3330POPC   C4A 4050  18.253   8.247   7.650
 3330POPC   C1B 4051  18.314   7.935   8.550
 3330POPC   C2B 4052  18.338   7.945   8.250
 3330POPC   C3B 4053  18.375   7.992   7.950
 3330POPC   C4B 4054  18.329   7.947   7.650
 3331POPC   NC3 4055  43.070  17.530   9.450
 3331POPC   PO4 4056  43.123  17.470   9.150
 3331POPC   GL1 4057  43.114  17.543   8.850
 3331POPC   GL2 4058  43.154  17.442   8.850
 3331POPC   C1A 4059  43.122  17.482   8.550
 3331POPC   D2A 4060  43.072  17.461   8.250
 3331POPC   C3A 4061  43.109  17.501   7.950
 3331POPC   C4A 4062  43.103  17.525   7.650
 3331POPC   C1B 4063  43.322  17.306   8.550
 3331POPC   C2B 4064  43.327  17.376   8.250
 3331POPC   C3B 4065  43.342  17.383   7.950
 3331POPC   C4B 4066  43.251  17.366   7.650
 3332POPC   NC3 4067  15.223  32.231   9.450
 3332POPC   PO4 4068  15.134  32.211   9.150
 3332POPC   GL1 4069  15.151  32.290   8.850
 3332POPC   GL2 4070  15.065  32.224   8.850
 3332POPC   C1A 4071  15.200  32.228   8.550
 3332POPC   D2A 4072  15.168  32.293   8.250
 3332POPC   C3A 4073  15.220  32.292   7.950
 3332POPC   C4A 4074  15.153  32.228   7.650
 3332POPC   C1B 4075  14.884  32.258   8.550
 3332POPC   C2B 4076  14.914  32.237   8.250
 3332POPC   C3B 4077  14.959  32.311   7.950
 3332POPC   C4B 4078  14.926  32.266   7.650
 3333POPC   NC3 4079  21.410   3.504   9.450
 3333POPC   PO4 4080  21.416   3.512   9.150
 3333POPC   GL1 4081  21.375   3.492   8.850
 3333POPC   GL2 4082  21.470   3.567   8.850
 3333POPC   C1A 4083  21.367   3.507   8.550
 3333POPC   D2A 4084  21.363   3.499   8.250
 3333POPC   C3A 4085  21.423   3.537   7.950
 3333POPC   C4A 4086  21.338   3.578   7.650
 3333POPC   C1B 4087  21.611   3.633   8.550
 3333POPC   C2B 4088  21.593   3.716   8.250
 3333POPC   C3B 4089  21.595   3.658   7.950
 3333POPC   C4B 4090  21.581   3.674   7.650
 3334POPC   NC3 4091  26.865   3.512   9.450
 3334POPC   PO4 4092  26.793   3.548   9.150
 3334POPC   GL1 4093  26.839   3.499   8.850
 3334POPC   GL2 4094  26.888   3.458   8.850
 3334POPC   C1A 4095  26.823   3.543   8.550
 3334POPC   D2A 4096  26.794   3.552   8.250
 3334POPC   C3A 4097  26.858   3.545   7.950
 3334POPC   C4A 4098  26.836   3.492   7.650
 3334POPC   C1B 4099  27.066   3.452   8.550
 3334POPC   C2B 4100  27.078   3.444   8.250
 3334POPC   C3B 4101  27.064   3.451   7.950
 3334POPC   C4B 4102  27.006   3.442   7.650
 3335POPC   NC3 4103  33.815  30.674   9.450
 3335POPC   PO4 4104  33.799  30.679   9.150
 3335POPC   GL1 4105  33.842  30.660   8.850
 3335POPC   GL2 4106  33.714  30.648   8.850
 3335POPC   C1A 4107  33.767  30.728   8.550
 3335POPC   D2A 4108  33.800  30.715   8.250
 3335POPC   C3A 4109  33.776  30.715   7.950
 3335POPC   C4A 4110  33.824  30.733   7.650
 3335POPC   C1B 4111  33.603  30.516   8.550
 3335POPC   C2B 4112  33.600  30.566   8.250
 3335POPC   C3B 4113  33.555  30.545   7.950
 3335POPC   C4B 4114  33.592  30.601   7.650
 3336POPC   NC3 4115  41.523  42.292   9.450
 3336POPC   PO4 4116  41.513  42.289   9.150
 3336POPC   GL1 4117  41.588  42.340   8.850
 3336POPC   GL2 4118  41.468  42.277   8.850
 3336POPC   C1A 4119  41.591  42.301   8.550
 3336POPC   D2A 4120  41.597  42.323   8.250
 3336POPC   C3A 4121  41.607  42.294   7.950
 3336POPC   C4A 4122  41.536  42.343   7.650
 3336POPC   C1B 4123  41.358  42.118   8.550
 3336POPC   C2B 4124  41.408  42.172   8.250
 3336POPC   C3B 4125  41.356  42.146   7.950
 3336POPC   C4B 4126  41.332  42.199   7.650
 3337POPC   NC3 4127  29.966  16.691   9.450
 3337POPC   PO4 4128  29.943  16.716   9.150
 3337POPC   GL1 4129  29.873  16.739   8.850
 3337POPC   GL2 4130  29.932  16.818   8.850
 3337POPC   C1A 4131  29.959  16.710   8.550
 3337POPC   D2A 4132  29.937  16.778   8.250
 3337POPC   C3A 4133  29.886  16.771   7.950
 3337POPC   C4A 4134  29.902  16.768   7.650
 3337POPC   C1B 4135  29.989  16.999   8.550
 3337POPC   C2B 4136  30.063  16.930   8.250
 3337POPC   C3B 4137  30.042  16.998   7.950
 3337POPC   C4B 4138  29.995  16.988   7.650
 3338POPC   NC3 4139  34.599  10.533   9.450
 3338POPC   PO4 4140  34.614  10.479   9.150
 3338POPC   GL1 4141  34.571  10.487   8.850
 3338POPC   GL2 4142  34.539  10.391   8.850
 3338POPC   C1A 4143  34.562  10.481   8.550
 3338POPC   D2A 4144  34.533  10.555   8.250
 3338POPC   C3A 4145  34.580  10.540   7.950
 3338POPC   C4A 4146  34.582  10.547   7.650
 3338POPC   C1B 4147  34.596  10.224   8.550
 3338POPC   C2B 4148  34.602  10.302   8.250
 3338POPC   C3B 4149  34.517  10.300   7.950
 3338POPC   C4B 4150  34.560  10.238   7.650
 3339POPC   NC3 4151   8.232  15.200   9.450
 3339POPC   PO4 4152   8.149  15.152   9.150
 3339POPC   GL1 4153   8.185  15.210   8.850
 3339POPC   GL2 4154   8.207  15.020   8.850
 3339POPC   C1A 4155   8.213  15.172   8.550
 3339POPC   D2A 4156   8.198  15.137   8.250
 3339POPC   C3A 4157   8.192  15.221   7.950
 3339POPC   C4A 4158   8.198  15.220   7.650
 3339POPC   C1B 4159   8.264  14.969   8.550
 3339POPC   C2B 4160   8.238  14.981   8.250
 3339POPC   C3B 4161   8.254  14.891   7.950
 3339POPC   C4B 4162   8.203  14.886   7.650
 3340POPC   NC3 4163  43.074  24.521   9.450
 3340POPC   PO4 4164  43.085  24.487   9.150
 3340POPC   GL1 4165  43.115  24.483   8.850
 3340POPC   GL2 4166  43.184  24.411   8.850
 3340POPC   C1A 4167  43.130  24.463   8.550
 3340POPC   D2A 4168  43.126  24.522   8.250
 3340POPC   C3A 4169  43.152  24.526   7.950
 3340POPC   C4A 4170  43.093  24.450   7.650
 3340POPC   C1B 4171  43.306  24.324   8.550
 3340POPC   C2B 4172  43.304  24.335   8.250
 3340POPC   C3B 4173  43.310  24.325   7.950
 3340POPC   C4B 4174  43.239  24.331   7.650
 3341POPC   NC3 4175   1.943   1.220   9.450
 3341POPC   PO4 4176   1.946   1.206   9.150
 3341POPC   GL1 4177   2.004   1.191   8.850
 3341POPC   GL2 4178   2.088   1.291   8.850
 3341POPC   C1A 4179   1.988   1.235   8.550
 3341POPC   D2A 4180   1.946   1.215   8.250
 3341POPC   C3A 4181   2.026   1.167   7.950
 3341POPC   C4A 4182   1.975   1.228   7.650
 3341POPC   C1B 4183   2.141   1.430   8.550
 3341POPC   C2B 4184   2.146   1.473   8.250
 3341POPC   C3B 4185   2.097   1.378   7.950
 3341POPC   C4B 4186   2.112   1.383   7.650
 3342POPC   NC3 4187  10.540  25.308   9.450
 3342POPC   PO4 4188  10.542  25.273   9.150
 3342POPC   GL1 4189  10.519  25.236   8.850
 3342POPC   GL2 4190  10.389  25.135   8.850
 3342POPC   C1A 4191  10.554  25.228   8.550
 3342POPC   D2A 4192  10.498  25.292   8.250
 3342POPC   C3A 4193  10.545  25.297   7.950
 3342POPC   C4A 4194  10.522  25.222   7.650
 3342POPC   C1B 4195  10.364  25.040   8.550
 3342POPC   C2B 4196  10.332  25.073   8.250
 3342POPC   C3B 4197  10.320  25.127   7.950
 3342POPC   C4B 4198  10.307  25.132   7.650
 3343POPC   NC3 4199  43.924  43.906   9.450
 3343POPC   PO4 4200  43.911  43.905   9.150
 3343POPC   GL1 4201  43.936  43.925   8.850
 3343POPC   GL2 4202  43.809  43.887   8.850
 3343POPC   C1A 4203  43.866  43.910   8.550
 3343POPC   D2A 4204  43.899  43.901   8.250
 3343POPC   C3A 4205  43.838  43.933   7.950
 3343POPC   C4A 4206  43.847  43.880   7.650
 3343POPC   C1B 4207  43.672  43.911   8.550
 3343POPC   C2B 4208  43.677  43.904   8.250
 3343POPC   C3B 4209  43.629  43.912   7.950
 3343POPC   C4B 4210  43.599  43.894   7.650
 3344POPC   NC3 4211  12.112  27.566   9.450
 3344POPC   PO4 4212  12.101  27.621   9.150
 3344POPC   GL1 4213  12.073  27.599   8.850
 3344POPC   GL2 4214  12.124  27.476   8.850
 3344POPC   C1A 4215  12.100  27.570   8.550
 3344POPC   D2A 4216  12.062  27.546   8.250
 3344POPC   C3A 4217  12.042  27.614   7.950
 3344POPC   C4A 4218  12.087  27.639   7.650
 3344POPC   C1B 4219  12.284  27.432   8.550
 3344POPC   C2B 4220  12.221  27.467   8.250
 3344POPC   C3B 4221  12.230  27.457   7.950
 3344POPC   C4B 4222  12.286  27.415   7.650
 3345POPC   NC3 4223  38.414  25.233   9.450
 3345POPC   PO4 4224  38.419  25.288   9.150
 3345POPC   GL1 4225  38.467  25.283   8.850
 3345POPC   GL2 4226  38.327  25.220   8.850
 3345POPC   C1A 4227  38.496  25.271   8.550
 3345POPC   D2A 4228  38.496  25.216   8.250
 3345POPC   C3A 4229  38.495  25.312   7.950
 3345POPC   C4A 4230  38.434  25.221   7.650
 3345POPC   C1B 4231  38.252  25.241   8.550
 3345POPC   C2B 4232  38.173  25.197   8.250
 3345POPC   C3B 4233  38.177  25.225   7.950
 3345POPC   C4B 4234  38.240  25.192   7.650
 3346POPC   NC3 4235  29.161   5.827   9.450
 3346POPC   PO4 4236  29.127   5.891   9.150
 3346POPC   GL1 4237  29.135   5.864   8.850
 3346POPC   GL2 4238  29.191   5.724   8.850
 3346POPC   C1A 4239  29.174   5.853   8.550
 3346POPC   D2A 4240  29.132   5.819   8.250
 3346POPC   C3A 4241  29.172   5.916   7.950
 3346POPC   C4A 4242  29.103   5.820   7.650
 3346POPC   C1B 4243  29.214   5.677   8.550
 3346POPC   C2B 4244  29.228   5.664   8.250
 3346POPC   C3B 4245  29.287   5.682   7.950
 3346POPC   C4B 4246  29.233   5.668   7.650
 3347POPC   NC3 4247  32.204   0.393   9.450
 3347POPC   PO4 4248  32.278   0.430   9.150
 3347POPC   GL1 4249  32.234   0.447   8.850
 3347POPC   GL2 4250  32.336   0.492   8.850
 3347POPC   C1A 4251  32.240   0.403   8.550
 3347POPC   D2A 4252  32.208   0.403   8.250
 3347POPC   C3A 4253  32.240   0.432   7.950
 3347POPC   C4A 4254  32.255   0.454   7.650
 3347POPC   C1B 4255  32.501   0.536   8.550
 3347POPC   C2B 4256  32.486   0.499   8.250
 3347POPC   C3B 4257  32.427   0.559   7.950
 3347POPC   C4B 4258  32.495   0.551   7.650
 3348POPC   NC3 4259   5.820  43.121   9.450
 3348POPC   PO4 4260   5.884  43.119   9.150
 3348POPC   GL1 4261   5.834  43.106   8.850
 3348POPC   GL2 4262   5.968  43.063   8.850
 3348POPC   C1A 4263   5.917  43.093   8.550
 3348POPC   D2A 4264   5.871  43.152   8.250
 3348POPC   C3A 4265   5.900  43.119   7.950
 3348POPC   C4A 4266   5.904  43.092   7.650
 3348POPC   C1B 4267   6.092  42.988   8.550
 3348POPC   C2B 4268   6.061  42.991   8.250
 3348POPC   C3B 4269   6.109  43.019   7.950
 3348POPC   C4B 4270   6.071  42.984   7.650
 3349POPC   NC3 4271   3.585  24.509   9.450
 3349POPC   PO4 4272   3.496  24.522   9.150
 3349POPC   GL1 4273   3.500  24.440   8.850
 3349POPC   GL2 4274   3.418  24.461   8.850
 3349POPC   C1A 4275   3.557  24.481   8.550
 3349POPC   D2A 4276   3.535  24.506   8.250
 3349POPC   C3A 4277   3.501  24.510   7.950
 3349POPC   C4A 4278   3.589  24.489   7.650
 3349POPC   C1B 4279   3.315  24.366   8.550
 3349POPC   C2B 4280   3.320  24.314   8.250
 3349POPC   C3B 4281   3.292  24.335   7.950
 3349POPC   C4B 4282   3.333  24.383   7.650
 3350POPC   NC3 4283  18.293   9.793   9.450
 3350POPC   PO4 4284  18.263   9.732   9.150
 3350POPC   GL1 4285  18.258   9.715   8.850
 3350POPC   GL2 4286  18.341   9.704   8.850
 3350POPC   C1A 4287  18.292   9.774   8.550
 3350POPC   D2A 4288  18.268   9.722   8.250
 3350POPC   C3A 4289  18.324   9.718   7.950
 3350POPC   C4A 4290  18.252   9.708   7.650
 3350POPC   C1B 4291  18.442   9.573   8.550
 3350POPC   C2B 4292  18.529   9.556   8.250
 3350POPC   C3B 4293  18.462   9.601   7.950
 3350POPC   C4B 4294  18.438   9.636   7.650
 3351POPC   NC3 4295   1.946   5.085   9.450
 3351POPC   PO4 4296   2.004   5.131   9.150
 3351POPC   GL1 4297   1.945   5.048   8.850
 3351POPC   GL2 4298   1.868   5.110   8.850
 3351POPC   C1A 4299   2.010   5.077   8.550
 3351POPC   D2A 4300   2.020   5.087   8.250
 3351POPC   C3A 4301   2.026   5.111   7.950
 3351POPC   C4A 4302   2.026   5.104   7.650
 3351POPC   C1B 4303   1.788   5.174   8.550
 3351POPC   C2B 4304   1.763   5.223   8.250
 3351POPC   C3B 4305   1.760   5.171   7.950
 3351POPC   C4B 4306   1.741   5.224   7.650
 3352POPC   NC3 4307  37.632   9.735   9.450
 3352POPC   PO4 4308  37.676   9.701   9.150
 3352POPC   GL1 4309  37.661   9.791   8.850
 3352POPC   GL2 4310  37.570   9.702   8.850
 3352POPC   C1A 4311  37.668   9.719   8.550
 3352POPC   D2A 4312  37.705   9.750   8.250
 3352POPC   C3A 4313  37.708   9.750   7.950
 3352POPC   C4A 4314  37.676   9.724   7.650
 3352POPC   C1B 4315  37.455   9.704   8.550
 3352POPC   C2B 4316  37.458   9.679   8.250
 3352POPC   C3B 4317  37.431   9.685   7.950
 3352POPC   C4B 4318  37.457   9.696   7.650
 3353POPC   NC3 4319   2.777  35.343   9.450
 3353POPC   PO4 4320   2.781  35.348   9.150
 3353POPC   GL1 4321   2.798  35.354   8.850
 3353POPC   GL2 4322   2.750  35.500   8.850
 3353POPC   C1A 4323   2.724  35.373   8.550
 3353POPC   D2A 4324   2.765  35.326   8.250
 3353POPC   C3A 4325   2.810  35.363   7.950
 3353POPC   C4A 4326   2.727  35.352   7.650
 3353POPC   C1B 4327   2.632  35.579   8.550
 3353POPC   C2B 4328   2.646  35.613   8.250
 3353POPC   C3B 4329   2.681  35.600   7.950
 3353POPC   C4B 4330   2.627  35.613   7.650
 3354POPC   NC3 4331  43.144  44.647   9.450
 3354POPC   PO4 4332  43.096  44.669   9.150
 3354POPC   GL1 4333  43.089  44.678   8.850
 3354POPC   GL2 4334  42.989  44.722   8.850
 3354POPC   C1A 4335  43.123  44.613   8.550
 3354POPC   D2A 4336  43.120  44.623   8.250
 3354POPC   C3A 4337  43.159  44.623   7.950
 3354POPC   C4A 4338  43.142  44.657   7.650
 3354POPC   C1B 4339  42.989  44.834   8.550
 3354POPC   C2B 4340  42.959  44.819   8.250
 3354POPC   C3B 4341  42.925  44.905   7.950
 3354POPC   C4B 4342  42.912  44.877   7.650
 3355POPC   NC3 4343  36.114  25.291   9.450
 3355POPC   PO4 4344  36.109  25.292   9.150
 3355POPC   GL1 4345  36.163  25.249   8.850
 3355POPC   GL2 4346  36.061  25.134   8.850
 3355POPC   C1A 4347  36.083  25.296   8.550
 3355POPC   D2A 4348  36.125  25.248   8.250
 3355POPC   C3A 4349  36.165  25.261   7.950
 3355POPC   C4A 4350  36.166  25.224   7.650
 3355POPC   C1B 4351  35.980  25.027   8.550
 3355POPC   C2B 4352  36.043  25.085   8.250
 3355POPC   C3B 4353  36.067  24.994   7.950
 3355POPC   C4B 4354  36.056  25.022   7.650
 3356POPC   NC3 4355  12.111  32.235   9.450
 3356POPC   PO4 4356  12.102  32.202   9.150
 3356POPC   GL1 4357  12.122  32.239   8.850
 3356POPC   GL2 4358  11.948  32.131   8.850
 3356POPC   C1A 4359  12.070  32.284   8.550
 3356POPC   D2A 4360  12.109  32.247   8.250
 3356POPC   C3A 4361  12.074  32.241   7.950
 3356POPC   C4A 4362  12.079  32.238   7.650
 3356POPC   C1B 4363  11.842  32.078   8.550
 3356POPC   C2B 4364  11.847  32.119   8.250
 3356POPC   C3B 4365  11.861  32.110   7.950
 3356POPC   C4B 4366  11.822  32.123   7.650
 3357POPC   NC3 4367  13.587   5.057   9.450
 3357POPC   PO4 4368  13.659   5.048   9.150
 3357POPC   GL1 4369  13.656   5.078   8.850
 3357POPC   GL2 4370  13.547   4.952   8.850
 3357POPC   C1A 4371  13.669   5.059   8.550
 3357POPC   D2A 4372  13.586   5.111   8.250
 3357POPC   C3A 4373  13.620   5.120   7.950
 3357POPC   C4A 4374  13.628   5.127   7.650
 3357POPC   C1B 4375  13.457   4.900   8.550
 3357POPC   C2B 4376  13.477   4.928   8.250
 3357POPC   C3B 4377  13.455   4.921   7.950
 3357POPC   C4B 4378  13.496   4.950   7.650
 3358POPC   NC3 4379   2.763   7.453   9.450
 3358POPC   PO4 4380   2.796   7.423   9.150
 3358POPC   GL1 4381   2.728   7.467   8.850
 3358POPC   GL2 4382   2.763   7.345   8.850
 3358POPC   C1A 4383   2.716   7.438   8.550
 3358POPC   D2A 4384   2.806   7.440   8.250
 3358POPC   C3A 4385   2.717   7.461   7.950
 3358POPC   C4A 4386   2.811   7.398   7.650
 3358POPC   C1B 4387   2.761   7.163   8.550
 3358POPC   C2B 4388   2.771   7.134   8.250
 3358POPC   C3B 4389   2.760   7.129   7.950
 3358POPC   C4B 4390   2.775   7.134   7.650
 3359POPC   NC3 4391  36.876  19.017   9.450
 3359POPC   PO4 4392  36.932  19.102   9.150
 3359POPC   GL1 4393  36.893  19.057   8.850
 3359POPC   GL2 4394  36.933  19.218   8.850
 3359POPC   C1A 4395  36.888  19.074   8.550
 3359POPC   D2A 4396  36.878  19.037   8.250
 3359POPC   C3A 4397  36.928  19.046   7.950
 3359POPC   C4A 4398  36.883  19.011   7.650
 3359POPC   C1B 4399  36.996  19.271   8.550
 3359POPC   C2B 4400  37.010  19.266   8.250
 3359POPC   C3B 4401  37.054  19.287   7.950
 3359POPC   C4B 4402  36.971  19.317   7.650
 3360POPC   NC3 4403  41.538  40.828   9.450
 3360POPC   PO4 4404  41.553  40.833   9.150
 3360POPC   GL1 4405  41.575  40.754   8.850
 3360POPC   GL2 4406  41.482  40.759   8.850
 3360POPC   C1A 4407  41.556  40.772   8.550
 3360POPC   D2A 4408  41.511  40.810   8.250
 3360POPC   C3A 4409  41.577  40.768   7.950
 3360POPC   C4A 4410  41.555  40.818   7.650
 3360POPC   C1B 4411  41.328  40.648   8.550
 3360POPC   C2B 4412  41.357  40.696   8.250
 3360POPC   C3B 4413  41.292  40.652   7.950
 3360POPC   C4B 4414  41.311  40.635   7.650
 3361POPC   NC3 4415   8.984  26.825   9.450
 3361POPC   PO4 4416   8.970  26.827   9.150
 3361POPC   GL1 4417   8.944  26.788   8.850
 3361POPC   GL2 4418   8.911  26.716   8.850
 3361POPC   C1A 4419   9.015  26.819   8.550
 3361POPC   D2A 4420   9.016  26.787   8.250
 3361POPC   C3A 4421   8.975  26.851   7.950
 3361POPC   C4A 4422   8.996  26.808   7.650
 3361POPC   C1B 4423   8.869  26.649   8.550
 3361POPC   C2B 4424   8.831  26.614   8.250
 3361POPC   C3B 4425   8.866  26.606   7.950
 3361POPC   C4B 4426   8.887  26.612   7.650
 3362POPC   NC3 4427  37.720  11.306   9.450
 3362POPC   PO4 4428  37.692  11.290   9.150
 3362POPC   GL1 4429  37.674  11.276   8.850
 3362POPC   GL2 4430  37.710  11.189   8.850
 3362POPC   C1A 4431  37.705  11.336   8.550
 3362POPC   D2A 4432  37.685  11.254   8.250
 3362POPC   C3A 4433  37.639  11.259   7.950
 3362POPC   C4A 4434  37.705  11.329   7.650
 3362POPC   C1B 4435  37.748  11.037   8.550
 3362POPC   C2B 4436  37.704  11.072   8.250
 3362POPC   C3B 4437  37.774  11.068   7.950
 3362POPC   C4B 4438  37.740  11.054   7.650
 3363POPC   NC3 4439  44.684  36.125   9.450
 3363POPC   PO4 4440  44.659  36.115   9.150
 3363POPC   GL1 4441  44.614  36.155   8.850
 3363POPC   GL2 4442  44.702  36.172   8.850
 3363POPC   C1A 4443  44.689  36.152   8.550
 3363POPC   D2A 4444  44.682  36.099   8.250
 3363POPC   C3A 4445  44.667  36.113   7.950
 3363POPC   C4A 4446  44.675  36.126   7.650
 3363POPC   C1B 4447  44.851  36.361   8.550
 3363POPC   C2B 4448  44.820  36.314   8.250
 3363POPC   C3B 4449  44.783  36.351   7.950
 3363POPC   C4B 4450  44.843  36.303   7.650
 3364POPC   NC3 4451  28.398  31.520   9.450
 3364POPC   PO4 4452  28.343  31.514   9.150
 3364POPC   GL1 4453  28.331  31.500   8.850
 3364POPC   GL2 4454  28.290  31.584   8.850
 3364POPC   C1A 4455  28.411  31.441   8.550
 3364POPC   D2A 4456  28.402  31.449   8.250
 3364POPC   C3A 4457  28.371  31.485   7.950
 3364POPC   C4A 4458  28.390  31.484   7.650
 3364POPC   C1B 4459  28.263  31.726   8.550
 3364POPC   C2B 4460  28.286  31.663   8.250
 3364POPC   C3B 4461  28.318  31.669   7.950
 3364POPC   C4B 4462  28.264  31.658   7.650
 3365POPC   NC3 4463  29.925  22.940   9.450
 3365POPC   PO4 4464  29.897  22.979   9.150
 3365POPC   GL1 4465  29.913  22.892   8.850
 3365POPC   GL2 4466  29.960  22.777   8.850
 3365POPC   C1A 4467  29.936  22.980   8.550
 3365POPC   D2A 4468  29.923  22.954   8.250
 3365POPC   C3A 4469  29.898  22.959   7.950
 3365POPC   C4A 4470  29.877  22.909   7.650
 3365POPC   C1B 4471  29.911  22.685   8.550
 3365POPC   C2B 4472  29.971  22.670   8.250
 3365POPC   C3B 4473  29.923  22.712   7.950
 3365POPC   C4B 4474  29.912  22.665   7.650
 3366POPC   NC3 4475  39.231  41.552   9.450
 3366POPC   PO4 4476  39.233  41.565   9.150
 3366POPC   GL1 4477  39.204  41.538   8.850
 3366POPC   GL2 4478  39.268  41.660   8.850
 3366POPC   C1A 4479  39.203  41.543   8.550
 3366POPC   D2A 4480  39.239  41.517   8.250
 3366POPC   C3A 4481  39.237  41.604   7.950
 3366POPC   C4A 4482  39.184  41.597   7.650
 3366POPC   C1B 4483  39.261  41.855   8.550
 3366POPC   C2B 4484  39.194  41.784   8.250
 3366POPC   C3B 4485  39.232  41.839   7.950
 3366POPC   C4B 4486  39.228  41.792   7.650
 3367POPC   NC3 4487  26.863  25.271   9.450
 3367POPC   PO4 4488  26.866  25.262   9.150
 3367POPC   GL1 4489  26.817  25.276   8.850
 3367POPC   GL2 4490  26.717  25.143   8.850
 3367POPC   C1A 4491  26.785  25.242   8.550
 3367POPC   D2A 4492  26.792  25.241   8.250
 3367POPC   C3A 4493  26.837  25.285   7.950
 3367POPC   C4A 4494  26.843  25.311   7.650
 3367POPC   C1B 4495  26.685  25.061   8.550
 3367POPC   C2B 4496  26.664  25.070   8.250
 3367POPC   C3B 4497  26.628  25.102   7.950
 3367POPC   C4B 4498  26.626  25.055   7.650
 3368POPC   NC3 4499   7.395  22.116   9.450
 3368POPC   PO4 4500   7.390  22.119   9.150
 3368POPC   GL1 4501   7.377  22.206   8.850
 3368POPC   GL2 4502   7.374  22.321   8.850
 3368POPC   C1A 4503   7.385  22.161   8.550
 3368POPC   D2A 4504   7.456  22.157   8.250
 3368POPC   C3A 4505   7.468  22.158   7.950
 3368POPC   C4A 4506   7.375  22.121   7.650
 3368POPC   C1B 4507   7.433  22.401   8.550
 3368POPC   C2B 4508   7.441  22.456   8.250
 3368POPC   C3B 4509   7.434  22.442   7.950
 3368POPC   C4B 4510   7.389  22.445   7.650
 3369POPC   NC3 4511  12.110  43.127   9.450
 3369POPC   PO4 4512  12.051  43.159   9.150
 3369POPC   GL1 4513  12.068  43.114   8.850
 3369POPC   GL2 4514  12.043  43.246   8.850
 3369POPC   C1A 4515  12.043  43.095   8.550
 3369POPC   D2A 4516  12.117  43.150   8.250
 3369POPC   C3A 4517  12.070  43.075   7.950
 3369POPC   C4A 4518  12.075  43.063   7.650
 3369POPC   C1B 4519  11.906  43.289   8.550
 3369POPC   C2B 4520  11.958  43.346   8.250
 3369POPC   C3B 4521  11.978  43.270   7.950
 3369POPC   C4B 4522  11.945  43.304   7.650
 3370POPC   NC3 4523  22.916  20.595   9.450
 3370POPC   PO4 4524  22.922  20.601   9.150
 3370POPC   GL1 4525  22.927  20.620   8.850
 3370POPC   GL2 4526  22.792  20.551   8.850
 3370POPC   C1A 4527  22.900  20.631   8.550
 3370POPC   D2A 4528  22.941  20.599   8.250
 3370POPC   C3A 4529  22.950  20.601   7.950
 3370POPC   C4A 4530  22.915  20.637   7.650
 3370POPC   C1B 4531  22.727  20.602   8.550
 3370POPC   C2B 4532  22.709  20.618   8.250
 3370POPC   C3B 4533  22.657  20.548   7.950
 3370POPC   C4B 4534  22.694  20.605   7.650
 3371POPC   NC3 4535  33.772  16.722   9.450
 3371POPC   PO4 4536  33.756  16.722   9.150
 3371POPC   GL1 4537  33.827  16.731   8.850
 3371POPC   GL2 4538  33.735  16.864   8.850
 3371POPC   C1A 4539  33.799  16.689   8.550
 3371POPC   D2A 4540  33.799  16.694   8.250
 3371POPC   C3A 4541  33.768  16.774   7.950
 3371POPC   C4A 4542  33.841  16.686   7.650
 3371POPC   C1B 4543  33.802  17.018   8.550
 3371POPC   C2B 4544  33.752  16.957   8.250
 3371POPC   C3B 4545  33.768  16.976   7.950
 3371POPC   C4B 4546  33.731  16.973   7.650
 3372POPC   NC3 4547  17.503  12.114   9.450
 3372POPC   PO4 4548  17.469  12.037   9.150
 3372POPC   GL1 4549  17.536  12.073   8.850
 3372POPC   GL2 4550  17.555  12.126   8.850
 3372POPC   C1A 4551  17.522  12.042   8.550
 3372POPC   D2A 4552  17.547  12.085   8.250
 3372POPC   C3A 4553  17.519  12.031   7.950
 3372POPC   C4A 4554  17.538  12.030   7.650
 3372POPC   C1B 4555  17.723  12.190   8.550
 3372POPC   C2B 4556  17.651  12.278   8.250
 3372POPC   C3B 4557  17.693  12.245   7.950
 3372POPC   C4B 4558  17.671  12.273   7.650
 3373POPC   NC3 4559  26.797  13.596   9.450
 3373POPC   PO4 4560  26.862  13.676   9.150
 3373POPC   GL1 4561  26.819  13.614   8.850
 3373POPC   GL2 4562  26.953  13.707   8.850
 3373POPC   C1A 4563  26.851  13.599   8.550
 3373POPC   D2A 4564  26.833  13.663   8.250
 3373POPC   C3A 4565  26.833  13.665   7.950
 3373POPC   C4A 4566  26.864  13.612   7.650
 3373POPC   C1B 4567  27.015  13.698   8.550
 3373POPC   C2B 4568  27.042  13.695   8.250
 3373POPC   C3B 4569  27.014  13.704   7.950
 3373POPC   C4B 4570  26.996  13.743   7.650
 3374POPC   NC3 4571  40.027  33.793   9.450
 3374POPC   PO4 4572  40.031  33.793   9.150
 3374POPC   GL1 4573  40.009  33.785   8.850
 3374POPC   GL2 4574  40.117  33.750   8.850
 3374POPC   C1A 4575  39.996  33.826   8.550
 3374POPC   D2A 4576  40.049  33.765   8.250
 3374POPC   C3A 4577  39.999  33.779   7.950
 3374POPC   C4A 4578  39.981  33.768   7.650
 3374POPC   C1B 4579  40.271  33.814   8.550
 3374POPC   C2B 4580  40.270  33.770   8.250
 3374POPC   C3B 4581  40.300  33.745   7.950
 3374POPC   C4B 4582  40.214  33.753   7.650
 3375POPC   NC3 4583   1.949   6.619   9.450
 3375POPC   PO4 4584   2.023   6.687   9.150
 3375POPC   GL1 4585   2.039   6.634   8.850
 3375POPC   GL2 4586   2.098   6.510   8.850
 3375POPC   C1A 4587   1.985   6.656   8.550
 3375POPC   D2A 4588   2.019   6.602   8.250
 3375POPC   C3A 4589   2.029   6.617   7.950
 3375POPC   C4A 4590   1.974   6.666   7.650
 3375POPC   C1B 4591   2.182   6.436   8.550
 3375POPC   C2B 4592   2.166   6.443   8.250
 3375POPC   C3B 4593   2.160   6.473   7.950
 3375POPC   C4B 4594   2.156   6.461   7.650
 3376POPC   NC3 4595  29.946  35.347   9.450
 3376POPC   PO4 4596  29.901  35.309   9.150
 3376POPC   GL1 4597  29.904  35.380   8.850
 3376POPC   GL2 4598  29.981  35.463   8.850
 3376POPC   C1A 4599  29.891  35.323   8.550
 3376POPC   D2A 4600  29.897  35.383   8.250
 3376POPC   C3A 4601  29.962  35.339   7.950
 3376POPC   C4A 4602  29.908  35.328   7.650
 3376POPC   C1B 4603  30.088  35.463   8.550
 3376POPC   C2B 4604  30.140  35.493   8.250
 3376POPC   C3B 4605  30.101  35.535   7.950
 3376POPC   C4B 4606  30.104  35.476   7.650
 3377POPC   NC3 4607  40.794  36.914   9.450
 3377POPC   PO4 4608  40.781  36.855   9.150
 3377POPC   GL1 4609  40.782  36.884   8.850
 3377POPC   GL2 4610  40.916  36.939   8.850
 3377POPC   C1A 4611  40.805  36.940   8.550
 3377POPC   D2A 4612  40.756  36.935   8.250
 3377POPC   C3A 4613  40.797  36.947   7.950
 3377POPC   C4A 4614  40.774  36.870   7.650
 3377POPC   C1B 4615  40.981  37.046   8.550
 3377POPC   C2B 4616  40.953  37.098   8.250
 3377POPC   C3B 4617  40.931  37.048   7.950
 3377POPC   C4B 4618  40.974  37.104   7.650
 3378POPC   NC3 4619  41.521   6.682   9.450
 3378POPC   PO4 4620  41.564   6.670   9.150
 3378POPC   GL1 4621  41.556   6.679   8.850
 3378POPC   GL2 4622  41.455   6.650   8.850
 3378POPC   C1A 4623  41.554   6.651   8.550
 3378POPC   D2A 4624  41.553   6.638   8.250
 3378POPC   C3A 4625  41.542   6.610   7.950
 3378POPC   C4A 4626  41.523   6.623   7.650
 3378POPC   C1B 4627  41.298   6.621   8.550
 3378POPC   C2B 4628  41.312   6.570   8.250
 3378POPC   C3B 4629  41.312   6.630   7.950
 3378POPC   C4B 4630  41.354   6.551   7.650
 3379POPC   NC3 4631  15.997   0.391   9.450
 3379POPC   PO4 4632  15.954   0.458   9.150
 3379POPC   GL1 4633  15.997   0.458   8.850
 3379POPC   GL2 4634  16.074   0.389   8.850
 3379POPC   C1A 4635  15.969   0.450   8.550
 3379POPC   D2A 4636  15.974   0.458   8.250
 3379POPC   C3A 4637  15.992   0.480   7.950
 3379POPC   C4A 4638  15.983   0.457   7.650
 3379POPC   C1B 4639  16.158   0.359   8.550
 3379POPC   C2B 4640  16.221   0.380   8.250
 3379POPC   C3B 4641  16.151   0.337   7.950
 3379POPC   C4B 4642  16.182   0.393   7.650
 3380POPC   NC3 4643  39.227   2.763   9.450
 3380POPC   PO4 4644  39.225   2.760   9.150
 3380POPC   GL1 4645  39.222   2.783   8.850
 3380POPC   GL2 4646  39.299   2.608   8.850
 3380POPC   C1A 4647  39.251   2.751   8.550
 3380POPC   D2A 4648  39.191   2.800   8.250
 3380POPC   C3A 4649  39.213   2.780   7.950
 3380POPC   C4A 4650  39.202   2.724   7.650
 3380POPC   C1B 4651  39.296   2.573   8.550
 3380POPC   C2B 4652  39.270   2.557   8.250
 3380POPC   C3B 4653  39.359   2.509   7.950
 3380POPC   C4B 4654  39.303   2.511   7.650
 3381POPC   NC3 4655  13.587  29.169   9.450
 3381POPC   PO4 4656  13.665  29.143   9.150
 3381POPC   GL1 4657  13.634  29.116   8.850
 3381POPC   GL2 4658  13.629  29.219   8.850
 3381POPC   C1A 4659  13.625  29.181   8.550
 3381POPC   D2A 4660  13.639  29.163   8.250
 3381POPC   C3A 4661  13.615  29.195   7.950
 3381POPC   C4A 4662  13.579  29.121   7.650
 3381POPC   C1B 4663  13.722  29.401   8.550
 3381POPC   C2B 4664  13.709  29.338   8.250
 3381POPC   C3B 4665  13.719  29.392   7.950
 3381POPC   C4B 4666  13.676  29.406   7.650
 3382POPC   NC3 4667   8.979  35.388   9.450
 3382POPC   PO4 4668   8.982  35.325   9.150
 3382POPC   GL1 4669   8.959  35.384   8.850
 3382POPC   GL2 4670   9.073  35.319   8.850
 3382POPC   C1A 4671   8.985  35.357   8.550
 3382POPC   D2A 4672   9.005  35.394   8.250
 3382POPC   C3A 4673   8.934  35.326   7.950
 3382POPC   C4A 4674   8.950  35.371   7.650
 3382POPC   C1B 4675   9.227  35.211   8.550
 3382POPC   C2B 4676   9.239  35.291   8.250
 3382POPC   C3B 4677   9.238  35.298   7.950
 3382POPC   C4B 4678   9.214  35.246   7.650
 3383POPC   NC3 4679   1.200   5.873   9.450
 3383POPC   PO4 4680   1.261   5.892   9.150
 3383POPC   GL1 4681   1.218   5.860   8.850
 3383POPC   GL2 4682   1.106   5.923   8.850
 3383POPC   C1A 4683   1.175   5.878   8.550
 3383POPC   D2A 4684   1.186   5.827   8.250
 3383POPC   C3A 4685   1.175   5.914   7.950
 3383POPC   C4A 4686   1.177   5.907   7.650
 3383POPC   C1B 4687   1.023   6.021   8.550
 3383POPC   C2B 4688   1.020   6.058   8.250
 3383POPC   C3B 4689   1.015   6.015   7.950
 3383POPC   C4B 4690   1.040   5.985   7.650
 3384POPC   NC3 4691  42.363  10.514   9.450
 3384POPC   PO4 4692  42.294  10.501   9.150
 3384POPC   GL1 4693  42.378  10.511   8.850
 3384POPC   GL2 4694  42.174  10.456   8.850
 3384POPC   C1A 4695  42.335  10.547   8.550
 3384POPC   D2A 4696  42.317  10.480   8.250
 3384POPC   C3A 4697  42.295  10.547   7.950
 3384POPC   C4A 4698  42.334  10.528   7.650
 3384POPC   C1B 4699  42.142  10.464   8.550
 3384POPC   C2B 4700  42.107  10.441   8.250
 3384POPC   C3B 4701  42.064  10.467   7.950
 3384POPC   C4B 4702  42.110  10.399   7.650
 3385POPC   NC3 4703  12.882  21.360   9.450
 3385POPC   PO4 4704  12.880  21.403   9.150
 3385POPC   GL1 4705  12.834  21.348   8.850
 3385POPC   GL2 4706  12.733  21.396   8.850
 3385POPC   C1A 4707  12.877  21.391   8.550
 3385POPC   D2A 4708  12.842  21.369   8.250
 3385POPC   C3A 4709  12.821  21.371   7.950
 3385POPC   C4A 4710  12.831  21.401   7.650
 3385POPC   C1B 4711  12.610  21.392   8.550
 3385POPC   C2B 4712  12.635  21.452   8.250
 3385POPC   C3B 4713  12.641  21.447   7.950
 3385POPC   C4B 4714  12.575  21.391   7.650
 3386POPC   NC3 4715   4.359   7.417   9.450
 3386POPC   PO4 4716   4.328   7.426   9.150
 3386POPC   GL1 4717   4.301   7.398   8.850
 3386POPC   GL2 4718   4.182   7.438   8.850
 3386POPC   C1A 4719   4.273   7.380   8.550
 3386POPC   D2A 4720   4.332   7.392   8.250
 3386POPC   C3A 4721   4.308   7.462   7.950
 3386POPC   C4A 4722   4.276   7.389   7.650
 3386POPC   C1B 4723   4.068   7.335   8.550
 3386POPC   C2B 4724   4.084   7.358   8.250
 3386POPC   C3B 4725   4.076   7.409   7.950
 3386POPC   C4B 4726   4.082   7.328   7.650
 3387POPC   NC3 4727   7.417  18.312   9.450
 3387POPC   PO4 4728   7.467  18.296   9.150
 3387POPC   GL1 4729   7.401  18.251   8.850
 3387POPC   GL2 4730   7.501  18.169   8.850
 3387POPC   C1A 4731   7.376  18.283   8.550
 3387POPC   D2A 4732   7.402  18.273   8.250
 3387POPC   C3A 4733   7.465  18.305   7.950
 3387POPC   C4A 4734   7.440  18.315   7.650
 3387POPC   C1B 4735   7.581  18.136   8.550
 3387POPC   C2B 4736   7.648  18.158   8.250
 3387POPC   C3B 4737   7.619  18.066   7.950
 3387POPC   C4B 4738   7.612  18.157   7.650
 3388POPC   NC3 4739   6.624   8.206   9.450
 3388POPC   PO4 4740   6.597   8.193   9.150
 3388POPC   GL1 4741   6.607   8.167   8.850
 3388POPC   GL2 4742   6.780   8.197   8.850
 3388POPC   C1A 4743   6.596   8.199   8.550
 3388POPC   D2A 4744   6.607   8.176   8.250
 3388POPC   C3A 4745   6.670   8.234   7.950
 3388POPC   C4A 4746   6.649   8.164   7.650
 3388POPC   C1B 4747   6.929   8.214   8.550
 3388POPC   C2B 4748   6.841   8.264   8.250
 3388POPC   C3B 4749   6.927   8.251   7.950
 3388POPC   C4B 4750   6.874   8.270   7.650
 3389POPC   NC3 4751  22.946  44.643   9.450
 3389POPC   PO4 4752  22.945  44.667   9.150
 3389POPC   GL1 4753  22.975  44.634   8.850
 3389POPC   GL2 4754  22.854  44.606   8.850
 3389POPC   C1A 4755  22.934  44.697   8.550
 3389POPC   D2A 4756  22.959  44.672   8.250
 3389POPC   C3A 4757  22.957  44.636   7.950
 3389POPC   C4A 4758  22.928  44.640   7.650
 3389POPC   C1B 4759  22.697  44.496   8.550
 3389POPC   C2B 4760  22.678  44.534   8.250
 3389POPC   C3B 4761  22.742  44.506   7.950
 3389POPC   C4B 4762  22.743  44.571   7.650
 3390POPC   NC3 4763   5.900  28.410   9.450
 3390POPC   PO4 4764   5.855  28.375   9.150
 3390POPC   GL1 4765   5.879  28.347   8.850
 3390POPC   GL2 4766   5.914  28.519   8.850
 3390POPC   C1A 4767   5.902  28.348   8.550
 3390POPC   D2A 4768   5.821  28.331   8.250
 3390POPC   C3A 4769   5.887  28.376   7.950
 3390POPC   C4A 4770   5.892  28.387   7.650
 3390POPC   C1B 4771   5.938  28.593   8.550
 3390POPC   C2B 4772   5.985  28.562   8.250
 3390POPC   C3B 4773   5.921  28.601   7.950
 3390POPC   C4B 4774   5.940  28.564   7.650
 3391POPC   NC3 4775   7.405  33.042   9.450
 3391POPC   PO4 4776   7.386  33.020   9.150
 3391POPC   GL1 4777   7.411  33.032   8.850
 3391POPC   GL2 4778   7.338  32.951   8.850
 3391POPC   C1A 4779   7.436  33.035   8.550
 3391POPC   D2A 4780   7.405  33.060   8.250
 3391POPC   C3A 4781   7.459  32.995   7.950
 3391POPC   C4A 4782   7.429  33.060   7.650
 3391POPC   C1B 4783   7.292  32.812   8.550
 3391POPC   C2B 4784   7.279  32.815   8.250
 3391POPC   C3B 4785   7.314  32.799   7.950
 3391POPC   C4B 4786   7.272  32.813   7.650
 3392POPC   NC3 4787   7.444   0.460   9.450
 3392POPC   PO4 4788   7.379   0.483   9.150
 3392POPC   GL1 4789   7.451   0.403   8.850
 3392POPC   GL2 4790   7.300   0.471   8.850
 3392POPC   C1A 4791   7.386   0.409   8.550
 3392POPC   D2A 4792   7.406   0.466   8.250
 3392POPC   C3A 4793   7.439   0.444   7.950
 3392POPC   C4A 4794   7.467   0.471   7.650
 3392POPC   C1B 4795   7.218   0.495   8.550
 3392POPC   C2B 4796   7.141   0.465   8.250
 3392POPC   C3B 4797   7.128   0.498   7.950
 3392POPC   C4B 4798   7.148   0.507   7.650
 3393POPC   NC3 4799  14.442   0.394   9.450
 3393POPC   PO4 4800  14.416   0.475   9.150
 3393POPC   GL1 4801  14.444   0.403   8.850
 3393POPC   GL2 4802  14.271   0.447   8.850
 3393POPC   C1A 4803  14.422   0.394   8.550
 3393POPC   D2A 4804  14.371   0.396   8.250
 3393POPC   C3A 4805  14.394   0.388   7.950
 3393POPC   C4A 4806  14.396   0.471   7.650
 3393POPC   C1B 4807  14.204   0.422   8.550
 3393POPC   C2B 4808  14.123   0.477   8.250
 3393POPC   C3B 4809  14.182   0.498   7.950
 3393POPC   C4B 4810  14.174   0.408   7.650
 3394POPC   NC3 4811   8.165  13.666   9.450
 3394POPC   PO4 4812   8.224  13.627   9.150
 3394POPC   GL1 4813   8.187  13.592   8.850
 3394POPC   GL2 4814   8.185  13.519   8.850
 3394POPC   C1A 4815   8.199  13.664   8.550
 3394POPC   D2A 4816   8.196  13.634   8.250
 3394POPC   C3A 4817   8.168  13.589   7.950
 3394POPC   C4A 4818   8.187  13.604   7.650
 3394POPC   C1B 4819   8.078  13.394   8.550
 3394POPC   C2B 4820   8.078  13.405   8.250
 3394POPC   C3B 4821   8.149  13.353   7.950
 3394POPC   C4B 4822   8.057  13.376   7.650
 3395POPC   NC3 4823  17.500  10.554   9.450
 3395POPC   PO4 4824  17.465  10.488   9.150
 3395POPC   GL1 4825  17.534  10.485   8.850
 3395POPC   GL2 4826  17.457  10.414   8.850
 3395POPC   C1A 4827  17.539  10.562   8.550
 3395POPC   D2A 4828  17.463  10.550   8.250
 3395POPC   C3A 4829  17.490  10.490   7.950
 3395POPC   C4A 4830  17.496  10.483   7.650
 3395POPC   C1B 4831  17.283  10.385   8.550
 3395POPC   C2B 4832  17.286  10.316   8.250
 3395POPC   C3B 4833  17.334  10.361   7.950
 3395POPC   C4B 4834  17.334  10.317   7.650
 3396POPC   NC3 4835   3.538  43.077   9.450
 3396POPC   PO4 4836   3.509  43.096   9.150
 3396POPC   GL1 4837   3.543  43.063   8.850
 3396POPC   GL2 4838   3.619  43.081   8.850
 3396POPC   C1A 4839   3.567  43.157   8.550
 3396POPC   D2A 4840   3.497  43.079   8.250
 3396POPC   C3A 4841   3.498  43.064   7.950
 3396POPC   C4A 4842   3.496  43.112   7.650
 3396POPC   C1B 4843   3.746  43.084   8.550
 3396POPC   C2B 4844   3.813  43.077   8.250
 3396POPC   C3B 4845   3.766  43.072   7.950
 3396POPC   C4B 4846   3.834  43.040   7.650
 3397POPC   NC3 4847   5.910  42.319   9.450
 3397POPC   PO4 4848   5.849  42.297   9.150
 3397POPC   GL1 4849   5.853  42.300   8.850
 3397POPC   GL2 4850   5.897  42.206   8.850
 3397POPC   C1A 4851   5.857  42.347   8.550
 3397POPC   D2A 4852   5.860  42.305   8.250
 3397POPC   C3A 4853   5.883  42.350   7.950
 3397POPC   C4A 4854   5.901  42.323   7.650
 3397POPC   C1B 4855   6.033  42.142   8.550
 3397POPC   C2B 4856   5.961  42.077   8.250
 3397POPC   C3B 4857   5.973  42.078   7.950
 3397POPC   C4B 4858   6.015  42.122   7.650
 3398POPC   NC3 4859  17.556  39.261   9.450
 3398POPC   PO4 4860  17.555  39.212   9.150
 3398POPC   GL1 4861  17.501  39.272   8.850
 3398POPC   GL2 4862  17.589  39.221   8.850
 3398POPC   C1A 4863  17.546  39.260   8.550
 3398POPC   D2A 4864  17.539  39.226   8.250
 3398POPC   C3A 4865  17.552  39.251   7.950
 3398POPC   C4A 4866  17.529  39.229   7.650
 3398POPC   C1B 4867  17.751  39.184   8.550
 3398POPC   C2B 4868  17.709  39.164   8.250
 3398POPC   C3B 4869  17.760  39.200   7.950
 3398POPC   C4B 4870  17.723  39.191   7.650
 3399POPC   NC3 4871  20.593  29.908   9.450
 3399POPC   PO4 4872  20.574  29.942   9.150
 3399POPC   GL1 4873  20.616  29.911   8.850
 3399POPC   GL2 4874  20.692  29.862   8.850
 3399POPC   C1A 4875  20.619  29.962   8.550
 3399POPC   D2A 4876  20.610  29.943   8.250
 3399POPC   C3A 4877  20.576  29.939   7.950
 3399POPC   C4A 4878  20.613  29.957   7.650
 3399POPC   C1B 4879  20.815  29.882   8.550
 3399POPC   C2B 4880  20.886  29.848   8.250
 3399POPC   C3B 4881  20.883  29.919   7.950
 3399POPC   C4B 4882  20.825  29.846   7.650
 3400POPC   NC3 4883  26.770   2.797   9.450
 3400POPC   PO4 4884  26.867   2.808   9.150
 3400POPC   GL1 4885  26.856   2.753   8.850
 3400POPC   GL2 4886  26.828   2.689   8.850
 3400POPC   C1A 4887  26.783   2.756   8.550
 3400POPC   D2A 4888  26.799   2.811   8.250
 3400POPC   C3A 4889  26.814   2.743   7.950
 3400POPC   C4A 4890  26.805   2.746   7.650
 3400POPC   C1B 4891  26.822   2.476   8.550
 3400POPC   C2B 4892  26.885   2.528   8.250
 3400POPC   C3B 4893  26.871   2.537   7.950
 3400POPC   C4B 4894  26.865   2.514   7.650
 3401POPC   NC3 4895  15.995   3.495   9.450
 3401POPC   PO4 4896  15.972   3.505   9.150
 3401POPC   GL1 4897  15.912   3.567   8.850
 3401POPC   GL2 4898  15.907   3.403   8.850
 3401POPC   C1A 4899  15.964   3.510   8.550
 3401POPC   D2A 4900  15.974   3.567   8.250
 3401POPC   C3A 4901  15.964   3.590   7.950
 3401POPC   C4A 4902  15.984   3.547   7.650
 3401POPC   C1B 4903  15.848   3.296   8.550
 3401POPC   C2B 4904  15.822   3.359   8.250
 3401POPC   C3B 4905  15.865   3.307   7.950
 3401POPC   C4B 4906  15.829   3.341   7.650
 3402POPC   NC3 4907  12.820   2.786   9.450
 3402POPC   PO4 4908  12.891   2.805   9.150
 3402POPC   GL1 4909  12.806   2.798   8.850
 3402POPC   GL2 4910  13.012   2.760   8.850
 3402POPC   C1A 4911  12.839   2.769   8.550
 3402POPC   D2A 4912  12.817   2.764   8.250
 3402POPC   C3A 4913  12.813   2.718   7.950
 3402POPC   C4A 4914  12.880   2.716   7.650
 3402POPC   C1B 4915  13.107   2.839   8.550
 3402POPC   C2B 4916  13.079   2.812   8.250
 3402POPC   C3B 4917  13.092   2.840   7.950
 3402POPC   C4B 4918  13.057   2.798   7.650
 3403POPC   NC3 4919  31.444  22.901   9.450
 3403POPC   PO4 4920  31.453  22.916   9.150
 3403POPC   GL1 4921  31.497  22.924   8.850
 3403POPC   GL2 4922  31.597  23.015   8.850
 3403POPC   C1A 4923  31.423  22.902   8.550
 3403POPC   D2A 4924  31.468  22.890   8.250
 3403POPC   C3A 4925  31.521  22.983   7.950
 3403POPC   C4A 4926  31.470  22.953   7.650
 3403POPC   C1B 4927  31.712  23.069   8.550
 3403POPC   C2B 4928  31.680  23.007   8.250
 3403POPC   C3B 4929  31.725  23.098   7.950
 3403POPC   C4B 4930  31.734  23.089   7.650
 3404POPC   NC3 4931  30.693   1.228   9.450
 3404POPC   PO4 4932  30.669   1.254   9.150
 3404POPC   GL1 4933  30.725   1.248   8.850
 3404POPC   GL2 4934  30.630   1.330   8.850
 3404POPC   C1A 4935  30.659   1.259   8.550
 3404POPC   D2A 4936  30.726   1.178   8.250
 3404POPC   C3A 4937  30.730   1.198   7.950
 3404POPC   C4A 4938  30.677   1.222   7.650
 3404POPC   C1B 4939  30.537   1.414   8.550
 3404POPC   C2B 4940  30.523   1.430   8.250
 3404POPC   C3B 4941  30.474   1.366   7.950
 3404POPC   C4B 4942  30.553   1.409   7.650
 3405POPC   NC3 4943  33.059   3.543   9.450
 3405POPC   PO4 4944  33.029   3.545   9.150
 3405POPC   GL1 4945  33.002   3.529   8.850
 3405POPC   GL2 4946  33.091   3.508   8.850
 3405POPC   C1A 4947  33.067   3.543   8.550
 3405POPC   D2A 4948  32.975   3.580   8.250
 3405POPC   C3A 4949  33.010   3.496   7.950
 3405POPC   C4A 4950  33.000   3.563   7.650
 3405POPC   C1B 4951  33.236   3.429   8.550
 3405POPC   C2B 4952  33.258   3.425   8.250
 3405POPC   C3B 4953  33.291   3.453   7.950
 3405POPC   C4B 4954  33.204   3.423   7.650
 3406POPC   NC3 4955  39.978  16.724   9.450
 3406POPC   PO4 4956  40.022  16.739   9.150
 3406POPC   GL1 4957  40.018  16.718   8.850
 3406POPC   GL2 4958  40.145  16.680   8.850
 3406POPC   C1A 4959  40.000  16.725   8.550
 3406POPC   D2A 4960  40.017  16.717   8.250
 3406POPC   C3A 4961  40.052  16.719   7.950
 3406POPC   C4A 4962  40.052  16.762   7.650
 3406POPC   C1B 4963  40.267  16.648   8.550
 3406POPC   C2B 4964  40.201  16.597   8.250
 3406POPC   C3B 4965  40.231  16.616   7.950
 3406POPC   C4B 4966  40.189  16.632   7.650
 3407POPC   NC3 4967   5.044  28.406   9.450
 3407POPC   PO4 4968   5.111  28.392   9.150
 3407POPC   GL1 4969   5.052  28.322   8.850
 3407POPC   GL2 4970   4.968  28.315   8.850
 3407POPC   C1A 4971   5.115  28.396   8.550
 3407POPC   D2A 4972   5.086  28.398   8.250
 3407POPC   C3A 4973   5.104  28.388   7.950
 3407POPC   C4A 4974   5.136  28.323   7.650
 3407POPC   C1B 4975   4.892  28.240   8.550
 3407POPC   C2B 4976   4.867  28.229   8.250
 3407POPC   C3B 4977   4.954  28.183   7.950
 3407POPC   C4B 4978   4.871  28.177   7.650
 3408POPC   NC3 4979  40.818  33.838   9.450
 3408POPC   PO4 4980  40.800  33.792   9.150
 3408POPC   GL1 4981  40.820  33.806   8.850
 3408POPC   GL2 4982  40.764  33.967   8.850
 3408POPC   C1A 4983  40.803  33.793   8.550
 3408POPC   D2A 4984  40.755  33.814   8.250
 3408POPC   C3A 4985  40.798  33.844   7.950
 3408POPC   C4A 4986  40.755  33.753   7.650
 3408POPC   C1B 4987  40.774  34.021   8.550
 3408POPC   C2B 4988  40.737  34.083   8.250
 3408POPC   C3B 4989  40.728  34.008   7.950
 3408POPC   C4B 4990  40.709  34.030   7.650
 3409POPC   NC3 4991  13.639  21.406   9.450
 3409POPC   PO4 4992  13.624  21.370   9.150
 3409POPC   GL1 4993  13.620  21.407   8.850
 3409POPC   GL2 4994  13.703  21.417   8.850
 3409POPC   C1A 4995  13.619  21.336   8.550
 3409POPC   D2A 4996  13.593  21.389   8.250
 3409POPC   C3A 4997  13.598  21.373   7.950
 3409POPC   C4A 4998  13.651  21.380   7.650
 3409POPC   C1B 4999  13.909  21.326   8.550
 3409POPC   C2B 5000  13.846  21.359   8.250
 3409POPC   C3B 5001  13.876  21.411   7.950
 3409POPC   C4B 5002  13.848  21.318   7.650
 3410POPC   NC3 5003   1.998   4.335   9.450
 3410POPC   PO4 5004   2.012   4.282   9.150
 3410POPC   GL1 5005   1.962   4.302   8.850
 3410POPC   GL2 5006   1.961   4.402   8.850
 3410POPC   C1A 5007   1.964   4.343   8.550
 3410POPC   D2A 5008   1.968   4.352   8.250
 3410POPC   C3A 5009   1.945   4.336   7.950
 3410POPC   C4A 5010   1.967   4.284   7.650
 3410POPC   C1B 5011   1.866   4.561   8.550
 3410POPC   C2B 5012   1.819   4.478   8.250
 3410POPC   C3B 5013   1.852   4.526   7.950
 3410POPC   C4B 5014   1.887   4.475   7.650
 3411POPC   NC3 5015  36.151  44.703   9.450
 3411POPC   PO4 5016  36.096  44.686   9.150
 3411POPC   GL1 5017  36.161  44.649   8.850
 3411POPC   GL2 5018  35.998  44.629   8.850
 3411POPC   C1A 5019  36.177  44.700   8.550
 3411POPC   D2A 5020  36.096  44.708   8.250
 3411POPC   C3A 5021  36.137  44.686   7.950
 3411POPC   C4A 5022  36.097  44.701   7.650
 3411POPC   C1B 5023  35.875  44.578   8.550
 3411POPC   C2B 5024  35.839  44.636   8.250
 3411POPC   C3B 5025  35.871  44.592   7.950
 3411POPC   C4B 5026  35.883  44.659   7.650
 3412POPC   NC3 5027  13.608  39.189   9.450
 3412POPC   PO4 5028  13.629  39.219   9.150
 3412POPC   GL1 5029  13.627  39.259   8.850
 3412POPC   GL2 5030  13.678  39.257   8.850
 3412POPC   C1A 5031  13.615  39.237   8.550
 3412POPC   D2A 5032  13.628  39.248   8.250
 3412POPC   C3A 5033  13.609  39.191   7.950
 3412POPC   C4A 5034  13.618  39.250   7.650
 3412POPC   C1B 5035  13.847  39.341   8.550
 3412POPC   C2B 5036  13.839  39.358   8.250
 3412POPC   C3B 5037  13.864  39.369   7.950
 3412POPC   C4B 5038  13.811  39.412   7.650
 3413POPC   NC3 5039  44.653  26.820   9.450
 3413POPC   PO4 5040  44.636  26.806   9.150
 3413POPC   GL1 5041  44.644  26.800   8.850
 3413POPC   GL2 5042  44.531  26.862   8.850
 3413POPC   C1A 5043  44.704  26.788   8.550
 3413POPC   D2A 5044  44.666  26.795   8.250
 3413POPC   C3A 5045  44.616  26.842   7.950
 3413POPC   C4A 5046  44.641  26.813   7.650
 3413POPC   C1B 5047  44.463  26.868   8.550
 3413POPC   C2B 5048  44.445  26.933   8.250
 3413POPC   C3B 5049  44.409  26.937   7.950
 3413POPC   C4B 5050  44.405  26.948   7.650
 3414POPC   NC3 5051  33.813   7.456   9.450
 3414POPC   PO4 5052  33.773   7.385   9.150
 3414POPC   GL1 5053  33.837   7.403   8.850
 3414POPC   GL2 5054  33.724   7.475   8.850
 3414POPC   C1A 5055  33.778   7.382   8.550
 3414POPC   D2A 5056  33.834   7.439   8.250
 3414POPC   C3A 5057  33.771   7.371   7.950
 3414POPC   C4A 5058  33.806   7.381   7.650
 3414POPC   C1B 5059  33.534   7.430   8.550
 3414POPC   C2B 5060  33.539   7.441   8.250
 3414POPC   C3B 5061  33.509   7.404   7.950
 3414POPC   C4B 5062  33.548   7.450   7.650
 3415POPC   NC3 5063  22.160  31.499   9.450
 3415POPC   PO4 5064  22.127  31.450   9.150
 3415POPC   GL1 5065  22.147  31.442   8.850
 3415POPC   GL2 5066  22.333  31.500   8.850
 3415POPC   C1A 5067  22.150  31.465   8.550
 3415POPC   D2A 5068  22.125  31.504   8.250
 3415POPC   C3A 5069  22.124  31.472   7.950
 3415POPC   C4A 5070  22.149  31.511   7.650
 3415POPC   C1B 5071  22.387  31.441   8.550
 3415POPC   C2B 5072  22.409  31.436   8.250
 3415POPC   C3B 5073  22.413  31.496   7.950
 3415POPC   C4B 5074  22.378  31.427   7.650
 3416POPC   NC3 5075  35.384  34.566   9.450
 3416POPC   PO4 5076  35.364  34.576   9.150
 3416POPC   GL1 5077  35.347  34.589   8.850
 3416POPC   GL2 5078  35.230  34.644   8.850
 3416POPC   C1A 5079  35.383  34.595   8.550
 3416POPC   D2A 5080  35.399  34.571   8.250
 3416POPC   C3A 5081  35.385  34.589   7.950
 3416POPC   C4A 5082  35.303  34.546   7.650
 3416POPC   C1B 5083  35.149  34.685   8.550
 3416POPC   C2B 5084  35.150  34.707   8.250
 3416POPC   C3B 5085  35.149  34.626   7.950
 3416POPC   C4B 5086  35.155  34.679   7.650
 3417POPC   NC3 5087  14.422  22.986   9.450
 3417POPC   PO4 5088  14.402  22.924   9.150
 3417POPC   GL1 5089  14.353  22.974   8.850
 3417POPC   GL2 5090  14.317  23.064   8.850
 3417POPC   C1A 5091  14.391  22.901   8.550
 3417POPC   D2A 5092  14.375  22.960   8.250
 3417POPC   C3A 5093  14.437  22.971   7.950
 3417POPC   C4A 5094  14.420  22.933   7.650
 3417POPC   C1B 5095  14.260  23.107   8.550
 3417POPC   C2B 5096  14.226  23.161   8.250
 3417POPC   C3B 5097  14.253  23.176   7.950
 3417POPC   C4B 5098  14.212  23.098   7.650
 3418POPC   NC3 5099  14.447  36.909   9.450
 3418POPC   PO4 5100  14.441  36.912   9.150
 3418POPC   GL1 5101  14.390  36.860   8.850
 3418POPC   GL2 5102  14.241  36.886   8.850
 3418POPC   C1A 5103  14.373  36.884   8.550
 3418POPC   D2A 5104  14.362  36.927   8.250
 3418POPC   C3A 5105  14.404  36.953   7.950
 3418POPC   C4A 5106  14.438  36.928   7.650
 3418POPC   C1B 5107  14.197  36.792   8.550
 3418POPC   C2B 5108  14.213  36.803   8.250
 3418POPC   C3B 5109  14.207  36.779   7.950
 3418POPC   C4B 5110  14.154  36.787   7.650
 3419POPC   NC3 5111  29.942  12.867   9.450
 3419POPC   PO4 5112  29.895  12.826   9.150
 3419POPC   GL1 5113  29.895  12.865   8.850
 3419POPC   GL2 5114  29.822  12.785   8.850
 3419POPC   C1A 5115  29.891  12.882   8.550
 3419POPC   D2A 5116  29.878  12.883   8.250
 3419POPC   C3A 5117  29.920  12.876   7.950
 3419POPC   C4A 5118  29.952  12.807   7.650
 3419POPC   C1B 5119  29.747  12.760   8.550
 3419POPC   C2B 5120  29.702  12.742   8.250
 3419POPC   C3B 5121  29.688  12.739   7.950
 3419POPC   C4B 5122  29.739  12.766   7.650
 3420POPC   NC3 5123  43.139  31.479   9.450
 3420POPC   PO4 5124  43.089  31.452   9.150
 3420POPC   GL1 5125  43.153  31.492   8.850
 3420POPC   GL2 5126  43.208  31.500   8.850
 3420POPC   C1A 5127  43.135  31.443   8.550
 3420POPC   D2A 5128  43.093  31.424   8.250
 3420POPC   C3A 5129  43.144  31.483   7.950
 3420POPC   C4A 5130  43.133  31.479   7.650
 3420POPC   C1B 5131  43.316  31.542   8.550
 3420POPC   C2B 5132  43.303  31.607   8.250
 3420POPC   C3B 5133  43.357  31.538   7.950
 3420POPC   C4B 5134  43.345  31.593   7.650
 3421POPC   NC3 5135  39.186  15.141   9.450
 3421POPC   PO4 5136  39.185  15.130   9.150
 3421POPC   GL1 5137  39.256  15.190   8.850
 3421POPC   GL2 5138  39.364  15.131   8.850
 3421POPC   C1A 5139  39.243  15.170   8.550
 3421POPC   D2A 5140  39.188  15.135   8.250
 3421POPC   C3A 5141  39.193  15.214   7.950
 3421POPC   C4A 5142  39.274  15.141   7.650
 3421POPC   C1B 5143  39.436  15.063   8.550
 3421POPC   C2B 5144  39.427  15.121   8.250
 3421POPC   C3B 5145  39.439  15.089   7.950
 3421POPC   C4B 5146  39.442  15.041   7.650
 3422POPC   NC3 5147  24.528  19.882   9.450
 3422POPC   PO4 5148  24.483  19.843   9.150
 3422POPC   GL1 5149  24.447  19.846   8.850
 3422POPC   GL2 5150  24.368  19.853   8.850
 3422POPC   C1A 5151  24.465  19.842   8.550
 3422POPC   D2A 5152  24.462  19.879   8.250
 3422POPC   C3A 5153  24.507  19.807   7.950
 3422POPC   C4A 5154  24.531  19.850   7.650
 3422POPC   C1B 5155  24.301  19.873   8.550
 3422POPC   C2B 5156  24.288  19.921   8.250
 3422POPC   C3B 5157  24.266  19.926   7.950
 3422POPC   C4B 5158  24.212  19.953   7.650
 3423POPC   NC3 5159  12.845  12.864   9.450
 3423POPC   PO4 5160  12.871  12.855   9.150
 3423POPC   GL1 5161  12.861  12.821   8.850
 3423POPC   GL2 5162  12.924  12.788   8.850
 3423POPC   C1A 5163  12.830  12.825   8.550
 3423POPC   D2A 5164  12.878  12.884   8.250
 3423POPC   C3A 5165  12.880  12.857   7.950
 3423POPC   C4A 5166  12.807  12.845   7.650
 3423POPC   C1B 5167  12.963  12.682   8.550
 3423POPC   C2B 5168  13.030  12.613   8.250
 3423POPC   C3B 5169  13.021  12.657   7.950
 3423POPC   C4B 5170  12.959  12.632   7.650
 3424POPC   NC3 5171  31.451   9.775   9.450
 3424POPC   PO4 5172  31.442   9.735   9.150
 3424POPC   GL1 5173  31.488   9.770   8.850
 3424POPC   GL2 5174  31.380   9.718   8.850
 3424POPC   C1A 5175  31.439   9.763   8.550
 3424POPC   D2A 5176  31.502   9.774   8.250
 3424POPC   C3A 5177  31.488   9.722   7.950
 3424POPC   C4A 5178  31.429   9.738   7.650
 3424POPC   C1B 5179  31.246   9.671   8.550
 3424POPC   C2B 5180  31.281   9.643   8.250
 3424POPC   C3B 5181  31.254   9.673   7.950
 3424POPC   C4B 5182  31.256   9.652   7.650
 3425POPC   NC3 5183  26.779  19.867   9.450
 3425POPC   PO4 5184  26.845  19.860   9.150
 3425POPC   GL1 5185  26.776  19.786   8.850
 3425POPC   GL2 5186  26.799  19.740   8.850
 3425POPC   C1A 5187  26.829  19.882   8.550
 3425POPC   D2A 5188  26.775  19.828   8.250
 3425POPC   C3A 5189  26.825  19.871   7.950
 3425POPC   C4A 5190  26.848  19.876   7.650
 3425POPC   C1B 5191  26.856  19.538   8.550
 3425POPC   C2B 5192  26.776  19.629   8.250
 3425POPC   C3B 5193  26.798  19.576   7.950
 3425POPC   C4B 5194  26.845  19.563   7.650
 3426POPC   NC3 5195  33.759  34.528   9.450
 3426POPC   PO4 5196  33.788  34.544   9.150
 3426POPC   GL1 5197  33.832  34.542   8.850
 3426POPC   GL2 5198  33.889  34.621   8.850
 3426POPC   C1A 5199  33.767  34.594   8.550
 3426POPC   D2A 5200  33.843  34.553   8.250
 3426POPC   C3A 5201  33.770  34.537   7.950
 3426POPC   C4A 5202  33.840  34.623   7.650
 3426POPC   C1B 5203  34.021  34.672   8.550
 3426POPC   C2B 5204  34.029  34.641   8.250
 3426POPC   C3B 5205  34.042  34.652   7.950
 3426POPC   C4B 5206  34.005  34.650   7.650
 3427POPC   NC3 5207  12.091   4.293   9.450
 3427POPC   PO4 5208  12.097   4.303   9.150
 3427POPC   GL1 5209  12.064   4.311   8.850
 3427POPC   GL2 5210  12.170   4.237   8.850
 3427POPC   C1A 5211  12.057   4.268   8.550
 3427POPC   D2A 5212  12.039   4.278   8.250
 3427POPC   C3A 5213  12.111   4.300   7.950
 3427POPC   C4A 5214  12.066   4.366   7.650
 3427POPC   C1B 5215  12.218   4.141   8.550
 3427POPC   C2B 5216  12.294   4.170   8.250
 3427POPC   C3B 5217  12.294   4.092   7.950
 3427POPC   C4B 5218  12.225   4.138   7.650
 3428POPC   NC3 5219  15.166   8.935   9.450
 3428POPC   PO4 5220  15.157   8.970   9.150
 3428POPC   GL1 5221  15.190   9.017   8.850
 3428POPC   GL2 5222  15.067   8.977   8.850
 3428POPC   C1A 5223  15.149   8.950   8.550
 3428POPC   D2A 5224  15.179   8.951   8.250
 3428POPC   C3A 5225  15.191   8.951   7.950
 3428POPC   C4A 5226  15.153   9.002   7.650
 3428POPC   C1B 5227  14.913   8.922   8.550
 3428POPC   C2B 5228  14.965   8.885   8.250
 3428POPC   C3B 5229  14.892   8.898   7.950
 3428POPC   C4B 5230  14.915   8.939   7.650
 3429POPC   NC3 5231  19.071  19.836   9.450
 3429POPC   PO4 5232  19.091  19.794   9.150
 3429POPC   GL1 5233  19.046  19.861   8.850
 3429POPC   GL2 5234  18.987  19.733   8.850
 3429POPC   C1A 5235  19.060  19.853   8.550
 3429POPC   D2A 5236  19.075  19.810   8.250
 3429POPC   C3A 5237  19.022  19.853   7.950
 3429POPC   C4A 5238  19.080  19.882   7.650
 3429POPC   C1B 5239  18.876  19.672   8.550
 3429POPC   C2B 5240  18.856  19.636   8.250
 3429POPC   C3B 5241  18.899  19.696   7.950
 3429POPC   C4B 5242  18.877  19.657   7.650
 3430POPC   NC3 5243  25.995   6.597   9.450
 3430POPC   PO4 5244  26.090   6.652   9.150
 3430POPC   GL1 5245  26.036   6.650   8.850
 3430POPC   GL2 5246  26.111   6.701   8.850
 3430POPC   C1A 5247  26.063   6.663   8.550
 3430POPC   D2A 5248  26.013   6.687   8.250
 3430POPC   C3A 5249  26.086   6.693   7.950
 3430POPC   C4A 5250  25.996   6.648   7.650
 3430POPC   C1B 5251  26.212   6.883   8.550
 3430POPC   C2B 5252  26.223   6.865   8.250
 3430POPC   C3B 5253  26.199   6.878   7.950
 3430POPC   C4B 5254  26.225   6.834   7.650
 3431POPC   NC3 5255  33.006  11.279   9.450
 3431POPC   PO4 5256  33.035  11.328   9.150
 3431POPC   GL1 5257  33.046  11.316   8.850
 3431POPC   GL2 5258  32.937  11.167   8.850
 3431POPC   C1A 5259  33.073  11.298   8.550
 3431POPC   D2A 5260  33.064  11.267   8.250
 3431POPC   C3A 5261  33.036  11.288   7.950
 3431POPC   C4A 5262  33.036  11.308   7.650
 3431POPC   C1B 5263  32.913  11.042   8.550
 3431POPC   C2B 5264  32.909  11.074   8.250
 3431POPC   C3B 5265  32.966  11.033   7.950
 3431POPC   C4B 5266  32.975  11.068   7.650
 3432POPC   NC3 5267   8.237   4.342   9.450
 3432POPC   PO4 5268   8.187   4.364   9.150
 3432POPC   GL1 5269   8.163   4.361   8.850
 3432POPC   GL2 5270   8.210   4.435   8.850
 3432POPC   C1A 5271   8.182   4.335   8.550
 3432POPC   D2A 5272   8.171   4.332   8.250
 3432POPC   C3A 5273   8.159   4.279   7.950
 3432POPC   C4A 5274   8.150   4.339   7.650
 3432POPC   C1B 5275   8.343   4.546   8.550
 3432POPC   C2B 5276   8.309   4.534   8.250
 3432POPC   C3B 5277   8.313   4.582   7.950
 3432POPC   C4B 5278   8.335   4.549   7.650
 3433POPC   NC3 5279  27.632  37.680   9.450
 3433POPC   PO4 5280  27.605  37.681   9.150
 3433POPC   GL1 5281  27.598  37.677   8.850
 3433POPC   GL2 5282  27.672  37.780   8.850
 3433POPC   C1A 5283  27.633  37.649   8.550
 3433POPC   D2A 5284  27.606  37.635   8.250
 3433POPC   C3A 5285  27.548  37.653   7.950
 3433POPC   C4A 5286  27.607  37.677   7.650
 3433POPC   C1B 5287  27.737  37.874   8.550
 3433POPC   C2B 5288  27.729  37.879   8.250
 3433POPC   C3B 5289  27.693  37.929   7.950
 3433POPC   C4B 5290  27.684  37.927   7.650
 3434POPC   NC3 5291  29.167  10.555   9.450
 3434POPC   PO4 5292  29.132  10.475   9.150
 3434POPC   GL1 5293  29.180  10.535   8.850
 3434POPC   GL2 5294  29.273  10.495   8.850
 3434POPC   C1A 5295  29.191  10.550   8.550
 3434POPC   D2A 5296  29.150  10.547   8.250
 3434POPC   C3A 5297  29.147  10.498   7.950
 3434POPC   C4A 5298  29.112  10.512   7.650
 3434POPC   C1B 5299  29.345  10.460   8.550
 3434POPC   C2B 5300  29.351  10.548   8.250
 3434POPC   C3B 5301  29.388  10.480   7.950
 3434POPC   C4B 5302  29.387  10.502   7.650
 3435POPC   NC3 5303  15.146  25.217   9.450
 3435POPC   PO4 5304  15.199  25.280   9.150
 3435POPC   GL1 5305  15.158  25.274   8.850
 3435POPC   GL2 5306  15.126  25.187   8.850
 3435POPC   C1A 5307  15.179  25.281   8.550
 3435POPC   D2A 5308  15.188  25.258   8.250
 3435POPC   C3A 5309  15.171  25.267   7.950
 3435POPC   C4A 5310  15.183  25.270   7.650
 3435POPC   C1B 5311  14.977  25.099   8.550
 3435POPC   C2B 5312  14.975  25.104   8.250
 3435POPC   C3B 5313  14.983  25.107   7.950
 3435POPC   C4B 5314  15.007  25.050   7.650
 3436POPC   NC3 5315  13.630  18.313   9.450
 3436POPC   PO4 5316  13.671  18.273   9.150
 3436POPC   GL1 5317  13.602  18.317   8.850
 3436POPC   GL2 5318  13.513  18.252   8.850
 3436POPC   C1A 5319  13.674  18.273   8.550
 3436POPC   D2A 5320  13.656  18.235   8.250
 3436POPC   C3A 5321  13.666  18.311   7.950
 3436POPC   C4A 5322  13.604  18.238   7.650
 3436POPC   C1B 5323  13.387  18.166   8.550
 3436POPC   C2B 5324  13.415  18.173   8.250
 3436POPC   C3B 5325  13.370  18.203   7.950
 3436POPC   C4B 5326  13.348  18.238   7.650
 3437POPC   NC3 5327  25.294  24.533   9.450
 3437POPC   PO4 5328  25.219  24.529   9.150
 3437POPC   GL1 5329  25.253  24.532   8.850
 3437POPC   GL2 5330  25.221  24.598   8.850
 3437POPC   C1A 5331  25.218  24.493   8.550
 3437POPC   D2A 5332  25.242  24.519   8.250
 3437POPC   C3A 5333  25.266  24.450   7.950
 3437POPC   C4A 5334  25.306  24.475   7.650
 3437POPC   C1B 5335  25.147  24.677   8.550
 3437POPC   C2B 5336  25.189  24.704   8.250
 3437POPC   C3B 5337  25.142  24.694   7.950
 3437POPC   C4B 5338  25.188  24.735   7.650
 3438POPC   NC3 5339  43.901  20.653   9.450
 3438POPC   PO4 5340  43.892  20.630   9.150
 3438POPC   GL1 5341  43.908  20.653   8.850
 3438POPC   GL2 5342  43.986  20.482   8.850
 3438POPC   C1A 5343  43.916  20.641   8.550
 3438POPC   D2A 5344  43.868  20.583   8.250
 3438POPC   C3A 5345  43.901  20.660   7.950
 3438POPC   C4A 5346  43.894  20.567   7.650
 3438POPC   C1B 5347  44.064  20.442   8.550
 3438POPC   C2B 5348  43.979  20.395   8.250
 3438POPC   C3B 5349  44.050  20.383   7.950
 3438POPC   C4B 5350  44.019  20.358   7.650
 3439POPC   NC3 5351  38.482  32.247   9.450
 3439POPC   PO4 5352  38.479  32.199   9.150
 3439POPC   GL1 5353  38.413  32.260   8.850
 3439POPC   GL2 5354  38.586  32.231   8.850
 3439POPC   C1A 5355  38.474  32.218   8.550
 3439POPC   D2A 5356  38.473  32.280   8.250
 3439POPC   C3A 5357  38.407  32.237   7.950
 3439POPC   C4A 5358  38.455  32.240   7.650
 3439POPC   C1B 5359  38.654  32.195   8.550
 3439POPC   C2B 5360  38.668  32.146   8.250
 3439POPC   C3B 5361  38.702  32.141   7.950
 3439POPC   C4B 5362  38.666  32.192   7.650
 3440POPC   NC3 5363  42.287   5.138   9.450
 3440POPC   PO4 5364  42.376   5.132   9.150
 3440POPC   GL1 5365  42.382   5.116   8.850
 3440POPC   GL2 5366  42.251   5.148   8.850
 3440POPC   C1A 5367  42.337   5.104   8.550
 3440POPC   D2A 5368  42.379   5.102   8.250
 3440POPC   C3A 5369  42.371   5.067   7.950
 3440POPC   C4A 5370  42.378   5.084   7.650
 3440POPC   C1B 5371  42.048   5.167   8.550
 3440POPC   C2B 5372  42.099   5.161   8.250
 3440POPC   C3B 5373  42.120   5.148   7.950
 3440POPC   C4B 5374  42.137   5.170   7.650
 3441POPC   NC3 5375   4.330  19.827   9.450
 3441POPC   PO4 5376   4.321  19.872   9.150
 3441POPC   GL1 5377   4.279  19.838   8.850
 3441POPC   GL2 5378   4.246  19.736   8.850
 3441POPC   C1A 5379   4.344  19.825   8.550
 3441POPC   D2A 5380   4.303  19.835   8.250
 3441POPC   C3A 5381   4.303  19.818   7.950
 3441POPC   C4A 5382   4.308  19.877   7.650
 3441POPC   C1B 5383   4.124  19.710   8.550
 3441POPC   C2B 5384   4.094  19.665   8.250
 3441POPC   C3B 5385   4.125  19.717   7.950
 3441POPC   C4B 5386   4.133  19.645   7.650
 3442POPC   NC3 5387   2.795  22.918   9.450
 3442POPC   PO4 5388   2.744  22.958   9.150
 3442POPC   GL1 5389   2.797  22.915   8.850
 3442POPC   GL2 5390   2.833  22.858   8.850
 3442POPC   C1A 5391   2.786  22.946   8.550
 3442POPC   D2A 5392   2.766  22.978   8.250
 3442POPC   C3A 5393   2.724  22.984   7.950
 3442POPC   C4A 5394   2.773  22.894   7.650
 3442POPC   C1B 5395   2.984  22.802   8.550
 3442POPC   C2B 5396   2.978  22.806   8.250
 3442POPC   C3B 5397   2.924  22.796   7.950
 3442POPC   C4B 5398   2.975  22.794   7.650
 3443POPC   NC3 5399  44.680  15.931   9.450
 3443POPC   PO4 5400  44.655  15.926   9.150
 3443POPC   GL1 5401  44.634  15.986   8.850
 3443POPC   GL2 5402  44.682  15.823   8.850
 3443POPC   C1A 5403  44.703  16.004   8.550
 3443POPC   D2A 5404  44.633  15.958   8.250
 3443POPC   C3A 5405  44.688  16.004   7.950
 3443POPC   C4A 5406  44.701  16.003   7.650
 3443POPC   C1B 5407  44.768  15.736   8.550
 3443POPC   C2B 5408  44.700  15.670   8.250
 3443POPC   C3B 5409  44.721  15.763   7.950
 3443POPC   C4B 5410  44.681  15.680   7.650
 3444POPC   NC3 5411  20.646  36.109   9.450
 3444POPC   PO4 5412  20.640  36.105   9.150
 3444POPC   GL1 5413  20.655  36.106   8.850
 3444POPC   GL2 5414  20.738  36.045   8.850
 3444POPC   C1A 5415  20.564  36.128   8.550
 3444POPC   D2A 5416  20.576  36.141   8.250
 3444POPC   C3A 5417  20.659  36.102   7.950
 3444POPC   C4A 5418  20.629  36.125   7.650
 3444POPC   C1B 5419  20.829  35.997   8.550
 3444POPC   C2B 5420  20.813  35.989   8.250
 3444POPC   C3B 5421  20.806  36.013   7.950
 3444POPC   C4B 5422  20.829  36.019   7.650
 3445POPC   NC3 5423  38.501   4.293   9.450
 3445POPC   PO4 5424  38.431   4.281   9.150
 3445POPC   GL1 5425  38.449   4.305   8.850
 3445POPC   GL2 5426  38.363   4.447   8.850
 3445POPC   C1A 5427  38.421   4.297   8.550
 3445POPC   D2A 5428  38.482   4.343   8.250
 3445POPC   C3A 5429  38.480   4.364   7.950
 3445POPC   C4A 5430  38.466   4.322   7.650
 3445POPC   C1B 5431  38.291   4.510   8.550
 3445POPC   C2B 5432  38.259   4.526   8.250
 3445POPC   C3B 5433  38.340   4.474   7.950
 3445POPC   C4B 5434  38.269   4.552   7.650
 3446POPC   NC3 5435   3.563  36.138   9.450
 3446POPC   PO4 5436   3.563  36.103   9.150
 3446POPC   GL1 5437   3.572  36.151   8.850
 3446POPC   GL2 5438   3.508  35.974   8.850
 3446POPC   C1A 5439   3.528  36.111   8.550
 3446POPC   D2A 5440   3.560  36.134   8.250
 3446POPC   C3A 5441   3.549  36.169   7.950
 3446POPC   C4A 5442   3.588  36.166   7.650
 3446POPC   C1B 5443   3.547  35.890   8.550
 3446POPC   C2B 5444   3.508  35.835   8.250
 3446POPC   C3B 5445   3.486  35.856   7.950
 3446POPC   C4B 5446   3.517  35.882   7.650
 3447POPC   NC3 5447  13.607  25.270   9.450
 3447POPC   PO4 5448  13.598  25.242   9.150
 3447POPC   GL1 5449  13.648  25.222   8.850
 3447POPC   GL2 5450  13.721  25.252   8.850
 3447POPC   C1A 5451  13.667  25.262   8.550
 3447POPC   D2A 5452  13.641  25.306   8.250
 3447POPC   C3A 5453  13.646  25.279   7.950
 3447POPC   C4A 5454  13.626  25.260   7.650
 3447POPC   C1B 5455  13.892  25.198   8.550
 3447POPC   C2B 5456  13.877  25.185   8.250
 3447POPC   C3B 5457  13.858  25.195   7.950
 3447POPC   C4B 5458  13.897  25.119   7.650
 3448POPC   NC3 5459  22.971  28.413   9.450
 3448POPC   PO4 5460  22.930  28.333   9.150
 3448POPC   GL1 5461  22.964  28.418   8.850
 3448POPC   GL2 5462  23.027  28.405   8.850
 3448POPC   C1A 5463  22.953  28.335   8.550
 3448POPC   D2A 5464  22.910  28.321   8.250
 3448POPC   C3A 5465  22.957  28.334   7.950
 3448POPC   C4A 5466  22.954  28.405   7.650
 3448POPC   C1B 5467  23.160  28.394   8.550
 3448POPC   C2B 5468  23.202  28.406   8.250
 3448POPC   C3B 5469  23.144  28.479   7.950
 3448POPC   C4B 5470  23.171  28.394   7.650
 3449POPC   NC3 5471  13.647  24.519   9.450
 3449POPC   PO4 5472  13.601  24.441   9.150
 3449POPC   GL1 5473  13.650  24.532   8.850
 3449POPC   GL2 5474  13.503  24.410   8.850
 3449POPC   C1A 5475  13.662  24.535   8.550
 3449POPC   D2A 5476  13.601  24.529   8.250
 3449POPC   C3A 5477  13.580  24.511   7.950
 3449POPC   C4A 5478  13.607  24.509   7.650
 3449POPC   C1B 5479  13.423  24.344   8.550
 3449POPC   C2B 5480  13.435  24.407   8.250
 3449POPC   C3B 5481  13.453  24.385   7.950
 3449POPC   C4B 5482  13.449  24.346   7.650
 3450POPC   NC3 5483  32.283  12.124   9.450
 3450POPC   PO4 5484  32.204  12.044   9.150
 3450POPC   GL1 5485  32.210  12.070   8.850
 3450POPC   GL2 5486  32.142  12.203   8.850
 3450POPC   C1A 5487  32.217  12.051   8.550
 3450POPC   D2A 5488  32.293  12.115   8.250
 3450POPC   C3A 5489  32.281  12.054   7.950
 3450POPC   C4A 5490  32.296  12.116   7.650
 3450POPC   C1B 5491  32.050  12.200   8.550
 3450POPC   C2B 5492  32.093  12.216   8.250
 3450POPC   C3B 5493  32.079  12.198   7.950
 3450POPC   C4B 5494  32.030  12.218   7.650
 3451POPC   NC3 5495  29.118  18.288   9.450
 3451POPC   PO4 5496  29.160  18.284   9.150
 3451POPC   GL1 5497  29.151  18.251   8.850
 3451POPC   GL2 5498  29.178  18.186   8.850
 3451POPC   C1A 5499  29.187  18.312   8.550
 3451POPC   D2A 5500  29.134  18.244   8.250
 3451POPC   C3A 5501  29.180  18.319   7.950
 3451POPC   C4A 5502  29.103  18.322   7.650
 3451POPC   C1B 5503  29.208  18.043   8.550
 3451POPC   C2B 5504  29.226  18.071   8.250
 3451POPC   C3B 5505  29.196  18.043   7.950
 3451POPC   C4B 5506  29.258  18.041   7.650
 3452POPC   NC3 5507  35.324  28.342   9.450
 3452POPC   PO4 5508  35.316  28.365   9.150
 3452POPC   GL1 5509  35.357  28.333   8.850
 3452POPC   GL2 5510  35.282  28.305   8.850
 3452POPC   C1A 5511  35.373  28.403   8.550
 3452POPC   D2A 5512  35.371  28.390   8.250
 3452POPC   C3A 5513  35.335  28.417   7.950
 3452POPC   C4A 5514  35.389  28.412   7.650
 3452POPC   C1B 5515  35.162  28.249   8.550
 3452POPC   C2B 5516  35.100  28.210   8.250
 3452POPC   C3B 5517  35.141  28.281   7.950
 3452POPC   C4B 5518  35.128  28.187   7.650
 3453POPC   NC3 5519  26.023  43.126   9.450
 3453POPC   PO4 5520  26.058  43.078   9.150
 3453POPC   GL1 5521  26.066  43.107   8.850
 3453POPC   GL2 5522  26.174  43.172   8.850
 3453POPC   C1A 5523  26.007  43.112   8.550
 3453POPC   D2A 5524  25.998  43.144   8.250
 3453POPC   C3A 5525  26.084  43.110   7.950
 3453POPC   C4A 5526  26.074  43.093   7.650
 3453POPC   C1B 5527  26.276  43.191   8.550
 3453POPC   C2B 5528  26.242  43.183   8.250
 3453POPC   C3B 5529  26.288  43.152   7.950
 3453POPC   C4B 5530  26.267  43.183   7.650
 3454POPC   NC3 5531  38.468   8.934   9.450
 3454POPC   PO4 5532  38.423   8.952   9.150
 3454POPC   GL1 5533  38.449   8.977   8.850
 3454POPC   GL2 5534  38.342   9.075   8.850
 3454POPC   C1A 5535  38.497   8.998   8.550
 3454POPC   D2A 5536  38.437   8.995   8.250
 3454POPC   C3A 5537  38.485   9.012   7.950
 3454POPC   C4A 5538  38.496   8.941   7.650
 3454POPC   C1B 5539  38.254   9.139   8.550
 3454POPC   C2B 5540  38.215   9.143   8.250
 3454POPC   C3B 5541  38.275   9.089   7.950
 3454POPC   C4B 5542  38.233   9.138   7.650
 3455POPC   NC3 5543  22.965   9.015   9.450
 3455POPC   PO4 5544  22.969   9.004   9.150
 3455POPC   GL1 5545  22.891   8.962   8.850
 3455POPC   GL2 5546  22.780   8.907   8.850
 3455POPC   C1A 5547  22.911   9.016   8.550
 3455POPC   D2A 5548  22.955   8.937   8.250
 3455POPC   C3A 5549  22.896   8.973   7.950
 3455POPC   C4A 5550  22.968   8.967   7.650
 3455POPC   C1B 5551  22.675   8.896   8.550
 3455POPC   C2B 5552  22.710   8.961   8.250
 3455POPC   C3B 5553  22.650   8.936   7.950
 3455POPC   C4B 5554  22.721   8.959   7.650
 3456POPC   NC3 5555   4.311  37.716   9.450
 3456POPC   PO4 5556   4.276  37.680   9.150
 3456POPC   GL1 5557   4.287  37.678   8.850
 3456POPC   GL2 5558   4.161  37.703   8.850
 3456POPC   C1A 5559   4.366  37.651   8.550
 3456POPC   D2A 5560   4.328  37.710   8.250
 3456POPC   C3A 5561   4.365  37.699   7.950
 3456POPC   C4A 5562   4.299  37.695   7.650
 3456POPC   C1B 5563   4.113  37.786   8.550
 3456POPC   C2B 5564   4.061  37.771   8.250
 3456POPC   C3B 5565   4.115  37.738   7.950
 3456POPC   C4B 5566   4.041  37.735   7.650
 3457POPC   NC3 5567  32.235  31.423   9.450
 3457POPC   PO4 5568  32.248  31.462   9.150
 3457POPC   GL1 5569  32.204  31.480   8.850
 3457POPC   GL2 5570  32.168  31.575   8.850
 3457POPC   C1A 5571  32.233  31.430   8.550
 3457POPC   D2A 5572  32.233  31.455   8.250
 3457POPC   C3A 5573  32.288  31.467   7.950
 3457POPC   C4A 5574  32.220  31.488   7.650
 3457POPC   C1B 5575  32.051  31.647   8.550
 3457POPC   C2B 5576  32.086  31.665   8.250
 3457POPC   C3B 5577  32.047  31.629   7.950
 3457POPC   C4B 5578  32.100  31.686   7.650
 3458POPC   NC3 5579  15.940   9.712   9.450
 3458POPC   PO4 5580  15.936   9.787   9.150
 3458POPC   GL1 5581  16.002   9.701   8.850
 3458POPC   GL2 5582  16.051   9.649   8.850
 3458POPC   C1A 5583  15.993   9.710   8.550
 3458POPC   D2A 5584  15.928   9.761   8.250
 3458POPC   C3A 5585  15.923   9.718   7.950
 3458POPC   C4A 5586  15.980   9.735   7.650
 3458POPC   C1B 5587  16.114   9.599   8.550
 3458POPC   C2B 5588  16.158   9.565   8.250
 3458POPC   C3B 5589  16.179   9.549   7.950
 3458POPC   C4B 5590  16.178   9.586   7.650
 3459POPC   NC3 5591   9.702  44.619   9.450
 3459POPC   PO4 5592   9.737  44.636   9.150
 3459POPC   GL1 5593   9.713  44.696   8.850
 3459POPC   GL2 5594   9.597  44.683   8.850
 3459POPC   C1A 5595   9.755  44.614   8.550
 3459POPC   D2A 5596   9.752  44.680   8.250
 3459POPC   C3A 5597   9.720  44.646   7.950
 3459POPC   C4A 5598   9.720  44.631   7.650
 3459POPC   C1B 5599   9.463  44.659   8.550
 3459POPC   C2B 5600   9.499  44.604   8.250
 3459POPC   C3B 5601   9.458  44.611   7.950
 3459POPC   C4B 5602   9.529  44.678   7.650
 3460POPC   NC3 5603  43.065  26.769   9.450
 3460POPC   PO4 5604  43.136  26.863   9.150
 3460POPC   GL1 5605  43.095  26.862   8.850
 3460POPC   GL2 5606  43.216  26.862   8.850
 3460POPC   C1A 5607  43.144  26.778   8.550
 3460POPC   D2A 5608  43.082  26.821   8.250
 3460POPC   C3A 5609  43.070  26.815   7.950
 3460POPC   C4A 5610  43.085  26.814   7.650
 3460POPC   C1B 5611  43.328  26.768   8.550
 3460POPC   C2B 5612  43.327  26.784   8.250
 3460POPC   C3B 5613  43.401  26.780   7.950
 3460POPC   C4B 5614  43.350  26.831   7.650
 3461POPC   NC3 5615   8.934  43.155   9.450
 3461POPC   PO4 5616   8.963  43.088   9.150
 3461POPC   GL1 5617   8.995  43.121   8.850
 3461POPC   GL2 5618   8.945  42.956   8.850
 3461POPC   C1A 5619   8.936  43.103   8.550
 3461POPC   D2A 5620   8.971  43.092   8.250
 3461POPC   C3A 5621   8.996  43.132   7.950
 3461POPC   C4A 5622   8.962  43.117   7.650
 3461POPC   C1B 5623   8.887  42.901   8.550
 3461POPC   C2B 5624   8.857  42.865   8.250
 3461POPC   C3B 5625   8.792  42.852   7.950
 3461POPC   C4B 5626   8.840  42.899   7.650
 3462POPC   NC3 5627  11.291  22.919   9.450
 3462POPC   PO4 5628  11.269  22.964   9.150
 3462POPC   GL1 5629  11.274  22.890   8.850
 3462POPC   GL2 5630  11.219  22.999   8.850
 3462POPC   C1A 5631  11.276  22.970   8.550
 3462POPC   D2A 5632  11.292  22.972   8.250
 3462POPC   C3A 5633  11.318  22.981   7.950
 3462POPC   C4A 5634  11.349  22.894   7.650
 3462POPC   C1B 5635  11.076  23.023   8.550
 3462POPC   C2B 5636  11.086  23.047   8.250
 3462POPC   C3B 5637  11.022  23.060   7.950
 3462POPC   C4B 5638  11.028  23.021   7.650
 3463POPC   NC3 5639  17.460  42.337   9.450
 3463POPC   PO4 5640  17.529  42.333   9.150
 3463POPC   GL1 5641  17.479  42.303   8.850
 3463POPC   GL2 5642  17.648  42.285   8.850
 3463POPC   C1A 5643  17.474  42.310   8.550
 3463POPC   D2A 5644  17.538  42.291   8.250
 3463POPC   C3A 5645  17.495  42.292   7.950
 3463POPC   C4A 5646  17.510  42.330   7.650
 3463POPC   C1B 5647  17.743  42.266   8.550
 3463POPC   C2B 5648  17.749  42.262   8.250
 3463POPC   C3B 5649  17.766  42.290   7.950
 3463POPC   C4B 5650  17.773  42.217   7.650
 3464POPC   NC3 5651  27.587  28.398   9.450
 3464POPC   PO4 5652  27.582  28.396   9.150
 3464POPC   GL1 5653  27.628  28.365   8.850
 3464POPC   GL2 5654  27.661  28.406   8.850
 3464POPC   C1A 5655  27.589  28.359   8.550
 3464POPC   D2A 5656  27.590  28.326   8.250
 3464POPC   C3A 5657  27.627  28.326   7.950
 3464POPC   C4A 5658  27.580  28.337   7.650
 3464POPC   C1B 5659  27.800  28.448   8.550
 3464POPC   C2B 5660  27.804  28.448   8.250
 3464POPC   C3B 5661  27.772  28.494   7.950
 3464POPC   C4B 5662  27.856  28.451   7.650
 3465POPC   NC3 5663   1.996  29.969   9.450
 3465POPC   PO4 5664   1.960  29.883   9.150
 3465POPC   GL1 5665   1.999  29.936   8.850
 3465POPC   GL2 5666   2.054  29.988   8.850
 3465POPC   C1A 5667   1.940  29.929   8.550
 3465POPC   D2A 5668   1.972  29.952   8.250
 3465POPC   C3A 5669   2.035  29.874   7.950
 3465POPC   C4A 5670   1.948  29.961   7.650
 3465POPC   C1B 5671   2.187  30.098   8.550
 3465POPC   C2B 5672   2.131  30.116   8.250
 3465POPC   C3B 5673   2.154  30.101   7.950
 3465POPC   C4B 5674   2.139  30.049   7.650
 3466POPC   NC3 5675  43.904  30.652   9.450
 3466POPC   PO4 5676  43.919  30.681   9.150
 3466POPC   GL1 5677  43.882  30.722   8.850
 3466POPC   GL2 5678  43.797  30.841   8.850
 3466POPC   C1A 5679  43.879  30.710   8.550
 3466POPC   D2A 5680  43.889  30.649   8.250
 3466POPC   C3A 5681  43.915  30.728   7.950
 3466POPC   C4A 5682  43.860  30.658   7.650
 3466POPC   C1B 5683  43.770  30.952   8.550
 3466POPC   C2B 5684  43.766  30.963   8.250
 3466POPC   C3B 5685  43.788  30.879   7.950
 3466POPC   C4B 5686  43.738  30.866   7.650
 3467POPC   NC3 5687  14.393  24.489   9.450
 3467POPC   PO4 5688  14.430  24.514   9.150
 3467POPC   GL1 5689  14.453  24.523   8.850
 3467POPC   GL2 5690  14.399  24.664   8.850
 3467POPC   C1A 5691  14.439  24.463   8.550
 3467POPC   D2A 5692  14.357  24.516   8.250
 3467POPC   C3A 5693  14.413  24.466   7.950
 3467POPC   C4A 5694  14.399  24.520   7.650
 3467POPC   C1B 5695  14.471  24.766   8.550
 3467POPC   C2B 5696  14.387  24.739   8.250
 3467POPC   C3B 5697  14.466  24.758   7.950
 3467POPC   C4B 5698  14.383  24.787   7.650
 3468POPC   NC3 5699  28.414  12.126   9.450
 3468POPC   PO4 5700  28.322  12.048   9.150
 3468POPC   GL1 5701  28.373  12.053   8.850
 3468POPC   GL2 5702  28.235  12.085   8.850
 3468POPC   C1A 5703  28.414  12.047   8.550
 3468POPC   D2A 5704  28.412  12.059   8.250
 3468POPC   C3A 5705  28.394  12.106   7.950
 3468POPC   C4A 5706  28.372  12.033   7.650
 3468POPC   C1B 5707  28.142  12.063   8.550
 3468POPC   C2B 5708  28.080  12.119   8.250
 3468POPC   C3B 5709  28.159  12.049   7.950
 3468POPC   C4B 5710  28.081  12.117   7.650
 3469POPC   NC3 5711  26.807  37.677   9.450
 3469POPC   PO4 5712  26.782  37.644   9.150
 3469POPC   GL1 5713  26.798  37.712   8.850
 3469POPC   GL2 5714  26.896  37.723   8.850
 3469POPC   C1A 5715  26.776  37.716   8.550
 3469POPC   D2A 5716  26.861  37.706   8.250
 3469POPC   C3A 5717  26.790  37.639   7.950
 3469POPC   C4A 5718  26.799  37.667   7.650
 3469POPC   C1B 5719  27.023  37.675   8.550
 3469POPC   C2B 5720  27.036  37.666   8.250
 3469POPC   C3B 5721  27.044  37.654   7.950
 3469POPC   C4B 5722  27.096  37.659   7.650
 3470POPC   NC3 5723  18.277  28.374   9.450
 3470POPC   PO4 5724  18.298  28.343   9.150
 3470POPC   GL1 5725  18.301  28.379   8.850
 3470POPC   GL2 5726  18.182  28.453   8.850
 3470POPC   C1A 5727  18.237  28.339   8.550
 3470POPC   D2A 5728  18.237  28.385   8.250
 3470POPC   C3A 5729  18.241  28.327   7.950
 3470POPC   C4A 5730  18.247  28.378   7.650
 3470POPC   C1B 5731  17.994  28.478   8.550
 3470POPC   C2B 5732  17.993  28.470   8.250
 3470POPC   C3B 5733  18.085  28.429   7.950
 3470POPC   C4B 5734  18.015  28.468   7.650
 3471POPC   NC3 5735   0.400  42.309   9.450
 3471POPC   PO4 5736   0.403  42.312   9.150
 3471POPC   GL1 5737   0.456  42.309   8.850
 3471POPC   GL2 5738   0.445  42.436   8.850
 3471POPC   C1A 5739   0.427  42.334   8.550
 3471POPC   D2A 5740   0.487  42.318   8.250
 3471POPC   C3A 5741   0.391  42.369   7.950
 3471POPC   C4A 5742   0.399  42.369   7.650
 3471POPC   C1B 5743   0.440  42.588   8.550
 3471POPC   C2B 5744   0.473  42.539   8.250
 3471POPC   C3B 5745   0.390  42.565   7.950
 3471POPC   C4B 5746   0.453  42.616   7.650
 3472POPC   NC3 5747   5.129   5.048   9.450
 3472POPC   PO4 5748   5.067   5.139   9.150
 3472POPC   GL1 5749   5.121   5.083   8.850
 3472POPC   GL2 5750   5.050   4.955   8.850
 3472POPC   C1A 5751   5.124   5.095   8.550
 3472POPC   D2A 5752   5.057   5.119   8.250
 3472POPC   C3A 5753   5.110   5.106   7.950
 3472POPC   C4A 5754   5.046   5.133   7.650
 3472POPC   C1B 5755   4.899   4.890   8.550
 3472POPC   C2B 5756   4.938   4.908   8.250
 3472POPC   C3B 5757   4.916   4.944   7.950
 3472POPC   C4B 5758   4.937   4.946   7.650
 3473POPC   NC3 5759  15.140  22.941   9.450
 3473POPC   PO4 5760  15.185  22.897   9.150
 3473POPC   GL1 5761  15.186  22.899   8.850
 3473POPC   GL2 5762  15.149  23.064   8.850
 3473POPC   C1A 5763  15.187  22.907   8.550
 3473POPC   D2A 5764  15.148  22.947   8.250
 3473POPC   C3A 5765  15.139  22.962   7.950
 3473POPC   C4A 5766  15.179  22.960   7.650
 3473POPC   C1B 5767  15.225  23.223   8.550
 3473POPC   C2B 5768  15.210  23.210   8.250
 3473POPC   C3B 5769  15.162  23.228   7.950
 3473POPC   C4B 5770  15.173  23.197   7.650
 3474POPC   NC3 5771  36.932  26.805   9.450
 3474POPC   PO4 5772  36.923  26.830   9.150
 3474POPC   GL1 5773  36.944  26.845   8.850
 3474POPC   GL2 5774  37.051  26.782   8.850
 3474POPC   C1A 5775  36.898  26.769   8.550
 3474POPC   D2A 5776  36.907  26.849   8.250
 3474POPC   C3A 5777  36.908  26.850   7.950
 3474POPC   C4A 5778  36.883  26.790   7.650
 3474POPC   C1B 5779  37.144  26.821   8.550
 3474POPC   C2B 5780  37.179  26.809   8.250
 3474POPC   C3B 5781  37.166  26.827   7.950
 3474POPC   C4B 5782  37.125  26.846   7.650
 3475POPC   NC3 5783  19.881   5.887   9.450
 3475POPC   PO4 5784  19.836   5.871   9.150
 3475POPC   GL1 5785  19.800   5.914   8.850
 3475POPC   GL2 5786  19.908   5.923   8.850
 3475POPC   C1A 5787  19.798   5.896   8.550
 3475POPC   D2A 5788  19.880   5.853   8.250
 3475POPC   C3A 5789  19.802   5.859   7.950
 3475POPC   C4A 5790  19.834   5.873   7.650
 3475POPC   C1B 5791  20.071   5.992   8.550
 3475POPC   C2B 5792  20.042   5.986   8.250
 3475POPC   C3B 5793  20.030   6.047   7.950
 3475POPC   C4B 5794  20.060   5.969   7.650
 3476POPC   NC3 5795  12.119  15.934   9.450
 3476POPC   PO4 5796  12.026  15.936   9.150
 3476POPC   GL1 5797  12.081  15.967   8.850
 3476POPC   GL2 5798  12.139  15.869   8.850
 3476POPC   C1A 5799  12.086  15.994   8.550
 3476POPC   D2A 5800  12.066  15.941   8.250
 3476POPC   C3A 5801  12.045  15.979   7.950
 3476POPC   C4A 5802  12.034  15.919   7.650
 3476POPC   C1B 5803  12.236  15.813   8.550
 3476POPC   C2B 5804  12.314  15.820   8.250
 3476POPC   C3B 5805  12.298  15.839   7.950
 3476POPC   C4B 5806  12.243  15.803   7.650
 3477POPC   NC3 5807  13.653  36.115   9.450
 3477POPC   PO4 5808  13.583  36.141   9.150
 3477POPC   GL1 5809  13.583  36.107   8.850
 3477POPC   GL2 5810  13.646  35.972   8.850
 3477POPC   C1A 5811  13.650  36.177   8.550
 3477POPC   D2A 5812  13.619  36.157   8.250
 3477POPC   C3A 5813  13.620  36.171   7.950
 3477POPC   C4A 5814  13.675  36.095   7.650
 3477POPC   C1B 5815  13.590  35.902   8.550
 3477POPC   C2B 5816  13.652  35.864   8.250
 3477POPC   C3B 5817  13.600  35.833   7.950
 3477POPC   C4B 5818  13.662  35.865   7.650
 3478POPC   NC3 5819   1.946   9.781   9.450
 3478POPC   PO4 5820   1.982   9.755   9.150
 3478POPC   GL1 5821   1.945   9.798   8.850
 3478POPC   GL2 5822   2.113   9.764   8.850
 3478POPC   C1A 5823   2.006   9.721   8.550
 3478POPC   D2A 5824   1.941   9.778   8.250
 3478POPC   C3A 5825   2.011   9.775   7.950
 3478POPC   C4A 5826   1.970   9.759   7.650
 3478POPC   C1B 5827   2.217   9.723   8.550
 3478POPC   C2B 5828   2.243   9.708   8.250
 3478POPC   C3B 5829   2.197   9.698   7.950
 3478POPC   C4B 5830   2.245   9.657   7.650
 3479POPC   NC3 5831  34.571   9.000   9.450
 3479POPC   PO4 5832  34.545   8.954   9.150
 3479POPC   GL1 5833  34.531   8.968   8.850
 3479POPC   GL2 5834  34.569   8.804   8.850
 3479POPC   C1A 5835  34.563   8.991   8.550
 3479POPC   D2A 5836  34.597   9.004   8.250
 3479POPC   C3A 5837  34.624   8.985   7.950
 3479POPC   C4A 5838  34.534   8.937   7.650
 3479POPC   C1B 5839  34.601   8.712   8.550
 3479POPC   C2B 5840  34.662   8.745   8.250
 3479POPC   C3B 5841  34.590   8.727   7.950
 3479POPC   C4B 5842  34.664   8.722   7.650
 3480POPC   NC3 5843  29.143  29.115   9.450
 3480POPC   PO4 5844  29.151  29.108   9.150
 3480POPC   GL1 5845  29.127  29.191   8.850
 3480POPC   GL2 5846  29.214  29.205   8.850
 3480POPC   C1A 5847  29.152  29.096   8.550
 3480POPC   D2A 5848  29.178  29.157   8.250
 3480POPC   C3A 5849  29.122  29.136   7.950
 3480POPC   C4A 5850  29.127  29.099   7.650
 3480POPC   C1B 5851  29.375  29.299   8.550
 3480POPC   C2B 5852  29.371  29.228   8.250
 3480POPC   C3B 5853  29.397  29.245   7.950
 3480POPC   C4B 5854  29.376  29.282   7.650
 3481POPC   NC3 5855   2.788   0.461   9.450
 3481POPC   PO4 5856   2.747   0.451   9.150
 3481POPC   GL1 5857   2.807   0.455   8.850
 3481POPC   GL2 5858   2.632   0.469   8.850
 3481POPC   C1A 5859   2.767   0.390   8.550
 3481POPC   D2A 5860   2.746   0.438   8.250
 3481POPC   C3A 5861   2.728   0.467   7.950
 3481POPC   C4A 5862   2.717   0.455   7.650
 3481POPC   C1B 5863   2.519   0.537   8.550
 3481POPC   C2B 5864   2.544   0.554   8.250
 3481POPC   C3B 5865   2.504   0.574   7.950
 3481POPC   C4B 5866   2.556   0.589   7.650
 3482POPC   NC3 5867   1.985  19.077   9.450
 3482POPC   PO4 5868   1.975  19.031   9.150
 3482POPC   GL1 5869   1.974  19.073   8.850
 3482POPC   GL2 5870   1.889  18.927   8.850
 3482POPC   C1A 5871   1.973  19.026   8.550
 3482POPC   D2A 5872   1.965  19.091   8.250
 3482POPC   C3A 5873   1.967  19.010   7.950
 3482POPC   C4A 5874   1.962  19.065   7.650
 3482POPC   C1B 5875   1.813  18.901   8.550
 3482POPC   C2B 5876   1.856  18.855   8.250
 3482POPC   C3B 5877   1.816  18.876   7.950
 3482POPC   C4B 5878   1.892  18.842   7.650
 3483POPC   NC3 5879  39.208  22.185   9.450
 3483POPC   PO4 5880  39.277  22.178   9.150
 3483POPC   GL1 5881  39.184  22.128   8.850
 3483POPC   GL2 5882  39.308  22.088   8.850
 3483POPC   C1A 5883  39.260  22.166   8.550
 3483POPC   D2A 5884  39.238  22.132   8.250
 3483POPC   C3A 5885  39.213  22.124   7.950
 3483POPC   C4A 5886  39.256  22.126   7.650
 3483POPC   C1B 5887  39.413  21.926   8.550
 3483POPC   C2B 5888  39.380  21.920   8.250
 3483POPC   C3B 5889  39.413  21.990   7.950
 3483POPC   C4B 5890  39.342  21.997   7.650
 3484POPC   NC3 5891  16.713   6.680   9.450
 3484POPC   PO4 5892  16.696   6.612   9.150
 3484POPC   GL1 5893  16.743   6.663   8.850
 3484POPC   GL2 5894  16.723   6.560   8.850
 3484POPC   C1A 5895  16.766   6.613   8.550
 3484POPC   D2A 5896  16.744   6.616   8.250
 3484POPC   C3A 5897  16.769   6.640   7.950
 3484POPC   C4A 5898  16.690   6.649   7.650
 3484POPC   C1B 5899  16.701   6.418   8.550
 3484POPC   C2B 5900  16.653   6.409   8.250
 3484POPC   C3B 5901  16.631   6.403   7.950
 3484POPC   C4B 5902  16.618   6.383   7.650
 3485POPC   NC3 5903   6.625  33.805   9.450
 3485POPC   PO4 5904   6.642  33.770   9.150
 3485POPC   GL1 5905   6.678  33.799   8.850
 3485POPC   GL2 5906   6.812  33.826   8.850
 3485POPC   C1A 5907   6.687  33.810   8.550
 3485POPC   D2A 5908   6.662  33.803   8.250
 3485POPC   C3A 5909   6.651  33.751   7.950
 3485POPC   C4A 5910   6.647  33.824   7.650
 3485POPC   C1B 5911   6.866  33.886   8.550
 3485POPC   C2B 5912   6.931  33.875   8.250
 3485POPC   C3B 5913   6.872  33.878   7.950
 3485POPC   C4B 5914   6.938  33.882   7.650
 3486POPC   NC3 5915  29.133  25.234   9.450
 3486POPC   PO4 5916  29.149  25.263   9.150
 3486POPC   GL1 5917  29.145  25.282   8.850
 3486POPC   GL2 5918  29.221  25.357   8.850
 3486POPC   C1A 5919  29.184  25.226   8.550
 3486POPC   D2A 5920  29.131  25.272   8.250
 3486POPC   C3A 5921  29.178  25.289   7.950
 3486POPC   C4A 5922  29.112  25.310   7.650
 3486POPC   C1B 5923  29.376  25.408   8.550
 3486POPC   C2B 5924  29.281  25.390   8.250
 3486POPC   C3B 5925  29.347  25.421   7.950
 3486POPC   C4B 5926  29.341  25.439   7.650
 3487POPC   NC3 5927  43.148  29.098   9.450
 3487POPC   PO4 5928  43.094  29.144   9.150
 3487POPC   GL1 5929  43.111  29.123   8.850
 3487POPC   GL2 5930  43.214  29.180   8.850
 3487POPC   C1A 5931  43.151  29.124   8.550
 3487POPC   D2A 5932  43.142  29.107   8.250
 3487POPC   C3A 5933  43.120  29.189   7.950
 3487POPC   C4A 5934  43.149  29.177   7.650
 3487POPC   C1B 5935  43.391  29.108   8.550
 3487POPC   C2B 5936  43.387  29.146   8.250
 3487POPC   C3B 5937  43.387  29.173   7.950
 3487POPC   C4B 5938  43.361  29.141   7.650
 3488POPC   NC3 5939  24.540  24.440   9.450
 3488POPC   PO4 5940  24.511  24.444   9.150
 3488POPC   GL1 5941  24.506  24.495   8.850
 3488POPC   GL2 5942  24.411  24.401   8.850
 3488POPC   C1A 5943  24.529  24.503   8.550
 3488POPC   D2A 5944  24.520  24.453   8.250
 3488POPC   C3A 5945  24.490  24.537   7.950
 3488POPC   C4A 5946  24.528  24.494   7.650
 3488POPC   C1B 5947  24.229  24.395   8.550
 3488POPC   C2B 5948  24.209  24.378   8.250
 3488POPC   C3B 5949  24.216  24.410   7.950
 3488POPC   C4B 5950  24.246  24.394   7.650
 3489POPC   NC3 5951  12.056  35.325   9.450
 3489POPC   PO4 5952  12.116  35.354   9.150
 3489POPC   GL1 5953  12.084  35.309   8.850
 3489POPC   GL2 5954  12.180  35.268   8.850
 3489POPC   C1A 5955  12.058  35.362   8.550
 3489POPC   D2A 5956  12.044  35.364   8.250
 3489POPC   C3A 5957  12.060  35.380   7.950
 3489POPC   C4A 5958  12.026  35.367   7.650
 3489POPC   C1B 5959  12.202  35.109   8.550
 3489POPC   C2B 5960  12.258  35.189   8.250
 3489POPC   C3B 5961  12.237  35.142   7.950
 3489POPC   C4B 5962  12.269  35.153   7.650
 3490POPC   NC3 5963  29.184  38.418   9.450
 3490POPC   PO4 5964  29.174  38.464   9.150
 3490POPC   GL1 5965  29.125  38.435   8.850
 3490POPC   GL2 5966  29.070  38.374   8.850
 3490POPC   C1A 5967  29.114  38.501   8.550
 3490POPC   D2A 5968  29.142  38.490   8.250
 3490POPC   C3A 5969  29.171  38.499   7.950
 3490POPC   C4A 5970  29.189  38.483   7.650
 3490POPC   C1B 5971  29.040  38.278   8.550
 3490POPC   C2B 5972  29.075  38.258   8.250
 3490POPC   C3B 5973  29.063  38.209   7.950
 3490POPC   C4B 5974  29.062  38.187   7.650
 3491POPC   NC3 5975  15.917  15.212   9.450
 3491POPC   PO4 5976  15.980  15.178   9.150
 3491POPC   GL1 5977  15.934  15.165   8.850
 3491POPC   GL2 5978  15.929  15.254   8.850
 3491POPC   C1A 5979  15.960  15.163   8.550
 3491POPC   D2A 5980  15.949  15.209   8.250
 3491POPC   C3A 5981  15.959  15.180   7.950
 3491POPC   C4A 5982  15.914  15.134   7.650
 3491POPC   C1B 5983  15.845  15.393   8.550
 3491POPC   C2B 5984  15.912  15.456   8.250
 3491POPC   C3B 5985  15.828  15.383   7.950
 3491POPC   C4B 5986  15.905  15.413   7.650
 3492POPC   NC3 5987  10.525  34.559   9.450
 3492POPC   PO4 5988  10.573  34.538   9.150
 3492POPC   GL1 5989  10.547  34.614   8.850
 3492POPC   GL2 5990  10.510  34.658   8.850
 3492POPC   C1A 5991  10.544  34.540   8.550
 3492POPC   D2A 5992  10.515  34.569   8.250
 3492POPC   C3A 5993  10.485  34.534   7.950
 3492POPC   C4A 5994  10.505  34.603   7.650
 3492POPC   C1B 5995  10.508  34.838   8.550
 3492POPC   C2B 5996  10.486  34.843   8.250
 3492POPC   C3B 5997  10.484  34.809   7.950
 3492POPC   C4B 5998  10.457  34.809   7.650
 3493POPC   NC3 5999   5.059   1.981   9.450
 3493POPC   PO4 6000   5.138   1.958   9.150
 3493POPC   GL1 6001   5.088   1.955   8.850
 3493POPC   GL2 6002   4.954   1.941   8.850
 3493POPC   C1A 6003   5.120   1.947   8.550
 3493POPC   D2A 6004   5.134   2.001   8.250
 3493POPC   C3A 6005   5.078   1.943   7.950
 3493POPC   C4A 6006   5.052   2.002   7.650
 3493POPC   C1B 6007   4.917   1.919   8.550
 3493POPC   C2B 6008   4.884   1.920   8.250
 3493POPC   C3B 6009   4.848   1.898   7.950
 3493POPC   C4B 6010   4.847   1.919   7.650
 3494POPC   NC3 6011  32.980  29.160   9.450
 3494POPC   PO4 6012  33.066  29.188   9.150
 3494POPC   GL1 6013  33.026  29.109   8.850
 3494POPC   GL2 6014  33.139  29.050   8.850
 3494POPC   C1A 6015  33.034  29.142   8.550
 3494POPC   D2A 6016  32.991  29.135   8.250
 3494POPC   C3A 6017  33.015  29.144   7.950
 3494POPC   C4A 6018  33.005  29.155   7.650
 3494POPC   C1B 6019  33.234  28.970   8.550
 3494POPC   C2B 6020  33.198  28.973   8.250
 3494POPC   C3B 6021  33.201  29.023   7.950
 3494POPC   C4B 6022  33.217  28.958   7.650
 3495POPC   NC3 6023   5.132  33.000   9.450
 3495POPC   PO4 6024   5.076  33.019   9.150
 3495POPC   GL1 6025   5.080  33.031   8.850
 3495POPC   GL2 6026   5.176  32.981   8.850
 3495POPC   C1A 6027   5.100  33.014   8.550
 3495POPC   D2A 6028   5.140  32.990   8.250
 3495POPC   C3A 6029   5.044  32.984   7.950
 3495POPC   C4A 6030   5.060  32.980   7.650
 3495POPC   C1B 6031   5.331  32.973   8.550
 3495POPC   C2B 6032   5.335  33.024   8.250
 3495POPC   C3B 6033   5.318  32.984   7.950
 3495POPC   C4B 6034   5.312  32.987   7.650
 3496POPC   NC3 6035  24.534  43.922   9.450
 3496POPC   PO4 6036  24.465  43.929   9.150
 3496POPC   GL1 6037  24.458  43.885   8.850
 3496POPC   GL2 6038  24.478  44.017   8.850
 3496POPC   C1A 6039  24.468  43.911   8.550
 3496POPC   D2A 6040  24.490  43.925   8.250
 3496POPC   C3A 6041  24.502  43.884   7.950
 3496POPC   C4A 6042  24.443  43.923   7.650
 3496POPC   C1B 6043  24.346  44.099   8.550
 3496POPC   C2B 6044  24.378  44.142   8.250
 3496POPC   C3B 6045  24.406  44.114   7.950
 3496POPC   C4B 6046  24.366  44.117   7.650
 3497POPC   NC3 6047  19.845  28.384   9.450
 3497POPC   PO4 6048  19.813  28.397   9.150
 3497POPC   GL1 6049  19.822  28.385   8.850
 3497POPC   GL2 6050  19.688  28.346   8.850
 3497POPC   C1A 6051  19.787  28.414   8.550
 3497POPC   D2A 6052  19.809  28.367   8.250
 3497POPC   C3A 6053  19.880  28.368   7.950
 3497POPC   C4A 6054  19.815  28.366   7.650
 3497POPC   C1B 6055  19.643  28.287   8.550
 3497POPC   C2B 6056  19.625  28.269   8.250
 3497POPC   C3B 6057  19.618  28.323   7.950
 3497POPC   C4B 6058  19.554  28.251   7.650
 3498POPC   NC3 6059  33.012  43.876   9.450
 3498POPC   PO4 6060  33.064  43.923   9.150
 3498POPC   GL1 6061  33.049  43.925   8.850
 3498POPC   GL2 6062  32.868  43.860   8.850
 3498POPC   C1A 6063  32.993  43.930   8.550
 3498POPC   D2A 6064  33.064  43.902   8.250
 3498POPC   C3A 6065  33.017  43.837   7.950
 3498POPC   C4A 6066  33.041  43.905   7.650
 3498POPC   C1B 6067  32.810  43.857   8.550
 3498POPC   C2B 6068  32.759  43.829   8.250
 3498POPC   C3B 6069  32.824  43.849   7.950
 3498POPC   C4B 6070  32.771  43.886   7.650
 3499POPC   NC3 6071  17.533  23.704   9.450
 3499POPC   PO4 6072  17.480  23.668   9.150
 3499POPC   GL1 6073  17.505  23.718   8.850
 3499POPC   GL2 6074  17.444  23.830   8.850
 3499POPC   C1A 6075  17.545  23.720   8.550
 3499POPC   D2A 6076  17.473  23.727   8.250
 3499POPC   C3A 6077  17.524  23.731   7.950
 3499POPC   C4A 6078  17.497  23.682   7.650
 3499POPC   C1B 6079  17.348  23.877   8.550
 3499POPC   C2B 6080  17.369  23.851   8.250
 3499POPC   C3B 6081  17.312  23.852   7.950
 3499POPC   C4B 6082  17.306  23.857   7.650
 3500POPC   NC3 6083  30.699  25.286   9.450
 3500POPC   PO4 6084  30.652  25.287   9.150
 3500POPC   GL1 6085  30.717  25.236   8.850
 3500POPC   GL2 6086  30.660  25.100   8.850
 3500POPC   C1A 6087  30.654  25.261   8.550
 3500POPC   D2A 6088  30.734  25.226   8.250
 3500POPC   C3A 6089  30.722  25.219   7.950
 3500POPC   C4A 6090  30.700  25.303   7.650
 3500POPC   C1B 6091  30.665  25.022   8.550
 3500POPC   C2B 6092  30.695  24.998   8.250
 3500POPC   C3B 6093  30.700  24.994   7.950
 3500POPC   C4B 6094  30.666  24.968   7.650
 3501POPC   NC3 6095   6.619  44.702   9.450
 3501POPC   PO4 6096   6.683  44.703   9.150
 3501POPC   GL1 6097   6.660  44.642   8.850
 3501POPC   GL2 6098   6.564  44.750   8.850
 3501POPC   C1A 6099   6.660  44.711   8.550
 3501POPC   D2A 6100   6.686  44.701   8.250
 3501POPC   C3A 6101   6.611  44.694   7.950
 3501POPC   C4A 6102   6.600  44.711   7.650
 3501POPC   C1B 6103   6.532  44.875   8.550
 3501POPC   C2B 6104   6.519  44.868   8.250
 3501POPC   C3B 6105   6.572  44.926   7.950
 3501POPC   C4B 6106   6.535  44.889   7.650
 3502POPC   NC3 6107  18.245  26.080   9.450
 3502POPC   PO4 6108  18.245  26.083   9.150
 3502POPC   GL1 6109  18.321  26.053   8.850
 3502POPC   GL2 6110  18.376  26.047   8.850
 3502POPC   C1A 6111  18.316  25.996   8.550
 3502POPC   D2A 6112  18.314  25.995   8.250
 3502POPC   C3A 6113  18.317  26.039   7.950
 3502POPC   C4A 6114  18.247  26.026   7.650
 3502POPC   C1B 6115  18.555  26.137   8.550
 3502POPC   C2B 6116  18.544  26.095   8.250
 3502POPC   C3B 6117  18.533  26.130   7.950
 3502POPC   C4B 6118  18.557  26.098   7.650
 3503POPC   NC3 6119  36.133  21.340   9.450
 3503POPC   PO4 6120  36.172  21.358   9.150
 3503POPC   GL1 6121  36.146  21.436   8.850
 3503POPC   GL2 6122  36.002  21.498   8.850
 3503POPC   C1A 6123  36.091  21.405   8.550
 3503POPC   D2A 6124  36.163  21.400   8.250
 3503POPC   C3A 6125  36.137  21.421   7.950
 3503POPC   C4A 6126  36.094  21.345   7.650
 3503POPC   C1B 6127  35.920  21.610   8.550
 3503POPC   C2B 6128  35.994  21.548   8.250
 3503POPC   C3B 6129  35.982  21.532   7.950
 3503POPC   C4B 6130  36.003  21.523   7.650
 3504POPC   NC3 6131  32.215   9.008   9.450
 3504POPC   PO4 6132  32.285   8.950   9.150
 3504POPC   GL1 6133  32.207   9.002   8.850
 3504POPC   GL2 6134  32.213   9.112   8.850
 3504POPC   C1A 6135  32.212   8.934   8.550
 3504POPC   D2A 6136  32.215   8.976   8.250
 3504POPC   C3A 6137  32.235   8.991   7.950
 3504POPC   C4A 6138  32.277   8.998   7.650
 3504POPC   C1B 6139  32.242   9.259   8.550
 3504POPC   C2B 6140  32.232   9.187   8.250
 3504POPC   C3B 6141  32.224   9.205   7.950
 3504POPC   C4B 6142  32.264   9.248   7.650
 3505POPC   NC3 6143  16.719  21.371   9.450
 3505POPC   PO4 6144  16.749  21.379   9.150
 3505POPC   GL1 6145  16.770  21.382   8.850
 3505POPC   GL2 6146  16.643  21.303   8.850
 3505POPC   C1A 6147  16.753  21.406   8.550
 3505POPC   D2A 6148  16.707  21.413   8.250
 3505POPC   C3A 6149  16.734  21.395   7.950
 3505POPC   C4A 6150  16.739  21.409   7.650
 3505POPC   C1B 6151  16.554  21.178   8.550
 3505POPC   C2B 6152  16.580  21.200   8.250
 3505POPC   C3B 6153  16.541  21.205   7.950
 3505POPC   C4B 6154  16.612  21.164   7.650
 3506POPC   NC3 6155   2.734  37.672   9.450
 3506POPC   PO4 6156   2.738  37.688   9.150
 3506POPC   GL1 6157   2.778  37.712   8.850
 3506POPC   GL2 6158   2.911  37.662   8.850
 3506POPC   C1A 6159   2.815  37.641   8.550
 3506POPC   D2A 6160   2.740  37.642   8.250
 3506POPC   C3A 6161   2.732  37.671   7.950
 3506POPC   C4A 6162   2.814  37.712   7.650
 3506POPC   C1B 6163   3.003  37.561   8.550
 3506POPC   C2B 6164   3.010  37.624   8.250
 3506POPC   C3B 6165   2.996  37.592   7.950
 3506POPC   C4B 6166   3.050  37.602   7.650
 3507POPC   NC3 6167  27.548   1.956   9.450
 3507POPC   PO4 6168  27.564   1.995   9.150
 3507POPC   GL1 6169  27.616   2.005   8.850
 3507POPC   GL2 6170  27.555   1.862   8.850
 3507POPC   C1A 6171  27.604   1.976   8.550
 3507POPC   D2A 6172  27.552   1.987   8.250
 3507POPC   C3A 6173  27.630   1.976   7.950
 3507POPC   C4A 6174  27.580   1.996   7.650
 3507POPC   C1B 6175  27.634   1.777   8.550
 3507POPC   C2B 6176  27.583   1.740   8.250
 3507POPC   C3B 6177  27.607   1.720   7.950
 3507POPC   C4B 6178  27.655   1.779   7.650
 3508POPC   NC3 6179  16.754  20.585   9.450
 3508POPC   PO4 6180  16.735  20.659   9.150
 3508POPC   GL1 6181  16.760  20.654   8.850
 3508POPC   GL2 6182  16.799  20.681   8.850
 3508POPC   C1A 6183  16.779  20.640   8.550
 3508POPC   D2A 6184  16.776  20.564   8.250
 3508POPC   C3A 6185  16.764  20.589   7.950
 3508POPC   C4A 6186  16.743  20.624   7.650
 3508POPC   C1B 6187  16.852  20.829   8.550
 3508POPC   C2B 6188  16.940  20.832   8.250
 3508POPC   C3B 6189  16.939  20.818   7.950
 3508POPC   C4B 6190  16.895  20.843   7.650
 3509POPC   NC3 6191  44.647  21.373   9.450
 3509POPC   PO4 6192  44.711  21.354   9.150
 3509POPC   GL1 6193  44.665  21.405   8.850
 3509POPC   GL2 6194  44.618  21.301   8.850
 3509POPC   C1A 6195  44.635  21.363   8.550
 3509POPC   D2A 6196  44.708  21.388   8.250
 3509POPC   C3A 6197  44.658  21.381   7.950
 3509POPC   C4A 6198  44.700  21.360   7.650
 3509POPC   C1B 6199  44.489  21.220   8.550
 3509POPC   C2B 6200  44.537  21.168   8.250
 3509POPC   C3B 6201  44.466  21.205   7.950
 3509POPC   C4B 6202  44.472  21.229   7.650
 3510POPC   NC3 6203  15.155   5.127   9.450
 3510POPC   PO4 6204  15.168   5.101   9.150
 3510POPC   GL1 6205  15.197   5.123   8.850
 3510POPC   GL2 6206  15.251   5.161   8.850
 3510POPC   C1A 6207  15.185   5.131   8.550
 3510POPC   D2A 6208  15.163   5.069   8.250
 3510POPC   C3A 6209  15.159   5.134   7.950
 3510POPC   C4A 6210  15.132   5.141   7.650
 3510POPC   C1B 6211  15.335   5.265   8.550
 3510POPC   C2B 6212  15.313   5.336   8.250
 3510POPC   C3B 6213  15.327   5.262   7.950
 3510POPC   C4B 6214  15.335   5.322   7.650
 3511POPC   NC3 6215  18.274   6.668   9.450
 3511POPC   PO4 6216  18.272   6.666   9.150
 3511POPC   GL1 6217  18.284   6.637   8.850
 3511POPC   GL2 6218  18.202   6.649   8.850
 3511POPC   C1A 6219  18.319   6.635   8.550
 3511POPC   D2A 6220  18.274   6.639   8.250
 3511POPC   C3A 6221  18.278   6.607   7.950
 3511POPC   C4A 6222  18.273   6.660   7.650
 3511POPC   C1B 6223  18.046   6.626   8.550
 3511POPC   C2B 6224  18.083   6.616   8.250
 3511POPC   C3B 6225  18.040   6.552   7.950
 3511POPC   C4B 6226  18.055   6.581   7.650
 3512POPC   NC3 6227   7.468   7.411   9.450
 3512POPC   PO4 6228   7.428   7.469   9.150
 3512POPC   GL1 6229   7.456   7.386   8.850
 3512POPC   GL2 6230   7.420   7.329   8.850
 3512POPC   C1A 6231   7.454   7.427   8.550
 3512POPC   D2A 6232   7.411   7.382   8.250
 3512POPC   C3A 6233   7.385   7.378   7.950
 3512POPC   C4A 6234   7.423   7.371   7.650
 3512POPC   C1B 6235   7.288   7.204   8.550
 3512POPC   C2B 6236   7.346   7.150   8.250
 3512POPC   C3B 6237   7.330   7.154   7.950
 3512POPC   C4B 6238   7.342   7.180   7.650
 3513POPC   NC3 6239   8.989  28.365   9.450
 3513POPC   PO4 6240   8.925  28.388   9.150
 3513POPC   GL1 6241   8.985  28.340   8.850
 3513POPC   GL2 6242   8.949  28.211   8.850
 3513POPC   C1A 6243   9.017  28.397   8.550
 3513POPC   D2A 6244   8.936  28.387   8.250
 3513POPC   C3A 6245   9.018  28.404   7.950
 3513POPC   C4A 6246   8.984  28.358   7.650
 3513POPC   C1B 6247   8.867  28.118   8.550
 3513POPC   C2B 6248   8.898  28.160   8.250
 3513POPC   C3B 6249   8.901  28.152   7.950
 3513POPC   C4B 6250   8.903  28.106   7.650
 3514POPC   NC3 6251  23.719  12.054   9.450
 3514POPC   PO4 6252  23.745  12.098   9.150
 3514POPC   GL1 6253  23.705  12.056   8.850
 3514POPC   GL2 6254  23.859  12.069   8.850
 3514POPC   C1A 6255  23.724  12.123   8.550
 3514POPC   D2A 6256  23.667  12.111   8.250
 3514POPC   C3A 6257  23.735  12.040   7.950
 3514POPC   C4A 6258  23.684  12.059   7.650
 3514POPC   C1B 6259  23.982  12.024   8.550
 3514POPC   C2B 6260  23.979  12.033   8.250
 3514POPC   C3B 6261  24.005  12.039   7.950
 3514POPC   C4B 6262  23.933  11.989   7.650
 3515POPC   NC3 6263  33.801  41.541   9.450
 3515POPC   PO4 6264  33.850  41.512   9.150
 3515POPC   GL1 6265  33.779  41.588   8.850
 3515POPC   GL2 6266  33.754  41.467   8.850
 3515POPC   C1A 6267  33.827  41.565   8.550
 3515POPC   D2A 6268  33.791  41.537   8.250
 3515POPC   C3A 6269  33.844  41.577   7.950
 3515POPC   C4A 6270  33.847  41.520   7.650
 3515POPC   C1B 6271  33.685  41.348   8.550
 3515POPC   C2B 6272  33.699  41.323   8.250
 3515POPC   C3B 6273  33.711  41.354   7.950
 3515POPC   C4B 6274  33.636  41.329   7.650
 3516POPC   NC3 6275  30.734  26.793   9.450
 3516POPC   PO4 6276  30.648  26.853   9.150
 3516POPC   GL1 6277  30.726  26.848   8.850
 3516POPC   GL2 6278  30.842  26.710   8.850
 3516POPC   C1A 6279  30.656  26.779   8.550
 3516POPC   D2A 6280  30.698  26.838   8.250
 3516POPC   C3A 6281  30.733  26.787   7.950
 3516POPC   C4A 6282  30.677  26.801   7.650
 3516POPC   C1B 6283  30.923  26.678   8.550
 3516POPC   C2B 6284  30.840  26.679   8.250
 3516POPC   C3B 6285  30.841  26.694   7.950
 3516POPC   C4B 6286  30.934  26.636   7.650
 3517POPC   NC3 6287  13.629   5.912   9.450
 3517POPC   PO4 6288  13.636   5.909   9.150
 3517POPC   GL1 6289  13.649   5.837   8.850
 3517POPC   GL2 6290  13.672   5.797   8.850
 3517POPC   C1A 6291  13.610   5.908   8.550
 3517POPC   D2A 6292  13.609   5.857   8.250
 3517POPC   C3A 6293  13.589   5.864   7.950
 3517POPC   C4A 6294  13.599   5.901   7.650
 3517POPC   C1B 6295  13.748   5.733   8.550
 3517POPC   C2B 6296  13.775   5.726   8.250
 3517POPC   C3B 6297  13.769   5.639   7.950
 3517POPC   C4B 6298  13.821   5.726   7.650
 3518POPC   NC3 6299  40.773  29.188   9.450
 3518POPC   PO4 6300  40.767  29.138   9.150
 3518POPC   GL1 6301  40.755  29.145   8.850
 3518POPC   GL2 6302  40.723  29.120   8.850
 3518POPC   C1A 6303  40.818  29.130   8.550
 3518POPC   D2A 6304  40.792  29.183   8.250
 3518POPC   C3A 6305  40.748  29.126   7.950
 3518POPC   C4A 6306  40.783  29.125   7.650
 3518POPC   C1B 6307  40.519  29.011   8.550
 3518POPC   C2B 6308  40.547  29.070   8.250
 3518POPC   C3B 6309  40.557  29.051   7.950
 3518POPC   C4B 6310  40.593  29.021   7.650
 3519POPC   NC3 6311  15.205   5.861   9.450
 3519POPC   PO4 6312  15.156   5.870   9.150
 3519POPC   GL1 6313  15.225   5.846   8.850
 3519POPC   GL2 6314  15.324   5.853   8.850
 3519POPC   C1A 6315  15.226   5.821   8.550
 3519POPC   D2A 6316  15.218   5.841   8.250
 3519POPC   C3A 6317  15.188   5.886   7.950
 3519POPC   C4A 6318  15.228   5.887   7.650
 3519POPC   C1B 6319  15.426   5.775   8.550
 3519POPC   C2B 6320  15.387   5.760   8.250
 3519POPC   C3B 6321  15.388   5.826   7.950
 3519POPC   C4B 6322  15.422   5.814   7.650
 3520POPC   NC3 6323  11.336  15.190   9.450
 3520POPC   PO4 6324  11.264  15.131   9.150
 3520POPC   GL1 6325  11.266  15.228   8.850
 3520POPC   GL2 6326  11.246  15.096   8.850
 3520POPC   C1A 6327  11.269  15.190   8.550
 3520POPC   D2A 6328  11.294  15.191   8.250
 3520POPC   C3A 6329  11.298  15.135   7.950
 3520POPC   C4A 6330  11.325  15.140   7.650
 3520POPC   C1B 6331  11.245  14.934   8.550
 3520POPC   C2B 6332  11.314  14.959   8.250
 3520POPC   C3B 6333  11.219  14.891   7.950
 3520POPC   C4B 6334  11.235  14.971   7.650
 3521POPC   NC3 6335  35.358  35.316   9.450
 3521POPC   PO4 6336  35.356  35.317   9.150
 3521POPC   GL1 6337  35.325  35.334   8.850
 3521POPC   GL2 6338  35.504  35.384   8.850
 3521POPC   C1A 6339  35.349  35.330   8.550
 3521POPC   D2A 6340  35.328  35.384   8.250
 3521POPC   C3A 6341  35.303  35.344   7.950
 3521POPC   C4A 6342  35.373  35.355   7.650
 3521POPC   C1B 6343  35.595  35.454   8.550
 3521POPC   C2B 6344  35.592  35.500   8.250
 3521POPC   C3B 6345  35.591  35.473   7.950
 3521POPC   C4B 6346  35.600  35.469   7.650
 3522POPC   NC3 6347  29.110  36.089   9.450
 3522POPC   PO4 6348  29.108  36.112   9.150
 3522POPC   GL1 6349  29.173  36.175   8.850
 3522POPC   GL2 6350  29.243  36.205   8.850
 3522POPC   C1A 6351  29.160  36.115   8.550
 3522POPC   D2A 6352  29.195  36.128   8.250
 3522POPC   C3A 6353  29.106  36.096   7.950
 3522POPC   C4A 6354  29.112  36.081   7.650
 3522POPC   C1B 6355  29.418  36.174   8.550
 3522POPC   C2B 6356  29.382  36.195   8.250
 3522POPC   C3B 6357  29.408  36.214   7.950
 3522POPC   C4B 6358  29.414  36.250   7.650
 3523POPC   NC3 6359   5.100  30.680   9.450
 3523POPC   PO4 6360   5.141  30.656   9.150
 3523POPC   GL1 6361   5.134  30.720   8.850
 3523POPC   GL2 6362   5.154  30.817   8.850
 3523POPC   C1A 6363   5.060  30.670   8.550
 3523POPC   D2A 6364   5.090  30.676   8.250
 3523POPC   C3A 6365   5.128  30.663   7.950
 3523POPC   C4A 6366   5.084  30.701   7.650
 3523POPC   C1B 6367   5.320  30.881   8.550
 3523POPC   C2B 6368   5.326  30.869   8.250
 3523POPC   C3B 6369   5.312  30.853   7.950
 3523POPC   C4B 6370   5.255  30.825   7.650
 3524POPC   NC3 6371   2.720  42.335   9.450
 3524POPC   PO4 6372   2.735  42.330   9.150
 3524POPC   GL1 6373   2.731  42.342   8.850
 3524POPC   GL2 6374   2.694  42.456   8.850
 3524POPC   C1A 6375   2.720  42.300   8.550
 3524POPC   D2A 6376   2.728  42.350   8.250
 3524POPC   C3A 6377   2.807  42.320   7.950
 3524POPC   C4A 6378   2.752  42.383   7.650
 3524POPC   C1B 6379   2.593  42.445   8.550
 3524POPC   C2B 6380   2.565  42.526   8.250
 3524POPC   C3B 6381   2.539  42.483   7.950
 3524POPC   C4B 6382   2.612  42.448   7.650
 3525POPC   NC3 6383   3.585  40.000   9.450
 3525POPC   PO4 6384   3.579  40.024   9.150
 3525POPC   GL1 6385   3.541  40.026   8.850
 3525POPC   GL2 6386   3.478  40.110   8.850
 3525POPC   C1A 6387   3.511  40.024   8.550
 3525POPC   D2A 6388   3.534  39.967   8.250
 3525POPC   C3A 6389   3.570  39.965   7.950
 3525POPC   C4A 6390   3.494  39.995   7.650
 3525POPC   C1B 6391   3.417  40.285   8.550
 3525POPC   C2B 6392   3.407  40.270   8.250
 3525POPC   C3B 6393   3.445  40.269   7.950
 3525POPC   C4B 6394   3.414  40.253   7.650
 3526POPC   NC3 6395  14.433  43.901   9.450
 3526POPC   PO4 6396  14.444  43.894   9.150
 3526POPC   GL1 6397  14.389  43.863   8.850
 3526POPC   GL2 6398  14.235  43.828   8.850
 3526POPC   C1A 6399  14.374  43.921   8.550
 3526POPC   D2A 6400  14.453  43.839   8.250
 3526POPC   C3A 6401  14.439  43.876   7.950
 3526POPC   C4A 6402  14.431  43.912   7.650
 3526POPC   C1B 6403  14.165  43.883   8.550
 3526POPC   C2B 6404  14.135  43.858   8.250
 3526POPC   C3B 6405  14.177  43.890   7.950
 3526POPC   C4B 6406  14.182  43.846   7.650
 3527POPC   NC3 6407  23.722   7.397   9.450
 3527POPC   PO4 6408  23.670   7.380   9.150
 3527POPC   GL1 6409  23.671   7.470   8.850
 3527POPC   GL2 6410  23.695   7.291   8.850
 3527POPC   C1A 6411  23.680   7.380   8.550
 3527POPC   D2A 6412  23.748   7.428   8.250
 3527POPC   C3A 6413  23.699   7.376   7.950
 3527POPC   C4A 6414  23.713   7.434   7.650
 3527POPC   C1B 6415  23.733   7.200   8.550
 3527POPC   C2B 6416  23.720   7.130   8.250
 3527POPC   C3B 6417  23.683   7.194   7.950
 3527POPC   C4B 6418  23.679   7.123   7.650
 3528POPC   NC3 6419   3.553  19.053   9.450
 3528POPC   PO4 6420   3.493  19.070   9.150
 3528POPC   GL1 6421   3.542  19.043   8.850
 3528POPC   GL2 6422   3.607  19.196   8.850
 3528POPC   C1A 6423   3.586  19.057   8.550
 3528POPC   D2A 6424   3.547  19.018   8.250
 3528POPC   C3A 6425   3.520  19.052   7.950
 3528POPC   C4A 6426   3.532  19.102   7.650
 3528POPC   C1B 6427   3.732  19.244   8.550
 3528POPC   C2B 6428   3.646  19.261   8.250
 3528POPC   C3B 6429   3.681  19.258   7.950
 3528POPC   C4B 6430   3.691  19.232   7.650
 3529POPC   NC3 6431  34.612  23.694   9.450
 3529POPC   PO4 6432  34.623  23.691   9.150
 3529POPC   GL1 6433  34.554  23.737   8.850
 3529POPC   GL2 6434  34.555  23.861   8.850
 3529POPC   C1A 6435  34.580  23.733   8.550
 3529POPC   D2A 6436  34.560  23.704   8.250
 3529POPC   C3A 6437  34.548  23.736   7.950
 3529POPC   C4A 6438  34.614  23.736   7.650
 3529POPC   C1B 6439  34.456  23.955   8.550
 3529POPC   C2B 6440  34.503  23.984   8.250
 3529POPC   C3B 6441  34.423  23.954   7.950
 3529POPC   C4B 6442  34.464  23.922   7.650
 3530POPC   NC3 6443  12.847   7.375   9.450
 3530POPC   PO4 6444  12.871   7.440   9.150
 3530POPC   GL1 6445  12.871   7.372   8.850
 3530POPC   GL2 6446  12.713   7.362   8.850
 3530POPC   C1A 6447  12.858   7.398   8.550
 3530POPC   D2A 6448  12.854   7.427   8.250
 3530POPC   C3A 6449  12.814   7.427   7.950
 3530POPC   C4A 6450  12.871   7.448   7.650
 3530POPC   C1B 6451  12.607   7.330   8.550
 3530POPC   C2B 6452  12.627   7.292   8.250
 3530POPC   C3B 6453  12.652   7.271   7.950
 3530POPC   C4B 6454  12.646   7.255   7.650
 3531POPC   NC3 6455  33.025  23.719   9.450
 3531POPC   PO4 6456  33.024  23.717   9.150
 3531POPC   GL1 6457  33.020  23.722   8.850
 3531POPC   GL2 6458  33.018  23.867   8.850
 3531POPC   C1A 6459  33.012  23.696   8.550
 3531POPC   D2A 6460  33.050  23.719   8.250
 3531POPC   C3A 6461  32.996  23.701   7.950
 3531POPC   C4A 6462  33.012  23.699   7.650
 3531POPC   C1B 6463  32.935  23.958   8.550
 3531POPC   C2B 6464  32.919  23.903   8.250
 3531POPC   C3B 6465  32.902  23.944   7.950
 3531POPC   C4B 6466  32.939  23.892   7.650
 3532POPC   NC3 6467   6.596  12.847   9.450
 3532POPC   PO4 6468   6.611  12.863   9.150
 3532POPC   GL1 6469   6.686  12.830   8.850
 3532POPC   GL2 6470   6.550  12.870   8.850
 3532POPC   C1A 6471   6.651  12.877   8.550
 3532POPC   D2A 6472   6.647  12.803   8.250
 3532POPC   C3A 6473   6.682  12.834   7.950
 3532POPC   C4A 6474   6.646  12.829   7.650
 3532POPC   C1B 6475   6.360  12.870   8.550
 3532POPC   C2B 6476   6.445  12.871   8.250
 3532POPC   C3B 6477   6.418  12.871   7.950
 3532POPC   C4B 6478   6.441  12.873   7.650
 3533POPC   NC3 6479  29.959  26.780   9.450
 3533POPC   PO4 6480  29.880  26.852   9.150
 3533POPC   GL1 6481  29.904  26.800   8.850
 3533POPC   GL2 6482  29.790  26.717   8.850
 3533POPC   C1A 6483  29.892  26.780   8.550
 3533POPC   D2A 6484  29.963  26.775   8.250
 3533POPC   C3A 6485  29.960  26.839   7.950
 3533POPC   C4A 6486  29.892  26.787   7.650
 3533POPC   C1B 6487  29.767  26.612   8.550
 3533POPC   C2B 6488  29.792  26.597   8.250
 3533POPC   C3B 6489  29.715  26.602   7.950
 3533POPC   C4B 6490  29.781  26.599   7.650
 3534POPC   NC3 6491  39.983  40.046   9.450
 3534POPC   PO4 6492  40.030  39.985   9.150
 3534POPC   GL1 6493  40.029  40.006   8.850
 3534POPC   GL2 6494  40.149  40.063   8.850
 3534POPC   C1A 6495  40.003  39.967   8.550
 3534POPC   D2A 6496  40.021  39.972   8.250
 3534POPC   C3A 6497  39.979  40.056   7.950
 3534POPC   C4A 6498  40.057  40.053   7.650
 3534POPC   C1B 6499  40.277  40.034   8.550
 3534POPC   C2B 6500  40.270  40.052   8.250
 3534POPC   C3B 6501  40.241  40.109   7.950
 3534POPC   C4B 6502  40.261  40.040   7.650
 3535POPC   NC3 6503  14.434  15.907   9.450
 3535POPC   PO4 6504  14.419  15.940   9.150
 3535POPC   GL1 6505  14.398  15.930   8.850
 3535POPC   GL2 6506  14.442  16.059   8.850
 3535POPC   C1A 6507  14.429  15.962   8.550
 3535POPC   D2A 6508  14.421  15.933   8.250
 3535POPC   C3A 6509  14.434  15.923   7.950
 3535POPC   C4A 6510  14.360  15.973   7.650
 3535POPC   C1B 6511  14.480  16.211   8.550
 3535POPC   C2B 6512  14.483  16.174   8.250
 3535POPC   C3B 6513  14.463  16.175   7.950
 3535POPC   C4B 6514  14.498  16.226   7.650
 3536POPC   NC3 6515  25.999  22.901   9.450
 3536POPC   PO4 6516  26.004  22.923   9.150
 3536POPC   GL1 6517  26.003  22.972   8.850
 3536POPC   GL2 6518  25.948  22.837   8.850
 3536POPC   C1A 6519  26.069  22.958   8.550
 3536POPC   D2A 6520  26.046  22.965   8.250
 3536POPC   C3A 6521  26.022  22.945   7.950
 3536POPC   C4A 6522  26.039  22.975   7.650
 3536POPC   C1B 6523  25.899  22.776   8.550
 3536POPC   C2B 6524  25.911  22.798   8.250
 3536POPC   C3B 6525  25.847  22.790   7.950
 3536POPC   C4B 6526  25.916  22.733   7.650
 3537POPC   NC3 6527  38.428  28.344   9.450
 3537POPC   PO4 6528  38.484  28.390   9.150
 3537POPC   GL1 6529  38.473  28.417   8.850
 3537POPC   GL2 6530  38.382  28.256   8.850
 3537POPC   C1A 6531  38.437  28.333   8.550
 3537POPC   D2A 6532  38.427  28.350   8.250
 3537POPC   C3A 6533  38.464  28.334   7.950
 3537POPC   C4A 6534  38.502  28.355   7.650
 3537POPC   C1B 6535  38.317  28.144   8.550
 3537POPC   C2B 6536  38.323  28.199   8.250
 3537POPC   C3B 6537  38.323  28.145   7.950
 3537POPC   C4B 6538  38.337  28.121   7.650
 3538POPC   NC3 6539  43.842  16.701   9.450
 3538POPC   PO4 6540  43.928  16.750   9.150
 3538POPC   GL1 6541  43.930  16.717   8.850
 3538POPC   GL2 6542  43.793  16.729   8.850
 3538POPC   C1A 6543  43.853  16.768   8.550
 3538POPC   D2A 6544  43.885  16.773   8.250
 3538POPC   C3A 6545  43.845  16.693   7.950
 3538POPC   C4A 6546  43.921  16.740   7.650
 3538POPC   C1B 6547  43.614  16.720   8.550
 3538POPC   C2B 6548  43.630  16.778   8.250
 3538POPC   C3B 6549  43.631  16.762   7.950
 3538POPC   C4B 6550  43.598  16.761   7.650
 3539POPC   NC3 6551  18.237  13.614   9.450
 3539POPC   PO4 6552  18.313  13.617   9.150
 3539POPC   GL1 6553  18.255  13.596   8.850
 3539POPC   GL2 6554  18.337  13.780   8.850
 3539POPC   C1A 6555  18.304  13.580   8.550
 3539POPC   D2A 6556  18.328  13.591   8.250
 3539POPC   C3A 6557  18.282  13.655   7.950
 3539POPC   C4A 6558  18.286  13.582   7.650
 3539POPC   C1B 6559  18.387  13.800   8.550
 3539POPC   C2B 6560  18.412  13.895   8.250
 3539POPC   C3B 6561  18.402  13.895   7.950
 3539POPC   C4B 6562  18.396  13.887   7.650
 3540POPC   NC3 6563   2.775  23.710   9.450
 3540POPC   PO4 6564   2.749  23.677   9.150
 3540POPC   GL1 6565   2.805  23.755   8.850
 3540POPC   GL2 6566   2.896  23.819   8.850
 3540POPC   C1A 6567   2.731  23.715   8.550
 3540POPC   D2A 6568   2.752  23.666   8.250
 3540POPC   C3A 6569   2.803  23.680   7.950
 3540POPC   C4A 6570   2.730  23.755   7.650
 3540POPC   C1B 6571   3.018  23.833   8.550
 3540POPC   C2B 6572   3.020  23.825   8.250
 3540POPC   C3B 6573   2.981  23.815   7.950
 3540POPC   C4B 6574   2.991  23.867   7.650
 3541POPC   NC3 6575  36.098  35.330   9.450
 3541POPC   PO4 6576  36.175  35.399   9.150
 3541POPC   GL1 6577  36.090  35.347   8.850
 3541POPC   GL2 6578  36.264  35.336   8.850
 3541POPC   C1A 6579  36.083  35.362   8.550
 3541POPC   D2A 6580  36.107  35.344   8.250
 3541POPC   C3A 6581  36.129  35.333   7.950
 3541POPC   C4A 6582  36.175  35.358   7.650
 3541POPC   C1B 6583  36.344  35.205   8.550
 3541POPC   C2B 6584  36.315  35.282   8.250
 3541POPC   C3B 6585  36.377  35.278   7.950
 3541POPC   C4B 6586  36.391  35.209   7.650
 3542POPC   NC3 6587  44.667  35.331   9.450
 3542POPC   PO4 6588  44.670  35.304   9.150
 3542POPC   GL1 6589  44.696  35.353   8.850
 3542POPC   GL2 6590  44.727  35.438   8.850
 3542POPC   C1A 6591  44.632  35.342   8.550
 3542POPC   D2A 6592  44.701  35.331   8.250
 3542POPC   C3A 6593  44.695  35.306   7.950
 3542POPC   C4A 6594  44.658  35.305   7.650
 3542POPC   C1B 6595  44.681  35.567   8.550
 3542POPC   C2B 6596  44.668  35.625   8.250
 3542POPC   C3B 6597  44.745  35.622   7.950
 3542POPC   C4B 6598  44.748  35.599   7.650
 3543POPC   NC3 6599   9.778  29.160   9.450
 3543POPC   PO4 6600   9.736  29.106   9.150
 3543POPC   GL1 6601   9.712  29.146   8.850
 3543POPC   GL2 6602   9.845  29.084   8.850
 3543POPC   C1A 6603   9.701  29.130   8.550
 3543POPC   D2A 6604   9.739  29.108   8.250
 3543POPC   C3A 6605   9.700  29.186   7.950
 3543POPC   C4A 6606   9.747  29.123   7.650
 3543POPC   C1B 6607   9.925  28.975   8.550
 3543POPC   C2B 6608  10.003  29.006   8.250
 3543POPC   C3B 6609   9.999  28.971   7.950
 3543POPC   C4B 6610  10.007  28.973   7.650
 3544POPC   NC3 6611   5.055  26.059   9.450
 3544POPC   PO4 6612   5.120  26.000   9.150
 3544POPC   GL1 6613   5.060  26.087   8.850
 3544POPC   GL2 6614   4.986  26.172   8.850
 3544POPC   C1A 6615   5.113  26.004   8.550
 3544POPC   D2A 6616   5.056  26.045   8.250
 3544POPC   C3A 6617   5.119  26.082   7.950
 3544POPC   C4A 6618   5.073  26.083   7.650
 3544POPC   C1B 6619   5.002  26.223   8.550
 3544POPC   C2B 6620   4.989  26.237   8.250
 3544POPC   C3B 6621   4.949  26.258   7.950
 3544POPC   C4B 6622   4.972  26.260   7.650
 3545POPC   NC3 6623   8.942  12.891   9.450
 3545POPC   PO4 6624   8.952  12.888   9.150
 3545POPC   GL1 6625   8.934  12.856   8.850
 3545POPC   GL2 6626   8.904  12.889   8.850
 3545POPC   C1A 6627   8.949  12.863   8.550
 3545POPC   D2A 6628   9.016  12.804   8.250
 3545POPC   C3A 6629   8.942  12.858   7.950
 3545POPC   C4A 6630   9.004  12.898   7.650
 3545POPC   C1B 6631   8.718  12.994   8.550
 3545POPC   C2B 6632   8.716  12.929   8.250
 3545POPC   C3B 6633   8.796  12.975   7.950
 3545POPC   C4B 6634   8.780  12.963   7.650
 3546POPC   NC3 6635  30.676   0.391   9.450
 3546POPC   PO4 6636  30.672   0.396   9.150
 3546POPC   GL1 6637  30.674   0.401   8.850
 3546POPC   GL2 6638  30.592   0.350   8.850
 3546POPC   C1A 6639  30.743   0.468   8.550
 3546POPC   D2A 6640  30.740   0.425   8.250
 3546POPC   C3A 6641  30.674   0.405   7.950
 3546POPC   C4A 6642  30.722   0.471   7.650
 3546POPC   C1B 6643  30.603   0.208   8.550
 3546POPC   C2B 6644  30.585   0.209   8.250
 3546POPC   C3B 6645  30.533   0.224   7.950
 3546POPC   C4B 6646  30.559   0.236   7.650
 3547POPC   NC3 6647  40.800  16.727   9.450
 3547POPC   PO4 6648  40.754  16.762   9.150
 3547POPC   GL1 6649  40.829  16.682   8.850
 3547POPC   GL2 6650  40.798  16.827   8.850
 3547POPC   C1A 6651  40.812  16.763   8.550
 3547POPC   D2A 6652  40.819  16.693   8.250
 3547POPC   C3A 6653  40.811  16.731   7.950
 3547POPC   C4A 6654  40.769  16.694   7.650
 3547POPC   C1B 6655  40.796  17.021   8.550
 3547POPC   C2B 6656  40.772  16.952   8.250
 3547POPC   C3B 6657  40.801  16.963   7.950
 3547POPC   C4B 6658  40.776  16.966   7.650
 3548POPC   NC3 6659  40.055  10.548   9.450
 3548POPC   PO4 6660  39.968  10.499   9.150
 3548POPC   GL1 6661  39.992  10.546   8.850
 3548POPC   GL2 6662  40.089  10.466   8.850
 3548POPC   C1A 6663  40.003  10.560   8.550
 3548POPC   D2A 6664  40.035  10.484   8.250
 3548POPC   C3A 6665  40.048  10.480   7.950
 3548POPC   C4A 6666  40.033  10.573   7.650
 3548POPC   C1B 6667  40.279  10.462   8.550
 3548POPC   C2B 6668  40.245  10.432   8.250
 3548POPC   C3B 6669  40.225  10.414   7.950
 3548POPC   C4B 6670  40.222  10.381   7.650
 3549POPC   NC3 6671  11.254  39.223   9.450
 3549POPC   PO4 6672  11.346  39.220   9.150
 3549POPC   GL1 6673  11.280  39.231   8.850
 3549POPC   GL2 6674  11.230  39.157   8.850
 3549POPC   C1A 6675  11.264  39.270   8.550
 3549POPC   D2A 6676  11.272  39.186   8.250
 3549POPC   C3A 6677  11.323  39.215   7.950
 3549POPC   C4A 6678  11.339  39.229   7.650
 3549POPC   C1B 6679  11.169  39.067   8.550
 3549POPC   C2B 6680  11.175  39.038   8.250
 3549POPC   C3B 6681  11.209  39.032   7.950
 3549POPC   C4B 6682  11.169  38.995   7.650
 3550POPC   NC3 6683  12.063  24.444   9.450
 3550POPC   PO4 6684  12.124  24.534   9.150
 3550POPC   GL1 6685  12.027  24.444   8.850
 3550POPC   GL2 6686  12.115  24.365   8.850
 3550POPC   C1A 6687  12.052  24.535   8.550
 3550POPC   D2A 6688  12.109  24.501   8.250
 3550POPC   C3A 6689  12.119  24.458   7.950
 3550POPC   C4A 6690  12.042  24.484   7.650
 3550POPC   C1B 6691  12.101  24.250   8.550
 3550POPC   C2B 6692  12.013  24.269   8.250
 3550POPC   C3B 6693  12.042  24.266   7.950
 3550POPC   C4B 6694  12.090  24.211   7.650
 3551POPC   NC3 6695  37.663  41.557   9.450
 3551POPC   PO4 6696  37.642  41.551   9.150
 3551POPC   GL1 6697  37.634  41.536   8.850
 3551POPC   GL2 6698  37.832  41.584   8.850
 3551POPC   C1A 6699  37.687  41.521   8.550
 3551POPC   D2A 6700  37.676  41.590   8.250
 3551POPC   C3A 6701  37.651  41.545   7.950
 3551POPC   C4A 6702  37.657  41.545   7.650
 3551POPC   C1B 6703  37.927  41.604   8.550
 3551POPC   C2B 6704  37.898  41.586   8.250
 3551POPC   C3B 6705  37.924  41.549   7.950
 3551POPC   C4B 6706  37.930  41.575   7.650
 3552POPC   NC3 6707   5.091  27.582   9.450
 3552POPC   PO4 6708   5.102  27.635   9.150
 3552POPC   GL1 6709   5.045  27.599   8.850
 3552POPC   GL2 6710   5.008  27.522   8.850
 3552POPC   C1A 6711   5.132  27.609   8.550
 3552POPC   D2A 6712   5.094  27.554   8.250
 3552POPC   C3A 6713   5.110  27.556   7.950
 3552POPC   C4A 6714   5.056  27.582   7.650
 3552POPC   C1B 6715   5.005  27.388   8.550
 3552POPC   C2B 6716   4.994  27.362   8.250
 3552POPC   C3B 6717   4.925  27.334   7.950
 3552POPC   C4B 6718   4.959  27.342   7.650
 3553POPC   NC3 6719   3.507   9.017   9.450
 3553POPC   PO4 6720   3.494   9.012   9.150
 3553POPC   GL1 6721   3.496   8.983   8.850
 3553POPC   GL2 6722   3.509   9.065   8.850
 3553POPC   C1A 6723   3.590   9.005   8.550
 3553POPC   D2A 6724   3.562   8.929   8.250
 3553POPC   C3A 6725   3.520   8.982   7.950
 3553POPC   C4A 6726   3.579   9.004   7.650
 3553POPC   C1B 6727   3.547   9.257   8.550
 3553POPC   C2B 6728   3.582   9.194   8.250
 3553POPC   C3B 6729   3.573   9.246   7.950
 3553POPC   C4B 6730   3.585   9.254   7.650
 3554POPC   NC3 6731  14.376  15.159   9.450
 3554POPC   PO4 6732  14.384  15.181   9.150
 3554POPC   GL1 6733  14.425  15.141   8.850
 3554POPC   GL2 6734  14.265  15.067   8.850
 3554POPC   C1A 6735  14.426  15.130   8.550
 3554POPC   D2A 6736  14.379  15.145   8.250
 3554POPC   C3A 6737  14.435  15.174   7.950
 3554POPC   C4A 6738  14.417  15.169   7.650
 3554POPC   C1B 6739  14.155  15.060   8.550
 3554POPC   C2B 6740  14.162  14.999   8.250
 3554POPC   C3B 6741  14.163  14.996   7.950
 3554POPC   C4B 6742  14.192  15.050   7.650
 3555POPC   NC3 6743  10.500   8.152   9.450
 3555POPC   PO4 6744  10.504   8.177   9.150
 3555POPC   GL1 6745  10.494   8.246   8.850
 3555POPC   GL2 6746  10.596   8.247   8.850
 3555POPC   C1A 6747  10.547   8.235   8.550
 3555POPC   D2A 6748  10.478   8.235   8.250
 3555POPC   C3A 6749  10.477   8.209   7.950
 3555POPC   C4A 6750  10.563   8.210   7.650
 3555POPC   C1B 6751  10.739   8.359   8.550
 3555POPC   C2B 6752  10.730   8.342   8.250
 3555POPC   C3B 6753  10.726   8.283   7.950
 3555POPC   C4B 6754  10.724   8.290   7.650
 3556POPC   NC3 6755  12.885  26.030   9.450
 3556POPC   PO4 6756  12.881  26.055   9.150
 3556POPC   GL1 6757  12.842  26.084   8.850
 3556POPC   GL2 6758  12.727  26.023   8.850
 3556POPC   C1A 6759  12.822  26.056   8.550
 3556POPC   D2A 6760  12.890  26.063   8.250
 3556POPC   C3A 6761  12.895  26.078   7.950
 3556POPC   C4A 6762  12.888  25.997   7.650
 3556POPC   C1B 6763  12.581  26.008   8.550
 3556POPC   C2B 6764  12.579  26.038   8.250
 3556POPC   C3B 6765  12.582  26.045   7.950
 3556POPC   C4B 6766  12.594  26.029   7.650
 3557POPC   NC3 6767  12.871  19.800   9.450
 3557POPC   PO4 6768  12.826  19.859   9.150
 3557POPC   GL1 6769  12.860  19.865   8.850
 3557POPC   GL2 6770  12.939  19.756   8.850
 3557POPC   C1A 6771  12.809  19.825   8.550
 3557POPC   D2A 6772  12.897  19.807   8.250
 3557POPC   C3A 6773  12.882  19.820   7.950
 3557POPC   C4A 6774  12.822  19.792   7.650
 3557POPC   C1B 6775  13.083  19.749   8.550
 3557POPC   C2B 6776  13.103  19.768   8.250
 3557POPC   C3B 6777  13.106  19.732   7.950
 3557POPC   C4B 6778  13.131  19.733   7.650
 3558POPC   NC3 6779  33.043  15.151   9.450
 3558POPC   PO4 6780  32.977  15.130   9.150
 3558POPC   GL1 6781  33.028  15.165   8.850
 3558POPC   GL2 6782  33.057  15.072   8.850
 3558POPC   C1A 6783  33.014  15.158   8.550
 3558POPC   D2A 6784  33.009  15.148   8.250
 3558POPC   C3A 6785  32.988  15.182   7.950
 3558POPC   C4A 6786  32.989  15.160   7.650
 3558POPC   C1B 6787  33.181  14.949   8.550
 3558POPC   C2B 6788  33.169  14.996   8.250
 3558POPC   C3B 6789  33.112  14.998   7.950
 3558POPC   C4B 6790  33.193  14.996   7.650
 3559POPC   NC3 6791  25.305  42.341   9.450
 3559POPC   PO4 6792  25.296  42.380   9.150
 3559POPC   GL1 6793  25.219  42.288   8.850
 3559POPC   GL2 6794  25.356  42.229   8.850
 3559POPC   C1A 6795  25.284  42.297   8.550
 3559POPC   D2A 6796  25.312  42.369   8.250
 3559POPC   C3A 6797  25.307  42.349   7.950
 3559POPC   C4A 6798  25.268  42.372   7.650
 3559POPC   C1B 6799  25.371  42.068   8.550
 3559POPC   C2B 6800  25.365  42.114   8.250
 3559POPC   C3B 6801  25.384  42.055   7.950
 3559POPC   C4B 6802  25.369  42.072   7.650
 3560POPC   NC3 6803   8.975  19.810   9.450
 3560POPC   PO4 6804   8.999  19.847   9.150
 3560POPC   GL1 6805   8.944  19.861   8.850
 3560POPC   GL2 6806   9.055  19.766   8.850
 3560POPC   C1A 6807   8.943  19.874   8.550
 3560POPC   D2A 6808   9.011  19.824   8.250
 3560POPC   C3A 6809   8.997  19.825   7.950
 3560POPC   C4A 6810   9.021  19.788   7.650
 3560POPC   C1B 6811   9.060  19.674   8.550
 3560POPC   C2B 6812   9.072  19.597   8.250
 3560POPC   C3B 6813   9.126  19.613   7.950
 3560POPC   C4B 6814   9.158  19.662   7.650
 3561POPC   NC3 6815  33.824  42.314   9.450
 3561POPC   PO4 6816  33.797  42.328   9.150
 3561POPC   GL1 6817  33.838  42.315   8.850
 3561POPC   GL2 6818  33.827  42.435   8.850
 3561POPC   C1A 6819  33.833  42.354   8.550
 3561POPC   D2A 6820  33.844  42.337   8.250
 3561POPC   C3A 6821  33.840  42.322   7.950
 3561POPC   C4A 6822  33.792  42.368   7.650
 3561POPC   C1B 6823  33.929  42.485   8.550
 3561POPC   C2B 6824  33.985  42.520   8.250
 3561POPC   C3B 6825  33.927  42.556   7.950
 3561POPC   C4B 6826  33.921  42.569   7.650
 3562POPC   NC3 6827  31.442  12.038   9.450
 3562POPC   PO4 6828  31.518  12.115   9.150
 3562POPC   GL1 6829  31.485  12.087   8.850
 3562POPC   GL2 6830  31.549  11.997   8.850
 3562POPC   C1A 6831  31.470  12.040   8.550
 3562POPC   D2A 6832  31.482  12.118   8.250
 3562POPC   C3A 6833  31.459  12.117   7.950
 3562POPC   C4A 6834  31.480  12.049   7.650
 3562POPC   C1B 6835  31.676  11.880   8.550
 3562POPC   C2B 6836  31.699  11.890   8.250
 3562POPC   C3B 6837  31.681  11.903   7.950
 3562POPC   C4B 6838  31.682  11.895   7.650
 3563POPC   NC3 6839   1.965  33.794   9.450
 3563POPC   PO4 6840   1.994  33.781   9.150
 3563POPC   GL1 6841   1.964  33.799   8.850
 3563POPC   GL2 6842   2.119  33.703   8.850
 3563POPC   C1A 6843   2.005  33.825   8.550
 3563POPC   D2A 6844   2.012  33.782   8.250
 3563POPC   C3A 6845   1.979  33.817   7.950
 3563POPC   C4A 6846   2.013  33.788   7.650
 3563POPC   C1B 6847   2.142  33.623   8.550
 3563POPC   C2B 6848   2.167  33.652   8.250
 3563POPC   C3B 6849   2.125  33.581   7.950
 3563POPC   C4B 6850   2.126  33.585   7.650
 3564POPC   NC3 6851   0.455  16.750   9.450
 3564POPC   PO4 6852   0.409  16.750   9.150
 3564POPC   GL1 6853   0.437  16.745   8.850
 3564POPC   GL2 6854   0.436  16.602   8.850
 3564POPC   C1A 6855   0.388  16.760   8.550
 3564POPC   D2A 6856   0.396  16.722   8.250
 3564POPC   C3A 6857   0.479  16.732   7.950
 3564POPC   C4A 6858   0.465  16.723   7.650
 3564POPC   C1B 6859   0.508  16.462   8.550
 3564POPC   C2B 6860   0.570  16.476   8.250
 3564POPC   C3B 6861   0.525  16.451   7.950
 3564POPC   C4B 6862   0.563  16.462   7.650
 3565POPC   NC3 6863  43.143  22.891   9.450
 3565POPC   PO4 6864  43.079  22.890   9.150
 3565POPC   GL1 6865  43.125  22.897   8.850
 3565POPC   GL2 6866  42.963  22.931   8.850
 3565POPC   C1A 6867  43.156  22.892   8.550
 3565POPC   D2A 6868  43.150  22.970   8.250
 3565POPC   C3A 6869  43.090  22.940   7.950
 3565POPC   C4A 6870  43.128  22.954   7.650
 3565POPC   C1B 6871  42.903  22.866   8.550
 3565POPC   C2B 6872  42.829  22.843   8.250
 3565POPC   C3B 6873  42.820  22.863   7.950
 3565POPC   C4B 6874  42.874  22.931   7.650
 3566POPC   NC3 6875   4.344  27.568   9.450
 3566POPC   PO4 6876   4.360  27.564   9.150
 3566POPC   GL1 6877   4.305  27.608   8.850
 3566POPC   GL2 6878   4.190  27.650   8.850
 3566POPC   C1A 6879   4.277  27.555   8.550
 3566POPC   D2A 6880   4.336  27.586   8.250
 3566POPC   C3A 6881   4.332  27.599   7.950
 3566POPC   C4A 6882   4.356  27.605   7.650
 3566POPC   C1B 6883   4.156  27.788   8.550
 3566POPC   C2B 6884   4.103  27.801   8.250
 3566POPC   C3B 6885   4.121  27.806   7.950
 3566POPC   C4B 6886   4.113  27.771   7.650
 3567POPC   NC3 6887  21.435  29.108   9.450
 3567POPC   PO4 6888  21.378  29.125   9.150
 3567POPC   GL1 6889  21.354  29.168   8.850
 3567POPC   GL2 6890  21.389  29.283   8.850
 3567POPC   C1A 6891  21.383  29.105   8.550
 3567POPC   D2A 6892  21.337  29.157   8.250
 3567POPC   C3A 6893  21.341  29.131   7.950
 3567POPC   C4A 6894  21.354  29.171   7.650
 3567POPC   C1B 6895  21.335  29.408   8.550
 3567POPC   C2B 6896  21.365  29.350   8.250
 3567POPC   C3B 6897  21.322  29.394   7.950
 3567POPC   C4B 6898  21.318  29.364   7.650
 3568POPC   NC3 6899  29.963  14.375   9.450
 3568POPC   PO4 6900  29.936  14.386   9.150
 3568POPC   GL1 6901  29.944  14.374   8.850
 3568POPC   GL2 6902  29.960  14.504   8.850
 3568POPC   C1A 6903  29.946  14.420   8.550
 3568POPC   D2A 6904  29.944  14.451   8.250
 3568POPC   C3A 6905  29.954  14.423   7.950
 3568POPC   C4A 6906  29.948  14.421   7.650
 3568POPC   C1B 6907  29.966  14.635   8.550
 3568POPC   C2B 6908  30.022  14.602   8.250
 3568POPC   C3B 6909  29.973  14.657   7.950
 3568POPC   C4B 6910  30.036  14.627   7.650
 3569POPC   NC3 6911  34.598   4.289   9.450
 3569POPC   PO4 6912  34.617   4.366   9.150
 3569POPC   GL1 6913  34.547   4.357   8.850
 3569POPC   GL2 6914  34.484   4.317   8.850
 3569POPC   C1A 6915  34.559   4.333   8.550
 3569POPC   D2A 6916  34.562   4.305   8.250
 3569POPC   C3A 6917  34.548   4.341   7.950
 3569POPC   C4A 6918  34.532   4.362   7.650
 3569POPC   C1B 6919  34.326   4.345   8.550
 3569POPC   C2B 6920  34.336   4.362   8.250
 3569POPC   C3B 6921  34.321   4.291   7.950
 3569POPC   C4B 6922  34.375   4.325   7.650
 3570POPC   NC3 6923  29.903  37.716   9.450
 3570POPC   PO4 6924  29.934  37.654   9.150
 3570POPC   GL1 6925  29.918  37.707   8.850
 3570POPC   GL2 6926  30.007  37.799   8.850
 3570POPC   C1A 6927  29.890  37.693   8.550
 3570POPC   D2A 6928  29.958  37.630   8.250
 3570POPC   C3A 6929  29.901  37.673   7.950
 3570POPC   C4A 6930  29.946  37.698   7.650
 3570POPC   C1B 6931  30.051  37.933   8.550
 3570POPC   C2B 6932  30.000  37.954   8.250
 3570POPC   C3B 6933  30.000  37.879   7.950
 3570POPC   C4B 6934  30.002  37.917   7.650
 3571POPC   NC3 6935  19.040  25.310   9.450
 3571POPC   PO4 6936  19.080  25.263   9.150
 3571POPC   GL1 6937  19.063  25.269   8.850
 3571POPC   GL2 6938  18.961  25.243   8.850
 3571POPC   C1A 6939  19.066  25.252   8.550
 3571POPC   D2A 6940  19.035  25.233   8.250
 3571POPC   C3A 6941  19.042  25.244   7.950
 3571POPC   C4A 6942  19.062  25.281   7.650
 3571POPC   C1B 6943  18.795  25.198   8.550
 3571POPC   C2B 6944  18.827  25.183   8.250
 3571POPC   C3B 6945  18.825  25.217   7.950
 3571POPC   C4B 6946  18.857  25.184   7.650
 3572POPC   NC3 6947   9.722  30.719   9.450
 3572POPC   PO4 6948   9.791  30.731   9.150
 3572POPC   GL1 6949   9.748  30.667   8.850
 3572POPC   GL2 6950   9.685  30.848   8.850
 3572POPC   C1A 6951   9.745  30.738   8.550
 3572POPC   D2A 6952   9.711  30.706   8.250
 3572POPC   C3A 6953   9.719  30.709   7.950
 3572POPC   C4A 6954   9.783  30.743   7.650
 3572POPC   C1B 6955   9.682  30.973   8.550
 3572POPC   C2B 6956   9.697  30.923   8.250
 3572POPC   C3B 6957   9.666  30.974   7.950
 3572POPC   C4B 6958   9.664  30.937   7.650
 3573POPC   NC3 6959  31.466  10.541   9.450
 3573POPC   PO4 6960  31.507  10.478   9.150
 3573POPC   GL1 6961  31.472  10.566   8.850
 3573POPC   GL2 6962  31.598  10.492   8.850
 3573POPC   C1A 6963  31.437  10.480   8.550
 3573POPC   D2A 6964  31.445  10.478   8.250
 3573POPC   C3A 6965  31.489  10.502   7.950
 3573POPC   C4A 6966  31.435  10.523   7.650
 3573POPC   C1B 6967  31.697  10.560   8.550
 3573POPC   C2B 6968  31.743  10.558   8.250
 3573POPC   C3B 6969  31.732  10.560   7.950
 3573POPC   C4B 6970  31.732  10.590   7.650
 3574POPC   NC3 6971  26.820  22.932   9.450
 3574POPC   PO4 6972  26.783  22.921   9.150
 3574POPC   GL1 6973  26.770  22.940   8.850
 3574POPC   GL2 6974  26.874  22.868   8.850
 3574POPC   C1A 6975  26.803  22.936   8.550
 3574POPC   D2A 6976  26.837  22.891   8.250
 3574POPC   C3A 6977  26.820  22.923   7.950
 3574POPC   C4A 6978  26.801  22.972   7.650
 3574POPC   C1B 6979  26.985  22.804   8.550
 3574POPC   C2B 6980  27.027  22.815   8.250
 3574POPC   C3B 6981  27.042  22.765   7.950
 3574POPC   C4B 6982  27.054  22.795   7.650
 3575POPC   NC3 6983  27.585   0.487   9.450
 3575POPC   PO4 6984  27.584   0.442   9.150
 3575POPC   GL1 6985  27.636   0.425   8.850
 3575POPC   GL2 6986  27.436   0.437   8.850
 3575POPC   C1A 6987  27.582   0.414   8.550
 3575POPC   D2A 6988  27.602   0.413   8.250
 3575POPC   C3A 6989  27.567   0.468   7.950
 3575POPC   C4A 6990  27.628   0.419   7.650
 3575POPC   C1B 6991  27.330   0.542   8.550
 3575POPC   C2B 6992  27.362   0.556   8.250
 3575POPC   C3B 6993  27.379   0.482   7.950
 3575POPC   C4B 6994  27.339   0.488   7.650
 3576POPC   NC3 6995  37.665  21.392   9.450
 3576POPC   PO4 6996  37.696  21.405   9.150
 3576POPC   GL1 6997  37.696  21.429   8.850
 3576POPC   GL2 6998  37.599  21.440   8.850
 3576POPC   C1A 6999  37.712  21.386   8.550
 3576POPC   D2A 7000  37.690  21.376   8.250
 3576POPC   C3A 7001  37.656  21.400   7.950
 3576POPC   C4A 7002  37.635  21.348   7.650
 3576POPC   C1B 7003  37.479  21.548   8.550
 3576POPC   C2B 7004  37.458  21.494   8.250
 3576POPC   C3B 7005  37.441  21.510   7.950
 3576POPC   C4B 7006  37.489  21.503   7.650
 3577POPC   NC3 7007   9.008  22.126   9.450
 3577POPC   PO4 7008   8.954  22.167   9.150
 3577POPC   GL1 7009   9.015  22.199   8.850
 3577POPC   GL2 7010   9.050  22.071   8.850
 3577POPC   C1A 7011   9.018  22.148   8.550
 3577POPC   D2A 7012   8.962  22.197   8.250
 3577POPC   C3A 7013   8.948  22.188   7.950
 3577POPC   C4A 7014   9.010  22.118   7.650
 3577POPC   C1B 7015   9.057  21.904   8.550
 3577POPC   C2B 7016   9.112  21.936   8.250
 3577POPC   C3B 7017   9.085  21.899   7.950
 3577POPC   C4B 7018   9.019  21.934   7.650
 3578POPC   NC3 7019  22.176   8.954   9.450
 3578POPC   PO4 7020  22.161   9.006   9.150
 3578POPC   GL1 7021  22.155   8.923   8.850
 3578POPC   GL2 7022  22.282   9.100   8.850
 3578POPC   C1A 7023  22.208   9.019   8.550
 3578POPC   D2A 7024  22.171   9.000   8.250
 3578POPC   C3A 7025  22.212   8.946   7.950
 3578POPC   C4A 7026  22.122   8.981   7.650
 3578POPC   C1B 7027  22.377   9.113   8.550
 3578POPC   C2B 7028  22.370   9.123   8.250
 3578POPC   C3B 7029  22.362   9.128   7.950
 3578POPC   C4B 7030  22.319   9.111   7.650
 3579POPC   NC3 7031   7.458  11.306   9.450
 3579POPC   PO4 7032   7.449  11.319   9.150
 3579POPC   GL1 7033   7.381  11.328   8.850
 3579POPC   GL2 7034   7.465  11.409   8.850
 3579POPC   C1A 7035   7.458  11.327   8.550
 3579POPC   D2A 7036   7.400  11.285   8.250
 3579POPC   C3A 7037   7.409  11.321   7.950
 3579POPC   C4A 7038   7.388  11.307   7.650
 3579POPC   C1B 7039   7.442  11.548   8.550
 3579POPC   C2B 7040   7.441  11.570   8.250
 3579POPC   C3B 7041   7.395  11.535   7.950
 3579POPC   C4B 7042   7.480  11.560   7.650
 3580POPC   NC3 7043  15.912  22.122   9.450
 3580POPC   PO4 7044  15.950  22.206   9.150
 3580POPC   GL1 7045  15.921  22.208   8.850
 3580POPC   GL2 7046  15.996  22.007   8.850
 3580POPC   C1A 7047  15.998  22.201   8.550
 3580POPC   D2A 7048  15.949  22.196   8.250
 3580POPC   C3A 7049  15.975  22.208   7.950
 3580POPC   C4A 7050  15.954  22.178   7.650
 3580POPC   C1B 7051  16.108  21.934   8.550
 3580POPC   C2B 7052  16.078  21.950   8.250
 3580POPC   C3B 7053  16.110  21.926   7.950
 3580POPC   C4B 7054  16.061  21.927   7.650
 3581POPC   NC3 7055  34.614  24.454   9.450
 3581POPC   PO4 7056  34.601  24.524   9.150
 3581POPC   GL1 7057  34.621  24.502   8.850
 3581POPC   GL2 7058  34.431  24.440   8.850
 3581POPC   C1A 7059  34.592  24.449   8.550
 3581POPC   D2A 7060  34.604  24.461   8.250
 3581POPC   C3A 7061  34.565  24.511   7.950
 3581POPC   C4A 7062  34.551  24.465   7.650
 3581POPC   C1B 7063  34.411  24.317   8.550
 3581POPC   C2B 7064  34.333  24.377   8.250
 3581POPC   C3B 7065  34.367  24.351   7.950
 3581POPC   C4B 7066  34.404  24.346   7.650
 3582POPC   NC3 7067  31.454  43.869   9.450
 3582POPC   PO4 7068  31.522  43.868   9.150
 3582POPC   GL1 7069  31.467  43.905   8.850
 3582POPC   GL2 7070  31.595  43.876   8.850
 3582POPC   C1A 7071  31.424  43.906   8.550
 3582POPC   D2A 7072  31.514  43.923   8.250
 3582POPC   C3A 7073  31.498  43.910   7.950
 3582POPC   C4A 7074  31.498  43.873   7.650
 3582POPC   C1B 7075  31.690  43.885   8.550
 3582POPC   C2B 7076  31.700  43.921   8.250
 3582POPC   C3B 7077  31.672  43.901   7.950
 3582POPC   C4B 7078  31.675  43.958   7.650
 3583POPC   NC3 7079  30.683   5.823   9.450
 3583POPC   PO4 7080  30.672   5.848   9.150
 3583POPC   GL1 7081  30.731   5.825   8.850
 3583POPC   GL2 7082  30.618   6.006   8.850
 3583POPC   C1A 7083  30.734   5.847   8.550
 3583POPC   D2A 7084  30.694   5.914   8.250
 3583POPC   C3A 7085  30.704   5.880   7.950
 3583POPC   C4A 7086  30.664   5.867   7.650
 3583POPC   C1B 7087  30.566   6.097   8.550
 3583POPC   C2B 7088  30.582   6.084   8.250
 3583POPC   C3B 7089  30.568   6.065   7.950
 3583POPC   C4B 7090  30.542   6.084   7.650
 3584POPC   NC3 7091  27.627  43.085   9.450
 3584POPC   PO4 7092  27.631  43.104   9.150
 3584POPC   GL1 7093  27.620  43.087   8.850
 3584POPC   GL2 7094  27.557  43.160   8.850
 3584POPC   C1A 7095  27.592  43.147   8.550
 3584POPC   D2A 7096  27.625  43.127   8.250
 3584POPC   C3A 7097  27.565  43.077   7.950
 3584POPC   C4A 7098  27.625  43.086   7.650
 3584POPC   C1B 7099  27.474  43.302   8.550
 3584POPC   C2B 7100  27.450  43.282   8.250
 3584POPC   C3B 7101  27.435  43.304   7.950
 3584POPC   C4B 7102  27.401  43.260   7.650
 3585POPC   NC3 7103  32.262  44.701   9.450
 3585POPC   PO4 7104  32.222  44.620   9.150
 3585POPC   GL1 7105  32.224  44.652   8.850
 3585POPC   GL2 7106  32.312  44.502   8.850
 3585POPC   C1A 7107  32.284  44.673   8.550
 3585POPC   D2A 7108  32.203  44.695   8.250
 3585POPC   C3A 7109  32.215  44.681   7.950
 3585POPC   C4A 7110  32.217  44.646   7.650
 3585POPC   C1B 7111  32.324  44.426   8.550
 3585POPC   C2B 7112  32.324  44.453   8.250
 3585POPC   C3B 7113  32.296  44.424   7.950
 3585POPC   C4B 7114  32.303  44.392   7.650
 3586POPC   NC3 7115  21.435   7.457   9.450
 3586POPC   PO4 7116  21.344   7.427   9.150
 3586POPC   GL1 7117  21.433   7.430   8.850
 3586POPC   GL2 7118  21.515   7.425   8.850
 3586POPC   C1A 7119  21.395   7.385   8.550
 3586POPC   D2A 7120  21.432   7.452   8.250
 3586POPC   C3A 7121  21.395   7.410   7.950
 3586POPC   C4A 7122  21.378   7.442   7.650
 3586POPC   C1B 7123  21.645   7.476   8.550
 3586POPC   C2B 7124  21.679   7.454   8.250
 3586POPC   C3B 7125  21.658   7.448   7.950
 3586POPC   C4B 7126  21.663   7.441   7.650
 3587POPC   NC3 7127  12.102   1.960   9.450
 3587POPC   PO4 7128  12.088   2.006   9.150
 3587POPC   GL1 7129  12.035   2.023   8.850
 3587POPC   GL2 7130  12.041   2.077   8.850
 3587POPC   C1A 7131  12.093   1.967   8.550
 3587POPC   D2A 7132  12.047   1.944   8.250
 3587POPC   C3A 7133  12.038   1.966   7.950
 3587POPC   C4A 7134  12.096   1.984   7.650
 3587POPC   C1B 7135  12.084   2.199   8.550
 3587POPC   C2B 7136  12.117   2.215   8.250
 3587POPC   C3B 7137  12.045   2.192   7.950
 3587POPC   C4B 7138  12.071   2.210   7.650
 3588POPC   NC3 7139  12.067  11.305   9.450
 3588POPC   PO4 7140  12.125  11.278   9.150
 3588POPC   GL1 7141  12.045  11.313   8.850
 3588POPC   GL2 7142  12.217  11.207   8.850
 3588POPC   C1A 7143  12.072  11.306   8.550
 3588POPC   D2A 7144  12.061  11.350   8.250
 3588POPC   C3A 7145  12.044  11.332   7.950
 3588POPC   C4A 7146  12.092  11.319   7.650
 3588POPC   C1B 7147  12.300  11.157   8.550
 3588POPC   C2B 7148  12.253  11.115   8.250
 3588POPC   C3B 7149  12.274  11.164   7.950
 3588POPC   C4B 7150  12.306  11.191   7.650
 3589POPC   NC3 7151  17.462  29.909   9.450
 3589POPC   PO4 7152  17.500  29.886   9.150
 3589POPC   GL1 7153  17.509  29.927   8.850
 3589POPC   GL2 7154  17.517  29.800   8.850
 3589POPC   C1A 7155  17.521  29.897   8.550
 3589POPC   D2A 7156  17.475  29.917   8.250
 3589POPC   C3A 7157  17.480  29.885   7.950
 3589POPC   C4A 7158  17.496  29.895   7.650
 3589POPC   C1B 7159  17.588  29.730   8.550
 3589POPC   C2B 7160  17.586  29.706   8.250
 3589POPC   C3B 7161  17.577  29.723   7.950
 3589POPC   C4B 7162  17.585  29.728   7.650
 3590POPC   NC3 7163  16.730  18.246   9.450
 3590POPC   PO4 7164  16.701  18.235   9.150
 3590POPC   GL1 7165  16.760  18.264   8.850
 3590POPC   GL2 7166  16.760  18.180   8.850
 3590POPC   C1A 7167  16.718  18.276   8.550
 3590POPC   D2A 7168  16.767  18.270   8.250
 3590POPC   C3A 7169  16.745  18.262   7.950
 3590POPC   C4A 7170  16.686  18.314   7.650
 3590POPC   C1B 7171  16.693  18.043   8.550
 3590POPC   C2B 7172  16.760  18.075   8.250
 3590POPC   C3B 7173  16.750  18.060   7.950
 3590POPC   C4B 7174  16.674  18.050   7.650
 3591POPC   NC3 7175  40.049  36.948   9.450
 3591POPC   PO4 7176  39.994  36.884   9.150
 3591POPC   GL1 7177  40.007  36.914   8.850
 3591POPC   GL2 7178  39.974  36.776   8.850
 3591POPC   C1A 7179  40.032  36.887   8.550
 3591POPC   D2A 7180  39.976  36.953   8.250
 3591POPC   C3A 7181  40.034  36.873   7.950
 3591POPC   C4A 7182  39.995  36.914   7.650
 3591POPC   C1B 7183  39.842  36.735   8.550
 3591POPC   C2B 7184  39.836  36.715   8.250
 3591POPC   C3B 7185  39.892  36.669   7.950
 3591POPC   C4B 7186  39.905  36.721   7.650
 3592POPC   NC3 7187   7.464   9.021   9.450
 3592POPC   PO4 7188   7.390   8.999   9.150
 3592POPC   GL1 7189   7.431   8.935   8.850
 3592POPC   GL2 7190   7.336   8.918   8.850
 3592POPC   C1A 7191   7.447   9.021   8.550
 3592POPC   D2A 7192   7.408   9.004   8.250
 3592POPC   C3A 7193   7.385   9.018   7.950
 3592POPC   C4A 7194   7.429   8.986   7.650
 3592POPC   C1B 7195   7.133   8.898   8.550
 3592POPC   C2B 7196   7.183   8.919   8.250
 3592POPC   C3B 7197   7.132   8.945   7.950
 3592POPC   C4B 7198   7.138   8.905   7.650
 3593POPC   NC3 7199  10.562  36.917   9.450
 3593POPC   PO4 7200  10.475  36.861   9.150
 3593POPC   GL1 7201  10.476  36.899   8.850
 3593POPC   GL2 7202  10.471  37.010   8.850
 3593POPC   C1A 7203  10.479  36.877   8.550
 3593POPC   D2A 7204  10.522  36.916   8.250
 3593POPC   C3A 7205  10.506  36.945   7.950
 3593POPC   C4A 7206  10.502  36.946   7.650
 3593POPC   C1B 7207  10.274  37.089   8.550
 3593POPC   C2B 7208  10.339  37.086   8.250
 3593POPC   C3B 7209  10.276  37.044   7.950
 3593POPC   C4B 7210  10.285  37.093   7.650
 3594POPC   NC3 7211  26.861  39.993   9.450
 3594POPC   PO4 7212  26.770  39.995   9.150
 3594POPC   GL1 7213  26.831  39.965   8.850
 3594POPC   GL2 7214  26.885  39.916   8.850
 3594POPC   C1A 7215  26.802  39.966   8.550
 3594POPC   D2A 7216  26.792  39.963   8.250
 3594POPC   C3A 7217  26.855  39.983   7.950
 3594POPC   C4A 7218  26.782  40.030   7.650
 3594POPC   C1B 7219  26.911  39.732   8.550
 3594POPC   C2B 7220  26.928  39.789   8.250
 3594POPC   C3B 7221  26.948  39.737   7.950
 3594POPC   C4B 7222  26.872  39.746   7.650
 3595POPC   NC3 7223  26.077   1.959   9.450
 3595POPC   PO4 7224  26.048   1.975   9.150
 3595POPC   GL1 7225  26.061   1.943   8.850
 3595POPC   GL2 7226  26.124   1.991   8.850
 3595POPC   C1A 7227  26.076   1.988   8.550
 3595POPC   D2A 7228  26.076   1.981   8.250
 3595POPC   C3A 7229  26.042   2.002   7.950
 3595POPC   C4A 7230  26.068   2.019   7.650
 3595POPC   C1B 7231  26.285   2.035   8.550
 3595POPC   C2B 7232  26.291   1.991   8.250
 3595POPC   C3B 7233  26.328   2.065   7.950
 3595POPC   C4B 7234  26.307   2.061   7.650
 3596POPC   NC3 7235  31.497  43.124   9.450
 3596POPC   PO4 7236  31.460  43.086   9.150
 3596POPC   GL1 7237  31.427  43.106   8.850
 3596POPC   GL2 7238  31.548  43.071   8.850
 3596POPC   C1A 7239  31.497  43.076   8.550
 3596POPC   D2A 7240  31.477  43.062   8.250
 3596POPC   C3A 7241  31.484  43.091   7.950
 3596POPC   C4A 7242  31.472  43.095   7.650
 3596POPC   C1B 7243  31.723  43.082   8.550
 3596POPC   C2B 7244  31.757  43.093   8.250
 3596POPC   C3B 7245  31.738  43.135   7.950
 3596POPC   C4B 7246  31.727  43.107   7.650
 3597POPC   NC3 7247  38.478  43.091   9.450
 3597POPC   PO4 7248  38.477  43.125   9.150
 3597POPC   GL1 7249  38.462  43.155   8.850
 3597POPC   GL2 7250  38.464  43.281   8.850
 3597POPC   C1A 7251  38.448  43.061   8.550
 3597POPC   D2A 7252  38.411  43.157   8.250
 3597POPC   C3A 7253  38.430  43.061   7.950
 3597POPC   C4A 7254  38.496  43.152   7.650
 3597POPC   C1B 7255  38.379  43.354   8.550
 3597POPC   C2B 7256  38.365  43.315   8.250
 3597POPC   C3B 7257  38.438  43.402   7.950
 3597POPC   C4B 7258  38.380  43.323   7.650
 3598POPC   NC3 7259   3.532  40.757   9.450
 3598POPC   PO4 7260   3.522  40.765   9.150
 3598POPC   GL1 7261   3.495  40.733   8.850
 3598POPC   GL2 7262   3.480  40.867   8.850
 3598POPC   C1A 7263   3.519  40.766   8.550
 3598POPC   D2A 7264   3.552  40.783   8.250
 3598POPC   C3A 7265   3.533  40.802   7.950
 3598POPC   C4A 7266   3.508  40.821   7.650
 3598POPC   C1B 7267   3.346  41.024   8.550
 3598POPC   C2B 7268   3.385  40.932   8.250
 3598POPC   C3B 7269   3.375  40.955   7.950
 3598POPC   C4B 7270   3.363  41.001   7.650
 3599POPC   NC3 7271  33.818  21.435   9.450
 3599POPC   PO4 7272  33.775  21.347   9.150
 3599POPC   GL1 7273  33.848  21.402   8.850
 3599POPC   GL2 7274  33.714  21.462   8.850
 3599POPC   C1A 7275  33.823  21.392   8.550
 3599POPC   D2A 7276  33.822  21.365   8.250
 3599POPC   C3A 7277  33.834  21.387   7.950
 3599POPC   C4A 7278  33.796  21.382   7.650
 3599POPC   C1B 7279  33.575  21.430   8.550
 3599POPC   C2B 7280  33.529  21.451   8.250
 3599POPC   C3B 7281  33.603  21.446   7.950
 3599POPC   C4B 7282  33.557  21.399   7.650
 3600POPC   NC3 7283   3.516  12.095   9.450
 3600POPC   PO4 7284   3.544  12.099   9.150
 3600POPC   GL1 7285   3.573  12.049   8.850
 3600POPC   GL2 7286   3.639  12.037   8.850
 3600POPC   C1A 7287   3.492  12.028   8.550
 3600POPC   D2A 7288   3.499  12.070   8.250
 3600POPC   C3A 7289   3.589  12.035   7.950
 3600POPC   C4A 7290   3.508  12.090   7.650
 3600POPC   C1B 7291   3.745  12.007   8.550
 3600POPC   C2B 7292   3.786  12.059   8.250
 3600POPC   C3B 7293   3.784  12.003   7.950
 3600POPC   C4B 7294   3.755  12.039   7.650
 3601POPC   NC3 7295  21.360  39.188   9.450
 3601POPC   PO4 7296  21.390  39.277   9.150
 3601POPC   GL1 7297  21.405  39.248   8.850
 3601POPC   GL2 7298  21.514  39.180   8.850
 3601POPC   C1A 7299  21.380  39.181   8.550
 3601POPC   D2A 7300  21.380  39.211   8.250
 3601POPC   C3A 7301  21.412  39.189   7.950
 3601POPC   C4A 7302  21.423  39.254   7.650
 3601POPC   C1B 7303  21.633  39.072   8.550
 3601POPC   C2B 7304  21.584  39.097   8.250
 3601POPC   C3B 7305  21.598  39.079   7.950
 3601POPC   C4B 7306  21.604  39.101   7.650
 3602POPC   NC3 7307  21.346  19.061   9.450
 3602POPC   PO4 7308  21.398  19.102   9.150
 3602POPC   GL1 7309  21.376  19.075   8.850
 3602POPC   GL2 7310  21.339  18.996   8.850
 3602POPC   C1A 7311  21.403  19.107   8.550
 3602POPC   D2A 7312  21.413  19.027   8.250
 3602POPC   C3A 7313  21.425  19.070   7.950
 3602POPC   C4A 7314  21.416  19.061   7.650
 3602POPC   C1B 7315  21.307  18.890   8.550
 3602POPC   C2B 7316  21.275  18.868   8.250
 3602POPC   C3B 7317  21.262  18.805   7.950
 3602POPC   C4B 7318  21.249  18.879   7.650
 3603POPC   NC3 7319   5.085  18.249   9.450
 3603POPC   PO4 7320   5.066  18.281   9.150
 3603POPC   GL1 7321   5.057  18.243   8.850
 3603POPC   GL2 7322   5.074  18.428   8.850
 3603POPC   C1A 7323   5.049  18.330   8.550
 3603POPC   D2A 7324   5.098  18.300   8.250
 3603POPC   C3A 7325   5.083  18.298   7.950
 3603POPC   C4A 7326   5.134  18.291   7.650
 3603POPC   C1B 7327   4.954  18.525   8.550
 3603POPC   C2B 7328   4.969  18.496   8.250
 3603POPC   C3B 7329   4.930  18.487   7.950
 3603POPC   C4B 7330   5.017  18.456   7.650
 3604POPC   NC3 7331  15.908  32.242   9.450
 3604POPC   PO4 7332  15.947  32.247   9.150
 3604POPC   GL1 7333  15.911  32.262   8.850
 3604POPC   GL2 7334  15.895  32.144   8.850
 3604POPC   C1A 7335  15.913  32.262   8.550
 3604POPC   D2A 7336  15.974  32.234   8.250
 3604POPC   C3A 7337  15.989  32.287   7.950
 3604POPC   C4A 7338  15.943  32.224   7.650
 3604POPC   C1B 7339  15.807  32.071   8.550
 3604POPC   C2B 7340  15.780  31.991   8.250
 3604POPC   C3B 7341  15.791  32.061   7.950
 3604POPC   C4B 7342  15.833  32.009   7.650
 3605POPC   NC3 7343  36.945  29.955   9.450
 3605POPC   PO4 7344  36.898  29.924   9.150
 3605POPC   GL1 7345  36.907  29.884   8.850
 3605POPC   GL2 7346  36.788  29.794   8.850
 3605POPC   C1A 7347  36.888  29.945   8.550
 3605POPC   D2A 7348  36.916  29.886   8.250
 3605POPC   C3A 7349  36.893  29.881   7.950
 3605POPC   C4A 7350  36.874  29.939   7.650
 3605POPC   C1B 7351  36.754  29.742   8.550
 3605POPC   C2B 7352  36.747  29.696   8.250
 3605POPC   C3B 7353  36.768  29.692   7.950
 3605POPC   C4B 7354  36.774  29.735   7.650
 3606POPC   NC3 7355   5.887   1.233   9.450
 3606POPC   PO4 7356   5.849   1.263   9.150
 3606POPC   GL1 7357   5.866   1.179   8.850
 3606POPC   GL2 7358   5.894   1.069   8.850
 3606POPC   C1A 7359   5.881   1.226   8.550
 3606POPC   D2A 7360   5.895   1.217   8.250
 3606POPC   C3A 7361   5.844   1.220   7.950
 3606POPC   C4A 7362   5.906   1.213   7.650
 3606POPC   C1B 7363   5.886   1.008   8.550
 3606POPC   C2B 7364   5.869   0.983   8.250
 3606POPC   C3B 7365   5.889   0.978   7.950
 3606POPC   C4B 7366   5.862   0.966   7.650
 3607POPC   NC3 7367  28.359  43.081   9.450
 3607POPC   PO4 7368  28.355  43.075   9.150
 3607POPC   GL1 7369  28.369  43.110   8.850
 3607POPC   GL2 7370  28.216  43.129   8.850
 3607POPC   C1A 7371  28.353  43.090   8.550
 3607POPC   D2A 7372  28.355  43.111   8.250
 3607POPC   C3A 7373  28.348  43.106   7.950
 3607POPC   C4A 7374  28.371  43.121   7.650
 3607POPC   C1B 7375  28.099  43.096   8.550
 3607POPC   C2B 7376  28.096  43.109   8.250
 3607POPC   C3B 7377  28.074  43.075   7.950
 3607POPC   C4B 7378  28.162  43.089   7.650
 3608POPC   NC3 7379   3.567  17.514   9.450
 3608POPC   PO4 7380   3.576  17.497   9.150
 3608POPC   GL1 7381   3.497  17.552   8.850
 3608POPC   GL2 7382   3.688  17.565   8.850
 3608POPC   C1A 7383   3.505  17.511   8.550
 3608POPC   D2A 7384   3.590  17.471   8.250
 3608POPC   C3A 7385   3.517  17.526   7.950
 3608POPC   C4A 7386   3.565  17.551   7.650
 3608POPC   C1B 7387   3.808  17.637   8.550
 3608POPC   C2B 7388   3.784  17.573   8.250
 3608POPC   C3B 7389   3.781  17.564   7.950
 3608POPC   C4B 7390   3.767  17.568   7.650
 3609POPC   NC3 7391  29.187   9.752   9.450
 3609POPC   PO4 7392  29.097   9.702   9.150
 3609POPC   GL1 7393  29.103   9.763   8.850
 3609POPC   GL2 7394  29.223   9.588   8.850
 3609POPC   C1A 7395  29.106   9.789   8.550
 3609POPC   D2A 7396  29.179   9.705   8.250
 3609POPC   C3A 7397  29.101   9.790   7.950
 3609POPC   C4A 7398  29.149   9.771   7.650
 3609POPC   C1B 7399  29.203   9.565   8.550
 3609POPC   C2B 7400  29.267   9.472   8.250
 3609POPC   C3B 7401  29.191   9.495   7.950
 3609POPC   C4B 7402  29.222   9.530   7.650
 3610POPC   NC3 7403  39.280  29.896   9.450
 3610POPC   PO4 7404  39.252  29.912   9.150
 3610POPC   GL1 7405  39.281  29.877   8.850
 3610POPC   GL2 7406  39.369  29.991   8.850
 3610POPC   C1A 7407  39.269  29.873   8.550
 3610POPC   D2A 7408  39.248  29.949   8.250
 3610POPC   C3A 7409  39.241  29.903   7.950
 3610POPC   C4A 7410  39.209  29.874   7.650
 3610POPC   C1B 7411  39.469  30.087   8.550
 3610POPC   C2B 7412  39.480  30.039   8.250
 3610POPC   C3B 7413  39.432  30.077   7.950
 3610POPC   C4B 7414  39.430  30.024   7.650
 3611POPC   NC3 7415   5.080  17.517   9.450
 3611POPC   PO4 7416   5.067  17.503   9.150
 3611POPC   GL1 7417   5.094  17.490   8.850
 3611POPC   GL2 7418   4.987  17.568   8.850
 3611POPC   C1A 7419   5.135  17.488   8.550
 3611POPC   D2A 7420   5.083  17.545   8.250
 3611POPC   C3A 7421   5.106  17.470   7.950
 3611POPC   C4A 7422   5.102  17.535   7.650
 3611POPC   C1B 7423   4.899  17.591   8.550
 3611POPC   C2B 7424   4.901  17.598   8.250
 3611POPC   C3B 7425   4.849  17.662   7.950
 3611POPC   C4B 7426   4.909  17.603   7.650
 3612POPC   NC3 7427  15.953  23.684   9.450
 3612POPC   PO4 7428  15.996  23.670   9.150
 3612POPC   GL1 7429  15.928  23.735   8.850
 3612POPC   GL2 7430  16.032  23.727   8.850
 3612POPC   C1A 7431  15.911  23.729   8.550
 3612POPC   D2A 7432  15.993  23.676   8.250
 3612POPC   C3A 7433  15.987  23.734   7.950
 3612POPC   C4A 7434  15.925  23.674   7.650
 3612POPC   C1B 7435  16.183  23.783   8.550
 3612POPC   C2B 7436  16.243  23.804   8.250
 3612POPC   C3B 7437  16.189  23.816   7.950
 3612POPC   C4B 7438  16.234  23.735   7.650
 3613POPC   NC3 7439  40.056  39.231   9.450
 3613POPC   PO4 7440  40.004  39.258   9.150
 3613POPC   GL1 7441  40.020  39.276   8.850
 3613POPC   GL2 7442  40.086  39.307   8.850
 3613POPC   C1A 7443  40.033  39.190   8.550
 3613POPC   D2A 7444  39.989  39.206   8.250
 3613POPC   C3A 7445  40.017  39.253   7.950
 3613POPC   C4A 7446  40.052  39.225   7.650
 3613POPC   C1B 7447  40.232  39.348   8.550
 3613POPC   C2B 7448  40.280  39.382   8.250
 3613POPC   C3B 7449  40.226  39.381   7.950
 3613POPC   C4B 7450  40.266  39.376   7.650
 3614POPC   NC3 7451   3.511  18.304   9.450
 3614POPC   PO4 7452   3.575  18.309   9.150
 3614POPC   GL1 7453   3.520  18.245   8.850
 3614POPC   GL2 7454   3.592  18.353   8.850
 3614POPC   C1A 7455   3.586  18.275   8.550
 3614POPC   D2A 7456   3.542  18.274   8.250
 3614POPC   C3A 7457   3.579  18.315   7.950
 3614POPC   C4A 7458   3.519  18.282   7.650
 3614POPC   C1B 7459   3.616  18.533   8.550
 3614POPC   C2B 7460   3.631  18.501   8.250
 3614POPC   C3B 7461   3.619  18.488   7.950
 3614POPC   C4B 7462   3.584  18.561   7.650
 3615POPC   NC3 7463   5.830   9.705   9.450
 3615POPC   PO4 7464   5.872   9.778   9.150
 3615POPC   GL1 7465   5.861   9.719   8.850
 3615POPC   GL2 7466   5.875   9.859   8.850
 3615POPC   C1A 7467   5.898   9.733   8.550
 3615POPC   D2A 7468   5.821   9.718   8.250
 3615POPC   C3A 7469   5.825   9.778   7.950
 3615POPC   C4A 7470   5.874   9.748   7.650
 3615POPC   C1B 7471   5.785   9.939   8.550
 3615POPC   C2B 7472   5.840   9.948   8.250
 3615POPC   C3B 7473   5.803  10.015   7.950
 3615POPC   C4B 7474   5.753   9.945   7.650
 3616POPC   NC3 7475   4.278  36.175   9.450
 3616POPC   PO4 7476   4.355  36.142   9.150
 3616POPC   GL1 7477   4.288  36.138   8.850
 3616POPC   GL2 7478   4.345  35.975   8.850
 3616POPC   C1A 7479   4.278  36.091   8.550
 3616POPC   D2A 7480   4.300  36.140   8.250
 3616POPC   C3A 7481   4.353  36.120   7.950
 3616POPC   C4A 7482   4.311  36.162   7.650
 3616POPC   C1B 7483   4.329  35.909   8.550
 3616POPC   C2B 7484   4.335  35.870   8.250
 3616POPC   C3B 7485   4.313  35.888   7.950
 3616POPC   C4B 7486   4.250  35.875   7.650
 3617POPC   NC3 7487   7.376  21.414   9.450
 3617POPC   PO4 7488   7.443  21.370   9.150
 3617POPC   GL1 7489   7.452  21.360   8.850
 3617POPC   GL2 7490   7.329  21.525   8.850
 3617POPC   C1A 7491   7.456  21.398   8.550
 3617POPC   D2A 7492   7.405  21.383   8.250
 3617POPC   C3A 7493   7.397  21.352   7.950
 3617POPC   C4A 7494   7.407  21.414   7.650
 3617POPC   C1B 7495   7.266  21.617   8.550
 3617POPC   C2B 7496   7.250  21.542   8.250
 3617POPC   C3B 7497   7.260  21.533   7.950
 3617POPC   C4B 7498   7.212  21.542   7.650
 3618POPC   NC3 7499   2.737  43.935   9.450
 3618POPC   PO4 7500   2.746  43.885   9.150
 3618POPC   GL1 7501   2.776  43.897   8.850
 3618POPC   GL2 7502   2.743  43.985   8.850
 3618POPC   C1A 7503   2.803  43.895   8.550
 3618POPC   D2A 7504   2.726  43.862   8.250
 3618POPC   C3A 7505   2.783  43.922   7.950
 3618POPC   C4A 7506   2.756  43.915   7.650
 3618POPC   C1B 7507   2.758  44.114   8.550
 3618POPC   C2B 7508   2.759  44.093   8.250
 3618POPC   C3B 7509   2.667  44.160   7.950
 3618POPC   C4B 7510   2.739  44.127   7.650
 3619POPC   NC3 7511  38.426  26.061   9.450
 3619POPC   PO4 7512  38.432  26.067   9.150
 3619POPC   GL1 7513  38.426  26.010   8.850
 3619POPC   GL2 7514  38.593  26.009   8.850
 3619POPC   C1A 7515  38.485  26.055   8.550
 3619POPC   D2A 7516  38.428  26.017   8.250
 3619POPC   C3A 7517  38.472  26.035   7.950
 3619POPC   C4A 7518  38.469  26.039   7.650
 3619POPC   C1B 7519  38.695  25.978   8.550
 3619POPC   C2B 7520  38.704  25.973   8.250
 3619POPC   C3B 7521  38.658  26.054   7.950
 3619POPC   C4B 7522  38.669  26.030   7.650
 3620POPC   NC3 7523  34.533  25.278   9.450
 3620POPC   PO4 7524  34.533  25.267   9.150
 3620POPC   GL1 7525  34.580  25.302   8.850
 3620POPC   GL2 7526  34.535  25.200   8.850
 3620POPC   C1A 7527  34.534  25.236   8.550
 3620POPC   D2A 7528  34.614  25.230   8.250
 3620POPC   C3A 7529  34.544  25.244   7.950
 3620POPC   C4A 7530  34.602  25.234   7.650
 3620POPC   C1B 7531  34.513  25.041   8.550
 3620POPC   C2B 7532  34.453  25.063   8.250
 3620POPC   C3B 7533  34.473  25.007   7.950
 3620POPC   C4B 7534  34.498  25.019   7.650
 3621POPC   NC3 7535  40.807  20.571   9.450
 3621POPC   PO4 7536  40.813  20.563   9.150
 3621POPC   GL1 7537  40.795  20.623   8.850
 3621POPC   GL2 7538  40.798  20.777   8.850
 3621POPC   C1A 7539  40.752  20.618   8.550
 3621POPC   D2A 7540  40.782  20.644   8.250
 3621POPC   C3A 7541  40.755  20.626   7.950
 3621POPC   C4A 7542  40.770  20.618   7.650
 3621POPC   C1B 7543  40.730  20.847   8.550
 3621POPC   C2B 7544  40.786  20.910   8.250
 3621POPC   C3B 7545  40.788  20.884   7.950
 3621POPC   C4B 7546  40.750  20.842   7.650
 3622POPC   NC3 7547   5.071  22.130   9.450
 3622POPC   PO4 7548   5.081  22.113   9.150
 3622POPC   GL1 7549   5.094  22.205   8.850
 3622POPC   GL2 7550   4.935  22.132   8.850
 3622POPC   C1A 7551   5.090  22.123   8.550
 3622POPC   D2A 7552   5.102  22.117   8.250
 3622POPC   C3A 7553   5.128  22.157   7.950
 3622POPC   C4A 7554   5.112  22.165   7.650
 3622POPC   C1B 7555   4.839  22.115   8.550
 3622POPC   C2B 7556   4.887  22.156   8.250
 3622POPC   C3B 7557   4.830  22.093   7.950
 3622POPC   C4B 7558   4.844  22.083   7.650
 3623POPC   NC3 7559  20.572   4.316   9.450
 3623POPC   PO4 7560  20.618   4.283   9.150
 3623POPC   GL1 7561  20.630   4.295   8.850
 3623POPC   GL2 7562  20.542   4.225   8.850
 3623POPC   C1A 7563  20.650   4.275   8.550
 3623POPC   D2A 7564  20.593   4.339   8.250
 3623POPC   C3A 7565  20.659   4.362   7.950
 3623POPC   C4A 7566  20.588   4.361   7.650
 3623POPC   C1B 7567  20.421   4.135   8.550
 3623POPC   C2B 7568  20.433   4.129   8.250
 3623POPC   C3B 7569  20.440   4.126   7.950
 3623POPC   C4B 7570  20.406   4.112   7.650
 3624POPC   NC3 7571  25.220  17.474   9.450
 3624POPC   PO4 7572  25.279  17.554   9.150
 3624POPC   GL1 7573  25.265  17.554   8.850
 3624POPC   GL2 7574  25.102  17.504   8.850
 3624POPC   C1A 7575  25.240  17.498   8.550
 3624POPC   D2A 7576  25.245  17.555   8.250
 3624POPC   C3A 7577  25.222  17.466   7.950
 3624POPC   C4A 7578  25.261  17.550   7.650
 3624POPC   C1B 7579  25.011  17.599   8.550
 3624POPC   C2B 7580  25.012  17.518   8.250
 3624POPC   C3B 7581  25.022  17.558   7.950
 3624POPC   C4B 7582  25.048  17.562   7.650
 3625POPC   NC3 7583  20.613   5.880   9.450
 3625POPC   PO4 7584  20.579   5.901   9.150
 3625POPC   GL1 7585  20.626   5.888   8.850
 3625POPC   GL2 7586  20.501   5.852   8.850
 3625POPC   C1A 7587  20.570   5.822   8.550
 3625POPC   D2A 7588  20.654   5.891   8.250
 3625POPC   C3A 7589  20.648   5.830   7.950
 3625POPC   C4A 7590  20.647   5.887   7.650
 3625POPC   C1B 7591  20.337   5.910   8.550
 3625POPC   C2B 7592  20.394   5.927   8.250
 3625POPC   C3B 7593  20.366   5.928   7.950
 3625POPC   C4B 7594  20.373   5.945   7.650
 3626POPC   NC3 7595  21.338  15.960   9.450
 3626POPC   PO4 7596  21.336  15.984   9.150
 3626POPC   GL1 7597  21.375  15.912   8.850
 3626POPC   GL2 7598  21.311  15.939   8.850
 3626POPC   C1A 7599  21.426  15.994   8.550
 3626POPC   D2A 7600  21.410  15.955   8.250
 3626POPC   C3A 7601  21.393  15.986   7.950
 3626POPC   C4A 7602  21.348  15.951   7.650
 3626POPC   C1B 7603  21.177  16.021   8.550
 3626POPC   C2B 7604  21.185  15.997   8.250
 3626POPC   C3B 7605  21.182  16.001   7.950
 3626POPC   C4B 7606  21.175  15.994   7.650
 3627POPC   NC3 7607   3.560  22.160   9.450
 3627POPC   PO4 7608   3.526  22.210   9.150
 3627POPC   GL1 7609   3.528  22.147   8.850
 3627POPC   GL2 7610   3.405  22.252   8.850
 3627POPC   C1A 7611   3.493  22.160   8.550
 3627POPC   D2A 7612   3.549  22.184   8.250
 3627POPC   C3A 7613   3.504  22.120   7.950
 3627POPC   C4A 7614   3.525  22.210   7.650
 3627POPC   C1B 7615   3.312  22.323   8.550
 3627POPC   C2B 7616   3.329  22.343   8.250
 3627POPC   C3B 7617   3.324  22.290   7.950
 3627POPC   C4B 7618   3.301  22.266   7.650
 3628POPC   NC3 7619  43.898  27.578   9.450
 3628POPC   PO4 7620  43.935  27.635   9.150
 3628POPC   GL1 7621  43.866  27.565   8.850
 3628POPC   GL2 7622  43.810  27.591   8.850
 3628POPC   C1A 7623  43.930  27.582   8.550
 3628POPC   D2A 7624  43.839  27.576   8.250
 3628POPC   C3A 7625  43.866  27.627   7.950
 3628POPC   C4A 7626  43.887  27.555   7.650
 3628POPC   C1B 7627  43.611  27.512   8.550
 3628POPC   C2B 7628  43.679  27.486   8.250
 3628POPC   C3B 7629  43.675  27.527   7.950
 3628POPC   C4B 7630  43.641  27.451   7.650
 3629POPC   NC3 7631   9.705  33.821   9.450
 3629POPC   PO4 7632   9.797  33.775   9.150
 3629POPC   GL1 7633   9.779  33.785   8.850
 3629POPC   GL2 7634   9.614  33.787   8.850
 3629POPC   C1A 7635   9.714  33.830   8.550
 3629POPC   D2A 7636   9.770  33.847   8.250
 3629POPC   C3A 7637   9.794  33.794   7.950
 3629POPC   C4A 7638   9.787  33.790   7.650
 3629POPC   C1B 7639   9.493  33.759   8.550
 3629POPC   C2B 7640   9.496  33.781   8.250
 3629POPC   C3B 7641   9.473  33.777   7.950
 3629POPC   C4B 7642   9.546  33.810   7.650
 3630POPC   NC3 7643  41.557  44.613   9.450
 3630POPC   PO4 7644  41.522  44.674   9.150
 3630POPC   GL1 7645  41.538  44.709   8.850
 3630POPC   GL2 7646  41.464  44.650   8.850
 3630POPC   C1A 7647  41.604  44.692   8.550
 3630POPC   D2A 7648  41.530  44.693   8.250
 3630POPC   C3A 7649  41.523  44.650   7.950
 3630POPC   C4A 7650  41.512  44.616   7.650
 3630POPC   C1B 7651  41.305  44.619   8.550
 3630POPC   C2B 7652  41.343  44.577   8.250
 3630POPC   C3B 7653  41.314  44.559   7.950
 3630POPC   C4B 7654  41.341  44.595   7.650
 3631POPC   NC3 7655  26.079  19.021   9.450
 3631POPC   PO4 7656  26.000  19.044   9.150
 3631POPC   GL1 7657  26.044  19.076   8.850
 3631POPC   GL2 7658  26.070  19.169   8.850
 3631POPC   C1A 7659  26.024  19.021   8.550
 3631POPC   D2A 7660  26.062  19.021   8.250
 3631POPC   C3A 7661  26.011  19.051   7.950
 3631POPC   C4A 7662  26.087  19.090   7.650
 3631POPC   C1B 7663  26.096  19.306   8.550
 3631POPC   C2B 7664  26.059  19.261   8.250
 3631POPC   C3B 7665  26.059  19.310   7.950
 3631POPC   C4B 7666  26.102  19.341   7.650
 3632POPC   NC3 7667  39.278  15.908   9.450
 3632POPC   PO4 7668  39.202  15.912   9.150
 3632POPC   GL1 7669  39.257  15.911   8.850
 3632POPC   GL2 7670  39.156  16.044   8.850
 3632POPC   C1A 7671  39.211  15.947   8.550
 3632POPC   D2A 7672  39.278  15.986   8.250
 3632POPC   C3A 7673  39.188  15.964   7.950
 3632POPC   C4A 7674  39.264  15.916   7.650
 3632POPC   C1B 7675  39.087  16.142   8.550
 3632POPC   C2B 7676  39.022  16.116   8.250
 3632POPC   C3B 7677  39.073  16.182   7.950
 3632POPC   C4B 7678  39.091  16.150   7.650
 3633POPC   NC3 7679  17.522  33.021   9.450
 3633POPC   PO4 7680  17.470  33.040   9.150
 3633POPC   GL1 7681  17.499  33.070   8.850
 3633POPC   GL2 7682  17.464  32.903   8.850
 3633POPC   C1A 7683  17.504  33.015   8.550
 3633POPC   D2A 7684  17.464  32.980   8.250
 3633POPC   C3A 7685  17.516  32.985   7.950
 3633POPC   C4A 7686  17.496  33.004   7.650
 3633POPC   C1B 7687  17.457  32.762   8.550
 3633POPC   C2B 7688  17.525  32.819   8.250
 3633POPC   C3B 7689  17.493  32.815   7.950
 3633POPC   C4B 7690  17.445  32.758   7.650
 3634POPC   NC3 7691  32.238  27.641   9.450
 3634POPC   PO4 7692  32.232  27.584   9.150
 3634POPC   GL1 7693  32.199  27.616   8.850
 3634POPC   GL2 7694  32.115  27.632   8.850
 3634POPC   C1A 7695  32.286  27.590   8.550
 3634POPC   D2A 7696  32.262  27.585   8.250
 3634POPC   C3A 7697  32.222  27.570   7.950
 3634POPC   C4A 7698  32.209  27.619   7.650
 3634POPC   C1B 7699  32.043  27.639   8.550
 3634POPC   C2B 7700  31.975  27.645   8.250
 3634POPC   C3B 7701  32.009  27.633   7.950
 3634POPC   C4B 7702  31.977  27.714   7.650
 3635POPC   NC3 7703  44.630  17.532   9.450
 3635POPC   PO4 7704  44.698  17.468   9.150
 3635POPC   GL1 7705  44.657  17.529   8.850
 3635POPC   GL2 7706  44.808  17.525   8.850
 3635POPC   C1A 7707  44.647  17.517   8.550
 3635POPC   D2A 7708  44.620  17.513   8.250
 3635POPC   C3A 7709  44.619  17.487   7.950
 3635POPC   C4A 7710  44.661  17.506   7.650
 3635POPC   C1B 7711  44.903  17.664   8.550
 3635POPC   C2B 7712  44.908  17.660   8.250
 3635POPC   C3B 7713  44.886  17.598   7.950
 3635POPC   C4B 7714  44.898  17.683   7.650
 3636POPC   NC3 7715  36.944   4.338   9.450
 3636POPC   PO4 7716  36.896   4.284   9.150
 3636POPC   GL1 7717  36.945   4.336   8.850
 3636POPC   GL2 7718  37.011   4.304   8.850
 3636POPC   C1A 7719  36.864   4.332   8.550
 3636POPC   D2A 7720  36.860   4.319   8.250
 3636POPC   C3A 7721  36.905   4.329   7.950
 3636POPC   C4A 7722  36.952   4.315   7.650
 3636POPC   C1B 7723  37.129   4.224   8.550
 3636POPC   C2B 7724  37.177   4.265   8.250
 3636POPC   C3B 7725  37.160   4.309   7.950
 3636POPC   C4B 7726  37.170   4.293   7.650
 3637POPC   NC3 7727  19.819  39.200   9.450
 3637POPC   PO4 7728  19.879  39.217   9.150
 3637POPC   GL1 7729  19.799  39.256   8.850
 3637POPC   GL2 7730  19.695  39.255   8.850
 3637POPC   C1A 7731  19.855  39.191   8.550
 3637POPC   D2A 7732  19.814  39.183   8.250
 3637POPC   C3A 7733  19.857  39.197   7.950
 3637POPC   C4A 7734  19.860  39.188   7.650
 3637POPC   C1B 7735  19.614  39.214   8.550
 3637POPC   C2B 7736  19.572  39.174   8.250
 3637POPC   C3B 7737  19.614  39.264   7.950
 3637POPC   C4B 7738  19.571  39.182   7.650
 3638POPC   NC3 7739  18.277  22.980   9.450
 3638POPC   PO4 7740  18.258  22.927   9.150
 3638POPC   GL1 7741  18.325  22.937   8.850
 3638POPC   GL2 7742  18.215  22.840   8.850
 3638POPC   C1A 7743  18.250  22.972   8.550
 3638POPC   D2A 7744  18.330  22.938   8.250
 3638POPC   C3A 7745  18.308  22.961   7.950
 3638POPC   C4A 7746  18.268  22.911   7.650
 3638POPC   C1B 7747  18.161  22.744   8.550
 3638POPC   C2B 7748  18.169  22.700   8.250
 3638POPC   C3B 7749  18.180  22.766   7.950
 3638POPC   C4B 7750  18.139  22.769   7.650
 3639POPC   NC3 7751  22.158   9.758   9.450
 3639POPC   PO4 7752  22.174   9.753   9.150
 3639POPC   GL1 7753  22.127   9.718   8.850
 3639POPC   GL2 7754  22.181   9.835   8.850
 3639POPC   C1A 7755  22.161   9.721   8.550
 3639POPC   D2A 7756  22.165   9.752   8.250
 3639POPC   C3A 7757  22.151   9.709   7.950
 3639POPC   C4A 7758  22.153   9.750   7.650
 3639POPC   C1B 7759  22.165   9.975   8.550
 3639POPC   C2B 7760  22.144   9.957   8.250
 3639POPC   C3B 7761  22.092   9.965   7.950
 3639POPC   C4B 7762  22.149   9.998   7.650
 3640POPC   NC3 7763  25.284  34.606   9.450
 3640POPC   PO4 7764  25.248  34.544   9.150
 3640POPC   GL1 7765  25.243  34.601   8.850
 3640POPC   GL2 7766  25.186  34.615   8.850
 3640POPC   C1A 7767  25.278  34.602   8.550
 3640POPC   D2A 7768  25.260  34.533   8.250
 3640POPC   C3A 7769  25.311  34.600   7.950
 3640POPC   C4A 7770  25.293  34.540   7.650
 3640POPC   C1B 7771  25.057  34.672   8.550
 3640POPC   C2B 7772  25.062  34.695   8.250
 3640POPC   C3B 7773  25.010  34.675   7.950
 3640POPC   C4B 7774  25.038  34.685   7.650
 3641POPC   NC3 7775  16.696  39.965   9.450
 3641POPC   PO4 7776  16.752  40.000   9.150
 3641POPC   GL1 7777  16.746  39.999   8.850
 3641POPC   GL2 7778  16.859  40.065   8.850
 3641POPC   C1A 7779  16.701  39.975   8.550
 3641POPC   D2A 7780  16.770  40.039   8.250
 3641POPC   C3A 7781  16.758  40.009   7.950
 3641POPC   C4A 7782  16.721  39.957   7.650
 3641POPC   C1B 7783  16.956  40.029   8.550
 3641POPC   C2B 7784  17.026  40.059   8.250
 3641POPC   C3B 7785  16.999  40.033   7.950
 3641POPC   C4B 7786  16.930  40.085   7.650
 3642POPC   NC3 7787  39.239  23.679   9.450
 3642POPC   PO4 7788  39.220  23.695   9.150
 3642POPC   GL1 7789  39.199  23.697   8.850
 3642POPC   GL2 7790  39.251  23.614   8.850
 3642POPC   C1A 7791  39.197  23.695   8.550
 3642POPC   D2A 7792  39.274  23.670   8.250
 3642POPC   C3A 7793  39.211  23.762   7.950
 3642POPC   C4A 7794  39.214  23.720   7.650
 3642POPC   C1B 7795  39.189  23.462   8.550
 3642POPC   C2B 7796  39.135  23.512   8.250
 3642POPC   C3B 7797  39.207  23.498   7.950
 3642POPC   C4B 7798  39.146  23.458   7.650
 3643POPC   NC3 7799  30.717   2.002   9.450
 3643POPC   PO4 7800  30.733   2.013   9.150
 3643POPC   GL1 7801  30.665   1.947   8.850
 3643POPC   GL2 7802  30.703   2.070   8.850
 3643POPC   C1A 7803  30.665   1.966   8.550
 3643POPC   D2A 7804  30.656   1.969   8.250
 3643POPC   C3A 7805  30.714   2.001   7.950
 3643POPC   C4A 7806  30.657   1.983   7.650
 3643POPC   C1B 7807  30.754   2.253   8.550
 3643POPC   C2B 7808  30.763   2.218   8.250
 3643POPC   C3B 7809  30.720   2.199   7.950
 3643POPC   C4B 7810  30.794   2.235   7.650
 3644POPC   NC3 7811  42.337  39.992   9.450
 3644POPC   PO4 7812  42.299  39.973   9.150
 3644POPC   GL1 7813  42.367  39.997   8.850
 3644POPC   GL2 7814  42.427  40.156   8.850
 3644POPC   C1A 7815  42.290  40.035   8.550
 3644POPC   D2A 7816  42.338  40.033   8.250
 3644POPC   C3A 7817  42.346  39.963   7.950
 3644POPC   C4A 7818  42.361  39.977   7.650
 3644POPC   C1B 7819  42.484  40.215   8.550
 3644POPC   C2B 7820  42.453  40.240   8.250
 3644POPC   C3B 7821  42.462  40.181   7.950
 3644POPC   C4B 7822  42.433  40.209   7.650
 3645POPC   NC3 7823   9.743  23.702   9.450
 3645POPC   PO4 7824   9.738  23.683   9.150
 3645POPC   GL1 7825   9.744  23.758   8.850
 3645POPC   GL2 7826   9.614  23.665   8.850
 3645POPC   C1A 7827   9.796  23.713   8.550
 3645POPC   D2A 7828   9.734  23.762   8.250
 3645POPC   C3A 7829   9.780  23.724   7.950
 3645POPC   C4A 7830   9.700  23.708   7.650
 3645POPC   C1B 7831   9.585  23.499   8.550
 3645POPC   C2B 7832   9.553  23.513   8.250
 3645POPC   C3B 7833   9.581  23.522   7.950
 3645POPC   C4B 7834   9.549  23.581   7.650
 3646POPC   NC3 7835  34.624  18.286   9.450
 3646POPC   PO4 7836  34.591  18.253   9.150
 3646POPC   GL1 7837  34.569  18.330   8.850
 3646POPC   GL2 7838  34.487  18.159   8.850
 3646POPC   C1A 7839  34.566  18.315   8.550
 3646POPC   D2A 7840  34.609  18.249   8.250
 3646POPC   C3A 7841  34.563  18.307   7.950
 3646POPC   C4A 7842  34.591  18.263   7.650
 3646POPC   C1B 7843  34.360  18.094   8.550
 3646POPC   C2B 7844  34.380  18.122   8.250
 3646POPC   C3B 7845  34.387  18.145   7.950
 3646POPC   C4B 7846  34.438  18.158   7.650
 3647POPC   NC3 7847  19.829  34.532   9.450
 3647POPC   PO4 7848  19.868  34.555   9.150
 3647POPC   GL1 7849  19.825  34.547   8.850
 3647POPC   GL2 7850  19.869  34.440   8.850
 3647POPC   C1A 7851  19.824  34.543   8.550
 3647POPC   D2A 7852  19.869  34.554   8.250
 3647POPC   C3A 7853  19.841  34.587   7.950
 3647POPC   C4A 7854  19.792  34.598   7.650
 3647POPC   C1B 7855  19.820  34.288   8.550
 3647POPC   C2B 7856  19.842  34.329   8.250
 3647POPC   C3B 7857  19.835  34.367   7.950
 3647POPC   C4B 7858  19.799  34.307   7.650
 3648POPC   NC3 7859   1.949  41.542   9.450
 3648POPC   PO4 7860   1.977  41.512   9.150
 3648POPC   GL1 7861   1.963  41.589   8.850
 3648POPC   GL2 7862   2.006  41.637   8.850
 3648POPC   C1A 7863   1.982  41.526   8.550
 3648POPC   D2A 7864   1.957  41.547   8.250
 3648POPC   C3A 7865   1.948  41.537   7.950
 3648POPC   C4A 7866   1.998  41.573   7.650
 3648POPC   C1B 7867   2.094  41.801   8.550
 3648POPC   C2B 7868   2.089  41.809   8.250
 3648POPC   C3B 7869   2.122  41.811   7.950
 3648POPC   C4B 7870   2.120  41.749   7.650
 3649POPC   NC3 7871   9.767   4.306   9.450
 3649POPC   PO4 7872   9.733   4.271   9.150
 3649POPC   GL1 7873   9.775   4.359   8.850
 3649POPC   GL2 7874   9.641   4.308   8.850
 3649POPC   C1A 7875   9.749   4.330   8.550
 3649POPC   D2A 7876   9.790   4.279   8.250
 3649POPC   C3A 7877   9.797   4.288   7.950
 3649POPC   C4A 7878   9.713   4.303   7.650
 3649POPC   C1B 7879   9.550   4.219   8.550
 3649POPC   C2B 7880   9.499   4.254   8.250
 3649POPC   C3B 7881   9.510   4.170   7.950
 3649POPC   C4B 7882   9.543   4.176   7.650
 3650POPC   NC3 7883  19.829  18.329   9.450
 3650POPC   PO4 7884  19.828  18.273   9.150
 3650POPC   GL1 7885  19.836  18.294   8.850
 3650POPC   GL2 7886  19.696  18.241   8.850
 3650POPC   C1A 7887  19.786  18.266   8.550
 3650POPC   D2A 7888  19.850  18.282   8.250
 3650POPC   C3A 7889  19.823  18.287   7.950
 3650POPC   C4A 7890  19.822  18.252   7.650
 3650POPC   C1B 7891  19.567  18.196   8.550
 3650POPC   C2B 7892  19.616  18.253   8.250
 3650POPC   C3B 7893  19.623  18.191   7.950
 3650POPC   C4B 7894  19.602  18.261   7.650
 3651POPC   NC3 7895  22.119  15.937   9.450
 3651POPC   PO4 7896  22.204  15.915   9.150
 3651POPC   GL1 7897  22.163  15.985   8.850
 3651POPC   GL2 7898  22.223  15.841   8.850
 3651POPC   C1A 7899  22.185  15.926   8.550
 3651POPC   D2A 7900  22.121  15.913   8.250
 3651POPC   C3A 7901  22.119  15.960   7.950
 3651POPC   C4A 7902  22.169  15.995   7.650
 3651POPC   C1B 7903  22.366  15.814   8.550
 3651POPC   C2B 7904  22.391  15.833   8.250
 3651POPC   C3B 7905  22.383  15.817   7.950
 3651POPC   C4B 7906  22.358  15.773   7.650
 3652POPC   NC3 7907  29.170   1.170   9.450
 3652POPC   PO4 7908  29.161   1.206   9.150
 3652POPC   GL1 7909  29.146   1.198   8.850
 3652POPC   GL2 7910  29.142   1.333   8.850
 3652POPC   C1A 7911  29.145   1.255   8.550
 3652POPC   D2A 7912  29.128   1.213   8.250
 3652POPC   C3A 7913  29.160   1.172   7.950
 3652POPC   C4A 7914  29.193   1.220   7.650
 3652POPC   C1B 7915  29.012   1.454   8.550
 3652POPC   C2B 7916  29.064   1.471   8.250
 3652POPC   C3B 7917  29.093   1.395   7.950
 3652POPC   C4B 7918  29.012   1.399   7.650
 3653POPC   NC3 7919  22.904  30.664   9.450
 3653POPC   PO4 7920  22.973  30.687   9.150
 3653POPC   GL1 7921  22.945  30.708   8.850
 3653POPC   GL2 7922  23.033  30.636   8.850
 3653POPC   C1A 7923  22.915  30.705   8.550
 3653POPC   D2A 7924  22.922  30.729   8.250
 3653POPC   C3A 7925  22.965  30.726   7.950
 3653POPC   C4A 7926  22.923  30.714   7.650
 3653POPC   C1B 7927  23.204  30.579   8.550
 3653POPC   C2B 7928  23.191  30.589   8.250
 3653POPC   C3B 7929  23.136  30.615   7.950
 3653POPC   C4B 7930  23.151  30.607   7.650
 3654POPC   NC3 7931  29.158  11.256   9.450
 3654POPC   PO4 7932  29.099  11.333   9.150
 3654POPC   GL1 7933  29.146  11.309   8.850
 3654POPC   GL2 7934  29.085  11.368   8.850
 3654POPC   C1A 7935  29.148  11.277   8.550
 3654POPC   D2A 7936  29.122  11.265   8.250
 3654POPC   C3A 7937  29.131  11.306   7.950
 3654POPC   C4A 7938  29.187  11.254   7.650
 3654POPC   C1B 7939  29.021  11.512   8.550
 3654POPC   C2B 7940  29.090  11.543   8.250
 3654POPC   C3B 7941  29.081  11.559   7.950
 3654POPC   C4B 7942  29.004  11.575   7.650
 3655POPC   NC3 7943  23.749   1.256   9.450
 3655POPC   PO4 7944  23.706   1.262   9.150
 3655POPC   GL1 7945  23.666   1.175   8.850
 3655POPC   GL2 7946  23.771   1.349   8.850
 3655POPC   C1A 7947  23.679   1.261   8.550
 3655POPC   D2A 7948  23.666   1.241   8.250
 3655POPC   C3A 7949  23.718   1.196   7.950
 3655POPC   C4A 7950  23.723   1.221   7.650
 3655POPC   C1B 7951  23.792   1.469   8.550
 3655POPC   C2B 7952  23.830   1.472   8.250
 3655POPC   C3B 7953  23.748   1.461   7.950
 3655POPC   C4B 7954  23.799   1.436   7.650
 3656POPC   NC3 7955  28.412   2.727   9.450
 3656POPC   PO4 7956  28.382   2.811   9.150
 3656POPC   GL1 7957  28.404   2.807   8.850
 3656POPC   GL2 7958  28.510   2.740   8.850
 3656POPC   C1A 7959  28.418   2.747   8.550
 3656POPC   D2A 7960  28.418   2.758   8.250
 3656POPC   C3A 7961  28.403   2.797   7.950
 3656POPC   C4A 7962  28.324   2.760   7.650
 3656POPC   C1B 7963  28.612   2.740   8.550
 3656POPC   C2B 7964  28.621   2.790   8.250
 3656POPC   C3B 7965  28.581   2.792   7.950
 3656POPC   C4B 7966  28.635   2.795   7.650
 3657POPC   NC3 7967   3.584   5.084   9.450
 3657POPC   PO4 7968   3.561   5.045   9.150
 3657POPC   GL1 7969   3.563   5.130   8.850
 3657POPC   GL2 7970   3.497   4.965   8.850
 3657POPC   C1A 7971   3.534   5.047   8.550
 3657POPC   D2A 7972   3.531   5.143   8.250
 3657POPC   C3A 7973   3.501   5.125   7.950
 3657POPC   C4A 7974   3.572   5.067   7.650
 3657POPC   C1B 7975   3.519   4.883   8.550
 3657POPC   C2B 7976   3.474   4.818   8.250
 3657POPC   C3B 7977   3.488   4.870   7.950
 3657POPC   C4B 7978   3.488   4.884   7.650
 3658POPC   NC3 7979   1.233  30.689   9.450
 3658POPC   PO4 7980   1.256  30.669   9.150
 3658POPC   GL1 7981   1.183  30.697   8.850
 3658POPC   GL2 7982   1.348  30.648   8.850
 3658POPC   C1A 7983   1.248  30.673   8.550
 3658POPC   D2A 7984   1.167  30.704   8.250
 3658POPC   C3A 7985   1.205  30.683   7.950
 3658POPC   C4A 7986   1.216  30.680   7.650
 3658POPC   C1B 7987   1.489  30.563   8.550
 3658POPC   C2B 7988   1.451  30.647   8.250
 3658POPC   C3B 7989   1.465  30.643   7.950
 3658POPC   C4B 7990   1.479  30.576   7.650
 3659POPC   NC3 7991  28.331  37.694   9.450
 3659POPC   PO4 7992  28.365  37.670   9.150
 3659POPC   GL1 7993  28.355  37.729   8.850
 3659POPC   GL2 7994  28.380  37.508   8.850
 3659POPC   C1A 7995  28.403  37.725   8.550
 3659POPC   D2A 7996  28.350  37.639   8.250
 3659POPC   C3A 7997  28.409  37.642   7.950
 3659POPC   C4A 7998  28.397  37.683   7.650
 3659POPC   C1B 7999  28.406  37.436   8.550
 3659POPC   C2B 8000  28.314  37.451   8.250
 3659POPC   C3B 8001  28.318  37.381   7.950
 3659POPC   C4B 8002  28.333  37.455   7.650
 3660POPC   NC3 8003  27.590  19.086   9.450
 3660POPC   PO4 8004  27.554  19.015   9.150
 3660POPC   GL1 8005  27.625  19.033   8.850
 3660POPC   GL2 8006  27.489  19.127   8.850
 3660POPC   C1A 8007  27.580  19.081   8.550
 3660POPC   D2A 8008  27.607  19.063   8.250
 3660POPC   C3A 8009  27.580  19.042   7.950
 3660POPC   C4A 8010  27.625  19.085   7.650
 3660POPC   C1B 8011  27.426  19.248   8.550
 3660POPC   C2B 8012  27.482  19.223   8.250
 3660POPC   C3B 8013  27.407  19.307   7.950
 3660POPC   C4B 8014  27.455  19.301   7.650
 3661POPC   NC3 8015  32.248  22.131   9.450
 3661POPC   PO4 8016  32.233  22.142   9.150
 3661POPC   GL1 8017  32.246  22.144   8.850
 3661POPC   GL2 8018  32.163  22.186   8.850
 3661POPC   C1A 8019  32.233  22.190   8.550
 3661POPC   D2A 8020  32.285  22.170   8.250
 3661POPC   C3A 8021  32.240  22.152   7.950
 3661POPC   C4A 8022  32.241  22.173   7.650
 3661POPC   C1B 8023  32.039  22.204   8.550
 3661POPC   C2B 8024  32.057  22.275   8.250
 3661POPC   C3B 8025  32.056  22.291   7.950
 3661POPC   C4B 8026  31.982  22.278   7.650
 3662POPC   NC3 8027   9.726  29.895   9.450
 3662POPC   PO4 8028   9.789  29.932   9.150
 3662POPC   GL1 8029   9.787  29.952   8.850
 3662POPC   GL2 8030   9.862  29.905   8.850
 3662POPC   C1A 8031   9.764  29.950   8.550
 3662POPC   D2A 8032   9.702  29.966   8.250
 3662POPC   C3A 8033   9.747  29.941   7.950
 3662POPC   C4A 8034   9.713  29.922   7.650
 3662POPC   C1B 8035   9.965  29.922   8.550
 3662POPC   C2B 8036  10.022  29.849   8.250
 3662POPC   C3B 8037  10.005  29.868   7.950
 3662POPC   C4B 8038   9.948  29.902   7.650
 3663POPC   NC3 8039  32.994  22.947   9.450
 3663POPC   PO4 8040  33.013  22.906   9.150
 3663POPC   GL1 8041  33.069  22.898   8.850
 3663POPC   GL2 8042  33.153  22.949   8.850
 3663POPC   C1A 8043  33.045  22.912   8.550
 3663POPC   D2A 8044  33.021  22.976   8.250
 3663POPC   C3A 8045  33.011  22.900   7.950
 3663POPC   C4A 8046  33.029  22.962   7.650
 3663POPC   C1B 8047  33.300  22.866   8.550
 3663POPC   C2B 8048  33.222  22.892   8.250
 3663POPC   C3B 8049  33.295  22.888   7.950
 3663POPC   C4B 8050  33.288  22.862   7.650
 3664POPC   NC3 8051  26.021  40.817   9.450
 3664POPC   PO4 8052  26.085  40.829   9.150
 3664POPC   GL1 8053  26.078  40.829   8.850
 3664POPC   GL2 8054  25.896  40.874   8.850
 3664POPC   C1A 8055  26.057  40.815   8.550
 3664POPC   D2A 8056  26.066  40.772   8.250
 3664POPC   C3A 8057  26.011  40.815   7.950
 3664POPC   C4A 8058  26.031  40.824   7.650
 3664POPC   C1B 8059  25.858  40.884   8.550
 3664POPC   C2B 8060  25.797  40.886   8.250
 3664POPC   C3B 8061  25.841  40.872   7.950
 3664POPC   C4B 8062  25.834  40.869   7.650
 3665POPC   NC3 8063  26.840  36.127   9.450
 3665POPC   PO4 8064  26.797  36.159   9.150
 3665POPC   GL1 8065  26.808  36.132   8.850
 3665POPC   GL2 8066  26.777  36.274   8.850
 3665POPC   C1A 8067  26.824  36.151   8.550
 3665POPC   D2A 8068  26.783  36.121   8.250
 3665POPC   C3A 8069  26.844  36.097   7.950
 3665POPC   C4A 8070  26.815  36.094   7.650
 3665POPC   C1B 8071  26.714  36.306   8.550
 3665POPC   C2B 8072  26.689  36.344   8.250
 3665POPC   C3B 8073  26.708  36.382   7.950
 3665POPC   C4B 8074  26.708  36.317   7.650
 3666POPC   NC3 8075  21.352  12.833   9.450
 3666POPC   PO4 8076  21.395  12.864   9.150
 3666POPC   GL1 8077  21.345  12.868   8.850
 3666POPC   GL2 8078  21.399  12.754   8.850
 3666POPC   C1A 8079  21.430  12.856   8.550
 3666POPC   D2A 8080  21.403  12.874   8.250
 3666POPC   C3A 8081  21.356  12.863   7.950
 3666POPC   C4A 8082  21.362  12.878   7.650
 3666POPC   C1B 8083  21.470  12.629   8.550
 3666POPC   C2B 8084  21.409  12.654   8.250
 3666POPC   C3B 8085  21.411  12.603   7.950
 3666POPC   C4B 8086  21.380  12.585   7.650
 3667POPC   NC3 8087  12.039  40.736   9.450
 3667POPC   PO4 8088  12.060  40.775   9.150
 3667POPC   GL1 8089  12.083  40.734   8.850
 3667POPC   GL2 8090  11.937  40.864   8.850
 3667POPC   C1A 8091  12.107  40.748   8.550
 3667POPC   D2A 8092  12.028  40.781   8.250
 3667POPC   C3A 8093  12.083  40.753   7.950
 3667POPC   C4A 8094  12.047  40.762   7.650
 3667POPC   C1B 8095  11.886  40.908   8.550
 3667POPC   C2B 8096  11.871  40.862   8.250
 3667POPC   C3B 8097  11.832  40.913   7.950
 3667POPC   C4B 8098  11.801  40.881   7.650
 3668POPC   NC3 8099  14.384  11.305   9.450
 3668POPC   PO4 8100  14.407  11.329   9.150
 3668POPC   GL1 8101  14.396  11.292   8.850
 3668POPC   GL2 8102  14.550  11.274   8.850
 3668POPC   C1A 8103  14.370  11.279   8.550
 3668POPC   D2A 8104  14.404  11.337   8.250
 3668POPC   C3A 8105  14.356  11.300   7.950
 3668POPC   C4A 8106  14.421  11.296   7.650
 3668POPC   C1B 8107  14.628  11.303   8.550
 3668POPC   C2B 8108  14.610  11.227   8.250
 3668POPC   C3B 8109  14.697  11.269   7.950
 3668POPC   C4B 8110  14.685  11.240   7.650
 3669POPC   NC3 8111  43.877  42.367   9.450
 3669POPC   PO4 8112  43.904  42.345   9.150
 3669POPC   GL1 8113  43.913  42.355   8.850
 3669POPC   GL2 8114  43.772  42.446   8.850
 3669POPC   C1A 8115  43.916  42.287   8.550
 3669POPC   D2A 8116  43.855  42.369   8.250
 3669POPC   C3A 8117  43.845  42.325   7.950
 3669POPC   C4A 8118  43.853  42.378   7.650
 3669POPC   C1B 8119  43.661  42.474   8.550
 3669POPC   C2B 8120  43.735  42.460   8.250
 3669POPC   C3B 8121  43.700  42.454   7.950
 3669POPC   C4B 8122  43.729  42.532   7.650
 3670POPC   NC3 8123   1.990  21.365   9.450
 3670POPC   PO4 8124   2.033  21.340   9.150
 3670POPC   GL1 8125   1.995  21.433   8.850
 3670POPC   GL2 8126   1.897  21.433   8.850
 3670POPC   C1A 8127   1.978  21.393   8.550
 3670POPC   D2A 8128   2.009  21.375   8.250
 3670POPC   C3A 8129   2.035  21.395   7.950
 3670POPC   C4A 8130   1.965  21.338   7.650
 3670POPC   C1B 8131   1.761  21.539   8.550
 3670POPC   C2B 8132   1.825  21.517   8.250
 3670POPC   C3B 8133   1.769  21.556   7.950
 3670POPC   C4B 8134   1.780  21.533   7.650
 3671POPC   NC3 8135  20.587  15.909   9.450
 3671POPC   PO4 8136  20.635  15.946   9.150
 3671POPC   GL1 8137  20.581  15.984   8.850
 3671POPC   GL2 8138  20.542  15.961   8.850
 3671POPC   C1A 8139  20.625  15.935   8.550
 3671POPC   D2A 8140  20.579  15.974   8.250
 3671POPC   C3A 8141  20.566  15.916   7.950
 3671POPC   C4A 8142  20.636  15.913   7.650
 3671POPC   C1B 8143  20.333  16.050   8.550
 3671POPC   C2B 8144  20.334  16.096   8.250
 3671POPC   C3B 8145  20.409  16.000   7.950
 3671POPC   C4B 8146  20.379  16.007   7.650
 3672POPC   NC3 8147  12.037  28.391   9.450
 3672POPC   PO4 8148  12.085  28.367   9.150
 3672POPC   GL1 8149  12.032  28.413   8.850
 3672POPC   GL2 8150  12.069  28.536   8.850
 3672POPC   C1A 8151  12.121  28.340   8.550
 3672POPC   D2A 8152  12.104  28.344   8.250
 3672POPC   C3A 8153  12.039  28.344   7.950
 3672POPC   C4A 8154  12.122  28.350   7.650
 3672POPC   C1B 8155  12.084  28.609   8.550
 3672POPC   C2B 8156  12.064  28.632   8.250
 3672POPC   C3B 8157  12.084  28.606   7.950
 3672POPC   C4B 8158  12.075  28.659   7.650
 3673POPC   NC3 8159   1.944   8.216   9.450
 3673POPC   PO4 8160   1.998   8.157   9.150
 3673POPC   GL1 8161   2.011   8.180   8.850
 3673POPC   GL2 8162   1.958   8.108   8.850
 3673POPC   C1A 8163   1.977   8.179   8.550
 3673POPC   D2A 8164   1.940   8.185   8.250
 3673POPC   C3A 8165   1.978   8.226   7.950
 3673POPC   C4A 8166   2.012   8.228   7.650
 3673POPC   C1B 8167   1.947   7.981   8.550
 3673POPC   C2B 8168   1.930   7.961   8.250
 3673POPC   C3B 8169   1.938   7.943   7.950
 3673POPC   C4B 8170   1.869   7.972   7.650
 3674POPC   NC3 8171  26.047  23.696   9.450
 3674POPC   PO4 8172  26.006  23.706   9.150
 3674POPC   GL1 8173  26.011  23.746   8.850
 3674POPC   GL2 8174  25.951  23.590   8.850
 3674POPC   C1A 8175  26.002  23.723   8.550
 3674POPC   D2A 8176  26.000  23.753   8.250
 3674POPC   C3A 8177  26.085  23.750   7.950
 3674POPC   C4A 8178  26.053  23.722   7.650
 3674POPC   C1B 8179  25.834  23.584   8.550
 3674POPC   C2B 8180  25.799  23.554   8.250
 3674POPC   C3B 8181  25.801  23.532   7.950
 3674POPC   C4B 8182  25.823  23.598   7.650
 3675POPC   NC3 8183  13.600  44.683   9.450
 3675POPC   PO4 8184  13.603  44.711   9.150
 3675POPC   GL1 8185  13.642  44.704   8.850
 3675POPC   GL2 8186  13.741  44.699   8.850
 3675POPC   C1A 8187  13.669  44.675   8.550
 3675POPC   D2A 8188  13.624  44.617   8.250
 3675POPC   C3A 8189  13.632  44.684   7.950
 3675POPC   C4A 8190  13.602  44.671   7.650
 3675POPC   C1B 8191  13.835  44.658   8.550
 3675POPC   C2B 8192  13.886  44.681   8.250
 3675POPC   C3B 8193  13.907  44.725   7.950
 3675POPC   C4B 8194  13.882  44.738   7.650
 3676POPC   NC3 8195  12.867  40.749   9.450
 3676POPC   PO4 8196  12.879  40.760   9.150
 3676POPC   GL1 8197  12.804  40.744   8.850
 3676POPC   GL2 8198  12.886  40.612   8.850
 3676POPC   C1A 8199  12.892  40.797   8.550
 3676POPC   D2A 8200  12.819  40.809   8.250
 3676POPC   C3A 8201  12.894  40.755   7.950
 3676POPC   C4A 8202  12.885  40.741   7.650
 3676POPC   C1B 8203  12.845  40.503   8.550
 3676POPC   C2B 8204  12.886  40.535   8.250
 3676POPC   C3B 8205  12.857  40.578   7.950
 3676POPC   C4B 8206  12.819  40.498   7.650
 3677POPC   NC3 8207  29.157   7.418   9.450
 3677POPC   PO4 8208  29.155   7.447   9.150
 3677POPC   GL1 8209  29.122   7.458   8.850
 3677POPC   GL2 8210  29.011   7.501   8.850
 3677POPC   C1A 8211  29.194   7.441   8.550
 3677POPC   D2A 8212  29.165   7.423   8.250
 3677POPC   C3A 8213  29.151   7.378   7.950
 3677POPC   C4A 8214  29.105   7.456   7.650
 3677POPC   C1B 8215  28.914   7.459   8.550
 3677POPC   C2B 8216  28.915   7.480   8.250
 3677POPC   C3B 8217  28.863   7.461   7.950
 3677POPC   C4B 8218  28.938   7.475   7.650
 3678POPC   NC3 8219  32.256  24.501   9.450
 3678POPC   PO4 8220  32.206  24.528   9.150
 3678POPC   GL1 8221  32.297  24.456   8.850
 3678POPC   GL2 8222  32.162  24.389   8.850
 3678POPC   C1A 8223  32.270  24.513   8.550
 3678POPC   D2A 8224  32.252  24.497   8.250
 3678POPC   C3A 8225  32.273  24.521   7.950
 3678POPC   C4A 8226  32.226  24.461   7.650
 3678POPC   C1B 8227  32.096  24.312   8.550
 3678POPC   C2B 8228  32.077  24.311   8.250
 3678POPC   C3B 8229  32.104  24.271   7.950
 3678POPC   C4B 8230  32.096  24.328   7.650
 3679POPC   NC3 8231   5.135  36.926   9.450
 3679POPC   PO4 8232   5.080  36.949   9.150
 3679POPC   GL1 8233   5.104  36.863   8.850
 3679POPC   GL2 8234   4.990  36.911   8.850
 3679POPC   C1A 8235   5.083  36.900   8.550
 3679POPC   D2A 8236   5.084  36.938   8.250
 3679POPC   C3A 8237   5.070  36.931   7.950
 3679POPC   C4A 8238   5.063  36.890   7.650
 3679POPC   C1B 8239   4.818  37.005   8.550
 3679POPC   C2B 8240   4.870  36.999   8.250
 3679POPC   C3B 8241   4.845  36.951   7.950
 3679POPC   C4B 8242   4.886  36.914   7.650
 3680POPC   NC3 8243  43.094  34.568   9.450
 3680POPC   PO4 8244  43.074  34.601   9.150
 3680POPC   GL1 8245  43.131  34.613   8.850
 3680POPC   GL2 8246  43.008  34.538   8.850
 3680POPC   C1A 8247  43.154  34.560   8.550
 3680POPC   D2A 8248  43.160  34.589   8.250
 3680POPC   C3A 8249  43.116  34.578   7.950
 3680POPC   C4A 8250  43.092  34.565   7.650
 3680POPC   C1B 8251  42.893  34.455   8.550
 3680POPC   C2B 8252  42.860  34.466   8.250
 3680POPC   C3B 8253  42.848  34.470   7.950
 3680POPC   C4B 8254  42.905  34.410   7.650
 3681POPC   NC3 8255  15.912  41.577   9.450
 3681POPC   PO4 8256  15.920  41.543   9.150
 3681POPC   GL1 8257  15.972  41.540   8.850
 3681POPC   GL2 8258  16.056  41.531   8.850
 3681POPC   C1A 8259  15.966  41.558   8.550
 3681POPC   D2A 8260  15.984  41.520   8.250
 3681POPC   C3A 8261  15.958  41.590   7.950
 3681POPC   C4A 8262  15.976  41.516   7.650
 3681POPC   C1B 8263  16.174  41.469   8.550
 3681POPC   C2B 8264  16.229  41.450   8.250
 3681POPC   C3B 8265  16.233  41.489   7.950
 3681POPC   C4B 8266  16.168  41.453   7.650
 3682POPC   NC3 8267  29.895  22.203   9.450
 3682POPC   PO4 8268  29.936  22.164   9.150
 3682POPC   GL1 8269  29.942  22.134   8.850
 3682POPC   GL2 8270  29.997  22.079   8.850
 3682POPC   C1A 8271  29.921  22.181   8.550
 3682POPC   D2A 8272  29.963  22.174   8.250
 3682POPC   C3A 8273  29.936  22.192   7.950
 3682POPC   C4A 8274  29.946  22.141   7.650
 3682POPC   C1B 8275  30.144  22.014   8.550
 3682POPC   C2B 8276  30.095  22.025   8.250
 3682POPC   C3B 8277  30.149  22.012   7.950
 3682POPC   C4B 8278  30.111  22.040   7.650
 3683POPC   NC3 8279  27.585  42.374   9.450
 3683POPC   PO4 8280  27.581  42.344   9.150
 3683POPC   GL1 8281  27.590  42.301   8.850
 3683POPC   GL2 8282  27.625  42.477   8.850
 3683POPC   C1A 8283  27.595  42.285   8.550
 3683POPC   D2A 8284  27.641  42.344   8.250
 3683POPC   C3A 8285  27.579  42.322   7.950
 3683POPC   C4A 8286  27.571  42.325   7.650
 3683POPC   C1B 8287  27.653  42.573   8.550
 3683POPC   C2B 8288  27.666  42.575   8.250
 3683POPC   C3B 8289  27.618  42.606   7.950
 3683POPC   C4B 8290  27.679  42.541   7.650
 3684POPC   NC3 8291  35.331  23.720   9.450
 3684POPC   PO4 8292  35.333  23.695   9.150
 3684POPC   GL1 8293  35.369  23.717   8.850
 3684POPC   GL2 8294  35.199  23.748   8.850
 3684POPC   C1A 8295  35.305  23.761   8.550
 3684POPC   D2A 8296  35.384  23.674   8.250
 3684POPC   C3A 8297  35.367  23.702   7.950
 3684POPC   C4A 8298  35.333  23.719   7.650
 3684POPC   C1B 8299  35.059  23.725   8.550
 3684POPC   C2B 8300  35.124  23.675   8.250
 3684POPC   C3B 8301  35.121  23.693   7.950
 3684POPC   C4B 8302  35.060  23.677   7.650
 3685POPC   NC3 8303  41.539   8.235   9.450
 3685POPC   PO4 8304  41.585   8.196   9.150
 3685POPC   GL1 8305  41.585   8.193   8.850
 3685POPC   GL2 8306  41.566   8.041   8.850
 3685POPC   C1A 8307  41.521   8.160   8.550
 3685POPC   D2A 8308  41.593   8.166   8.250
 3685POPC   C3A 8309  41.601   8.151   7.950
 3685POPC   C4A 8310  41.583   8.224   7.650
 3685POPC   C1B 8311  41.506   7.995   8.550
 3685POPC   C2B 8312  41.534   7.992   8.250
 3685POPC   C3B 8313  41.568   7.935   7.950
 3685POPC   C4B 8314  41.555   7.921   7.650
 3686POPC   NC3 8315  15.910   5.843   9.450
 3686POPC   PO4 8316  15.940   5.874   9.150
 3686POPC   GL1 8317  15.927   5.888   8.850
 3686POPC   GL2 8318  15.998   5.980   8.850
 3686POPC   C1A 8319  15.938   5.896   8.550
 3686POPC   D2A 8320  15.912   5.837   8.250
 3686POPC   C3A 8321  15.962   5.908   7.950
 3686POPC   C4A 8322  15.988   5.910   7.650
 3686POPC   C1B 8323  16.024   6.137   8.550
 3686POPC   C2B 8324  16.043   6.125   8.250
 3686POPC   C3B 8325  15.995   6.149   7.950
 3686POPC   C4B 8326  15.999   6.074   7.650
 3687POPC   NC3 8327  28.376   0.472   9.450
 3687POPC   PO4 8328  28.326   0.423   9.150
 3687POPC   GL1 8329  28.339   0.432   8.850
 3687POPC   GL2 8330  28.344   0.362   8.850
 3687POPC   C1A 8331  28.328   0.425   8.550
 3687POPC   D2A 8332  28.325   0.399   8.250
 3687POPC   C3A 8333  28.408   0.409   7.950
 3687POPC   C4A 8334  28.334   0.397   7.650
 3687POPC   C1B 8335  28.435   0.221   8.550
 3687POPC   C2B 8336  28.427   0.144   8.250
 3687POPC   C3B 8337  28.401   0.148   7.950
 3687POPC   C4B 8338  28.352   0.177   7.650
 3688POPC   NC3 8339  10.485  21.336   9.450
 3688POPC   PO4 8340  10.514  21.413   9.150
 3688POPC   GL1 8341  10.488  21.414   8.850
 3688POPC   GL2 8342  10.370  21.326   8.850
 3688POPC   C1A 8343  10.536  21.392   8.550
 3688POPC   D2A 8344  10.528  21.355   8.250
 3688POPC   C3A 8345  10.520  21.380   7.950
 3688POPC   C4A 8346  10.548  21.384   7.650
 3688POPC   C1B 8347  10.335  21.263   8.550
 3688POPC   C2B 8348  10.294  21.302   8.250
 3688POPC   C3B 8349  10.264  21.227   7.950
 3688POPC   C4B 8350  10.260  21.228   7.650
 3689POPC   NC3 8351   5.084  11.331   9.450
 3689POPC   PO4 8352   5.081  11.263   9.150
 3689POPC   GL1 8353   5.086  11.270   8.850
 3689POPC   GL2 8354   5.061  11.174   8.850
 3689POPC   C1A 8355   5.070  11.313   8.550
 3689POPC   D2A 8356   5.132  11.323   8.250
 3689POPC   C3A 8357   5.064  11.274   7.950
 3689POPC   C4A 8358   5.078  11.279   7.650
 3689POPC   C1B 8359   5.050  11.095   8.550
 3689POPC   C2B 8360   5.070  11.066   8.250
 3689POPC   C3B 8361   5.090  11.091   7.950
 3689POPC   C4B 8362   5.087  11.083   7.650
 3690POPC   NC3 8363  18.254  39.994   9.450
 3690POPC   PO4 8364  18.312  39.962   9.150
 3690POPC   GL1 8365  18.313  40.050   8.850
 3690POPC   GL2 8366  18.243  40.171   8.850
 3690POPC   C1A 8367  18.310  40.004   8.550
 3690POPC   D2A 8368  18.311  40.031   8.250
 3690POPC   C3A 8369  18.266  39.984   7.950
 3690POPC   C4A 8370  18.237  39.989   7.650
 3690POPC   C1B 8371  18.311  40.272   8.550
 3690POPC   C2B 8372  18.241  40.213   8.250
 3690POPC   C3B 8373  18.221  40.209   7.950
 3690POPC   C4B 8374  18.219  40.261   7.650
 3691POPC   NC3 8375  34.605  26.783   9.450
 3691POPC   PO4 8376  34.556  26.820   9.150
 3691POPC   GL1 8377  34.567  26.806   8.850
 3691POPC   GL2 8378  34.657  26.823   8.850
 3691POPC   C1A 8379  34.598  26.830   8.550
 3691POPC   D2A 8380  34.582  26.788   8.250
 3691POPC   C3A 8381  34.616  26.819   7.950
 3691POPC   C4A 8382  34.538  26.820   7.650
 3691POPC   C1B 8383  34.858  26.838   8.550
 3691POPC   C2B 8384  34.820  26.845   8.250
 3691POPC   C3B 8385  34.782  26.802   7.950
 3691POPC   C4B 8386  34.837  26.777   7.650
 3692POPC   NC3 8387  25.272  33.815   9.450
 3692POPC   PO4 8388  25.288  33.836   9.150
 3692POPC   GL1 8389  25.216  33.767   8.850
 3692POPC   GL2 8390  25.365  33.752   8.850
 3692POPC   C1A 8391  25.289  33.832   8.550
 3692POPC   D2A 8392  25.307  33.804   8.250
 3692POPC   C3A 8393  25.224  33.832   7.950
 3692POPC   C4A 8394  25.255  33.776   7.650
 3692POPC   C1B 8395  25.540  33.802   8.550
 3692POPC   C2B 8396  25.497  33.776   8.250
 3692POPC   C3B 8397  25.555  33.778   7.950
 3692POPC   C4B 8398  25.552  33.778   7.650
 3693POPC   NC3 8399   8.960  26.013   9.450
 3693POPC   PO4 8400   8.971  26.011   9.150
 3693POPC   GL1 8401   9.007  26.060   8.850
 3693POPC   GL2 8402   9.079  26.020   8.850
 3693POPC   C1A 8403   8.971  26.030   8.550
 3693POPC   D2A 8404   9.013  26.002   8.250
 3693POPC   C3A 8405   8.967  26.022   7.950
 3693POPC   C4A 8406   8.991  26.077   7.650
 3693POPC   C1B 8407   9.233  25.991   8.550
 3693POPC   C2B 8408   9.191  25.933   8.250
 3693POPC   C3B 8409   9.225  26.008   7.950
 3693POPC   C4B 8410   9.167  26.030   7.650
 3694POPC   NC3 8411   2.019  19.870   9.450
 3694POPC   PO4 8412   1.947  19.878   9.150
 3694POPC   GL1 8413   2.003  19.823   8.850
 3694POPC   GL2 8414   1.868  19.862   8.850
 3694POPC   C1A 8415   1.975  19.847   8.550
 3694POPC   D2A 8416   2.025  19.800   8.250
 3694POPC   C3A 8417   1.976  19.862   7.950
 3694POPC   C4A 8418   2.031  19.854   7.650
 3694POPC   C1B 8419   1.796  19.915   8.550
 3694POPC   C2B 8420   1.803  19.977   8.250
 3694POPC   C3B 8421   1.752  19.931   7.950
 3694POPC   C4B 8422   1.790  19.915   7.650
 3695POPC   NC3 8423  29.132  28.367   9.450
 3695POPC   PO4 8424  29.098  28.401   9.150
 3695POPC   GL1 8425  29.111  28.394   8.850
 3695POPC   GL2 8426  29.013  28.348   8.850
 3695POPC   C1A 8427  29.183  28.397   8.550
 3695POPC   D2A 8428  29.145  28.388   8.250
 3695POPC   C3A 8429  29.139  28.385   7.950
 3695POPC   C4A 8430  29.184  28.353   7.650
 3695POPC   C1B 8431  28.909  28.242   8.550
 3695POPC   C2B 8432  28.970  28.245   8.250
 3695POPC   C3B 8433  28.916  28.284   7.950
 3695POPC   C4B 8434  28.918  28.216   7.650
 3696POPC   NC3 8435  26.843  38.418   9.450
 3696POPC   PO4 8436  26.851  38.412   9.150
 3696POPC   GL1 8437  26.782  38.438   8.850
 3696POPC   GL2 8438  26.846  38.292   8.850
 3696POPC   C1A 8439  26.854  38.413   8.550
 3696POPC   D2A 8440  26.797  38.489   8.250
 3696POPC   C3A 8441  26.842  38.417   7.950
 3696POPC   C4A 8442  26.773  38.441   7.650
 3696POPC   C1B 8443  26.889  38.244   8.550
 3696POPC   C2B 8444  26.850  38.261   8.250
 3696POPC   C3B 8445  26.895  38.207   7.950
 3696POPC   C4B 8446  26.849  38.224   7.650
 3697POPC   NC3 8447  18.239  22.194   9.450
 3697POPC   PO4 8448  18.308  22.126   9.150
 3697POPC   GL1 8449  18.271  22.189   8.850
 3697POPC   GL2 8450  18.428  22.108   8.850
 3697POPC   C1A 8451  18.262  22.185   8.550
 3697POPC   D2A 8452  18.276  22.187   8.250
 3697POPC   C3A 8453  18.308  22.183   7.950
 3697POPC   C4A 8454  18.331  22.188   7.650
 3697POPC   C1B 8455  18.520  22.065   8.550
 3697POPC   C2B 8456  18.532  22.027   8.250
 3697POPC   C3B 8457  18.461  22.006   7.950
 3697POPC   C4B 8458  18.511  22.036   7.650
 3698POPC   NC3 8459   2.761  25.219   9.450
 3698POPC   PO4 8460   2.771  25.314   9.150
 3698POPC   GL1 8461   2.802  25.225   8.850
 3698POPC   GL2 8462   2.781  25.177   8.850
 3698POPC   C1A 8463   2.718  25.253   8.550
 3698POPC   D2A 8464   2.743  25.238   8.250
 3698POPC   C3A 8465   2.777  25.219   7.950
 3698POPC   C4A 8466   2.799  25.252   7.650
 3698POPC   C1B 8467   2.781  25.032   8.550
 3698POPC   C2B 8468   2.754  24.993   8.250
 3698POPC   C3B 8469   2.822  24.987   7.950
 3698POPC   C4B 8470   2.843  25.020   7.650
 3699POPC   NC3 8471  43.874  21.411   9.450
 3699POPC   PO4 8472  43.887  21.339   9.150
 3699POPC   GL1 8473  43.874  21.361   8.850
 3699POPC   GL2 8474  43.971  21.313   8.850
 3699POPC   C1A 8475  43.926  21.359   8.550
 3699POPC   D2A 8476  43.844  21.409   8.250
 3699POPC   C3A 8477  43.902  21.360   7.950
 3699POPC   C4A 8478  43.872  21.344   7.650
 3699POPC   C1B 8479  44.045  21.191   8.550
 3699POPC   C2B 8480  43.973  21.204   8.250
 3699POPC   C3B 8481  43.989  21.205   7.950
 3699POPC   C4B 8482  43.979  21.151   7.650
 3700POPC   NC3 8483  29.121  42.346   9.450
 3700POPC   PO4 8484  29.104  42.293   9.150
 3700POPC   GL1 8485  29.162  42.363   8.850
 3700POPC   GL2 8486  29.092  42.466   8.850
 3700POPC   C1A 8487  29.134  42.299   8.550
 3700POPC   D2A 8488  29.178  42.288   8.250
 3700POPC   C3A 8489  29.119  42.363   7.950
 3700POPC   C4A 8490  29.098  42.371   7.650
 3700POPC   C1B 8491  28.968  42.523   8.550
 3700POPC   C2B 8492  29.023  42.578   8.250
 3700POPC   C3B 8493  29.045  42.517   7.950
 3700POPC   C4B 8494  29.005  42.543   7.650
 3701POPC   NC3 8495  11.279   9.724   9.450
 3701POPC   PO4 8496  11.295   9.735   9.150
 3701POPC   GL1 8497  11.320   9.752   8.850
 3701POPC   GL2 8498  11.158   9.791   8.850
 3701POPC   C1A 8499  11.309   9.769   8.550
 3701POPC   D2A 8500  11.251   9.721   8.250
 3701POPC   C3A 8501  11.251   9.786   7.950
 3701POPC   C4A 8502  11.254   9.743   7.650
 3701POPC   C1B 8503  11.024   9.839   8.550
 3701POPC   C2B 8504  11.066   9.789   8.250
 3701POPC   C3B 8505  11.063   9.845   7.950
 3701POPC   C4B 8506  11.052   9.801   7.650
 3702POPC   NC3 8507  12.095  25.243   9.450
 3702POPC   PO4 8508  12.052  25.270   9.150
 3702POPC   GL1 8509  12.090  25.249   8.850
 3702POPC   GL2 8510  12.061  25.364   8.850
 3702POPC   C1A 8511  12.044  25.270   8.550
 3702POPC   D2A 8512  12.088  25.304   8.250
 3702POPC   C3A 8513  12.073  25.278   7.950
 3702POPC   C4A 8514  12.054  25.292   7.650
 3702POPC   C1B 8515  12.096  25.518   8.550
 3702POPC   C2B 8516  12.096  25.550   8.250
 3702POPC   C3B 8517  12.116  25.484   7.950
 3702POPC   C4B 8518  12.109  25.522   7.650
 3703POPC   NC3 8519  27.631   7.412   9.450
 3703POPC   PO4 8520  27.571   7.432   9.150
 3703POPC   GL1 8521  27.641   7.412   8.850
 3703POPC   GL2 8522  27.706   7.540   8.850
 3703POPC   C1A 8523  27.576   7.387   8.550
 3703POPC   D2A 8524  27.587   7.462   8.250
 3703POPC   C3A 8525  27.566   7.451   7.950
 3703POPC   C4A 8526  27.620   7.466   7.650
 3703POPC   C1B 8527  27.761   7.622   8.550
 3703POPC   C2B 8528  27.759   7.599   8.250
 3703POPC   C3B 8529  27.760   7.597   7.950
 3703POPC   C4B 8530  27.783   7.626   7.650
 3704POPC   NC3 8531  26.815   0.462   9.450
 3704POPC   PO4 8532  26.804   0.422   9.150
 3704POPC   GL1 8533  26.800   0.471   8.850
 3704POPC   GL2 8534  26.769   0.350   8.850
 3704POPC   C1A 8535  26.810   0.392   8.550
 3704POPC   D2A 8536  26.782   0.457   8.250
 3704POPC   C3A 8537  26.834   0.431   7.950
 3704POPC   C4A 8538  26.776   0.430   7.650
 3704POPC   C1B 8539  26.679   0.298   8.550
 3704POPC   C2B 8540  26.612   0.215   8.250
 3704POPC   C3B 8541  26.613   0.262   7.950
 3704POPC   C4B 8542  26.669   0.242   7.650
 3705POPC   NC3 8543  31.428  27.642   9.450
 3705POPC   PO4 8544  31.497  27.636   9.150
 3705POPC   GL1 8545  31.432  27.621   8.850
 3705POPC   GL2 8546  31.401  27.619   8.850
 3705POPC   C1A 8547  31.451  27.591   8.550
 3705POPC   D2A 8548  31.461  27.586   8.250
 3705POPC   C3A 8549  31.440  27.545   7.950
 3705POPC   C4A 8550  31.479  27.618   7.650
 3705POPC   C1B 8551  31.194  27.708   8.550
 3705POPC   C2B 8552  31.242  27.695   8.250
 3705POPC   C3B 8553  31.251  27.663   7.950
 3705POPC   C4B 8554  31.233  27.707   7.650
 3706POPC   NC3 8555   4.274  43.890   9.450
 3706POPC   PO4 8556   4.332  43.868   9.150
 3706POPC   GL1 8557   4.332  43.889   8.850
 3706POPC   GL2 8558   4.404  43.925   8.850
 3706POPC   C1A 8559   4.332  43.860   8.550
 3706POPC   D2A 8560   4.303  43.912   8.250
 3706POPC   C3A 8561   4.296  43.901   7.950
 3706POPC   C4A 8562   4.325  43.844   7.650
 3706POPC   C1B 8563   4.517  43.934   8.550
 3706POPC   C2B 8564   4.596  43.900   8.250
 3706POPC   C3B 8565   4.605  43.911   7.950
 3706POPC   C4B 8566   4.557  43.929   7.650
 3707POPC   NC3 8567  32.977   6.626   9.450
 3707POPC   PO4 8568  32.995   6.678   9.150
 3707POPC   GL1 8569  33.000   6.655   8.850
 3707POPC   GL2 8570  32.931   6.596   8.850
 3707POPC   C1A 8571  33.041   6.612   8.550
 3707POPC   D2A 8572  33.051   6.684   8.250
 3707POPC   C3A 8573  32.985   6.631   7.950
 3707POPC   C4A 8574  32.975   6.626   7.650
 3707POPC   C1B 8575  32.774   6.563   8.550
 3707POPC   C2B 8576  32.799   6.561   8.250
 3707POPC   C3B 8577  32.804   6.640   7.950
 3707POPC   C4B 8578  32.815   6.608   7.650
 3708POPC   NC3 8579  30.725  17.503   9.450
 3708POPC   PO4 8580  30.724  17.507   9.150
 3708POPC   GL1 8581  30.655  17.479   8.850
 3708POPC   GL2 8582  30.778  17.573   8.850
 3708POPC   C1A 8583  30.684  17.484   8.550
 3708POPC   D2A 8584  30.664  17.488   8.250
 3708POPC   C3A 8585  30.736  17.501   7.950
 3708POPC   C4A 8586  30.689  17.499   7.650
 3708POPC   C1B 8587  30.917  17.654   8.550
 3708POPC   C2B 8588  30.917  17.585   8.250
 3708POPC   C3B 8589  30.925  17.608   7.950
 3708POPC   C4B 8590  30.894  17.577   7.650
 3709POPC   NC3 8591  40.734  19.073   9.450
 3709POPC   PO4 8592  40.763  19.065   9.150
 3709POPC   GL1 8593  40.781  19.033   8.850
 3709POPC   GL2 8594  40.699  18.975   8.850
 3709POPC   C1A 8595  40.776  19.056   8.550
 3709POPC   D2A 8596  40.803  19.054   8.250
 3709POPC   C3A 8597  40.806  19.050   7.950
 3709POPC   C4A 8598  40.802  19.017   7.650
 3709POPC   C1B 8599  40.559  19.030   8.550
 3709POPC   C2B 8600  40.546  19.033   8.250
 3709POPC   C3B 8601  40.582  19.002   7.950
 3709POPC   C4B 8602  40.580  18.965   7.650
 3710POPC   NC3 8603  22.136  39.209   9.450
 3710POPC   PO4 8604  22.168  39.244   9.150
 3710POPC   GL1 8605  22.133  39.231   8.850
 3710POPC   GL2 8606  22.190  39.346   8.850
 3710POPC   C1A 8607  22.170  39.201   8.550
 3710POPC   D2A 8608  22.195  39.222   8.250
 3710POPC   C3A 8609  22.202  39.251   7.950
 3710POPC   C4A 8610  22.136  39.279   7.650
 3710POPC   C1B 8611  22.257  39.478   8.550
 3710POPC   C2B 8612  22.299  39.439   8.250
 3710POPC   C3B 8613  22.262  39.418   7.950
 3710POPC   C4B 8614  22.289  39.482   7.650
 3711POPC   NC3 8615   6.679  18.332   9.450
 3711POPC   PO4 8616   6.651  18.308   9.150
 3711POPC   GL1 8617   6.612  18.236   8.850
 3711POPC   GL2 8618   6.544  18.168   8.850
 3711POPC   C1A 8619   6.619  18.252   8.550
 3711POPC   D2A 8620   6.597  18.249   8.250
 3711POPC   C3A 8621   6.650  18.303   7.950
 3711POPC   C4A 8622   6.679  18.308   7.650
 3711POPC   C1B 8623   6.524  18.112   8.550
 3711POPC   C2B 8624   6.551  18.051   8.250
 3711POPC   C3B 8625   6.524  18.025   7.950
 3711POPC   C4B 8626   6.547  18.102   7.650
 3712POPC   NC3 8627  19.796  33.783   9.450
 3712POPC   PO4 8628  19.856  33.775   9.150
 3712POPC   GL1 8629  19.786  33.810   8.850
 3712POPC   GL2 8630  19.729  33.761   8.850
 3712POPC   C1A 8631  19.847  33.780   8.550
 3712POPC   D2A 8632  19.834  33.795   8.250
 3712POPC   C3A 8633  19.844  33.821   7.950
 3712POPC   C4A 8634  19.830  33.767   7.650
 3712POPC   C1B 8635  19.601  33.664   8.550
 3712POPC   C2B 8636  19.633  33.660   8.250
 3712POPC   C3B 8637  19.609  33.690   7.950
 3712POPC   C4B 8638  19.621  33.720   7.650
 3713POPC   NC3 8639  32.227   2.791   9.450
 3713POPC   PO4 8640  32.233   2.809   9.150
 3713POPC   GL1 8641  32.266   2.804   8.850
 3713POPC   GL2 8642  32.357   2.747   8.850
 3713POPC   C1A 8643  32.205   2.787   8.550
 3713POPC   D2A 8644  32.240   2.789   8.250
 3713POPC   C3A 8645  32.255   2.806   7.950
 3713POPC   C4A 8646  32.282   2.776   7.650
 3713POPC   C1B 8647  32.487   2.686   8.550
 3713POPC   C2B 8648  32.511   2.722   8.250
 3713POPC   C3B 8649  32.473   2.762   7.950
 3713POPC   C4B 8650  32.454   2.732   7.650
 3714POPC   NC3 8651  35.330   8.186   9.450
 3714POPC   PO4 8652  35.351   8.233   9.150
 3714POPC   GL1 8653  35.380   8.147   8.850
 3714POPC   GL2 8654  35.469   8.103   8.850
 3714POPC   C1A 8655  35.375   8.220   8.550
 3714POPC   D2A 8656  35.316   8.175   8.250
 3714POPC   C3A 8657  35.337   8.218   7.950
 3714POPC   C4A 8658  35.381   8.188   7.650
 3714POPC   C1B 8659  35.542   7.966   8.550
 3714POPC   C2B 8660  35.454   7.982   8.250
 3714POPC   C3B 8661  35.543   7.975   7.950
 3714POPC   C4B 8662  35.507   7.951   7.650
 3715POPC   NC3 8663   6.649  33.044   9.450
 3715POPC   PO4 8664   6.654  33.031   9.150
 3715POPC   GL1 8665   6.669  32.993   8.850
 3715POPC   GL2 8666   6.649  33.132   8.850
 3715POPC   C1A 8667   6.682  33.019   8.550
 3715POPC   D2A 8668   6.649  32.994   8.250
 3715POPC   C3A 8669   6.640  32.994   7.950
 3715POPC   C4A 8670   6.655  32.992   7.650
 3715POPC   C1B 8671   6.630  33.316   8.550
 3715POPC   C2B 8672   6.619  33.275   8.250
 3715POPC   C3B 8673   6.641  33.318   7.950
 3715POPC   C4B 8674   6.676  33.281   7.650
 3716POPC   NC3 8675  15.993   6.672   9.450
 3716POPC   PO4 8676  15.964   6.645   9.150
 3716POPC   GL1 8677  15.961   6.610   8.850
 3716POPC   GL2 8678  16.061   6.673   8.850
 3716POPC   C1A 8679  15.963   6.653   8.550
 3716POPC   D2A 8680  15.944   6.644   8.250
 3716POPC   C3A 8681  15.934   6.622   7.950
 3716POPC   C4A 8682  15.930   6.673   7.650
 3716POPC   C1B 8683  16.188   6.699   8.550
 3716POPC   C2B 8684  16.143   6.780   8.250
 3716POPC   C3B 8685  16.207   6.733   7.950
 3716POPC   C4B 8686  16.233   6.687   7.650
 3717POPC   NC3 8687  21.363  12.037   9.450
 3717POPC   PO4 8688  21.388  12.099   9.150
 3717POPC   GL1 8689  21.436  12.105   8.850
 3717POPC   GL2 8690  21.299  12.082   8.850
 3717POPC   C1A 8691  21.355  12.049   8.550
 3717POPC   D2A 8692  21.359  12.061   8.250
 3717POPC   C3A 8693  21.407  12.074   7.950
 3717POPC   C4A 8694  21.433  12.083   7.650
 3717POPC   C1B 8695  21.155  12.135   8.550
 3717POPC   C2B 8696  21.142  12.156   8.250
 3717POPC   C3B 8697  21.191  12.190   7.950
 3717POPC   C4B 8698  21.191  12.159   7.650
 3718POPC   NC3 8699  26.029  36.147   9.450
 3718POPC   PO4 8700  26.013  36.129   9.150
 3718POPC   GL1 8701  26.044  36.144   8.850
 3718POPC   GL2 8702  25.916  36.083   8.850
 3718POPC   C1A 8703  26.043  36.096   8.550
 3718POPC   D2A 8704  26.002  36.085   8.250
 3718POPC   C3A 8705  26.057  36.079   7.950
 3718POPC   C4A 8706  26.025  36.126   7.650
 3718POPC   C1B 8707  25.815  35.963   8.550
 3718POPC   C2B 8708  25.825  35.924   8.250
 3718POPC   C3B 8709  25.820  35.965   7.950
 3718POPC   C4B 8710  25.858  35.910   7.650
 3719POPC   NC3 8711  26.050  15.980   9.450
 3719POPC   PO4 8712  26.033  15.938   9.150
 3719POPC   GL1 8713  26.089  15.999   8.850
 3719POPC   GL2 8714  26.057  15.812   8.850
 3719POPC   C1A 8715  26.063  15.974   8.550
 3719POPC   D2A 8716  26.056  15.974   8.250
 3719POPC   C3A 8717  26.086  15.947   7.950
 3719POPC   C4A 8718  26.090  15.981   7.650
 3719POPC   C1B 8719  26.178  15.749   8.550
 3719POPC   C2B 8720  26.132  15.759   8.250
 3719POPC   C3B 8721  26.174  15.754   7.950
 3719POPC   C4B 8722  26.178  15.703   7.650
 3720POPC   NC3 8723  36.167   7.424   9.450
 3720POPC   PO4 8724  36.110   7.462   9.150
 3720POPC   GL1 8725  36.173   7.470   8.850
 3720POPC   GL2 8726  36.209   7.268   8.850
 3720POPC   C1A 8727  36.160   7.410   8.550
 3720POPC   D2A 8728  36.089   7.452   8.250
 3720POPC   C3A 8729  36.146   7.400   7.950
 3720POPC   C4A 8730  36.098   7.458   7.650
 3720POPC   C1B 8731  36.274   7.166   8.550
 3720POPC   C2B 8732  36.288   7.218   8.250
 3720POPC   C3B 8733  36.292   7.182   7.950
 3720POPC   C4B 8734  36.269   7.185   7.650
 3721POPC   NC3 8735  32.994   5.882   9.450
 3721POPC   PO4 8736  33.042   5.850   9.150
 3721POPC   GL1 8737  33.022   5.845   8.850
 3721POPC   GL2 8738  33.090   5.954   8.850
 3721POPC   C1A 8739  33.023   5.892   8.550
 3721POPC   D2A 8740  32.993   5.902   8.250
 3721POPC   C3A 8741  32.990   5.874   7.950
 3721POPC   C4A 8742  33.036   5.911   7.650
 3721POPC   C1B 8743  33.258   5.999   8.550
 3721POPC   C2B 8744  33.240   6.001   8.250
 3721POPC   C3B 8745  33.187   6.029   7.950
 3721POPC   C4B 8746  33.227   5.963   7.650
 3722POPC   NC3 8747  27.549   3.589   9.450
 3722POPC   PO4 8748  27.575   3.511   9.150
 3722POPC   GL1 8749  27.564   3.555   8.850
 3722POPC   GL2 8750  27.546   3.462   8.850
 3722POPC   C1A 8751  27.641   3.529   8.550
 3722POPC   D2A 8752  27.633   3.503   8.250
 3722POPC   C3A 8753  27.558   3.588   7.950
 3722POPC   C4A 8754  27.544   3.514   7.650
 3722POPC   C1B 8755  27.500   3.301   8.550
 3722POPC   C2B 8756  27.488   3.306   8.250
 3722POPC   C3B 8757  27.459   3.287   7.950
 3722POPC   C4B 8758  27.457   3.330   7.650
 3723POPC   NC3 8759  19.801   6.693   9.450
 3723POPC   PO4 8760  19.786   6.606   9.150
 3723POPC   GL1 8761  19.817   6.680   8.850
 3723POPC   GL2 8762  19.872   6.768   8.850
 3723POPC   C1A 8763  19.833   6.675   8.550
 3723POPC   D2A 8764  19.853   6.639   8.250
 3723POPC   C3A 8765  19.846   6.616   7.950
 3723POPC   C4A 8766  19.854   6.661   7.650
 3723POPC   C1B 8767  20.013   6.895   8.550
 3723POPC   C2B 8768  20.006   6.872   8.250
 3723POPC   C3B 8769  19.995   6.878   7.950
 3723POPC   C4B 8770  20.020   6.866   7.650
 3724POPC   NC3 8771   8.246  28.369   9.450
 3724POPC   PO4 8772   8.163  28.336   9.150
 3724POPC   GL1 8773   8.191  28.387   8.850
 3724POPC   GL2 8774   8.085  28.295   8.850
 3724POPC   C1A 8775   8.175  28.355   8.550
 3724POPC   D2A 8776   8.149  28.418   8.250
 3724POPC   C3A 8777   8.218  28.321   7.950
 3724POPC   C4A 8778   8.172  28.363   7.650
 3724POPC   C1B 8779   7.996  28.319   8.550
 3724POPC   C2B 8780   7.942  28.268   8.250
 3724POPC   C3B 8781   8.003  28.272   7.950
 3724POPC   C4B 8782   7.995  28.292   7.650
 3725POPC   NC3 8783   5.904  41.589   9.450
 3725POPC   PO4 8784   5.902  41.525   9.150
 3725POPC   GL1 8785   5.838  41.590   8.850
 3725POPC   GL2 8786   5.742  41.668   8.850
 3725POPC   C1A 8787   5.851  41.600   8.550
 3725POPC   D2A 8788   5.853  41.571   8.250
 3725POPC   C3A 8789   5.880  41.529   7.950
 3725POPC   C4A 8790   5.853  41.570   7.650
 3725POPC   C1B 8791   5.695  41.772   8.550
 3725POPC   C2B 8792   5.722  41.710   8.250
 3725POPC   C3B 8793   5.715  41.763   7.950
 3725POPC   C4B 8794   5.675  41.749   7.650
 3726POPC   NC3 8795  13.658  43.851   9.450
 3726POPC   PO4 8796  13.631  43.843   9.150
 3726POPC   GL1 8797  13.593  43.876   8.850
 3726POPC   GL2 8798  13.636  44.004   8.850
 3726POPC   C1A 8799  13.661  43.901   8.550
 3726POPC   D2A 8800  13.583  43.921   8.250
 3726POPC   C3A 8801  13.638  43.888   7.950
 3726POPC   C4A 8802  13.585  43.932   7.650
 3726POPC   C1B 8803  13.578  44.163   8.550
 3726POPC   C2B 8804  13.518  44.100   8.250
 3726POPC   C3B 8805  13.549  44.170   7.950
 3726POPC   C4B 8806  13.552  44.089   7.650
 3727POPC   NC3 8807   4.348  32.285   9.450
 3727POPC   PO4 8808   4.271  32.252   9.150
 3727POPC   GL1 8809   4.346  32.277   8.850
 3727POPC   GL2 8810   4.232  32.121   8.850
 3727POPC   C1A 8811   4.314  32.240   8.550
 3727POPC   D2A 8812   4.284  32.282   8.250
 3727POPC   C3A 8813   4.350  32.266   7.950
 3727POPC   C4A 8814   4.352  32.282   7.650
 3727POPC   C1B 8815   4.273  32.059   8.550
 3727POPC   C2B 8816   4.265  31.994   8.250
 3727POPC   C3B 8817   4.238  31.967   7.950
 3727POPC   C4B 8818   4.248  31.971   7.650
 3728POPC   NC3 8819  23.692   8.928   9.450
 3728POPC   PO4 8820  23.674   8.989   9.150
 3728POPC   GL1 8821  23.676   8.970   8.850
 3728POPC   GL2 8822  23.811   8.917   8.850
 3728POPC   C1A 8823  23.694   8.998   8.550
 3728POPC   D2A 8824  23.735   9.015   8.250
 3728POPC   C3A 8825  23.678   9.017   7.950
 3728POPC   C4A 8826  23.731   8.981   7.650
 3728POPC   C1B 8827  23.937   8.961   8.550
 3728POPC   C2B 8828  23.916   8.985   8.250
 3728POPC   C3B 8829  23.922   8.963   7.950
 3728POPC   C4B 8830  23.989   8.985   7.650
 3729POPC   NC3 8831   0.424   2.011   9.450
 3729POPC   PO4 8832   0.405   1.994   9.150
 3729POPC   GL1 8833   0.453   1.981   8.850
 3729POPC   GL2 8834   0.559   1.893   8.850
 3729POPC   C1A 8835   0.466   1.971   8.550
 3729POPC   D2A 8836   0.415   1.993   8.250
 3729POPC   C3A 8837   0.437   2.013   7.950
 3729POPC   C4A 8838   0.415   2.005   7.650
 3729POPC   C1B 8839   0.617   1.837   8.550
 3729POPC   C2B 8840   0.602   1.850   8.250
 3729POPC   C3B 8841   0.664   1.879   7.950
 3729POPC   C4B 8842   0.677   1.857   7.650
 3730POPC   NC3 8843  15.144  26.030   9.450
 3730POPC   PO4 8844  15.161  26.056   9.150
 3730POPC   GL1 8845  15.152  26.031   8.850
 3730POPC   GL2 8846  15.177  26.185   8.850
 3730POPC   C1A 8847  15.156  26.007   8.550
 3730POPC   D2A 8848  15.228  26.073   8.250
 3730POPC   C3A 8849  15.186  26.009   7.950
 3730POPC   C4A 8850  15.191  26.019   7.650
 3730POPC   C1B 8851  15.263  26.305   8.550
 3730POPC   C2B 8852  15.228  26.266   8.250
 3730POPC   C3B 8853  15.232  26.271   7.950
 3730POPC   C4B 8854  15.273  26.329   7.650
 3731POPC   NC3 8855   7.398  33.769   9.450
 3731POPC   PO4 8856   7.409  33.776   9.150
 3731POPC   GL1 8857   7.389  33.818   8.850
 3731POPC   GL2 8858   7.571  33.733   8.850
 3731POPC   C1A 8859   7.411  33.797   8.550
 3731POPC   D2A 8860   7.405  33.775   8.250
 3731POPC   C3A 8861   7.431  33.807   7.950
 3731POPC   C4A 8862   7.434  33.783   7.650
 3731POPC   C1B 8863   7.610  33.625   8.550
 3731POPC   C2B 8864   7.598  33.611   8.250
 3731POPC   C3B 8865   7.652  33.686   7.950
 3731POPC   C4B 8866   7.579  33.632   7.650
 3732POPC   NC3 8867  12.874  24.528   9.450
 3732POPC   PO4 8868  12.879  24.502   9.150
 3732POPC   GL1 8869  12.846  24.514   8.850
 3732POPC   GL2 8870  12.940  24.413   8.850
 3732POPC   C1A 8871  12.806  24.495   8.550
 3732POPC   D2A 8872  12.851  24.474   8.250
 3732POPC   C3A 8873  12.853  24.478   7.950
 3732POPC   C4A 8874  12.848  24.518   7.650
 3732POPC   C1B 8875  13.102  24.356   8.550
 3732POPC   C2B 8876  13.040  24.347   8.250
 3732POPC   C3B 8877  13.033  24.392   7.950
 3732POPC   C4B 8878  13.111  24.410   7.650
 3733POPC   NC3 8879  21.385  22.945   9.450
 3733POPC   PO4 8880  21.391  22.931   9.150
 3733POPC   GL1 8881  21.350  22.949   8.850
 3733POPC   GL2 8882  21.449  22.826   8.850
 3733POPC   C1A 8883  21.420  22.949   8.550
 3733POPC   D2A 8884  21.379  22.944   8.250
 3733POPC   C3A 8885  21.349  22.978   7.950
 3733POPC   C4A 8886  21.396  22.950   7.650
 3733POPC   C1B 8887  21.377  22.697   8.550
 3733POPC   C2B 8888  21.390  22.734   8.250
 3733POPC   C3B 8889  21.397  22.679   7.950
 3733POPC   C4B 8890  21.370  22.705   7.650
 3734POPC   NC3 8891  14.392   7.437   9.450
 3734POPC   PO4 8892  14.402   7.411   9.150
 3734POPC   GL1 8893  14.448   7.408   8.850
 3734POPC   GL2 8894  14.466   7.308   8.850
 3734POPC   C1A 8895  14.378   7.413   8.550
 3734POPC   D2A 8896  14.369   7.456   8.250
 3734POPC   C3A 8897  14.398   7.443   7.950
 3734POPC   C4A 8898  14.377   7.461   7.650
 3734POPC   C1B 8899  14.571   7.197   8.550
 3734POPC   C2B 8900  14.547   7.182   8.250
 3734POPC   C3B 8901  14.510   7.247   7.950
 3734POPC   C4B 8902  14.520   7.192   7.650
 3735POPC   NC3 8903  39.264  18.281   9.450
 3735POPC   PO4 8904  39.280  18.263   9.150
 3735POPC   GL1 8905  39.256  18.245   8.850
 3735POPC   GL2 8906  39.390  18.282   8.850
 3735POPC   C1A 8907  39.207  18.301   8.550
 3735POPC   D2A 8908  39.182  18.278   8.250
 3735POPC   C3A 8909  39.204  18.324   7.950
 3735POPC   C4A 8910  39.207  18.236   7.650
 3735POPC   C1B 8911  39.500  18.311   8.550
 3735POPC   C2B 8912  39.513  18.287   8.250
 3735POPC   C3B 8913  39.457  18.344   7.950
 3735POPC   C4B 8914  39.496  18.341   7.650
 3736POPC   NC3 8915   8.955  27.555   9.450
 3736POPC   PO4 8916   8.945  27.594   9.150
 3736POPC   GL1 8917   9.015  27.633   8.850
 3736POPC   GL2 8918   8.933  27.463   8.850
 3736POPC   C1A 8919   8.994  27.621   8.550
 3736POPC   D2A 8920   8.931  27.613   8.250
 3736POPC   C3A 8921   8.966  27.591   7.950
 3736POPC   C4A 8922   8.989  27.582   7.650
 3736POPC   C1B 8923   9.027  27.364   8.550
 3736POPC   C2B 8924   8.958  27.390   8.250
 3736POPC   C3B 8925   9.027  27.311   7.950
 3736POPC   C4B 8926   8.992  27.372   7.650
 3737POPC   NC3 8927  35.369  41.529   9.450
 3737POPC   PO4 8928  35.332  41.531   9.150
 3737POPC   GL1 8929  35.374  41.559   8.850
 3737POPC   GL2 8930  35.296  41.463   8.850
 3737POPC   C1A 8931  35.359  41.528   8.550
 3737POPC   D2A 8932  35.317  41.565   8.250
 3737POPC   C3A 8933  35.309  41.539   7.950
 3737POPC   C4A 8934  35.372  41.516   7.650
 3737POPC   C1B 8935  35.166  41.361   8.550
 3737POPC   C2B 8936  35.192  41.343   8.250
 3737POPC   C3B 8937  35.181  41.368   7.950
 3737POPC   C4B 8938  35.246  41.396   7.650
 3738POPC   NC3 8939  43.934  33.834   9.450
 3738POPC   PO4 8940  43.900  33.769   9.150
 3738POPC   GL1 8941  43.913  33.801   8.850
 3738POPC   GL2 8942  43.884  33.669   8.850
 3738POPC   C1A 8943  43.863  33.770   8.550
 3738POPC   D2A 8944  43.842  33.807   8.250
 3738POPC   C3A 8945  43.852  33.787   7.950
 3738POPC   C4A 8946  43.845  33.781   7.650
 3738POPC   C1B 8947  43.986  33.581   8.550
 3738POPC   C2B 8948  43.962  33.599   8.250
 3738POPC   C3B 8949  43.927  33.568   7.950
 3738POPC   C4B 8950  43.980  33.607   7.650
 3739POPC   NC3 8951  43.110   9.004   9.450
 3739POPC   PO4 8952  43.134   8.932   9.150
 3739POPC   GL1 8953  43.138   8.924   8.850
 3739POPC   GL2 8954  43.039   8.864   8.850
 3739POPC   C1A 8955  43.150   8.993   8.550
 3739POPC   D2A 8956  43.142   8.933   8.250
 3739POPC   C3A 8957  43.148   8.951   7.950
 3739POPC   C4A 8958  43.102   8.981   7.650
 3739POPC   C1B 8959  42.941   8.731   8.550
 3739POPC   C2B 8960  43.013   8.761   8.250
 3739POPC   C3B 8961  42.987   8.779   7.950
 3739POPC   C4B 8962  42.924   8.758   7.650
 3740POPC   NC3 8963  41.596  23.748   9.450
 3740POPC   PO4 8964  41.539  23.754   9.150
 3740POPC   GL1 8965  41.541  23.697   8.850
 3740POPC   GL2 8966  41.448  23.806   8.850
 3740POPC   C1A 8967  41.537  23.689   8.550
 3740POPC   D2A 8968  41.517  23.730   8.250
 3740POPC   C3A 8969  41.574  23.668   7.950
 3740POPC   C4A 8970  41.564  23.689   7.650
 3740POPC   C1B 8971  41.317  23.854   8.550
 3740POPC   C2B 8972  41.356  23.778   8.250
 3740POPC   C3B 8973  41.333  23.820   7.950
 3740POPC   C4B 8974  41.354  23.776   7.650
 3741POPC   NC3 8975  33.754  22.895   9.450
 3741POPC   PO4 8976  33.758  22.961   9.150
 3741POPC   GL1 8977  33.793  22.988   8.850
 3741POPC   GL2 8978  33.897  22.797   8.850
 3741POPC   C1A 8979  33.772  22.927   8.550
 3741POPC   D2A 8980  33.782  22.922   8.250
 3741POPC   C3A 8981  33.811  22.947   7.950
 3741POPC   C4A 8982  33.799  22.918   7.650
 3741POPC   C1B 8983  33.962  22.750   8.550
 3741POPC   C2B 8984  33.975  22.705   8.250
 3741POPC   C3B 8985  33.938  22.778   7.950
 3741POPC   C4B 8986  33.901  22.704   7.650
 3742POPC   NC3 8987  22.913   3.516   9.450
 3742POPC   PO4 8988  22.985   3.528   9.150
 3742POPC   GL1 8989  22.982   3.521   8.850
 3742POPC   GL2 8990  23.030   3.611   8.850
 3742POPC   C1A 8991  22.893   3.497   8.550
 3742POPC   D2A 8992  22.970   3.506   8.250
 3742POPC   C3A 8993  22.943   3.509   7.950
 3742POPC   C4A 8994  22.945   3.552   7.650
 3742POPC   C1B 8995  23.086   3.735   8.550
 3742POPC   C2B 8996  23.086   3.769   8.250
 3742POPC   C3B 8997  23.086   3.723   7.950
 3742POPC   C4B 8998  23.022   3.755   7.650
 3743POPC   NC3 8999  43.132  15.138   9.450
 3743POPC   PO4 9000  43.134  15.220   9.150
 3743POPC   GL1 9001  43.063  15.192   8.850
 3743POPC   GL2 9002  43.007  15.126   8.850
 3743POPC   C1A 9003  43.083  15.222   8.550
 3743POPC   D2A 9004  43.099  15.135   8.250
 3743POPC   C3A 9005  43.099  15.222   7.950
 3743POPC   C4A 9006  43.086  15.199   7.650
 3743POPC   C1B 9007  42.903  15.098   8.550
 3743POPC   C2B 9008  42.877  15.092   8.250
 3743POPC   C3B 9009  42.903  15.156   7.950
 3743POPC   C4B 9010  42.890  15.164   7.650
 3744POPC   NC3 9011   8.172  19.019   9.450
 3744POPC   PO4 9012   8.245  19.052   9.150
 3744POPC   GL1 9013   8.227  19.087   8.850
 3744POPC   GL2 9014   8.241  18.946   8.850
 3744POPC   C1A 9015   8.179  19.071   8.550
 3744POPC   D2A 9016   8.242  19.089   8.250
 3744POPC   C3A 9017   8.195  19.068   7.950
 3744POPC   C4A 9018   8.176  19.106   7.650
 3744POPC   C1B 9019   8.385  18.886   8.550
 3744POPC   C2B 9020   8.378  18.838   8.250
 3744POPC   C3B 9021   8.410  18.853   7.950
 3744POPC   C4B 9022   8.320  18.835   7.650
 3745POPC   NC3 9023  19.075  27.552   9.450
 3745POPC   PO4 9024  19.103  27.579   9.150
 3745POPC   GL1 9025  19.044  27.607   8.850
 3745POPC   GL2 9026  19.151  27.626   8.850
 3745POPC   C1A 9027  19.014  27.557   8.550
 3745POPC   D2A 9028  19.051  27.576   8.250
 3745POPC   C3A 9029  19.051  27.610   7.950
 3745POPC   C4A 9030  19.088  27.593   7.650
 3745POPC   C1B 9031  19.283  27.637   8.550
 3745POPC   C2B 9032  19.289  27.634   8.250
 3745POPC   C3B 9033  19.306  27.702   7.950
 3745POPC   C4B 9034  19.290  27.697   7.650
 3746POPC   NC3 9035  36.953  43.140   9.450
 3746POPC   PO4 9036  36.947  43.135   9.150
 3746POPC   GL1 9037  36.872  43.142   8.850
 3746POPC   GL2 9038  36.950  43.028   8.850
 3746POPC   C1A 9039  36.881  43.103   8.550
 3746POPC   D2A 9040  36.947  43.063   8.250
 3746POPC   C3A 9041  36.904  43.154   7.950
 3746POPC   C4A 9042  36.901  43.085   7.650
 3746POPC   C1B 9043  37.022  42.851   8.550
 3746POPC   C2B 9044  37.038  42.885   8.250
 3746POPC   C3B 9045  37.039  42.909   7.950
 3746POPC   C4B 9046  37.003  42.929   7.650
 3747POPC   NC3 9047  18.329  36.147   9.450
 3747POPC   PO4 9048  18.264  36.127   9.150
 3747POPC   GL1 9049  18.324  36.120   8.850
 3747POPC   GL2 9050  18.131  36.175   8.850
 3747POPC   C1A 9051  18.297  36.115   8.550
 3747POPC   D2A 9052  18.245  36.117   8.250
 3747POPC   C3A 9053  18.332  36.139   7.950
 3747POPC   C4A 9054  18.308  36.161   7.650
 3747POPC   C1B 9055  18.070  36.288   8.550
 3747POPC   C2B 9056  18.078  36.295   8.250
 3747POPC   C3B 9057  18.109  36.308   7.950
 3747POPC   C4B 9058  18.028  36.260   7.650
 3748POPC   NC3 9059   9.719  10.496   9.450
 3748POPC   PO4 9060   9.706  10.554   9.150
 3748POPC   GL1 9061   9.762  10.538   8.850
 3748POPC   GL2 9062   9.737  10.663   8.850
 3748POPC   C1A 9063   9.703  10.542   8.550
 3748POPC   D2A 9064   9.793  10.545   8.250
 3748POPC   C3A 9065   9.716  10.545   7.950
 3748POPC   C4A 9066   9.765  10.566   7.650
 3748POPC   C1B 9067   9.754  10.817   8.550
 3748POPC   C2B 9068   9.822  10.769   8.250
 3748POPC   C3B 9069   9.748  10.728   7.950
 3748POPC   C4B 9070   9.814  10.731   7.650
 3749POPC   NC3 9071  20.625  42.333   9.450
 3749POPC   PO4 9072  20.639  42.353   9.150
 3749POPC   GL1 9073  20.598  42.341   8.850
 3749POPC   GL2 9074  20.735  42.413   8.850
 3749POPC   C1A 9075  20.622  42.359   8.550
 3749POPC   D2A 9076  20.644  42.347   8.250
 3749POPC   C3A 9077  20.566  42.320   7.950
 3749POPC   C4A 9078  20.604  42.292   7.650
 3749POPC   C1B 9079  20.818  42.459   8.550
 3749POPC   C2B 9080  20.861  42.468   8.250
 3749POPC   C3B 9081  20.782  42.463   7.950
 3749POPC   C4B 9082  20.831  42.469   7.650
 3750POPC   NC3 9083  34.536  19.814   9.450
 3750POPC   PO4 9084  34.533  19.830   9.150
 3750POPC   GL1 9085  34.537  19.821   8.850
 3750POPC   GL2 9086  34.467  19.824   8.850
 3750POPC   C1A 9087  34.567  19.862   8.550
 3750POPC   D2A 9088  34.589  19.796   8.250
 3750POPC   C3A 9089  34.571  19.869   7.950
 3750POPC   C4A 9090  34.556  19.850   7.650
 3750POPC   C1B 9091  34.345  19.829   8.550
 3750POPC   C2B 9092  34.332  19.860   8.250
 3750POPC   C3B 9093  34.290  19.864   7.950
 3750POPC   C4B 9094  34.294  19.885   7.650
 3751POPC   NC3 9095  21.354   9.009   9.450
 3751POPC   PO4 9096  21.385   8.939   9.150
 3751POPC   GL1 9097  21.401   8.941   8.850
 3751POPC   GL2 9098  21.256   8.960   8.850
 3751POPC   C1A 9099  21.394   8.997   8.550
 3751POPC   D2A 9100  21.386   9.002   8.250
 3751POPC   C3A 9101  21.340   8.988   7.950
 3751POPC   C4A 9102  21.388   8.984   7.650
 3751POPC   C1B 9103  21.110   8.953   8.550
 3751POPC   C2B 9104  21.123   8.919   8.250
 3751POPC   C3B 9105  21.107   8.993   7.950
 3751POPC   C4B 9106  21.121   8.969   7.650
 3752POPC   NC3 9107  34.554   1.979   9.450
 3752POPC   PO4 9108  34.616   1.970   9.150
 3752POPC   GL1 9109  34.543   1.964   8.850
 3752POPC   GL2 9110  34.453   1.984   8.850
 3752POPC   C1A 9111  34.559   2.000   8.550
 3752POPC   D2A 9112  34.580   1.944   8.250
 3752POPC   C3A 9113  34.534   2.011   7.950
 3752POPC   C4A 9114  34.541   1.955   7.650
 3752POPC   C1B 9115  34.316   2.056   8.550
 3752POPC   C2B 9116  34.327   2.030   8.250
 3752POPC   C3B 9117  34.387   2.110   7.950
 3752POPC   C4B 9118  34.327   2.024   7.650
 3753POPC   NC3 9119  17.484  41.591   9.450
 3753POPC   PO4 9120  17.475  41.553   9.150
 3753POPC   GL1 9121  17.536  41.562   8.850
 3753POPC   GL2 9122  17.520  41.711   8.850
 3753POPC   C1A 9123  17.534  41.518   8.550
 3753POPC   D2A 9124  17.458  41.603   8.250
 3753POPC   C3A 9125  17.509  41.605   7.950
 3753POPC   C4A 9126  17.517  41.511   7.650
 3753POPC   C1B 9127  17.517  41.845   8.550
 3753POPC   C2B 9128  17.456  41.786   8.250
 3753POPC   C3B 9129  17.486  41.793   7.950
 3753POPC   C4B 9130  17.437  41.768   7.650
 3754POPC   NC3 9131   5.844  30.713   9.450
 3754POPC   PO4 9132   5.848  30.719   9.150
 3754POPC   GL1 9133   5.859  30.656   8.850
 3754POPC   GL2 9134   6.021  30.778   8.850
 3754POPC   C1A 9135   5.904  30.649   8.550
 3754POPC   D2A 9136   5.887  30.712   8.250
 3754POPC   C3A 9137   5.841  30.729   7.950
 3754POPC   C4A 9138   5.901  30.651   7.650
 3754POPC   C1B 9139   6.138  30.812   8.550
 3754POPC   C2B 9140   6.132  30.834   8.250
 3754POPC   C3B 9141   6.137  30.800   7.950
 3754POPC   C4B 9142   6.059  30.826   7.650
 3755POPC   NC3 9143  29.879   9.781   9.450
 3755POPC   PO4 9144  29.946   9.754   9.150
 3755POPC   GL1 9145  29.932   9.797   8.850
 3755POPC   GL2 9146  29.838   9.861   8.850
 3755POPC   C1A 9147  29.873   9.701   8.550
 3755POPC   D2A 9148  29.958   9.708   8.250
 3755POPC   C3A 9149  29.893   9.700   7.950
 3755POPC   C4A 9150  29.941   9.743   7.650
 3755POPC   C1B 9151  29.802  10.005   8.550
 3755POPC   C2B 9152  29.760   9.958   8.250
 3755POPC   C3B 9153  29.753   9.912   7.950
 3755POPC   C4B 9154  29.823   9.971   7.650
 3756POPC   NC3 9155   2.728  32.271   9.450
 3756POPC   PO4 9156   2.731  32.247   9.150
 3756POPC   GL1 9157   2.755  32.290   8.850
 3756POPC   GL2 9158   2.775  32.410   8.850
 3756POPC   C1A 9159   2.796  32.280   8.550
 3756POPC   D2A 9160   2.737  32.261   8.250
 3756POPC   C3A 9161   2.776  32.215   7.950
 3756POPC   C4A 9162   2.762  32.215   7.650
 3756POPC   C1B 9163   2.707  32.532   8.550
 3756POPC   C2B 9164   2.665  32.501   8.250
 3756POPC   C3B 9165   2.638  32.448   7.950
 3756POPC   C4B 9166   2.706  32.465   7.650
 3757POPC   NC3 9167  43.852   0.446   9.450
 3757POPC   PO4 9168  43.917   0.487   9.150
 3757POPC   GL1 9169  43.930   0.448   8.850
 3757POPC   GL2 9170  43.934   0.607   8.850
 3757POPC   C1A 9171  43.872   0.430   8.550
 3757POPC   D2A 9172  43.848   0.442   8.250
 3757POPC   C3A 9173  43.917   0.426   7.950
 3757POPC   C4A 9174  43.873   0.454   7.650
 3757POPC   C1B 9175  43.904   0.731   8.550
 3757POPC   C2B 9176  43.936   0.652   8.250
 3757POPC   C3B 9177  43.854   0.644   7.950
 3757POPC   C4B 9178  43.874   0.640   7.650
 3758POPC   NC3 9179  13.626  32.985   9.450
 3758POPC   PO4 9180  13.593  33.006   9.150
 3758POPC   GL1 9181  13.654  33.015   8.850
 3758POPC   GL2 9182  13.552  32.965   8.850
 3758POPC   C1A 9183  13.605  33.027   8.550
 3758POPC   D2A 9184  13.671  32.999   8.250
 3758POPC   C3A 9185  13.603  33.032   7.950
 3758POPC   C4A 9186  13.676  33.074   7.650
 3758POPC   C1B 9187  13.396  33.013   8.550
 3758POPC   C2B 9188  13.335  32.974   8.250
 3758POPC   C3B 9189  13.348  32.923   7.950
 3758POPC   C4B 9190  13.382  32.976   7.650
 3759POPC   NC3 9191  27.616  29.107   9.450
 3759POPC   PO4 9192  27.581  29.148   9.150
 3759POPC   GL1 9193  27.632  29.150   8.850
 3759POPC   GL2 9194  27.620  29.295   8.850
 3759POPC   C1A 9195  27.545  29.105   8.550
 3759POPC   D2A 9196  27.609  29.182   8.250
 3759POPC   C3A 9197  27.543  29.117   7.950
 3759POPC   C4A 9198  27.581  29.101   7.650
 3759POPC   C1B 9199  27.633  29.387   8.550
 3759POPC   C2B 9200  27.599  29.382   8.250
 3759POPC   C3B 9201  27.579  29.345   7.950
 3759POPC   C4B 9202  27.641  29.371   7.650
 3760POPC   NC3 9203  12.049  39.962   9.450
 3760POPC   PO4 9204  12.123  40.034   9.150
 3760POPC   GL1 9205  12.046  40.022   8.850
 3760POPC   GL2 9206  12.015  39.931   8.850
 3760POPC   C1A 9207  12.045  40.025   8.550
 3760POPC   D2A 9208  12.110  40.027   8.250
 3760POPC   C3A 9209  12.028  40.033   7.950
 3760POPC   C4A 9210  12.053  39.995   7.650
 3760POPC   C1B 9211  11.891  39.827   8.550
 3760POPC   C2B 9212  11.896  39.807   8.250
 3760POPC   C3B 9213  11.921  39.808   7.950
 3760POPC   C4B 9214  11.884  39.841   7.650
 3761POPC   NC3 9215  12.036  23.757   9.450
 3761POPC   PO4 9216  12.107  23.717   9.150
 3761POPC   GL1 9217  12.050  23.693   8.850
 3761POPC   GL2 9218  12.223  23.790   8.850
 3761POPC   C1A 9219  12.053  23.693   8.550
 3761POPC   D2A 9220  12.081  23.714   8.250
 3761POPC   C3A 9221  12.083  23.696   7.950
 3761POPC   C4A 9222  12.098  23.734   7.650
 3761POPC   C1B 9223  12.292  23.856   8.550
 3761POPC   C2B 9224  12.334  23.805   8.250
 3761POPC   C3B 9225  12.312  23.767   7.950
 3761POPC   C4B 9226  12.316  23.769   7.650
 3762POPC   NC3 9227  41.573  31.519   9.450
 3762POPC   PO4 9228  41.585  31.518   9.150
 3762POPC   GL1 9229  41.555  31.509   8.850
 3762POPC   GL2 9230  41.631  31.619   8.850
 3762POPC   C1A 9231  41.571  31.461   8.550
 3762POPC   D2A 9232  41.559  31.437   8.250
 3762POPC   C3A 9233  41.523  31.465   7.950
 3762POPC   C4A 9234  41.586  31.425   7.650
 3762POPC   C1B 9235  41.688  31.684   8.550
 3762POPC   C2B 9236  41.704  31.702   8.250
 3762POPC   C3B 9237  41.624  31.709   7.950
 3762POPC   C4B 9238  41.634  31.742   7.650
 3763POPC   NC3 9239   9.015  36.123   9.450
 3763POPC   PO4 9240   9.008  36.079   9.150
 3763POPC   GL1 9241   8.936  36.104   8.850
 3763POPC   GL2 9242   8.867  36.026   8.850
 3763POPC   C1A 9243   8.974  36.132   8.550
 3763POPC   D2A 9244   8.956  36.136   8.250
 3763POPC   C3A 9245   8.949  36.128   7.950
 3763POPC   C4A 9246   9.017  36.117   7.650
 3763POPC   C1B 9247   8.817  35.937   8.550
 3763POPC   C2B 9248   8.765  35.940   8.250
 3763POPC   C3B 9249   8.831  35.977   7.950
 3763POPC   C4B 9250   8.787  35.947   7.650
 3764POPC   NC3 9251  10.573  41.570   9.450
 3764POPC   PO4 9252  10.559  41.568   9.150
 3764POPC   GL1 9253  10.506  41.550   8.850
 3764POPC   GL2 9254  10.597  41.417   8.850
 3764POPC   C1A 9255  10.530  41.553   8.550
 3764POPC   D2A 9256  10.539  41.593   8.250
 3764POPC   C3A 9257  10.508  41.553   7.950
 3764POPC   C4A 9258  10.484  41.553   7.650
 3764POPC   C1B 9259  10.649  41.379   8.550
 3764POPC   C2B 9260  10.676  41.363   8.250
 3764POPC   C3B 9261  10.718  41.319   7.950
 3764POPC   C4B 9262  10.721  41.322   7.650
 3765POPC   NC3 9263  30.657  32.252   9.450
 3765POPC   PO4 9264  30.690  32.223   9.150
 3765POPC   GL1 9265  30.699  32.267   8.850
 3765POPC   GL2 9266  30.619  32.326   8.850
 3765POPC   C1A 9267  30.679  32.267   8.550
 3765POPC   D2A 9268  30.721  32.268   8.250
 3765POPC   C3A 9269  30.670  32.298   7.950
 3765POPC   C4A 9270  30.740  32.219   7.650
 3765POPC   C1B 9271  30.443  32.367   8.550
 3765POPC   C2B 9272  30.512  32.338   8.250
 3765POPC   C3B 9273  30.504  32.323   7.950
 3765POPC   C4B 9274  30.425  32.388   7.650
 3766POPC   NC3 9275   9.018  24.466   9.450
 3766POPC   PO4 9276   8.937  24.526   9.150
 3766POPC   GL1 9277   9.014  24.536   8.850
 3766POPC   GL2 9278   8.824  24.514   8.850
 3766POPC   C1A 9279   9.009  24.535   8.550
 3766POPC   D2A 9280   9.003  24.451   8.250
 3766POPC   C3A 9281   8.964  24.482   7.950
 3766POPC   C4A 9282   8.943  24.521   7.650
 3766POPC   C1B 9283   8.739  24.576   8.550
 3766POPC   C2B 9284   8.739  24.546   8.250
 3766POPC   C3B 9285   8.721  24.567   7.950
 3766POPC   C4B 9286   8.699  24.551   7.650
 3767POPC   NC3 9287  40.821  22.141   9.450
 3767POPC   PO4 9288  40.767  22.116   9.150
 3767POPC   GL1 9289  40.762  22.123   8.850
 3767POPC   GL2 9290  40.612  22.144   8.850
 3767POPC   C1A 9291  40.750  22.115   8.550
 3767POPC   D2A 9292  40.806  22.114   8.250
 3767POPC   C3A 9293  40.762  22.163   7.950
 3767POPC   C4A 9294  40.818  22.137   7.650
 3767POPC   C1B 9295  40.489  22.127   8.550
 3767POPC   C2B 9296  40.514  22.150   8.250
 3767POPC   C3B 9297  40.495  22.171   7.950
 3767POPC   C4B 9298  40.526  22.081   7.650
 3768POPC   NC3 9299  15.209  33.841   9.450
 3768POPC   PO4 9300  15.165  33.810   9.150
 3768POPC   GL1 9301  15.139  33.752   8.850
 3768POPC   GL2 9302  15.158  33.886   8.850
 3768POPC   C1A 9303  15.208  33.804   8.550
 3768POPC   D2A 9304  15.147  33.838   8.250
 3768POPC   C3A 9305  15.165  33.783   7.950
 3768POPC   C4A 9306  15.201  33.838   7.650
 3768POPC   C1B 9307  15.055  34.069   8.550
 3768POPC   C2B 9308  15.087  33.992   8.250
 3768POPC   C3B 9309  15.068  34.019   7.950
 3768POPC   C4B 9310  15.072  34.009   7.650
 3769POPC   NC3 9311  32.212  40.794   9.450
 3769POPC   PO4 9312  32.211  40.747   9.150
 3769POPC   GL1 9313  32.206  40.821   8.850
 3769POPC   GL2 9314  32.341  40.742   8.850
 3769POPC   C1A 9315  32.269  40.735   8.550
 3769POPC   D2A 9316  32.199  40.786   8.250
 3769POPC   C3A 9317  32.268  40.795   7.950
 3769POPC   C4A 9318  32.208  40.821   7.650
 3769POPC   C1B 9319  32.475  40.593   8.550
 3769POPC   C2B 9320  32.440  40.627   8.250
 3769POPC   C3B 9321  32.418  40.658   7.950
 3769POPC   C4B 9322  32.425  40.575   7.650
 3770POPC   NC3 9323   0.466  27.619   9.450
 3770POPC   PO4 9324   0.427  27.549   9.150
 3770POPC   GL1 9325   0.443  27.567   8.850
 3770POPC   GL2 9326   0.483  27.524   8.850
 3770POPC   C1A 9327   0.441  27.573   8.550
 3770POPC   D2A 9328   0.388  27.573   8.250
 3770POPC   C3A 9329   0.469  27.620   7.950
 3770POPC   C4A 9330   0.400  27.575   7.650
 3770POPC   C1B 9331   0.521  27.366   8.550
 3770POPC   C2B 9332   0.555  27.384   8.250
 3770POPC   C3B 9333   0.542  27.422   7.950
 3770POPC   C4B 9334   0.576  27.395   7.650
 3771POPC   NC3 9335  17.457  20.632   9.450
 3771POPC   PO4 9336  17.480  20.634   9.150
 3771POPC   GL1 9337  17.520  20.608   8.850
 3771POPC   GL2 9338  17.543  20.461   8.850
 3771POPC   C1A 9339  17.553  20.602   8.550
 3771POPC   D2A 9340  17.465  20.621   8.250
 3771POPC   C3A 9341  17.531  20.590   7.950
 3771POPC   C4A 9342  17.465  20.579   7.650
 3771POPC   C1B 9343  17.630  20.415   8.550
 3771POPC   C2B 9344  17.601  20.375   8.250
 3771POPC   C3B 9345  17.600  20.407   7.950
 3771POPC   C4B 9346  17.593  20.355   7.650
 3772POPC   NC3 9347  22.985  19.869   9.450
 3772POPC   PO4 9348  22.937  19.848   9.150
 3772POPC   GL1 9349  22.910  19.866   8.850
 3772POPC   GL2 9350  22.928  19.701   8.850
 3772POPC   C1A 9351  22.901  19.838   8.550
 3772POPC   D2A 9352  22.970  19.847   8.250
 3772POPC   C3A 9353  22.892  19.802   7.950
 3772POPC   C4A 9354  22.974  19.827   7.650
 3772POPC   C1B 9355  22.843  19.557   8.550
 3772POPC   C2B 9356  22.845  19.573   8.250
 3772POPC   C3B 9357  22.881  19.593   7.950
 3772POPC   C4B 9358  22.900  19.638   7.650
 3773POPC   NC3 9359  44.670  43.092   9.450
 3773POPC   PO4 9360  44.634  43.125   9.150
 3773POPC   GL1 9361  44.619  43.101   8.850
 3773POPC   GL2 9362  44.612  43.217   8.850
 3773POPC   C1A 9363  44.694  43.131   8.550
 3773POPC   D2A 9364  44.633  43.135   8.250
 3773POPC   C3A 9365  44.676  43.106   7.950
 3773POPC   C4A 9366  44.657  43.143   7.650
 3773POPC   C1B 9367  44.489  43.260   8.550
 3773POPC   C2B 9368  44.463  43.314   8.250
 3773POPC   C3B 9369  44.454  43.330   7.950
 3773POPC   C4B 9370  44.501  43.307   7.650
 3774POPC   NC3 9371  26.788   8.163   9.450
 3774POPC   PO4 9372  26.771   8.163   9.150
 3774POPC   GL1 9373  26.864   8.225   8.850
 3774POPC   GL2 9374  26.788   8.305   8.850
 3774POPC   C1A 9375  26.787   8.213   8.550
 3774POPC   D2A 9376  26.769   8.211   8.250
 3774POPC   C3A 9377  26.860   8.200   7.950
 3774POPC   C4A 9378  26.844   8.202   7.650
 3774POPC   C1B 9379  26.749   8.478   8.550
 3774POPC   C2B 9380  26.777   8.420   8.250
 3774POPC   C3B 9381  26.809   8.438   7.950
 3774POPC   C4B 9382  26.807   8.437   7.650
 3775POPC   NC3 9383  40.033  30.649   9.450
 3775POPC   PO4 9384  40.047  30.731   9.150
 3775POPC   GL1 9385  40.032  30.684   8.850
 3775POPC   GL2 9386  39.984  30.864   8.850
 3775POPC   C1A 9387  40.056  30.745   8.550
 3775POPC   D2A 9388  40.021  30.688   8.250
 3775POPC   C3A 9389  40.055  30.690   7.950
 3775POPC   C4A 9390  39.990  30.668   7.650
 3775POPC   C1B 9391  39.961  30.930   8.550
 3775POPC   C2B 9392  39.938  30.966   8.250
 3775POPC   C3B 9393  39.948  30.933   7.950
 3775POPC   C4B 9394  39.952  30.891   7.650
 3776POPC   NC3 9395  36.856   9.797   9.450
 3776POPC   PO4 9396  36.944   9.739   9.150
 3776POPC   GL1 9397  36.867   9.701   8.850
 3776POPC   GL2 9398  36.866   9.620   8.850
 3776POPC   C1A 9399  36.875   9.725   8.550
 3776POPC   D2A 9400  36.890   9.782   8.250
 3776POPC   C3A 9401  36.887   9.740   7.950
 3776POPC   C4A 9402  36.892   9.742   7.650
 3776POPC   C1B 9403  36.784   9.568   8.550
 3776POPC   C2B 9404  36.770   9.510   8.250
 3776POPC   C3B 9405  36.785   9.561   7.950
 3776POPC   C4B 9406  36.780   9.553   7.650
 3777POPC   NC3 9407   8.209  22.177   9.450
 3777POPC   PO4 9408   8.202  22.205   9.150
 3777POPC   GL1 9409   8.167  22.152   8.850
 3777POPC   GL2 9410   8.145  22.060   8.850
 3777POPC   C1A 9411   8.203  22.155   8.550
 3777POPC   D2A 9412   8.175  22.124   8.250
 3777POPC   C3A 9413   8.239  22.162   7.950
 3777POPC   C4A 9414   8.246  22.135   7.650
 3777POPC   C1B 9415   8.039  21.985   8.550
 3777POPC   C2B 9416   8.030  21.992   8.250
 3777POPC   C3B 9417   8.012  21.972   7.950
 3777POPC   C4B 9418   7.997  21.962   7.650
 3778POPC   NC3 9419  39.215  37.719   9.450
 3778POPC   PO4 9420  39.261  37.717   9.150
 3778POPC   GL1 9421  39.215  37.679   8.850
 3778POPC   GL2 9422  39.161  37.836   8.850
 3778POPC   C1A 9423  39.207  37.703   8.550
 3778POPC   D2A 9424  39.236  37.653   8.250
 3778POPC   C3A 9425  39.216  37.684   7.950
 3778POPC   C4A 9426  39.250  37.640   7.650
 3778POPC   C1B 9427  39.120  37.861   8.550
 3778POPC   C2B 9428  39.140  37.874   8.250
 3778POPC   C3B 9429  39.113  37.890   7.950
 3778POPC   C4B 9430  39.064  37.927   7.650
 3779POPC   NC3 9431  19.059  40.025   9.450
 3779POPC   PO4 9432  19.080  40.030   9.150
 3779POPC   GL1 9433  19.068  39.996   8.850
 3779POPC   GL2 9434  19.009  40.159   8.850
 3779POPC   C1A 9435  19.104  39.966   8.550
 3779POPC   D2A 9436  19.106  39.978   8.250
 3779POPC   C3A 9437  19.064  39.995   7.950
 3779POPC   C4A 9438  19.014  39.957   7.650
 3779POPC   C1B 9439  18.928  40.172   8.550
 3779POPC   C2B 9440  18.887  40.226   8.250
 3779POPC   C3B 9441  18.883  40.202   7.950
 3779POPC   C4B 9442  18.896  40.225   7.650
 3780POPC   NC3 9443  15.143  39.280   9.450
 3780POPC   PO4 9444  15.167  39.190   9.150
 3780POPC   GL1 9445  15.200  39.253   8.850
 3780POPC   GL2 9446  15.271  39.213   8.850
 3780POPC   C1A 9447  15.176  39.200   8.550
 3780POPC   D2A 9448  15.168  39.254   8.250
 3780POPC   C3A 9449  15.147  39.274   7.950
 3780POPC   C4A 9450  15.191  39.255   7.650
 3780POPC   C1B 9451  15.456  39.164   8.550
 3780POPC   C2B 9452  15.464  39.142   8.250
 3780POPC   C3B 9453  15.386  39.206   7.950
 3780POPC   C4B 9454  15.401  39.141   7.650
 3781POPC   NC3 9455   6.674  34.573   9.450
 3781POPC   PO4 9456   6.652  34.583   9.150
 3781POPC   GL1 9457   6.627  34.576   8.850
 3781POPC   GL2 9458   6.718  34.427   8.850
 3781POPC   C1A 9459   6.619  34.603   8.550
 3781POPC   D2A 9460   6.649  34.579   8.250
 3781POPC   C3A 9461   6.618  34.552   7.950
 3781POPC   C4A 9462   6.644  34.604   7.650
 3781POPC   C1B 9463   6.705  34.319   8.550
 3781POPC   C2B 9464   6.737  34.298   8.250
 3781POPC   C3B 9465   6.692  34.344   7.950
 3781POPC   C4B 9466   6.741  34.387   7.650
 3782POPC   NC3 9467  35.392  43.849   9.450
 3782POPC   PO4 9468  35.395  43.936   9.150
 3782POPC   GL1 9469  35.387  43.880   8.850
 3782POPC   GL2 9470  35.400  43.774   8.850
 3782POPC   C1A 9471  35.388  43.889   8.550
 3782POPC   D2A 9472  35.331  43.890   8.250
 3782POPC   C3A 9473  35.326  43.864   7.950
 3782POPC   C4A 9474  35.363  43.868   7.650
 3782POPC   C1B 9475  35.413  43.686   8.550
 3782POPC   C2B 9476  35.445  43.632   8.250
 3782POPC   C3B 9477  35.372  43.674   7.950
 3782POPC   C4B 9478  35.465  43.652   7.650
 3783POPC   NC3 9479  14.451  26.029   9.450
 3783POPC   PO4 9480  14.404  26.082   9.150
 3783POPC   GL1 9481  14.364  26.083   8.850
 3783POPC   GL2 9482  14.384  25.886   8.850
 3783POPC   C1A 9483  14.369  26.073   8.550
 3783POPC   D2A 9484  14.418  26.082   8.250
 3783POPC   C3A 9485  14.450  26.056   7.950
 3783POPC   C4A 9486  14.403  26.012   7.650
 3783POPC   C1B 9487  14.314  25.825   8.550
 3783POPC   C2B 9488  14.320  25.776   8.250
 3783POPC   C3B 9489  14.296  25.762   7.950
 3783POPC   C4B 9490  14.321  25.838   7.650
 3784POPC   NC3 9491  40.042  34.564   9.450
 3784POPC   PO4 9492  39.977  34.564   9.150
 3784POPC   GL1 9493  39.979  34.592   8.850
 3784POPC   GL2 9494  40.084  34.648   8.850
 3784POPC   C1A 9495  40.033  34.570   8.550
 3784POPC   D2A 9496  40.034  34.599   8.250
 3784POPC   C3A 9497  39.983  34.533   7.950
 3784POPC   C4A 9498  39.997  34.566   7.650
 3784POPC   C1B 9499  40.214  34.723   8.550
 3784POPC   C2B 9500  40.223  34.697   8.250
 3784POPC   C3B 9501  40.211  34.730   7.950
 3784POPC   C4B 9502  40.185  34.683   7.650
 3785POPC   NC3 9503   4.327  11.308   9.450
 3785POPC   PO4 9504   4.303  11.310   9.150
 3785POPC   GL1 9505   4.314  11.277   8.850
 3785POPC   GL2 9506   4.467  11.236   8.850
 3785POPC   C1A 9507   4.324  11.307   8.550
 3785POPC   D2A 9508   4.365  11.346   8.250
 3785POPC   C3A 9509   4.291  11.297   7.950
 3785POPC   C4A 9510   4.327  11.347   7.650
 3785POPC   C1B 9511   4.576  11.263   8.550
 3785POPC   C2B 9512   4.604  11.240   8.250
 3785POPC   C3B 9513   4.603  11.273   7.950
 3785POPC   C4B 9514   4.512  11.290   7.650
 3786POPC   NC3 9515   2.750  43.094   9.450
 3786POPC   PO4 9516   2.810  43.157   9.150
 3786POPC   GL1 9517   2.739  43.141   8.850
 3786POPC   GL2 9518   2.686  42.968   8.850
 3786POPC   C1A 9519   2.778  43.112   8.550
 3786POPC   D2A 9520   2.720  43.094   8.250
 3786POPC   C3A 9521   2.738  43.089   7.950
 3786POPC   C4A 9522   2.791  43.099   7.650
 3786POPC   C1B 9523   2.629  42.885   8.550
 3786POPC   C2B 9524   2.638  42.914   8.250
 3786POPC   C3B 9525   2.705  42.910   7.950
 3786POPC   C4B 9526   2.691  42.888   7.650
 3787POPC   NC3 9527  36.136  20.576   9.450
 3787POPC   PO4 9528  36.133  20.627   9.150
 3787POPC   GL1 9529  36.173  20.609   8.850
 3787POPC   GL2 9530  36.047  20.641   8.850
 3787POPC   C1A 9531  36.164  20.563   8.550
 3787POPC   D2A 9532  36.174  20.618   8.250
 3787POPC   C3A 9533  36.176  20.659   7.950
 3787POPC   C4A 9534  36.158  20.575   7.650
 3787POPC   C1B 9535  35.935  20.727   8.550
 3787POPC   C2B 9536  35.892  20.805   8.250
 3787POPC   C3B 9537  35.894  20.792   7.950
 3787POPC   C4B 9538  35.942  20.809   7.650
 3788POPC   NC3 9539  28.416   6.663   9.450
 3788POPC   PO4 9540  28.377   6.613   9.150
 3788POPC   GL1 9541  28.397   6.687   8.850
 3788POPC   GL2 9542  28.327   6.502   8.850
 3788POPC   C1A 9543  28.401   6.685   8.550
 3788POPC   D2A 9544  28.413   6.633   8.250
 3788POPC   C3A 9545  28.365   6.689   7.950
 3788POPC   C4A 9546  28.360   6.643   7.650
 3788POPC   C1B 9547  28.202   6.434   8.550
 3788POPC   C2B 9548  28.255   6.410   8.250
 3788POPC   C3B 9549  28.258   6.415   7.950
 3788POPC   C4B 9550  28.258   6.458   7.650
 3789POPC   NC3 9551  35.368  14.357   9.450
 3789POPC   PO4 9552  35.348  14.358   9.150
 3789POPC   GL1 9553  35.303  14.391   8.850
 3789POPC   GL2 9554  35.268  14.452   8.850
 3789POPC   C1A 9555  35.307  14.432   8.550
 3789POPC   D2A 9556  35.352  14.367   8.250
 3789POPC   C3A 9557  35.345  14.442   7.950
 3789POPC   C4A 9558  35.329  14.357   7.650
 3789POPC   C1B 9559  35.130  14.454   8.550
 3789POPC   C2B 9560  35.144  14.367   8.250
 3789POPC   C3B 9561  35.124  14.430   7.950
 3789POPC   C4B 9562  35.112  14.421   7.650
 3790POPC   NC3 9563  43.151  12.899   9.450
 3790POPC   PO4 9564  43.102  12.897   9.150
 3790POPC   GL1 9565  43.089  12.808   8.850
 3790POPC   GL2 9566  43.125  12.693   8.850
 3790POPC   C1A 9567  43.120  12.865   8.550
 3790POPC   D2A 9568  43.089  12.860   8.250
 3790POPC   C3A 9569  43.083  12.885   7.950
 3790POPC   C4A 9570  43.079  12.822   7.650
 3790POPC   C1B 9571  43.112  12.621   8.550
 3790POPC   C2B 9572  43.103  12.576   8.250
 3790POPC   C3B 9573  43.043  12.605   7.950
 3790POPC   C4B 9574  43.118  12.633   7.650
 3791POPC   NC3 9575   3.529  21.414   9.450
 3791POPC   PO4 9576   3.572  21.422   9.150
 3791POPC   GL1 9577   3.546  21.405   8.850
 3791POPC   GL2 9578   3.448  21.255   8.850
 3791POPC   C1A 9579   3.504  21.393   8.550
 3791POPC   D2A 9580   3.494  21.392   8.250
 3791POPC   C3A 9581   3.494  21.430   7.950
 3791POPC   C4A 9582   3.554  21.414   7.650
 3791POPC   C1B 9583   3.374  21.221   8.550
 3791POPC   C2B 9584   3.352  21.162   8.250
 3791POPC   C3B 9585   3.442  21.163   7.950
 3791POPC   C4B 9586   3.417  21.169   7.650
 3792POPC   NC3 9587  32.297  43.124   9.450
 3792POPC   PO4 9588  32.264  43.083   9.150
 3792POPC   GL1 9589  32.204  43.068   8.850
 3792POPC   GL2 9590  32.096  43.107   8.850
 3792POPC   C1A 9591  32.279  43.084   8.550
 3792POPC   D2A 9592  32.266  43.107   8.250
 3792POPC   C3A 9593  32.272  43.109   7.950
 3792POPC   C4A 9594  32.241  43.089   7.650
 3792POPC   C1B 9595  32.017  42.985   8.550
 3792POPC   C2B 9596  32.035  42.991   8.250
 3792POPC   C3B 9597  32.030  43.065   7.950
 3792POPC   C4B 9598  32.047  43.017   7.650
 3793POPC   NC3 9599  30.686  29.194   9.450
 3793POPC   PO4 9600  30.722  29.139   9.150
 3793POPC   GL1 9601  30.697  29.195   8.850
 3793POPC   GL2 9602  30.692  29.007   8.850
 3793POPC   C1A 9603  30.714  29.103   8.550
 3793POPC   D2A 9604  30.659  29.142   8.250
 3793POPC   C3A 9605  30.723  29.174   7.950
 3793POPC   C4A 9606  30.662  29.170   7.650
 3793POPC   C1B 9607  30.649  28.904   8.550
 3793POPC   C2B 9608  30.676  28.932   8.250
 3793POPC   C3B 9609  30.661  28.950   7.950
 3793POPC   C4B 9610  30.685  28.909   7.650
 3794POPC   NC3 9611  17.472   5.064   9.450
 3794POPC   PO4 9612  17.512   5.134   9.150
 3794POPC   GL1 9613  17.509   5.054   8.850
 3794POPC   GL2 9614  17.419   5.191   8.850
 3794POPC   C1A 9615  17.516   5.097   8.550
 3794POPC   D2A 9616  17.513   5.117   8.250
 3794POPC   C3A 9617  17.507   5.130   7.950
 3794POPC   C4A 9618  17.466   5.108   7.650
 3794POPC   C1B 9619  17.357   5.207   8.550
 3794POPC   C2B 9620  17.286   5.201   8.250
 3794POPC   C3B 9621  17.263   5.288   7.950
 3794POPC   C4B 9622  17.332   5.250   7.650
 3795POPC   NC3 9623  36.152   8.178   9.450
 3795POPC   PO4 9624  36.082   8.237   9.150
 3795POPC   GL1 9625  36.151   8.227   8.850
 3795POPC   GL2 9626  36.020   8.185   8.850
 3795POPC   C1A 9627  36.100   8.177   8.550
 3795POPC   D2A 9628  36.124   8.194   8.250
 3795POPC   C3A 9629  36.088   8.150   7.950
 3795POPC   C4A 9630  36.172   8.213   7.650
 3795POPC   C1B 9631  35.891   8.075   8.550
 3795POPC   C2B 9632  35.904   8.136   8.250
 3795POPC   C3B 9633  35.889   8.114   7.950
 3795POPC   C4B 9634  35.871   8.070   7.650
 3796POPC   NC3 9635  15.152  32.995   9.450
 3796POPC   PO4 9636  15.131  33.041   9.150
 3796POPC   GL1 9637  15.183  32.991   8.850
 3796POPC   GL2 9638  15.289  33.111   8.850
 3796POPC   C1A 9639  15.202  33.034   8.550
 3796POPC   D2A 9640  15.202  33.073   8.250
 3796POPC   C3A 9641  15.204  33.063   7.950
 3796POPC   C4A 9642  15.167  33.068   7.650
 3796POPC   C1B 9643  15.351  33.182   8.550
 3796POPC   C2B 9644  15.389  33.233   8.250
 3796POPC   C3B 9645  15.392  33.237   7.950
 3796POPC   C4B 9646  15.342  33.190   7.650
 3797POPC   NC3 9647  32.242  17.520   9.450
 3797POPC   PO4 9648  32.202  17.499   9.150
 3797POPC   GL1 9649  32.293  17.524   8.850
 3797POPC   GL2 9650  32.331  17.559   8.850
 3797POPC   C1A 9651  32.286  17.480   8.550
 3797POPC   D2A 9652  32.208  17.534   8.250
 3797POPC   C3A 9653  32.255  17.547   7.950
 3797POPC   C4A 9654  32.262  17.529   7.650
 3797POPC   C1B 9655  32.507  17.654   8.550
 3797POPC   C2B 9656  32.460  17.596   8.250
 3797POPC   C3B 9657  32.467  17.595   7.950
 3797POPC   C4B 9658  32.484  17.624   7.650
 3798POPC   NC3 9659  26.823  29.121   9.450
 3798POPC   PO4 9660  26.860  29.140   9.150
 3798POPC   GL1 9661  26.775  29.130   8.850
 3798POPC   GL2 9662  26.834  29.065   8.850
 3798POPC   C1A 9663  26.805  29.167   8.550
 3798POPC   D2A 9664  26.821  29.161   8.250
 3798POPC   C3A 9665  26.800  29.149   7.950
 3798POPC   C4A 9666  26.804  29.118   7.650
 3798POPC   C1B 9667  26.884  28.855   8.550
 3798POPC   C2B 9668  26.824  28.858   8.250
 3798POPC   C3B 9669  26.889  28.929   7.950
 3798POPC   C4B 9670  26.895  28.940   7.650
 3799POPC   NC3 9671   8.238  29.170   9.450
 3799POPC   PO4 9672   8.161  29.099   9.150
 3799POPC   GL1 9673   8.209  29.190   8.850
 3799POPC   GL2 9674   8.177  28.985   8.850
 3799POPC   C1A 9675   8.204  29.148   8.550
 3799POPC   D2A 9676   8.236  29.131   8.250
 3799POPC   C3A 9677   8.151  29.111   7.950
 3799POPC   C4A 9678   8.153  29.097   7.650
 3799POPC   C1B 9679   8.235  28.850   8.550
 3799POPC   C2B 9680   8.205  28.867   8.250
 3799POPC   C3B 9681   8.200  28.908   7.950
 3799POPC   C4B 9682   8.256  28.918   7.650
 3800POPC   NC3 9683  15.177  15.959   9.450
 3800POPC   PO4 9684  15.163  15.958   9.150
 3800POPC   GL1 9685  15.224  15.929   8.850
 3800POPC   GL2 9686  15.351  15.933   8.850
 3800POPC   C1A 9687  15.229  15.949   8.550
 3800POPC   D2A 9688  15.198  15.929   8.250
 3800POPC   C3A 9689  15.138  15.955   7.950
 3800POPC   C4A 9690  15.229  15.970   7.650
 3800POPC   C1B 9691  15.473  16.036   8.550
 3800POPC   C2B 9692  15.421  15.950   8.250
 3800POPC   C3B 9693  15.460  16.031   7.950
 3800POPC   C4B 9694  15.476  15.998   7.650
 3801POPC   NC3 9695  36.148  16.733   9.450
 3801POPC   PO4 9696  36.109  16.743   9.150
 3801POPC   GL1 9697  36.085  16.780   8.850
 3801POPC   GL2 9698  36.051  16.621   8.850
 3801POPC   C1A 9699  36.124  16.696   8.550
 3801POPC   D2A 9700  36.174  16.747   8.250
 3801POPC   C3A 9701  36.085  16.717   7.950
 3801POPC   C4A 9702  36.108  16.698   7.650
 3801POPC   C1B 9703  35.947  16.556   8.550
 3801POPC   C2B 9704  35.916  16.601   8.250
 3801POPC   C3B 9705  35.905  16.576   7.950
 3801POPC   C4B 9706  35.977  16.605   7.650
 3802POPC   NC3 9707  14.433  41.540   9.450
 3802POPC   PO4 9708  14.370  41.572   9.150
 3802POPC   GL1 9709  14.383  41.571   8.850
 3802POPC   GL2 9710  14.379  41.418   8.850
 3802POPC   C1A 9711  14.402  41.525   8.550
 3802POPC   D2A 9712  14.354  41.548   8.250
 3802POPC   C3A 9713  14.381  41.562   7.950
 3802POPC   C4A 9714  14.367  41.542   7.650
 3802POPC   C1B 9715  14.372  41.262   8.550
 3802POPC   C2B 9716  14.353  41.297   8.250
 3802POPC   C3B 9717  14.373  41.299   7.950
 3802POPC   C4B 9718  14.346  41.299   7.650
 3803POPC   NC3 9719  30.722  16.692   9.450
 3803POPC   PO4 9720  30.733  16.739   9.150
 3803POPC   GL1 9721  30.743  16.734   8.850
 3803POPC   GL2 9722  30.823  16.790   8.850
 3803POPC   C1A 9723  30.706  16.779   8.550
 3803POPC   D2A 9724  30.669  16.688   8.250
 3803POPC   C3A 9725  30.703  16.770   7.950
 3803POPC   C4A 9726  30.727  16.727   7.650
 3803POPC   C1B 9727  30.940  16.759   8.550
 3803POPC   C2B 9728  30.956  16.791   8.250
 3803POPC   C3B 9729  30.898  16.791   7.950
 3803POPC   C4B 9730  30.905  16.788   7.650
 3804POPC   NC3 9731  22.131   5.100   9.450
 3804POPC   PO4 9732  22.198   5.053   9.150
 3804POPC   GL1 9733  22.136   5.093   8.850
 3804POPC   GL2 9734  22.139   4.961   8.850
 3804POPC   C1A 9735  22.116   5.095   8.550
 3804POPC   D2A 9736  22.140   5.097   8.250
 3804POPC   C3A 9737  22.130   5.096   7.950
 3804POPC   C4A 9738  22.175   5.122   7.650
 3804POPC   C1B 9739  22.091   4.858   8.550
 3804POPC   C2B 9740  22.044   4.882   8.250
 3804POPC   C3B 9741  22.103   4.829   7.950
 3804POPC   C4B 9742  22.058   4.901   7.650
 3805POPC   NC3 9743  13.584  12.861   9.450
 3805POPC   PO4 9744  13.667  12.823   9.150
 3805POPC   GL1 9745  13.641  12.863   8.850
 3805POPC   GL2 9746  13.709  12.872   8.850
 3805POPC   C1A 9747  13.579  12.867   8.550
 3805POPC   D2A 9748  13.579  12.896   8.250
 3805POPC   C3A 9749  13.580  12.839   7.950
 3805POPC   C4A 9750  13.644  12.897   7.650
 3805POPC   C1B 9751  13.896  12.868   8.550
 3805POPC   C2B 9752  13.834  12.883   8.250
 3805POPC   C3B 9753  13.836  12.841   7.950
 3805POPC   C4B 9754  13.888  12.797   7.650
 3806POPC   NC3 9755   1.203  23.695   9.450
 3806POPC   PO4 9756   1.171  23.679   9.150
 3806POPC   GL1 9757   1.256  23.744   8.850
 3806POPC   GL2 9758   1.122  23.641   8.850
 3806POPC   C1A 9759   1.237  23.682   8.550
 3806POPC   D2A 9760   1.238  23.732   8.250
 3806POPC   C3A 9761   1.188  23.744   7.950
 3806POPC   C4A 9762   1.240  23.680   7.650
 3806POPC   C1B 9763   1.144  23.440   8.550
 3806POPC   C2B 9764   1.107  23.458   8.250
 3806POPC   C3B 9765   1.082  23.501   7.950
 3806POPC   C4B 9766   1.130  23.466   7.650
 3807POPC   NC3 9767  24.540   1.966   9.450
 3807POPC   PO4 9768  24.507   1.976   9.150
 3807POPC   GL1 9769  24.500   1.999   8.850
 3807POPC   GL2 9770  24.607   1.949   8.850
 3807POPC   C1A 9771  24.492   1.972   8.550
 3807POPC   D2A 9772  24.447   1.957   8.250
 3807POPC   C3A 9773  24.467   1.971   7.950
 3807POPC   C4A 9774  24.513   2.031   7.650
 3807POPC   C1B 9775  24.731   1.864   8.550
 3807POPC   C2B 9776  24.748   1.882   8.250
 3807POPC   C3B 9777  24.757   1.867   7.950
 3807POPC   C4B 9778  24.750   1.842   7.650
 3808POPC   NC3 9779  13.677  42.356   9.450
 3808POPC   PO4 9780  13.667  42.307   9.150
 3808POPC   GL1 9781  13.603  42.360   8.850
 3808POPC   GL2 9782  13.489  42.316   8.850
 3808POPC   C1A 9783  13.643  42.328   8.550
 3808POPC   D2A 9784  13.621  42.355   8.250
 3808POPC   C3A 9785  13.653  42.288   7.950
 3808POPC   C4A 9786  13.624  42.298   7.650
 3808POPC   C1B 9787  13.448  42.173   8.550
 3808POPC   C2B 9788  13.461  42.176   8.250
 3808POPC   C3B 9789  13.410  42.221   7.950
 3808POPC   C4B 9790  13.405  42.159   7.650
 3809POPC   NC3 9791  20.633  25.295   9.450
 3809POPC   PO4 9792  20.561  25.271   9.150
 3809POPC   GL1 9793  20.632  25.256   8.850
 3809POPC   GL2 9794  20.532  25.413   8.850
 3809POPC   C1A 9795  20.617  25.254   8.550
 3809POPC   D2A 9796  20.596  25.283   8.250
 3809POPC   C3A 9797  20.588  25.238   7.950
 3809POPC   C4A 9798  20.626  25.300   7.650
 3809POPC   C1B 9799  20.441  25.441   8.550
 3809POPC   C2B 9800  20.457  25.458   8.250
 3809POPC   C3B 9801  20.438  25.507   7.950
 3809POPC   C4B 9802  20.465  25.498   7.650
 3810POPC   NC3 9803  18.281  29.100   9.450
 3810POPC   PO4 9804  18.255  29.142   9.150
 3810POPC   GL1 9805  18.237  29.150   8.850
 3810POPC   GL2 9806  18.155  29.121   8.850
 3810POPC   C1A 9807  18.286  29.152   8.550
 3810POPC   D2A 9808  18.296  29.110   8.250
 3810POPC   C3A 9809  18.330  29.138   7.950
 3810POPC   C4A 9810  18.238  29.120   7.650
 3810POPC   C1B 9811  18.023  29.164   8.550
 3810POPC   C2B 9812  17.984  29.173   8.250
 3810POPC   C3B 9813  18.027  29.108   7.950
 3810POPC   C4B 9814  18.044  29.171   7.650
 3811POPC   NC3 9815  33.773  36.949   9.450
 3811POPC   PO4 9816  33.815  36.868   9.150
 3811POPC   GL1 9817  33.803  36.877   8.850
 3811POPC   GL2 9818  33.665  36.822   8.850
 3811POPC   C1A 9819  33.842  36.854   8.550
 3811POPC   D2A 9820  33.769  36.953   8.250
 3811POPC   C3A 9821  33.780  36.938   7.950
 3811POPC   C4A 9822  33.829  36.908   7.650
 3811POPC   C1B 9823  33.601  36.839   8.550
 3811POPC   C2B 9824  33.526  36.778   8.250
 3811POPC   C3B 9825  33.543  36.840   7.950
 3811POPC   C4B 9826  33.586  36.841   7.650
 3812POPC   NC3 9827  35.371  38.489   9.450
 3812POPC   PO4 9828  35.388  38.500   9.150
 3812POPC   GL1 9829  35.340  38.451   8.850
 3812POPC   GL2 9830  35.469  38.545   8.850
 3812POPC   C1A 9831  35.371  38.468   8.550
 3812POPC   D2A 9832  35.314  38.414   8.250
 3812POPC   C3A 9833  35.332  38.477   7.950
 3812POPC   C4A 9834  35.354  38.441   7.650
 3812POPC   C1B 9835  35.542  38.663   8.550
 3812POPC   C2B 9836  35.462  38.670   8.250
 3812POPC   C3B 9837  35.558  38.625   7.950
 3812POPC   C4B 9838  35.531  38.645   7.650
 3813POPC   NC3 9839  43.853  13.639   9.450
 3813POPC   PO4 9840  43.872  13.630   9.150
 3813POPC   GL1 9841  43.935  13.601   8.850
 3813POPC   GL2 9842  44.016  13.714   8.850
 3813POPC   C1A 9843  43.865  13.639   8.550
 3813POPC   D2A 9844  43.860  13.659   8.250
 3813POPC   C3A 9845  43.891  13.600   7.950
 3813POPC   C4A 9846  43.874  13.608   7.650
 3813POPC   C1B 9847  44.054  13.746   8.550
 3813POPC   C2B 9848  44.102  13.787   8.250
 3813POPC   C3B 9849  44.049  13.772   7.950
 3813POPC   C4B 9850  44.116  13.736   7.650
 3814POPC   NC3 9851  34.592  29.959   9.450
 3814POPC   PO4 9852  34.544  29.950   9.150
 3814POPC   GL1 9853  34.601  29.886   8.850
 3814POPC   GL2 9854  34.679  29.887   8.850
 3814POPC   C1A 9855  34.541  29.963   8.550
 3814POPC   D2A 9856  34.548  29.894   8.250
 3814POPC   C3A 9857  34.603  29.934   7.950
 3814POPC   C4A 9858  34.564  29.889   7.650
 3814POPC   C1B 9859  34.817  29.826   8.550
 3814POPC   C2B 9860  34.770  29.781   8.250
 3814POPC   C3B 9861  34.835  29.765   7.950
 3814POPC   C4B 9862  34.765  29.851   7.650
 3815POPC   NC3 9863   3.589   9.755   9.450
 3815POPC   PO4 9864   3.570   9.704   9.150
 3815POPC   GL1 9865   3.503   9.773   8.850
 3815POPC   GL2 9866   3.668   9.643   8.850
 3815POPC   C1A 9867   3.521   9.707   8.550
 3815POPC   D2A 9868   3.534   9.771   8.250
 3815POPC   C3A 9869   3.569   9.775   7.950
 3815POPC   C4A 9870   3.519   9.778   7.650
 3815POPC   C1B 9871   3.762   9.668   8.550
 3815POPC   C2B 9872   3.791   9.618   8.250
 3815POPC   C3B 9873   3.743   9.644   7.950
 3815POPC   C4B 9874   3.778   9.610   7.650
 3816POPC   NC3 9875  13.660   4.295   9.450
 3816POPC   PO4 9876  13.607   4.278   9.150
 3816POPC   GL1 9877  13.658   4.320   8.850
 3816POPC   GL2 9878  13.503   4.280   8.850
 3816POPC   C1A 9879  13.578   4.358   8.550
 3816POPC   D2A 9880  13.592   4.285   8.250
 3816POPC   C3A 9881  13.600   4.331   7.950
 3816POPC   C4A 9882  13.600   4.302   7.650
 3816POPC   C1B 9883  13.341   4.260   8.550
 3816POPC   C2B 9884  13.415   4.303   8.250
 3816POPC   C3B 9885  13.336   4.313   7.950
 3816POPC   C4B 9886  13.406   4.304   7.650
 3817POPC   NC3 9887  42.370  12.113   9.450
 3817POPC   PO4 9888  42.316  12.058   9.150
 3817POPC   GL1 9889  42.301  12.071   8.850
 3817POPC   GL2 9890  42.412  11.967   8.850
 3817POPC   C1A 9891  42.313  12.043   8.550
 3817POPC   D2A 9892  42.331  12.079   8.250
 3817POPC   C3A 9893  42.286  12.059   7.950
 3817POPC   C4A 9894  42.296  12.039   7.650
 3817POPC   C1B 9895  42.575  11.970   8.550
 3817POPC   C2B 9896  42.513  11.972   8.250
 3817POPC   C3B 9897  42.587  11.905   7.950
 3817POPC   C4B 9898  42.516  11.945   7.650
 3818POPC   NC3 9899   3.553  20.647   9.450
 3818POPC   PO4 9900   3.500  20.574   9.150
 3818POPC   GL1 9901   3.531  20.571   8.850
 3818POPC   GL2 9902   3.578  20.693   8.850
 3818POPC   C1A 9903   3.550  20.578   8.550
 3818POPC   D2A 9904   3.567  20.620   8.250
 3818POPC   C3A 9905   3.546  20.649   7.950
 3818POPC   C4A 9906   3.544  20.625   7.650
 3818POPC   C1B 9907   3.651  20.828   8.550
 3818POPC   C2B 9908   3.609  20.880   8.250
 3818POPC   C3B 9909   3.649  20.814   7.950
 3818POPC   C4B 9910   3.610  20.800   7.650
 3819POPC   NC3 9911  40.743  40.000   9.450
 3819POPC   PO4 9912  40.742  40.034   9.150
 3819POPC   GL1 9913  40.736  40.044   8.850
 3819POPC   GL2 9914  40.716  39.886   8.850
 3819POPC   C1A 9915  40.748  40.047   8.550
 3819POPC   D2A 9916  40.787  40.035   8.250
 3819POPC   C3A 9917  40.793  39.992   7.950
 3819POPC   C4A 9918  40.829  40.004   7.650
 3819POPC   C1B 9919  40.734  39.756   8.550
 3819POPC   C2B 9920  40.738  39.810   8.250
 3819POPC   C3B 9921  40.752  39.726   7.950
 3819POPC   C4B 9922  40.712  39.749   7.650
 3820POPC   NC3 9923   8.933  30.683   9.450
 3820POPC   PO4 9924   8.979  30.687   9.150
 3820POPC   GL1 9925   9.006  30.647   8.850
 3820POPC   GL2 9926   9.053  30.622   8.850
 3820POPC   C1A 9927   8.955  30.677   8.550
 3820POPC   D2A 9928   9.012  30.649   8.250
 3820POPC   C3A 9929   8.945  30.741   7.950
 3820POPC   C4A 9930   9.015  30.727   7.650
 3820POPC   C1B 9931   9.109  30.517   8.550
 3820POPC   C2B 9932   9.113  30.481   8.250
 3820POPC   C3B 9933   9.072  30.477   7.950
 3820POPC   C4B 9934   9.138  30.446   7.650
 3821POPC   NC3 9935  32.254  16.713   9.450
 3821POPC   PO4 9936  32.260  16.723   9.150
 3821POPC   GL1 9937  32.201  16.710   8.850
 3821POPC   GL2 9938  32.317  16.773   8.850
 3821POPC   C1A 9939  32.261  16.742   8.550
 3821POPC   D2A 9940  32.244  16.755   8.250
 3821POPC   C3A 9941  32.234  16.708   7.950
 3821POPC   C4A 9942  32.266  16.743   7.650
 3821POPC   C1B 9943  32.492  16.856   8.550
 3821POPC   C2B 9944  32.445  16.799   8.250
 3821POPC   C3B 9945  32.487  16.841   7.950
 3821POPC   C4B 9946  32.471  16.833   7.650
 3822POPC   NC3 9947  36.176  12.887   9.450
 3822POPC   PO4 9948  36.138  12.806   9.150
 3822POPC   GL1 9949  36.145  12.860   8.850
 3822POPC   GL2 9950  36.268  12.827   8.850
 3822POPC   C1A 9951  36.133  12.839   8.550
 3822POPC   D2A 9952  36.089  12.887   8.250
 3822POPC   C3A 9953  36.085  12.897   7.950
 3822POPC   C4A 9954  36.109  12.826   7.650
 3822POPC   C1B 9955  36.333  12.798   8.550
 3822POPC   C2B 9956  36.358  12.874   8.250
 3822POPC   C3B 9957  36.350  12.812   7.950
 3822POPC   C4B 9958  36.342  12.785   7.650
 3823POPC   NC3 9959  10.510   2.796   9.450
 3823POPC   PO4 9960  10.548   2.739   9.150
 3823POPC   GL1 9961  10.501   2.717   8.850
 3823POPC   GL2 9962  10.657   2.794   8.850
 3823POPC   C1A 9963  10.558   2.772   8.550
 3823POPC   D2A 9964  10.537   2.719   8.250
 3823POPC   C3A 9965  10.547   2.770   7.950
 3823POPC   C4A 9966  10.559   2.786   7.650
 3823POPC   C1B 9967  10.785   2.767   8.550
 3823POPC   C2B 9968  10.773   2.778   8.250
 3823POPC   C3B 9969  10.809   2.691   7.950
 3823POPC   C4B 9970  10.773   2.711   7.650
 3824POPC   NC3 9971   0.433   1.264   9.450
 3824POPC   PO4 9972   0.441   1.181   9.150
 3824POPC   GL1 9973   0.427   1.207   8.850
 3824POPC   GL2 9974   0.348   1.167   8.850
 3824POPC   C1A 9975   0.403   1.233   8.550
 3824POPC   D2A 9976   0.484   1.182   8.250
 3824POPC   C3A 9977   0.400   1.168   7.950
 3824POPC   C4A 9978   0.475   1.249   7.650
 3824POPC   C1B 9979   0.223   1.192   8.550
 3824POPC   C2B 9980   0.239   1.177   8.250
 3824POPC   C3B 9981   0.166   1.190   7.950
 3824POPC   C4B 9982   0.191   1.120   7.650
 3825POPC   NC3 9983   4.301  40.762   9.450
 3825POPC   PO4 9984   4.280  40.736   9.150
 3825POPC   GL1 9985   4.313  40.754   8.850
 3825POPC   GL2 9986   4.458  40.804   8.850
 3825POPC   C1A 9987   4.340  40.823   8.550
 3825POPC   D2A 9988   4.335  40.820   8.250
 3825POPC   C3A 9989   4.305  40.814   7.950
 3825POPC   C4A 9990   4.329  40.784   7.650
 3825POPC   C1B 9991   4.536  40.882   8.550
 3825POPC   C2B 9992   4.513  40.956   8.250
 3825POPC   C3B 9993   4.508  40.891   7.950
 3825POPC   C4B 9994   4.512  40.898   7.650
 3826POPC   NC3 9995  27.583  15.911   9.450
 3826POPC   PO4 9996  27.567  15.924   9.150
 3826POPC   GL1 9997  27.612  15.919   8.850
 3826POPC   GL2 9998  27.421  15.929   8.850
 3826POPC   C1A 9999  27.591  15.977   8.550
 3826POPC   D2A10000  27.626  15.918   8.250
 3826POPC   C3A10001  27.553  15.982   7.950
 3826POPC   C4A10002  27.621  15.953   7.650
 3826POPC   C1B10003  27.344  15.987   8.550
 3826POPC   C2B10004  27.396  16.023   8.250
 3826POPC   C3B10005  27.371  15.988   7.950
 3826POPC   C4B10006  27.361  16.028   7.650
 3827POPC   NC310007  15.162   3.541   9.450
 3827POPC   PO410008  15.136   3.543   9.150
 3827POPC   GL110009  15.135   3.560   8.850
 3827POPC   GL210010  15.206   3.401   8.850
 3827POPC   C1A10011  15.161   3.581   8.550
 3827POPC   D2A10012  15.220   3.548   8.250
 3827POPC   C3A10013  15.186   3.549   7.950
 3827POPC   C4A10014  15.226   3.546   7.650
 3827POPC   C1B10015  15.317   3.296   8.550
 3827POPC   C2B10016  15.349   3.323   8.250
 3827POPC   C3B10017  15.286   3.364   7.950
 3827POPC   C4B10018  15.270   3.342   7.650
 3828POPC   NC310019  32.248  39.232   9.450
 3828POPC   PO410020  32.229  39.184   9.150
 3828POPC   GL110021  32.234  39.193   8.850
 3828POPC   GL210022  32.317  39.329   8.850
 3828POPC   C1A10023  32.208  39.246   8.550
 3828POPC   D2A10024  32.255  39.240   8.250
 3828POPC   C3A10025  32.221  39.266   7.950
 3828POPC   C4A10026  32.209  39.220   7.650
 3828POPC   C1B10027  32.356  39.473   8.550
 3828POPC   C2B10028  32.381  39.512   8.250
 3828POPC   C3B10029  32.308  39.481   7.950
 3828POPC   C4B10030  32.359  39.502   7.650
 3829POPC   NC310031  21.436   2.775   9.450
 3829POPC   PO410032  21.406   2.780   9.150
 3829POPC   GL110033  21.416   2.742   8.850
 3829POPC   GL210034  21.423   2.874   8.850
 3829POPC   C1A10035  21.426   2.721   8.550
 3829POPC   D2A10036  21.373   2.793   8.250
 3829POPC   C3A10037  21.346   2.720   7.950
 3829POPC   C4A10038  21.405   2.797   7.650
 3829POPC   C1B10039  21.477   2.973   8.550
 3829POPC   C2B10040  21.530   3.019   8.250
 3829POPC   C3B10041  21.454   3.016   7.950
 3829POPC   C4B10042  21.448   2.956   7.650
 3830POPC   NC310043  11.342  21.376   9.450
 3830POPC   PO410044  11.306  21.378   9.150
 3830POPC   GL110045  11.281  21.432   8.850
 3830POPC   GL210046  11.138  21.393   8.850
 3830POPC   C1A10047  11.312  21.383   8.550
 3830POPC   D2A10048  11.328  21.428   8.250
 3830POPC   C3A10049  11.338  21.351   7.950
 3830POPC   C4A10050  11.310  21.354   7.650
 3830POPC   C1B10051  11.122  21.523   8.550
 3830POPC   C2B10052  11.122  21.465   8.250
 3830POPC   C3B10053  11.107  21.504   7.950
 3830POPC   C4B10054  11.055  21.499   7.650
 3831POPC   NC310055  14.370  33.051   9.450
 3831POPC   PO410056  14.395  32.977   9.150
 3831POPC   GL110057  14.360  33.051   8.850
 3831POPC   GL210058  14.492  32.935   8.850
 3831POPC   C1A10059  14.422  33.072   8.550
 3831POPC   D2A10060  14.415  33.034   8.250
 3831POPC   C3A10061  14.440  33.047   7.950
 3831POPC   C4A10062  14.394  33.019   7.650
 3831POPC   C1B10063  14.545  32.773   8.550
 3831POPC   C2B10064  14.508  32.851   8.250
 3831POPC   C3B10065  14.547  32.835   7.950
 3831POPC   C4B10066  14.514  32.817   7.650
 3832POPC   NC310067  15.960  24.537   9.450
 3832POPC   PO410068  15.974  24.513   9.150
 3832POPC   GL110069  15.962  24.450   8.850
 3832POPC   GL210070  15.814  24.504   8.850
 3832POPC   C1A10071  15.935  24.498   8.550
 3832POPC   D2A10072  15.941  24.464   8.250
 3832POPC   C3A10073  15.929  24.512   7.950
 3832POPC   C4A10074  15.984  24.474   7.650
 3832POPC   C1B10075  15.690  24.585   8.550
 3832POPC   C2B10076  15.689  24.614   8.250
 3832POPC   C3B10077  15.744  24.586   7.950
 3832POPC   C4B10078  15.711  24.569   7.650
 3833POPC   NC310079  43.922  41.551   9.450
 3833POPC   PO410080  43.848  41.584   9.150
 3833POPC   GL110081  43.891  41.530   8.850
 3833POPC   GL210082  43.850  41.648   8.850
 3833POPC   C1A10083  43.909  41.527   8.550
 3833POPC   D2A10084  43.881  41.579   8.250
 3833POPC   C3A10085  43.936  41.518   7.950
 3833POPC   C4A10086  43.870  41.547   7.650
 3833POPC   C1B10087  43.876  41.771   8.550
 3833POPC   C2B10088  43.901  41.846   8.250
 3833POPC   C3B10089  43.884  41.809   7.950
 3833POPC   C4B10090  43.911  41.799   7.650
 3834POPC   NC310091  33.834  20.562   9.450
 3834POPC   PO410092  33.812  20.592   9.150
 3834POPC   GL110093  33.779  20.632   8.850
 3834POPC   GL210094  33.770  20.509   8.850
 3834POPC   C1A10095  33.815  20.568   8.550
 3834POPC   D2A10096  33.841  20.608   8.250
 3834POPC   C3A10097  33.827  20.607   7.950
 3834POPC   C4A10098  33.786  20.611   7.650
 3834POPC   C1B10099  33.628  20.452   8.550
 3834POPC   C2B10100  33.621  20.455   8.250
 3834POPC   C3B10101  33.632  20.411   7.950
 3834POPC   C4B10102  33.624  20.392   7.650
 3835POPC   NC310103   3.557  14.442   9.450
 3835POPC   PO410104   3.582  14.450   9.150
 3835POPC   GL110105   3.591  14.399   8.850
 3835POPC   GL210106   3.583  14.521   8.850
 3835POPC   C1A10107   3.531  14.356   8.550
 3835POPC   D2A10108   3.571  14.433   8.250
 3835POPC   C3A10109   3.563  14.393   7.950
 3835POPC   C4A10110   3.508  14.451   7.650
 3835POPC   C1B10111   3.693  14.660   8.550
 3835POPC   C2B10112   3.695  14.668   8.250
 3835POPC   C3B10113   3.668  14.578   7.950
 3835POPC   C4B10114   3.657  14.611   7.650
 3836POPC   NC310115  15.196  37.670   9.450
 3836POPC   PO410116  15.138  37.664   9.150
 3836POPC   GL110117  15.200  37.664   8.850
 3836POPC   GL210118  15.327  37.729   8.850
 3836POPC   C1A10119  15.191  37.660   8.550
 3836POPC   D2A10120  15.211  37.711   8.250
 3836POPC   C3A10121  15.152  37.641   7.950
 3836POPC   C4A10122  15.197  37.709   7.650
 3836POPC   C1B10123  15.404  37.824   8.550
 3836POPC   C2B10124  15.389  37.774   8.250
 3836POPC   C3B10125  15.376  37.816   7.950
 3836POPC   C4B10126  15.362  37.844   7.650
 3837POPC   NC310127   0.401  22.975   9.450
 3837POPC   PO410128   0.434  22.913   9.150
 3837POPC   GL110129   0.438  22.947   8.850
 3837POPC   GL210130   0.544  22.879   8.850
 3837POPC   C1A10131   0.419  22.938   8.550
 3837POPC   D2A10132   0.400  22.972   8.250
 3837POPC   C3A10133   0.458  22.889   7.950
 3837POPC   C4A10134   0.417  22.978   7.650
 3837POPC   C1B10135   0.731  22.847   8.550
 3837POPC   C2B10136   0.691  22.882   8.250
 3837POPC   C3B10137   0.683  22.925   7.950
 3837POPC   C4B10138   0.725  22.851   7.650
 3838POPC   NC310139  15.182  42.364   9.450
 3838POPC   PO410140  15.156  42.382   9.150
 3838POPC   GL110141  15.164  42.345   8.850
 3838POPC   GL210142  15.284  42.284   8.850
 3838POPC   C1A10143  15.217  42.340   8.550
 3838POPC   D2A10144  15.217  42.310   8.250
 3838POPC   C3A10145  15.140  42.351   7.950
 3838POPC   C4A10146  15.169  42.348   7.650
 3838POPC   C1B10147  15.390  42.247   8.550
 3838POPC   C2B10148  15.441  42.187   8.250
 3838POPC   C3B10149  15.423  42.243   7.950
 3838POPC   C4B10150  15.373  42.186   7.650
 3839POPC   NC310151  16.694  19.854   9.450
 3839POPC   PO410152  16.681  19.835   9.150
 3839POPC   GL110153  16.728  19.819   8.850
 3839POPC   GL210154  16.621  19.697   8.850
 3839POPC   C1A10155  16.690  19.797   8.550
 3839POPC   D2A10156  16.742  19.881   8.250
 3839POPC   C3A10157  16.740  19.800   7.950
 3839POPC   C4A10158  16.743  19.864   7.650
 3839POPC   C1B10159  16.619  19.644   8.550
 3839POPC   C2B10160  16.629  19.636   8.250
 3839POPC   C3B10161  16.540  19.657   7.950
 3839POPC   C4B10162  16.581  19.653   7.650
 3840POPC   NC310163  18.307  16.779   9.450
 3840POPC   PO410164  18.274  16.722   9.150
 3840POPC   GL110165  18.240  16.779   8.850
 3840POPC   GL210166  18.272  16.817   8.850
 3840POPC   C1A10167  18.290  16.742   8.550
 3840POPC   D2A10168  18.277  16.718   8.250
 3840POPC   C3A10169  18.300  16.723   7.950
 3840POPC   C4A10170  18.280  16.706   7.650
 3840POPC   C1B10171  18.188  16.911   8.550
 3840POPC   C2B10172  18.212  16.976   8.250
 3840POPC   C3B10173  18.216  16.979   7.950
 3840POPC   C4B10174  18.138  16.979   7.650
 3841POPC   NC310175  12.809   1.961   9.450
 3841POPC   PO410176  12.872   2.024   9.150
 3841POPC   GL110177  12.817   2.006   8.850
 3841POPC   GL210178  12.851   1.861   8.850
 3841POPC   C1A10179  12.878   1.978   8.550
 3841POPC   D2A10180  12.867   2.039   8.250
 3841POPC   C3A10181  12.871   1.966   7.950
 3841POPC   C4A10182  12.803   1.990   7.650
 3841POPC   C1B10183  12.926   1.748   8.550
 3841POPC   C2B10184  12.954   1.736   8.250
 3841POPC   C3B10185  12.944   1.702   7.950
 3841POPC   C4B10186  12.945   1.716   7.650
 3842POPC   NC310187  43.076  14.415   9.450
 3842POPC   PO410188  43.093  14.435   9.150
 3842POPC   GL110189  43.082  14.372   8.850
 3842POPC   GL210190  43.124  14.286   8.850
 3842POPC   C1A10191  43.064  14.417   8.550
 3842POPC   D2A10192  43.125  14.380   8.250
 3842POPC   C3A10193  43.138  14.385   7.950
 3842POPC   C4A10194  43.100  14.399   7.650
 3842POPC   C1B10195  43.002  14.118   8.550
 3842POPC   C2B10196  43.031  14.142   8.250
 3842POPC   C3B10197  43.086  14.113   7.950
 3842POPC   C4B10198  43.042  14.195   7.650
 3843POPC   NC310199  43.903  14.400   9.450
 3843POPC   PO410200  43.901  14.450   9.150
 3843POPC   GL110201  43.891  14.367   8.850
 3843POPC   GL210202  43.819  14.465   8.850
 3843POPC   C1A10203  43.878  14.438   8.550
 3843POPC   D2A10204  43.924  14.389   8.250
 3843POPC   C3A10205  43.869  14.443   7.950
 3843POPC   C4A10206  43.907  14.449   7.650
 3843POPC   C1B10207  43.753  14.565   8.550
 3843POPC   C2B10208  43.718  14.597   8.250
 3843POPC   C3B10209  43.732  14.578   7.950
 3843POPC   C4B10210  43.720  14.620   7.650
 3844POPC   NC310211   5.126  36.132   9.450
 3844POPC   PO410212   5.140  36.173   9.150
 3844POPC   GL110213   5.127  36.157   8.850
 3844POPC   GL210214   4.944  36.026   8.850
 3844POPC   C1A10215   5.047  36.078   8.550
 3844POPC   D2A10216   5.115  36.091   8.250
 3844POPC   C3A10217   5.127  36.149   7.950
 3844POPC   C4A10218   5.121  36.083   7.650
 3844POPC   C1B10219   4.921  36.028   8.550
 3844POPC   C2B10220   4.866  35.972   8.250
 3844POPC   C3B10221   4.839  36.042   7.950
 3844POPC   C4B10222   4.890  36.027   7.650
 3845POPC   NC310223  43.864  39.228   9.450
 3845POPC   PO410224  43.849  39.210   9.150
 3845POPC   GL110225  43.910  39.230   8.850
 3845POPC   GL210226  43.738  39.211   8.850
 3845POPC   C1A10227  43.887  39.270   8.550
 3845POPC   D2A10228  43.850  39.220   8.250
 3845POPC   C3A10229  43.870  39.208   7.950
 3845POPC   C4A10230  43.929  39.182   7.650
 3845POPC   C1B10231  43.656  39.226   8.550
 3845POPC   C2B10232  43.671  39.250   8.250
 3845POPC   C3B10233  43.640  39.279   7.950
 3845POPC   C4B10234  43.651  39.269   7.650
 3846POPC   NC310235  43.836  40.788   9.450
 3846POPC   PO410236  43.841  40.819   9.150
 3846POPC   GL110237  43.909  40.754   8.850
 3846POPC   GL210238  43.835  40.712   8.850
 3846POPC   C1A10239  43.910  40.789   8.550
 3846POPC   D2A10240  43.868  40.734   8.250
 3846POPC   C3A10241  43.920  40.803   7.950
 3846POPC   C4A10242  43.908  40.800   7.650
 3846POPC   C1B10243  43.741  40.551   8.550
 3846POPC   C2B10244  43.760  40.547   8.250
 3846POPC   C3B10245  43.730  40.560   7.950
 3846POPC   C4B10246  43.715  40.563   7.650
 3847POPC   NC310247  32.985   8.229   9.450
 3847POPC   PO410248  33.041   8.173   9.150
 3847POPC   GL110249  32.977   8.206   8.850
 3847POPC   GL210250  33.128   8.126   8.850
 3847POPC   C1A10251  33.041   8.167   8.550
 3847POPC   D2A10252  33.064   8.152   8.250
 3847POPC   C3A10253  33.018   8.152   7.950
 3847POPC   C4A10254  33.012   8.229   7.650
 3847POPC   C1B10255  33.122   7.984   8.550
 3847POPC   C2B10256  33.087   8.010   8.250
 3847POPC   C3B10257  33.183   7.988   7.950
 3847POPC   C4B10258  33.120   7.935   7.650
 3848POPC   NC310259  26.027  21.406   9.450
 3848POPC   PO410260  25.996  21.408   9.150
 3848POPC   GL110261  26.031  21.411   8.850
 3848POPC   GL210262  25.941  21.400   8.850
 3848POPC   C1A10263  26.083  21.428   8.550
 3848POPC   D2A10264  26.013  21.369   8.250
 3848POPC   C3A10265  26.043  21.359   7.950
 3848POPC   C4A10266  26.039  21.379   7.650
 3848POPC   C1B10267  25.813  21.468   8.550
 3848POPC   C2B10268  25.779  21.526   8.250
 3848POPC   C3B10269  25.783  21.442   7.950
 3848POPC   C4B10270  25.776  21.516   7.650
 3849POPC   NC310271  29.125  39.997   9.450
 3849POPC   PO410272  29.130  40.001   9.150
 3849POPC   GL110273  29.154  39.991   8.850
 3849POPC   GL210274  28.976  39.948   8.850
 3849POPC   C1A10275  29.139  39.966   8.550
 3849POPC   D2A10276  29.144  40.043   8.250
 3849POPC   C3A10277  29.177  40.043   7.950
 3849POPC   C4A10278  29.183  40.048   7.650
 3849POPC   C1B10279  28.876  39.954   8.550
 3849POPC   C2B10280  28.891  39.987   8.250
 3849POPC   C3B10281  28.892  39.992   7.950
 3849POPC   C4B10282  28.848  40.027   7.650
 3850POPC   NC310283  20.648  31.517   9.450
 3850POPC   PO410284  20.610  31.429   9.150
 3850POPC   GL110285  20.571  31.448   8.850
 3850POPC   GL210286  20.536  31.391   8.850
 3850POPC   C1A10287  20.591  31.507   8.550
 3850POPC   D2A10288  20.607  31.456   8.250
 3850POPC   C3A10289  20.650  31.498   7.950
 3850POPC   C4A10290  20.640  31.447   7.650
 3850POPC   C1B10291  20.391  31.356   8.550
 3850POPC   C2B10292  20.434  31.319   8.250
 3850POPC   C3B10293  20.446  31.296   7.950
 3850POPC   C4B10294  20.383  31.313   7.650
 3851POPC   NC310295  32.215   1.250   9.450
 3851POPC   PO410296  32.211   1.223   9.150
 3851POPC   GL110297  32.206   1.241   8.850
 3851POPC   GL210298  32.275   1.292   8.850
 3851POPC   C1A10299  32.290   1.191   8.550
 3851POPC   D2A10300  32.283   1.253   8.250
 3851POPC   C3A10301  32.247   1.214   7.950
 3851POPC   C4A10302  32.234   1.220   7.650
 3851POPC   C1B10303  32.176   1.449   8.550
 3851POPC   C2B10304  32.162   1.426   8.250
 3851POPC   C3B10305  32.248   1.445   7.950
 3851POPC   C4B10306  32.219   1.448   7.650
 3852POPC   NC310307  15.215  16.761   9.450
 3852POPC   PO410308  15.180  16.769   9.150
 3852POPC   GL110309  15.194  16.693   8.850
 3852POPC   GL210310  15.318  16.699   8.850
 3852POPC   C1A10311  15.207  16.751   8.550
 3852POPC   D2A10312  15.170  16.776   8.250
 3852POPC   C3A10313  15.217  16.725   7.950
 3852POPC   C4A10314  15.196  16.777   7.650
 3852POPC   C1B10315  15.459  16.746   8.550
 3852POPC   C2B10316  15.469  16.717   8.250
 3852POPC   C3B10317  15.422  16.754   7.950
 3852POPC   C4B10318  15.440  16.715   7.650
 3853POPC   NC310319  16.736  28.381   9.450
 3853POPC   PO410320  16.742  28.403   9.150
 3853POPC   GL110321  16.734  28.327   8.850
 3853POPC   GL210322  16.612  28.471   8.850
 3853POPC   C1A10323  16.725  28.330   8.550
 3853POPC   D2A10324  16.682  28.391   8.250
 3853POPC   C3A10325  16.690  28.393   7.950
 3853POPC   C4A10326  16.693  28.406   7.650
 3853POPC   C1B10327  16.498  28.486   8.550
 3853POPC   C2B10328  16.511  28.564   8.250
 3853POPC   C3B10329  16.533  28.515   7.950
 3853POPC   C4B10330  16.544  28.487   7.650
 3854POPC   NC310331  36.939  17.469   9.450
 3854POPC   PO410332  36.901  17.500   9.150
 3854POPC   GL110333  36.858  17.534   8.850
 3854POPC   GL210334  36.883  17.376   8.850
 3854POPC   C1A10335  36.916  17.530   8.550
 3854POPC   D2A10336  36.879  17.459   8.250
 3854POPC   C3A10337  36.860  17.541   7.950
 3854POPC   C4A10338  36.874  17.480   7.650
 3854POPC   C1B10339  36.879  17.314   8.550
 3854POPC   C2B10340  36.818  17.238   8.250
 3854POPC   C3B10341  36.845  17.234   7.950
 3854POPC   C4B10342  36.874  17.218   7.650
 3855POPC   NC310343  19.011  13.583   9.450
 3855POPC   PO410344  19.095  13.631   9.150
 3855POPC   GL110345  19.088  13.632   8.850
 3855POPC   GL210346  19.198  13.655   8.850
 3855POPC   C1A10347  19.018  13.663   8.550
 3855POPC   D2A10348  19.052  13.660   8.250
 3855POPC   C3A10349  19.070  13.618   7.950
 3855POPC   C4A10350  19.019  13.638   7.650
 3855POPC   C1B10351  19.266  13.734   8.550
 3855POPC   C2B10352  19.292  13.752   8.250
 3855POPC   C3B10353  19.289  13.744   7.950
 3855POPC   C4B10354  19.298  13.735   7.650
 3856POPC   NC310355  27.624  32.255   9.450
 3856POPC   PO410356  27.577  32.293   9.150
 3856POPC   GL110357  27.625  32.230   8.850
 3856POPC   GL210358  27.557  32.130   8.850
 3856POPC   C1A10359  27.625  32.295   8.550
 3856POPC   D2A10360  27.612  32.253   8.250
 3856POPC   C3A10361  27.554  32.282   7.950
 3856POPC   C4A10362  27.594  32.251   7.650
 3856POPC   C1B10363  27.529  31.992   8.550
 3856POPC   C2B10364  27.571  31.998   8.250
 3856POPC   C3B10365  27.525  32.020   7.950
 3856POPC   C4B10366  27.612  31.950   7.650
 3857POPC   NC310367  21.377  21.355   9.450
 3857POPC   PO410368  21.394  21.417   9.150
 3857POPC   GL110369  21.382  21.433   8.850
 3857POPC   GL210370  21.309  21.408   8.850
 3857POPC   C1A10371  21.381  21.357   8.550
 3857POPC   D2A10372  21.410  21.388   8.250
 3857POPC   C3A10373  21.436  21.431   7.950
 3857POPC   C4A10374  21.404  21.428   7.650
 3857POPC   C1B10375  21.140  21.422   8.550
 3857POPC   C2B10376  21.179  21.402   8.250
 3857POPC   C3B10377  21.161  21.414   7.950
 3857POPC   C4B10378  21.172  21.458   7.650
 3858POPC   NC310379  22.912  24.506   9.450
 3858POPC   PO410380  22.950  24.500   9.150
 3858POPC   GL110381  22.929  24.486   8.850
 3858POPC   GL210382  23.005  24.329   8.850
 3858POPC   C1A10383  22.901  24.444   8.550
 3858POPC   D2A10384  22.957  24.494   8.250
 3858POPC   C3A10385  22.898  24.465   7.950
 3858POPC   C4A10386  22.892  24.466   7.650
 3858POPC   C1B10387  22.991  24.298   8.550
 3858POPC   C2B10388  23.047  24.262   8.250
 3858POPC   C3B10389  22.992  24.248   7.950
 3858POPC   C4B10390  23.023  24.258   7.650
 3859POPC   NC310391  39.187  22.938   9.450
 3859POPC   PO410392  39.273  22.950   9.150
 3859POPC   GL110393  39.261  22.931   8.850
 3859POPC   GL210394  39.155  22.891   8.850
 3859POPC   C1A10395  39.231  22.965   8.550
 3859POPC   D2A10396  39.212  22.914   8.250
 3859POPC   C3A10397  39.210  22.901   7.950
 3859POPC   C4A10398  39.234  22.888   7.650
 3859POPC   C1B10399  39.004  22.952   8.550
 3859POPC   C2B10400  38.982  22.918   8.250
 3859POPC   C3B10401  38.960  22.980   7.950
 3859POPC   C4B10402  38.944  22.950   7.650
 3860POPC   NC310403   5.064   0.430   9.450
 3860POPC   PO410404   5.134   0.411   9.150
 3860POPC   GL110405   5.082   0.406   8.850
 3860POPC   GL210406   5.216   0.323   8.850
 3860POPC   C1A10407   5.077   0.433   8.550
 3860POPC   D2A10408   5.139   0.458   8.250
 3860POPC   C3A10409   5.102   0.404   7.950
 3860POPC   C4A10410   5.121   0.486   7.650
 3860POPC   C1B10411   5.241   0.259   8.550
 3860POPC   C2B10412   5.277   0.281   8.250
 3860POPC   C3B10413   5.308   0.239   7.950
 3860POPC   C4B10414   5.233   0.218   7.650
 3861POPC   NC310415  44.693  25.292   9.450
 3861POPC   PO410416  44.710  25.240   9.150
 3861POPC   GL110417  44.640  25.257   8.850
 3861POPC   GL210418  44.669  25.333   8.850
 3861POPC   C1A10419  44.635  25.235   8.550
 3861POPC   D2A10420  44.693  25.244   8.250
 3861POPC   C3A10421  44.685  25.251   7.950
 3861POPC   C4A10422  44.615  25.253   7.650
 3861POPC   C1B10423  44.727  25.511   8.550
 3861POPC   C2B10424  44.779  25.478   8.250
 3861POPC   C3B10425  44.761  25.511   7.950
 3861POPC   C4B10426  44.763  25.536   7.650
 3862POPC   NC310427  24.493  12.085   9.450
 3862POPC   PO410428  24.507  12.116   9.150
 3862POPC   GL110429  24.506  12.030   8.850
 3862POPC   GL210430  24.591  12.019   8.850
 3862POPC   C1A10431  24.497  12.111   8.550
 3862POPC   D2A10432  24.466  12.088   8.250
 3862POPC   C3A10433  24.473  12.096   7.950
 3862POPC   C4A10434  24.440  12.039   7.650
 3862POPC   C1B10435  24.707  12.030   8.550
 3862POPC   C2B10436  24.739  11.994   8.250
 3862POPC   C3B10437  24.735  12.019   7.950
 3862POPC   C4B10438  24.748  12.077   7.650
 3863POPC   NC310439   1.242   9.726   9.450
 3863POPC   PO410440   1.229   9.723   9.150
 3863POPC   GL110441   1.262   9.741   8.850
 3863POPC   GL210442   1.331   9.744   8.850
 3863POPC   C1A10443   1.171   9.704   8.550
 3863POPC   D2A10444   1.249   9.761   8.250
 3863POPC   C3A10445   1.219   9.737   7.950
 3863POPC   C4A10446   1.180   9.747   7.650
 3863POPC   C1B10447   1.451   9.809   8.550
 3863POPC   C2B10448   1.437   9.773   8.250
 3863POPC   C3B10449   1.489   9.825   7.950
 3863POPC   C4B10450   1.467   9.799   7.650
 3864POPC   NC310451   5.840  27.577   9.450
 3864POPC   PO410452   5.839  27.605   9.150
 3864POPC   GL110453   5.825  27.610   8.850
 3864POPC   GL210454   5.795  27.704   8.850
 3864POPC   C1A10455   5.854  27.586   8.550
 3864POPC   D2A10456   5.917  27.630   8.250
 3864POPC   C3A10457   5.861  27.545   7.950
 3864POPC   C4A10458   5.894  27.606   7.650
 3864POPC   C1B10459   5.721  27.831   8.550
 3864POPC   C2B10460   5.803  27.799   8.250
 3864POPC   C3B10461   5.806  27.808   7.950
 3864POPC   C4B10462   5.750  27.826   7.650
 3865POPC   NC310463  37.650   2.749   9.450
 3865POPC   PO410464  37.726   2.716   9.150
 3865POPC   GL110465  37.660   2.805   8.850
 3865POPC   GL210466  37.768   2.698   8.850
 3865POPC   C1A10467  37.651   2.754   8.550
 3865POPC   D2A10468  37.670   2.734   8.250
 3865POPC   C3A10469  37.631   2.759   7.950
 3865POPC   C4A10470  37.631   2.730   7.650
 3865POPC   C1B10471  37.844   2.581   8.550
 3865POPC   C2B10472  37.895   2.637   8.250
 3865POPC   C3B10473  37.858   2.586   7.950
 3865POPC   C4B10474  37.895   2.627   7.650
 3866POPC   NC310475  16.727   2.726   9.450
 3866POPC   PO410476  16.761   2.788   9.150
 3866POPC   GL110477  16.721   2.751   8.850
 3866POPC   GL210478  16.825   2.821   8.850
 3866POPC   C1A10479  16.745   2.731   8.550
 3866POPC   D2A10480  16.710   2.811   8.250
 3866POPC   C3A10481  16.749   2.729   7.950
 3866POPC   C4A10482  16.764   2.797   7.650
 3866POPC   C1B10483  16.898   2.982   8.550
 3866POPC   C2B10484  16.963   2.914   8.250
 3866POPC   C3B10485  16.953   2.900   7.950
 3866POPC   C4B10486  16.950   2.891   7.650
 3867POPC   NC310487  39.191  39.995   9.450
 3867POPC   PO410488  39.218  40.033   9.150
 3867POPC   GL110489  39.262  39.988   8.850
 3867POPC   GL210490  39.378  40.040   8.850
 3867POPC   C1A10491  39.236  39.977   8.550
 3867POPC   D2A10492  39.187  39.970   8.250
 3867POPC   C3A10493  39.242  39.989   7.950
 3867POPC   C4A10494  39.225  40.030   7.650
 3867POPC   C1B10495  39.450  40.000   8.550
 3867POPC   C2B10496  39.489  40.036   8.250
 3867POPC   C3B10497  39.451  40.016   7.950
 3867POPC   C4B10498  39.456  39.963   7.650
 3868POPC   NC310499  42.354  28.416   9.450
 3868POPC   PO410500  42.379  28.351   9.150
 3868POPC   GL110501  42.293  28.392   8.850
 3868POPC   GL210502  42.326  28.275   8.850
 3868POPC   C1A10503  42.306  28.404   8.550
 3868POPC   D2A10504  42.309  28.343   8.250
 3868POPC   C3A10505  42.366  28.397   7.950
 3868POPC   C4A10506  42.293  28.418   7.650
 3868POPC   C1B10507  42.353  28.122   8.550
 3868POPC   C2B10508  42.395  28.088   8.250
 3868POPC   C3B10509  42.406  28.123   7.950
 3868POPC   C4B10510  42.400  28.106   7.650
 3869POPC   NC310511   8.992   3.569   9.450
 3869POPC   PO410512   8.990   3.572   9.150
 3869POPC   GL110513   8.978   3.572   8.850
 3869POPC   GL210514   9.020   3.409   8.850
 3869POPC   C1A10515   8.992   3.492   8.550
 3869POPC   D2A10516   8.970   3.498   8.250
 3869POPC   C3A10517   9.019   3.588   7.950
 3869POPC   C4A10518   8.969   3.579   7.650
 3869POPC   C1B10519   9.051   3.283   8.550
 3869POPC   C2B10520   9.066   3.338   8.250
 3869POPC   C3B10521   9.051   3.337   7.950
 3869POPC   C4B10522   8.979   3.292   7.650
 3870POPC   NC310523   8.174  17.543   9.450
 3870POPC   PO410524   8.199  17.537   9.150
 3870POPC   GL110525   8.225  17.458   8.850
 3870POPC   GL210526   8.221  17.564   8.850
 3870POPC   C1A10527   8.243  17.490   8.550
 3870POPC   D2A10528   8.207  17.505   8.250
 3870POPC   C3A10529   8.157  17.468   7.950
 3870POPC   C4A10530   8.207  17.551   7.650
 3870POPC   C1B10531   8.308  17.738   8.550
 3870POPC   C2B10532   8.370  17.719   8.250
 3870POPC   C3B10533   8.336  17.756   7.950
 3870POPC   C4B10534   8.363  17.761   7.650
 3871POPC   NC310535  11.274  13.604   9.450
 3871POPC   PO410536  11.262  13.646   9.150
 3871POPC   GL110537  11.270  13.654   8.850
 3871POPC   GL210538  11.277  13.716   8.850
 3871POPC   C1A10539  11.316  13.589   8.550
 3871POPC   D2A10540  11.275  13.677   8.250
 3871POPC   C3A10541  11.283  13.600   7.950
 3871POPC   C4A10542  11.261  13.645   7.650
 3871POPC   C1B10543  11.227  13.885   8.550
 3871POPC   C2B10544  11.154  13.870   8.250
 3871POPC   C3B10545  11.233  13.843   7.950
 3871POPC   C4B10546  11.176  13.855   7.650
 3872POPC   NC310547  32.242  29.970   9.450
 3872POPC   PO410548  32.242  29.908   9.150
 3872POPC   GL110549  32.261  29.895   8.850
 3872POPC   GL210550  32.173  29.848   8.850
 3872POPC   C1A10551  32.248  29.903   8.550
 3872POPC   D2A10552  32.261  29.934   8.250
 3872POPC   C3A10553  32.207  29.926   7.950
 3872POPC   C4A10554  32.251  29.922   7.650
 3872POPC   C1B10555  32.142  29.711   8.550
 3872POPC   C2B10556  32.213  29.672   8.250
 3872POPC   C3B10557  32.186  29.637   7.950
 3872POPC   C4B10558  32.205  29.647   7.650
 3873POPC   NC310559  35.400  44.695   9.450
 3873POPC   PO410560  35.318  44.712   9.150
 3873POPC   GL110561  35.377  44.703   8.850
 3873POPC   GL210562  35.238  44.607   8.850
 3873POPC   C1A10563  35.385  44.620   8.550
 3873POPC   D2A10564  35.317  44.694   8.250
 3873POPC   C3A10565  35.367  44.613   7.950
 3873POPC   C4A10566  35.319  44.632   7.650
 3873POPC   C1B10567  35.135  44.486   8.550
 3873POPC   C2B10568  35.184  44.452   8.250
 3873POPC   C3B10569  35.145  44.502   7.950
 3873POPC   C4B10570  35.184  44.528   7.650
 3874POPC   NC310571  42.306   1.245   9.450
 3874POPC   PO410572  42.354   1.164   9.150
 3874POPC   GL110573  42.363   1.184   8.850
 3874POPC   GL210574  42.417   1.059   8.850
 3874POPC   C1A10575  42.287   1.199   8.550
 3874POPC   D2A10576  42.329   1.182   8.250
 3874POPC   C3A10577  42.382   1.244   7.950
 3874POPC   C4A10578  42.343   1.263   7.650
 3874POPC   C1B10579  42.451   0.960   8.550
 3874POPC   C2B10580  42.368   1.008   8.250
 3874POPC   C3B10581  42.426   0.963   7.950
 3874POPC   C4B10582  42.416   1.014   7.650
 3875POPC   NC310583   8.952  32.283   9.450
 3875POPC   PO410584   9.006  32.217   9.150
 3875POPC   GL110585   9.002  32.270   8.850
 3875POPC   GL210586   8.850  32.285   8.850
 3875POPC   C1A10587   8.969  32.293   8.550
 3875POPC   D2A10588   8.952  32.201   8.250
 3875POPC   C3A10589   9.021  32.251   7.950
 3875POPC   C4A10590   9.005  32.208   7.650
 3875POPC   C1B10591   8.808  32.437   8.550
 3875POPC   C2B10592   8.743  32.405   8.250
 3875POPC   C3B10593   8.736  32.341   7.950
 3875POPC   C4B10594   8.721  32.436   7.650
 3876POPC   NC310595  20.572  16.747   9.450
 3876POPC   PO410596  20.596  16.741   9.150
 3876POPC   GL110597  20.637  16.781   8.850
 3876POPC   GL210598  20.695  16.821   8.850
 3876POPC   C1A10599  20.652  16.760   8.550
 3876POPC   D2A10600  20.588  16.750   8.250
 3876POPC   C3A10601  20.587  16.691   7.950
 3876POPC   C4A10602  20.637  16.776   7.650
 3876POPC   C1B10603  20.736  16.907   8.550
 3876POPC   C2B10604  20.747  16.948   8.250
 3876POPC   C3B10605  20.697  16.990   7.950
 3876POPC   C4B10606  20.706  16.901   7.650
 3877POPC   NC310607  43.909  22.206   9.450
 3877POPC   PO410608  43.892  22.112   9.150
 3877POPC   GL110609  43.861  22.121   8.850
 3877POPC   GL210610  43.806  22.255   8.850
 3877POPC   C1A10611  43.901  22.182   8.550
 3877POPC   D2A10612  43.878  22.125   8.250
 3877POPC   C3A10613  43.845  22.119   7.950
 3877POPC   C4A10614  43.924  22.182   7.650
 3877POPC   C1B10615  43.690  22.274   8.550
 3877POPC   C2B10616  43.644  22.284   8.250
 3877POPC   C3B10617  43.699  22.312   7.950
 3877POPC   C4B10618  43.659  22.269   7.650
 3878POPC   NC310619  21.368   6.668   9.450
 3878POPC   PO410620  21.430   6.664   9.150
 3878POPC   GL110621  21.399   6.598   8.850
 3878POPC   GL210622  21.508   6.616   8.850
 3878POPC   C1A10623  21.377   6.611   8.550
 3878POPC   D2A10624  21.344   6.643   8.250
 3878POPC   C3A10625  21.396   6.666   7.950
 3878POPC   C4A10626  21.404   6.691   7.650
 3878POPC   C1B10627  21.597   6.567   8.550
 3878POPC   C2B10628  21.583   6.567   8.250
 3878POPC   C3B10629  21.591   6.641   7.950
 3878POPC   C4B10630  21.673   6.595   7.650
 3879POPC   NC310631  37.724   8.241   9.450
 3879POPC   PO410632  37.688   8.149   9.150
 3879POPC   GL110633  37.634   8.172   8.850
 3879POPC   GL210634  37.714   8.032   8.850
 3879POPC   C1A10635  37.662   8.195   8.550
 3879POPC   D2A10636  37.714   8.230   8.250
 3879POPC   C3A10637  37.681   8.155   7.950
 3879POPC   C4A10638  37.716   8.216   7.650
 3879POPC   C1B10639  37.770   7.940   8.550
 3879POPC   C2B10640  37.808   7.980   8.250
 3879POPC   C3B10641  37.759   7.995   7.950
 3879POPC   C4B10642  37.811   7.954   7.650
 3880POPC   NC310643  30.665  33.753   9.450
 3880POPC   PO410644  30.689  33.756   9.150
 3880POPC   GL110645  30.688  33.820   8.850
 3880POPC   GL210646  30.764  33.639   8.850
 3880POPC   C1A10647  30.680  33.810   8.550
 3880POPC   D2A10648  30.695  33.810   8.250
 3880POPC   C3A10649  30.712  33.793   7.950
 3880POPC   C4A10650  30.657  33.782   7.650
 3880POPC   C1B10651  30.735  33.552   8.550
 3880POPC   C2B10652  30.738  33.525   8.250
 3880POPC   C3B10653  30.818  33.590   7.950
 3880POPC   C4B10654  30.814  33.549   7.650
 3881POPC   NC310655   1.190  16.699   9.450
 3881POPC   PO410656   1.255  16.765   9.150
 3881POPC   GL110657   1.255  16.686   8.850
 3881POPC   GL210658   1.260  16.606   8.850
 3881POPC   C1A10659   1.245  16.740   8.550
 3881POPC   D2A10660   1.182  16.767   8.250
 3881POPC   C3A10661   1.228  16.690   7.950
 3881POPC   C4A10662   1.219  16.688   7.650
 3881POPC   C1B10663   1.281  16.461   8.550
 3881POPC   C2B10664   1.278  16.464   8.250
 3881POPC   C3B10665   1.274  16.513   7.950
 3881POPC   C4B10666   1.296  16.472   7.650
 3882POPC   NC310667  14.420  39.244   9.450
 3882POPC   PO410668  14.365  39.255   9.150
 3882POPC   GL110669  14.389  39.243   8.850
 3882POPC   GL210670  14.511  39.282   8.850
 3882POPC   C1A10671  14.452  39.275   8.550
 3882POPC   D2A10672  14.394  39.280   8.250
 3882POPC   C3A10673  14.453  39.214   7.950
 3882POPC   C4A10674  14.368  39.239   7.650
 3882POPC   C1B10675  14.553  39.360   8.550
 3882POPC   C2B10676  14.626  39.386   8.250
 3882POPC   C3B10677  14.600  39.344   7.950
 3882POPC   C4B10678  14.586  39.338   7.650
 3883POPC   NC310679   0.417  26.770   9.450
 3883POPC   PO410680   0.484  26.864   9.150
 3883POPC   GL110681   0.474  26.843   8.850
 3883POPC   GL210682   0.310  26.881   8.850
 3883POPC   C1A10683   0.430  26.805   8.550
 3883POPC   D2A10684   0.389  26.855   8.250
 3883POPC   C3A10685   0.403  26.857   7.950
 3883POPC   C4A10686   0.403  26.837   7.650
 3883POPC   C1B10687   0.196  26.968   8.550
 3883POPC   C2B10688   0.233  26.919   8.250
 3883POPC   C3B10689   0.226  26.985   7.950
 3883POPC   C4B10690   0.240  26.921   7.650
 3884POPC   NC310691  43.128  27.580   9.450
 3884POPC   PO410692  43.072  27.572   9.150
 3884POPC   GL110693  43.067  27.633   8.850
 3884POPC   GL210694  42.989  27.558   8.850
 3884POPC   C1A10695  43.151  27.606   8.550
 3884POPC   D2A10696  43.108  27.592   8.250
 3884POPC   C3A10697  43.063  27.592   7.950
 3884POPC   C4A10698  43.097  27.640   7.650
 3884POPC   C1B10699  42.904  27.522   8.550
 3884POPC   C2B10700  42.888  27.565   8.250
 3884POPC   C3B10701  42.868  27.565   7.950
 3884POPC   C4B10702  42.888  27.529   7.650
 3885POPC   NC310703   8.932  38.457   9.450
 3885POPC   PO410704   8.991  38.491   9.150
 3885POPC   GL110705   8.950  38.468   8.850
 3885POPC   GL210706   8.883  38.383   8.850
 3885POPC   C1A10707   8.969  38.461   8.550
 3885POPC   D2A10708   9.001  38.431   8.250
 3885POPC   C3A10709   9.022  38.415   7.950
 3885POPC   C4A10710   8.972  38.450   7.650
 3885POPC   C1B10711   8.685  38.410   8.550
 3885POPC   C2B10712   8.704  38.438   8.250
 3885POPC   C3B10713   8.722  38.413   7.950
 3885POPC   C4B10714   8.719  38.414   7.650
 3886POPC   NC310715  28.322  19.077   9.450
 3886POPC   PO410716  28.380  19.023   9.150
 3886POPC   GL110717  28.404  19.108   8.850
 3886POPC   GL210718  28.341  19.191   8.850
 3886POPC   C1A10719  28.362  19.082   8.550
 3886POPC   D2A10720  28.349  19.063   8.250
 3886POPC   C3A10721  28.393  19.081   7.950
 3886POPC   C4A10722  28.370  19.102   7.650
 3886POPC   C1B10723  28.310  19.303   8.550
 3886POPC   C2B10724  28.294  19.318   8.250
 3886POPC   C3B10725  28.330  19.329   7.950
 3886POPC   C4B10726  28.275  19.328   7.650
 3887POPC   NC310727  10.552  14.394   9.450
 3887POPC   PO410728  10.527  14.386   9.150
 3887POPC   GL110729  10.570  14.374   8.850
 3887POPC   GL210730  10.413  14.308   8.850
 3887POPC   C1A10731  10.552  14.412   8.550
 3887POPC   D2A10732  10.485  14.358   8.250
 3887POPC   C3A10733  10.548  14.392   7.950
 3887POPC   C4A10734  10.544  14.354   7.650
 3887POPC   C1B10735  10.341  14.157   8.550
 3887POPC   C2B10736  10.392  14.227   8.250
 3887POPC   C3B10737  10.353  14.233   7.950
 3887POPC   C4B10738  10.406  14.234   7.650
 3888POPC   NC310739  37.664  28.319   9.450
 3888POPC   PO410740  37.639  28.331   9.150
 3888POPC   GL110741  37.669  28.381   8.850
 3888POPC   GL210742  37.516  28.381   8.850
 3888POPC   C1A10743  37.661  28.387   8.550
 3888POPC   D2A10744  37.695  28.414   8.250
 3888POPC   C3A10745  37.646  28.410   7.950
 3888POPC   C4A10746  37.729  28.330   7.650
 3888POPC   C1B10747  37.480  28.444   8.550
 3888POPC   C2B10748  37.411  28.444   8.250
 3888POPC   C3B10749  37.456  28.437   7.950
 3888POPC   C4B10750  37.449  28.487   7.650
 3889POPC   NC310751  27.594  22.122   9.450
 3889POPC   PO410752  27.613  22.186   9.150
 3889POPC   GL110753  27.549  22.195   8.850
 3889POPC   GL210754  27.549  22.219   8.850
 3889POPC   C1A10755  27.605  22.195   8.550
 3889POPC   D2A10756  27.557  22.186   8.250
 3889POPC   C3A10757  27.623  22.154   7.950
 3889POPC   C4A10758  27.562  22.185   7.650
 3889POPC   C1B10759  27.438  22.374   8.550
 3889POPC   C2B10760  27.414  22.296   8.250
 3889POPC   C3B10761  27.362  22.322   7.950
 3889POPC   C4B10762  27.445  22.327   7.650
 3890POPC   NC310763   8.942  42.337   9.450
 3890POPC   PO410764   8.992  42.320   9.150
 3890POPC   GL110765   9.000  42.331   8.850
 3890POPC   GL210766   8.910  42.299   8.850
 3890POPC   C1A10767   8.948  42.294   8.550
 3890POPC   D2A10768   8.966  42.333   8.250
 3890POPC   C3A10769   8.986  42.323   7.950
 3890POPC   C4A10770   8.955  42.295   7.650
 3890POPC   C1B10771   8.731  42.170   8.550
 3890POPC   C2B10772   8.727  42.146   8.250
 3890POPC   C3B10773   8.799  42.199   7.950
 3890POPC   C4B10774   8.733  42.149   7.650
 3891POPC   NC310775  11.349  31.522   9.450
 3891POPC   PO410776  11.282  31.516   9.150
 3891POPC   GL110777  11.316  31.500   8.850
 3891POPC   GL210778  11.404  31.421   8.850
 3891POPC   C1A10779  11.296  31.514   8.550
 3891POPC   D2A10780  11.323  31.494   8.250
 3891POPC   C3A10781  11.312  31.453   7.950
 3891POPC   C4A10782  11.256  31.477   7.650
 3891POPC   C1B10783  11.525  31.391   8.550
 3891POPC   C2B10784  11.484  31.413   8.250
 3891POPC   C3B10785  11.516  31.331   7.950
 3891POPC   C4B10786  11.484  31.343   7.650
 3892POPC   NC310787  29.882  25.250   9.450
 3892POPC   PO410788  29.928  25.268   9.150
 3892POPC   GL110789  29.952  25.216   8.850
 3892POPC   GL210790  29.975  25.366   8.850
 3892POPC   C1A10791  29.915  25.307   8.550
 3892POPC   D2A10792  29.889  25.263   8.250
 3892POPC   C3A10793  29.915  25.295   7.950
 3892POPC   C4A10794  29.914  25.294   7.650
 3892POPC   C1B10795  29.986  25.527   8.550
 3892POPC   C2B10796  30.029  25.498   8.250
 3892POPC   C3B10797  29.958  25.538   7.950
 3892POPC   C4B10798  30.020  25.492   7.650
 3893POPC   NC310799  36.932  14.374   9.450
 3893POPC   PO410800  36.897  14.358   9.150
 3893POPC   GL110801  36.873  14.420   8.850
 3893POPC   GL210802  36.847  14.311   8.850
 3893POPC   C1A10803  36.933  14.438   8.550
 3893POPC   D2A10804  36.863  14.375   8.250
 3893POPC   C3A10805  36.912  14.398   7.950
 3893POPC   C4A10806  36.882  14.380   7.650
 3893POPC   C1B10807  36.841  14.190   8.550
 3893POPC   C2B10808  36.803  14.165   8.250
 3893POPC   C3B10809  36.818  14.130   7.950
 3893POPC   C4B10810  36.868  14.192   7.650
 3894POPC   NC310811   8.226  44.640   9.450
 3894POPC   PO410812   8.205  44.656   9.150
 3894POPC   GL110813   8.192  44.676   8.850
 3894POPC   GL210814   8.232  44.823   8.850
 3894POPC   C1A10815   8.189  44.697   8.550
 3894POPC   D2A10816   8.202  44.621   8.250
 3894POPC   C3A10817   8.198  44.697   7.950
 3894POPC   C4A10818   8.175  44.694   7.650
 3894POPC   C1B10819   8.232  44.876   8.550
 3894POPC   C2B10820   8.261  44.940   8.250
 3894POPC   C3B10821   8.220  44.881   7.950
 3894POPC   C4B10822   8.254  44.923   7.650
 3895POPC   NC310823  35.395   1.991   9.450
 3895POPC   PO410824  35.309   2.007   9.150
 3895POPC   GL110825  35.332   1.943   8.850
 3895POPC   GL210826  35.289   1.888   8.850
 3895POPC   C1A10827  35.380   1.967   8.550
 3895POPC   D2A10828  35.400   1.949   8.250
 3895POPC   C3A10829  35.323   1.956   7.950
 3895POPC   C4A10830  35.320   2.011   7.650
 3895POPC   C1B10831  35.110   1.833   8.550
 3895POPC   C2B10832  35.102   1.814   8.250
 3895POPC   C3B10833  35.097   1.851   7.950
 3895POPC   C4B10834  35.129   1.846   7.650
 3896POPC   NC310835  38.416  15.166   9.450
 3896POPC   PO410836  38.459  15.167   9.150
 3896POPC   GL110837  38.492  15.209   8.850
 3896POPC   GL210838  38.499  15.018   8.850
 3896POPC   C1A10839  38.489  15.154   8.550
 3896POPC   D2A10840  38.472  15.185   8.250
 3896POPC   C3A10841  38.445  15.176   7.950
 3896POPC   C4A10842  38.422  15.166   7.650
 3896POPC   C1B10843  38.448  14.903   8.550
 3896POPC   C2B10844  38.462  14.920   8.250
 3896POPC   C3B10845  38.499  14.961   7.950
 3896POPC   C4B10846  38.471  14.923   7.650
 3897POPC   NC310847  25.256   8.966   9.450
 3897POPC   PO410848  25.222   8.990   9.150
 3897POPC   GL110849  25.224   8.940   8.850
 3897POPC   GL210850  25.270   9.086   8.850
 3897POPC   C1A10851  25.289   8.954   8.550
 3897POPC   D2A10852  25.247   8.965   8.250
 3897POPC   C3A10853  25.234   8.938   7.950
 3897POPC   C4A10854  25.292   8.986   7.650
 3897POPC   C1B10855  25.376   9.173   8.550
 3897POPC   C2B10856  25.328   9.160   8.250
 3897POPC   C3B10857  25.351   9.233   7.950
 3897POPC   C4B10858  25.329   9.229   7.650
 3898POPC   NC310859  13.603  22.176   9.450
 3898POPC   PO410860  13.645  22.169   9.150
 3898POPC   GL110861  13.611  22.137   8.850
 3898POPC   GL210862  13.496  22.119   8.850
 3898POPC   C1A10863  13.636  22.138   8.550
 3898POPC   D2A10864  13.592  22.205   8.250
 3898POPC   C3A10865  13.608  22.197   7.950
 3898POPC   C4A10866  13.658  22.143   7.650
 3898POPC   C1B10867  13.469  21.976   8.550
 3898POPC   C2B10868  13.445  21.998   8.250
 3898POPC   C3B10869  13.434  21.969   7.950
 3898POPC   C4B10870  13.481  22.029   7.650
 3899POPC   NC310871  24.455  28.350   9.450
 3899POPC   PO410872  24.451  28.404   9.150
 3899POPC   GL110873  24.516  28.349   8.850
 3899POPC   GL210874  24.549  28.298   8.850
 3899POPC   C1A10875  24.467  28.394   8.550
 3899POPC   D2A10876  24.452  28.399   8.250
 3899POPC   C3A10877  24.457  28.361   7.950
 3899POPC   C4A10878  24.499  28.352   7.650
 3899POPC   C1B10879  24.592  28.134   8.550
 3899POPC   C2B10880  24.629  28.139   8.250
 3899POPC   C3B10881  24.611  28.168   7.950
 3899POPC   C4B10882  24.607  28.121   7.650
 3900POPC   NC310883   6.635  21.341   9.450
 3900POPC   PO410884   6.651  21.358   9.150
 3900POPC   GL110885   6.666  21.385   8.850
 3900POPC   GL210886   6.795  21.314   8.850
 3900POPC   C1A10887   6.613  21.394   8.550
 3900POPC   D2A10888   6.629  21.345   8.250
 3900POPC   C3A10889   6.618  21.337   7.950
 3900POPC   C4A10890   6.637  21.366   7.650
 3900POPC   C1B10891   6.902  21.324   8.550
 3900POPC   C2B10892   6.919  21.351   8.250
 3900POPC   C3B10893   6.909  21.328   7.950
 3900POPC   C4B10894   6.893  21.346   7.650
 3901POPC   NC310895   7.398   2.813   9.450
 3901POPC   PO410896   7.447   2.812   9.150
 3901POPC   GL110897   7.430   2.726   8.850
 3901POPC   GL210898   7.486   2.662   8.850
 3901POPC   C1A10899   7.373   2.795   8.550
 3901POPC   D2A10900   7.377   2.719   8.250
 3901POPC   C3A10901   7.407   2.781   7.950
 3901POPC   C4A10902   7.433   2.789   7.650
 3901POPC   C1B10903   7.645   2.645   8.550
 3901POPC   C2B10904   7.569   2.640   8.250
 3901POPC   C3B10905   7.561   2.584   7.950
 3901POPC   C4B10906   7.562   2.617   7.650
 3902POPC   NC310907   9.791   0.455   9.450
 3902POPC   PO410908   9.737   0.403   9.150
 3902POPC   GL110909   9.782   0.442   8.850
 3902POPC   GL210910   9.743   0.312   8.850
 3902POPC   C1A10911   9.735   0.478   8.550
 3902POPC   D2A10912   9.787   0.468   8.250
 3902POPC   C3A10913   9.701   0.398   7.950
 3902POPC   C4A10914   9.714   0.474   7.650
 3902POPC   C1B10915   9.616   0.187   8.550
 3902POPC   C2B10916   9.660   0.249   8.250
 3902POPC   C3B10917   9.631   0.177   7.950
 3902POPC   C4B10918   9.639   0.219   7.650
 3903POPC   NC310919  31.513  44.652   9.450
 3903POPC   PO410920  31.474  44.646   9.150
 3903POPC   GL110921  31.430  44.631   8.850
 3903POPC   GL210922  31.551  44.612   8.850
 3903POPC   C1A10923  31.444  44.684   8.550
 3903POPC   D2A10924  31.511  44.692   8.250
 3903POPC   C3A10925  31.502  44.662   7.950
 3903POPC   C4A10926  31.442  44.647   7.650
 3903POPC   C1B10927  31.726  44.529   8.550
 3903POPC   C2B10928  31.722  44.527   8.250
 3903POPC   C3B10929  31.704  44.599   7.950
 3903POPC   C4B10930  31.691  44.526   7.650
 3904POPC   NC310931  11.305  34.548   9.450
 3904POPC   PO410932  11.323  34.551   9.150
 3904POPC   GL110933  11.343  34.588   8.850
 3904POPC   GL210934  11.147  34.549   8.850
 3904POPC   C1A10935  11.299  34.617   8.550
 3904POPC   D2A10936  11.321  34.622   8.250
 3904POPC   C3A10937  11.325  34.578   7.950
 3904POPC   C4A10938  11.339  34.583   7.650
 3904POPC   C1B10939  11.028  34.527   8.550
 3904POPC   C2B10940  11.016  34.478   8.250
 3904POPC   C3B10941  11.082  34.518   7.950
 3904POPC   C4B10942  11.080  34.487   7.650
 3905POPC   NC310943  26.771  29.952   9.450
 3905POPC   PO410944  26.797  29.896   9.150
 3905POPC   GL110945  26.843  29.908   8.850
 3905POPC   GL210946  26.797  29.773   8.850
 3905POPC   C1A10947  26.797  29.946   8.550
 3905POPC   D2A10948  26.794  29.956   8.250
 3905POPC   C3A10949  26.782  29.943   7.950
 3905POPC   C4A10950  26.794  29.918   7.650
 3905POPC   C1B10951  26.720  29.713   8.550
 3905POPC   C2B10952  26.736  29.648   8.250
 3905POPC   C3B10953  26.756  29.641   7.950
 3905POPC   C4B10954  26.694  29.656   7.650
 3906POPC   NC310955  41.518  33.808   9.450
 3906POPC   PO410956  41.542  33.828   9.150
 3906POPC   GL110957  41.588  33.797   8.850
 3906POPC   GL210958  41.419  33.796   8.850
 3906POPC   C1A10959  41.542  33.804   8.550
 3906POPC   D2A10960  41.568  33.835   8.250
 3906POPC   C3A10961  41.521  33.833   7.950
 3906POPC   C4A10962  41.533  33.833   7.650
 3906POPC   C1B10963  41.286  33.720   8.550
 3906POPC   C2B10964  41.361  33.720   8.250
 3906POPC   C3B10965  41.315  33.769   7.950
 3906POPC   C4B10966  41.321  33.726   7.650
 3907POPC   NC310967   0.428  12.037   9.450
 3907POPC   PO410968   0.466  12.105   9.150
 3907POPC   GL110969   0.445  12.097   8.850
 3907POPC   GL210970   0.487  11.955   8.850
 3907POPC   C1A10971   0.456  12.103   8.550
 3907POPC   D2A10972   0.411  12.028   8.250
 3907POPC   C3A10973   0.478  12.078   7.950
 3907POPC   C4A10974   0.474  12.029   7.650
 3907POPC   C1B10975   0.548  11.919   8.550
 3907POPC   C2B10976   0.633  11.881   8.250
 3907POPC   C3B10977   0.572  11.882   7.950
 3907POPC   C4B10978   0.637  11.886   7.650
 3908POPC   NC310979  32.237  14.435   9.450
 3908POPC   PO410980  32.262  14.406   9.150
 3908POPC   GL110981  32.292  14.439   8.850
 3908POPC   GL210982  32.357  14.394   8.850
 3908POPC   C1A10983  32.292  14.395   8.550
 3908POPC   D2A10984  32.250  14.384   8.250
 3908POPC   C3A10985  32.232  14.397   7.950
 3908POPC   C4A10986  32.297  14.365   7.650
 3908POPC   C1B10987  32.524  14.373   8.550
 3908POPC   C2B10988  32.475  14.323   8.250
 3908POPC   C3B10989  32.454  14.388   7.950
 3908POPC   C4B10990  32.536  14.391   7.650
 3909POPC   NC310991  19.038   3.538   9.450
 3909POPC   PO410992  19.059   3.492   9.150
 3909POPC   GL110993  19.092   3.518   8.850
 3909POPC   GL210994  19.168   3.519   8.850
 3909POPC   C1A10995  19.012   3.563   8.550
 3909POPC   D2A10996  19.106   3.508   8.250
 3909POPC   C3A10997  19.028   3.546   7.950
 3909POPC   C4A10998  19.045   3.580   7.650
 3909POPC   C1B10999  19.329   3.599   8.550
 3909POPC   C2B11000  19.275   3.607   8.250
 3909POPC   C3B11001  19.322   3.594   7.950
 3909POPC   C4B11002  19.280   3.609   7.650
 3910POPC   NC311003  22.970  43.140   9.450
 3910POPC   PO411004  22.955  43.116   9.150
 3910POPC   GL111005  22.951  43.109   8.850
 3910POPC   GL211006  22.816  43.084   8.850
 3910POPC   C1A11007  22.957  43.113   8.550
 3910POPC   D2A11008  22.889  43.113   8.250
 3910POPC   C3A11009  22.955  43.121   7.950
 3910POPC   C4A11010  22.904  43.100   7.650
 3910POPC   C1B11011  22.745  43.001   8.550
 3910POPC   C2B11012  22.665  42.993   8.250
 3910POPC   C3B11013  22.684  43.073   7.950
 3910POPC   C4B11014  22.727  43.048   7.650
 3911POPC   NC311015  40.044  29.893   9.450
 3911POPC   PO411016  40.020  29.960   9.150
 3911POPC   GL111017  40.029  29.968   8.850
 3911POPC   GL211018  39.925  29.913   8.850
 3911POPC   C1A11019  40.053  29.888   8.550
 3911POPC   D2A11020  40.029  29.938   8.250
 3911POPC   C3A11021  39.998  29.904   7.950
 3911POPC   C4A11022  40.018  29.970   7.650
 3911POPC   C1B11023  39.774  29.889   8.550
 3911POPC   C2B11024  39.732  29.894   8.250
 3911POPC   C3B11025  39.733  29.888   7.950
 3911POPC   C4B11026  39.752  29.831   7.650
 3912POPC   NC311027  12.871  37.664   9.450
 3912POPC   PO411028  12.851  37.680   9.150
 3912POPC   GL111029  12.848  37.668   8.850
 3912POPC   GL211030  12.704  37.786   8.850
 3912POPC   C1A11031  12.872  37.639   8.550
 3912POPC   D2A11032  12.852  37.705   8.250
 3912POPC   C3A11033  12.886  37.724   7.950
 3912POPC   C4A11034  12.895  37.665   7.650
 3912POPC   C1B11035  12.630  37.807   8.550
 3912POPC   C2B11036  12.585  37.806   8.250
 3912POPC   C3B11037  12.601  37.767   7.950
 3912POPC   C4B11038  12.617  37.842   7.650
 3913POPC   NC311039   0.485   0.456   9.450
 3913POPC   PO411040   0.446   0.413   9.150
 3913POPC   GL111041   0.407   0.457   8.850
 3913POPC   GL211042   0.352   0.546   8.850
 3913POPC   C1A11043   0.404   0.406   8.550
 3913POPC   D2A11044   0.458   0.389   8.250
 3913POPC   C3A11045   0.474   0.444   7.950
 3913POPC   C4A11046   0.485   0.462   7.650
 3913POPC   C1B11047   0.249   0.564   8.550
 3913POPC   C2B11048   0.217   0.568   8.250
 3913POPC   C3B11049   0.263   0.574   7.950
 3913POPC   C4B11050   0.237   0.632   7.650
 3914POPC   NC311051  17.555   4.287   9.450
 3914POPC   PO411052  17.463   4.344   9.150
 3914POPC   GL111053  17.486   4.325   8.850
 3914POPC   GL211054  17.577   4.172   8.850
 3914POPC   C1A11055  17.492   4.341   8.550
 3914POPC   D2A11056  17.465   4.342   8.250
 3914POPC   C3A11057  17.541   4.272   7.950
 3914POPC   C4A11058  17.481   4.356   7.650
 3914POPC   C1B11059  17.656   4.147   8.550
 3914POPC   C2B11060  17.676   4.089   8.250
 3914POPC   C3B11061  17.607   4.125   7.950
 3914POPC   C4B11062  17.670   4.084   7.650
 3915POPC   NC311063  42.367  38.437   9.450
 3915POPC   PO411064  42.324  38.416   9.150
 3915POPC   GL111065  42.345  38.461   8.850
 3915POPC   GL211066  42.323  38.284   8.850
 3915POPC   C1A11067  42.330  38.450   8.550
 3915POPC   D2A11068  42.311  38.486   8.250
 3915POPC   C3A11069  42.363  38.441   7.950
 3915POPC   C4A11070  42.368  38.442   7.650
 3915POPC   C1B11071  42.279  38.215   8.550
 3915POPC   C2B11072  42.284  38.252   8.250
 3915POPC   C3B11073  42.306  38.253   7.950
 3915POPC   C4B11074  42.319  38.216   7.650
 3916POPC   NC311075   5.121  41.606   9.450
 3916POPC   PO411076   5.093  41.537   9.150
 3916POPC   GL111077   5.122  41.558   8.850
 3916POPC   GL211078   4.991  41.625   8.850
 3916POPC   C1A11079   5.122  41.578   8.550
 3916POPC   D2A11080   5.119  41.582   8.250
 3916POPC   C3A11081   5.113  41.534   7.950
 3916POPC   C4A11082   5.080  41.574   7.650
 3916POPC   C1B11083   4.934  41.697   8.550
 3916POPC   C2B11084   4.918  41.767   8.250
 3916POPC   C3B11085   4.862  41.707   7.950
 3916POPC   C4B11086   4.852  41.719   7.650
 3917POPC   NC311087  33.797  25.310   9.450
 3917POPC   PO411088  33.813  25.257   9.150
 3917POPC   GL111089  33.800  25.271   8.850
 3917POPC   GL211090  33.889  25.346   8.850
 3917POPC   C1A11091  33.778  25.232   8.550
 3917POPC   D2A11092  33.820  25.312   8.250
 3917POPC   C3A11093  33.756  25.272   7.950
 3917POPC   C4A11094  33.773  25.315   7.650
 3917POPC   C1B11095  33.921  25.437   8.550
 3917POPC   C2B11096  33.967  25.435   8.250
 3917POPC   C3B11097  33.925  25.508   7.950
 3917POPC   C4B11098  33.890  25.459   7.650
 3918POPC   NC311099  44.677  38.428   9.450
 3918POPC   PO411100  44.644  38.497   9.150
 3918POPC   GL111101  44.698  38.461   8.850
 3918POPC   GL211102  44.725  38.601   8.850
 3918POPC   C1A11103  44.635  38.454   8.550
 3918POPC   D2A11104  44.694  38.464   8.250
 3918POPC   C3A11105  44.627  38.487   7.950
 3918POPC   C4A11106  44.676  38.410   7.650
 3918POPC   C1B11107  44.806  38.616   8.550
 3918POPC   C2B11108  44.854  38.629   8.250
 3918POPC   C3B11109  44.791  38.645   7.950
 3918POPC   C4B11110  44.846  38.626   7.650
 3919POPC   NC311111  43.931  35.376   9.450
 3919POPC   PO411112  43.916  35.387   9.150
 3919POPC   GL111113  43.894  35.366   8.850
 3919POPC   GL211114  43.847  35.200   8.850
 3919POPC   C1A11115  43.925  35.303   8.550
 3919POPC   D2A11116  43.926  35.386   8.250
 3919POPC   C3A11117  43.850  35.354   7.950
 3919POPC   C4A11118  43.853  35.388   7.650
 3919POPC   C1B11119  43.787  35.129   8.550
 3919POPC   C2B11120  43.761  35.157   8.250
 3919POPC   C3B11121  43.829  35.142   7.950
 3919POPC   C4B11122  43.796  35.087   7.650
 3920POPC   NC311123  26.776  41.515   9.450
 3920POPC   PO411124  26.853  41.516   9.150
 3920POPC   GL111125  26.809  41.570   8.850
 3920POPC   GL211126  26.947  41.621   8.850
 3920POPC   C1A11127  26.800  41.563   8.550
 3920POPC   D2A11128  26.781  41.568   8.250
 3920POPC   C3A11129  26.842  41.512   7.950
 3920POPC   C4A11130  26.821  41.554   7.650
 3920POPC   C1B11131  27.007  41.783   8.550
 3920POPC   C2B11132  26.945  41.722   8.250
 3920POPC   C3B11133  26.986  41.791   7.950
 3920POPC   C4B11134  26.996  41.776   7.650
 3921POPC   NC311135  15.159  22.202   9.450
 3921POPC   PO411136  15.190  22.123   9.150
 3921POPC   GL111137  15.137  22.202   8.850
 3921POPC   GL211138  15.157  22.323   8.850
 3921POPC   C1A11139  15.207  22.113   8.550
 3921POPC   D2A11140  15.216  22.186   8.250
 3921POPC   C3A11141  15.224  22.195   7.950
 3921POPC   C4A11142  15.172  22.122   7.650
 3921POPC   C1B11143  15.159  22.424   8.550
 3921POPC   C2B11144  15.139  22.391   8.250
 3921POPC   C3B11145  15.112  22.363   7.950
 3921POPC   C4B11146  15.115  22.363   7.650
 3922POPC   NC311147  19.805   8.973   9.450
 3922POPC   PO411148  19.800   8.970   9.150
 3922POPC   GL111149  19.879   8.979   8.850
 3922POPC   GL211150  19.962   8.968   8.850
 3922POPC   C1A11151  19.789   8.962   8.550
 3922POPC   D2A11152  19.879   8.967   8.250
 3922POPC   C3A11153  19.849   8.991   7.950
 3922POPC   C4A11154  19.849   8.985   7.650
 3922POPC   C1B11155  20.049   8.864   8.550
 3922POPC   C2B11156  20.029   8.870   8.250
 3922POPC   C3B11157  20.026   8.896   7.950
 3922POPC   C4B11158  20.089   8.894   7.650
 3923POPC   NC311159  17.537   8.990   9.450
 3923POPC   PO411160  17.552   8.938   9.150
 3923POPC   GL111161  17.529   9.019   8.850
 3923POPC   GL211162  17.595   8.904   8.850
 3923POPC   C1A11163  17.531   8.955   8.550
 3923POPC   D2A11164  17.457   8.950   8.250
 3923POPC   C3A11165  17.544   9.012   7.950
 3923POPC   C4A11166  17.544   8.937   7.650
 3923POPC   C1B11167  17.714   8.806   8.550
 3923POPC   C2B11168  17.639   8.765   8.250
 3923POPC   C3B11169  17.632   8.791   7.950
 3923POPC   C4B11170  17.669   8.759   7.650
 3924POPC   NC311171   1.195  35.345   9.450
 3924POPC   PO411172   1.180  35.362   9.150
 3924POPC   GL111173   1.249  35.401   8.850
 3924POPC   GL211174   1.256  35.470   8.850
 3924POPC   C1A11175   1.185  35.332   8.550
 3924POPC   D2A11176   1.218  35.327   8.250
 3924POPC   C3A11177   1.164  35.376   7.950
 3924POPC   C4A11178   1.239  35.391   7.650
 3924POPC   C1B11179   1.405  35.574   8.550
 3924POPC   C2B11180   1.348  35.511   8.250
 3924POPC   C3B11181   1.416  35.556   7.950
 3924POPC   C4B11182   1.413  35.510   7.650
 3925POPC   NC311183  36.156  29.889   9.450
 3925POPC   PO411184  36.095  29.969   9.150
 3925POPC   GL111185  36.086  29.910   8.850
 3925POPC   GL211186  36.161  30.055   8.850
 3925POPC   C1A11187  36.163  29.892   8.550
 3925POPC   D2A11188  36.136  29.877   8.250
 3925POPC   C3A11189  36.135  29.944   7.950
 3925POPC   C4A11190  36.172  29.958   7.650
 3925POPC   C1B11191  36.219  30.162   8.550
 3925POPC   C2B11192  36.202  30.191   8.250
 3925POPC   C3B11193  36.160  30.118   7.950
 3925POPC   C4B11194  36.204  30.150   7.650
 3926POPC   NC311195  37.711   5.825   9.450
 3926POPC   PO411196  37.726   5.918   9.150
 3926POPC   GL111197  37.672   5.886   8.850
 3926POPC   GL211198  37.559   5.817   8.850
 3926POPC   C1A11199  37.640   5.824   8.550
 3926POPC   D2A11200  37.678   5.834   8.250
 3926POPC   C3A11201  37.712   5.858   7.950
 3926POPC   C4A11202  37.662   5.825   7.650
 3926POPC   C1B11203  37.439   5.785   8.550
 3926POPC   C2B11204  37.427   5.755   8.250
 3926POPC   C3B11205  37.467   5.849   7.950
 3926POPC   C4B11206  37.479   5.785   7.650
 3927POPC   NC311207   6.661  31.497   9.450
 3927POPC   PO411208   6.616  31.499   9.150
 3927POPC   GL111209   6.631  31.467   8.850
 3927POPC   GL211210   6.591  31.336   8.850
 3927POPC   C1A11211   6.642  31.428   8.550
 3927POPC   D2A11212   6.671  31.491   8.250
 3927POPC   C3A11213   6.643  31.433   7.950
 3927POPC   C4A11214   6.682  31.456   7.650
 3927POPC   C1B11215   6.501  31.327   8.550
 3927POPC   C2B11216   6.465  31.315   8.250
 3927POPC   C3B11217   6.454  31.279   7.950
 3927POPC   C4B11218   6.502  31.285   7.650
 3928POPC   NC311219  19.794  12.806   9.450
 3928POPC   PO411220  19.866  12.811   9.150
 3928POPC   GL111221  19.814  12.806   8.850
 3928POPC   GL211222  19.887  12.952   8.850
 3928POPC   C1A11223  19.871  12.855   8.550
 3928POPC   D2A11224  19.848  12.860   8.250
 3928POPC   C3A11225  19.883  12.890   7.950
 3928POPC   C4A11226  19.841  12.803   7.650
 3928POPC   C1B11227  19.982  13.079   8.550
 3928POPC   C2B11228  19.941  13.081   8.250
 3928POPC   C3B11229  19.958  13.044   7.950
 3928POPC   C4B11230  19.943  13.043   7.650
 3929POPC   NC311231   7.405  26.829   9.450
 3929POPC   PO411232   7.432  26.769   9.150
 3929POPC   GL111233   7.409  26.844   8.850
 3929POPC   GL211234   7.527  26.935   8.850
 3929POPC   C1A11235   7.387  26.833   8.550
 3929POPC   D2A11236   7.386  26.795   8.250
 3929POPC   C3A11237   7.452  26.781   7.950
 3929POPC   C4A11238   7.412  26.778   7.650
 3929POPC   C1B11239   7.584  27.043   8.550
 3929POPC   C2B11240   7.618  27.029   8.250
 3929POPC   C3B11241   7.546  26.969   7.950
 3929POPC   C4B11242   7.615  27.008   7.650
 3930POPC   NC311243  16.720  35.314   9.450
 3930POPC   PO411244  16.698  35.313   9.150
 3930POPC   GL111245  16.757  35.318   8.850
 3930POPC   GL211246  16.629  35.368   8.850
 3930POPC   C1A11247  16.758  35.316   8.550
 3930POPC   D2A11248  16.737  35.338   8.250
 3930POPC   C3A11249  16.687  35.362   7.950
 3930POPC   C4A11250  16.708  35.305   7.650
 3930POPC   C1B11251  16.474  35.282   8.550
 3930POPC   C2B11252  16.518  35.255   8.250
 3930POPC   C3B11253  16.470  35.256   7.950
 3930POPC   C4B11254  16.513  35.305   7.650
 3931POPC   NC311255  26.850  15.997   9.450
 3931POPC   PO411256  26.864  15.992   9.150
 3931POPC   GL111257  26.866  15.952   8.850
 3931POPC   GL211258  26.826  16.125   8.850
 3931POPC   C1A11259  26.853  15.940   8.550
 3931POPC   D2A11260  26.807  15.968   8.250
 3931POPC   C3A11261  26.810  15.929   7.950
 3931POPC   C4A11262  26.795  15.941   7.650
 3931POPC   C1B11263  26.875  16.176   8.550
 3931POPC   C2B11264  26.852  16.228   8.250
 3931POPC   C3B11265  26.899  16.248   7.950
 3931POPC   C4B11266  26.907  16.206   7.650
 3932POPC   NC311267  18.324  31.468   9.450
 3932POPC   PO411268  18.253  31.502   9.150
 3932POPC   GL111269  18.240  31.453   8.850
 3932POPC   GL211270  18.342  31.577   8.850
 3932POPC   C1A11271  18.286  31.427   8.550
 3932POPC   D2A11272  18.240  31.459   8.250
 3932POPC   C3A11273  18.233  31.450   7.950
 3932POPC   C4A11274  18.272  31.474   7.650
 3932POPC   C1B11275  18.266  31.723   8.550
 3932POPC   C2B11276  18.333  31.733   8.250
 3932POPC   C3B11277  18.349  31.707   7.950
 3932POPC   C4B11278  18.300  31.722   7.650
 3933POPC   NC311279  44.684   8.952   9.450
 3933POPC   PO411280  44.621   8.974   9.150
 3933POPC   GL111281  44.640   9.000   8.850
 3933POPC   GL211282  44.673   8.858   8.850
 3933POPC   C1A11283  44.664   8.963   8.550
 3933POPC   D2A11284  44.666   8.993   8.250
 3933POPC   C3A11285  44.690   8.964   7.950
 3933POPC   C4A11286  44.626   8.973   7.650
 3933POPC   C1B11287  44.595   8.753   8.550
 3933POPC   C2B11288  44.590   8.679   8.250
 3933POPC   C3B11289  44.638   8.752   7.950
 3933POPC   C4B11290  44.632   8.772   7.650
 3934POPC   NC311291  28.323   4.364   9.450
 3934POPC   PO411292  28.415   4.294   9.150
 3934POPC   GL111293  28.399   4.355   8.850
 3934POPC   GL211294  28.205   4.317   8.850
 3934POPC   C1A11295  28.398   4.294   8.550
 3934POPC   D2A11296  28.338   4.288   8.250
 3934POPC   C3A11297  28.365   4.332   7.950
 3934POPC   C4A11298  28.341   4.288   7.650
 3934POPC   C1B11299  28.114   4.424   8.550
 3934POPC   C2B11300  28.161   4.367   8.250
 3934POPC   C3B11301  28.129   4.425   7.950
 3934POPC   C4B11302  28.189   4.411   7.650
 3935POPC   NC311303   8.956  17.469   9.450
 3935POPC   PO411304   9.013  17.509   9.150
 3935POPC   GL111305   8.995  17.516   8.850
 3935POPC   GL211306   9.079  17.467   8.850
 3935POPC   C1A11307   8.946  17.520   8.550
 3935POPC   D2A11308   8.932  17.530   8.250
 3935POPC   C3A11309   8.938  17.532   7.950
 3935POPC   C4A11310   8.983  17.556   7.650
 3935POPC   C1B11311   9.209  17.511   8.550
 3935POPC   C2B11312   9.267  17.494   8.250
 3935POPC   C3B11313   9.195  17.463   7.950
 3935POPC   C4B11314   9.199  17.488   7.650
 3936POPC   NC311315  24.530  20.575   9.450
 3936POPC   PO411316  24.511  20.573   9.150
 3936POPC   GL111317  24.451  20.565   8.850
 3936POPC   GL211318  24.386  20.663   8.850
 3936POPC   C1A11319  24.482  20.583   8.550
 3936POPC   D2A11320  24.518  20.608   8.250
 3936POPC   C3A11321  24.537  20.644   7.950
 3936POPC   C4A11322  24.534  20.596   7.650
 3936POPC   C1B11323  24.321  20.770   8.550
 3936POPC   C2B11324  24.314  20.790   8.250
 3936POPC   C3B11325  24.305  20.853   7.950
 3936POPC   C4B11326  24.385  20.800   7.650
 3937POPC   NC311327  22.898  14.417   9.450
 3937POPC   PO411328  22.889  14.408   9.150
 3937POPC   GL111329  22.894  14.386   8.850
 3937POPC   GL211330  23.075  14.367   8.850
 3937POPC   C1A11331  22.947  14.403   8.550
 3937POPC   D2A11332  22.982  14.391   8.250
 3937POPC   C3A11333  22.923  14.398   7.950
 3937POPC   C4A11334  22.910  14.364   7.650
 3937POPC   C1B11335  23.114  14.326   8.550
 3937POPC   C2B11336  23.196  14.272   8.250
 3937POPC   C3B11337  23.174  14.321   7.950
 3937POPC   C4B11338  23.137  14.295   7.650
 3938POPC   NC311339  17.483  16.764   9.450
 3938POPC   PO411340  17.461  16.687   9.150
 3938POPC   GL111341  17.496  16.685   8.850
 3938POPC   GL211342  17.394  16.658   8.850
 3938POPC   C1A11343  17.511  16.744   8.550
 3938POPC   D2A11344  17.515  16.756   8.250
 3938POPC   C3A11345  17.473  16.719   7.950
 3938POPC   C4A11346  17.461  16.720   7.650
 3938POPC   C1B11347  17.269  16.556   8.550
 3938POPC   C2B11348  17.327  16.599   8.250
 3938POPC   C3B11349  17.275  16.558   7.950
 3938POPC   C4B11350  17.348  16.603   7.650
 3939POPC   NC311351   8.169  36.917   9.450
 3939POPC   PO411352   8.220  36.912   9.150
 3939POPC   GL111353   8.196  36.882   8.850
 3939POPC   GL211354   8.111  36.991   8.850
 3939POPC   C1A11355   8.148  36.885   8.550
 3939POPC   D2A11356   8.175  36.854   8.250
 3939POPC   C3A11357   8.155  36.874   7.950
 3939POPC   C4A11358   8.195  36.942   7.650
 3939POPC   C1B11359   7.972  36.986   8.550
 3939POPC   C2B11360   7.947  36.971   8.250
 3939POPC   C3B11361   7.919  37.017   7.950
 3939POPC   C4B11362   8.016  37.018   7.650
 3940POPC   NC311363   9.728  19.867   9.450
 3940POPC   PO411364   9.796  19.814   9.150
 3940POPC   GL111365   9.718  19.873   8.850
 3940POPC   GL211366   9.891  19.913   8.850
 3940POPC   C1A11367   9.751  19.881   8.550
 3940POPC   D2A11368   9.757  19.810   8.250
 3940POPC   C3A11369   9.712  19.785   7.950
 3940POPC   C4A11370   9.780  19.855   7.650
 3940POPC   C1B11371  10.022  19.944   8.550
 3940POPC   C2B11372   9.940  19.927   8.250
 3940POPC   C3B11373   9.942  19.921   7.950
 3940POPC   C4B11374   9.953  19.953   7.650
 3941POPC   NC311375  26.025  13.662   9.450
 3941POPC   PO411376  26.019  13.598   9.150
 3941POPC   GL111377  26.058  13.662   8.850
 3941POPC   GL211378  25.953  13.582   8.850
 3941POPC   C1A11379  26.076  13.674   8.550
 3941POPC   D2A11380  26.084  13.586   8.250
 3941POPC   C3A11381  26.032  13.657   7.950
 3941POPC   C4A11382  26.018  13.633   7.650
 3941POPC   C1B11383  25.800  13.504   8.550
 3941POPC   C2B11384  25.784  13.474   8.250
 3941POPC   C3B11385  25.791  13.460   7.950
 3941POPC   C4B11386  25.774  13.524   7.650
 3942POPC   NC311387  15.966  31.426   9.450
 3942POPC   PO411388  15.920  31.428   9.150
 3942POPC   GL111389  15.980  31.424   8.850
 3942POPC   GL211390  16.101  31.449   8.850
 3942POPC   C1A11391  15.948  31.453   8.550
 3942POPC   D2A11392  15.917  31.511   8.250
 3942POPC   C3A11393  15.929  31.472   7.950
 3942POPC   C4A11394  15.930  31.478   7.650
 3942POPC   C1B11395  16.192  31.503   8.550
 3942POPC   C2B11396  16.210  31.552   8.250
 3942POPC   C3B11397  16.236  31.546   7.950
 3942POPC   C4B11398  16.160  31.526   7.650
 3943POPC   NC311399  41.589   2.753   9.450
 3943POPC   PO411400  41.565   2.758   9.150
 3943POPC   GL111401  41.556   2.722   8.850
 3943POPC   GL211402  41.639   2.902   8.850
 3943POPC   C1A11403  41.572   2.768   8.550
 3943POPC   D2A11404  41.534   2.722   8.250
 3943POPC   C3A11405  41.600   2.775   7.950
 3943POPC   C4A11406  41.603   2.769   7.650
 3943POPC   C1B11407  41.695   2.936   8.550
 3943POPC   C2B11408  41.753   2.972   8.250
 3943POPC   C3B11409  41.679   2.922   7.950
 3943POPC   C4B11410  41.688   2.983   7.650
 3944POPC   NC311411   5.078  15.915   9.450
 3944POPC   PO411412   5.084  15.917   9.150
 3944POPC   GL111413   5.045  15.955   8.850
 3944POPC   GL211414   5.011  16.083   8.850
 3944POPC   C1A11415   5.092  15.950   8.550
 3944POPC   D2A11416   5.111  15.979   8.250
 3944POPC   C3A11417   5.043  15.963   7.950
 3944POPC   C4A11418   5.119  15.921   7.650
 3944POPC   C1B11419   4.952  16.112   8.550
 3944POPC   C2B11420   4.883  16.159   8.250
 3944POPC   C3B11421   4.881  16.083   7.950
 3944POPC   C4B11422   4.877  16.175   7.650
 3945POPC   NC311423   5.082  39.243   9.450
 3945POPC   PO411424   5.138  39.274   9.150
 3945POPC   GL111425   5.074  39.278   8.850
 3945POPC   GL211426   5.128  39.370   8.850
 3945POPC   C1A11427   5.142  39.220   8.550
 3945POPC   D2A11428   5.066  39.223   8.250
 3945POPC   C3A11429   5.141  39.263   7.950
 3945POPC   C4A11430   5.059  39.226   7.650
 3945POPC   C1B11431   5.172  39.484   8.550
 3945POPC   C2B11432   5.193  39.443   8.250
 3945POPC   C3B11433   5.199  39.512   7.950
 3945POPC   C4B11434   5.116  39.523   7.650
 3946POPC   NC311435  16.720  26.042   9.450
 3946POPC   PO411436  16.731  26.024   9.150
 3946POPC   GL111437  16.683  26.018   8.850
 3946POPC   GL211438  16.629  26.082   8.850
 3946POPC   C1A11439  16.689  25.998   8.550
 3946POPC   D2A11440  16.768  26.051   8.250
 3946POPC   C3A11441  16.774  26.006   7.950
 3946POPC   C4A11442  16.770  26.018   7.650
 3946POPC   C1B11443  16.572  26.182   8.550
 3946POPC   C2B11444  16.571  26.233   8.250
 3946POPC   C3B11445  16.567  26.147   7.950
 3946POPC   C4B11446  16.491  26.155   7.650
 3947POPC   NC311447  32.205  29.116   9.450
 3947POPC   PO411448  32.270  29.112   9.150
 3947POPC   GL111449  32.284  29.185   8.850
 3947POPC   GL211450  32.200  28.983   8.850
 3947POPC   C1A11451  32.261  29.163   8.550
 3947POPC   D2A11452  32.266  29.145   8.250
 3947POPC   C3A11453  32.220  29.147   7.950
 3947POPC   C4A11454  32.270  29.139   7.650
 3947POPC   C1B11455  32.247  28.856   8.550
 3947POPC   C2B11456  32.176  28.880   8.250
 3947POPC   C3B11457  32.219  28.938   7.950
 3947POPC   C4B11458  32.183  28.936   7.650
 3948POPC   NC311459  44.690  43.850   9.450
 3948POPC   PO411460  44.681  43.854   9.150
 3948POPC   GL111461  44.701  43.916   8.850
 3948POPC   GL211462  44.539  43.789   8.850
 3948POPC   C1A11463  44.663  43.881   8.550
 3948POPC   D2A11464  44.683  43.930   8.250
 3948POPC   C3A11465  44.640  43.852   7.950
 3948POPC   C4A11466  44.674  43.892   7.650
 3948POPC   C1B11467  44.556  43.682   8.550
 3948POPC   C2B11468  44.504  43.648   8.250
 3948POPC   C3B11469  44.465  43.643   7.950
 3948POPC   C4B11470  44.483  43.733   7.650
 3949POPC   NC311471   7.379  29.954   9.450
 3949POPC   PO411472   7.381  29.880   9.150
 3949POPC   GL111473   7.392  29.899   8.850
 3949POPC   GL211474   7.460  29.838   8.850
 3949POPC   C1A11475   7.470  29.903   8.550
 3949POPC   D2A11476   7.453  29.904   8.250
 3949POPC   C3A11477   7.451  29.925   7.950
 3949POPC   C4A11478   7.453  29.959   7.650
 3949POPC   C1B11479   7.455  29.718   8.550
 3949POPC   C2B11480   7.446  29.678   8.250
 3949POPC   C3B11481   7.365  29.712   7.950
 3949POPC   C4B11482   7.402  29.632   7.650
 3950POPC   NC311483  10.550   7.412   9.450
 3950POPC   PO411484  10.545   7.391   9.150
 3950POPC   GL111485  10.566   7.447   8.850
 3950POPC   GL211486  10.541   7.312   8.850
 3950POPC   C1A11487  10.477   7.422   8.550
 3950POPC   D2A11488  10.555   7.467   8.250
 3950POPC   C3A11489  10.536   7.429   7.950
 3950POPC   C4A11490  10.529   7.412   7.650
 3950POPC   C1B11491  10.604   7.201   8.550
 3950POPC   C2B11492  10.634   7.203   8.250
 3950POPC   C3B11493  10.683   7.155   7.950
 3950POPC   C4B11494  10.685   7.235   7.650
 3951POPC   NC311495  16.686  33.017   9.450
 3951POPC   PO411496  16.694  32.991   9.150
 3951POPC   GL111497  16.742  32.996   8.850
 3951POPC   GL211498  16.642  32.998   8.850
 3951POPC   C1A11499  16.728  33.057   8.550
 3951POPC   D2A11500  16.707  33.072   8.250
 3951POPC   C3A11501  16.743  33.041   7.950
 3951POPC   C4A11502  16.690  33.001   7.650
 3951POPC   C1B11503  16.518  32.924   8.550
 3951POPC   C2B11504  16.552  32.936   8.250
 3951POPC   C3B11505  16.475  32.864   7.950
 3951POPC   C4B11506  16.527  32.911   7.650
 3952POPC   NC311507  19.072  32.224   9.450
 3952POPC   PO411508  19.071  32.215   9.150
 3952POPC   GL111509  19.104  32.265   8.850
 3952POPC   GL211510  19.118  32.381   8.850
 3952POPC   C1A11511  19.088  32.284   8.550
 3952POPC   D2A11512  19.039  32.234   8.250
 3952POPC   C3A11513  19.088  32.287   7.950
 3952POPC   C4A11514  19.052  32.223   7.650
 3952POPC   C1B11515  19.095  32.528   8.550
 3952POPC   C2B11516  19.075  32.543   8.250
 3952POPC   C3B11517  19.104  32.494   7.950
 3952POPC   C4B11518  19.108  32.474   7.650
 3953POPC   NC311519  17.481   1.976   9.450
 3953POPC   PO411520  17.481   1.963   9.150
 3953POPC   GL111521  17.465   1.957   8.850
 3953POPC   GL211522  17.358   2.048   8.850
 3953POPC   C1A11523  17.498   1.950   8.550
 3953POPC   D2A11524  17.544   2.013   8.250
 3953POPC   C3A11525  17.467   1.993   7.950
 3953POPC   C4A11526  17.546   1.977   7.650
 3953POPC   C1B11527  17.283   2.066   8.550
 3953POPC   C2B11528  17.310   2.026   8.250
 3953POPC   C3B11529  17.242   2.055   7.950
 3953POPC   C4B11530  17.240   2.011   7.650
 3954POPC   NC311531  10.479  35.324   9.450
 3954POPC   PO411532  10.544  35.335   9.150
 3954POPC   GL111533  10.538  35.334   8.850
 3954POPC   GL211534  10.537  35.524   8.850
 3954POPC   C1A11535  10.513  35.345   8.550
 3954POPC   D2A11536  10.547  35.369   8.250
 3954POPC   C3A11537  10.513  35.320   7.950
 3954POPC   C4A11538  10.514  35.383   7.650
 3954POPC   C1B11539  10.554  35.605   8.550
 3954POPC   C2B11540  10.497  35.569   8.250
 3954POPC   C3B11541  10.471  35.597   7.950
 3954POPC   C4B11542  10.531  35.574   7.650
 3955POPC   NC311543   2.783  22.188   9.450
 3955POPC   PO411544   2.727  22.166   9.150
 3955POPC   GL111545   2.740  22.183   8.850
 3955POPC   GL211546   2.636  22.105   8.850
 3955POPC   C1A11547   2.780  22.127   8.550
 3955POPC   D2A11548   2.717  22.159   8.250
 3955POPC   C3A11549   2.801  22.123   7.950
 3955POPC   C4A11550   2.776  22.142   7.650
 3955POPC   C1B11551   2.547  22.022   8.550
 3955POPC   C2B11552   2.574  22.022   8.250
 3955POPC   C3B11553   2.578  22.061   7.950
 3955POPC   C4B11554   2.547  22.044   7.650
 3956POPC   NC311555  31.459  24.536   9.450
 3956POPC   PO411556  31.451  24.500   9.150
 3956POPC   GL111557  31.508  24.441   8.850
 3956POPC   GL211558  31.478  24.613   8.850
 3956POPC   C1A11559  31.438  24.509   8.550
 3956POPC   D2A11560  31.435  24.448   8.250
 3956POPC   C3A11561  31.437  24.472   7.950
 3956POPC   C4A11562  31.514  24.494   7.650
 3956POPC   C1B11563  31.356  24.688   8.550
 3956POPC   C2B11564  31.367  24.776   8.250
 3956POPC   C3B11565  31.385  24.723   7.950
 3956POPC   C4B11566  31.435  24.759   7.650
 3957POPC   NC311567  15.182  43.109   9.450
 3957POPC   PO411568  15.144  43.154   9.150
 3957POPC   GL111569  15.139  43.159   8.850
 3957POPC   GL211570  15.138  43.211   8.850
 3957POPC   C1A11571  15.143  43.122   8.550
 3957POPC   D2A11572  15.181  43.081   8.250
 3957POPC   C3A11573  15.203  43.132   7.950
 3957POPC   C4A11574  15.160  43.083   7.650
 3957POPC   C1B11575  15.133  43.313   8.550
 3957POPC   C2B11576  15.165  43.321   8.250
 3957POPC   C3B11577  15.145  43.363   7.950
 3957POPC   C4B11578  15.090  43.390   7.650
 3958POPC   NC311579  22.907  26.785   9.450
 3958POPC   PO411580  22.958  26.856   9.150
 3958POPC   GL111581  22.932  26.813   8.850
 3958POPC   GL211582  22.841  26.879   8.850
 3958POPC   C1A11583  22.933  26.813   8.550
 3958POPC   D2A11584  22.983  26.767   8.250
 3958POPC   C3A11585  22.892  26.809   7.950
 3958POPC   C4A11586  22.948  26.783   7.650
 3958POPC   C1B11587  22.715  26.881   8.550
 3958POPC   C2B11588  22.703  26.847   8.250
 3958POPC   C3B11589  22.685  26.898   7.950
 3958POPC   C4B11590  22.746  26.856   7.650
 3959POPC   NC311591  34.553  16.690   9.450
 3959POPC   PO411592  34.529  16.697   9.150
 3959POPC   GL111593  34.550  16.756   8.850
 3959POPC   GL211594  34.690  16.671   8.850
 3959POPC   C1A11595  34.547  16.706   8.550
 3959POPC   D2A11596  34.560  16.759   8.250
 3959POPC   C3A11597  34.559  16.764   7.950
 3959POPC   C4A11598  34.535  16.759   7.650
 3959POPC   C1B11599  34.794  16.585   8.550
 3959POPC   C2B11600  34.812  16.642   8.250
 3959POPC   C3B11601  34.803  16.567   7.950
 3959POPC   C4B11602  34.772  16.596   7.650
 3960POPC   NC311603  39.234  32.978   9.450
 3960POPC   PO411604  39.233  33.072   9.150
 3960POPC   GL111605  39.208  33.068   8.850
 3960POPC   GL211606  39.176  32.907   8.850
 3960POPC   C1A11607  39.189  33.027   8.550
 3960POPC   D2A11608  39.238  33.071   8.250
 3960POPC   C3A11609  39.252  33.006   7.950
 3960POPC   C4A11610  39.264  32.991   7.650
 3960POPC   C1B11611  39.202  32.753   8.550
 3960POPC   C2B11612  39.239  32.758   8.250
 3960POPC   C3B11613  39.173  32.777   7.950
 3960POPC   C4B11614  39.169  32.817   7.650
 3961POPC   NC311615  23.737  12.892   9.450
 3961POPC   PO411616  23.669  12.838   9.150
 3961POPC   GL111617  23.740  12.833   8.850
 3961POPC   GL211618  23.838  12.775   8.850
 3961POPC   C1A11619  23.675  12.833   8.550
 3961POPC   D2A11620  23.746  12.848   8.250
 3961POPC   C3A11621  23.729  12.858   7.950
 3961POPC   C4A11622  23.684  12.860   7.650
 3961POPC   C1B11623  23.932  12.742   8.550
 3961POPC   C2B11624  23.995  12.778   8.250
 3961POPC   C3B11625  23.920  12.823   7.950
 3961POPC   C4B11626  23.956  12.804   7.650
 3962POPC   NC311627  29.953  19.057   9.450
 3962POPC   PO411628  29.912  19.049   9.150
 3962POPC   GL111629  29.925  19.012   8.850
 3962POPC   GL211630  30.050  18.992   8.850
 3962POPC   C1A11631  29.882  19.086   8.550
 3962POPC   D2A11632  29.902  19.077   8.250
 3962POPC   C3A11633  29.934  19.011   7.950
 3962POPC   C4A11634  29.909  19.073   7.650
 3962POPC   C1B11635  30.102  18.980   8.550
 3962POPC   C2B11636  30.104  18.961   8.250
 3962POPC   C3B11637  30.107  18.973   7.950
 3962POPC   C4B11638  30.161  18.915   7.650
 3963POPC   NC311639  19.830   4.280   9.450
 3963POPC   PO411640  19.868   4.279   9.150
 3963POPC   GL111641  19.864   4.324   8.850
 3963POPC   GL211642  19.807   4.248   8.850
 3963POPC   C1A11643  19.882   4.351   8.550
 3963POPC   D2A11644  19.827   4.292   8.250
 3963POPC   C3A11645  19.812   4.307   7.950
 3963POPC   C4A11646  19.866   4.286   7.650
 3963POPC   C1B11647  19.779   4.083   8.550
 3963POPC   C2B11648  19.779   4.041   8.250
 3963POPC   C3B11649  19.748   4.083   7.950
 3963POPC   C4B11650  19.691   4.090   7.650
 3964POPC   NC311651   9.722  15.193   9.450
 3964POPC   PO411652   9.724  15.148   9.150
 3964POPC   GL111653   9.768  15.141   8.850
 3964POPC   GL211654   9.601  15.150   8.850
 3964POPC   C1A11655   9.783  15.192   8.550
 3964POPC   D2A11656   9.735  15.130   8.250
 3964POPC   C3A11657   9.723  15.182   7.950
 3964POPC   C4A11658   9.741  15.156   7.650
 3964POPC   C1B11659   9.572  15.040   8.550
 3964POPC   C2B11660   9.559  15.037   8.250
 3964POPC   C3B11661   9.562  15.005   7.950
 3964POPC   C4B11662   9.574  15.038   7.650
 3965POPC   NC311663  25.274  35.400   9.450
 3965POPC   PO411664  25.305  35.308   9.150
 3965POPC   GL111665  25.308  35.362   8.850
 3965POPC   GL211666  25.280  35.440   8.850
 3965POPC   C1A11667  25.231  35.325   8.550
 3965POPC   D2A11668  25.306  35.363   8.250
 3965POPC   C3A11669  25.266  35.304   7.950
 3965POPC   C4A11670  25.310  35.364   7.650
 3965POPC   C1B11671  25.270  35.628   8.550
 3965POPC   C2B11672  25.271  35.642   8.250
 3965POPC   C3B11673  25.296  35.561   7.950
 3965POPC   C4B11674  25.342  35.561   7.650
 3966POPC   NC311675  25.237  15.163   9.450
 3966POPC   PO411676  25.263  15.168   9.150
 3966POPC   GL111677  25.231  15.186   8.850
 3966POPC   GL211678  25.438  15.191   8.850
 3966POPC   C1A11679  25.237  15.221   8.550
 3966POPC   D2A11680  25.269  15.175   8.250
 3966POPC   C3A11681  25.274  15.227   7.950
 3966POPC   C4A11682  25.293  15.201   7.650
 3966POPC   C1B11683  25.541  15.095   8.550
 3966POPC   C2B11684  25.527  15.187   8.250
 3966POPC   C3B11685  25.511  15.094   7.950
 3966POPC   C4B11686  25.537  15.124   7.650
 3967POPC   NC311687   2.784  41.549   9.450
 3967POPC   PO411688   2.745  41.586   9.150
 3967POPC   GL111689   2.727  41.512   8.850
 3967POPC   GL211690   2.656  41.587   8.850
 3967POPC   C1A11691   2.803  41.543   8.550
 3967POPC   D2A11692   2.805  41.526   8.250
 3967POPC   C3A11693   2.729  41.590   7.950
 3967POPC   C4A11694   2.810  41.543   7.650
 3967POPC   C1B11695   2.527  41.668   8.550
 3967POPC   C2B11696   2.517  41.668   8.250
 3967POPC   C3B11697   2.595  41.736   7.950
 3967POPC   C4B11698   2.512  41.643   7.650
 3968POPC   NC311699   4.293  15.962   9.450
 3968POPC   PO411700   4.300  15.998   9.150
 3968POPC   GL111701   4.273  15.993   8.850
 3968POPC   GL211702   4.391  15.991   8.850
 3968POPC   C1A11703   4.304  15.921   8.550
 3968POPC   D2A11704   4.356  15.982   8.250
 3968POPC   C3A11705   4.364  15.993   7.950
 3968POPC   C4A11706   4.349  15.918   7.650
 3968POPC   C1B11707   4.539  15.981   8.550
 3968POPC   C2B11708   4.578  16.013   8.250
 3968POPC   C3B11709   4.524  16.017   7.950
 3968POPC   C4B11710   4.523  15.963   7.650
 3969POPC   NC311711   4.291  36.854   9.450
 3969POPC   PO411712   4.340  36.907   9.150
 3969POPC   GL111713   4.351  36.951   8.850
 3969POPC   GL211714   4.401  36.764   8.850
 3969POPC   C1A11715   4.351  36.870   8.550
 3969POPC   D2A11716   4.309  36.857   8.250
 3969POPC   C3A11717   4.307  36.918   7.950
 3969POPC   C4A11718   4.364  36.915   7.650
 3969POPC   C1B11719   4.373  36.669   8.550
 3969POPC   C2B11720   4.356  36.621   8.250
 3969POPC   C3B11721   4.367  36.619   7.950
 3969POPC   C4B11722   4.410  36.701   7.650
 3970POPC   NC311723  44.671  42.325   9.450
 3970POPC   PO411724  44.703  42.301   9.150
 3970POPC   GL111725  44.637  42.363   8.850
 3970POPC   GL211726  44.673  42.234   8.850
 3970POPC   C1A11727  44.694  42.353   8.550
 3970POPC   D2A11728  44.647  42.292   8.250
 3970POPC   C3A11729  44.637  42.370   7.950
 3970POPC   C4A11730  44.618  42.382   7.650
 3970POPC   C1B11731  44.733  42.095   8.550
 3970POPC   C2B11732  44.789  42.102   8.250
 3970POPC   C3B11733  44.768  42.123   7.950
 3970POPC   C4B11734  44.761  42.152   7.650
 3971POPC   NC311735  30.717   4.327   9.450
 3971POPC   PO411736  30.714   4.320   9.150
 3971POPC   GL111737  30.671   4.286   8.850
 3971POPC   GL211738  30.772   4.337   8.850
 3971POPC   C1A11739  30.705   4.295   8.550
 3971POPC   D2A11740  30.654   4.278   8.250
 3971POPC   C3A11741  30.648   4.293   7.950
 3971POPC   C4A11742  30.695   4.347   7.650
 3971POPC   C1B11743  30.957   4.251   8.550
 3971POPC   C2B11744  30.991   4.273   8.250
 3971POPC   C3B11745  30.909   4.300   7.950
 3971POPC   C4B11746  30.972   4.265   7.650
 3972POPC   NC311747  17.538  36.888   9.450
 3972POPC   PO411748  17.498  36.929   9.150
 3972POPC   GL111749  17.497  36.885   8.850
 3972POPC   GL211750  17.648  36.965   8.850
 3972POPC   C1A11751  17.557  36.918   8.550
 3972POPC   D2A11752  17.467  36.913   8.250
 3972POPC   C3A11753  17.491  36.881   7.950
 3972POPC   C4A11754  17.525  36.920   7.650
 3972POPC   C1B11755  17.669  37.098   8.550
 3972POPC   C2B11756  17.672  37.111   8.250
 3972POPC   C3B11757  17.745  37.017   7.950
 3972POPC   C4B11758  17.657  37.112   7.650
 3973POPC   NC311759  15.183   4.334   9.450
 3973POPC   PO411760  15.205   4.323   9.150
 3973POPC   GL111761  15.218   4.329   8.850
 3973POPC   GL211762  15.095   4.390   8.850
 3973POPC   C1A11763  15.159   4.365   8.550
 3973POPC   D2A11764  15.180   4.309   8.250
 3973POPC   C3A11765  15.192   4.289   7.950
 3973POPC   C4A11766  15.198   4.294   7.650
 3973POPC   C1B11767  15.026   4.559   8.550
 3973POPC   C2B11768  15.065   4.539   8.250
 3973POPC   C3B11769  15.060   4.468   7.950
 3973POPC   C4B11770  15.058   4.478   7.650
 3974POPC   NC311771  24.459  36.867   9.450
 3974POPC   PO411772  24.502  36.891   9.150
 3974POPC   GL111773  24.447  36.919   8.850
 3974POPC   GL211774  24.627  36.867   8.850
 3974POPC   C1A11775  24.465  36.950   8.550
 3974POPC   D2A11776  24.513  36.854   8.250
 3974POPC   C3A11777  24.468  36.859   7.950
 3974POPC   C4A11778  24.461  36.939   7.650
 3974POPC   C1B11779  24.741  36.861   8.550
 3974POPC   C2B11780  24.696  36.856   8.250
 3974POPC   C3B11781  24.768  36.816   7.950
 3974POPC   C4B11782  24.739  36.790   7.650
 3975POPC   NC311783  23.709  36.917   9.450
 3975POPC   PO411784  23.679  36.923   9.150
 3975POPC   GL111785  23.679  36.888   8.850
 3975POPC   GL211786  23.713  36.753   8.850
 3975POPC   C1A11787  23.728  36.930   8.550
 3975POPC   D2A11788  23.686  36.934   8.250
 3975POPC   C3A11789  23.741  36.930   7.950
 3975POPC   C4A11790  23.730  36.909   7.650
 3975POPC   C1B11791  23.623  36.652   8.550
 3975POPC   C2B11792  23.636  36.666   8.250
 3975POPC   C3B11793  23.596  36.701   7.950
 3975POPC   C4B11794  23.606  36.629   7.650
 3976POPC   NC311795  32.277  21.362   9.450
 3976POPC   PO411796  32.296  21.339   9.150
 3976POPC   GL111797  32.233  21.391   8.850
 3976POPC   GL211798  32.333  21.454   8.850
 3976POPC   C1A11799  32.244  21.399   8.550
 3976POPC   D2A11800  32.199  21.400   8.250
 3976POPC   C3A11801  32.208  21.384   7.950
 3976POPC   C4A11802  32.282  21.378   7.650
 3976POPC   C1B11803  32.486  21.550   8.550
 3976POPC   C2B11804  32.457  21.530   8.250
 3976POPC   C3B11805  32.421  21.516   7.950
 3976POPC   C4B11806  32.481  21.559   7.650
 3977POPC   NC311807  12.114   7.450   9.450
 3977POPC   PO411808  12.108   7.408   9.150
 3977POPC   GL111809  12.030   7.413   8.850
 3977POPC   GL211810  12.132   7.506   8.850
 3977POPC   C1A11811  12.032   7.393   8.550
 3977POPC   D2A11812  12.115   7.378   8.250
 3977POPC   C3A11813  12.079   7.383   7.950
 3977POPC   C4A11814  12.048   7.414   7.650
 3977POPC   C1B11815  12.140   7.690   8.550
 3977POPC   C2B11816  12.186   7.640   8.250
 3977POPC   C3B11817  12.124   7.665   7.950
 3977POPC   C4B11818  12.193   7.620   7.650
 3978POPC   NC311819  32.993  15.991   9.450
 3978POPC   PO411820  32.987  15.913   9.150
 3978POPC   GL111821  33.035  15.912   8.850
 3978POPC   GL211822  33.041  15.843   8.850
 3978POPC   C1A11823  33.039  15.986   8.550
 3978POPC   D2A11824  32.985  15.986   8.250
 3978POPC   C3A11825  33.004  15.963   7.950
 3978POPC   C4A11826  33.037  15.919   7.650
 3978POPC   C1B11827  33.151  15.727   8.550
 3978POPC   C2B11828  33.193  15.701   8.250
 3978POPC   C3B11829  33.139  15.727   7.950
 3978POPC   C4B11830  33.170  15.746   7.650
 3979POPC   NC311831   8.185   7.379   9.450
 3979POPC   PO411832   8.159   7.422   9.150
 3979POPC   GL111833   8.206   7.457   8.850
 3979POPC   GL211834   8.077   7.430   8.850
 3979POPC   C1A11835   8.193   7.395   8.550
 3979POPC   D2A11836   8.246   7.430   8.250
 3979POPC   C3A11837   8.168   7.403   7.950
 3979POPC   C4A11838   8.201   7.381   7.650
 3979POPC   C1B11839   7.967   7.385   8.550
 3979POPC   C2B11840   7.918   7.446   8.250
 3979POPC   C3B11841   7.926   7.461   7.950
 3979POPC   C4B11842   7.932   7.437   7.650
 3980POPC   NC311843  32.283  15.973   9.450
 3980POPC   PO411844  32.250  15.948   9.150
 3980POPC   GL111845  32.202  15.980   8.850
 3980POPC   GL211846  32.106  15.903   8.850
 3980POPC   C1A11847  32.284  15.994   8.550
 3980POPC   D2A11848  32.207  15.998   8.250
 3980POPC   C3A11849  32.242  15.919   7.950
 3980POPC   C4A11850  32.253  15.927   7.650
 3980POPC   C1B11851  32.036  15.868   8.550
 3980POPC   C2B11852  32.029  15.915   8.250
 3980POPC   C3B11853  31.970  15.841   7.950
 3980POPC   C4B11854  32.009  15.873   7.650
 3981POPC   NC311855   1.232  40.012   9.450
 3981POPC   PO411856   1.255  40.017   9.150
 3981POPC   GL111857   1.257  40.000   8.850
 3981POPC   GL211858   1.360  40.068   8.850
 3981POPC   C1A11859   1.263  40.009   8.550
 3981POPC   D2A11860   1.164  40.035   8.250
 3981POPC   C3A11861   1.227  39.962   7.950
 3981POPC   C4A11862   1.164  40.028   7.650
 3981POPC   C1B11863   1.464  40.127   8.550
 3981POPC   C2B11864   1.476  40.120   8.250
 3981POPC   C3B11865   1.462  40.031   7.950
 3981POPC   C4B11866   1.488  40.078   7.650
 3982POPC   NC311867   0.439  10.528   9.450
 3982POPC   PO411868   0.428  10.510   9.150
 3982POPC   GL111869   0.453  10.527   8.850
 3982POPC   GL211870   0.348  10.430   8.850
 3982POPC   C1A11871   0.468  10.493   8.550
 3982POPC   D2A11872   0.392  10.519   8.250
 3982POPC   C3A11873   0.474  10.502   7.950
 3982POPC   C4A11874   0.483  10.540   7.650
 3982POPC   C1B11875   0.293  10.292   8.550
 3982POPC   C2B11876   0.367  10.275   8.250
 3982POPC   C3B11877   0.292  10.300   7.950
 3982POPC   C4B11878   0.351  10.326   7.650
 3983POPC   NC311879  30.686  37.720   9.450
 3983POPC   PO411880  30.722  37.665   9.150
 3983POPC   GL111881  30.662  37.656   8.850
 3983POPC   GL211882  30.615  37.684   8.850
 3983POPC   C1A11883  30.698  37.707   8.550
 3983POPC   D2A11884  30.679  37.670   8.250
 3983POPC   C3A11885  30.700  37.670   7.950
 3983POPC   C4A11886  30.724  37.729   7.650
 3983POPC   C1B11887  30.422  37.629   8.550
 3983POPC   C2B11888  30.478  37.649   8.250
 3983POPC   C3B11889  30.410  37.630   7.950
 3983POPC   C4B11890  30.500  37.671   7.650
 3984POPC   NC311891  11.276   5.044   9.450
 3984POPC   PO411892  11.274   5.065   9.150
 3984POPC   GL111893  11.324   5.045   8.850
 3984POPC   GL211894  11.307   5.014   8.850
 3984POPC   C1A11895  11.254   5.053   8.550
 3984POPC   D2A11896  11.290   5.055   8.250
 3984POPC   C3A11897  11.287   5.064   7.950
 3984POPC   C4A11898  11.349   5.084   7.650
 3984POPC   C1B11899  11.235   4.889   8.550
 3984POPC   C2B11900  11.286   4.832   8.250
 3984POPC   C3B11901  11.314   4.844   7.950
 3984POPC   C4B11902  11.254   4.863   7.650
 3985POPC   NC311903  15.137  31.435   9.450
 3985POPC   PO411904  15.143  31.428   9.150
 3985POPC   GL111905  15.201  31.446   8.850
 3985POPC   GL211906  15.241  31.357   8.850
 3985POPC   C1A11907  15.171  31.451   8.550
 3985POPC   D2A11908  15.136  31.489   8.250
 3985POPC   C3A11909  15.214  31.425   7.950
 3985POPC   C4A11910  15.210  31.492   7.650
 3985POPC   C1B11911  15.356  31.319   8.550
 3985POPC   C2B11912  15.335  31.289   8.250
 3985POPC   C3B11913  15.408  31.369   7.950
 3985POPC   C4B11914  15.409  31.325   7.650
 3986POPC   NC311915  15.969  21.342   9.450
 3986POPC   PO411916  15.956  21.337   9.150
 3986POPC   GL111917  15.919  21.389   8.850
 3986POPC   GL211918  15.939  21.306   8.850
 3986POPC   C1A11919  15.930  21.435   8.550
 3986POPC   D2A11920  15.946  21.409   8.250
 3986POPC   C3A11921  15.983  21.374   7.950
 3986POPC   C4A11922  15.914  21.401   7.650
 3986POPC   C1B11923  15.834  21.185   8.550
 3986POPC   C2B11924  15.805  21.172   8.250
 3986POPC   C3B11925  15.870  21.128   7.950
 3986POPC   C4B11926  15.792  21.166   7.650
 3987POPC   NC311927  33.049   7.396   9.450
 3987POPC   PO411928  32.979   7.457   9.150
 3987POPC   GL111929  33.024   7.404   8.850
 3987POPC   GL211930  33.112   7.334   8.850
 3987POPC   C1A11931  33.069   7.402   8.550
 3987POPC   D2A11932  32.996   7.456   8.250
 3987POPC   C3A11933  33.017   7.405   7.950
 3987POPC   C4A11934  33.054   7.439   7.650
 3987POPC   C1B11935  33.245   7.284   8.550
 3987POPC   C2B11936  33.201   7.232   8.250
 3987POPC   C3B11937  33.175   7.234   7.950
 3987POPC   C4B11938  33.202   7.279   7.650
 3988POPC   NC311939  37.642  29.188   9.450
 3988POPC   PO411940  37.645  29.113   9.150
 3988POPC   GL111941  37.656  29.156   8.850
 3988POPC   GL211942  37.654  29.200   8.850
 3988POPC   C1A11943  37.695  29.103   8.550
 3988POPC   D2A11944  37.637  29.171   8.250
 3988POPC   C3A11945  37.651  29.160   7.950
 3988POPC   C4A11946  37.671  29.172   7.650
 3988POPC   C1B11947  37.508  29.347   8.550
 3988POPC   C2B11948  37.520  29.304   8.250
 3988POPC   C3B11949  37.554  29.321   7.950
 3988POPC   C4B11950  37.507  29.365   7.650
 3989POPC   NC311951  37.719  34.561   9.450
 3989POPC   PO411952  37.704  34.552   9.150
 3989POPC   GL111953  37.695  34.579   8.850
 3989POPC   GL211954  37.561  34.589   8.850
 3989POPC   C1A11955  37.686  34.615   8.550
 3989POPC   D2A11956  37.688  34.585   8.250
 3989POPC   C3A11957  37.636  34.547   7.950
 3989POPC   C4A11958  37.662  34.568   7.650
 3989POPC   C1B11959  37.411  34.532   8.550
 3989POPC   C2B11960  37.445  34.501   8.250
 3989POPC   C3B11961  37.461  34.513   7.950
 3989POPC   C4B11962  37.422  34.469   7.650
 3990POPC   NC311963  16.760  32.230   9.450
 3990POPC   PO411964  16.726  32.206   9.150
 3990POPC   GL111965  16.756  32.213   8.850
 3990POPC   GL211966  16.871  32.276   8.850
 3990POPC   C1A11967  16.760  32.271   8.550
 3990POPC   D2A11968  16.691  32.253   8.250
 3990POPC   C3A11969  16.736  32.257   7.950
 3990POPC   C4A11970  16.719  32.245   7.650
 3990POPC   C1B11971  16.987  32.258   8.550
 3990POPC   C2B11972  16.981  32.294   8.250
 3990POPC   C3B11973  16.967  32.294   7.950
 3990POPC   C4B11974  17.000  32.316   7.650
 3991POPC   NC311975  32.986  33.845   9.450
 3991POPC   PO411976  33.033  33.848   9.150
 3991POPC   GL111977  32.988  33.849   8.850
 3991POPC   GL211978  33.141  33.942   8.850
 3991POPC   C1A11979  33.059  33.804   8.550
 3991POPC   D2A11980  32.999  33.844   8.250
 3991POPC   C3A11981  33.067  33.806   7.950
 3991POPC   C4A11982  33.055  33.832   7.650
 3991POPC   C1B11983  33.164  33.997   8.550
 3991POPC   C2B11984  33.151  34.041   8.250
 3991POPC   C3B11985  33.215  33.972   7.950
 3991POPC   C4B11986  33.165  34.003   7.650
 3992POPC   NC311987   5.061  19.096   9.450
 3992POPC   PO411988   5.088  19.081   9.150
 3992POPC   GL111989   5.079  19.074   8.850
 3992POPC   GL211990   5.104  18.909   8.850
 3992POPC   C1A11991   5.064  19.086   8.550
 3992POPC   D2A11992   5.096  19.082   8.250
 3992POPC   C3A11993   5.047  19.058   7.950
 3992POPC   C4A11994   5.095  19.053   7.650
 3992POPC   C1B11995   5.019  18.828   8.550
 3992POPC   C2B11996   5.009  18.784   8.250
 3992POPC   C3B11997   5.012  18.808   7.950
 3992POPC   C4B11998   5.060  18.821   7.650
 3993POPC   NC311999  17.517   5.846   9.450
 3993POPC   PO412000  17.460   5.885   9.150
 3993POPC   GL112001  17.478   5.829   8.850
 3993POPC   GL212002  17.560   5.946   8.850
 3993POPC   C1A12003  17.552   5.852   8.550
 3993POPC   D2A12004  17.475   5.856   8.250
 3993POPC   C3A12005  17.522   5.856   7.950
 3993POPC   C4A12006  17.547   5.827   7.650
 3993POPC   C1B12007  17.754   6.034   8.550
 3993POPC   C2B12008  17.718   5.982   8.250
 3993POPC   C3B12009  17.758   5.986   7.950
 3993POPC   C4B12010  17.762   6.008   7.650
 3994POPC   NC312011  34.562  21.367   9.450
 3994POPC   PO412012  34.532  21.415   9.150
 3994POPC   GL112013  34.565  21.419   8.850
 3994POPC   GL212014  34.464  21.306   8.850
 3994POPC   C1A12015  34.583  21.386   8.550
 3994POPC   D2A12016  34.620  21.406   8.250
 3994POPC   C3A12017  34.541  21.431   7.950
 3994POPC   C4A12018  34.571  21.373   7.650
 3994POPC   C1B12019  34.380  21.220   8.550
 3994POPC   C2B12020  34.379  21.155   8.250
 3994POPC   C3B12021  34.382  21.164   7.950
 3994POPC   C4B12022  34.395  21.242   7.650
 3995POPC   NC312023  34.617  42.344   9.450
 3995POPC   PO412024  34.594  42.333   9.150
 3995POPC   GL112025  34.616  42.376   8.850
 3995POPC   GL212026  34.678  42.233   8.850
 3995POPC   C1A12027  34.560  42.287   8.550
 3995POPC   D2A12028  34.555  42.309   8.250
 3995POPC   C3A12029  34.539  42.336   7.950
 3995POPC   C4A12030  34.624  42.308   7.650
 3995POPC   C1B12031  34.727  42.151   8.550
 3995POPC   C2B12032  34.759  42.122   8.250
 3995POPC   C3B12033  34.699  42.113   7.950
 3995POPC   C4B12034  34.668  42.078   7.650
 3996POPC   NC312035  15.173  34.597   9.450
 3996POPC   PO412036  15.176  34.565   9.150
 3996POPC   GL112037  15.136  34.564   8.850
 3996POPC   GL212038  15.234  34.686   8.850
 3996POPC   C1A12039  15.171  34.532   8.550
 3996POPC   D2A12040  15.191  34.580   8.250
 3996POPC   C3A12041  15.152  34.619   7.950
 3996POPC   C4A12042  15.200  34.540   7.650
 3996POPC   C1B12043  15.322  34.763   8.550
 3996POPC   C2B12044  15.403  34.757   8.250
 3996POPC   C3B12045  15.349  34.749   7.950
 3996POPC   C4B12046  15.353  34.700   7.650
 3997POPC   NC312047  39.239  26.826   9.450
 3997POPC   PO412048  39.260  26.768   9.150
 3997POPC   GL112049  39.223  26.769   8.850
 3997POPC   GL212050  39.125  26.789   8.850
 3997POPC   C1A12051  39.207  26.794   8.550
 3997POPC   D2A12052  39.240  26.833   8.250
 3997POPC   C3A12053  39.263  26.800   7.950
 3997POPC   C4A12054  39.222  26.844   7.650
 3997POPC   C1B12055  38.957  26.745   8.550
 3997POPC   C2B12056  39.032  26.750   8.250
 3997POPC   C3B12057  38.933  26.779   7.950
 3997POPC   C4B12058  39.022  26.834   7.650
 3998POPC   NC312059  32.206   8.205   9.450
 3998POPC   PO412060  32.260   8.206   9.150
 3998POPC   GL112061  32.225   8.148   8.850
 3998POPC   GL212062  32.347   8.208   8.850
 3998POPC   C1A12063  32.221   8.196   8.550
 3998POPC   D2A12064  32.221   8.208   8.250
 3998POPC   C3A12065  32.259   8.242   7.950
 3998POPC   C4A12066  32.249   8.219   7.650
 3998POPC   C1B12067  32.491   8.121   8.550
 3998POPC   C2B12068  32.462   8.185   8.250
 3998POPC   C3B12069  32.484   8.175   7.950
 3998POPC   C4B12070  32.497   8.152   7.650
 3999POPC   NC312071   2.758   3.535   9.450
 3999POPC   PO412072   2.789   3.525   9.150
 3999POPC   GL112073   2.744   3.517   8.850
 3999POPC   GL212074   2.627   3.477   8.850
 3999POPC   C1A12075   2.788   3.579   8.550
 3999POPC   D2A12076   2.731   3.535   8.250
 3999POPC   C3A12077   2.757   3.527   7.950
 3999POPC   C4A12078   2.754   3.575   7.650
 3999POPC   C1B12079   2.508   3.446   8.550
 3999POPC   C2B12080   2.490   3.493   8.250
 3999POPC   C3B12081   2.500   3.453   7.950
 3999POPC   C4B12082   2.517   3.456   7.650
 4000POPC   NC312083   5.840  15.946   9.450
 4000POPC   PO412084   5.873  15.940   9.150
 4000POPC   GL112085   5.898  15.926   8.850
 4000POPC   GL212086   5.913  15.870   8.850
 4000POPC   C1A12087   5.827  15.969   8.550
 4000POPC   D2A12088   5.852  15.952   8.250
 4000POPC   C3A12089   5.891  16.004   7.950
 4000POPC   C4A12090   5.907  16.002   7.650
 4000POPC   C1B12091   6.011  15.728   8.550
 4000POPC   C2B12092   5.996  15.708   8.250
 4000POPC   C3B12093   5.984  15.701   7.950
 4000POPC   C4B12094   6.015  15.712   7.650
 4001POPC   NC312095  40.001   4.336   9.450
 4001POPC   PO412096  40.031   4.362   9.150
 4001POPC   GL112097  40.053   4.362   8.850
 4001POPC   GL212098  40.054   4.253   8.850
 4001POPC   C1A12099  40.046   4.310   8.550
 4001POPC   D2A12100  39.969   4.360   8.250
 4001POPC   C3A12101  39.961   4.269   7.950
 4001POPC   C4A12102  39.994   4.310   7.650
 4001POPC   C1B12103  40.237   4.113   8.550
 4001POPC   C2B12104  40.216   4.159   8.250
 4001POPC   C3B12105  40.152   4.106   7.950
 4001POPC   C4B12106  40.198   4.126   7.650
 4002POPC   NC312107   2.030   7.421   9.450
 4002POPC   PO412108   2.037   7.442   9.150
 4002POPC   GL112109   2.023   7.411   8.850
 4002POPC   GL212110   2.074   7.388   8.850
 4002POPC   C1A12111   1.953   7.392   8.550
 4002POPC   D2A12112   1.983   7.457   8.250
 4002POPC   C3A12113   2.033   7.448   7.950
 4002POPC   C4A12114   1.961   7.391   7.650
 4002POPC   C1B12115   2.204   7.360   8.550
 4002POPC   C2B12116   2.249   7.330   8.250
 4002POPC   C3B12117   2.187   7.279   7.950
 4002POPC   C4B12118   2.210   7.270   7.650
 4003POPC   NC312119   2.769   6.624   9.450
 4003POPC   PO412120   2.728   6.625   9.150
 4003POPC   GL112121   2.742   6.650   8.850
 4003POPC   GL212122   2.820   6.712   8.850
 4003POPC   C1A12123   2.767   6.693   8.550
 4003POPC   D2A12124   2.750   6.693   8.250
 4003POPC   C3A12125   2.738   6.619   7.950
 4003POPC   C4A12126   2.732   6.596   7.650
 4003POPC   C1B12127   2.865   6.888   8.550
 4003POPC   C2B12128   2.938   6.896   8.250
 4003POPC   C3B12129   2.870   6.809   7.950
 4003POPC   C4B12130   2.904   6.810   7.650
 4004POPC   NC312131  12.866   4.304   9.450
 4004POPC   PO412132  12.899   4.321   9.150
 4004POPC   GL112133  12.886   4.350   8.850
 4004POPC   GL212134  12.988   4.209   8.850
 4004POPC   C1A12135  12.824   4.296   8.550
 4004POPC   D2A12136  12.895   4.334   8.250
 4004POPC   C3A12137  12.810   4.279   7.950
 4004POPC   C4A12138  12.830   4.272   7.650
 4004POPC   C1B12139  13.041   4.137   8.550
 4004POPC   C2B12140  13.067   4.168   8.250
 4004POPC   C3B12141  13.099   4.208   7.950
 4004POPC   C4B12142  13.055   4.177   7.650
 4005POPC   NC312143   7.429  17.496   9.450
 4005POPC   PO412144   7.446  17.541   9.150
 4005POPC   GL112145   7.453  17.536   8.850
 4005POPC   GL212146   7.456  17.647   8.850
 4005POPC   C1A12147   7.378  17.484   8.550
 4005POPC   D2A12148   7.380  17.473   8.250
 4005POPC   C3A12149   7.430  17.523   7.950
 4005POPC   C4A12150   7.428  17.551   7.650
 4005POPC   C1B12151   7.538  17.699   8.550
 4005POPC   C2B12152   7.603  17.760   8.250
 4005POPC   C3B12153   7.511  17.694   7.950
 4005POPC   C4B12154   7.537  17.729   7.650
 4006POPC   NC312155   0.472   9.708   9.450
 4006POPC   PO412156   0.396   9.743   9.150
 4006POPC   GL112157   0.476   9.782   8.850
 4006POPC   GL212158   0.388   9.868   8.850
 4006POPC   C1A12159   0.479   9.780   8.550
 4006POPC   D2A12160   0.470   9.743   8.250
 4006POPC   C3A12161   0.398   9.772   7.950
 4006POPC   C4A12162   0.458   9.725   7.650
 4006POPC   C1B12163   0.273   9.980   8.550
 4006POPC   C2B12164   0.296   9.997   8.250
 4006POPC   C3B12165   0.249   9.965   7.950
 4006POPC   C4B12166   0.334   9.992   7.650
 4007POPC   NC312167  35.392  27.546   9.450
 4007POPC   PO412168  35.391  27.598   9.150
 4007POPC   GL112169  35.345  27.604   8.850
 4007POPC   GL212170  35.412  27.716   8.850
 4007POPC   C1A12171  35.313  27.596   8.550
 4007POPC   D2A12172  35.345  27.547   8.250
 4007POPC   C3A12173  35.352  27.555   7.950
 4007POPC   C4A12174  35.369  27.548   7.650
 4007POPC   C1B12175  35.420  27.847   8.550
 4007POPC   C2B12176  35.411  27.803   8.250
 4007POPC   C3B12177  35.419  27.804   7.950
 4007POPC   C4B12178  35.401  27.876   7.650
 4008POPC   NC312179  29.104  43.120   9.450
 4008POPC   PO412180  29.165  43.133   9.150
 4008POPC   GL112181  29.186  43.090   8.850
 4008POPC   GL212182  29.258  43.057   8.850
 4008POPC   C1A12183  29.108  43.133   8.550
 4008POPC   D2A12184  29.103  43.119   8.250
 4008POPC   C3A12185  29.102  43.132   7.950
 4008POPC   C4A12186  29.158  43.133   7.650
 4008POPC   C1B12187  29.330  43.025   8.550
 4008POPC   C2B12188  29.393  42.956   8.250
 4008POPC   C3B12189  29.340  43.035   7.950
 4008POPC   C4B12190  29.415  43.031   7.650
 4009POPC   NC312191  36.174  10.565   9.450
 4009POPC   PO412192  36.154  10.570   9.150
 4009POPC   GL112193  36.136  10.573   8.850
 4009POPC   GL212194  36.082  10.681   8.850
 4009POPC   C1A12195  36.148  10.546   8.550
 4009POPC   D2A12196  36.121  10.480   8.250
 4009POPC   C3A12197  36.165  10.510   7.950
 4009POPC   C4A12198  36.140  10.550   7.650
 4009POPC   C1B12199  36.009  10.787   8.550
 4009POPC   C2B12200  36.053  10.800   8.250
 4009POPC   C3B12201  35.985  10.741   7.950
 4009POPC   C4B12202  35.994  10.793   7.650
 4010POPC   NC312203  11.259  36.893   9.450
 4010POPC   PO412204  11.286  36.952   9.150
 4010POPC   GL112205  11.315  36.867   8.850
 4010POPC   GL212206  11.443  36.903   8.850
 4010POPC   C1A12207  11.287  36.931   8.550
 4010POPC   D2A12208  11.337  36.943   8.250
 4010POPC   C3A12209  11.266  36.939   7.950
 4010POPC   C4A12210  11.296  36.858   7.650
 4010POPC   C1B12211  11.524  36.830   8.550
 4010POPC   C2B12212  11.508  36.829   8.250
 4010POPC   C3B12213  11.561  36.798   7.950
 4010POPC   C4B12214  11.539  36.808   7.650
 4011POPC   NC312215  22.142   1.949   9.450
 4011POPC   PO412216  22.151   1.972   9.150
 4011POPC   GL112217  22.155   1.983   8.850
 4011POPC   GL212218  22.106   1.959   8.850
 4011POPC   C1A12219  22.202   1.949   8.550
 4011POPC   D2A12220  22.210   2.025   8.250
 4011POPC   C3A12221  22.118   1.994   7.950
 4011POPC   C4A12222  22.129   2.006   7.650
 4011POPC   C1B12223  21.961   1.803   8.550
 4011POPC   C2B12224  22.002   1.872   8.250
 4011POPC   C3B12225  21.952   1.882   7.950
 4011POPC   C4B12226  21.993   1.894   7.650
 4012POPC   NC312227   2.811  15.995   9.450
 4012POPC   PO412228   2.793  15.937   9.150
 4012POPC   GL112229   2.809  15.967   8.850
 4012POPC   GL212230   2.887  15.955   8.850
 4012POPC   C1A12231   2.742  15.998   8.550
 4012POPC   D2A12232   2.740  15.942   8.250
 4012POPC   C3A12233   2.746  15.996   7.950
 4012POPC   C4A12234   2.752  15.929   7.650
 4012POPC   C1B12235   3.045  16.041   8.550
 4012POPC   C2B12236   2.983  16.029   8.250
 4012POPC   C3B12237   3.000  16.059   7.950
 4012POPC   C4B12238   3.049  16.022   7.650
 4013POPC   NC312239  29.953  30.694   9.450
 4013POPC   PO412240  29.885  30.652   9.150
 4013POPC   GL112241  29.943  30.654   8.850
 4013POPC   GL212242  30.031  30.725   8.850
 4013POPC   C1A12243  29.926  30.747   8.550
 4013POPC   D2A12244  29.917  30.747   8.250
 4013POPC   C3A12245  29.952  30.720   7.950
 4013POPC   C4A12246  29.969  30.706   7.650
 4013POPC   C1B12247  30.084  30.839   8.550
 4013POPC   C2B12248  30.119  30.876   8.250
 4013POPC   C3B12249  30.088  30.900   7.950
 4013POPC   C4B12250  30.156  30.879   7.650
 4014POPC   NC312251  36.939   5.857   9.450
 4014POPC   PO412252  36.860   5.861   9.150
 4014POPC   GL112253  36.885   5.855   8.850
 4014POPC   GL212254  37.012   5.805   8.850
 4014POPC   C1A12255  36.910   5.871   8.550
 4014POPC   D2A12256  36.896   5.899   8.250
 4014POPC   C3A12257  36.907   5.890   7.950
 4014POPC   C4A12258  36.882   5.908   7.650
 4014POPC   C1B12259  37.172   5.746   8.550
 4014POPC   C2B12260  37.136   5.747   8.250
 4014POPC   C3B12261  37.125   5.722   7.950
 4014POPC   C4B12262  37.094   5.734   7.650
 4015POPC   NC312263  38.449  15.944   9.450
 4015POPC   PO412264  38.449  15.989   9.150
 4015POPC   GL112265  38.458  15.926   8.850
 4015POPC   GL212266  38.381  16.045   8.850
 4015POPC   C1A12267  38.436  16.004   8.550
 4015POPC   D2A12268  38.457  15.991   8.250
 4015POPC   C3A12269  38.447  15.992   7.950
 4015POPC   C4A12270  38.414  15.955   7.650
 4015POPC   C1B12271  38.402  16.195   8.550
 4015POPC   C2B12272  38.326  16.145   8.250
 4015POPC   C3B12273  38.400  16.235   7.950
 4015POPC   C4B12274  38.340  16.209   7.650
 4016POPC   NC312275  25.257   6.603   9.450
 4016POPC   PO412276  25.227   6.616   9.150
 4016POPC   GL112277  25.300   6.644   8.850
 4016POPC   GL212278  25.117   6.755   8.850
 4016POPC   C1A12279  25.261   6.669   8.550
 4016POPC   D2A12280  25.295   6.632   8.250
 4016POPC   C3A12281  25.276   6.659   7.950
 4016POPC   C4A12282  25.281   6.650   7.650
 4016POPC   C1B12283  25.010   6.778   8.550
 4016POPC   C2B12284  25.066   6.809   8.250
 4016POPC   C3B12285  25.025   6.761   7.950
 4016POPC   C4B12286  25.096   6.731   7.650
 4017POPC   NC312287  10.540  38.460   9.450
 4017POPC   PO412288  10.479  38.488   9.150
 4017POPC   GL112289  10.541  38.465   8.850
 4017POPC   GL212290  10.493  38.555   8.850
 4017POPC   C1A12291  10.509  38.501   8.550
 4017POPC   D2A12292  10.487  38.410   8.250
 4017POPC   C3A12293  10.496  38.449   7.950
 4017POPC   C4A12294  10.562  38.487   7.650
 4017POPC   C1B12295  10.498  38.707   8.550
 4017POPC   C2B12296  10.496  38.669   8.250
 4017POPC   C3B12297  10.468  38.718   7.950
 4017POPC   C4B12298  10.471  38.649   7.650
 4018POPC   NC312299  39.276  36.153   9.450
 4018POPC   PO412300  39.196  36.088   9.150
 4018POPC   GL112301  39.195  36.170   8.850
 4018POPC   GL212302  39.218  36.002   8.850
 4018POPC   C1A12303  39.253  36.143   8.550
 4018POPC   D2A12304  39.231  36.091   8.250
 4018POPC   C3A12305  39.264  36.134   7.950
 4018POPC   C4A12306  39.257  36.118   7.650
 4018POPC   C1B12307  39.096  35.863   8.550
 4018POPC   C2B12308  39.098  35.899   8.250
 4018POPC   C3B12309  39.181  35.904   7.950
 4018POPC   C4B12310  39.101  35.867   7.650
 4019POPC   NC312311   1.249  36.943   9.450
 4019POPC   PO412312   1.232  36.930   9.150
 4019POPC   GL112313   1.190  36.882   8.850
 4019POPC   GL212314   1.111  37.033   8.850
 4019POPC   C1A12315   1.177  36.920   8.550
 4019POPC   D2A12316   1.181  36.898   8.250
 4019POPC   C3A12317   1.195  36.905   7.950
 4019POPC   C4A12318   1.181  36.890   7.650
 4019POPC   C1B12319   1.008  37.127   8.550
 4019POPC   C2B12320   1.092  37.134   8.250
 4019POPC   C3B12321   1.059  37.120   7.950
 4019POPC   C4B12322   1.101  37.113   7.650
 4020POPC   NC312323   9.788  22.919   9.450
 4020POPC   PO412324   9.748  22.986   9.150
 4020POPC   GL112325   9.755  22.957   8.850
 4020POPC   GL212326   9.623  22.938   8.850
 4020POPC   C1A12327   9.755  22.895   8.550
 4020POPC   D2A12328   9.728  22.982   8.250
 4020POPC   C3A12329   9.747  22.909   7.950
 4020POPC   C4A12330   9.755  22.935   7.650
 4020POPC   C1B12331   9.463  23.021   8.550
 4020POPC   C2B12332   9.496  23.009   8.250
 4020POPC   C3B12333   9.550  23.047   7.950
 4020POPC   C4B12334   9.512  23.019   7.650
 4021POPC   NC312335  40.782  26.843   9.450
 4021POPC   PO412336  40.769  26.776   9.150
 4021POPC   GL112337  40.753  26.777   8.850
 4021POPC   GL212338  40.739  26.672   8.850
 4021POPC   C1A12339  40.794  26.823   8.550
 4021POPC   D2A12340  40.766  26.800   8.250
 4021POPC   C3A12341  40.776  26.775   7.950
 4021POPC   C4A12342  40.793  26.832   7.650
 4021POPC   C1B12343  40.666  26.592   8.550
 4021POPC   C2B12344  40.733  26.585   8.250
 4021POPC   C3B12345  40.701  26.555   7.950
 4021POPC   C4B12346  40.732  26.546   7.650
 4022POPC   NC312347  42.292  22.927   9.450
 4022POPC   PO412348  42.300  22.923   9.150
 4022POPC   GL112349  42.357  22.947   8.850
 4022POPC   GL212350  42.226  23.024   8.850
 4022POPC   C1A12351  42.306  22.969   8.550
 4022POPC   D2A12352  42.321  22.983   8.250
 4022POPC   C3A12353  42.310  22.931   7.950
 4022POPC   C4A12354  42.335  22.983   7.650
 4022POPC   C1B12355  42.160  23.082   8.550
 4022POPC   C2B12356  42.125  23.043   8.250
 4022POPC   C3B12357  42.132  23.057   7.950
 4022POPC   C4B12358  42.124  23.127   7.650
 4023POPC   NC312359  21.348  11.340   9.450
 4023POPC   PO412360  21.430  11.343   9.150
 4023POPC   GL112361  21.344  11.319   8.850
 4023POPC   GL212362  21.406  11.451   8.850
 4023POPC   C1A12363  21.393  11.295   8.550
 4023POPC   D2A12364  21.426  11.315   8.250
 4023POPC   C3A12365  21.421  11.345   7.950
 4023POPC   C4A12366  21.357  11.293   7.650
 4023POPC   C1B12367  21.330  11.534   8.550
 4023POPC   C2B12368  21.324  11.551   8.250
 4023POPC   C3B12369  21.371  11.578   7.950
 4023POPC   C4B12370  21.316  11.564   7.650
 4024POPC   NC312371   3.585  36.892   9.450
 4024POPC   PO412372   3.570  36.909   9.150
 4024POPC   GL112373   3.558  36.927   8.850
 4024POPC   GL212374   3.641  36.768   8.850
 4024POPC   C1A12375   3.564  36.864   8.550
 4024POPC   D2A12376   3.516  36.912   8.250
 4024POPC   C3A12377   3.496  36.902   7.950
 4024POPC   C4A12378   3.542  36.906   7.650
 4024POPC   C1B12379   3.639  36.645   8.550
 4024POPC   C2B12380   3.645  36.695   8.250
 4024POPC   C3B12381   3.636  36.687   7.950
 4024POPC   C4B12382   3.693  36.668   7.650
 4025POPC   NC312383  31.452  31.443   9.450
 4025POPC   PO412384  31.449  31.516   9.150
 4025POPC   GL112385  31.460  31.519   8.850
 4025POPC   GL212386  31.366  31.590   8.850
 4025POPC   C1A12387  31.481  31.472   8.550
 4025POPC   D2A12388  31.475  31.502   8.250
 4025POPC   C3A12389  31.425  31.478   7.950
 4025POPC   C4A12390  31.473  31.444   7.650
 4025POPC   C1B12391  31.267  31.691   8.550
 4025POPC   C2B12392  31.267  31.687   8.250
 4025POPC   C3B12393  31.330  31.611   7.950
 4025POPC   C4B12394  31.293  31.666   7.650
 4026POPC   NC312395   2.807  34.597   9.450
 4026POPC   PO412396   2.812  34.565   9.150
 4026POPC   GL112397   2.737  34.529   8.850
 4026POPC   GL212398   2.673  34.466   8.850
 4026POPC   C1A12399   2.780  34.608   8.550
 4026POPC   D2A12400   2.770  34.611   8.250
 4026POPC   C3A12401   2.776  34.548   7.950
 4026POPC   C4A12402   2.795  34.607   7.650
 4026POPC   C1B12403   2.534  34.448   8.550
 4026POPC   C2B12404   2.540  34.465   8.250
 4026POPC   C3B12405   2.545  34.454   7.950
 4026POPC   C4B12406   2.507  34.402   7.650
 4027POPC   NC312407  44.699  18.318   9.450
 4027POPC   PO412408  44.623  18.282   9.150
 4027POPC   GL112409  44.667  18.285   8.850
 4027POPC   GL212410  44.800  18.174   8.850
 4027POPC   C1A12411  44.632  18.284   8.550
 4027POPC   D2A12412  44.699  18.279   8.250
 4027POPC   C3A12413  44.621  18.298   7.950
 4027POPC   C4A12414  44.681  18.312   7.650
 4027POPC   C1B12415  44.841  18.089   8.550
 4027POPC   C2B12416  44.808  18.134   8.250
 4027POPC   C3B12417  44.875  18.158   7.950
 4027POPC   C4B12418  44.804  18.112   7.650
 4028POPC   NC312419  19.056  18.241   9.450
 4028POPC   PO412420  19.090  18.289   9.150
 4028POPC   GL112421  19.020  18.258   8.850
 4028POPC   GL212422  19.001  18.422   8.850
 4028POPC   C1A12423  19.081  18.307   8.550
 4028POPC   D2A12424  19.024  18.301   8.250
 4028POPC   C3A12425  19.043  18.306   7.950
 4028POPC   C4A12426  19.093  18.255   7.650
 4028POPC   C1B12427  18.883  18.480   8.550
 4028POPC   C2B12428  18.922  18.431   8.250
 4028POPC   C3B12429  18.918  18.474   7.950
 4028POPC   C4B12430  18.945  18.436   7.650
 4029POPC   NC312431  18.326  18.242   9.450
 4029POPC   PO412432  18.271  18.263   9.150
 4029POPC   GL112433  18.283  18.299   8.850
 4029POPC   GL212434  18.170  18.225   8.850
 4029POPC   C1A12435  18.266  18.279   8.550
 4029POPC   D2A12436  18.261  18.298   8.250
 4029POPC   C3A12437  18.257  18.252   7.950
 4029POPC   C4A12438  18.282  18.234   7.650
 4029POPC   C1B12439  18.141  18.125   8.550
 4029POPC   C2B12440  18.138  18.082   8.250
 4029POPC   C3B12441  18.156  18.092   7.950
 4029POPC   C4B12442  18.150  18.094   7.650
 4030POPC   NC312443  40.793  26.000   9.450
 4030POPC   PO412444  40.773  26.020   9.150
 4030POPC   GL112445  40.767  26.060   8.850
 4030POPC   GL212446  40.728  25.982   8.850
 4030POPC   C1A12447  40.812  26.080   8.550
 4030POPC   D2A12448  40.812  26.037   8.250
 4030POPC   C3A12449  40.816  25.998   7.950
 4030POPC   C4A12450  40.815  26.014   7.650
 4030POPC   C1B12451  40.573  25.912   8.550
 4030POPC   C2B12452  40.586  25.896   8.250
 4030POPC   C3B12453  40.592  25.866   7.950
 4030POPC   C4B12454  40.593  25.864   7.650
 4031POPC   NC312455  18.313  41.599   9.450
 4031POPC   PO412456  18.251  41.514   9.150
 4031POPC   GL112457  18.306  41.558   8.850
 4031POPC   GL212458  18.355  41.668   8.850
 4031POPC   C1A12459  18.319  41.542   8.550
 4031POPC   D2A12460  18.269  41.510   8.250
 4031POPC   C3A12461  18.320  41.604   7.950
 4031POPC   C4A12462  18.297  41.589   7.650
 4031POPC   C1B12463  18.447  41.774   8.550
 4031POPC   C2B12464  18.391  41.775   8.250
 4031POPC   C3B12465  18.371  41.778   7.950
 4031POPC   C4B12466  18.429  41.736   7.650
 4032POPC   NC312467   1.941  28.346   9.450
 4032POPC   PO412468   1.954  28.388   9.150
 4032POPC   GL112469   1.969  28.341   8.850
 4032POPC   GL212470   1.984  28.226   8.850
 4032POPC   C1A12471   1.976  28.322   8.550
 4032POPC   D2A12472   2.035  28.329   8.250
 4032POPC   C3A12473   1.948  28.346   7.950
 4032POPC   C4A12474   1.950  28.332   7.650
 4032POPC   C1B12475   2.064  28.158   8.550
 4032POPC   C2B12476   2.041  28.086   8.250
 4032POPC   C3B12477   2.013  28.092   7.950
 4032POPC   C4B12478   2.012  28.140   7.650
 4033POPC   NC312479  19.843  31.479   9.450
 4033POPC   PO412480  19.802  31.449   9.150
 4033POPC   GL112481  19.879  31.505   8.850
 4033POPC   GL212482  19.822  31.309   8.850
 4033POPC   C1A12483  19.839  31.480   8.550
 4033POPC   D2A12484  19.865  31.483   8.250
 4033POPC   C3A12485  19.826  31.436   7.950
 4033POPC   C4A12486  19.848  31.443   7.650
 4033POPC   C1B12487  19.765  31.202   8.550
 4033POPC   C2B12488  19.828  31.251   8.250
 4033POPC   C3B12489  19.770  31.266   7.950
 4033POPC   C4B12490  19.816  31.204   7.650
 4034POPC   NC312491  20.653  30.649   9.450
 4034POPC   PO412492  20.627  30.684   9.150
 4034POPC   GL112493  20.629  30.663   8.850
 4034POPC   GL212494  20.685  30.729   8.850
 4034POPC   C1A12495  20.588  30.725   8.550
 4034POPC   D2A12496  20.633  30.695   8.250
 4034POPC   C3A12497  20.635  30.722   7.950
 4034POPC   C4A12498  20.610  30.701   7.650
 4034POPC   C1B12499  20.866  30.717   8.550
 4034POPC   C2B12500  20.844  30.777   8.250
 4034POPC   C3B12501  20.894  30.772   7.950
 4034POPC   C4B12502  20.817  30.777   7.650
 4035POPC   NC312503  17.499   6.629   9.450
 4035POPC   PO412504  17.514   6.653   9.150
 4035POPC   GL112505  17.523   6.676   8.850
 4035POPC   GL212506  17.547   6.562   8.850
 4035POPC   C1A12507  17.506   6.694   8.550
 4035POPC   D2A12508  17.491   6.640   8.250
 4035POPC   C3A12509  17.516   6.622   7.950
 4035POPC   C4A12510  17.472   6.600   7.650
 4035POPC   C1B12511  17.559   6.376   8.550
 4035POPC   C2B12512  17.570   6.452   8.250
 4035POPC   C3B12513  17.629   6.441   7.950
 4035POPC   C4B12514  17.609   6.415   7.650
 4036POPC   NC312515  27.624  26.779   9.450
 4036POPC   PO412516  27.573  26.783   9.150
 4036POPC   GL112517  27.642  26.784   8.850
 4036POPC   GL212518  27.642  26.953   8.850
 4036POPC   C1A12519  27.561  26.791   8.550
 4036POPC   D2A12520  27.616  26.864   8.250
 4036POPC   C3A12521  27.578  26.855   7.950
 4036POPC   C4A12522  27.550  26.831   7.650
 4036POPC   C1B12523  27.720  26.989   8.550
 4036POPC   C2B12524  27.690  27.036   8.250
 4036POPC   C3B12525  27.680  27.056   7.950
 4036POPC   C4B12526  27.705  27.055   7.650
 4037POPC   NC312527   5.097  43.159   9.450
 4037POPC   PO412528   5.141  43.083   9.150
 4037POPC   GL112529   5.081  43.127   8.850
 4037POPC   GL212530   5.201  43.098   8.850
 4037POPC   C1A12531   5.059  43.094   8.550
 4037POPC   D2A12532   5.060  43.086   8.250
 4037POPC   C3A12533   5.070  43.098   7.950
 4037POPC   C4A12534   5.113  43.101   7.650
 4037POPC   C1B12535   5.349  42.968   8.550
 4037POPC   C2B12536   5.351  42.952   8.250
 4037POPC   C3B12537   5.336  43.022   7.950
 4037POPC   C4B12538   5.311  43.030   7.650
 4038POPC   NC312539   2.021  11.333   9.450
 4038POPC   PO412540   1.943  11.338   9.150
 4038POPC   GL112541   1.951  11.314   8.850
 4038POPC   GL212542   1.866  11.323   8.850
 4038POPC   C1A12543   2.006  11.338   8.550
 4038POPC   D2A12544   1.989  11.292   8.250
 4038POPC   C3A12545   2.019  11.337   7.950
 4038POPC   C4A12546   1.986  11.304   7.650
 4038POPC   C1B12547   1.715  11.243   8.550
 4038POPC   C2B12548   1.694  11.284   8.250
 4038POPC   C3B12549   1.713  11.270   7.950
 4038POPC   C4B12550   1.708  11.310   7.650
 4039POPC   NC312551  32.296   7.420   9.450
 4039POPC   PO412552  32.268   7.438   9.150
 4039POPC   GL112553  32.227   7.408   8.850
 4039POPC   GL212554  32.136   7.455   8.850
 4039POPC   C1A12555  32.216   7.417   8.550
 4039POPC   D2A12556  32.237   7.375   8.250
 4039POPC   C3A12557  32.214   7.414   7.950
 4039POPC   C4A12558  32.222   7.448   7.650
 4039POPC   C1B12559  32.036   7.558   8.550
 4039POPC   C2B12560  32.053   7.627   8.250
 4039POPC   C3B12561  32.038   7.586   7.950
 4039POPC   C4B12562  32.048   7.598   7.650
 4040POPC   NC312563  23.756   8.239   9.450
 4040POPC   PO412564  23.717   8.237   9.150
 4040POPC   GL112565  23.728   8.195   8.850
 4040POPC   GL212566  23.603   8.263   8.850
 4040POPC   C1A12567  23.723   8.212   8.550
 4040POPC   D2A12568  23.724   8.196   8.250
 4040POPC   C3A12569  23.732   8.172   7.950
 4040POPC   C4A12570  23.667   8.236   7.650
 4040POPC   C1B12571  23.515   8.349   8.550
 4040POPC   C2B12572  23.519   8.429   8.250
 4040POPC   C3B12573  23.547   8.401   7.950
 4040POPC   C4B12574  23.559   8.366   7.650
 4041POPC   NC312575   8.989  22.962   9.450
 4041POPC   PO412576   9.012  22.980   9.150
 4041POPC   GL112577   8.998  22.953   8.850
 4041POPC   GL212578   8.933  23.088   8.850
 4041POPC   C1A12579   8.951  22.934   8.550
 4041POPC   D2A12580   8.953  22.988   8.250
 4041POPC   C3A12581   9.011  22.903   7.950
 4041POPC   C4A12582   8.982  22.973   7.650
 4041POPC   C1B12583   8.904  23.158   8.550
 4041POPC   C2B12584   8.912  23.137   8.250
 4041POPC   C3B12585   8.830  23.163   7.950
 4041POPC   C4B12586   8.848  23.200   7.650
 4042POPC   NC312587  12.084   3.506   9.450
 4042POPC   PO412588  12.101   3.498   9.150
 4042POPC   GL112589  12.083   3.547   8.850
 4042POPC   GL212590  12.155   3.463   8.850
 4042POPC   C1A12591  12.038   3.587   8.550
 4042POPC   D2A12592  12.068   3.564   8.250
 4042POPC   C3A12593  12.043   3.545   7.950
 4042POPC   C4A12594  12.113   3.582   7.650
 4042POPC   C1B12595  12.278   3.436   8.550
 4042POPC   C2B12596  12.291   3.453   8.250
 4042POPC   C3B12597  12.258   3.370   7.950
 4042POPC   C4B12598  12.280   3.379   7.650
 4043POPC   NC312599   2.739  31.424   9.450
 4043POPC   PO412600   2.760  31.510   9.150
 4043POPC   GL112601   2.764  31.478   8.850
 4043POPC   GL212602   2.816  31.555   8.850
 4043POPC   C1A12603   2.795  31.476   8.550
 4043POPC   D2A12604   2.770  31.437   8.250
 4043POPC   C3A12605   2.748  31.439   7.950
 4043POPC   C4A12606   2.800  31.435   7.650
 4043POPC   C1B12607   2.881  31.664   8.550
 4043POPC   C2B12608   2.901  31.737   8.250
 4043POPC   C3B12609   2.853  31.672   7.950
 4043POPC   C4B12610   2.888  31.680   7.650
 4044POPC   NC312611  21.366  20.622   9.450
 4044POPC   PO412612  21.420  20.601   9.150
 4044POPC   GL112613  21.378  20.592   8.850
 4044POPC   GL212614  21.316  20.736   8.850
 4044POPC   C1A12615  21.350  20.630   8.550
 4044POPC   D2A12616  21.369  20.591   8.250
 4044POPC   C3A12617  21.400  20.648   7.950
 4044POPC   C4A12618  21.388  20.653   7.650
 4044POPC   C1B12619  21.147  20.723   8.550
 4044POPC   C2B12620  21.237  20.779   8.250
 4044POPC   C3B12621  21.150  20.721   7.950
 4044POPC   C4B12622  21.238  20.729   7.650
 4045POPC   NC312623  12.082  19.787   9.450
 4045POPC   PO412624  12.097  19.801   9.150
 4045POPC   GL112625  12.083  19.808   8.850
 4045POPC   GL212626  12.197  19.796   8.850
 4045POPC   C1A12627  12.117  19.834   8.550
 4045POPC   D2A12628  12.124  19.813   8.250
 4045POPC   C3A12629  12.095  19.788   7.950
 4045POPC   C4A12630  12.076  19.872   7.650
 4045POPC   C1B12631  12.331  19.876   8.550
 4045POPC   C2B12632  12.371  19.873   8.250
 4045POPC   C3B12633  12.345  19.864   7.950
 4045POPC   C4B12634  12.359  19.822   7.650
 4046POPC   NC312635  38.424  23.736   9.450
 4046POPC   PO412636  38.465  23.687   9.150
 4046POPC   GL112637  38.437  23.719   8.850
 4046POPC   GL212638  38.356  23.604   8.850
 4046POPC   C1A12639  38.427  23.674   8.550
 4046POPC   D2A12640  38.499  23.671   8.250
 4046POPC   C3A12641  38.425  23.679   7.950
 4046POPC   C4A12642  38.410  23.763   7.650
 4046POPC   C1B12643  38.284  23.611   8.550
 4046POPC   C2B12644  38.287  23.542   8.250
 4046POPC   C3B12645  38.286  23.566   7.950
 4046POPC   C4B12646  38.279  23.571   7.650
 4047POPC   NC312647  42.315  26.064   9.450
 4047POPC   PO412648  42.338  26.070   9.150
 4047POPC   GL112649  42.371  26.061   8.850
 4047POPC   GL212650  42.163  26.042   8.850
 4047POPC   C1A12651  42.334  26.061   8.550
 4047POPC   D2A12652  42.306  26.046   8.250
 4047POPC   C3A12653  42.368  26.007   7.950
 4047POPC   C4A12654  42.295  25.996   7.650
 4047POPC   C1B12655  42.101  26.061   8.550
 4047POPC   C2B12656  42.085  26.020   8.250
 4047POPC   C3B12657  42.051  26.090   7.950
 4047POPC   C4B12658  42.097  26.034   7.650
 4048POPC   NC312659  22.977   5.917   9.450
 4048POPC   PO412660  22.937   5.895   9.150
 4048POPC   GL112661  22.981   5.859   8.850
 4048POPC   GL212662  22.861   5.889   8.850
 4048POPC   C1A12663  22.981   5.826   8.550
 4048POPC   D2A12664  22.953   5.878   8.250
 4048POPC   C3A12665  22.918   5.854   7.950
 4048POPC   C4A12666  22.962   5.883   7.650
 4048POPC   C1B12667  22.686   5.981   8.550
 4048POPC   C2B12668  22.671   5.967   8.250
 4048POPC   C3B12669  22.726   5.983   7.950
 4048POPC   C4B12670  22.733   5.946   7.650
 4049POPC   NC312671   1.190  13.607   9.450
 4049POPC   PO412672   1.175  13.676   9.150
 4049POPC   GL112673   1.208  13.663   8.850
 4049POPC   GL212674   1.279  13.773   8.850
 4049POPC   C1A12675   1.243  13.636   8.550
 4049POPC   D2A12676   1.260  13.659   8.250
 4049POPC   C3A12677   1.175  13.643   7.950
 4049POPC   C4A12678   1.226  13.659   7.650
 4049POPC   C1B12679   1.253  13.895   8.550
 4049POPC   C2B12680   1.240  13.912   8.250
 4049POPC   C3B12681   1.297  13.831   7.950
 4049POPC   C4B12682   1.283  13.914   7.650
 4050POPC   NC312683   4.314   0.392   9.450
 4050POPC   PO412684   4.316   0.419   9.150
 4050POPC   GL112685   4.276   0.389   8.850
 4050POPC   GL212686   4.222   0.488   8.850
 4050POPC   C1A12687   4.311   0.390   8.550
 4050POPC   D2A12688   4.348   0.460   8.250
 4050POPC   C3A12689   4.353   0.455   7.950
 4050POPC   C4A12690   4.310   0.471   7.650
 4050POPC   C1B12691   4.113   0.609   8.550
 4050POPC   C2B12692   4.115   0.667   8.250
 4050POPC   C3B12693   4.180   0.644   7.950
 4050POPC   C4B12694   4.133   0.645   7.650
 4051POPC   NC312695  40.048  11.295   9.450
 4051POPC   PO412696  40.055  11.260   9.150
 4051POPC   GL112697  40.050  11.334   8.850
 4051POPC   GL212698  40.019  11.431   8.850
 4051POPC   C1A12699  40.051  11.319   8.550
 4051POPC   D2A12700  39.987  11.280   8.250
 4051POPC   C3A12701  39.981  11.280   7.950
 4051POPC   C4A12702  40.036  11.257   7.650
 4051POPC   C1B12703  40.012  11.508   8.550
 4051POPC   C2B12704  40.069  11.586   8.250
 4051POPC   C3B12705  40.031  11.565   7.950
 4051POPC   C4B12706  40.041  11.587   7.650
 4052POPC   NC312707  19.073  33.803   9.450
 4052POPC   PO412708  19.056  33.771   9.150
 4052POPC   GL112709  19.066  33.845   8.850
 4052POPC   GL212710  18.966  33.699   8.850
 4052POPC   C1A12711  19.034  33.811   8.550
 4052POPC   D2A12712  19.046  33.770   8.250
 4052POPC   C3A12713  19.108  33.832   7.950
 4052POPC   C4A12714  19.048  33.846   7.650
 4052POPC   C1B12715  18.862  33.715   8.550
 4052POPC   C2B12716  18.836  33.714   8.250
 4052POPC   C3B12717  18.791  33.724   7.950
 4052POPC   C4B12718  18.867  33.695   7.650
 4053POPC   NC312719   8.179   9.729   9.450
 4053POPC   PO412720   8.210   9.757   9.150
 4053POPC   GL112721   8.208   9.725   8.850
 4053POPC   GL212722   8.204   9.912   8.850
 4053POPC   C1A12723   8.196   9.791   8.550
 4053POPC   D2A12724   8.219   9.708   8.250
 4053POPC   C3A12725   8.151   9.773   7.950
 4053POPC   C4A12726   8.198   9.705   7.650
 4053POPC   C1B12727   8.314   9.932   8.550
 4053POPC   C2B12728   8.299   9.965   8.250
 4053POPC   C3B12729   8.296   9.999   7.950
 4053POPC   C4B12730   8.285   9.976   7.650
 4054POPC   NC312731  19.071  22.940   9.450
 4054POPC   PO412732  19.100  22.988   9.150
 4054POPC   GL112733  19.093  22.912   8.850
 4054POPC   GL212734  18.936  22.855   8.850
 4054POPC   C1A12735  19.056  22.987   8.550
 4054POPC   D2A12736  19.014  22.896   8.250
 4054POPC   C3A12737  19.033  22.916   7.950
 4054POPC   C4A12738  19.082  22.937   7.650
 4054POPC   C1B12739  18.921  22.755   8.550
 4054POPC   C2B12740  18.914  22.759   8.250
 4054POPC   C3B12741  18.922  22.766   7.950
 4054POPC   C4B12742  18.894  22.755   7.650
 4055POPC   NC312743  30.692  38.472   9.450
 4055POPC   PO412744  30.704  38.407   9.150
 4055POPC   GL112745  30.667  38.429   8.850
 4055POPC   GL212746  30.676  38.320   8.850
 4055POPC   C1A12747  30.719  38.432   8.550
 4055POPC   D2A12748  30.692  38.424   8.250
 4055POPC   C3A12749  30.731  38.412   7.950
 4055POPC   C4A12750  30.658  38.467   7.650
 4055POPC   C1B12751  30.561  38.234   8.550
 4055POPC   C2B12752  30.585  38.237   8.250
 4055POPC   C3B12753  30.601  38.189   7.950
 4055POPC   C4B12754  30.547  38.201   7.650
 4056POPC   NC312755   5.821  15.202   9.450
 4056POPC   PO412756   5.822  15.132   9.150
 4056POPC   GL112757   5.869  15.214   8.850
 4056POPC   GL212758   5.742  15.215   8.850
 4056POPC   C1A12759   5.873  15.178   8.550
 4056POPC   D2A12760   5.912  15.209   8.250
 4056POPC   C3A12761   5.836  15.135   7.950
 4056POPC   C4A12762   5.906  15.227   7.650
 4056POPC   C1B12763   5.657  15.205   8.550
 4056POPC   C2B12764   5.606  15.170   8.250
 4056POPC   C3B12765   5.630  15.136   7.950
 4056POPC   C4B12766   5.654  15.189   7.650
 4057POPC   NC312767  36.133  43.083   9.450
 4057POPC   PO412768  36.116  43.149   9.150
 4057POPC   GL112769  36.146  43.143   8.850
 4057POPC   GL212770  36.101  42.944   8.850
 4057POPC   C1A12771  36.164  43.065   8.550
 4057POPC   D2A12772  36.157  43.149   8.250
 4057POPC   C3A12773  36.144  43.082   7.950
 4057POPC   C4A12774  36.146  43.137   7.650
 4057POPC   C1B12775  36.094  42.857   8.550
 4057POPC   C2B12776  36.106  42.855   8.250
 4057POPC   C3B12777  36.118  42.818   7.950
 4057POPC   C4B12778  36.139  42.885   7.650
 4058POPC   NC312779  35.355  18.324   9.450
 4058POPC   PO412780  35.345  18.311   9.150
 4058POPC   GL112781  35.401  18.265   8.850
 4058POPC   GL212782  35.412  18.218   8.850
 4058POPC   C1A12783  35.361  18.271   8.550
 4058POPC   D2A12784  35.330  18.274   8.250
 4058POPC   C3A12785  35.401  18.324   7.950
 4058POPC   C4A12786  35.390  18.284   7.650
 4058POPC   C1B12787  35.512  18.110   8.550
 4058POPC   C2B12788  35.473  18.037   8.250
 4058POPC   C3B12789  35.513  18.081   7.950
 4058POPC   C4B12790  35.539  18.083   7.650
 4059POPC   NC312791   5.884  21.408   9.450
 4059POPC   PO412792   5.822  21.350   9.150
 4059POPC   GL112793   5.849  21.371   8.850
 4059POPC   GL212794   5.814  21.455   8.850
 4059POPC   C1A12795   5.850  21.399   8.550
 4059POPC   D2A12796   5.883  21.387   8.250
 4059POPC   C3A12797   5.886  21.355   7.950
 4059POPC   C4A12798   5.825  21.384   7.650
 4059POPC   C1B12799   5.708  21.593   8.550
 4059POPC   C2B12800   5.724  21.565   8.250
 4059POPC   C3B12801   5.786  21.552   7.950
 4059POPC   C4B12802   5.770  21.572   7.650
 4060POPC   NC312803  19.859  25.252   9.450
 4060POPC   PO412804  19.809  25.264   9.150
 4060POPC   GL112805  19.808  25.230   8.850
 4060POPC   GL212806  19.849  25.174   8.850
 4060POPC   C1A12807  19.796  25.292   8.550
 4060POPC   D2A12808  19.822  25.255   8.250
 4060POPC   C3A12809  19.851  25.301   7.950
 4060POPC   C4A12810  19.821  25.294   7.650
 4060POPC   C1B12811  19.949  25.008   8.550
 4060POPC   C2B12812  19.986  25.071   8.250
 4060POPC   C3B12813  19.903  25.091   7.950
 4060POPC   C4B12814  19.955  25.017   7.650
 4061POPC   NC312815  18.312  12.844   9.450
 4061POPC   PO412816  18.277  12.852   9.150
 4061POPC   GL112817  18.254  12.832   8.850
 4061POPC   GL212818  18.240  12.926   8.850
 4061POPC   C1A12819  18.304  12.842   8.550
 4061POPC   D2A12820  18.234  12.826   8.250
 4061POPC   C3A12821  18.329  12.838   7.950
 4061POPC   C4A12822  18.293  12.846   7.650
 4061POPC   C1B12823  18.123  13.071   8.550
 4061POPC   C2B12824  18.148  13.028   8.250
 4061POPC   C3B12825  18.140  13.053   7.950
 4061POPC   C4B12826  18.163  13.058   7.650
 4062POPC   NC312827  36.112   9.703   9.450
 4062POPC   PO412828  36.087   9.722   9.150
 4062POPC   GL112829  36.084   9.772   8.850
 4062POPC   GL212830  36.244   9.793   8.850
 4062POPC   C1A12831  36.138   9.751   8.550
 4062POPC   D2A12832  36.134   9.785   8.250
 4062POPC   C3A12833  36.102   9.718   7.950
 4062POPC   C4A12834  36.078   9.791   7.650
 4062POPC   C1B12835  36.359   9.824   8.550
 4062POPC   C2B12836  36.369   9.809   8.250
 4062POPC   C3B12837  36.341   9.792   7.950
 4062POPC   C4B12838  36.353   9.836   7.650
 4063POPC   NC312839  29.876   6.636   9.450
 4063POPC   PO412840  29.878   6.640   9.150
 4063POPC   GL112841  29.912   6.597   8.850
 4063POPC   GL212842  30.007   6.558   8.850
 4063POPC   C1A12843  29.934   6.649   8.550
 4063POPC   D2A12844  29.893   6.604   8.250
 4063POPC   C3A12845  29.878   6.596   7.950
 4063POPC   C4A12846  29.882   6.632   7.650
 4063POPC   C1B12847  30.088   6.449   8.550
 4063POPC   C2B12848  30.066   6.452   8.250
 4063POPC   C3B12849  30.108   6.436   7.950
 4063POPC   C4B12850  30.064   6.433   7.650
 4064POPC   NC312851  10.540  15.928   9.450
 4064POPC   PO412852  10.565  15.953   9.150
 4064POPC   GL112853  10.526  16.001   8.850
 4064POPC   GL212854  10.568  16.023   8.850
 4064POPC   C1A12855  10.548  15.916   8.550
 4064POPC   D2A12856  10.568  15.927   8.250
 4064POPC   C3A12857  10.559  15.918   7.950
 4064POPC   C4A12858  10.477  15.990   7.650
 4064POPC   C1B12859  10.615  16.155   8.550
 4064POPC   C2B12860  10.701  16.176   8.250
 4064POPC   C3B12861  10.678  16.134   7.950
 4064POPC   C4B12862  10.658  16.209   7.650
 4065POPC   NC312863  42.337  26.783   9.450
 4065POPC   PO412864  42.317  26.827   9.150
 4065POPC   GL112865  42.324  26.860   8.850
 4065POPC   GL212866  42.218  26.819   8.850
 4065POPC   C1A12867  42.383  26.818   8.550
 4065POPC   D2A12868  42.309  26.836   8.250
 4065POPC   C3A12869  42.336  26.827   7.950
 4065POPC   C4A12870  42.302  26.853   7.650
 4065POPC   C1B12871  42.100  26.870   8.550
 4065POPC   C2B12872  42.086  26.879   8.250
 4065POPC   C3B12873  42.132  26.874   7.950
 4065POPC   C4B12874  42.122  26.879   7.650
 4066POPC   NC312875  29.184  25.992   9.450
 4066POPC   PO412876  29.160  26.059   9.150
 4066POPC   GL112877  29.098  26.020   8.850
 4066POPC   GL212878  29.202  25.997   8.850
 4066POPC   C1A12879  29.173  26.011   8.550
 4066POPC   D2A12880  29.176  26.035   8.250
 4066POPC   C3A12881  29.145  26.033   7.950
 4066POPC   C4A12882  29.110  25.996   7.650
 4066POPC   C1B12883  29.324  25.885   8.550
 4066POPC   C2B12884  29.369  25.918   8.250
 4066POPC   C3B12885  29.352  25.880   7.950
 4066POPC   C4B12886  29.294  25.853   7.650
 4067POPC   NC312887  38.414   1.220   9.450
 4067POPC   PO412888  38.422   1.225   9.150
 4067POPC   GL112889  38.465   1.197   8.850
 4067POPC   GL212890  38.524   1.155   8.850
 4067POPC   C1A12891  38.481   1.166   8.550
 4067POPC   D2A12892  38.435   1.175   8.250
 4067POPC   C3A12893  38.485   1.236   7.950
 4067POPC   C4A12894  38.470   1.231   7.650
 4067POPC   C1B12895  38.671   1.061   8.550
 4067POPC   C2B12896  38.691   1.120   8.250
 4067POPC   C3B12897  38.710   1.052   7.950
 4067POPC   C4B12898  38.643   1.115   7.650
 4068POPC   NC312899  25.298  43.077   9.450
 4068POPC   PO412900  25.228  43.076   9.150
 4068POPC   GL112901  25.268  43.160   8.850
 4068POPC   GL212902  25.184  43.070   8.850
 4068POPC   C1A12903  25.296  43.076   8.550
 4068POPC   D2A12904  25.270  43.144   8.250
 4068POPC   C3A12905  25.241  43.100   7.950
 4068POPC   C4A12906  25.232  43.156   7.650
 4068POPC   C1B12907  24.999  43.005   8.550
 4068POPC   C2B12908  25.053  43.036   8.250
 4068POPC   C3B12909  24.994  43.033   7.950
 4068POPC   C4B12910  25.061  43.079   7.650
 4069POPC   NC312911  34.535   9.728   9.450
 4069POPC   PO412912  34.587   9.795   9.150
 4069POPC   GL112913  34.594   9.723   8.850
 4069POPC   GL212914  34.487   9.591   8.850
 4069POPC   C1A12915  34.593   9.708   8.550
 4069POPC   D2A12916  34.548   9.750   8.250
 4069POPC   C3A12917  34.621   9.775   7.950
 4069POPC   C4A12918  34.572   9.713   7.650
 4069POPC   C1B12919  34.466   9.541   8.550
 4069POPC   C2B12920  34.468   9.509   8.250
 4069POPC   C3B12921  34.441   9.544   7.950
 4069POPC   C4B12922  34.452   9.552   7.650
 4070POPC   NC312923   5.061  29.161   9.450
 4070POPC   PO412924   5.089  29.170   9.150
 4070POPC   GL112925   5.126  29.137   8.850
 4070POPC   GL212926   5.081  29.017   8.850
 4070POPC   C1A12927   5.052  29.131   8.550
 4070POPC   D2A12928   5.110  29.138   8.250
 4070POPC   C3A12929   5.141  29.181   7.950
 4070POPC   C4A12930   5.069  29.111   7.650
 4070POPC   C1B12931   4.928  28.897   8.550
 4070POPC   C2B12932   4.922  28.937   8.250
 4070POPC   C3B12933   4.975  28.904   7.950
 4070POPC   C4B12934   4.994  28.946   7.650
 4071POPC   NC312935   5.874   0.403   9.450
 4071POPC   PO412936   5.871   0.479   9.150
 4071POPC   GL112937   5.891   0.485   8.850
 4071POPC   GL212938   5.877   0.286   8.850
 4071POPC   C1A12939   5.882   0.449   8.550
 4071POPC   D2A12940   5.918   0.429   8.250
 4071POPC   C3A12941   5.824   0.436   7.950
 4071POPC   C4A12942   5.868   0.462   7.650
 4071POPC   C1B12943   5.768   0.244   8.550
 4071POPC   C2B12944   5.779   0.241   8.250
 4071POPC   C3B12945   5.768   0.219   7.950
 4071POPC   C4B12946   5.783   0.201   7.650
 4072POPC   NC312947  43.110  32.223   9.450
 4072POPC   PO412948  43.070  32.274   9.150
 4072POPC   GL112949  43.100  32.278   8.850
 4072POPC   GL212950  42.986  32.271   8.850
 4072POPC   C1A12951  43.112  32.259   8.550
 4072POPC   D2A12952  43.143  32.204   8.250
 4072POPC   C3A12953  43.152  32.275   7.950
 4072POPC   C4A12954  43.128  32.267   7.650
 4072POPC   C1B12955  42.874  32.317   8.550
 4072POPC   C2B12956  42.824  32.290   8.250
 4072POPC   C3B12957  42.909  32.336   7.950
 4072POPC   C4B12958  42.827  32.293   7.650
 4073POPC   NC312959  31.490   0.486   9.450
 4073POPC   PO412960  31.439   0.471   9.150
 4073POPC   GL112961  31.510   0.485   8.850
 4073POPC   GL212962  31.515   0.527   8.850
 4073POPC   C1A12963  31.453   0.477   8.550
 4073POPC   D2A12964  31.442   0.409   8.250
 4073POPC   C3A12965  31.500   0.401   7.950
 4073POPC   C4A12966  31.508   0.417   7.650
 4073POPC   C1B12967  31.619   0.580   8.550
 4073POPC   C2B12968  31.667   0.620   8.250
 4073POPC   C3B12969  31.677   0.587   7.950
 4073POPC   C4B12970  31.692   0.618   7.650
 4074POPC   NC312971   1.986  20.634   9.450
 4074POPC   PO412972   1.957  20.653   9.150
 4074POPC   GL112973   2.034  20.574   8.850
 4074POPC   GL212974   1.880  20.736   8.850
 4074POPC   C1A12975   1.991  20.633   8.550
 4074POPC   D2A12976   1.967  20.568   8.250
 4074POPC   C3A12977   2.033  20.642   7.950
 4074POPC   C4A12978   1.951  20.621   7.650
 4074POPC   C1B12979   1.894  20.828   8.550
 4074POPC   C2B12980   1.802  20.782   8.250
 4074POPC   C3B12981   1.895  20.864   7.950
 4074POPC   C4B12982   1.877  20.834   7.650
 4075POPC   NC312983  20.602  10.526   9.450
 4075POPC   PO412984  20.660  10.536   9.150
 4075POPC   GL112985  20.645  10.568   8.850
 4075POPC   GL212986  20.687  10.433   8.850
 4075POPC   C1A12987  20.587  10.526   8.550
 4075POPC   D2A12988  20.564  10.567   8.250
 4075POPC   C3A12989  20.590  10.562   7.950
 4075POPC   C4A12990  20.580  10.533   7.650
 4075POPC   C1B12991  20.868  10.419   8.550
 4075POPC   C2B12992  20.879  10.420   8.250
 4075POPC   C3B12993  20.841  10.416   7.950
 4075POPC   C4B12994  20.886  10.434   7.650
 4076POPC   NC312995  11.281  29.134   9.450
 4076POPC   PO412996  11.301  29.154   9.150
 4076POPC   GL112997  11.273  29.192   8.850
 4076POPC   GL212998  11.274  29.242   8.850
 4076POPC   C1A12999  11.322  29.139   8.550
 4076POPC   D2A13000  11.315  29.166   8.250
 4076POPC   C3A13001  11.307  29.109   7.950
 4076POPC   C4A13002  11.276  29.170   7.650
 4076POPC   C1B13003  11.225  29.357   8.550
 4076POPC   C2B13004  11.210  29.356   8.250
 4076POPC   C3B13005  11.164  29.427   7.950
 4076POPC   C4B13006  11.245  29.351   7.650
 4077POPC   NC313007  35.317   9.753   9.450
 4077POPC   PO413008  35.356   9.756   9.150
 4077POPC   GL113009  35.358   9.741   8.850
 4077POPC   GL213010  35.473   9.784   8.850
 4077POPC   C1A13011  35.384   9.793   8.550
 4077POPC   D2A13012  35.311   9.757   8.250
 4077POPC   C3A13013  35.333   9.767   7.950
 4077POPC   C4A13014  35.335   9.766   7.650
 4077POPC   C1B13015  35.555   9.839   8.550
 4077POPC   C2B13016  35.598   9.866   8.250
 4077POPC   C3B13017  35.571   9.811   7.950
 4077POPC   C4B13018  35.569   9.880   7.650
 4078POPC   NC313019   0.430  38.446   9.450
 4078POPC   PO413020   0.455  38.483   9.150
 4078POPC   GL113021   0.463  38.467   8.850
 4078POPC   GL213022   0.533  38.505   8.850
 4078POPC   C1A13023   0.389  38.503   8.550
 4078POPC   D2A13024   0.397  38.415   8.250
 4078POPC   C3A13025   0.414  38.426   7.950
 4078POPC   C4A13026   0.457  38.417   7.650
 4078POPC   C1B13027   0.694  38.523   8.550
 4078POPC   C2B13028   0.634  38.512   8.250
 4078POPC   C3B13029   0.673  38.522   7.950
 4078POPC   C4B13030   0.722  38.498   7.650
 4079POPC   NC313031  33.805  29.934   9.450
 4079POPC   PO413032  33.754  29.923   9.150
 4079POPC   GL113033  33.755  29.915   8.850
 4079POPC   GL213034  33.676  29.908   8.850
 4079POPC   C1A13035  33.810  29.915   8.550
 4079POPC   D2A13036  33.801  29.900   8.250
 4079POPC   C3A13037  33.835  29.883   7.950
 4079POPC   C4A13038  33.763  29.881   7.650
 4079POPC   C1B13039  33.599  29.989   8.550
 4079POPC   C2B13040  33.542  29.936   8.250
 4079POPC   C3B13041  33.546  29.930   7.950
 4079POPC   C4B13042  33.587  29.970   7.650
 4080POPC   NC313043  33.046   8.925   9.450
 4080POPC   PO413044  33.026   8.987   9.150
 4080POPC   GL113045  32.998   8.935   8.850
 4080POPC   GL213046  33.170   8.941   8.850
 4080POPC   C1A13047  33.007   9.021   8.550
 4080POPC   D2A13048  33.044   8.981   8.250
 4080POPC   C3A13049  33.024   8.994   7.950
 4080POPC   C4A13050  32.984   8.952   7.650
 4080POPC   C1B13051  33.223   8.868   8.550
 4080POPC   C2B13052  33.219   8.919   8.250
 4080POPC   C3B13053  33.267   8.842   7.950
 4080POPC   C4B13054  33.236   8.898   7.650
 4081POPC   NC313055  31.468  21.385   9.450
 4081POPC   PO413056  31.471  21.389   9.150
 4081POPC   GL113057  31.466  21.340   8.850
 4081POPC   GL213058  31.444  21.549   8.850
 4081POPC   C1A13059  31.503  21.431   8.550
 4081POPC   D2A13060  31.435  21.354   8.250
 4081POPC   C3A13061  31.519  21.422   7.950
 4081POPC   C4A13062  31.431  21.410   7.650
 4081POPC   C1B13063  31.468  21.649   8.550
 4081POPC   C2B13064  31.461  21.649   8.250
 4081POPC   C3B13065  31.448  21.612   7.950
 4081POPC   C4B13066  31.430  21.630   7.650
 4082POPC   NC313067  21.389  40.763   9.450
 4082POPC   PO413068  21.343  40.823   9.150
 4082POPC   GL113069  21.401  40.781   8.850
 4082POPC   GL213070  21.262  40.731   8.850
 4082POPC   C1A13071  21.421  40.806   8.550
 4082POPC   D2A13072  21.368  40.818   8.250
 4082POPC   C3A13073  21.352  40.790   7.950
 4082POPC   C4A13074  21.344  40.827   7.650
 4082POPC   C1B13075  21.172  40.809   8.550
 4082POPC   C2B13076  21.106  40.822   8.250
 4082POPC   C3B13077  21.108  40.822   7.950
 4082POPC   C4B13078  21.101  40.808   7.650
 4083POPC   NC313079  22.915  15.163   9.450
 4083POPC   PO413080  22.941  15.191   9.150
 4083POPC   GL113081  22.986  15.130   8.850
 4083POPC   GL213082  22.857  15.027   8.850
 4083POPC   C1A13083  22.900  15.190   8.550
 4083POPC   D2A13084  22.982  15.151   8.250
 4083POPC   C3A13085  22.925  15.134   7.950
 4083POPC   C4A13086  22.900  15.171   7.650
 4083POPC   C1B13087  22.860  14.975   8.550
 4083POPC   C2B13088  22.842  14.928   8.250
 4083POPC   C3B13089  22.889  14.915   7.950
 4083POPC   C4B13090  22.842  14.976   7.650
 4084POPC   NC313091  37.659  30.738   9.450
 4084POPC   PO413092  37.644  30.695   9.150
 4084POPC   GL113093  37.641  30.668   8.850
 4084POPC   GL213094  37.553  30.673   8.850
 4084POPC   C1A13095  37.674  30.689   8.550
 4084POPC   D2A13096  37.684  30.654   8.250
 4084POPC   C3A13097  37.703  30.684   7.950
 4084POPC   C4A13098  37.665  30.724   7.650
 4084POPC   C1B13099  37.441  30.644   8.550
 4084POPC   C2B13100  37.473  30.610   8.250
 4084POPC   C3B13101  37.466  30.674   7.950
 4084POPC   C4B13102  37.392  30.604   7.650
 4085POPC   NC313103  10.489  10.553   9.450
 4085POPC   PO413104  10.490  10.485   9.150
 4085POPC   GL113105  10.512  10.491   8.850
 4085POPC   GL213106  10.603  10.621   8.850
 4085POPC   C1A13107  10.551  10.547   8.550
 4085POPC   D2A13108  10.558  10.497   8.250
 4085POPC   C3A13109  10.551  10.564   7.950
 4085POPC   C4A13110  10.565  10.501   7.650
 4085POPC   C1B13111  10.569  10.759   8.550
 4085POPC   C2B13112  10.619  10.748   8.250
 4085POPC   C3B13113  10.666  10.800   7.950
 4085POPC   C4B13114  10.589  10.731   7.650
 4086POPC   NC313115  26.073  36.888   9.450
 4086POPC   PO413116  26.048  36.905   9.150
 4086POPC   GL113117  26.047  36.936   8.850
 4086POPC   GL213118  26.098  37.053   8.850
 4086POPC   C1A13119  25.992  36.931   8.550
 4086POPC   D2A13120  26.052  36.873   8.250
 4086POPC   C3A13121  26.014  36.926   7.950
 4086POPC   C4A13122  26.015  36.953   7.650
 4086POPC   C1B13123  26.202  37.076   8.550
 4086POPC   C2B13124  26.162  37.109   8.250
 4086POPC   C3B13125  26.196  37.153   7.950
 4086POPC   C4B13126  26.206  37.083   7.650
 4087POPC   NC313127  23.752  40.825   9.450
 4087POPC   PO413128  23.675  40.785   9.150
 4087POPC   GL113129  23.700  40.820   8.850
 4087POPC   GL213130  23.715  40.909   8.850
 4087POPC   C1A13131  23.738  40.800   8.550
 4087POPC   D2A13132  23.687  40.821   8.250
 4087POPC   C3A13133  23.724  40.767   7.950
 4087POPC   C4A13134  23.728  40.750   7.650
 4087POPC   C1B13135  23.666  41.032   8.550
 4087POPC   C2B13136  23.682  40.983   8.250
 4087POPC   C3B13137  23.691  41.056   7.950
 4087POPC   C4B13138  23.690  41.045   7.650
 4088POPC   NC313139  43.129  11.293   9.450
 4088POPC   PO413140  43.127  11.274   9.150
 4088POPC   GL113141  43.064  11.286   8.850
 4088POPC   GL213142  43.107  11.139   8.850
 4088POPC   C1A13143  43.130  11.273   8.550
 4088POPC   D2A13144  43.117  11.287   8.250
 4088POPC   C3A13145  43.085  11.346   7.950
 4088POPC   C4A13146  43.157  11.288   7.650
 4088POPC   C1B13147  43.118  11.042   8.550
 4088POPC   C2B13148  43.170  11.016   8.250
 4088POPC   C3B13149  43.160  11.025   7.950
 4088POPC   C4B13150  43.157  11.033   7.650
 4089POPC   NC313151  35.347  43.127   9.450
 4089POPC   PO413152  35.323  43.121   9.150
 4089POPC   GL113153  35.385  43.120   8.850
 4089POPC   GL213154  35.501  43.081   8.850
 4089POPC   C1A13155  35.347  43.135   8.550
 4089POPC   D2A13156  35.386  43.095   8.250
 4089POPC   C3A13157  35.347  43.106   7.950
 4089POPC   C4A13158  35.338  43.143   7.650
 4089POPC   C1B13159  35.605  43.020   8.550
 4089POPC   C2B13160  35.612  43.054   8.250
 4089POPC   C3B13161  35.616  43.060   7.950
 4089POPC   C4B13162  35.553  43.007   7.650
 4090POPC   NC313163  15.907   5.090   9.450
 4090POPC   PO413164  15.944   5.106   9.150
 4090POPC   GL113165  15.933   5.052   8.850
 4090POPC   GL213166  16.025   5.063   8.850
 4090POPC   C1A13167  15.938   5.100   8.550
 4090POPC   D2A13168  15.940   5.057   8.250
 4090POPC   C3A13169  15.927   5.050   7.950
 4090POPC   C4A13170  15.946   5.136   7.650
 4090POPC   C1B13171  16.150   4.997   8.550
 4090POPC   C2B13172  16.188   5.006   8.250
 4090POPC   C3B13173  16.169   4.993   7.950
 4090POPC   C4B13174  16.190   4.982   7.650
 4091POPC   NC313175  22.122   2.774   9.450
 4091POPC   PO413176  22.190   2.792   9.150
 4091POPC   GL113177  22.157   2.729   8.850
 4091POPC   GL213178  22.236   2.750   8.850
 4091POPC   C1A13179  22.155   2.737   8.550
 4091POPC   D2A13180  22.131   2.752   8.250
 4091POPC   C3A13181  22.127   2.739   7.950
 4091POPC   C4A13182  22.117   2.815   7.650
 4091POPC   C1B13183  22.437   2.763   8.550
 4091POPC   C2B13184  22.378   2.754   8.250
 4091POPC   C3B13185  22.437   2.827   7.950
 4091POPC   C4B13186  22.444   2.816   7.650
 4092POPC   NC313187  39.209  43.153   9.450
 4092POPC   PO413188  39.248  43.070   9.150
 4092POPC   GL113189  39.226  43.128   8.850
 4092POPC   GL213190  39.263  43.049   8.850
 4092POPC   C1A13191  39.187  43.076   8.550
 4092POPC   D2A13192  39.274  43.086   8.250
 4092POPC   C3A13193  39.272  43.146   7.950
 4092POPC   C4A13194  39.226  43.116   7.650
 4092POPC   C1B13195  39.322  42.891   8.550
 4092POPC   C2B13196  39.394  42.900   8.250
 4092POPC   C3B13197  39.392  42.917   7.950
 4092POPC   C4B13198  39.350  42.851   7.650
 4093POPC   NC313199  30.745   2.718   9.450
 4093POPC   PO413200  30.651   2.743   9.150
 4093POPC   GL113201  30.693   2.802   8.850
 4093POPC   GL213202  30.607   2.669   8.850
 4093POPC   C1A13203  30.728   2.784   8.550
 4093POPC   D2A13204  30.650   2.733   8.250
 4093POPC   C3A13205  30.715   2.748   7.950
 4093POPC   C4A13206  30.672   2.741   7.650
 4093POPC   C1B13207  30.580   2.558   8.550
 4093POPC   C2B13208  30.586   2.575   8.250
 4093POPC   C3B13209  30.622   2.515   7.950
 4093POPC   C4B13210  30.587   2.511   7.650
 4094POPC   NC313211  33.793  43.120   9.450
 4094POPC   PO413212  33.754  43.081   9.150
 4094POPC   GL113213  33.763  43.129   8.850
 4094POPC   GL213214  33.644  43.198   8.850
 4094POPC   C1A13215  33.838  43.094   8.550
 4094POPC   D2A13216  33.790  43.091   8.250
 4094POPC   C3A13217  33.806  43.086   7.950
 4094POPC   C4A13218  33.798  43.076   7.650
 4094POPC   C1B13219  33.587  43.214   8.550
 4094POPC   C2B13220  33.576  43.239   8.250
 4094POPC   C3B13221  33.569  43.221   7.950
 4094POPC   C4B13222  33.551  43.199   7.650
 4095POPC   NC313223   5.911  17.533   9.450
 4095POPC   PO413224   5.823  17.543   9.150
 4095POPC   GL113225   5.830  17.477   8.850
 4095POPC   GL213226   5.738  17.604   8.850
 4095POPC   C1A13227   5.875  17.488   8.550
 4095POPC   D2A13228   5.854  17.475   8.250
 4095POPC   C3A13229   5.910  17.508   7.950
 4095POPC   C4A13230   5.913  17.467   7.650
 4095POPC   C1B13231   5.679  17.628   8.550
 4095POPC   C2B13232   5.705  17.672   8.250
 4095POPC   C3B13233   5.640  17.612   7.950
 4095POPC   C4B13234   5.707  17.630   7.650
 4096POPC   NC313235  11.274  20.655   9.450
 4096POPC   PO413236  11.332  20.639   9.150
 4096POPC   GL113237  11.273  20.610   8.850
 4096POPC   GL213238  11.412  20.753   8.850
 4096POPC   C1A13239  11.317  20.597   8.550
 4096POPC   D2A13240  11.251  20.603   8.250
 4096POPC   C3A13241  11.345  20.645   7.950
 4096POPC   C4A13242  11.263  20.653   7.650
 4096POPC   C1B13243  11.463  20.827   8.550
 4096POPC   C2B13244  11.394  20.849   8.250
 4096POPC   C3B13245  11.474  20.785   7.950
 4096POPC   C4B13246  11.477  20.826   7.650
 4097POPC   NC313247  38.500  37.676   9.450
 4097POPC   PO413248  38.464  37.681   9.150
 4097POPC   GL113249  38.464  37.677   8.850
 4097POPC   GL213250  38.372  37.747   8.850
 4097POPC   C1A13251  38.426  37.686   8.550
 4097POPC   D2A13252  38.411  37.688   8.250
 4097POPC   C3A13253  38.455  37.713   7.950
 4097POPC   C4A13254  38.425  37.702   7.650
 4097POPC   C1B13255  38.265  37.890   8.550
 4097POPC   C2B13256  38.343  37.851   8.250
 4097POPC   C3B13257  38.303  37.930   7.950
 4097POPC   C4B13258  38.309  37.930   7.650
 4098POPC   NC313259   6.647  26.857   9.450
 4098POPC   PO413260   6.633  26.828   9.150
 4098POPC   GL113261   6.666  26.837   8.850
 4098POPC   GL213262   6.649  26.726   8.850
 4098POPC   C1A13263   6.694  26.835   8.550
 4098POPC   D2A13264   6.644  26.773   8.250
 4098POPC   C3A13265   6.604  26.857   7.950
 4098POPC   C4A13266   6.692  26.861   7.650
 4098POPC   C1B13267   6.542  26.544   8.550
 4098POPC   C2B13268   6.617  26.599   8.250
 4098POPC   C3B13269   6.549  26.546   7.950
 4098POPC   C4B13270   6.542  26.584   7.650
 4099POPC   NC313271   0.467  25.273   9.450
 4099POPC   PO413272   0.402  25.229   9.150
 4099POPC   GL113273   0.448  25.289   8.850
 4099POPC   GL213274   0.500  25.198   8.850
 4099POPC   C1A13275   0.478  25.224   8.550
 4099POPC   D2A13276   0.449  25.313   8.250
 4099POPC   C3A13277   0.459  25.291   7.950
 4099POPC   C4A13278   0.427  25.313   7.650
 4099POPC   C1B13279   0.496  25.075   8.550
 4099POPC   C2B13280   0.586  24.995   8.250
 4099POPC   C3B13281   0.576  25.032   7.950
 4099POPC   C4B13282   0.522  25.008   7.650
 4100POPC   NC313283  32.220  20.627   9.450
 4100POPC   PO413284  32.280  20.588   9.150
 4100POPC   GL113285  32.270  20.642   8.850
 4100POPC   GL213286  32.320  20.571   8.850
 4100POPC   C1A13287  32.280  20.610   8.550
 4100POPC   D2A13288  32.222  20.609   8.250
 4100POPC   C3A13289  32.275  20.650   7.950
 4100POPC   C4A13290  32.267  20.641   7.650
 4100POPC   C1B13291  32.435  20.414   8.550
 4100POPC   C2B13292  32.419  20.402   8.250
 4100POPC   C3B13293  32.478  20.443   7.950
 4100POPC   C4B13294  32.427  20.459   7.650
 4101POPC   NC313295   3.564  26.004   9.450
 4101POPC   PO413296   3.510  25.993   9.150
 4101POPC   GL113297   3.548  26.090   8.850
 4101POPC   GL213298   3.667  25.999   8.850
 4101POPC   C1A13299   3.525  26.021   8.550
 4101POPC   D2A13300   3.576  26.082   8.250
 4101POPC   C3A13301   3.512  26.029   7.950
 4101POPC   C4A13302   3.566  26.075   7.650
 4101POPC   C1B13303   3.813  25.987   8.550
 4101POPC   C2B13304   3.800  25.940   8.250
 4101POPC   C3B13305   3.825  25.978   7.950
 4101POPC   C4B13306   3.828  25.993   7.650
 4102POPC   NC313307   8.187   8.206   9.450
 4102POPC   PO413308   8.200   8.185   9.150
 4102POPC   GL113309   8.169   8.211   8.850
 4102POPC   GL213310   8.138   8.116   8.850
 4102POPC   C1A13311   8.187   8.191   8.550
 4102POPC   D2A13312   8.243   8.149   8.250
 4102POPC   C3A13313   8.231   8.227   7.950
 4102POPC   C4A13314   8.182   8.181   7.650
 4102POPC   C1B13315   8.030   8.053   8.550
 4102POPC   C2B13316   8.034   8.024   8.250
 4102POPC   C3B13317   7.968   8.022   7.950
 4102POPC   C4B13318   8.046   8.078   7.650
 4103POPC   NC313319  10.501  23.677   9.450
 4103POPC   PO413320  10.518  23.684   9.150
 4103POPC   GL113321  10.493  23.753   8.850
 4103POPC   GL213322  10.633  23.636   8.850
 4103POPC   C1A13323  10.516  23.752   8.550
 4103POPC   D2A13324  10.574  23.675   8.250
 4103POPC   C3A13325  10.475  23.690   7.950
 4103POPC   C4A13326  10.524  23.725   7.650
 4103POPC   C1B13327  10.638  23.557   8.550
 4103POPC   C2B13328  10.728  23.509   8.250
 4103POPC   C3B13329  10.732  23.497   7.950
 4103POPC   C4B13330  10.640  23.547   7.650
 4104POPC   NC313331  31.497  35.308   9.450
 4104POPC   PO413332  31.490  35.402   9.150
 4104POPC   GL113333  31.512  35.336   8.850
 4104POPC   GL213334  31.548  35.439   8.850
 4104POPC   C1A13335  31.518  35.356   8.550
 4104POPC   D2A13336  31.515  35.307   8.250
 4104POPC   C3A13337  31.433  35.324   7.950
 4104POPC   C4A13338  31.482  35.306   7.650
 4104POPC   C1B13339  31.659  35.542   8.550
 4104POPC   C2B13340  31.626  35.553   8.250
 4104POPC   C3B13341  31.681  35.499   7.950
 4104POPC   C4B13342  31.673  35.457   7.650
 4105POPC   NC313343  28.336  13.592   9.450
 4105POPC   PO413344  28.408  13.620   9.150
 4105POPC   GL113345  28.366  13.649   8.850
 4105POPC   GL213346  28.279  13.640   8.850
 4105POPC   C1A13347  28.348  13.630   8.550
 4105POPC   D2A13348  28.352  13.578   8.250
 4105POPC   C3A13349  28.340  13.602   7.950
 4105POPC   C4A13350  28.379  13.600   7.650
 4105POPC   C1B13351  28.110  13.737   8.550
 4105POPC   C2B13352  28.173  13.668   8.250
 4105POPC   C3B13353  28.179  13.740   7.950
 4105POPC   C4B13354  28.091  13.748   7.650
 4106POPC   NC313355  23.760  13.647   9.450
 4106POPC   PO413356  23.703  13.613   9.150
 4106POPC   GL113357  23.749  13.634   8.850
 4106POPC   GL213358  23.693  13.506   8.850
 4106POPC   C1A13359  23.755  13.661   8.550
 4106POPC   D2A13360  23.726  13.618   8.250
 4106POPC   C3A13361  23.756  13.632   7.950
 4106POPC   C4A13362  23.685  13.615   7.650
 4106POPC   C1B13363  23.808  13.349   8.550
 4106POPC   C2B13364  23.747  13.376   8.250
 4106POPC   C3B13365  23.738  13.406   7.950
 4106POPC   C4B13366  23.779  13.339   7.650
 4107POPC   NC313367  43.132  36.931   9.450
 4107POPC   PO413368  43.079  36.953   9.150
 4107POPC   GL113369  43.130  36.935   8.850
 4107POPC   GL213370  43.241  36.882   8.850
 4107POPC   C1A13371  43.136  36.946   8.550
 4107POPC   D2A13372  43.065  36.872   8.250
 4107POPC   C3A13373  43.158  36.902   7.950
 4107POPC   C4A13374  43.122  36.923   7.650
 4107POPC   C1B13375  43.388  36.913   8.550
 4107POPC   C2B13376  43.381  36.899   8.250
 4107POPC   C3B13377  43.368  36.912   7.950
 4107POPC   C4B13378  43.311  36.911   7.650
 4108POPC   NC313379   8.242  33.054   9.450
 4108POPC   PO413380   8.203  32.977   9.150
 4108POPC   GL113381   8.218  33.034   8.850
 4108POPC   GL213382   8.136  32.918   8.850
 4108POPC   C1A13383   8.179  33.060   8.550
 4108POPC   D2A13384   8.190  33.040   8.250
 4108POPC   C3A13385   8.220  33.035   7.950
 4108POPC   C4A13386   8.194  32.998   7.650
 4108POPC   C1B13387   8.146  32.776   8.550
 4108POPC   C2B13388   8.203  32.785   8.250
 4108POPC   C3B13389   8.165  32.755   7.950
 4108POPC   C4B13390   8.126  32.734   7.650
 4109POPC   NC313391  42.345  42.332   9.450
 4109POPC   PO413392  42.343  42.369   9.150
 4109POPC   GL113393  42.329  42.314   8.850
 4109POPC   GL213394  42.196  42.368   8.850
 4109POPC   C1A13395  42.342  42.317   8.550
 4109POPC   D2A13396  42.297  42.372   8.250
 4109POPC   C3A13397  42.287  42.324   7.950
 4109POPC   C4A13398  42.327  42.338   7.650
 4109POPC   C1B13399  42.116  42.352   8.550
 4109POPC   C2B13400  42.087  42.366   8.250
 4109POPC   C3B13401  42.061  42.290   7.950
 4109POPC   C4B13402  42.087  42.298   7.650
 4110POPC   NC313403  42.379  27.619   9.450
 4110POPC   PO413404  42.338  27.640   9.150
 4110POPC   GL113405  42.308  27.587   8.850
 4110POPC   GL213406  42.470  27.609   8.850
 4110POPC   C1A13407  42.297  27.572   8.550
 4110POPC   D2A13408  42.319  27.551   8.250
 4110POPC   C3A13409  42.307  27.607   7.950
 4110POPC   C4A13410  42.285  27.553   7.650
 4110POPC   C1B13411  42.568  27.557   8.550
 4110POPC   C2B13412  42.592  27.552   8.250
 4110POPC   C3B13413  42.557  27.504   7.950
 4110POPC   C4B13414  42.616  27.485   7.650
 4111POPC   NC313415  15.963  35.369   9.450
 4111POPC   PO413416  15.961  35.343   9.150
 4111POPC   GL113417  15.962  35.350   8.850
 4111POPC   GL213418  15.894  35.234   8.850
 4111POPC   C1A13419  15.995  35.401   8.550
 4111POPC   D2A13420  15.959  35.338   8.250
 4111POPC   C3A13421  15.959  35.339   7.950
 4111POPC   C4A13422  15.924  35.328   7.650
 4111POPC   C1B13423  15.835  35.086   8.550
 4111POPC   C2B13424  15.888  35.113   8.250
 4111POPC   C3B13425  15.866  35.130   7.950
 4111POPC   C4B13426  15.878  35.076   7.650
 4112POPC   NC313427   9.703  28.322   9.450
 4112POPC   PO413428   9.728  28.337   9.150
 4112POPC   GL113429   9.793  28.365   8.850
 4112POPC   GL213430   9.691  28.269   8.850
 4112POPC   C1A13431   9.727  28.333   8.550
 4112POPC   D2A13432   9.787  28.323   8.250
 4112POPC   C3A13433   9.782  28.364   7.950
 4112POPC   C4A13434   9.754  28.364   7.650
 4112POPC   C1B13435   9.680  28.151   8.550
 4112POPC   C2B13436   9.730  28.149   8.250
 4112POPC   C3B13437   9.649  28.134   7.950
 4112POPC   C4B13438   9.688  28.145   7.650
 4113POPC   NC313439  10.527  39.188   9.450
 4113POPC   PO413440  10.498  39.210   9.150
 4113POPC   GL113441  10.558  39.218   8.850
 4113POPC   GL213442  10.639  39.182   8.850
 4113POPC   C1A13443  10.488  39.258   8.550
 4113POPC   D2A13444  10.515  39.184   8.250
 4113POPC   C3A13445  10.496  39.202   7.950
 4113POPC   C4A13446  10.553  39.229   7.650
 4113POPC   C1B13447  10.654  39.051   8.550
 4113POPC   C2B13448  10.651  38.997   8.250
 4113POPC   C3B13449  10.699  39.065   7.950
 4113POPC   C4B13450  10.695  39.053   7.650
 4114POPC   NC313451  42.351   7.436   9.450
 4114POPC   PO413452  42.319   7.414   9.150
 4114POPC   GL113453  42.328   7.417   8.850
 4114POPC   GL213454  42.416   7.402   8.850
 4114POPC   C1A13455  42.330   7.419   8.550
 4114POPC   D2A13456  42.366   7.373   8.250
 4114POPC   C3A13457  42.347   7.442   7.950
 4114POPC   C4A13458  42.305   7.442   7.650
 4114POPC   C1B13459  42.575   7.416   8.550
 4114POPC   C2B13460  42.584   7.376   8.250
 4114POPC   C3B13461  42.587   7.422   7.950
 4114POPC   C4B13462  42.578   7.386   7.650
 4115POPC   NC313463  43.138   8.244   9.450
 4115POPC   PO413464  43.117   8.171   9.150
 4115POPC   GL113465  43.095   8.226   8.850
 4115POPC   GL213466  43.230   8.152   8.850
 4115POPC   C1A13467  43.060   8.185   8.550
 4115POPC   D2A13468  43.080   8.207   8.250
 4115POPC   C3A13469  43.070   8.247   7.950
 4115POPC   C4A13470  43.138   8.189   7.650
 4115POPC   C1B13471  43.313   8.109   8.550
 4115POPC   C2B13472  43.395   8.137   8.250
 4115POPC   C3B13473  43.356   8.147   7.950
 4115POPC   C4B13474  43.317   8.193   7.650
 4116POPC   NC313475  29.121  16.701   9.450
 4116POPC   PO413476  29.113  16.755   9.150
 4116POPC   GL113477  29.180  16.745   8.850
 4116POPC   GL213478  29.182  16.652   8.850
 4116POPC   C1A13479  29.189  16.727   8.550
 4116POPC   D2A13480  29.186  16.686   8.250
 4116POPC   C3A13481  29.160  16.741   7.950
 4116POPC   C4A13482  29.135  16.701   7.650
 4116POPC   C1B13483  29.188  16.484   8.550
 4116POPC   C2B13484  29.149  16.526   8.250
 4116POPC   C3B13485  29.108  16.516   7.950
 4116POPC   C4B13486  29.164  16.473   7.650
 4117POPC   NC313487   5.125   4.312   9.450
 4117POPC   PO413488   5.085   4.315   9.150
 4117POPC   GL113489   5.070   4.356   8.850
 4117POPC   GL213490   5.166   4.419   8.850
 4117POPC   C1A13491   5.049   4.284   8.550
 4117POPC   D2A13492   5.135   4.308   8.250
 4117POPC   C3A13493   5.090   4.272   7.950
 4117POPC   C4A13494   5.119   4.276   7.650
 4117POPC   C1B13495   5.208   4.488   8.550
 4117POPC   C2B13496   5.276   4.505   8.250
 4117POPC   C3B13497   5.249   4.510   7.950
 4117POPC   C4B13498   5.275   4.479   7.650
 4118POPC   NC313499  29.146  20.620   9.450
 4118POPC   PO413500  29.150  20.629   9.150
 4118POPC   GL113501  29.135  20.596   8.850
 4118POPC   GL213502  29.156  20.771   8.850
 4118POPC   C1A13503  29.114  20.573   8.550
 4118POPC   D2A13504  29.101  20.574   8.250
 4118POPC   C3A13505  29.183  20.610   7.950
 4118POPC   C4A13506  29.113  20.655   7.650
 4118POPC   C1B13507  29.100  20.851   8.550
 4118POPC   C2B13508  29.105  20.910   8.250
 4118POPC   C3B13509  29.179  20.810   7.950
 4118POPC   C4B13510  29.188  20.828   7.650
 4119POPC   NC313511  15.971   1.989   9.450
 4119POPC   PO413512  15.994   1.980   9.150
 4119POPC   GL113513  15.939   1.986   8.850
 4119POPC   GL213514  15.813   2.058   8.850
 4119POPC   C1A13515  15.969   2.020   8.550
 4119POPC   D2A13516  15.917   1.990   8.250
 4119POPC   C3A13517  15.987   1.962   7.950
 4119POPC   C4A13518  15.965   1.970   7.650
 4119POPC   C1B13519  15.753   2.153   8.550
 4119POPC   C2B13520  15.721   2.138   8.250
 4119POPC   C3B13521  15.778   2.138   7.950
 4119POPC   C4B13522  15.781   2.112   7.650
 4120POPC   NC313523  43.131   4.313   9.450
 4120POPC   PO413524  43.150   4.333   9.150
 4120POPC   GL113525  43.074   4.318   8.850
 4120POPC   GL213526  43.006   4.239   8.850
 4120POPC   C1A13527  43.121   4.351   8.550
 4120POPC   D2A13528  43.144   4.288   8.250
 4120POPC   C3A13529  43.084   4.354   7.950
 4120POPC   C4A13530  43.081   4.326   7.650
 4120POPC   C1B13531  42.884   4.209   8.550
 4120POPC   C2B13532  42.851   4.195   8.250
 4120POPC   C3B13533  42.891   4.235   7.950
 4120POPC   C4B13534  42.924   4.202   7.650
 4121POPC   NC313535   4.320  23.737   9.450
 4121POPC   PO413536   4.352  23.755   9.150
 4121POPC   GL113537   4.363  23.702   8.850
 4121POPC   GL213538   4.272  23.588   8.850
 4121POPC   C1A13539   4.365  23.677   8.550
 4121POPC   D2A13540   4.315  23.726   8.250
 4121POPC   C3A13541   4.331  23.758   7.950
 4121POPC   C4A13542   4.310  23.729   7.650
 4121POPC   C1B13543   4.310  23.430   8.550
 4121POPC   C2B13544   4.358  23.440   8.250
 4121POPC   C3B13545   4.271  23.450   7.950
 4121POPC   C4B13546   4.314  23.444   7.650
 4122POPC   NC313547  41.527  21.402   9.450
 4122POPC   PO413548  41.556  21.399   9.150
 4122POPC   GL113549  41.545  21.340   8.850
 4122POPC   GL213550  41.428  21.362   8.850
 4122POPC   C1A13551  41.551  21.424   8.550
 4122POPC   D2A13552  41.535  21.396   8.250
 4122POPC   C3A13553  41.592  21.392   7.950
 4122POPC   C4A13554  41.598  21.426   7.650
 4122POPC   C1B13555  41.306  21.286   8.550
 4122POPC   C2B13556  41.356  21.336   8.250
 4122POPC   C3B13557  41.283  21.284   7.950
 4122POPC   C4B13558  41.360  21.344   7.650
 4123POPC   NC313559   0.467  43.151   9.450
 4123POPC   PO413560   0.433  43.160   9.150
 4123POPC   GL113561   0.417  43.109   8.850
 4123POPC   GL213562   0.378  43.028   8.850
 4123POPC   C1A13563   0.465  43.115   8.550
 4123POPC   D2A13564   0.459  43.140   8.250
 4123POPC   C3A13565   0.472  43.069   7.950
 4123POPC   C4A13566   0.484  43.140   7.650
 4123POPC   C1B13567   0.251  42.974   8.550
 4123POPC   C2B13568   0.260  42.977   8.250
 4123POPC   C3B13569   0.277  42.963   7.950
 4123POPC   C4B13570   0.292  42.965   7.650
 4124POPC   NC313571  26.047   5.105   9.450
 4124POPC   PO413572  26.060   5.143   9.150
 4124POPC   GL113573  26.011   5.113   8.850
 4124POPC   GL213574  25.941   5.103   8.850
 4124POPC   C1A13575  26.056   5.055   8.550
 4124POPC   D2A13576  26.076   5.137   8.250
 4124POPC   C3A13577  26.075   5.050   7.950
 4124POPC   C4A13578  26.006   5.085   7.650
 4124POPC   C1B13579  25.793   5.194   8.550
 4124POPC   C2B13580  25.836   5.162   8.250
 4124POPC   C3B13581  25.843   5.174   7.950
 4124POPC   C4B13582  25.787   5.193   7.650
 4125POPC   NC313583  29.163  14.435   9.450
 4125POPC   PO413584  29.107  14.422   9.150
 4125POPC   GL113585  29.137  14.366   8.850
 4125POPC   GL213586  29.142  14.249   8.850
 4125POPC   C1A13587  29.167  14.425   8.550
 4125POPC   D2A13588  29.178  14.399   8.250
 4125POPC   C3A13589  29.105  14.450   7.950
 4125POPC   C4A13590  29.101  14.437   7.650
 4125POPC   C1B13591  29.148  14.143   8.550
 4125POPC   C2B13592  29.087  14.171   8.250
 4125POPC   C3B13593  29.115  14.131   7.950
 4125POPC   C4B13594  29.113  14.123   7.650
 4126POPC   NC313595   1.255  26.851   9.450
 4126POPC   PO413596   1.170  26.826   9.150
 4126POPC   GL113597   1.205  26.782   8.850
 4126POPC   GL213598   1.244  26.674   8.850
 4126POPC   C1A13599   1.206  26.769   8.550
 4126POPC   D2A13600   1.221  26.858   8.250
 4126POPC   C3A13601   1.232  26.810   7.950
 4126POPC   C4A13602   1.218  26.842   7.650
 4126POPC   C1B13603   1.365  26.611   8.550
 4126POPC   C2B13604   1.358  26.609   8.250
 4126POPC   C3B13605   1.327  26.601   7.950
 4126POPC   C4B13606   1.334  26.654   7.650
 4127POPC   NC313607  15.968  25.247   9.450
 4127POPC   PO413608  15.976  25.240   9.150
 4127POPC   GL113609  15.961  25.244   8.850
 4127POPC   GL213610  16.018  25.371   8.850
 4127POPC   C1A13611  15.931  25.266   8.550
 4127POPC   D2A13612  15.967  25.279   8.250
 4127POPC   C3A13613  15.938  25.293   7.950
 4127POPC   C4A13614  15.919  25.250   7.650
 4127POPC   C1B13615  16.106  25.422   8.550
 4127POPC   C2B13616  16.086  25.476   8.250
 4127POPC   C3B13617  16.073  25.446   7.950
 4127POPC   C4B13618  16.112  25.434   7.650
 4128POPC   NC313619  26.859  33.020   9.450
 4128POPC   PO413620  26.829  33.008   9.150
 4128POPC   GL113621  26.799  33.017   8.850
 4128POPC   GL213622  26.750  32.991   8.850
 4128POPC   C1A13623  26.832  33.020   8.550
 4128POPC   D2A13624  26.852  33.024   8.250
 4128POPC   C3A13625  26.812  33.015   7.950
 4128POPC   C4A13626  26.862  33.027   7.650
 4128POPC   C1B13627  26.571  32.838   8.550
 4128POPC   C2B13628  26.598  32.876   8.250
 4128POPC   C3B13629  26.608  32.874   7.950
 4128POPC   C4B13630  26.662  32.865   7.650
 4129POPC   NC313631  18.236  21.372   9.450
 4129POPC   PO413632  18.333  21.428   9.150
 4129POPC   GL113633  18.305  21.432   8.850
 4129POPC   GL213634  18.195  21.453   8.850
 4129POPC   C1A13635  18.285  21.360   8.550
 4129POPC   D2A13636  18.234  21.428   8.250
 4129POPC   C3A13637  18.325  21.340   7.950
 4129POPC   C4A13638  18.286  21.436   7.650
 4129POPC   C1B13639  18.176  21.640   8.550
 4129POPC   C2B13640  18.115  21.575   8.250
 4129POPC   C3B13641  18.120  21.635   7.950
 4129POPC   C4B13642  18.142  21.633   7.650
 4130POPC   NC313643  22.924   5.113   9.450
 4130POPC   PO413644  22.934   5.111   9.150
 4130POPC   GL113645  22.950   5.116   8.850
 4130POPC   GL213646  22.782   5.013   8.850
 4130POPC   C1A13647  22.986   5.083   8.550
 4130POPC   D2A13648  22.977   5.124   8.250
 4130POPC   C3A13649  22.903   5.064   7.950
 4130POPC   C4A13650  22.953   5.117   7.650
 4130POPC   C1B13651  22.744   4.996   8.550
 4130POPC   C2B13652  22.736   4.988   8.250
 4130POPC   C3B13653  22.714   4.989   7.950
 4130POPC   C4B13654  22.737   5.041   7.650
 4131POPC   NC313655   9.725  27.597   9.450
 4131POPC   PO413656   9.762  27.638   9.150
 4131POPC   GL113657   9.797  27.574   8.850
 4131POPC   GL213658   9.720  27.489   8.850
 4131POPC   C1A13659   9.722  27.627   8.550
 4131POPC   D2A13660   9.767  27.556   8.250
 4131POPC   C3A13661   9.728  27.585   7.950
 4131POPC   C4A13662   9.789  27.578   7.650
 4131POPC   C1B13663   9.600  27.354   8.550
 4131POPC   C2B13664   9.649  27.430   8.250
 4131POPC   C3B13665   9.606  27.414   7.950
 4131POPC   C4B13666   9.614  27.424   7.650
 4132POPC   NC313667   5.079   2.814   9.450
 4132POPC   PO413668   5.071   2.732   9.150
 4132POPC   GL113669   5.105   2.757   8.850
 4132POPC   GL213670   5.191   2.875   8.850
 4132POPC   C1A13671   5.100   2.763   8.550
 4132POPC   D2A13672   5.095   2.763   8.250
 4132POPC   C3A13673   5.093   2.770   7.950
 4132POPC   C4A13674   5.085   2.735   7.650
 4132POPC   C1B13675   5.189   3.010   8.550
 4132POPC   C2B13676   5.242   3.002   8.250
 4132POPC   C3B13677   5.201   3.013   7.950
 4132POPC   C4B13678   5.228   3.004   7.650
 4133POPC   NC313679   5.919  20.650   9.450
 4133POPC   PO413680   5.908  20.575   9.150
 4133POPC   GL113681   5.835  20.660   8.850
 4133POPC   GL213682   5.845  20.755   8.850
 4133POPC   C1A13683   5.916  20.612   8.550
 4133POPC   D2A13684   5.893  20.573   8.250
 4133POPC   C3A13685   5.836  20.562   7.950
 4133POPC   C4A13686   5.890  20.594   7.650
 4133POPC   C1B13687   5.907  20.867   8.550
 4133POPC   C2B13688   5.879  20.870   8.250
 4133POPC   C3B13689   5.874  20.859   7.950
 4133POPC   C4B13690   5.848  20.848   7.650
 4134POPC   NC313691  11.272  27.572   9.450
 4134POPC   PO413692  11.340  27.572   9.150
 4134POPC   GL113693  11.252  27.579   8.850
 4134POPC   GL213694  11.407  27.690   8.850
 4134POPC   C1A13695  11.274  27.587   8.550
 4134POPC   D2A13696  11.346  27.641   8.250
 4134POPC   C3A13697  11.255  27.616   7.950
 4134POPC   C4A13698  11.301  27.608   7.650
 4134POPC   C1B13699  11.506  27.654   8.550
 4134POPC   C2B13700  11.557  27.698   8.250
 4134POPC   C3B13701  11.548  27.730   7.950
 4134POPC   C4B13702  11.559  27.687   7.650
 4135POPC   NC313703  13.601   8.923   9.450
 4135POPC   PO413704  13.646   8.980   9.150
 4135POPC   GL113705  13.668   8.936   8.850
 4135POPC   GL213706  13.774   8.976   8.850
 4135POPC   C1A13707  13.609   9.019   8.550
 4135POPC   D2A13708  13.667   8.938   8.250
 4135POPC   C3A13709  13.593   8.934   7.950
 4135POPC   C4A13710  13.580   8.974   7.650
 4135POPC   C1B13711  13.873   8.955   8.550
 4135POPC   C2B13712  13.826   8.941   8.250
 4135POPC   C3B13713  13.879   8.926   7.950
 4135POPC   C4B13714  13.831   8.908   7.650
 4136POPC   NC313715  19.043  19.096   9.450
 4136POPC   PO413716  19.016  19.070   9.150
 4136POPC   GL113717  19.044  19.023   8.850
 4136POPC   GL213718  18.925  18.949   8.850
 4136POPC   C1A13719  19.078  19.054   8.550
 4136POPC   D2A13720  19.012  19.037   8.250
 4136POPC   C3A13721  19.034  19.058   7.950
 4136POPC   C4A13722  19.089  19.074   7.650
 4136POPC   C1B13723  18.861  18.895   8.550
 4136POPC   C2B13724  18.890  18.895   8.250
 4136POPC   C3B13725  18.818  18.909   7.950
 4136POPC   C4B13726  18.856  18.912   7.650
 4137POPC   NC313727  15.137  35.358   9.450
 4137POPC   PO413728  15.224  35.363   9.150
 4137POPC   GL113729  15.138  35.345   8.850
 4137POPC   GL213730  15.035  35.261   8.850
 4137POPC   C1A13731  15.164  35.303   8.550
 4137POPC   D2A13732  15.206  35.347   8.250
 4137POPC   C3A13733  15.132  35.308   7.950
 4137POPC   C4A13734  15.181  35.342   7.650
 4137POPC   C1B13735  14.985  35.215   8.550
 4137POPC   C2B13736  14.911  35.228   8.250
 4137POPC   C3B13737  14.953  35.219   7.950
 4137POPC   C4B13738  14.950  35.283   7.650
 4138POPC   NC313739  22.952  40.025   9.450
 4138POPC   PO413740  22.959  39.997   9.150
 4138POPC   GL113741  22.895  39.990   8.850
 4138POPC   GL213742  22.844  39.942   8.850
 4138POPC   C1A13743  22.971  39.991   8.550
 4138POPC   D2A13744  22.951  40.029   8.250
 4138POPC   C3A13745  22.978  40.044   7.950
 4138POPC   C4A13746  22.972  40.053   7.650
 4138POPC   C1B13747  22.750  39.861   8.550
 4138POPC   C2B13748  22.767  39.790   8.250
 4138POPC   C3B13749  22.736  39.865   7.950
 4138POPC   C4B13750  22.722  39.871   7.650
 4139POPC   NC313751  17.540  12.851   9.450
 4139POPC   PO413752  17.467  12.839   9.150
 4139POPC   GL113753  17.527  12.834   8.850
 4139POPC   GL213754  17.616  12.725   8.850
 4139POPC   C1A13755  17.490  12.840   8.550
 4139POPC   D2A13756  17.463  12.803   8.250
 4139POPC   C3A13757  17.468  12.807   7.950
 4139POPC   C4A13758  17.511  12.886   7.650
 4139POPC   C1B13759  17.695  12.634   8.550
 4139POPC   C2B13760  17.620  12.628   8.250
 4139POPC   C3B13761  17.681  12.636   7.950
 4139POPC   C4B13762  17.699  12.695   7.650
 4140POPC   NC313763  40.784  29.962   9.450
 4140POPC   PO413764  40.757  29.948   9.150
 4140POPC   GL113765  40.821  29.891   8.850
 4140POPC   GL213766  40.823  30.010   8.850
 4140POPC   C1A13767  40.813  29.898   8.550
 4140POPC   D2A13768  40.743  29.885   8.250
 4140POPC   C3A13769  40.801  29.884   7.950
 4140POPC   C4A13770  40.785  29.939   7.650
 4140POPC   C1B13771  40.911  30.140   8.550
 4140POPC   C2B13772  40.833  30.207   8.250
 4140POPC   C3B13773  40.864  30.152   7.950
 4140POPC   C4B13774  40.874  30.114   7.650
 4141POPC   NC313775  37.715  12.849   9.450
 4141POPC   PO413776  37.671  12.888   9.150
 4141POPC   GL113777  37.728  12.825   8.850
 4141POPC   GL213778  37.750  12.733   8.850
 4141POPC   C1A13779  37.644  12.812   8.550
 4141POPC   D2A13780  37.714  12.862   8.250
 4141POPC   C3A13781  37.647  12.851   7.950
 4141POPC   C4A13782  37.707  12.803   7.650
 4141POPC   C1B13783  37.892  12.697   8.550
 4141POPC   C2B13784  37.912  12.670   8.250
 4141POPC   C3B13785  37.874  12.698   7.950
 4141POPC   C4B13786  37.919  12.711   7.650
 4142POPC   NC313787   5.821  19.086   9.450
 4142POPC   PO413788   5.873  19.026   9.150
 4142POPC   GL113789   5.911  19.063   8.850
 4142POPC   GL213790   5.936  19.107   8.850
 4142POPC   C1A13791   5.894  19.070   8.550
 4142POPC   D2A13792   5.872  19.029   8.250
 4142POPC   C3A13793   5.912  19.043   7.950
 4142POPC   C4A13794   5.909  19.089   7.650
 4142POPC   C1B13795   6.046  19.237   8.550
 4142POPC   C2B13796   6.096  19.234   8.250
 4142POPC   C3B13797   6.070  19.191   7.950
 4142POPC   C4B13798   6.077  19.222   7.650
 4143POPC   NC313799  41.583   1.241   9.450
 4143POPC   PO413800  41.603   1.252   9.150
 4143POPC   GL113801  41.568   1.193   8.850
 4143POPC   GL213802  41.661   1.172   8.850
 4143POPC   C1A13803  41.595   1.207   8.550
 4143POPC   D2A13804  41.558   1.188   8.250
 4143POPC   C3A13805  41.524   1.193   7.950
 4143POPC   C4A13806  41.511   1.166   7.650
 4143POPC   C1B13807  41.774   1.157   8.550
 4143POPC   C2B13808  41.829   1.147   8.250
 4143POPC   C3B13809  41.837   1.152   7.950
 4143POPC   C4B13810  41.757   1.111   7.650
 4144POPC   NC313811  43.153  43.113   9.450
 4144POPC   PO413812  43.135  43.157   9.150
 4144POPC   GL113813  43.099  43.117   8.850
 4144POPC   GL213814  42.991  43.212   8.850
 4144POPC   C1A13815  43.122  43.080   8.550
 4144POPC   D2A13816  43.103  43.084   8.250
 4144POPC   C3A13817  43.131  43.157   7.950
 4144POPC   C4A13818  43.064  43.122   7.650
 4144POPC   C1B13819  42.940  43.299   8.550
 4144POPC   C2B13820  42.879  43.287   8.250
 4144POPC   C3B13821  42.930  43.249   7.950
 4144POPC   C4B13822  42.947  43.298   7.650
 4145POPC   NC313823  33.797   0.415   9.450
 4145POPC   PO413824  33.752   0.478   9.150
 4145POPC   GL113825  33.814   0.447   8.850
 4145POPC   GL213826  33.660   0.436   8.850
 4145POPC   C1A13827  33.773   0.454   8.550
 4145POPC   D2A13828  33.807   0.390   8.250
 4145POPC   C3A13829  33.804   0.451   7.950
 4145POPC   C4A13830  33.753   0.470   7.650
 4145POPC   C1B13831  33.573   0.446   8.550
 4145POPC   C2B13832  33.565   0.450   8.250
 4145POPC   C3B13833  33.578   0.529   7.950
 4145POPC   C4B13834  33.560   0.486   7.650
 4146POPC   NC313835   3.501  43.903   9.450
 4146POPC   PO413836   3.521  43.896   9.150
 4146POPC   GL113837   3.496  43.873   8.850
 4146POPC   GL213838   3.476  43.795   8.850
 4146POPC   C1A13839   3.562  43.906   8.550
 4146POPC   D2A13840   3.521  43.885   8.250
 4146POPC   C3A13841   3.586  43.868   7.950
 4146POPC   C4A13842   3.552  43.870   7.650
 4146POPC   C1B13843   3.487  43.666   8.550
 4146POPC   C2B13844   3.417  43.617   8.250
 4146POPC   C3B13845   3.407  43.615   7.950
 4146POPC   C4B13846   3.433  43.637   7.650
 4147POPC   NC313847   3.585  27.574   9.450
 4147POPC   PO413848   3.569  27.551   9.150
 4147POPC   GL113849   3.561  27.582   8.850
 4147POPC   GL213850   3.633  27.701   8.850
 4147POPC   C1A13851   3.523  27.566   8.550
 4147POPC   D2A13852   3.493  27.595   8.250
 4147POPC   C3A13853   3.565  27.610   7.950
 4147POPC   C4A13854   3.548  27.570   7.650
 4147POPC   C1B13855   3.763  27.787   8.550
 4147POPC   C2B13856   3.733  27.776   8.250
 4147POPC   C3B13857   3.771  27.792   7.950
 4147POPC   C4B13858   3.728  27.747   7.650
 4148POPC   NC313859   2.013  42.308   9.450
 4148POPC   PO413860   1.945  42.286   9.150
 4148POPC   GL113861   2.032  42.334   8.850
 4148POPC   GL213862   1.902  42.398   8.850
 4148POPC   C1A13863   1.955  42.345   8.550
 4148POPC   D2A13864   1.948  42.322   8.250
 4148POPC   C3A13865   2.035  42.318   7.950
 4148POPC   C4A13866   2.019  42.302   7.650
 4148POPC   C1B13867   1.750  42.431   8.550
 4148POPC   C2B13868   1.771  42.448   8.250
 4148POPC   C3B13869   1.775  42.411   7.950
 4148POPC   C4B13870   1.803  42.456   7.650
 4149POPC   NC313871  22.198  14.406   9.450
 4149POPC   PO413872  22.166  14.448   9.150
 4149POPC   GL113873  22.115  14.365   8.850
 4149POPC   GL213874  22.275  14.359   8.850
 4149POPC   C1A13875  22.154  14.414   8.550
 4149POPC   D2A13876  22.122  14.402   8.250
 4149POPC   C3A13877  22.211  14.367   7.950
 4149POPC   C4A13878  22.192  14.359   7.650
 4149POPC   C1B13879  22.412  14.355   8.550
 4149POPC   C2B13880  22.424  14.408   8.250
 4149POPC   C3B13881  22.362  14.392   7.950
 4149POPC   C4B13882  22.368  14.419   7.650
 4150POPC   NC313883  41.545  39.214   9.450
 4150POPC   PO413884  41.556  39.189   9.150
 4150POPC   GL113885  41.596  39.266   8.850
 4150POPC   GL213886  41.482  39.362   8.850
 4150POPC   C1A13887  41.539  39.265   8.550
 4150POPC   D2A13888  41.565  39.225   8.250
 4150POPC   C3A13889  41.587  39.203   7.950
 4150POPC   C4A13890  41.520  39.221   7.650
 4150POPC   C1B13891  41.495  39.426   8.550
 4150POPC   C2B13892  41.459  39.473   8.250
 4150POPC   C3B13893  41.515  39.503   7.950
 4150POPC   C4B13894  41.524  39.475   7.650
 4151POPC   NC313895  41.539   8.965   9.450
 4151POPC   PO413896  41.580   8.962   9.150
 4151POPC   GL113897  41.529   8.980   8.850
 4151POPC   GL213898  41.486   8.815   8.850
 4151POPC   C1A13899  41.559   9.016   8.550
 4151POPC   D2A13900  41.538   8.982   8.250
 4151POPC   C3A13901  41.567   9.013   7.950
 4151POPC   C4A13902  41.554   9.013   7.650
 4151POPC   C1B13903  41.474   8.717   8.550
 4151POPC   C2B13904  41.475   8.692   8.250
 4151POPC   C3B13905  41.536   8.687   7.950
 4151POPC   C4B13906  41.528   8.701   7.650
 4152POPC   NC313907   3.533  19.815   9.450
 4152POPC   PO413908   3.509  19.834   9.150
 4152POPC   GL113909   3.568  19.790   8.850
 4152POPC   GL213910   3.616  19.691   8.850
 4152POPC   C1A13911   3.565  19.851   8.550
 4152POPC   D2A13912   3.564  19.849   8.250
 4152POPC   C3A13913   3.496  19.874   7.950
 4152POPC   C4A13914   3.516  19.872   7.650
 4152POPC   C1B13915   3.631  19.606   8.550
 4152POPC   C2B13916   3.679  19.605   8.250
 4152POPC   C3B13917   3.645  19.643   7.950
 4152POPC   C4B13918   3.693  19.620   7.650
 4153POPC   NC313919  19.856  36.855   9.450
 4153POPC   PO413920  19.876  36.891   9.150
 4153POPC   GL113921  19.821  36.908   8.850
 4153POPC   GL213922  19.762  36.854   8.850
 4153POPC   C1A13923  19.829  36.923   8.550
 4153POPC   D2A13924  19.822  36.867   8.250
 4153POPC   C3A13925  19.864  36.942   7.950
 4153POPC   C4A13926  19.799  36.926   7.650
 4153POPC   C1B13927  19.590  36.793   8.550
 4153POPC   C2B13928  19.594  36.823   8.250
 4153POPC   C3B13929  19.601  36.820   7.950
 4153POPC   C4B13930  19.660  36.815   7.650
 4154POPC   NC313931   1.993  44.704   9.450
 4154POPC   PO413932   1.974  44.648   9.150
 4154POPC   GL113933   2.032  44.615   8.850
 4154POPC   GL213934   2.095  44.689   8.850
 4154POPC   C1A13935   2.003  44.627   8.550
 4154POPC   D2A13936   2.021  44.697   8.250
 4154POPC   C3A13937   2.030  44.619   7.950
 4154POPC   C4A13938   2.034  44.688   7.650
 4154POPC   C1B13939   2.282  44.640   8.550
 4154POPC   C2B13940   2.233  44.608   8.250
 4154POPC   C3B13941   2.256  44.672   7.950
 4154POPC   C4B13942   2.265  44.631   7.650
 4155POPC   NC313943   4.300  12.034   9.450
 4155POPC   PO413944   4.318  12.094   9.150
 4155POPC   GL113945   4.346  12.080   8.850
 4155POPC   GL213946   4.483  12.100   8.850
 4155POPC   C1A13947   4.351  12.068   8.550
 4155POPC   D2A13948   4.272  12.100   8.250
 4155POPC   C3A13949   4.324  12.083   7.950
 4155POPC   C4A13950   4.270  12.087   7.650
 4155POPC   C1B13951   4.532  12.072   8.550
 4155POPC   C2B13952   4.521  12.074   8.250
 4155POPC   C3B13953   4.529  12.068   7.950
 4155POPC   C4B13954   4.553  12.003   7.650
 4156POPC   NC313955  23.762  29.175   9.450
 4156POPC   PO413956  23.762  29.148   9.150
 4156POPC   GL113957  23.683  29.163   8.850
 4156POPC   GL213958  23.620  29.111   8.850
 4156POPC   C1A13959  23.683  29.144   8.550
 4156POPC   D2A13960  23.675  29.131   8.250
 4156POPC   C3A13961  23.744  29.176   7.950
 4156POPC   C4A13962  23.711  29.171   7.650
 4156POPC   C1B13963  23.478  29.031   8.550
 4156POPC   C2B13964  23.442  29.015   8.250
 4156POPC   C3B13965  23.515  29.091   7.950
 4156POPC   C4B13966  23.525  29.034   7.650
 4157POPC   NC313967  44.625  27.545   9.450
 4157POPC   PO413968  44.711  27.556   9.150
 4157POPC   GL113969  44.706  27.571   8.850
 4157POPC   GL213970  44.677  27.751   8.850
 4157POPC   C1A13971  44.615  27.604   8.550
 4157POPC   D2A13972  44.649  27.569   8.250
 4157POPC   C3A13973  44.699  27.566   7.950
 4157POPC   C4A13974  44.660  27.551   7.650
 4157POPC   C1B13975  44.758  27.863   8.550
 4157POPC   C2B13976  44.690  27.844   8.250
 4157POPC   C3B13977  44.755  27.857   7.950
 4157POPC   C4B13978  44.691  27.864   7.650
 4158POPC   NC313979  32.200   5.865   9.450
 4158POPC   PO413980  32.210   5.914   9.150
 4158POPC   GL113981  32.235   5.862   8.850
 4158POPC   GL213982  32.320   5.815   8.850
 4158POPC   C1A13983  32.277   5.907   8.550
 4158POPC   D2A13984  32.213   5.845   8.250
 4158POPC   C3A13985  32.226   5.847   7.950
 4158POPC   C4A13986  32.283   5.912   7.650
 4158POPC   C1B13987  32.490   5.695   8.550
 4158POPC   C2B13988  32.455   5.721   8.250
 4158POPC   C3B13989  32.470   5.696   7.950
 4158POPC   C4B13990  32.479   5.744   7.650
 4159POPC   NC313991  39.212  35.384   9.450
 4159POPC   PO413992  39.255  35.385   9.150
 4159POPC   GL113993  39.269  35.322   8.850
 4159POPC   GL213994  39.153  35.275   8.850
 4159POPC   C1A13995  39.251  35.315   8.550
 4159POPC   D2A13996  39.222  35.388   8.250
 4159POPC   C3A13997  39.207  35.362   7.950
 4159POPC   C4A13998  39.268  35.392   7.650
 4159POPC   C1B13999  39.035  35.278   8.550
 4159POPC   C2B14000  39.013  35.217   8.250
 4159POPC   C3B14001  39.006  35.307   7.950
 4159POPC   C4B14002  39.033  35.269   7.650
 4160POPC   NC314003   6.676  14.399   9.450
 4160POPC   PO414004   6.632  14.387   9.150
 4160POPC   GL114005   6.659  14.444   8.850
 4160POPC   GL214006   6.813  14.423   8.850
 4160POPC   C1A14007   6.683  14.420   8.550
 4160POPC   D2A14008   6.644  14.451   8.250
 4160POPC   C3A14009   6.659  14.366   7.950
 4160POPC   C4A14010   6.618  14.451   7.650
 4160POPC   C1B14011   6.886  14.406   8.550
 4160POPC   C2B14012   6.906  14.458   8.250
 4160POPC   C3B14013   6.885  14.478   7.950
 4160POPC   C4B14014   6.850  14.446   7.650
 4161POPC   NC314015  30.740   6.690   9.450
 4161POPC   PO414016  30.676   6.645   9.150
 4161POPC   GL114017  30.693   6.692   8.850
 4161POPC   GL214018  30.601   6.685   8.850
 4161POPC   C1A14019  30.672   6.627   8.550
 4161POPC   D2A14020  30.671   6.670   8.250
 4161POPC   C3A14021  30.706   6.639   7.950
 4161POPC   C4A14022  30.705   6.648   7.650
 4161POPC   C1B14023  30.553   6.847   8.550
 4161POPC   C2B14024  30.472   6.809   8.250
 4161POPC   C3B14025  30.543   6.843   7.950
 4161POPC   C4B14026  30.459   6.769   7.650
 4162POPC   NC314027   2.004  32.233   9.450
 4162POPC   PO414028   2.023  32.268   9.150
 4162POPC   GL114029   1.955  32.284   8.850
 4162POPC   GL214030   2.018  32.418   8.850
 4162POPC   C1A14031   1.991  32.270   8.550
 4162POPC   D2A14032   1.944  32.223   8.250
 4162POPC   C3A14033   1.962  32.205   7.950
 4162POPC   C4A14034   2.004  32.250   7.650
 4162POPC   C1B14035   1.992  32.470   8.550
 4162POPC   C2B14036   2.043  32.513   8.250
 4162POPC   C3B14037   2.073  32.530   7.950
 4162POPC   C4B14038   2.042  32.486   7.650
 4163POPC   NC314039  34.602  15.169   9.450
 4163POPC   PO414040  34.555  15.219   9.150
 4163POPC   GL114041  34.582  15.186   8.850
 4163POPC   GL214042  34.495  15.109   8.850
 4163POPC   C1A14043  34.537  15.162   8.550
 4163POPC   D2A14044  34.592  15.187   8.250
 4163POPC   C3A14045  34.587  15.205   7.950
 4163POPC   C4A14046  34.606  15.184   7.650
 4163POPC   C1B14047  34.375  14.978   8.550
 4163POPC   C2B14048  34.366  15.012   8.250
 4163POPC   C3B14049  34.360  15.009   7.950
 4163POPC   C4B14050  34.374  15.016   7.650
 4164POPC   NC314051  33.777   4.301   9.450
 4164POPC   PO414052  33.848   4.355   9.150
 4164POPC   GL114053  33.818   4.349   8.850
 4164POPC   GL214054  33.888   4.377   8.850
 4164POPC   C1A14055  33.811   4.286   8.550
 4164POPC   D2A14056  33.837   4.318   8.250
 4164POPC   C3A14057  33.769   4.303   7.950
 4164POPC   C4A14058  33.807   4.306   7.650
 4164POPC   C1B14059  34.033   4.366   8.550
 4164POPC   C2B14060  34.082   4.377   8.250
 4164POPC   C3B14061  34.063   4.437   7.950
 4164POPC   C4B14062  34.040   4.433   7.650
 4165POPC   NC314063  13.635  31.508   9.450
 4165POPC   PO414064  13.636  31.465   9.150
 4165POPC   GL114065  13.631  31.451   8.850
 4165POPC   GL214066  13.726  31.578   8.850
 4165POPC   C1A14067  13.645  31.471   8.550
 4165POPC   D2A14068  13.630  31.510   8.250
 4165POPC   C3A14069  13.607  31.434   7.950
 4165POPC   C4A14070  13.663  31.462   7.650
 4165POPC   C1B14071  13.798  31.593   8.550
 4165POPC   C2B14072  13.776  31.632   8.250
 4165POPC   C3B14073  13.768  31.656   7.950
 4165POPC   C4B14074  13.812  31.671   7.650
 4166POPC   NC314075  12.804  36.867   9.450
 4166POPC   PO414076  12.816  36.877   9.150
 4166POPC   GL114077  12.875  36.942   8.850
 4166POPC   GL214078  12.858  37.036   8.850
 4166POPC   C1A14079  12.816  36.934   8.550
 4166POPC   D2A14080  12.851  36.893   8.250
 4166POPC   C3A14081  12.808  36.906   7.950
 4166POPC   C4A14082  12.839  36.860   7.650
 4166POPC   C1B14083  12.843  37.139   8.550
 4166POPC   C2B14084  12.862  37.155   8.250
 4166POPC   C3B14085  12.904  37.124   7.950
 4166POPC   C4B14086  12.890  37.110   7.650
 4167POPC   NC314087  41.560  33.030   9.450
 4167POPC   PO414088  41.604  33.005   9.150
 4167POPC   GL114089  41.577  33.041   8.850
 4167POPC   GL214090  41.708  33.051   8.850
 4167POPC   C1A14091  41.588  32.993   8.550
 4167POPC   D2A14092  41.577  33.068   8.250
 4167POPC   C3A14093  41.527  32.977   7.950
 4167POPC   C4A14094  41.578  32.982   7.650
 4167POPC   C1B14095  41.804  33.107   8.550
 4167POPC   C2B14096  41.758  33.068   8.250
 4167POPC   C3B14097  41.810  33.133   7.950
 4167POPC   C4B14098  41.831  33.103   7.650
 4168POPC   NC314099  41.577  22.150   9.450
 4168POPC   PO414100  41.530  22.151   9.150
 4168POPC   GL114101  41.605  22.138   8.850
 4168POPC   GL214102  41.439  22.261   8.850
 4168POPC   C1A14103  41.568  22.159   8.550
 4168POPC   D2A14104  41.548  22.171   8.250
 4168POPC   C3A14105  41.542  22.194   7.950
 4168POPC   C4A14106  41.559  22.208   7.650
 4168POPC   C1B14107  41.364  22.402   8.550
 4168POPC   C2B14108  41.384  22.332   8.250
 4168POPC   C3B14109  41.378  22.353   7.950
 4168POPC   C4B14110  41.356  22.370   7.650
 4169POPC   NC314111  31.487  16.778   9.450
 4169POPC   PO414112  31.488  16.779   9.150
 4169POPC   GL114113  31.476  16.683   8.850
 4169POPC   GL214114  31.427  16.877   8.850
 4169POPC   C1A14115  31.441  16.770   8.550
 4169POPC   D2A14116  31.493  16.756   8.250
 4169POPC   C3A14117  31.462  16.762   7.950
 4169POPC   C4A14118  31.492  16.757   7.650
 4169POPC   C1B14119  31.436  16.954   8.550
 4169POPC   C2B14120  31.458  16.938   8.250
 4169POPC   C3B14121  31.453  16.932   7.950
 4169POPC   C4B14122  31.391  16.930   7.650
 4170POPC   NC314123  40.831  31.438   9.450
 4170POPC   PO414124  40.779  31.522   9.150
 4170POPC   GL114125  40.747  31.491   8.850
 4170POPC   GL214126  40.653  31.430   8.850
 4170POPC   C1A14127  40.812  31.442   8.550
 4170POPC   D2A14128  40.751  31.460   8.250
 4170POPC   C3A14129  40.822  31.423   7.950
 4170POPC   C4A14130  40.751  31.456   7.650
 4170POPC   C1B14131  40.591  31.394   8.550
 4170POPC   C2B14132  40.580  31.413   8.250
 4170POPC   C3B14133  40.511  31.366   7.950
 4170POPC   C4B14134  40.565  31.356   7.650
 4171POPC   NC314135  29.927  17.510   9.450
 4171POPC   PO414136  29.928  17.492   9.150
 4171POPC   GL114137  29.877  17.480   8.850
 4171POPC   GL214138  29.836  17.506   8.850
 4171POPC   C1A14139  29.915  17.501   8.550
 4171POPC   D2A14140  29.970  17.539   8.250
 4171POPC   C3A14141  29.960  17.535   7.950
 4171POPC   C4A14142  29.884  17.541   7.650
 4171POPC   C1B14143  29.666  17.377   8.550
 4171POPC   C2B14144  29.648  17.411   8.250
 4171POPC   C3B14145  29.701  17.451   7.950
 4171POPC   C4B14146  29.730  17.389   7.650
 4172POPC   NC314147  20.563  23.749   9.450
 4172POPC   PO414148  20.582  23.712   9.150
 4172POPC   GL114149  20.568  23.743   8.850
 4172POPC   GL214150  20.523  23.619   8.850
 4172POPC   C1A14151  20.613  23.717   8.550
 4172POPC   D2A14152  20.575  23.711   8.250
 4172POPC   C3A14153  20.599  23.684   7.950
 4172POPC   C4A14154  20.566  23.753   7.650
 4172POPC   C1B14155  20.425  23.584   8.550
 4172POPC   C2B14156  20.409  23.604   8.250
 4172POPC   C3B14157  20.397  23.600   7.950
 4172POPC   C4B14158  20.374  23.548   7.650
 4173POPC   NC314159  36.157  38.424   9.450
 4173POPC   PO414160  36.104  38.446   9.150
 4173POPC   GL114161  36.103  38.498   8.850
 4173POPC   GL214162  36.256  38.370   8.850
 4173POPC   C1A14163  36.159  38.454   8.550
 4173POPC   D2A14164  36.108  38.487   8.250
 4173POPC   C3A14165  36.139  38.417   7.950
 4173POPC   C4A14166  36.116  38.422   7.650
 4173POPC   C1B14167  36.307  38.246   8.550
 4173POPC   C2B14168  36.340  38.284   8.250
 4173POPC   C3B14169  36.353  38.329   7.950
 4173POPC   C4B14170  36.354  38.319   7.650
 4174POPC   NC314171   6.603   5.059   9.450
 4174POPC   PO414172   6.630   5.077   9.150
 4174POPC   GL114173   6.675   5.099   8.850
 4174POPC   GL214174   6.782   5.140   8.850
 4174POPC   C1A14175   6.688   5.094   8.550
 4174POPC   D2A14176   6.601   5.068   8.250
 4174POPC   C3A14177   6.676   5.102   7.950
 4174POPC   C4A14178   6.689   5.075   7.650
 4174POPC   C1B14179   6.938   5.157   8.550
 4174POPC   C2B14180   6.900   5.124   8.250
 4174POPC   C3B14181   6.906   5.109   7.950
 4174POPC   C4B14182   6.902   5.070   7.650
 4175POPC   NC314183  17.468  19.097   9.450
 4175POPC   PO414184  17.501  19.088   9.150
 4175POPC   GL114185  17.462  19.048   8.850
 4175POPC   GL214186  17.554  18.949   8.850
 4175POPC   C1A14187  17.544  19.057   8.550
 4175POPC   D2A14188  17.493  19.012   8.250
 4175POPC   C3A14189  17.527  19.014   7.950
 4175POPC   C4A14190  17.467  19.025   7.650
 4175POPC   C1B14191  17.732  18.876   8.550
 4175POPC   C2B14192  17.686  18.875   8.250
 4175POPC   C3B14193  17.674  18.852   7.950
 4175POPC   C4B14194  17.720  18.890   7.650
 4176POPC   NC314195  29.118  32.291   9.450
 4176POPC   PO414196  29.137  32.245   9.150
 4176POPC   GL114197  29.110  32.293   8.850
 4176POPC   GL214198  29.213  32.126   8.850
 4176POPC   C1A14199  29.180  32.275   8.550
 4176POPC   D2A14200  29.101  32.226   8.250
 4176POPC   C3A14201  29.122  32.270   7.950
 4176POPC   C4A14202  29.184  32.258   7.650
 4176POPC   C1B14203  29.198  32.006   8.550
 4176POPC   C2B14204  29.245  32.037   8.250
 4176POPC   C3B14205  29.195  32.028   7.950
 4176POPC   C4B14206  29.215  32.017   7.650
 4177POPC   NC314207  18.277  30.741   9.450
 4177POPC   PO414208  18.305  30.677   9.150
 4177POPC   GL114209  18.298  30.727   8.850
 4177POPC   GL214210  18.250  30.829   8.850
 4177POPC   C1A14211  18.237  30.667   8.550
 4177POPC   D2A14212  18.289  30.698   8.250
 4177POPC   C3A14213  18.236  30.701   7.950
 4177POPC   C4A14214  18.275  30.729   7.650
 4177POPC   C1B14215  18.214  30.969   8.550
 4177POPC   C2B14216  18.294  30.981   8.250
 4177POPC   C3B14217  18.303  30.941   7.950
 4177POPC   C4B14218  18.263  30.949   7.650
 4178POPC   NC314219   8.221  37.663   9.450
 4178POPC   PO414220   8.161  37.652   9.150
 4178POPC   GL114221   8.223  37.671   8.850
 4178POPC   GL214222   8.122  37.595   8.850
 4178POPC   C1A14223   8.185  37.663   8.550
 4178POPC   D2A14224   8.202  37.716   8.250
 4178POPC   C3A14225   8.240  37.668   7.950
 4178POPC   C4A14226   8.192  37.675   7.650
 4178POPC   C1B14227   8.012  37.523   8.550
 4178POPC   C2B14228   7.944  37.590   8.250
 4178POPC   C3B14229   7.991  37.519   7.950
 4178POPC   C4B14230   7.944  37.537   7.650
 4179POPC   NC314231  32.248  26.856   9.450
 4179POPC   PO414232  32.279  26.792   9.150
 4179POPC   GL114233  32.226  26.836   8.850
 4179POPC   GL214234  32.311  26.908   8.850
 4179POPC   C1A14235  32.202  26.787   8.550
 4179POPC   D2A14236  32.239  26.829   8.250
 4179POPC   C3A14237  32.272  26.780   7.950
 4179POPC   C4A14238  32.278  26.840   7.650
 4179POPC   C1B14239  32.412  27.018   8.550
 4179POPC   C2B14240  32.462  27.015   8.250
 4179POPC   C3B14241  32.438  27.023   7.950
 4179POPC   C4B14242  32.481  26.938   7.650
 4180POPC   NC314243  40.811  41.593   9.450
 4180POPC   PO414244  40.800  41.527   9.150
 4180POPC   GL114245  40.767  41.542   8.850
 4180POPC   GL214246  40.871  41.531   8.850
 4180POPC   C1A14247  40.798  41.562   8.550
 4180POPC   D2A14248  40.832  41.513   8.250
 4180POPC   C3A14249  40.750  41.560   7.950
 4180POPC   C4A14250  40.804  41.516   7.650
 4180POPC   C1B14251  41.060  41.556   8.550
 4180POPC   C2B14252  41.075  41.546   8.250
 4180POPC   C3B14253  41.049  41.525   7.950
 4180POPC   C4B14254  40.996  41.568   7.650
 4181POPC   NC314255   2.750  20.651   9.450
 4181POPC   PO414256   2.791  20.607   9.150
 4181POPC   GL114257   2.780  20.591   8.850
 4181POPC   GL214258   2.858  20.513   8.850
 4181POPC   C1A14259   2.747  20.619   8.550
 4181POPC   D2A14260   2.790  20.605   8.250
 4181POPC   C3A14261   2.752  20.653   7.950
 4181POPC   C4A14262   2.794  20.617   7.650
 4181POPC   C1B14263   2.890  20.360   8.550
 4181POPC   C2B14264   2.840  20.387   8.250
 4181POPC   C3B14265   2.859  20.390   7.950
 4181POPC   C4B14266   2.883  20.410   7.650
 4182POPC   NC314267   8.975  29.133   9.450
 4182POPC   PO414268   8.939  29.138   9.150
 4182POPC   GL114269   8.955  29.159   8.850
 4182POPC   GL214270   8.809  29.209   8.850
 4182POPC   C1A14271   9.011  29.146   8.550
 4182POPC   D2A14272   9.004  29.182   8.250
 4182POPC   C3A14273   9.013  29.124   7.950
 4182POPC   C4A14274   9.013  29.128   7.650
 4182POPC   C1B14275   8.758  29.151   8.550
 4182POPC   C2B14276   8.770  29.176   8.250
 4182POPC   C3B14277   8.676  29.130   7.950
 4182POPC   C4B14278   8.774  29.179   7.650
 4183POPC   NC314279  27.550  17.475   9.450
 4183POPC   PO414280  27.592  17.546   9.150
 4183POPC   GL114281  27.554  17.536   8.850
 4183POPC   GL214282  27.484  17.621   8.850
 4183POPC   C1A14283  27.604  17.466   8.550
 4183POPC   D2A14284  27.596  17.499   8.250
 4183POPC   C3A14285  27.632  17.486   7.950
 4183POPC   C4A14286  27.578  17.485   7.650
 4183POPC   C1B14287  27.418  17.689   8.550
 4183POPC   C2B14288  27.438  17.739   8.250
 4183POPC   C3B14289  27.445  17.740   7.950
 4183POPC   C4B14290  27.478  17.688   7.650
 4184POPC   NC314291  19.046  26.060   9.450
 4184POPC   PO414292  19.025  26.035   9.150
 4184POPC   GL114293  19.086  26.059   8.850
 4184POPC   GL214294  18.928  25.981   8.850
 4184POPC   C1A14295  19.079  26.021   8.550
 4184POPC   D2A14296  19.064  26.089   8.250
 4184POPC   C3A14297  19.014  26.047   7.950
 4184POPC   C4A14298  19.058  26.028   7.650
 4184POPC   C1B14299  18.897  25.813   8.550
 4184POPC   C2B14300  18.905  25.847   8.250
 4184POPC   C3B14301  18.917  25.854   7.950
 4184POPC   C4B14302  18.867  25.835   7.650
 4185POPC   NC314303  42.288  25.296   9.450
 4185POPC   PO414304  42.289  25.273   9.150
 4185POPC   GL114305  42.300  25.314   8.850
 4185POPC   GL214306  42.418  25.155   8.850
 4185POPC   C1A14307  42.336  25.290   8.550
 4185POPC   D2A14308  42.341  25.236   8.250
 4185POPC   C3A14309  42.333  25.289   7.950
 4185POPC   C4A14310  42.352  25.287   7.650
 4185POPC   C1B14311  42.459  24.990   8.550
 4185POPC   C2B14312  42.393  25.058   8.250
 4185POPC   C3B14313  42.423  25.021   7.950
 4185POPC   C4B14314  42.410  25.069   7.650
 4186POPC   NC314315  22.119  28.336   9.450
 4186POPC   PO414316  22.116  28.320   9.150
 4186POPC   GL114317  22.143  28.362   8.850
 4186POPC   GL214318  22.284  28.313   8.850
 4186POPC   C1A14319  22.136  28.383   8.550
 4186POPC   D2A14320  22.194  28.320   8.250
 4186POPC   C3A14321  22.209  28.381   7.950
 4186POPC   C4A14322  22.118  28.412   7.650
 4186POPC   C1B14323  22.389  28.268   8.550
 4186POPC   C2B14324  22.431  28.296   8.250
 4186POPC   C3B14325  22.400  28.258   7.950
 4186POPC   C4B14326  22.367  28.319   7.650
 4187POPC   NC314327   8.943   8.987   9.450
 4187POPC   PO414328   8.975   8.971   9.150
 4187POPC   GL114329   8.940   8.956   8.850
 4187POPC   GL214330   8.995   9.101   8.850
 4187POPC   C1A14331   8.965   8.994   8.550
 4187POPC   D2A14332   8.945   8.996   8.250
 4187POPC   C3A14333   8.971   8.998   7.950
 4187POPC   C4A14334   9.002   9.009   7.650
 4187POPC   C1B14335   8.907   9.193   8.550
 4187POPC   C2B14336   8.949   9.246   8.250
 4187POPC   C3B14337   8.927   9.234   7.950
 4187POPC   C4B14338   8.914   9.241   7.650
 4188POPC   NC314339  11.288  42.368   9.450
 4188POPC   PO414340  11.343  42.366   9.150
 4188POPC   GL114341  11.285  42.328   8.850
 4188POPC   GL214342  11.393  42.248   8.850
 4188POPC   C1A14343  11.300  42.383   8.550
 4188POPC   D2A14344  11.350  42.341   8.250
 4188POPC   C3A14345  11.309  42.285   7.950
 4188POPC   C4A14346  11.305  42.334   7.650
 4188POPC   C1B14347  11.546  42.277   8.550
 4188POPC   C2B14348  11.525  42.275   8.250
 4188POPC   C3B14349  11.555  42.281   7.950
 4188POPC   C4B14350  11.542  42.290   7.650
 4189POPC   NC314351  33.070  19.018   9.450
 4189POPC   PO414352  33.057  19.024   9.150
 4189POPC   GL114353  32.975  19.044   8.850
 4189POPC   GL214354  33.085  18.915   8.850
 4189POPC   C1A14355  33.062  19.053   8.550
 4189POPC   D2A14356  32.997  19.073   8.250
 4189POPC   C3A14357  33.040  19.097   7.950
 4189POPC   C4A14358  33.046  19.013   7.650
 4189POPC   C1B14359  33.132  18.840   8.550
 4189POPC   C2B14360  33.058  18.790   8.250
 4189POPC   C3B14361  33.066  18.789   7.950
 4189POPC   C4B14362  33.062  18.788   7.650
 4190POPC   NC314363  17.460  22.115   9.450
 4190POPC   PO414364  17.522  22.113   9.150
 4190POPC   GL114365  17.549  22.202   8.850
 4190POPC   GL214366  17.591  22.136   8.850
 4190POPC   C1A14367  17.537  22.170   8.550
 4190POPC   D2A14368  17.501  22.159   8.250
 4190POPC   C3A14369  17.523  22.122   7.950
 4190POPC   C4A14370  17.466  22.136   7.650
 4190POPC   C1B14371  17.775  22.215   8.550
 4190POPC   C2B14372  17.733  22.184   8.250
 4190POPC   C3B14373  17.740  22.234   7.950
 4190POPC   C4B14374  17.736  22.153   7.650
 4191POPC   NC314375   9.753  11.297   9.450
 4191POPC   PO414376   9.778  11.277   9.150
 4191POPC   GL114377   9.756  11.309   8.850
 4191POPC   GL214378   9.582  11.317   8.850
 4191POPC   C1A14379   9.789  11.305   8.550
 4191POPC   D2A14380   9.746  11.253   8.250
 4191POPC   C3A14381   9.728  11.341   7.950
 4191POPC   C4A14382   9.778  11.318   7.650
 4191POPC   C1B14383   9.544  11.358   8.550
 4191POPC   C2B14384   9.518  11.327   8.250
 4191POPC   C3B14385   9.481  11.367   7.950
 4191POPC   C4B14386   9.521  11.308   7.650
 4192POPC   NC314387   5.842  26.029   9.450
 4192POPC   PO414388   5.882  25.995   9.150
 4192POPC   GL114389   5.910  26.085   8.850
 4192POPC   GL214390   5.820  25.923   8.850
 4192POPC   C1A14391   5.879  26.058   8.550
 4192POPC   D2A14392   5.846  26.026   8.250
 4192POPC   C3A14393   5.856  26.031   7.950
 4192POPC   C4A14394   5.867  26.075   7.650
 4192POPC   C1B14395   5.717  25.845   8.550
 4192POPC   C2B14396   5.689  25.926   8.250
 4192POPC   C3B14397   5.708  25.893   7.950
 4192POPC   C4B14398   5.680  25.837   7.650
 4193POPC   NC314399  11.255  33.751   9.450
 4193POPC   PO414400  11.273  33.788   9.150
 4193POPC   GL114401  11.255  33.837   8.850
 4193POPC   GL214402  11.316  33.644   8.850
 4193POPC   C1A14403  11.327  33.784   8.550
 4193POPC   D2A14404  11.337  33.844   8.250
 4193POPC   C3A14405  11.257  33.761   7.950
 4193POPC   C4A14406  11.296  33.796   7.650
 4193POPC   C1B14407  11.283  33.526   8.550
 4193POPC   C2B14408  11.332  33.596   8.250
 4193POPC   C3B14409  11.291  33.523   7.950
 4193POPC   C4B14410  11.244  33.596   7.650
 4194POPC   NC314411   1.261  25.258   9.450
 4194POPC   PO414412   1.204  25.222   9.150
 4194POPC   GL114413   1.210  25.273   8.850
 4194POPC   GL214414   1.139  25.291   8.850
 4194POPC   C1A14415   1.175  25.216   8.550
 4194POPC   D2A14416   1.232  25.313   8.250
 4194POPC   C3A14417   1.192  25.294   7.950
 4194POPC   C4A14418   1.253  25.296   7.650
 4194POPC   C1B14419   0.981  25.333   8.550
 4194POPC   C2B14420   0.970  25.310   8.250
 4194POPC   C3B14421   0.978  25.338   7.950
 4194POPC   C4B14422   0.994  25.325   7.650
 4195POPC   NC314423  29.162   4.302   9.450
 4195POPC   PO414424  29.137   4.362   9.150
 4195POPC   GL114425  29.122   4.355   8.850
 4195POPC   GL214426  29.208   4.226   8.850
 4195POPC   C1A14427  29.134   4.367   8.550
 4195POPC   D2A14428  29.127   4.294   8.250
 4195POPC   C3A14429  29.140   4.326   7.950
 4195POPC   C4A14430  29.173   4.305   7.650
 4195POPC   C1B14431  29.293   4.103   8.550
 4195POPC   C2B14432  29.375   4.130   8.250
 4195POPC   C3B14433  29.298   4.137   7.950
 4195POPC   C4B14434  29.340   4.139   7.650
 4196POPC   NC314435  38.456   9.711   9.450
 4196POPC   PO414436  38.503   9.708   9.150
 4196POPC   GL114437  38.465   9.724   8.850
 4196POPC   GL214438  38.502   9.687   8.850
 4196POPC   C1A14439  38.452   9.767   8.550
 4196POPC   D2A14440  38.433   9.731   8.250
 4196POPC   C3A14441  38.446   9.773   7.950
 4196POPC   C4A14442  38.497   9.789   7.650
 4196POPC   C1B14443  38.531   9.530   8.550
 4196POPC   C2B14444  38.585   9.537   8.250
 4196POPC   C3B14445  38.585   9.551   7.950
 4196POPC   C4B14446  38.591   9.506   7.650
 4197POPC   NC314447   8.977   6.605   9.450
 4197POPC   PO414448   8.976   6.656   9.150
 4197POPC   GL114449   9.008   6.654   8.850
 4197POPC   GL214450   8.813   6.563   8.850
 4197POPC   C1A14451   9.010   6.660   8.550
 4197POPC   D2A14452   8.951   6.669   8.250
 4197POPC   C3A14453   9.010   6.606   7.950
 4197POPC   C4A14454   9.012   6.660   7.650
 4197POPC   C1B14455   8.770   6.522   8.550
 4197POPC   C2B14456   8.737   6.532   8.250
 4197POPC   C3B14457   8.727   6.586   7.950
 4197POPC   C4B14458   8.698   6.581   7.650
 4198POPC   NC314459  17.524  22.930   9.450
 4198POPC   PO414460  17.467  22.984   9.150
 4198POPC   GL114461  17.505  22.947   8.850
 4198POPC   GL214462  17.400  22.904   8.850
 4198POPC   C1A14463  17.515  22.933   8.550
 4198POPC   D2A14464  17.528  22.974   8.250
 4198POPC   C3A14465  17.492  22.948   7.950
 4198POPC   C4A14466  17.544  22.969   7.650
 4198POPC   C1B14467  17.286  22.862   8.550
 4198POPC   C2B14468  17.241  22.899   8.250
 4198POPC   C3B14469  17.224  22.895   7.950
 4198POPC   C4B14470  17.282  22.875   7.650
 4199POPC   NC314471  36.873  36.147   9.450
 4199POPC   PO414472  36.928  36.087   9.150
 4199POPC   GL114473  36.927  36.110   8.850
 4199POPC   GL214474  36.957  36.051   8.850
 4199POPC   C1A14475  36.933  36.102   8.550
 4199POPC   D2A14476  36.889  36.078   8.250
 4199POPC   C3A14477  36.921  36.125   7.950
 4199POPC   C4A14478  36.868  36.115   7.650
 4199POPC   C1B14479  37.009  35.931   8.550
 4199POPC   C2B14480  36.943  35.839   8.250
 4199POPC   C3B14481  36.944  35.893   7.950
 4199POPC   C4B14482  36.956  35.884   7.650
 4200POPC   NC314483  15.217  28.360   9.450
 4200POPC   PO414484  15.187  28.383   9.150
 4200POPC   GL114485  15.172  28.356   8.850
 4200POPC   GL214486  15.181  28.481   8.850
 4200POPC   C1A14487  15.142  28.341   8.550
 4200POPC   D2A14488  15.207  28.354   8.250
 4200POPC   C3A14489  15.173  28.416   7.950
 4200POPC   C4A14490  15.214  28.382   7.650
 4200POPC   C1B14491  15.161  28.632   8.550
 4200POPC   C2B14492  15.225  28.637   8.250
 4200POPC   C3B14493  15.162  28.656   7.950
 4200POPC   C4B14494  15.216  28.571   7.650
 4201POPC   NC314495  23.718  44.625   9.450
 4201POPC   PO414496  23.734  44.613   9.150
 4201POPC   GL114497  23.703  44.638   8.850
 4201POPC   GL214498  23.731  44.572   8.850
 4201POPC   C1A14499  23.764  44.679   8.550
 4201POPC   D2A14500  23.728  44.711   8.250
 4201POPC   C3A14501  23.741  44.658   7.950
 4201POPC   C4A14502  23.692  44.679   7.650
 4201POPC   C1B14503  23.718  44.383   8.550
 4201POPC   C2B14504  23.728  44.422   8.250
 4201POPC   C3B14505  23.680  44.455   7.950
 4201POPC   C4B14506  23.744  44.435   7.650
 4202POPC   NC314507  30.701  44.655   9.450
 4202POPC   PO414508  30.713  44.711   9.150
 4202POPC   GL114509  30.744  44.692   8.850
 4202POPC   GL214510  30.545  44.706   8.850
 4202POPC   C1A14511  30.670  44.629   8.550
 4202POPC   D2A14512  30.700  44.646   8.250
 4202POPC   C3A14513  30.745  44.660   7.950
 4202POPC   C4A14514  30.722  44.641   7.650
 4202POPC   C1B14515  30.478  44.803   8.550
 4202POPC   C2B14516  30.426  44.775   8.250
 4202POPC   C3B14517  30.467  44.820   7.950
 4202POPC   C4B14518  30.493  44.817   7.650
 4203POPC   NC314519  11.324   9.009   9.450
 4203POPC   PO414520  11.336   8.959   9.150
 4203POPC   GL114521  11.252   8.957   8.850
 4203POPC   GL214522  11.241   9.051   8.850
 4203POPC   C1A14523  11.298   9.011   8.550
 4203POPC   D2A14524  11.335   8.927   8.250
 4203POPC   C3A14525  11.322   9.021   7.950
 4203POPC   C4A14526  11.350   8.933   7.650
 4203POPC   C1B14527  11.041   9.062   8.550
 4203POPC   C2B14528  11.085   9.095   8.250
 4203POPC   C3B14529  11.068   9.103   7.950
 4203POPC   C4B14530  11.073   9.142   7.650
 4204POPC   NC314531  32.224  19.090   9.450
 4204POPC   PO414532  32.289  19.073   9.150
 4204POPC   GL114533  32.209  19.108   8.850
 4204POPC   GL214534  32.333  19.126   8.850
 4204POPC   C1A14535  32.237  19.101   8.550
 4204POPC   D2A14536  32.232  19.089   8.250
 4204POPC   C3A14537  32.199  19.105   7.950
 4204POPC   C4A14538  32.221  19.022   7.650
 4204POPC   C1B14539  32.517  19.189   8.550
 4204POPC   C2B14540  32.529  19.168   8.250
 4204POPC   C3B14541  32.460  19.173   7.950
 4204POPC   C4B14542  32.513  19.106   7.650
 4205POPC   NC314543   4.276  26.044   9.450
 4205POPC   PO414544   4.361  26.074   9.150
 4205POPC   GL114545   4.293  26.084   8.850
 4205POPC   GL214546   4.260  26.133   8.850
 4205POPC   C1A14547   4.307  26.039   8.550
 4205POPC   D2A14548   4.282  26.001   8.250
 4205POPC   C3A14549   4.267  26.046   7.950
 4205POPC   C4A14550   4.355  26.066   7.650
 4205POPC   C1B14551   4.157  26.269   8.550
 4205POPC   C2B14552   4.196  26.256   8.250
 4205POPC   C3B14553   4.214  26.283   7.950
 4205POPC   C4B14554   4.164  26.267   7.650
 4206POPC   NC314555  12.864  20.608   9.450
 4206POPC   PO414556  12.858  20.631   9.150
 4206POPC   GL114557  12.868  20.617   8.850
 4206POPC   GL214558  12.751  20.487   8.850
 4206POPC   C1A14559  12.817  20.619   8.550
 4206POPC   D2A14560  12.820  20.651   8.250
 4206POPC   C3A14561  12.802  20.621   7.950
 4206POPC   C4A14562  12.887  20.641   7.650
 4206POPC   C1B14563  12.668  20.437   8.550
 4206POPC   C2B14564  12.730  20.396   8.250
 4206POPC   C3B14565  12.718  20.454   7.950
 4206POPC   C4B14566  12.654  20.384   7.650
 4207POPC   NC314567   9.012   5.886   9.450
 4207POPC   PO414568   8.946   5.879   9.150
 4207POPC   GL114569   9.017   5.839   8.850
 4207POPC   GL214570   8.999   5.791   8.850
 4207POPC   C1A14571   8.926   5.901   8.550
 4207POPC   D2A14572   9.020   5.828   8.250
 4207POPC   C3A14573   8.973   5.911   7.950
 4207POPC   C4A14574   9.002   5.895   7.650
 4207POPC   C1B14575   8.969   5.609   8.550
 4207POPC   C2B14576   8.973   5.632   8.250
 4207POPC   C3B14577   9.012   5.578   7.950
 4207POPC   C4B14578   8.972   5.642   7.650
 4208POPC   NC314579  15.933  37.690   9.450
 4208POPC   PO414580  15.946  37.706   9.150
 4208POPC   GL114581  15.962  37.724   8.850
 4208POPC   GL214582  15.900  37.545   8.850
 4208POPC   C1A14583  15.943  37.656   8.550
 4208POPC   D2A14584  15.958  37.660   8.250
 4208POPC   C3A14585  15.998  37.705   7.950
 4208POPC   C4A14586  15.954  37.672   7.650
 4208POPC   C1B14587  15.844  37.454   8.550
 4208POPC   C2B14588  15.857  37.491   8.250
 4208POPC   C3B14589  15.860  37.461   7.950
 4208POPC   C4B14590  15.859  37.450   7.650
 4209POPC   NC314591  19.040  11.251   9.450
 4209POPC   PO414592  19.080  11.320   9.150
 4209POPC   GL114593  19.022  11.283   8.850
 4209POPC   GL214594  19.148  11.274   8.850
 4209POPC   C1A14595  19.084  11.302   8.550
 4209POPC   D2A14596  19.017  11.299   8.250
 4209POPC   C3A14597  19.012  11.297   7.950
 4209POPC   C4A14598  19.096  11.333   7.650
 4209POPC   C1B14599  19.237  11.160   8.550
 4209POPC   C2B14600  19.266  11.198   8.250
 4209POPC   C3B14601  19.300  11.220   7.950
 4209POPC   C4B14602  19.259  11.177   7.650
 4210POPC   NC314603  21.423  36.859   9.450
 4210POPC   PO414604  21.345  36.933   9.150
 4210POPC   GL114605  21.424  36.933   8.850
 4210POPC   GL214606  21.516  36.989   8.850
 4210POPC   C1A14607  21.434  36.891   8.550
 4210POPC   D2A14608  21.434  36.871   8.250
 4210POPC   C3A14609  21.342  36.859   7.950
 4210POPC   C4A14610  21.404  36.855   7.650
 4210POPC   C1B14611  21.599  37.100   8.550
 4210POPC   C2B14612  21.620  37.016   8.250
 4210POPC   C3B14613  21.594  37.077   7.950
 4210POPC   C4B14614  21.628  37.078   7.650
 4211POPC   NC314615  38.471  19.073   9.450
 4211POPC   PO414616  38.419  19.084   9.150
 4211POPC   GL114617  38.460  19.090   8.850
 4211POPC   GL214618  38.428  18.968   8.850
 4211POPC   C1A14619  38.437  19.065   8.550
 4211POPC   D2A14620  38.424  19.039   8.250
 4211POPC   C3A14621  38.438  19.018   7.950
 4211POPC   C4A14622  38.411  19.023   7.650
 4211POPC   C1B14623  38.373  18.790   8.550
 4211POPC   C2B14624  38.402  18.868   8.250
 4211POPC   C3B14625  38.401  18.849   7.950
 4211POPC   C4B14626  38.357  18.816   7.650
 4212POPC   NC314627  11.267  44.707   9.450
 4212POPC   PO414628  11.307  44.708   9.150
 4212POPC   GL114629  11.321  44.650   8.850
 4212POPC   GL214630  11.246  44.761   8.850
 4212POPC   C1A14631  11.312  44.687   8.550
 4212POPC   D2A14632  11.340  44.624   8.250
 4212POPC   C3A14633  11.330  44.662   7.950
 4212POPC   C4A14634  11.324  44.697   7.650
 4212POPC   C1B14635  11.149  44.862   8.550
 4212POPC   C2B14636  11.200  44.862   8.250
 4212POPC   C3B14637  11.165  44.868   7.950
 4212POPC   C4B14638  11.162  44.853   7.650
 4213POPC   NC314639  14.354   1.198   9.450
 4213POPC   PO414640  14.429   1.192   9.150
 4213POPC   GL114641  14.366   1.202   8.850
 4213POPC   GL214642  14.516   1.302   8.850
 4213POPC   C1A14643  14.379   1.193   8.550
 4213POPC   D2A14644  14.364   1.234   8.250
 4213POPC   C3A14645  14.426   1.261   7.950
 4213POPC   C4A14646  14.430   1.168   7.650
 4213POPC   C1B14647  14.618   1.292   8.550
 4213POPC   C2B14648  14.643   1.272   8.250
 4213POPC   C3B14649  14.613   1.347   7.950
 4213POPC   C4B14650  14.655   1.272   7.650
 4214POPC   NC314651   7.391  38.451   9.450
 4214POPC   PO414652   7.432  38.505   9.150
 4214POPC   GL114653   7.422  38.478   8.850
 4214POPC   GL214654   7.271  38.483   8.850
 4214POPC   C1A14655   7.377  38.494   8.550
 4214POPC   D2A14656   7.444  38.486   8.250
 4214POPC   C3A14657   7.408  38.419   7.950
 4214POPC   C4A14658   7.455  38.482   7.650
 4214POPC   C1B14659   7.195  38.427   8.550
 4214POPC   C2B14660   7.217  38.383   8.250
 4214POPC   C3B14661   7.150  38.420   7.950
 4214POPC   C4B14662   7.149  38.393   7.650
 4215POPC   NC314663  29.112  22.198   9.450
 4215POPC   PO414664  29.099  22.130   9.150
 4215POPC   GL114665  29.151  22.154   8.850
 4215POPC   GL214666  29.070  22.246   8.850
 4215POPC   C1A14667  29.169  22.201   8.550
 4215POPC   D2A14668  29.176  22.171   8.250
 4215POPC   C3A14669  29.154  22.131   7.950
 4215POPC   C4A14670  29.127  22.119   7.650
 4215POPC   C1B14671  28.901  22.278   8.550
 4215POPC   C2B14672  28.934  22.304   8.250
 4215POPC   C3B14673  28.902  22.287   7.950
 4215POPC   C4B14674  28.960  22.315   7.650
 4216POPC   NC314675  19.791  13.605   9.450
 4216POPC   PO414676  19.870  13.650   9.150
 4216POPC   GL114677  19.884  13.589   8.850
 4216POPC   GL214678  19.681  13.540   8.850
 4216POPC   C1A14679  19.857  13.657   8.550
 4216POPC   D2A14680  19.876  13.674   8.250
 4216POPC   C3A14681  19.831  13.644   7.950
 4216POPC   C4A14682  19.846  13.601   7.650
 4216POPC   C1B14683  19.630  13.544   8.550
 4216POPC   C2B14684  19.607  13.516   8.250
 4216POPC   C3B14685  19.610  13.488   7.950
 4216POPC   C4B14686  19.640  13.526   7.650
 4217POPC   NC314687  15.953  43.087   9.450
 4217POPC   PO414688  16.002  43.148   9.150
 4217POPC   GL114689  15.945  43.079   8.850
 4217POPC   GL214690  15.989  43.214   8.850
 4217POPC   C1A14691  15.942  43.089   8.550
 4217POPC   D2A14692  15.963  43.091   8.250
 4217POPC   C3A14693  15.969  43.095   7.950
 4217POPC   C4A14694  15.933  43.150   7.650
 4217POPC   C1B14695  16.168  43.272   8.550
 4217POPC   C2B14696  16.107  43.299   8.250
 4217POPC   C3B14697  16.100  43.295   7.950
 4217POPC   C4B14698  16.076  43.260   7.650
 4218POPC   NC314699   5.881   1.990   9.450
 4218POPC   PO414700   5.860   1.946   9.150
 4218POPC   GL114701   5.845   2.012   8.850
 4218POPC   GL214702   5.949   1.939   8.850
 4218POPC   C1A14703   5.825   1.960   8.550
 4218POPC   D2A14704   5.878   1.985   8.250
 4218POPC   C3A14705   5.825   2.019   7.950
 4218POPC   C4A14706   5.905   1.971   7.650
 4218POPC   C1B14707   6.138   1.884   8.550
 4218POPC   C2B14708   6.085   1.925   8.250
 4218POPC   C3B14709   6.095   1.939   7.950
 4218POPC   C4B14710   6.109   1.906   7.650
 4219POPC   NC314711  20.642  20.579   9.450
 4219POPC   PO414712  20.619  20.629   9.150
 4219POPC   GL114713  20.655  20.562   8.850
 4219POPC   GL214714  20.734  20.688   8.850
 4219POPC   C1A14715  20.647  20.595   8.550
 4219POPC   D2A14716  20.582  20.638   8.250
 4219POPC   C3A14717  20.630  20.645   7.950
 4219POPC   C4A14718  20.634  20.589   7.650
 4219POPC   C1B14719  20.748  20.824   8.550
 4219POPC   C2B14720  20.758  20.841   8.250
 4219POPC   C3B14721  20.784  20.825   7.950
 4219POPC   C4B14722  20.758  20.754   7.650
 4220POPC   NC314723  36.139   1.256   9.450
 4220POPC   PO414724  36.120   1.186   9.150
 4220POPC   GL114725  36.128   1.251   8.850
 4220POPC   GL214726  36.263   1.307   8.850
 4220POPC   C1A14727  36.130   1.184   8.550
 4220POPC   D2A14728  36.104   1.217   8.250
 4220POPC   C3A14729  36.106   1.185   7.950
 4220POPC   C4A14730  36.148   1.232   7.650
 4220POPC   C1B14731  36.345   1.354   8.550
 4220POPC   C2B14732  36.323   1.327   8.250
 4220POPC   C3B14733  36.328   1.329   7.950
 4220POPC   C4B14734  36.365   1.409   7.650
 4221POPC   NC314735  29.887  44.633   9.450
 4221POPC   PO414736  29.909  44.654   9.150
 4221POPC   GL114737  29.921  44.632   8.850
 4221POPC   GL214738  30.001  44.565   8.850
 4221POPC   C1A14739  29.879  44.636   8.550
 4221POPC   D2A14740  29.956  44.686   8.250
 4221POPC   C3A14741  29.882  44.671   7.950
 4221POPC   C4A14742  29.926  44.710   7.650
 4221POPC   C1B14743  30.044  44.426   8.550
 4221POPC   C2B14744  30.014  44.406   8.250
 4221POPC   C3B14745  30.041  44.458   7.950
 4221POPC   C4B14746  29.955  44.455   7.650
 4222POPC   NC314747  23.725   5.066   9.450
 4222POPC   PO414748  23.757   5.117   9.150
 4222POPC   GL114749  23.703   5.083   8.850
 4222POPC   GL214750  23.614   5.011   8.850
 4222POPC   C1A14751  23.700   5.060   8.550
 4222POPC   D2A14752  23.692   5.103   8.250
 4222POPC   C3A14753  23.723   5.072   7.950
 4222POPC   C4A14754  23.691   5.051   7.650
 4222POPC   C1B14755  23.487   4.938   8.550
 4222POPC   C2B14756  23.490   4.990   8.250
 4222POPC   C3B14757  23.504   4.932   7.950
 4222POPC   C4B14758  23.516   4.937   7.650
 4223POPC   NC314759  34.546  11.335   9.450
 4223POPC   PO414760  34.603  11.270   9.150
 4223POPC   GL114761  34.538  11.315   8.850
 4223POPC   GL214762  34.602  11.167   8.850
 4223POPC   C1A14763  34.621  11.316   8.550
 4223POPC   D2A14764  34.552  11.257   8.250
 4223POPC   C3A14765  34.537  11.322   7.950
 4223POPC   C4A14766  34.553  11.271   7.650
 4223POPC   C1B14767  34.538  11.054   8.550
 4223POPC   C2B14768  34.580  11.006   8.250
 4223POPC   C3B14769  34.581  11.054   7.950
 4223POPC   C4B14770  34.560  11.035   7.650
 4224POPC   NC314771  35.323  10.559   9.450
 4224POPC   PO414772  35.357  10.484   9.150
 4224POPC   GL114773  35.367  10.492   8.850
 4224POPC   GL214774  35.386  10.606   8.850
 4224POPC   C1A14775  35.331  10.524   8.550
 4224POPC   D2A14776  35.394  10.537   8.250
 4224POPC   C3A14777  35.345  10.477   7.950
 4224POPC   C4A14778  35.327  10.531   7.650
 4224POPC   C1B14779  35.450  10.799   8.550
 4224POPC   C2B14780  35.465  10.739   8.250
 4224POPC   C3B14781  35.377  10.733   7.950
 4224POPC   C4B14782  35.433  10.798   7.650
 4225POPC   NC314783  38.472  36.933   9.450
 4225POPC   PO414784  38.491  36.857   9.150
 4225POPC   GL114785  38.424  36.930   8.850
 4225POPC   GL214786  38.565  36.951   8.850
 4225POPC   C1A14787  38.434  36.947   8.550
 4225POPC   D2A14788  38.463  36.882   8.250
 4225POPC   C3A14789  38.499  36.861   7.950
 4225POPC   C4A14790  38.418  36.878   7.650
 4225POPC   C1B14791  38.680  36.900   8.550
 4225POPC   C2B14792  38.727  36.919   8.250
 4225POPC   C3B14793  38.739  36.878   7.950
 4225POPC   C4B14794  38.732  36.942   7.650
 4226POPC   NC314795  32.261  28.329   9.450
 4226POPC   PO414796  32.287  28.378   9.150
 4226POPC   GL114797  32.271  28.402   8.850
 4226POPC   GL214798  32.110  28.390   8.850
 4226POPC   C1A14799  32.274  28.380   8.550
 4226POPC   D2A14800  32.276  28.335   8.250
 4226POPC   C3A14801  32.222  28.409   7.950
 4226POPC   C4A14802  32.285  28.338   7.650
 4226POPC   C1B14803  32.013  28.453   8.550
 4226POPC   C2B14804  31.973  28.449   8.250
 4226POPC   C3B14805  32.017  28.498   7.950
 4226POPC   C4B14806  32.060  28.431   7.650
 4227POPC   NC314807   0.441   6.693   9.450
 4227POPC   PO414808   0.482   6.611   9.150
 4227POPC   GL114809   0.402   6.651   8.850
 4227POPC   GL214810   0.287   6.682   8.850
 4227POPC   C1A14811   0.479   6.651   8.550
 4227POPC   D2A14812   0.483   6.647   8.250
 4227POPC   C3A14813   0.484   6.689   7.950
 4227POPC   C4A14814   0.453   6.596   7.650
 4227POPC   C1B14815   0.217   6.677   8.550
 4227POPC   C2B14816   0.202   6.666   8.250
 4227POPC   C3B14817   0.160   6.714   7.950
 4227POPC   C4B14818   0.162   6.742   7.650
 4228POPC   NC314819   9.760   1.226   9.450
 4228POPC   PO414820   9.780   1.203   9.150
 4228POPC   GL114821   9.791   1.191   8.850
 4228POPC   GL214822   9.790   1.273   8.850
 4228POPC   C1A14823   9.789   1.252   8.550
 4228POPC   D2A14824   9.753   1.196   8.250
 4228POPC   C3A14825   9.742   1.248   7.950
 4228POPC   C4A14826   9.726   1.236   7.650
 4228POPC   C1B14827   9.840   1.468   8.550
 4228POPC   C2B14828   9.846   1.452   8.250
 4228POPC   C3B14829   9.897   1.390   7.950
 4228POPC   C4B14830   9.880   1.418   7.650
 4229POPC   NC314831   6.639   2.729   9.450
 4229POPC   PO414832   6.663   2.806   9.150
 4229POPC   GL114833   6.610   2.754   8.850
 4229POPC   GL214834   6.813   2.780   8.850
 4229POPC   C1A14835   6.672   2.775   8.550
 4229POPC   D2A14836   6.641   2.805   8.250
 4229POPC   C3A14837   6.657   2.729   7.950
 4229POPC   C4A14838   6.617   2.718   7.650
 4229POPC   C1B14839   6.846   2.744   8.550
 4229POPC   C2B14840   6.908   2.797   8.250
 4229POPC   C3B14841   6.882   2.769   7.950
 4229POPC   C4B14842   6.902   2.800   7.650
 4230POPC   NC314843  28.412   7.464   9.450
 4230POPC   PO414844  28.361   7.455   9.150
 4230POPC   GL114845  28.371   7.376   8.850
 4230POPC   GL214846  28.246   7.461   8.850
 4230POPC   C1A14847  28.341   7.407   8.550
 4230POPC   D2A14848  28.385   7.408   8.250
 4230POPC   C3A14849  28.361   7.393   7.950
 4230POPC   C4A14850  28.381   7.464   7.650
 4230POPC   C1B14851  28.106   7.523   8.550
 4230POPC   C2B14852  28.135   7.530   8.250
 4230POPC   C3B14853  28.107   7.482   7.950
 4230POPC   C4B14854  28.128   7.518   7.650
 4231POPC   NC314855  16.701  22.172   9.450
 4231POPC   PO414856  16.716  22.198   9.150
 4231POPC   GL114857  16.754  22.139   8.850
 4231POPC   GL214858  16.672  22.270   8.850
 4231POPC   C1A14859  16.765  22.126   8.550
 4231POPC   D2A14860  16.778  22.130   8.250
 4231POPC   C3A14861  16.781  22.141   7.950
 4231POPC   C4A14862  16.778  22.210   7.650
 4231POPC   C1B14863  16.683  22.437   8.550
 4231POPC   C2B14864  16.697  22.434   8.250
 4231POPC   C3B14865  16.693  22.447   7.950
 4231POPC   C4B14866  16.623  22.430   7.650
 4232POPC   NC314867  28.356  38.483   9.450
 4232POPC   PO414868  28.372  38.423   9.150
 4232POPC   GL114869  28.360  38.440   8.850
 4232POPC   GL214870  28.289  38.555   8.850
 4232POPC   C1A14871  28.390  38.428   8.550
 4232POPC   D2A14872  28.374  38.418   8.250
 4232POPC   C3A14873  28.371  38.481   7.950
 4232POPC   C4A14874  28.372  38.448   7.650
 4232POPC   C1B14875  28.168  38.577   8.550
 4232POPC   C2B14876  28.111  38.566   8.250
 4232POPC   C3B14877  28.132  38.585   7.950
 4232POPC   C4B14878  28.125  38.594   7.650
 4233POPC   NC314879  11.268  25.310   9.450
 4233POPC   PO414880  11.264  25.302   9.150
 4233POPC   GL114881  11.307  25.312   8.850
 4233POPC   GL214882  11.215  25.139   8.850
 4233POPC   C1A14883  11.296  25.309   8.550
 4233POPC   D2A14884  11.288  25.231   8.250
 4233POPC   C3A14885  11.296  25.265   7.950
 4233POPC   C4A14886  11.258  25.245   7.650
 4233POPC   C1B14887  11.153  25.054   8.550
 4233POPC   C2B14888  11.192  25.027   8.250
 4233POPC   C3B14889  11.221  25.068   7.950
 4233POPC   C4B14890  11.218  25.019   7.650
 4234POPC   NC314891  43.877  19.041   9.450
 4234POPC   PO414892  43.849  19.039   9.150
 4234POPC   GL114893  43.869  19.033   8.850
 4234POPC   GL214894  44.012  18.938   8.850
 4234POPC   C1A14895  43.860  19.058   8.550
 4234POPC   D2A14896  43.876  19.068   8.250
 4234POPC   C3A14897  43.877  19.063   7.950
 4234POPC   C4A14898  43.917  19.041   7.650
 4234POPC   C1B14899  44.110  18.886   8.550
 4234POPC   C2B14900  44.084  18.854   8.250
 4234POPC   C3B14901  44.059  18.938   7.950
 4234POPC   C4B14902  44.053  18.857   7.650
 4235POPC   NC314903  16.686  15.941   9.450
 4235POPC   PO414904  16.732  15.913   9.150
 4235POPC   GL114905  16.699  15.909   8.850
 4235POPC   GL214906  16.686  15.898   8.850
 4235POPC   C1A14907  16.700  15.936   8.550
 4235POPC   D2A14908  16.709  15.955   8.250
 4235POPC   C3A14909  16.752  15.941   7.950
 4235POPC   C4A14910  16.744  15.939   7.650
 4235POPC   C1B14911  16.556  15.732   8.550
 4235POPC   C2B14912  16.622  15.735   8.250
 4235POPC   C3B14913  16.583  15.749   7.950
 4235POPC   C4B14914  16.566  15.716   7.650
 4236POPC   NC314915   6.596  23.724   9.450
 4236POPC   PO414916   6.685  23.707   9.150
 4236POPC   GL114917   6.673  23.733   8.850
 4236POPC   GL214918   6.802  23.688   8.850
 4236POPC   C1A14919   6.672  23.713   8.550
 4236POPC   D2A14920   6.680  23.735   8.250
 4236POPC   C3A14921   6.676  23.667   7.950
 4236POPC   C4A14922   6.676  23.721   7.650
 4236POPC   C1B14923   6.908  23.565   8.550
 4236POPC   C2B14924   6.849  23.604   8.250
 4236POPC   C3B14925   6.879  23.573   7.950
 4236POPC   C4B14926   6.832  23.653   7.650
 4237POPC   NC314927   3.549  26.772   9.450
 4237POPC   PO414928   3.563  26.830   9.150
 4237POPC   GL114929   3.548  26.848   8.850
 4237POPC   GL214930   3.663  26.829   8.850
 4237POPC   C1A14931   3.533  26.812   8.550
 4237POPC   D2A14932   3.552  26.847   8.250
 4237POPC   C3A14933   3.557  26.774   7.950
 4237POPC   C4A14934   3.507  26.836   7.650
 4237POPC   C1B14935   3.784  26.920   8.550
 4237POPC   C2B14936   3.790  26.894   8.250
 4237POPC   C3B14937   3.797  26.906   7.950
 4237POPC   C4B14938   3.782  26.844   7.650
 4238POPC   NC314939  36.130  41.592   9.450
 4238POPC   PO414940  36.153  41.542   9.150
 4238POPC   GL114941  36.171  41.542   8.850
 4238POPC   GL214942  36.177  41.698   8.850
 4238POPC   C1A14943  36.117  41.572   8.550
 4238POPC   D2A14944  36.140  41.541   8.250
 4238POPC   C3A14945  36.127  41.556   7.950
 4238POPC   C4A14946  36.147  41.600   7.650
 4238POPC   C1B14947  36.309  41.755   8.550
 4238POPC   C2B14948  36.251  41.759   8.250
 4238POPC   C3B14949  36.270  41.750   7.950
 4238POPC   C4B14950  36.251  41.770   7.650
 4239POPC   NC314951  22.116  40.003   9.450
 4239POPC   PO414952  22.115  40.048   9.150
 4239POPC   GL114953  22.113  39.994   8.850
 4239POPC   GL214954  22.159  40.123   8.850
 4239POPC   C1A14955  22.124  40.007   8.550
 4239POPC   D2A14956  22.209  40.045   8.250
 4239POPC   C3A14957  22.183  40.025   7.950
 4239POPC   C4A14958  22.191  40.019   7.650
 4239POPC   C1B14959  22.197  40.290   8.550
 4239POPC   C2B14960  22.275  40.287   8.250
 4239POPC   C3B14961  22.180  40.269   7.950
 4239POPC   C4B14962  22.212  40.253   7.650
 4240POPC   NC314963   2.747  15.173   9.450
 4240POPC   PO414964   2.805  15.195   9.150
 4240POPC   GL114965   2.791  15.133   8.850
 4240POPC   GL214966   2.672  15.284   8.850
 4240POPC   C1A14967   2.773  15.148   8.550
 4240POPC   D2A14968   2.746  15.138   8.250
 4240POPC   C3A14969   2.716  15.177   7.950
 4240POPC   C4A14970   2.725  15.174   7.650
 4240POPC   C1B14971   2.663  15.400   8.550
 4240POPC   C2B14972   2.591  15.436   8.250
 4240POPC   C3B14973   2.593  15.354   7.950
 4240POPC   C4B14974   2.593  15.343   7.650
 4241POPC   NC314975   5.052  24.448   9.450
 4241POPC   PO414976   5.049  24.453   9.150
 4241POPC   GL114977   5.057  24.447   8.850
 4241POPC   GL214978   5.187  24.508   8.850
 4241POPC   C1A14979   5.055  24.512   8.550
 4241POPC   D2A14980   5.078  24.514   8.250
 4241POPC   C3A14981   5.059  24.499   7.950
 4241POPC   C4A14982   5.118  24.516   7.650
 4241POPC   C1B14983   5.371  24.425   8.550
 4241POPC   C2B14984   5.369  24.450   8.250
 4241POPC   C3B14985   5.301  24.419   7.950
 4241POPC   C4B14986   5.312  24.415   7.650
 4242POPC   NC314987  36.087  19.841   9.450
 4242POPC   PO414988  36.158  19.807   9.150
 4242POPC   GL114989  36.146  19.873   8.850
 4242POPC   GL214990  35.988  19.716   8.850
 4242POPC   C1A14991  36.135  19.797   8.550
 4242POPC   D2A14992  36.140  19.808   8.250
 4242POPC   C3A14993  36.092  19.881   7.950
 4242POPC   C4A14994  36.090  19.837   7.650
 4242POPC   C1B14995  35.940  19.683   8.550
 4242POPC   C2B14996  35.897  19.704   8.250
 4242POPC   C3B14997  35.908  19.722   7.950
 4242POPC   C4B14998  35.917  19.687   7.650
 4243POPC   NC314999  14.397   6.647   9.450
 4243POPC   PO415000  14.374   6.651   9.150
 4243POPC   GL115001  14.427   6.613   8.850
 4243POPC   GL215002  14.336   6.531   8.850
 4243POPC   C1A15003  14.368   6.694   8.550
 4243POPC   D2A15004  14.356   6.624   8.250
 4243POPC   C3A15005  14.427   6.597   7.950
 4243POPC   C4A15006  14.370   6.695   7.650
 4243POPC   C1B15007  14.275   6.391   8.550
 4243POPC   C2B15008  14.311   6.476   8.250
 4243POPC   C3B15009  14.260   6.475   7.950
 4243POPC   C4B15010  14.251   6.463   7.650
 4244POPC   NC315011  14.419  26.798   9.450
 4244POPC   PO415012  14.382  26.839   9.150
 4244POPC   GL115013  14.389  26.778   8.850
 4244POPC   GL215014  14.349  26.759   8.850
 4244POPC   C1A15015  14.432  26.791   8.550
 4244POPC   D2A15016  14.383  26.863   8.250
 4244POPC   C3A15017  14.424  26.809   7.950
 4244POPC   C4A15018  14.420  26.823   7.650
 4244POPC   C1B15019  14.158  26.713   8.550
 4244POPC   C2B15020  14.165  26.652   8.250
 4244POPC   C3B15021  14.215  26.639   7.950
 4244POPC   C4B15022  14.167  26.647   7.650
 4245POPC   NC315023  39.964   9.760   9.450
 4245POPC   PO415024  39.974   9.788   9.150
 4245POPC   GL115025  40.029   9.732   8.850
 4245POPC   GL215026  40.147   9.738   8.850
 4245POPC   C1A15027  40.057   9.793   8.550
 4245POPC   D2A15028  40.050   9.714   8.250
 4245POPC   C3A15029  40.049   9.789   7.950
 4245POPC   C4A15030  40.000   9.753   7.650
 4245POPC   C1B15031  40.274   9.700   8.550
 4245POPC   C2B15032  40.247   9.660   8.250
 4245POPC   C3B15033  40.269   9.683   7.950
 4245POPC   C4B15034  40.192   9.635   7.650
 4246POPC   NC315035  42.310   8.988   9.450
 4246POPC   PO415036  42.332   8.977   9.150
 4246POPC   GL115037  42.330   8.924   8.850
 4246POPC   GL215038  42.251   8.890   8.850
 4246POPC   C1A15039  42.374   9.018   8.550
 4246POPC   D2A15040  42.292   8.948   8.250
 4246POPC   C3A15041  42.302   8.928   7.950
 4246POPC   C4A15042  42.334   8.935   7.650
 4246POPC   C1B15043  42.250   8.758   8.550
 4246POPC   C2B15044  42.279   8.711   8.250
 4246POPC   C3B15045  42.242   8.763   7.950
 4246POPC   C4B15046  42.267   8.764   7.650
 4247POPC   NC315047  21.373  32.226   9.450
 4247POPC   PO415048  21.378  32.282   9.150
 4247POPC   GL115049  21.366  32.222   8.850
 4247POPC   GL215050  21.388  32.331   8.850
 4247POPC   C1A15051  21.357  32.291   8.550
 4247POPC   D2A15052  21.421  32.206   8.250
 4247POPC   C3A15053  21.344  32.217   7.950
 4247POPC   C4A15054  21.369  32.291   7.650
 4247POPC   C1B15055  21.377  32.534   8.550
 4247POPC   C2B15056  21.380  32.452   8.250
 4247POPC   C3B15057  21.342  32.502   7.950
 4247POPC   C4B15058  21.326  32.475   7.650
 4248POPC   NC315059  30.650  30.728   9.450
 4248POPC   PO415060  30.651  30.726   9.150
 4248POPC   GL115061  30.708  30.732   8.850
 4248POPC   GL215062  30.658  30.831   8.850
 4248POPC   C1A15063  30.662  30.695   8.550
 4248POPC   D2A15064  30.665  30.724   8.250
 4248POPC   C3A15065  30.724  30.719   7.950
 4248POPC   C4A15066  30.661  30.698   7.650
 4248POPC   C1B15067  30.624  30.929   8.550
 4248POPC   C2B15068  30.690  30.930   8.250
 4248POPC   C3B15069  30.610  30.962   7.950
 4248POPC   C4B15070  30.666  30.900   7.650
 4249POPC   NC315071   9.767   3.506   9.450
 4249POPC   PO415072   9.764   3.523   9.150
 4249POPC   GL115073   9.760   3.552   8.850
 4249POPC   GL215074   9.906   3.636   8.850
 4249POPC   C1A15075   9.725   3.519   8.550
 4249POPC   D2A15076   9.724   3.567   8.250
 4249POPC   C3A15077   9.753   3.500   7.950
 4249POPC   C4A15078   9.771   3.587   7.650
 4249POPC   C1B15079   9.986   3.616   8.550
 4249POPC   C2B15080  10.005   3.682   8.250
 4249POPC   C3B15081   9.924   3.680   7.950
 4249POPC   C4B15082  10.015   3.683   7.650
 4250POPC   NC315083  40.810  21.390   9.450
 4250POPC   PO415084  40.771  21.402   9.150
 4250POPC   GL115085  40.813  21.338   8.850
 4250POPC   GL215086  40.924  21.491   8.850
 4250POPC   C1A15087  40.737  21.350   8.550
 4250POPC   D2A15088  40.741  21.374   8.250
 4250POPC   C3A15089  40.790  21.434   7.950
 4250POPC   C4A15090  40.788  21.402   7.650
 4250POPC   C1B15091  41.009  21.515   8.550
 4250POPC   C2B15092  41.003  21.468   8.250
 4250POPC   C3B15093  41.035  21.525   7.950
 4250POPC   C4B15094  41.033  21.551   7.650
 4251POPC   NC315095  22.117   4.285   9.450
 4251POPC   PO415096  22.199   4.341   9.150
 4251POPC   GL115097  22.123   4.290   8.850
 4251POPC   GL215098  22.232   4.183   8.850
 4251POPC   C1A15099  22.177   4.289   8.550
 4251POPC   D2A15100  22.208   4.312   8.250
 4251POPC   C3A15101  22.128   4.348   7.950
 4251POPC   C4A15102  22.197   4.316   7.650
 4251POPC   C1B15103  22.344   4.118   8.550
 4251POPC   C2B15104  22.302   4.126   8.250
 4251POPC   C3B15105  22.348   4.193   7.950
 4251POPC   C4B15106  22.359   4.134   7.650
 4252POPC   NC315107  43.083  39.246   9.450
 4252POPC   PO415108  43.063  39.243   9.150
 4252POPC   GL115109  43.109  39.278   8.850
 4252POPC   GL215110  43.145  39.309   8.850
 4252POPC   C1A15111  43.120  39.233   8.550
 4252POPC   D2A15112  43.144  39.185   8.250
 4252POPC   C3A15113  43.156  39.273   7.950
 4252POPC   C4A15114  43.109  39.219   7.650
 4252POPC   C1B15115  43.152  39.472   8.550
 4252POPC   C2B15116  43.235  39.450   8.250
 4252POPC   C3B15117  43.169  39.478   7.950
 4252POPC   C4B15118  43.154  39.458   7.650
 4253POPC   NC315119  36.163   2.794   9.450
 4253POPC   PO415120  36.124   2.776   9.150
 4253POPC   GL115121  36.111   2.765   8.850
 4253POPC   GL215122  36.246   2.751   8.850
 4253POPC   C1A15123  36.130   2.789   8.550
 4253POPC   D2A15124  36.096   2.744   8.250
 4253POPC   C3A15125  36.079   2.719   7.950
 4253POPC   C4A15126  36.099   2.767   7.650
 4253POPC   C1B15127  36.386   2.637   8.550
 4253POPC   C2B15128  36.352   2.718   8.250
 4253POPC   C3B15129  36.410   2.690   7.950
 4253POPC   C4B15130  36.373   2.723   7.650
 4254POPC   NC315131  34.533   5.118   9.450
 4254POPC   PO415132  34.541   5.110   9.150
 4254POPC   GL115133  34.621   5.136   8.850
 4254POPC   GL215134  34.663   4.946   8.850
 4254POPC   C1A15135  34.617   5.107   8.550
 4254POPC   D2A15136  34.619   5.080   8.250
 4254POPC   C3A15137  34.565   5.050   7.950
 4254POPC   C4A15138  34.604   5.085   7.650
 4254POPC   C1B15139  34.695   4.917   8.550
 4254POPC   C2B15140  34.706   4.906   8.250
 4254POPC   C3B15141  34.651   4.880   7.950
 4254POPC   C4B15142  34.643   4.836   7.650
 4255POPC   NC315143   5.895  35.365   9.450
 4255POPC   PO415144   5.858  35.395   9.150
 4255POPC   GL115145   5.862  35.396   8.850
 4255POPC   GL215146   5.750  35.223   8.850
 4255POPC   C1A15147   5.856  35.389   8.550
 4255POPC   D2A15148   5.835  35.334   8.250
 4255POPC   C3A15149   5.879  35.362   7.950
 4255POPC   C4A15150   5.827  35.302   7.650
 4255POPC   C1B15151   5.721  35.146   8.550
 4255POPC   C2B15152   5.672  35.199   8.250
 4255POPC   C3B15153   5.705  35.180   7.950
 4255POPC   C4B15154   5.695  35.189   7.650
 4256POPC   NC315155  19.074  34.573   9.450
 4256POPC   PO415156  19.098  34.595   9.150
 4256POPC   GL115157  19.035  34.595   8.850
 4256POPC   GL215158  18.982  34.508   8.850
 4256POPC   C1A15159  19.098  34.526   8.550
 4256POPC   D2A15160  19.086  34.580   8.250
 4256POPC   C3A15161  19.069  34.547   7.950
 4256POPC   C4A15162  19.033  34.545   7.650
 4256POPC   C1B15163  18.863  34.469   8.550
 4256POPC   C2B15164  18.827  34.419   8.250
 4256POPC   C3B15165  18.829  34.426   7.950
 4256POPC   C4B15166  18.835  34.414   7.650
 4257POPC   NC315167  42.377  32.286   9.450
 4257POPC   PO415168  42.331  32.220   9.150
 4257POPC   GL115169  42.319  32.216   8.850
 4257POPC   GL215170  42.476  32.162   8.850
 4257POPC   C1A15171  42.359  32.240   8.550
 4257POPC   D2A15172  42.373  32.229   8.250
 4257POPC   C3A15173  42.346  32.227   7.950
 4257POPC   C4A15174  42.364  32.256   7.650
 4257POPC   C1B15175  42.544  32.157   8.550
 4257POPC   C2B15176  42.564  32.128   8.250
 4257POPC   C3B15177  42.576  32.194   7.950
 4257POPC   C4B15178  42.518  32.125   7.650
 4258POPC   NC315179  17.556  36.122   9.450
 4258POPC   PO415180  17.524  36.129   9.150
 4258POPC   GL115181  17.534  36.087   8.850
 4258POPC   GL215182  17.596  36.068   8.850
 4258POPC   C1A15183  17.468  36.162   8.550
 4258POPC   D2A15184  17.505  36.141   8.250
 4258POPC   C3A15185  17.549  36.094   7.950
 4258POPC   C4A15186  17.534  36.141   7.650
 4258POPC   C1B15187  17.710  36.100   8.550
 4258POPC   C2B15188  17.724  36.089   8.250
 4258POPC   C3B15189  17.798  36.084   7.950
 4258POPC   C4B15190  17.770  36.104   7.650
 4259POPC   NC315191  34.538  20.600   9.450
 4259POPC   PO415192  34.615  20.654   9.150
 4259POPC   GL115193  34.543  20.610   8.850
 4259POPC   GL215194  34.436  20.628   8.850
 4259POPC   C1A15195  34.595  20.570   8.550
 4259POPC   D2A15196  34.584  20.561   8.250
 4259POPC   C3A15197  34.625  20.634   7.950
 4259POPC   C4A15198  34.546  20.658   7.650
 4259POPC   C1B15199  34.352  20.554   8.550
 4259POPC   C2B15200  34.304  20.562   8.250
 4259POPC   C3B15201  34.327  20.625   7.950
 4259POPC   C4B15202  34.366  20.626   7.650
 4260POPC   NC315203  16.778  22.910   9.450
 4260POPC   PO415204  16.767  22.921   9.150
 4260POPC   GL115205  16.701  22.988   8.850
 4260POPC   GL215206  16.868  22.962   8.850
 4260POPC   C1A15207  16.712  22.950   8.550
 4260POPC   D2A15208  16.685  22.948   8.250
 4260POPC   C3A15209  16.763  22.893   7.950
 4260POPC   C4A15210  16.765  22.962   7.650
 4260POPC   C1B15211  16.999  23.030   8.550
 4260POPC   C2B15212  16.992  23.003   8.250
 4260POPC   C3B15213  16.955  23.010   7.950
 4260POPC   C4B15214  17.004  23.006   7.650
 4261POPC   NC315215   0.456  19.831   9.450
 4261POPC   PO415216   0.458  19.846   9.150
 4261POPC   GL115217   0.395  19.830   8.850
 4261POPC   GL215218   0.328  19.816   8.850
 4261POPC   C1A15219   0.399  19.834   8.550
 4261POPC   D2A15220   0.458  19.808   8.250
 4261POPC   C3A15221   0.471  19.828   7.950
 4261POPC   C4A15222   0.413  19.837   7.650
 4261POPC   C1B15223   0.187  19.746   8.550
 4261POPC   C2B15224   0.254  19.747   8.250
 4261POPC   C3B15225   0.253  19.717   7.950
 4261POPC   C4B15226   0.231  19.671   7.650
 4262POPC   NC315227  26.861  19.100   9.450
 4262POPC   PO415228  26.832  19.049   9.150
 4262POPC   GL115229  26.812  19.027   8.850
 4262POPC   GL215230  26.723  18.997   8.850
 4262POPC   C1A15231  26.839  19.079   8.550
 4262POPC   D2A15232  26.803  19.095   8.250
 4262POPC   C3A15233  26.849  19.099   7.950
 4262POPC   C4A15234  26.778  19.089   7.650
 4262POPC   C1B15235  26.615  18.874   8.550
 4262POPC   C2B15236  26.670  18.932   8.250
 4262POPC   C3B15237  26.577  18.943   7.950
 4262POPC   C4B15238  26.657  18.918   7.650
 4263POPC   NC315239  42.354  12.815   9.450
 4263POPC   PO415240  42.350  12.840   9.150
 4263POPC   GL115241  42.341  12.883   8.850
 4263POPC   GL215242  42.348  13.010   8.850
 4263POPC   C1A15243  42.359  12.807   8.550
 4263POPC   D2A15244  42.371  12.900   8.250
 4263POPC   C3A15245  42.287  12.883   7.950
 4263POPC   C4A15246  42.303  12.891   7.650
 4263POPC   C1B15247  42.434  13.095   8.550
 4263POPC   C2B15248  42.413  13.106   8.250
 4263POPC   C3B15249  42.446  13.027   7.950
 4263POPC   C4B15250  42.495  13.113   7.650
 4264POPC   NC315251  42.285  44.644   9.450
 4264POPC   PO415252  42.305  44.658   9.150
 4264POPC   GL115253  42.319  44.693   8.850
 4264POPC   GL215254  42.281  44.813   8.850
 4264POPC   C1A15255  42.322  44.620   8.550
 4264POPC   D2A15256  42.348  44.618   8.250
 4264POPC   C3A15257  42.311  44.642   7.950
 4264POPC   C4A15258  42.351  44.625   7.650
 4264POPC   C1B15259  42.202  44.904   8.550
 4264POPC   C2B15260  42.157  44.889   8.250
 4264POPC   C3B15261  42.245  44.863   7.950
 4264POPC   C4B15262  42.157  44.912   7.650
 4265POPC   NC315263   7.452   8.227   9.450
 4265POPC   PO415264   7.426   8.239   9.150
 4265POPC   GL115265   7.410   8.189   8.850
 4265POPC   GL215266   7.555   8.273   8.850
 4265POPC   C1A15267   7.385   8.195   8.550
 4265POPC   D2A15268   7.392   8.179   8.250
 4265POPC   C3A15269   7.411   8.191   7.950
 4265POPC   C4A15270   7.461   8.148   7.650
 4265POPC   C1B15271   7.634   8.390   8.550
 4265POPC   C2B15272   7.602   8.369   8.250
 4265POPC   C3B15273   7.630   8.373   7.950
 4265POPC   C4B15274   7.646   8.326   7.650
 4266POPC   NC315275   6.646  17.473   9.450
 4266POPC   PO415276   6.658  17.556   9.150
 4266POPC   GL115277   6.624  17.538   8.850
 4266POPC   GL215278   6.525  17.485   8.850
 4266POPC   C1A15279   6.630  17.541   8.550
 4266POPC   D2A15280   6.637  17.473   8.250
 4266POPC   C3A15281   6.654  17.526   7.950
 4266POPC   C4A15282   6.649  17.480   7.650
 4266POPC   C1B15283   6.442  17.411   8.550
 4266POPC   C2B15284   6.454  17.340   8.250
 4266POPC   C3B15285   6.418  17.404   7.950
 4266POPC   C4B15286   6.414  17.345   7.650
 4267POPC   NC315287  44.628   9.772   9.450
 4267POPC   PO415288  44.702   9.792   9.150
 4267POPC   GL115289  44.631   9.790   8.850
 4267POPC   GL215290  44.762   9.745   8.850
 4267POPC   C1A15291  44.697   9.797   8.550
 4267POPC   D2A15292  44.618   9.769   8.250
 4267POPC   C3A15293  44.634   9.769   7.950
 4267POPC   C4A15294  44.669   9.786   7.650
 4267POPC   C1B15295  44.935   9.755   8.550
 4267POPC   C2B15296  44.927   9.725   8.250
 4267POPC   C3B15297  44.890   9.711   7.950
 4267POPC   C4B15298  44.895   9.722   7.650
 4268POPC   NC315299   7.461   3.539   9.450
 4268POPC   PO415300   7.380   3.507   9.150
 4268POPC   GL115301   7.437   3.498   8.850
 4268POPC   GL215302   7.436   3.422   8.850
 4268POPC   C1A15303   7.434   3.536   8.550
 4268POPC   D2A15304   7.432   3.533   8.250
 4268POPC   C3A15305   7.430   3.508   7.950
 4268POPC   C4A15306   7.374   3.577   7.650
 4268POPC   C1B15307   7.406   3.258   8.550
 4268POPC   C2B15308   7.343   3.255   8.250
 4268POPC   C3B15309   7.347   3.342   7.950
 4268POPC   C4B15310   7.354   3.313   7.650
 4269POPC   NC315311  33.784  32.213   9.450
 4269POPC   PO415312  33.790  32.217   9.150
 4269POPC   GL115313  33.843  32.226   8.850
 4269POPC   GL215314  33.823  32.147   8.850
 4269POPC   C1A15315  33.757  32.205   8.550
 4269POPC   D2A15316  33.754  32.229   8.250
 4269POPC   C3A15317  33.834  32.274   7.950
 4269POPC   C4A15318  33.811  32.206   7.650
 4269POPC   C1B15319  33.850  32.050   8.550
 4269POPC   C2B15320  33.881  31.986   8.250
 4269POPC   C3B15321  33.842  32.004   7.950
 4269POPC   C4B15322  33.931  31.978   7.650
 4270POPC   NC315323  16.769   9.780   9.450
 4270POPC   PO415324  16.716   9.735   9.150
 4270POPC   GL115325  16.723   9.774   8.850
 4270POPC   GL215326  16.834   9.748   8.850
 4270POPC   C1A15327  16.740   9.782   8.550
 4270POPC   D2A15328  16.718   9.722   8.250
 4270POPC   C3A15329  16.715   9.707   7.950
 4270POPC   C4A15330  16.728   9.702   7.650
 4270POPC   C1B15331  16.922   9.783   8.550
 4270POPC   C2B15332  16.980   9.832   8.250
 4270POPC   C3B15333  16.975   9.842   7.950
 4270POPC   C4B15334  17.004   9.868   7.650
 4271POPC   NC315335  22.946   1.211   9.450
 4271POPC   PO415336  22.924   1.215   9.150
 4271POPC   GL115337  22.983   1.186   8.850
 4271POPC   GL215338  22.985   1.259   8.850
 4271POPC   C1A15339  22.905   1.225   8.550
 4271POPC   D2A15340  22.919   1.251   8.250
 4271POPC   C3A15341  22.978   1.194   7.950
 4271POPC   C4A15342  22.897   1.223   7.650
 4271POPC   C1B15343  23.122   1.398   8.550
 4271POPC   C2B15344  23.148   1.425   8.250
 4271POPC   C3B15345  23.164   1.380   7.950
 4271POPC   C4B15346  23.104   1.413   7.650
 4272POPC   NC315347  21.341  22.197   9.450
 4272POPC   PO415348  21.400  22.211   9.150
 4272POPC   GL115349  21.389  22.125   8.850
 4272POPC   GL215350  21.407  22.278   8.850
 4272POPC   C1A15351  21.424  22.193   8.550
 4272POPC   D2A15352  21.369  22.188   8.250
 4272POPC   C3A15353  21.432  22.189   7.950
 4272POPC   C4A15354  21.339  22.164   7.650
 4272POPC   C1B15355  21.480  22.373   8.550
 4272POPC   C2B15356  21.547  22.348   8.250
 4272POPC   C3B15357  21.470  22.364   7.950
 4272POPC   C4B15358  21.510  22.424   7.650
 4273POPC   NC315359   0.445  34.594   9.450
 4273POPC   PO415360   0.417  34.622   9.150
 4273POPC   GL115361   0.485  34.592   8.850
 4273POPC   GL215362   0.583  34.646   8.850
 4273POPC   C1A15363   0.411  34.606   8.550
 4273POPC   D2A15364   0.461  34.624   8.250
 4273POPC   C3A15365   0.394  34.617   7.950
 4273POPC   C4A15366   0.437  34.537   7.650
 4273POPC   C1B15367   0.654  34.591   8.550
 4273POPC   C2B15368   0.721  34.668   8.250
 4273POPC   C3B15369   0.721  34.598   7.950
 4273POPC   C4B15370   0.650  34.584   7.650
 4274POPC   NC315371  14.411  17.509   9.450
 4274POPC   PO415372  14.452  17.457   9.150
 4274POPC   GL115373  14.392  17.518   8.850
 4274POPC   GL215374  14.387  17.647   8.850
 4274POPC   C1A15375  14.406  17.549   8.550
 4274POPC   D2A15376  14.389  17.546   8.250
 4274POPC   C3A15377  14.424  17.546   7.950
 4274POPC   C4A15378  14.379  17.503   7.650
 4274POPC   C1B15379  14.446  17.705   8.550
 4274POPC   C2B15380  14.432  17.710   8.250
 4274POPC   C3B15381  14.392  17.763   7.950
 4274POPC   C4B15382  14.483  17.751   7.650
 4275POPC   NC315383  36.932  13.584   9.450
 4275POPC   PO415384  36.885  13.613   9.150
 4275POPC   GL115385  36.865  13.670   8.850
 4275POPC   GL215386  36.997  13.496   8.850
 4275POPC   C1A15387  36.889  13.635   8.550
 4275POPC   D2A15388  36.926  13.647   8.250
 4275POPC   C3A15389  36.862  13.585   7.950
 4275POPC   C4A15390  36.937  13.656   7.650
 4275POPC   C1B15391  37.009  13.439   8.550
 4275POPC   C2B15392  36.996  13.432   8.250
 4275POPC   C3B15393  36.995  13.430   7.950
 4275POPC   C4B15394  37.049  13.448   7.650
 4276POPC   NC315395  15.192  23.753   9.450
 4276POPC   PO415396  15.226  23.747   9.150
 4276POPC   GL115397  15.215  23.732   8.850
 4276POPC   GL215398  15.338  23.708   8.850
 4276POPC   C1A15399  15.140  23.684   8.550
 4276POPC   D2A15400  15.168  23.699   8.250
 4276POPC   C3A15401  15.197  23.754   7.950
 4276POPC   C4A15402  15.203  23.686   7.650
 4276POPC   C1B15403  15.463  23.747   8.550
 4276POPC   C2B15404  15.400  23.688   8.250
 4276POPC   C3B15405  15.400  23.759   7.950
 4276POPC   C4B15406  15.430  23.739   7.650
 4277POPC   NC315407  40.022  24.519   9.450
 4277POPC   PO415408  39.965  24.459   9.150
 4277POPC   GL115409  39.981  24.483   8.850
 4277POPC   GL215410  39.871  24.505   8.850
 4277POPC   C1A15411  40.040  24.446   8.550
 4277POPC   D2A15412  40.001  24.445   8.250
 4277POPC   C3A15413  40.056  24.507   7.950
 4277POPC   C4A15414  39.968  24.498   7.650
 4277POPC   C1B15415  39.739  24.523   8.550
 4277POPC   C2B15416  39.781  24.485   8.250
 4277POPC   C3B15417  39.802  24.518   7.950
 4277POPC   C4B15418  39.719  24.489   7.650
 4278POPC   NC315419  25.271  23.687   9.450
 4278POPC   PO415420  25.216  23.688   9.150
 4278POPC   GL115421  25.259  23.755   8.850
 4278POPC   GL215422  25.363  23.621   8.850
 4278POPC   C1A15423  25.253  23.754   8.550
 4278POPC   D2A15424  25.315  23.677   8.250
 4278POPC   C3A15425  25.312  23.723   7.950
 4278POPC   C4A15426  25.292  23.703   7.650
 4278POPC   C1B15427  25.503  23.584   8.550
 4278POPC   C2B15428  25.477  23.621   8.250
 4278POPC   C3B15429  25.443  23.579   7.950
 4278POPC   C4B15430  25.456  23.648   7.650
 4279POPC   NC315431  19.801   2.011   9.450
 4279POPC   PO415432  19.809   1.972   9.150
 4279POPC   GL115433  19.797   1.979   8.850
 4279POPC   GL215434  19.856   2.098   8.850
 4279POPC   C1A15435  19.808   1.953   8.550
 4279POPC   D2A15436  19.841   2.003   8.250
 4279POPC   C3A15437  19.860   2.012   7.950
 4279POPC   C4A15438  19.817   2.036   7.650
 4279POPC   C1B15439  19.808   2.269   8.550
 4279POPC   C2B15440  19.792   2.230   8.250
 4279POPC   C3B15441  19.840   2.256   7.950
 4279POPC   C4B15442  19.768   2.278   7.650
 4280POPC   NC315443  25.299   5.885   9.450
 4280POPC   PO415444  25.218   5.826   9.150
 4280POPC   GL115445  25.279   5.902   8.850
 4280POPC   GL215446  25.236   5.976   8.850
 4280POPC   C1A15447  25.259   5.895   8.550
 4280POPC   D2A15448  25.233   5.907   8.250
 4280POPC   C3A15449  25.292   5.872   7.950
 4280POPC   C4A15450  25.260   5.885   7.650
 4280POPC   C1B15451  25.126   6.046   8.550
 4280POPC   C2B15452  25.155   6.069   8.250
 4280POPC   C3B15453  25.153   6.052   7.950
 4280POPC   C4B15454  25.134   6.028   7.650
 4281POPC   NC315455  35.381  25.992   9.450
 4281POPC   PO415456  35.307  26.030   9.150
 4281POPC   GL115457  35.395  26.067   8.850
 4281POPC   GL215458  35.318  25.886   8.850
 4281POPC   C1A15459  35.320  26.088   8.550
 4281POPC   D2A15460  35.385  26.037   8.250
 4281POPC   C3A15461  35.401  25.992   7.950
 4281POPC   C4A15462  35.309  26.087   7.650
 4281POPC   C1B15463  35.219  25.866   8.550
 4281POPC   C2B15464  35.259  25.821   8.250
 4281POPC   C3B15465  35.265  25.869   7.950
 4281POPC   C4B15466  35.234  25.774   7.650
 4282POPC   NC315467  28.341  21.343   9.450
 4282POPC   PO415468  28.377  21.341   9.150
 4282POPC   GL115469  28.383  21.404   8.850
 4282POPC   GL215470  28.470  21.496   8.850
 4282POPC   C1A15471  28.337  21.395   8.550
 4282POPC   D2A15472  28.394  21.429   8.250
 4282POPC   C3A15473  28.389  21.369   7.950
 4282POPC   C4A15474  28.408  21.413   7.650
 4282POPC   C1B15475  28.574  21.475   8.550
 4282POPC   C2B15476  28.584  21.523   8.250
 4282POPC   C3B15477  28.563  21.546   7.950
 4282POPC   C4B15478  28.536  21.471   7.650
 4283POPC   NC315479  40.029  21.340   9.450
 4283POPC   PO415480  39.978  21.397   9.150
 4283POPC   GL115481  40.052  21.388   8.850
 4283POPC   GL215482  39.968  21.245   8.850
 4283POPC   C1A15483  39.977  21.415   8.550
 4283POPC   D2A15484  40.002  21.378   8.250
 4283POPC   C3A15485  39.990  21.398   7.950
 4283POPC   C4A15486  40.048  21.341   7.650
 4283POPC   C1B15487  39.916  21.148   8.550
 4283POPC   C2B15488  39.898  21.178   8.250
 4283POPC   C3B15489  39.864  21.132   7.950
 4283POPC   C4B15490  39.915  21.221   7.650
 4284POPC   NC315491  30.710  13.582   9.450
 4284POPC   PO415492  30.684  13.666   9.150
 4284POPC   GL115493  30.663  13.608   8.850
 4284POPC   GL215494  30.684  13.486   8.850
 4284POPC   C1A15495  30.668  13.654   8.550
 4284POPC   D2A15496  30.668  13.628   8.250
 4284POPC   C3A15497  30.729  13.662   7.950
 4284POPC   C4A15498  30.745  13.654   7.650
 4284POPC   C1B15499  30.760  13.346   8.550
 4284POPC   C2B15500  30.797  13.364   8.250
 4284POPC   C3B15501  30.736  13.400   7.950
 4284POPC   C4B15502  30.794  13.382   7.650
 4285POPC   NC315503  44.648  34.536   9.450
 4285POPC   PO415504  44.644  34.618   9.150
 4285POPC   GL115505  44.690  34.541   8.850
 4285POPC   GL215506  44.722  34.431   8.850
 4285POPC   C1A15507  44.690  34.582   8.550
 4285POPC   D2A15508  44.687  34.533   8.250
 4285POPC   C3A15509  44.636  34.576   7.950
 4285POPC   C4A15510  44.619  34.555   7.650
 4285POPC   C1B15511  44.809  34.369   8.550
 4285POPC   C2B15512  44.808  34.403   8.250
 4285POPC   C3B15513  44.768  34.367   7.950
 4285POPC   C4B15514  44.813  34.398   7.650
 4286POPC   NC315515  35.398  16.721   9.450
 4286POPC   PO415516  35.339  16.770   9.150
 4286POPC   GL115517  35.352  16.761   8.850
 4286POPC   GL215518  35.481  16.801   8.850
 4286POPC   C1A15519  35.364  16.728   8.550
 4286POPC   D2A15520  35.353  16.757   8.250
 4286POPC   C3A15521  35.317  16.720   7.950
 4286POPC   C4A15522  35.358  16.710   7.650
 4286POPC   C1B15523  35.630  16.748   8.550
 4286POPC   C2B15524  35.597  16.833   8.250
 4286POPC   C3B15525  35.633  16.785   7.950
 4286POPC   C4B15526  35.580  16.787   7.650
 4287POPC   NC315527   3.533   1.991   9.450
 4287POPC   PO415528   3.541   1.980   9.150
 4287POPC   GL115529   3.502   2.012   8.850
 4287POPC   GL215530   3.657   1.893   8.850
 4287POPC   C1A15531   3.560   2.018   8.550
 4287POPC   D2A15532   3.567   1.942   8.250
 4287POPC   C3A15533   3.533   1.962   7.950
 4287POPC   C4A15534   3.521   1.983   7.650
 4287POPC   C1B15535   3.773   1.807   8.550
 4287POPC   C2B15536   3.726   1.902   8.250
 4287POPC   C3B15537   3.702   1.827   7.950
 4287POPC   C4B15538   3.788   1.842   7.650
 4288POPC   NC315539  32.981  12.808   9.450
 4288POPC   PO415540  33.037  12.840   9.150
 4288POPC   GL115541  33.061  12.820   8.850
 4288POPC   GL215542  32.901  12.899   8.850
 4288POPC   C1A15543  32.976  12.837   8.550
 4288POPC   D2A15544  33.051  12.812   8.250
 4288POPC   C3A15545  33.031  12.861   7.950
 4288POPC   C4A15546  32.979  12.895   7.650
 4288POPC   C1B15547  32.760  12.950   8.550
 4288POPC   C2B15548  32.744  12.875   8.250
 4288POPC   C3B15549  32.815  12.909   7.950
 4288POPC   C4B15550  32.776  12.943   7.650
 4289POPC   NC315551  39.248  10.552   9.450
 4289POPC   PO415552  39.273  10.521   9.150
 4289POPC   GL115553  39.186  10.485   8.850
 4289POPC   GL215554  39.276  10.426   8.850
 4289POPC   C1A15555  39.211  10.497   8.550
 4289POPC   D2A15556  39.243  10.481   8.250
 4289POPC   C3A15557  39.248  10.534   7.950
 4289POPC   C4A15558  39.199  10.505   7.650
 4289POPC   C1B15559  39.266  10.266   8.550
 4289POPC   C2B15560  39.267  10.257   8.250
 4289POPC   C3B15561  39.228  10.269   7.950
 4289POPC   C4B15562  39.213  10.274   7.650
 4290POPC   NC315563  20.565  39.200   9.450
 4290POPC   PO415564  20.639  39.208   9.150
 4290POPC   GL115565  20.572  39.266   8.850
 4290POPC   GL215566  20.497  39.347   8.850
 4290POPC   C1A15567  20.658  39.206   8.550
 4290POPC   D2A15568  20.566  39.273   8.250
 4290POPC   C3A15569  20.590  39.184   7.950
 4290POPC   C4A15570  20.625  39.242   7.650
 4290POPC   C1B15571  20.410  39.355   8.550
 4290POPC   C2B15572  20.383  39.407   8.250
 4290POPC   C3B15573  20.414  39.382   7.950
 4290POPC   C4B15574  20.380  39.367   7.650
 4291POPC   NC315575  30.663  40.029   9.450
 4291POPC   PO415576  30.728  40.056   9.150
 4291POPC   GL115577  30.652  40.042   8.850
 4291POPC   GL215578  30.763  40.147   8.850
 4291POPC   C1A15579  30.676  39.995   8.550
 4291POPC   D2A15580  30.727  39.962   8.250
 4291POPC   C3A15581  30.731  40.008   7.950
 4291POPC   C4A15582  30.652  40.003   7.650
 4291POPC   C1B15583  30.831  40.173   8.550
 4291POPC   C2B15584  30.907  40.187   8.250
 4291POPC   C3B15585  30.893  40.171   7.950
 4291POPC   C4B15586  30.864  40.228   7.650
 4292POPC   NC315587  36.149  26.059   9.450
 4292POPC   PO415588  36.112  26.044   9.150
 4292POPC   GL115589  36.133  26.063   8.850
 4292POPC   GL215590  36.159  25.955   8.850
 4292POPC   C1A15591  36.156  26.046   8.550
 4292POPC   D2A15592  36.102  26.079   8.250
 4292POPC   C3A15593  36.108  26.079   7.950
 4292POPC   C4A15594  36.145  26.014   7.650
 4292POPC   C1B15595  36.071  25.767   8.550
 4292POPC   C2B15596  36.071  25.757   8.250
 4292POPC   C3B15597  36.127  25.783   7.950
 4292POPC   C4B15598  36.116  25.821   7.650
 4293POPC   NC315599  31.479  42.349   9.450
 4293POPC   PO415600  31.456  42.357   9.150
 4293POPC   GL115601  31.501  42.340   8.850
 4293POPC   GL215602  31.510  42.174   8.850
 4293POPC   C1A15603  31.498  42.381   8.550
 4293POPC   D2A15604  31.438  42.324   8.250
 4293POPC   C3A15605  31.435  42.286   7.950
 4293POPC   C4A15606  31.431  42.330   7.650
 4293POPC   C1B15607  31.478  42.130   8.550
 4293POPC   C2B15608  31.537  42.120   8.250
 4293POPC   C3B15609  31.553  42.106   7.950
 4293POPC   C4B15610  31.519  42.042   7.650
 4294POPC   NC315611  33.779   8.206   9.450
 4294POPC   PO415612  33.817   8.229   9.150
 4294POPC   GL115613  33.838   8.158   8.850
 4294POPC   GL215614  33.894   8.182   8.850
 4294POPC   C1A15615  33.814   8.175   8.550
 4294POPC   D2A15616  33.807   8.202   8.250
 4294POPC   C3A15617  33.828   8.186   7.950
 4294POPC   C4A15618  33.771   8.241   7.650
 4294POPC   C1B15619  34.028   8.097   8.550
 4294POPC   C2B15620  34.079   8.068   8.250
 4294POPC   C3B15621  33.988   8.108   7.950
 4294POPC   C4B15622  34.020   8.130   7.650
 4295POPC   NC315623  31.503  23.742   9.450
 4295POPC   PO415624  31.505  23.678   9.150
 4295POPC   GL115625  31.429  23.689   8.850
 4295POPC   GL215626  31.400  23.791   8.850
 4295POPC   C1A15627  31.482  23.735   8.550
 4295POPC   D2A15628  31.472  23.698   8.250
 4295POPC   C3A15629  31.456  23.672   7.950
 4295POPC   C4A15630  31.489  23.727   7.650
 4295POPC   C1B15631  31.247  23.857   8.550
 4295POPC   C2B15632  31.262  23.787   8.250
 4295POPC   C3B15633  31.275  23.809   7.950
 4295POPC   C4B15634  31.236  23.838   7.650
 4296POPC   NC315635   4.278  10.562   9.450
 4296POPC   PO415636   4.320  10.510   9.150
 4296POPC   GL115637   4.321  10.555   8.850
 4296POPC   GL215638   4.277  10.683   8.850
 4296POPC   C1A15639   4.310  10.512   8.550
 4296POPC   D2A15640   4.303  10.497   8.250
 4296POPC   C3A15641   4.299  10.547   7.950
 4296POPC   C4A15642   4.274  10.478   7.650
 4296POPC   C1B15643   4.228  10.730   8.550
 4296POPC   C2B15644   4.232  10.808   8.250
 4296POPC   C3B15645   4.210  10.716   7.950
 4296POPC   C4B15646   4.267  10.775   7.650
 4297POPC   NC315647  30.672  26.023   9.450
 4297POPC   PO415648  30.685  26.002   9.150
 4297POPC   GL115649  30.660  26.037   8.850
 4297POPC   GL215650  30.598  25.951   8.850
 4297POPC   C1A15651  30.677  26.018   8.550
 4297POPC   D2A15652  30.703  26.033   8.250
 4297POPC   C3A15653  30.653  26.075   7.950
 4297POPC   C4A15654  30.678  26.074   7.650
 4297POPC   C1B15655  30.457  25.892   8.550
 4297POPC   C2B15656  30.428  25.904   8.250
 4297POPC   C3B15657  30.441  25.978   7.950
 4297POPC   C4B15658  30.471  25.971   7.650
 4298POPC   NC315659  16.719   1.174   9.450
 4298POPC   PO415660  16.741   1.236   9.150
 4298POPC   GL115661  16.779   1.191   8.850
 4298POPC   GL215662  16.654   1.189   8.850
 4298POPC   C1A15663  16.747   1.237   8.550
 4298POPC   D2A15664  16.754   1.198   8.250
 4298POPC   C3A15665  16.756   1.260   7.950
 4298POPC   C4A15666  16.778   1.180   7.650
 4298POPC   C1B15667  16.473   1.200   8.550
 4298POPC   C2B15668  16.476   1.207   8.250
 4298POPC   C3B15669  16.469   1.195   7.950
 4298POPC   C4B15670  16.445   1.207   7.650
 4299POPC   NC315671   0.400  13.584   9.450
 4299POPC   PO415672   0.419  13.595   9.150
 4299POPC   GL115673   0.461  13.672   8.850
 4299POPC   GL215674   0.270  13.599   8.850
 4299POPC   C1A15675   0.390  13.663   8.550
 4299POPC   D2A15676   0.448  13.658   8.250
 4299POPC   C3A15677   0.456  13.624   7.950
 4299POPC   C4A15678   0.427  13.580   7.650
 4299POPC   C1B15679   0.230  13.579   8.550
 4299POPC   C2B15680   0.190  13.675   8.250
 4299POPC   C3B15681   0.214  13.632   7.950
 4299POPC   C4B15682   0.182  13.635   7.650
 4300POPC   NC315683  42.379   2.766   9.450
 4300POPC   PO415684  42.376   2.790   9.150
 4300POPC   GL115685  42.325   2.787   8.850
 4300POPC   GL215686  42.424   2.749   8.850
 4300POPC   C1A15687  42.318   2.770   8.550
 4300POPC   D2A15688  42.328   2.733   8.250
 4300POPC   C3A15689  42.344   2.733   7.950
 4300POPC   C4A15690  42.366   2.736   7.650
 4300POPC   C1B15691  42.531   2.657   8.550
 4300POPC   C2B15692  42.529   2.731   8.250
 4300POPC   C3B15693  42.577   2.637   7.950
 4300POPC   C4B15694  42.559   2.685   7.650
 4301POPC   NC315695  28.415  18.303   9.450
 4301POPC   PO415696  28.325  18.310   9.150
 4301POPC   GL115697  28.332  18.311   8.850
 4301POPC   GL215698  28.327  18.410   8.850
 4301POPC   C1A15699  28.400  18.252   8.550
 4301POPC   D2A15700  28.400  18.309   8.250
 4301POPC   C3A15701  28.387  18.281   7.950
 4301POPC   C4A15702  28.410  18.313   7.650
 4301POPC   C1B15703  28.302  18.506   8.550
 4301POPC   C2B15704  28.363  18.526   8.250
 4301POPC   C3B15705  28.381  18.556   7.950
 4301POPC   C4B15706  28.391  18.580   7.650
 4302POPC   NC315707  24.487  42.364   9.450
 4302POPC   PO415708  24.515  42.369   9.150
 4302POPC   GL115709  24.470  42.329   8.850
 4302POPC   GL215710  24.539  42.228   8.850
 4302POPC   C1A15711  24.524  42.314   8.550
 4302POPC   D2A15712  24.475  42.285   8.250
 4302POPC   C3A15713  24.492  42.356   7.950
 4302POPC   C4A15714  24.512  42.287   7.650
 4302POPC   C1B15715  24.582  42.161   8.550
 4302POPC   C2B15716  24.555  42.100   8.250
 4302POPC   C3B15717  24.637  42.116   7.950
 4302POPC   C4B15718  24.581  42.079   7.650
 4303POPC   NC315719   9.011  21.420   9.450
 4303POPC   PO415720   8.952  21.434   9.150
 4303POPC   GL115721   8.945  21.404   8.850
 4303POPC   GL215722   8.886  21.398   8.850
 4303POPC   C1A15723   8.961  21.424   8.550
 4303POPC   D2A15724   8.998  21.365   8.250
 4303POPC   C3A15725   8.944  21.389   7.950
 4303POPC   C4A15726   8.962  21.359   7.650
 4303POPC   C1B15727   8.746  21.426   8.550
 4303POPC   C2B15728   8.724  21.463   8.250
 4303POPC   C3B15729   8.698  21.486   7.950
 4303POPC   C4B15730   8.781  21.479   7.650
 4304POPC   NC315731  27.555  33.063   9.450
 4304POPC   PO415732  27.545  32.991   9.150
 4304POPC   GL115733  27.636  33.034   8.850
 4304POPC   GL215734  27.656  32.924   8.850
 4304POPC   C1A15735  27.623  32.996   8.550
 4304POPC   D2A15736  27.622  33.059   8.250
 4304POPC   C3A15737  27.641  33.016   7.950
 4304POPC   C4A15738  27.633  33.007   7.650
 4304POPC   C1B15739  27.795  32.825   8.550
 4304POPC   C2B15740  27.806  32.817   8.250
 4304POPC   C3B15741  27.800  32.871   7.950
 4304POPC   C4B15742  27.795  32.867   7.650
 4305POPC   NC315743   4.320  44.670   9.450
 4305POPC   PO415744   4.304  44.633   9.150
 4305POPC   GL115745   4.291  44.626   8.850
 4305POPC   GL215746   4.423  44.732   8.850
 4305POPC   C1A15747   4.268  44.678   8.550
 4305POPC   D2A15748   4.287  44.633   8.250
 4305POPC   C3A15749   4.286  44.694   7.950
 4305POPC   C4A15750   4.358  44.638   7.650
 4305POPC   C1B15751   4.451  44.881   8.550
 4305POPC   C2B15752   4.484  44.888   8.250
 4305POPC   C3B15753   4.454  44.836   7.950
 4305POPC   C4B15754   4.427  44.863   7.650
 4306POPC   NC315755  33.055  26.784   9.450
 4306POPC   PO415756  32.981  26.806   9.150
 4306POPC   GL115757  33.065  26.800   8.850
 4306POPC   GL215758  32.925  26.804   8.850
 4306POPC   C1A15759  32.984  26.796   8.550
 4306POPC   D2A15760  32.997  26.827   8.250
 4306POPC   C3A15761  33.027  26.769   7.950
 4306POPC   C4A15762  33.049  26.817   7.650
 4306POPC   C1B15763  32.743  26.827   8.550
 4306POPC   C2B15764  32.729  26.842   8.250
 4306POPC   C3B15765  32.747  26.828   7.950
 4306POPC   C4B15766  32.731  26.869   7.650
 4307POPC   NC315767  19.068  30.677   9.450
 4307POPC   PO415768  19.030  30.708   9.150
 4307POPC   GL115769  19.034  30.723   8.850
 4307POPC   GL215770  18.903  30.692   8.850
 4307POPC   C1A15771  19.027  30.734   8.550
 4307POPC   D2A15772  19.021  30.668   8.250
 4307POPC   C3A15773  19.098  30.739   7.950
 4307POPC   C4A15774  19.092  30.692   7.650
 4307POPC   C1B15775  18.806  30.678   8.550
 4307POPC   C2B15776  18.776  30.655   8.250
 4307POPC   C3B15777  18.804  30.625   7.950
 4307POPC   C4B15778  18.818  30.634   7.650
 4308POPC   NC315779  13.594  38.447   9.450
 4308POPC   PO415780  13.638  38.452   9.150
 4308POPC   GL115781  13.628  38.432   8.850
 4308POPC   GL215782  13.552  38.479   8.850
 4308POPC   C1A15783  13.616  38.485   8.550
 4308POPC   D2A15784  13.627  38.489   8.250
 4308POPC   C3A15785  13.579  38.426   7.950
 4308POPC   C4A15786  13.620  38.435   7.650
 4308POPC   C1B15787  13.411  38.592   8.550
 4308POPC   C2B15788  13.388  38.574   8.250
 4308POPC   C3B15789  13.362  38.554   7.950
 4308POPC   C4B15790  13.437  38.600   7.650
 4309POPC   NC315791   8.237  26.031   9.450
 4309POPC   PO415792   8.181  26.077   9.150
 4309POPC   GL115793   8.182  26.029   8.850
 4309POPC   GL215794   8.119  26.115   8.850
 4309POPC   C1A15795   8.244  26.030   8.550
 4309POPC   D2A15796   8.209  26.081   8.250
 4309POPC   C3A15797   8.229  25.993   7.950
 4309POPC   C4A15798   8.220  26.083   7.650
 4309POPC   C1B15799   7.972  26.140   8.550
 4309POPC   C2B15800   7.964  26.165   8.250
 4309POPC   C3B15801   7.976  26.150   7.950
 4309POPC   C4B15802   7.967  26.097   7.650
 4310POPC   NC315803   9.715   1.940   9.450
 4310POPC   PO415804   9.707   1.943   9.150
 4310POPC   GL115805   9.772   2.002   8.850
 4310POPC   GL215806   9.766   1.875   8.850
 4310POPC   C1A15807   9.784   2.039   8.550
 4310POPC   D2A15808   9.712   2.035   8.250
 4310POPC   C3A15809   9.702   1.987   7.950
 4310POPC   C4A15810   9.776   1.985   7.650
 4310POPC   C1B15811   9.783   1.765   8.550
 4310POPC   C2B15812   9.819   1.755   8.250
 4310POPC   C3B15813   9.844   1.759   7.950
 4310POPC   C4B15814   9.808   1.770   7.650
 4311POPC   NC315815  12.056  20.601   9.450
 4311POPC   PO415816  12.082  20.636   9.150
 4311POPC   GL115817  12.092  20.569   8.850
 4311POPC   GL215818  12.081  20.506   8.850
 4311POPC   C1A15819  12.050  20.589   8.550
 4311POPC   D2A15820  12.036  20.569   8.250
 4311POPC   C3A15821  12.060  20.566   7.950
 4311POPC   C4A15822  12.041  20.653   7.650
 4311POPC   C1B15823  12.028  20.364   8.550
 4311POPC   C2B15824  12.062  20.361   8.250
 4311POPC   C3B15825  12.026  20.409   7.950
 4311POPC   C4B15826  12.081  20.379   7.650
 4312POPC   NC315827  24.526  11.271   9.450
 4312POPC   PO415828  24.520  11.264   9.150
 4312POPC   GL115829  24.532  11.278   8.850
 4312POPC   GL215830  24.424  11.193   8.850
 4312POPC   C1A15831  24.483  11.325   8.550
 4312POPC   D2A15832  24.496  11.300   8.250
 4312POPC   C3A15833  24.456  11.263   7.950
 4312POPC   C4A15834  24.479  11.344   7.650
 4312POPC   C1B15835  24.311  11.205   8.550
 4312POPC   C2B15836  24.260  11.212   8.250
 4312POPC   C3B15837  24.317  11.182   7.950
 4312POPC   C4B15838  24.274  11.205   7.650
 4313POPC   NC315839  15.989  33.786   9.450
 4313POPC   PO415840  15.943  33.772   9.150
 4313POPC   GL115841  15.972  33.849   8.850
 4313POPC   GL215842  15.897  33.960   8.850
 4313POPC   C1A15843  15.990  33.818   8.550
 4313POPC   D2A15844  15.916  33.830   8.250
 4313POPC   C3A15845  15.912  33.827   7.950
 4313POPC   C4A15846  15.942  33.844   7.650
 4313POPC   C1B15847  15.867  33.998   8.550
 4313POPC   C2B15848  15.900  34.053   8.250
 4313POPC   C3B15849  15.937  34.068   7.950
 4313POPC   C4B15850  15.854  34.009   7.650
 4314POPC   NC315851  10.562  36.148   9.450
 4314POPC   PO415852  10.555  36.143   9.150
 4314POPC   GL115853  10.512  36.171   8.850
 4314POPC   GL215854  10.566  36.020   8.850
 4314POPC   C1A15855  10.479  36.131   8.550
 4314POPC   D2A15856  10.495  36.161   8.250
 4314POPC   C3A15857  10.560  36.174   7.950
 4314POPC   C4A15858  10.524  36.150   7.650
 4314POPC   C1B15859  10.554  35.927   8.550
 4314POPC   C2B15860  10.568  35.934   8.250
 4314POPC   C3B15861  10.558  35.845   7.950
 4314POPC   C4B15862  10.574  35.935   7.650
 4315POPC   NC315863  38.502  42.301   9.450
 4315POPC   PO415864  38.416  42.324   9.150
 4315POPC   GL115865  38.446  42.347   8.850
 4315POPC   GL215866  38.355  42.369   8.850
 4315POPC   C1A15867  38.424  42.355   8.550
 4315POPC   D2A15868  38.458  42.372   8.250
 4315POPC   C3A15869  38.424  42.338   7.950
 4315POPC   C4A15870  38.504  42.364   7.650
 4315POPC   C1B15871  38.205  42.360   8.550
 4315POPC   C2B15872  38.189  42.302   8.250
 4315POPC   C3B15873  38.179  42.377   7.950
 4315POPC   C4B15874  38.169  42.320   7.650
 4316POPC   NC315875  21.355  24.537   9.450
 4316POPC   PO415876  21.411  24.517   9.150
 4316POPC   GL115877  21.339  24.534   8.850
 4316POPC   GL215878  21.433  24.384   8.850
 4316POPC   C1A15879  21.392  24.453   8.550
 4316POPC   D2A15880  21.358  24.492   8.250
 4316POPC   C3A15881  21.354  24.494   7.950
 4316POPC   C4A15882  21.407  24.450   7.650
 4316POPC   C1B15883  21.403  24.241   8.550
 4316POPC   C2B15884  21.405  24.257   8.250
 4316POPC   C3B15885  21.406  24.228   7.950
 4316POPC   C4B15886  21.462  24.217   7.650
 4317POPC   NC315887   3.586  22.936   9.450
 4317POPC   PO415888   3.504  22.964   9.150
 4317POPC   GL115889   3.533  22.979   8.850
 4317POPC   GL215890   3.594  22.856   8.850
 4317POPC   C1A15891   3.571  22.892   8.550
 4317POPC   D2A15892   3.568  22.944   8.250
 4317POPC   C3A15893   3.493  22.971   7.950
 4317POPC   C4A15894   3.530  22.969   7.650
 4317POPC   C1B15895   3.579  22.677   8.550
 4317POPC   C2B15896   3.526  22.719   8.250
 4317POPC   C3B15897   3.517  22.639   7.950
 4317POPC   C4B15898   3.504  22.722   7.650
 4318POPC   NC315899  36.880  12.103   9.450
 4318POPC   PO415900  36.902  12.037   9.150
 4318POPC   GL115901  36.885  12.051   8.850
 4318POPC   GL215902  36.964  12.195   8.850
 4318POPC   C1A15903  36.896  12.106   8.550
 4318POPC   D2A15904  36.912  12.067   8.250
 4318POPC   C3A15905  36.946  12.056   7.950
 4318POPC   C4A15906  36.917  12.105   7.650
 4318POPC   C1B15907  37.081  12.272   8.550
 4318POPC   C2B15908  37.054  12.244   8.250
 4318POPC   C3B15909  37.095  12.220   7.950
 4318POPC   C4B15910  37.109  12.227   7.650
 4319POPC   NC315911   0.401  23.705   9.450
 4319POPC   PO415912   0.455  23.708   9.150
 4319POPC   GL115913   0.397  23.750   8.850
 4319POPC   GL215914   0.571  23.752   8.850
 4319POPC   C1A15915   0.394  23.741   8.550
 4319POPC   D2A15916   0.428  23.690   8.250
 4319POPC   C3A15917   0.485  23.677   7.950
 4319POPC   C4A15918   0.425  23.692   7.650
 4319POPC   C1B15919   0.670  23.738   8.550
 4319POPC   C2B15920   0.716  23.701   8.250
 4319POPC   C3B15921   0.693  23.757   7.950
 4319POPC   C4B15922   0.646  23.746   7.650
 4320POPC   NC315923  25.265  16.708   9.450
 4320POPC   PO415924  25.270  16.756   9.150
 4320POPC   GL115925  25.296  16.735   8.850
 4320POPC   GL215926  25.341  16.615   8.850
 4320POPC   C1A15927  25.262  16.734   8.550
 4320POPC   D2A15928  25.250  16.767   8.250
 4320POPC   C3A15929  25.227  16.765   7.950
 4320POPC   C4A15930  25.219  16.747   7.650
 4320POPC   C1B15931  25.396  16.541   8.550
 4320POPC   C2B15932  25.433  16.529   8.250
 4320POPC   C3B15933  25.450  16.530   7.950
 4320POPC   C4B15934  25.415  16.526   7.650
 4321POPC   NC315935  30.678  31.509   9.450
 4321POPC   PO415936  30.663  31.462   9.150
 4321POPC   GL115937  30.662  31.441   8.850
 4321POPC   GL215938  30.591  31.484   8.850
 4321POPC   C1A15939  30.670  31.437   8.550
 4321POPC   D2A15940  30.679  31.507   8.250
 4321POPC   C3A15941  30.685  31.465   7.950
 4321POPC   C4A15942  30.678  31.486   7.650
 4321POPC   C1B15943  30.399  31.502   8.550
 4321POPC   C2B15944  30.479  31.509   8.250
 4321POPC   C3B15945  30.404  31.465   7.950
 4321POPC   C4B15946  30.412  31.528   7.650
 4322POPC   NC315947   2.811  33.791   9.450
 4322POPC   PO415948   2.758  33.756   9.150
 4322POPC   GL115949   2.807  33.758   8.850
 4322POPC   GL215950   2.793  33.950   8.850
 4322POPC   C1A15951   2.749  33.789   8.550
 4322POPC   D2A15952   2.793  33.783   8.250
 4322POPC   C3A15953   2.744  33.823   7.950
 4322POPC   C4A15954   2.790  33.823   7.650
 4322POPC   C1B15955   2.754  34.019   8.550
 4322POPC   C2B15956   2.776  34.048   8.250
 4322POPC   C3B15957   2.706  34.067   7.950
 4322POPC   C4B15958   2.784  34.044   7.650
 4323POPC   NC315959  34.558  35.347   9.450
 4323POPC   PO415960  34.555  35.359   9.150
 4323POPC   GL115961  34.527  35.379   8.850
 4323POPC   GL215962  34.626  35.466   8.850
 4323POPC   C1A15963  34.572  35.347   8.550
 4323POPC   D2A15964  34.559  35.357   8.250
 4323POPC   C3A15965  34.556  35.328   7.950
 4323POPC   C4A15966  34.576  35.311   7.650
 4323POPC   C1B15967  34.655  35.588   8.550
 4323POPC   C2B15968  34.605  35.619   8.250
 4323POPC   C3B15969  34.633  35.585   7.950
 4323POPC   C4B15970  34.698  35.607   7.650
 4324POPC   NC315971  25.231  20.602   9.450
 4324POPC   PO415972  25.269  20.616   9.150
 4324POPC   GL115973  25.273  20.577   8.850
 4324POPC   GL215974  25.223  20.454   8.850
 4324POPC   C1A15975  25.294  20.594   8.550
 4324POPC   D2A15976  25.271  20.592   8.250
 4324POPC   C3A15977  25.265  20.626   7.950
 4324POPC   C4A15978  25.257  20.596   7.650
 4324POPC   C1B15979  25.247  20.354   8.550
 4324POPC   C2B15980  25.229  20.347   8.250
 4324POPC   C3B15981  25.258  20.408   7.950
 4324POPC   C4B15982  25.218  20.337   7.650
 4325POPC   NC315983  33.850  29.103   9.450
 4325POPC   PO415984  33.845  29.109   9.150
 4325POPC   GL115985  33.752  29.191   8.850
 4325POPC   GL215986  33.933  29.103   8.850
 4325POPC   C1A15987  33.784  29.128   8.550
 4325POPC   D2A15988  33.772  29.120   8.250
 4325POPC   C3A15989  33.793  29.172   7.950
 4325POPC   C4A15990  33.793  29.113   7.650
 4325POPC   C1B15991  34.021  29.057   8.550
 4325POPC   C2B15992  34.043  28.986   8.250
 4325POPC   C3B15993  34.002  29.020   7.950
 4325POPC   C4B15994  33.982  29.056   7.650
 4326POPC   NC315995  16.712  10.513   9.450
 4326POPC   PO415996  16.713  10.549   9.150
 4326POPC   GL115997  16.722  10.547   8.850
 4326POPC   GL215998  16.634  10.488   8.850
 4326POPC   C1A15999  16.734  10.568   8.550
 4326POPC   D2A16000  16.771  10.571   8.250
 4326POPC   C3A16001  16.731  10.502   7.950
 4326POPC   C4A16002  16.774  10.515   7.650
 4326POPC   C1B16003  16.524  10.375   8.550
 4326POPC   C2B16004  16.580  10.404   8.250
 4326POPC   C3B16005  16.522  10.315   7.950
 4326POPC   C4B16006  16.546  10.318   7.650
 4327POPC   NC316007  13.674  14.411   9.450
 4327POPC   PO416008  13.623  14.418   9.150
 4327POPC   GL116009  13.665  14.421   8.850
 4327POPC   GL216010  13.777  14.450   8.850
 4327POPC   C1A16011  13.649  14.438   8.550
 4327POPC   D2A16012  13.667  14.422   8.250
 4327POPC   C3A16013  13.630  14.378   7.950
 4327POPC   C4A16014  13.634  14.443   7.650
 4327POPC   C1B16015  13.847  14.572   8.550
 4327POPC   C2B16016  13.877  14.525   8.250
 4327POPC   C3B16017  13.879  14.582   7.950
 4327POPC   C4B16018  13.876  14.497   7.650
 4328POPC   NC316019  24.509   5.879   9.450
 4328POPC   PO416020  24.475   5.918   9.150
 4328POPC   GL116021  24.498   5.832   8.850
 4328POPC   GL216022  24.581   5.785   8.850
 4328POPC   C1A16023  24.451   5.899   8.550
 4328POPC   D2A16024  24.496   5.856   8.250
 4328POPC   C3A16025  24.505   5.869   7.950
 4328POPC   C4A16026  24.508   5.862   7.650
 4328POPC   C1B16027  24.672   5.746   8.550
 4328POPC   C2B16028  24.722   5.723   8.250
 4328POPC   C3B16029  24.644   5.663   7.950
 4328POPC   C4B16030  24.698   5.730   7.650
 4329POPC   NC316031  43.847  29.895   9.450
 4329POPC   PO416032  43.853  29.934   9.150
 4329POPC   GL116033  43.843  29.969   8.850
 4329POPC   GL216034  43.791  29.903   8.850
 4329POPC   C1A16035  43.873  29.967   8.550
 4329POPC   D2A16036  43.931  29.923   8.250
 4329POPC   C3A16037  43.930  29.887   7.950
 4329POPC   C4A16038  43.858  29.946   7.650
 4329POPC   C1B16039  43.625  29.914   8.550
 4329POPC   C2B16040  43.644  29.911   8.250
 4329POPC   C3B16041  43.595  29.946   7.950
 4329POPC   C4B16042  43.665  29.937   7.650
 4330POPC   NC316043   7.433  34.606   9.450
 4330POPC   PO416044   7.389  34.603   9.150
 4330POPC   GL116045   7.459  34.568   8.850
 4330POPC   GL216046   7.445  34.484   8.850
 4330POPC   C1A16047   7.416  34.533   8.550
 4330POPC   D2A16048   7.449  34.543   8.250
 4330POPC   C3A16049   7.450  34.562   7.950
 4330POPC   C4A16050   7.433  34.531   7.650
 4330POPC   C1B16051   7.369  34.368   8.550
 4330POPC   C2B16052   7.450  34.323   8.250
 4330POPC   C3B16053   7.438  34.341   7.950
 4330POPC   C4B16054   7.392  34.298   7.650
 4331POPC   NC316055   1.940  22.175   9.450
 4331POPC   PO416056   1.941  22.193   9.150
 4331POPC   GL116057   2.007  22.154   8.850
 4331POPC   GL216058   1.853  22.138   8.850
 4331POPC   C1A16059   1.949  22.187   8.550
 4331POPC   D2A16060   1.974  22.122   8.250
 4331POPC   C3A16061   1.967  22.182   7.950
 4331POPC   C4A16062   1.969  22.208   7.650
 4331POPC   C1B16063   1.731  22.110   8.550
 4331POPC   C2B16064   1.750  22.098   8.250
 4331POPC   C3B16065   1.756  22.128   7.950
 4331POPC   C4B16066   1.708  22.066   7.650
 4332POPC   NC316067   3.535  33.799   9.450
 4332POPC   PO416068   3.527  33.778   9.150
 4332POPC   GL116069   3.501  33.751   8.850
 4332POPC   GL216070   3.640  33.880   8.850
 4332POPC   C1A16071   3.559  33.806   8.550
 4332POPC   D2A16072   3.535  33.819   8.250
 4332POPC   C3A16073   3.519  33.830   7.950
 4332POPC   C4A16074   3.496  33.845   7.650
 4332POPC   C1B16075   3.785  33.927   8.550
 4332POPC   C2B16076   3.784  33.972   8.250
 4332POPC   C3B16077   3.756  33.964   7.950
 4332POPC   C4B16078   3.722  33.912   7.650
 4333POPC   NC316079   8.172  21.406   9.450
 4333POPC   PO416080   8.220  21.359   9.150
 4333POPC   GL116081   8.226  21.408   8.850
 4333POPC   GL216082   8.093  21.480   8.850
 4333POPC   C1A16083   8.210  21.425   8.550
 4333POPC   D2A16084   8.236  21.420   8.250
 4333POPC   C3A16085   8.235  21.425   7.950
 4333POPC   C4A16086   8.237  21.374   7.650
 4333POPC   C1B16087   7.986  21.604   8.550
 4333POPC   C2B16088   7.985  21.555   8.250
 4333POPC   C3B16089   8.011  21.551   7.950
 4333POPC   C4B16090   8.028  21.542   7.650
 4334POPC   NC316091  42.369  29.888   9.450
 4334POPC   PO416092  42.380  29.888   9.150
 4334POPC   GL116093  42.341  29.888   8.850
 4334POPC   GL216094  42.232  29.820   8.850
 4334POPC   C1A16095  42.362  29.957   8.550
 4334POPC   D2A16096  42.320  29.877   8.250
 4334POPC   C3A16097  42.333  29.874   7.950
 4334POPC   C4A16098  42.380  29.883   7.650
 4334POPC   C1B16099  42.088  29.814   8.550
 4334POPC   C2B16100  42.085  29.783   8.250
 4334POPC   C3B16101  42.126  29.782   7.950
 4334POPC   C4B16102  42.117  29.792   7.650
 4335POPC   NC316103  11.282  41.609   9.450
 4335POPC   PO416104  11.256  41.553   9.150
 4335POPC   GL116105  11.259  41.589   8.850
 4335POPC   GL216106  11.170  41.549   8.850
 4335POPC   C1A16107  11.293  41.581   8.550
 4335POPC   D2A16108  11.298  41.527   8.250
 4335POPC   C3A16109  11.294  41.560   7.950
 4335POPC   C4A16110  11.299  41.552   7.650
 4335POPC   C1B16111  11.040  41.618   8.550
 4335POPC   C2B16112  11.080  41.557   8.250
 4335POPC   C3B16113  11.046  41.594   7.950
 4335POPC   C4B16114  11.042  41.618   7.650
 4336POPC   NC316115  44.691  11.311   9.450
 4336POPC   PO416116  44.699  11.282   9.150
 4336POPC   GL116117  44.692  11.270   8.850
 4336POPC   GL216118  44.747  11.367   8.850
 4336POPC   C1A16119  44.647  11.252   8.550
 4336POPC   D2A16120  44.629  11.256   8.250
 4336POPC   C3A16121  44.629  11.297   7.950
 4336POPC   C4A16122  44.712  11.306   7.650
 4336POPC   C1B16123  44.846  11.509   8.550
 4336POPC   C2B16124  44.759  11.483   8.250
 4336POPC   C3B16125  44.805  11.529   7.950
 4336POPC   C4B16126  44.813  11.549   7.650
 4337POPC   NC316127  19.095  41.514   9.450
 4337POPC   PO416128  19.049  41.556   9.150
 4337POPC   GL116129  19.048  41.590   8.850
 4337POPC   GL216130  19.203  41.469   8.850
 4337POPC   C1A16131  19.062  41.536   8.550
 4337POPC   D2A16132  19.051  41.591   8.250
 4337POPC   C3A16133  19.035  41.556   7.950
 4337POPC   C4A16134  19.019  41.535   7.650
 4337POPC   C1B16135  19.303  41.437   8.550
 4337POPC   C2B16136  19.288  41.456   8.250
 4337POPC   C3B16137  19.259  41.495   7.950
 4337POPC   C4B16138  19.312  41.481   7.650
 4338POPC   NC316139  32.999  39.971   9.450
 4338POPC   PO416140  33.037  40.030   9.150
 4338POPC   GL116141  33.056  40.014   8.850
 4338POPC   GL216142  33.122  40.095   8.850
 4338POPC   C1A16143  33.035  39.995   8.550
 4338POPC   D2A16144  33.034  40.003   8.250
 4338POPC   C3A16145  33.014  39.972   7.950
 4338POPC   C4A16146  33.070  40.024   7.650
 4338POPC   C1B16147  33.262  40.190   8.550
 4338POPC   C2B16148  33.258  40.143   8.250
 4338POPC   C3B16149  33.206  40.165   7.950
 4338POPC   C4B16150  33.220  40.167   7.650
 4339POPC   NC316151  37.672  36.943   9.450
 4339POPC   PO416152  37.632  36.910   9.150
 4339POPC   GL116153  37.648  36.895   8.850
 4339POPC   GL216154  37.757  36.869   8.850
 4339POPC   C1A16155  37.709  36.931   8.550
 4339POPC   D2A16156  37.705  36.951   8.250
 4339POPC   C3A16157  37.719  36.881   7.950
 4339POPC   C4A16158  37.688  36.913   7.650
 4339POPC   C1B16159  37.937  36.834   8.550
 4339POPC   C2B16160  37.896  36.833   8.250
 4339POPC   C3B16161  37.886  36.749   7.950
 4339POPC   C4B16162  37.926  36.833   7.650
 4340POPC   NC316163  15.153  12.838   9.450
 4340POPC   PO416164  15.192  12.820   9.150
 4340POPC   GL116165  15.210  12.809   8.850
 4340POPC   GL216166  15.349  12.895   8.850
 4340POPC   C1A16167  15.229  12.839   8.550
 4340POPC   D2A16168  15.131  12.841   8.250
 4340POPC   C3A16169  15.134  12.893   7.950
 4340POPC   C4A16170  15.181  12.857   7.650
 4340POPC   C1B16171  15.441  12.841   8.550
 4340POPC   C2B16172  15.392  12.809   8.250
 4340POPC   C3B16173  15.428  12.854   7.950
 4340POPC   C4B16174  15.433  12.893   7.650
 4341POPC   NC316175  18.260  20.635   9.450
 4341POPC   PO416176  18.266  20.605   9.150
 4341POPC   GL116177  18.284  20.618   8.850
 4341POPC   GL216178  18.393  20.513   8.850
 4341POPC   C1A16179  18.238  20.587   8.550
 4341POPC   D2A16180  18.242  20.577   8.250
 4341POPC   C3A16181  18.323  20.571   7.950
 4341POPC   C4A16182  18.318  20.608   7.650
 4341POPC   C1B16183  18.498  20.437   8.550
 4341POPC   C2B16184  18.458  20.452   8.250
 4341POPC   C3B16185  18.521  20.489   7.950
 4341POPC   C4B16186  18.448  20.412   7.650
 4342POPC   NC316187  25.276  32.249   9.450
 4342POPC   PO416188  25.303  32.272   9.150
 4342POPC   GL116189  25.294  32.266   8.850
 4342POPC   GL216190  25.273  32.409   8.850
 4342POPC   C1A16191  25.248  32.262   8.550
 4342POPC   D2A16192  25.270  32.286   8.250
 4342POPC   C3A16193  25.279  32.204   7.950
 4342POPC   C4A16194  25.259  32.248   7.650
 4342POPC   C1B16195  25.337  32.434   8.550
 4342POPC   C2B16196  25.355  32.452   8.250
 4342POPC   C3B16197  25.335  32.519   7.950
 4342POPC   C4B16198  25.382  32.443   7.650
 4343POPC   NC316199  26.043  44.661   9.450
 4343POPC   PO416200  26.060  44.691   9.150
 4343POPC   GL116201  26.079  44.694   8.850
 4343POPC   GL216202  26.107  44.592   8.850
 4343POPC   C1A16203  26.032  44.653   8.550
 4343POPC   D2A16204  26.064  44.711   8.250
 4343POPC   C3A16205  26.069  44.673   7.950
 4343POPC   C4A16206  26.031  44.626   7.650
 4343POPC   C1B16207  26.251  44.538   8.550
 4343POPC   C2B16208  26.203  44.452   8.250
 4343POPC   C3B16209  26.223  44.525   7.950
 4343POPC   C4B16210  26.246  44.527   7.650
 4344POPC   NC316211  33.818  35.304   9.450
 4344POPC   PO416212  33.829  35.364   9.150
 4344POPC   GL116213  33.776  35.310   8.850
 4344POPC   GL216214  33.774  35.451   8.850
 4344POPC   C1A16215  33.817  35.386   8.550
 4344POPC   D2A16216  33.762  35.312   8.250
 4344POPC   C3A16217  33.840  35.388   7.950
 4344POPC   C4A16218  33.757  35.391   7.650
 4344POPC   C1B16219  33.677  35.611   8.550
 4344POPC   C2B16220  33.740  35.562   8.250
 4344POPC   C3B16221  33.738  35.556   7.950
 4344POPC   C4B16222  33.701  35.599   7.650
 4345POPC   NC316223  21.431  15.194   9.450
 4345POPC   PO416224  21.374  15.184   9.150
 4345POPC   GL116225  21.402  15.188   8.850
 4345POPC   GL216226  21.391  15.343   8.850
 4345POPC   C1A16227  21.383  15.197   8.550
 4345POPC   D2A16228  21.387  15.139   8.250
 4345POPC   C3A16229  21.411  15.140   7.950
 4345POPC   C4A16230  21.341  15.187   7.650
 4345POPC   C1B16231  21.346  15.393   8.550
 4345POPC   C2B16232  21.408  15.395   8.250
 4345POPC   C3B16233  21.383  15.426   7.950
 4345POPC   C4B16234  21.364  15.407   7.650
 4346POPC   NC316235  22.937  37.712   9.450
 4346POPC   PO416236  22.916  37.708   9.150
 4346POPC   GL116237  22.954  37.665   8.850
 4346POPC   GL216238  22.979  37.570   8.850
 4346POPC   C1A16239  22.921  37.657   8.550
 4346POPC   D2A16240  22.963  37.636   8.250
 4346POPC   C3A16241  22.958  37.646   7.950
 4346POPC   C4A16242  22.973  37.636   7.650
 4346POPC   C1B16243  22.909  37.389   8.550
 4346POPC   C2B16244  22.990  37.390   8.250
 4346POPC   C3B16245  23.001  37.406   7.950
 4346POPC   C4B16246  22.928  37.429   7.650
 4347POPC   NC316247  12.884  43.061   9.450
 4347POPC   PO416248  12.829  43.133   9.150
 4347POPC   GL116249  12.898  43.154   8.850
 4347POPC   GL216250  12.956  43.264   8.850
 4347POPC   C1A16251  12.862  43.119   8.550
 4347POPC   D2A16252  12.886  43.096   8.250
 4347POPC   C3A16253  12.901  43.065   7.950
 4347POPC   C4A16254  12.809  43.151   7.650
 4347POPC   C1B16255  13.020  43.353   8.550
 4347POPC   C2B16256  12.939  43.345   8.250
 4347POPC   C3B16257  13.025  43.319   7.950
 4347POPC   C4B16258  12.976  43.369   7.650
 4348POPC   NC316259   0.444  39.255   9.450
 4348POPC   PO416260   0.421  39.209   9.150
 4348POPC   GL116261   0.414  39.182   8.850
 4348POPC   GL216262   0.418  39.150   8.850
 4348POPC   C1A16263   0.398  39.188   8.550
 4348POPC   D2A16264   0.487  39.233   8.250
 4348POPC   C3A16265   0.447  39.189   7.950
 4348POPC   C4A16266   0.451  39.253   7.650
 4348POPC   C1B16267   0.512  38.982   8.550
 4348POPC   C2B16268   0.495  38.968   8.250
 4348POPC   C3B16269   0.458  39.021   7.950
 4348POPC   C4B16270   0.495  38.937   7.650
 4349POPC   NC316271   8.219   5.913   9.450
 4349POPC   PO416272   8.218   5.861   9.150
 4349POPC   GL116273   8.150   5.892   8.850
 4349POPC   GL216274   8.346   5.937   8.850
 4349POPC   C1A16275   8.164   5.858   8.550
 4349POPC   D2A16276   8.150   5.904   8.250
 4349POPC   C3A16277   8.220   5.894   7.950
 4349POPC   C4A16278   8.173   5.863   7.650
 4349POPC   C1B16279   8.390   5.994   8.550
 4349POPC   C2B16280   8.400   5.989   8.250
 4349POPC   C3B16281   8.442   6.000   7.950
 4349POPC   C4B16282   8.386   5.991   7.650
 4350POPC   NC316283   5.138   7.396   9.450
 4350POPC   PO416284   5.124   7.458   9.150
 4350POPC   GL116285   5.119   7.442   8.850
 4350POPC   GL216286   4.985   7.575   8.850
 4350POPC   C1A16287   5.103   7.451   8.550
 4350POPC   D2A16288   5.130   7.427   8.250
 4350POPC   C3A16289   5.099   7.375   7.950
 4350POPC   C4A16290   5.086   7.397   7.650
 4350POPC   C1B16291   4.941   7.608   8.550
 4350POPC   C2B16292   4.999   7.677   8.250
 4350POPC   C3B16293   4.982   7.665   7.950
 4350POPC   C4B16294   4.996   7.603   7.650
 4351POPC   NC316295  19.078   7.427   9.450
 4351POPC   PO416296  19.081   7.385   9.150
 4351POPC   GL116297  19.025   7.468   8.850
 4351POPC   GL216298  19.152   7.407   8.850
 4351POPC   C1A16299  19.066   7.450   8.550
 4351POPC   D2A16300  19.101   7.447   8.250
 4351POPC   C3A16301  19.061   7.398   7.950
 4351POPC   C4A16302  19.097   7.455   7.650
 4351POPC   C1B16303  19.314   7.340   8.550
 4351POPC   C2B16304  19.319   7.362   8.250
 4351POPC   C3B16305  19.317   7.298   7.950
 4351POPC   C4B16306  19.284   7.365   7.650
 4352POPC   NC316307  21.392  37.705   9.450
 4352POPC   PO416308  21.373  37.645   9.150
 4352POPC   GL116309  21.351  37.692   8.850
 4352POPC   GL216310  21.421  37.587   8.850
 4352POPC   C1A16311  21.373  37.688   8.550
 4352POPC   D2A16312  21.348  37.665   8.250
 4352POPC   C3A16313  21.347  37.652   7.950
 4352POPC   C4A16314  21.424  37.696   7.650
 4352POPC   C1B16315  21.587  37.520   8.550
 4352POPC   C2B16316  21.507  37.537   8.250
 4352POPC   C3B16317  21.580  37.494   7.950
 4352POPC   C4B16318  21.550  37.507   7.650
 4353POPC   NC316319   2.026   0.392   9.450
 4353POPC   PO416320   2.002   0.458   9.150
 4353POPC   GL116321   2.036   0.407   8.850
 4353POPC   GL216322   1.930   0.550   8.850
 4353POPC   C1A16323   2.024   0.438   8.550
 4353POPC   D2A16324   1.977   0.480   8.250
 4353POPC   C3A16325   1.980   0.451   7.950
 4353POPC   C4A16326   1.950   0.437   7.650
 4353POPC   C1B16327   1.927   0.720   8.550
 4353POPC   C2B16328   1.953   0.728   8.250
 4353POPC   C3B16329   1.907   0.677   7.950
 4353POPC   C4B16330   1.909   0.675   7.650
 4354POPC   NC316331  29.953  33.050   9.450
 4354POPC   PO416332  29.887  33.015   9.150
 4354POPC   GL116333  29.970  32.998   8.850
 4354POPC   GL216334  29.887  32.863   8.850
 4354POPC   C1A16335  29.950  32.983   8.550
 4354POPC   D2A16336  29.935  33.065   8.250
 4354POPC   C3A16337  29.924  33.012   7.950
 4354POPC   C4A16338  29.945  33.056   7.650
 4354POPC   C1B16339  29.900  32.818   8.550
 4354POPC   C2B16340  29.876  32.781   8.250
 4354POPC   C3B16341  29.884  32.755   7.950
 4354POPC   C4B16342  29.839  32.810   7.650
 4355POPC   NC316343  40.744  18.310   9.450
 4355POPC   PO416344  40.798  18.243   9.150
 4355POPC   GL116345  40.804  18.297   8.850
 4355POPC   GL216346  40.919  18.273   8.850
 4355POPC   C1A16347  40.774  18.294   8.550
 4355POPC   D2A16348  40.816  18.257   8.250
 4355POPC   C3A16349  40.825  18.303   7.950
 4355POPC   C4A16350  40.802  18.284   7.650
 4355POPC   C1B16351  41.009  18.175   8.550
 4355POPC   C2B16352  41.010  18.173   8.250
 4355POPC   C3B16353  41.045  18.143   7.950
 4355POPC   C4B16354  41.062  18.144   7.650
 4356POPC   NC316355  12.882  12.065   9.450
 4356POPC   PO416356  12.851  12.031   9.150
 4356POPC   GL116357  12.832  12.032   8.850
 4356POPC   GL216358  12.881  11.976   8.850
 4356POPC   C1A16359  12.898  12.093   8.550
 4356POPC   D2A16360  12.872  12.039   8.250
 4356POPC   C3A16361  12.864  12.056   7.950
 4356POPC   C4A16362  12.874  12.032   7.650
 4356POPC   C1B16363  12.846  11.852   8.550
 4356POPC   C2B16364  12.846  11.820   8.250
 4356POPC   C3B16365  12.845  11.876   7.950
 4356POPC   C4B16366  12.881  11.828   7.650
 4357POPC   NC316367  27.607  36.906   9.450
 4357POPC   PO416368  27.640  36.930   9.150
 4357POPC   GL116369  27.598  36.891   8.850
 4357POPC   GL216370  27.563  36.831   8.850
 4357POPC   C1A16371  27.592  36.855   8.550
 4357POPC   D2A16372  27.561  36.904   8.250
 4357POPC   C3A16373  27.636  36.906   7.950
 4357POPC   C4A16374  27.603  36.891   7.650
 4357POPC   C1B16375  27.573  36.657   8.550
 4357POPC   C2B16376  27.548  36.658   8.250
 4357POPC   C3B16377  27.570  36.672   7.950
 4357POPC   C4B16378  27.546  36.639   7.650
 4358POPC   NC316379  16.772  11.278   9.450
 4358POPC   PO416380  16.727  11.325   9.150
 4358POPC   GL116381  16.771  11.331   8.850
 4358POPC   GL216382  16.863  11.248   8.850
 4358POPC   C1A16383  16.707  11.339   8.550
 4358POPC   D2A16384  16.757  11.329   8.250
 4358POPC   C3A16385  16.750  11.302   7.950
 4358POPC   C4A16386  16.738  11.334   7.650
 4358POPC   C1B16387  16.954  11.237   8.550
 4358POPC   C2B16388  16.949  11.258   8.250
 4358POPC   C3B16389  16.928  11.232   7.950
 4358POPC   C4B16390  16.941  11.238   7.650
 4359POPC   NC316391  12.110  36.159   9.450
 4359POPC   PO416392  12.071  36.166   9.150
 4359POPC   GL116393  12.094  36.086   8.850
 4359POPC   GL216394  12.082  36.286   8.850
 4359POPC   C1A16395  12.031  36.165   8.550
 4359POPC   D2A16396  12.121  36.144   8.250
 4359POPC   C3A16397  12.094  36.136   7.950
 4359POPC   C4A16398  12.122  36.120   7.650
 4359POPC   C1B16399  12.044  36.416   8.550
 4359POPC   C2B16400  12.036  36.418   8.250
 4359POPC   C3B16401  12.075  36.344   7.950
 4359POPC   C4B16402  12.093  36.377   7.650
 4360POPC   NC316403  18.296  43.844   9.450
 4360POPC   PO416404  18.299  43.913   9.150
 4360POPC   GL116405  18.310  43.933   8.850
 4360POPC   GL216406  18.213  43.945   8.850
 4360POPC   C1A16407  18.253  43.883   8.550
 4360POPC   D2A16408  18.255  43.863   8.250
 4360POPC   C3A16409  18.306  43.880   7.950
 4360POPC   C4A16410  18.296  43.920   7.650
 4360POPC   C1B16411  18.077  44.088   8.550
 4360POPC   C2B16412  18.110  44.069   8.250
 4360POPC   C3B16413  18.085  44.015   7.950
 4360POPC   C4B16414  18.092  44.049   7.650
 4361POPC   NC316415  40.760  11.306   9.450
 4361POPC   PO416416  40.758  11.251   9.150
 4361POPC   GL116417  40.802  11.332   8.850
 4361POPC   GL216418  40.633  11.326   8.850
 4361POPC   C1A16419  40.805  11.315   8.550
 4361POPC   D2A16420  40.757  11.256   8.250
 4361POPC   C3A16421  40.794  11.282   7.950
 4361POPC   C4A16422  40.827  11.328   7.650
 4361POPC   C1B16423  40.556  11.337   8.550
 4361POPC   C2B16424  40.532  11.282   8.250
 4361POPC   C3B16425  40.549  11.342   7.950
 4361POPC   C4B16426  40.579  11.353   7.650
 4362POPC   NC316427  26.004  14.373   9.450
 4362POPC   PO416428  26.019  14.446   9.150
 4362POPC   GL116429  26.018  14.383   8.850
 4362POPC   GL216430  26.091  14.503   8.850
 4362POPC   C1A16431  26.030  14.374   8.550
 4362POPC   D2A16432  25.993  14.392   8.250
 4362POPC   C3A16433  25.995  14.444   7.950
 4362POPC   C4A16434  26.062  14.453   7.650
 4362POPC   C1B16435  26.134  14.599   8.550
 4362POPC   C2B16436  26.100  14.648   8.250
 4362POPC   C3B16437  26.144  14.665   7.950
 4362POPC   C4B16438  26.122  14.628   7.650
 4363POPC   NC316439  16.746  40.825   9.450
 4363POPC   PO416440  16.741  40.787   9.150
 4363POPC   GL116441  16.683  40.779   8.850
 4363POPC   GL216442  16.723  40.657   8.850
 4363POPC   C1A16443  16.777  40.778   8.550
 4363POPC   D2A16444  16.688  40.754   8.250
 4363POPC   C3A16445  16.730  40.826   7.950
 4363POPC   C4A16446  16.731  40.769   7.650
 4363POPC   C1B16447  16.675  40.586   8.550
 4363POPC   C2B16448  16.715  40.489   8.250
 4363POPC   C3B16449  16.631  40.522   7.950
 4363POPC   C4B16450  16.657  40.575   7.650
 4364POPC   NC316451   2.802  19.835   9.450
 4364POPC   PO416452   2.792  19.790   9.150
 4364POPC   GL116453   2.761  19.816   8.850
 4364POPC   GL216454   2.877  19.917   8.850
 4364POPC   C1A16455   2.740  19.826   8.550
 4364POPC   D2A16456   2.754  19.814   8.250
 4364POPC   C3A16457   2.733  19.857   7.950
 4364POPC   C4A16458   2.754  19.873   7.650
 4364POPC   C1B16459   3.053  19.907   8.550
 4364POPC   C2B16460   3.035  19.953   8.250
 4364POPC   C3B16461   2.963  19.872   7.950
 4364POPC   C4B16462   3.023  19.927   7.650
 4365POPC   NC316463   8.233  43.878   9.450
 4365POPC   PO416464   8.239  43.862   9.150
 4365POPC   GL116465   8.245  43.849   8.850
 4365POPC   GL216466   8.162  43.998   8.850
 4365POPC   C1A16467   8.152  43.924   8.550
 4365POPC   D2A16468   8.235  43.843   8.250
 4365POPC   C3A16469   8.240  43.932   7.950
 4365POPC   C4A16470   8.216  43.870   7.650
 4365POPC   C1B16471   8.006  44.097   8.550
 4365POPC   C2B16472   8.086  44.082   8.250
 4365POPC   C3B16473   8.073  44.050   7.950
 4365POPC   C4B16474   8.033  44.069   7.650
 4366POPC   NC316475   2.739  19.073   9.450
 4366POPC   PO416476   2.720  19.097   9.150
 4366POPC   GL116477   2.805  19.037   8.850
 4366POPC   GL216478   2.638  19.068   8.850
 4366POPC   C1A16479   2.727  19.082   8.550
 4366POPC   D2A16480   2.730  19.009   8.250
 4366POPC   C3A16481   2.745  19.031   7.950
 4366POPC   C4A16482   2.776  19.041   7.650
 4366POPC   C1B16483   2.578  19.152   8.550
 4366POPC   C2B16484   2.560  19.153   8.250
 4366POPC   C3B16485   2.545  19.173   7.950
 4366POPC   C4B16486   2.580  19.192   7.650
 4367POPC   NC316487   5.047  29.947   9.450
 4367POPC   PO416488   5.136  29.902   9.150
 4367POPC   GL116489   5.044  29.889   8.850
 4367POPC   GL216490   5.011  29.871   8.850
 4367POPC   C1A16491   5.084  29.872   8.550
 4367POPC   D2A16492   5.114  29.881   8.250
 4367POPC   C3A16493   5.056  29.961   7.950
 4367POPC   C4A16494   5.118  29.891   7.650
 4367POPC   C1B16495   4.921  29.689   8.550
 4367POPC   C2B16496   4.902  29.769   8.250
 4367POPC   C3B16497   4.905  29.726   7.950
 4367POPC   C4B16498   4.941  29.743   7.650
 4368POPC   NC316499  19.014  40.767   9.450
 4368POPC   PO416500  19.094  40.814   9.150
 4368POPC   GL116501  19.092  40.747   8.850
 4368POPC   GL216502  18.970  40.698   8.850
 4368POPC   C1A16503  19.023  40.818   8.550
 4368POPC   D2A16504  19.016  40.769   8.250
 4368POPC   C3A16505  19.085  40.825   7.950
 4368POPC   C4A16506  19.068  40.777   7.650
 4368POPC   C1B16507  18.900  40.578   8.550
 4368POPC   C2B16508  18.920  40.542   8.250
 4368POPC   C3B16509  18.911  40.559   7.950
 4368POPC   C4B16510  18.897  40.532   7.650
 4369POPC   NC316511  18.286  43.092   9.450
 4369POPC   PO416512  18.275  43.101   9.150
 4369POPC   GL116513  18.327  43.148   8.850
 4369POPC   GL216514  18.193  42.962   8.850
 4369POPC   C1A16515  18.275  43.137   8.550
 4369POPC   D2A16516  18.323  43.093   8.250
 4369POPC   C3A16517  18.252  43.147   7.950
 4369POPC   C4A16518  18.332  43.140   7.650
 4369POPC   C1B16519  18.201  42.882   8.550
 4369POPC   C2B16520  18.170  42.880   8.250
 4369POPC   C3B16521  18.169  42.915   7.950
 4369POPC   C4B16522  18.122  42.905   7.650
 4370POPC   NC316523   7.412  20.582   9.450
 4370POPC   PO416524   7.454  20.576   9.150
 4370POPC   GL116525   7.384  20.582   8.850
 4370POPC   GL216526   7.519  20.646   8.850
 4370POPC   C1A16527   7.457  20.601   8.550
 4370POPC   D2A16528   7.432  20.633   8.250
 4370POPC   C3A16529   7.455  20.581   7.950
 4370POPC   C4A16530   7.414  20.646   7.650
 4370POPC   C1B16531   7.676  20.705   8.550
 4370POPC   C2B16532   7.697  20.673   8.250
 4370POPC   C3B16533   7.614  20.723   7.950
 4370POPC   C4B16534   7.666  20.751   7.650
 4371POPC   NC316535  44.649   5.829   9.450
 4371POPC   PO416536  44.673   5.913   9.150
 4371POPC   GL116537  44.665   5.899   8.850
 4371POPC   GL216538  44.747   5.868   8.850
 4371POPC   C1A16539  44.637   5.853   8.550
 4371POPC   D2A16540  44.694   5.850   8.250
 4371POPC   C3A16541  44.689   5.883   7.950
 4371POPC   C4A16542  44.644   5.856   7.650
 4371POPC   C1B16543  44.956   5.849   8.550
 4371POPC   C2B16544  44.924   5.813   8.250
 4371POPC   C3B16545  44.884   5.869   7.950
 4371POPC   C4B16546  44.912   5.784   7.650
 4372POPC   NC316547  36.868  10.487   9.450
 4372POPC   PO416548  36.917  10.510   9.150
 4372POPC   GL116549  36.890  10.500   8.850
 4372POPC   GL216550  36.916  10.596   8.850
 4372POPC   C1A16551  36.892  10.518   8.550
 4372POPC   D2A16552  36.896  10.562   8.250
 4372POPC   C3A16553  36.890  10.480   7.950
 4372POPC   C4A16554  36.865  10.513   7.650
 4372POPC   C1B16555  36.980  10.718   8.550
 4372POPC   C2B16556  36.918  10.777   8.250
 4372POPC   C3B16557  36.957  10.784   7.950
 4372POPC   C4B16558  36.994  10.780   7.650
 4373POPC   NC316559  21.343   8.211   9.450
 4373POPC   PO416560  21.419   8.178   9.150
 4373POPC   GL116561  21.421   8.204   8.850
 4373POPC   GL216562  21.389   8.121   8.850
 4373POPC   C1A16563  21.420   8.240   8.550
 4373POPC   D2A16564  21.379   8.241   8.250
 4373POPC   C3A16565  21.388   8.228   7.950
 4373POPC   C4A16566  21.386   8.160   7.650
 4373POPC   C1B16567  21.392   7.964   8.550
 4373POPC   C2B16568  21.379   7.992   8.250
 4373POPC   C3B16569  21.421   7.991   7.950
 4373POPC   C4B16570  21.380   7.939   7.650
 4374POPC   NC316571  36.149   4.302   9.450
 4374POPC   PO416572  36.105   4.336   9.150
 4374POPC   GL116573  36.129   4.276   8.850
 4374POPC   GL216574  36.040   4.439   8.850
 4374POPC   C1A16575  36.092   4.340   8.550
 4374POPC   D2A16576  36.147   4.358   8.250
 4374POPC   C3A16577  36.131   4.332   7.950
 4374POPC   C4A16578  36.092   4.286   7.650
 4374POPC   C1B16579  36.025   4.580   8.550
 4374POPC   C2B16580  36.000   4.504   8.250
 4374POPC   C3B16581  35.958   4.516   7.950
 4374POPC   C4B16582  35.980   4.569   7.650
 4375POPC   NC316583  36.162  15.917   9.450
 4375POPC   PO416584  36.125  15.993   9.150
 4375POPC   GL116585  36.143  15.991   8.850
 4375POPC   GL216586  36.035  16.010   8.850
 4375POPC   C1A16587  36.132  15.944   8.550
 4375POPC   D2A16588  36.127  15.981   8.250
 4375POPC   C3A16589  36.119  15.947   7.950
 4375POPC   C4A16590  36.138  15.980   7.650
 4375POPC   C1B16591  35.936  16.059   8.550
 4375POPC   C2B16592  35.873  16.078   8.250
 4375POPC   C3B16593  35.931  16.079   7.950
 4375POPC   C4B16594  35.941  16.030   7.650
 4376POPC   NC316595   3.565   4.329   9.450
 4376POPC   PO416596   3.521   4.360   9.150
 4376POPC   GL116597   3.580   4.291   8.850
 4376POPC   GL216598   3.457   4.230   8.850
 4376POPC   C1A16599   3.497   4.286   8.550
 4376POPC   D2A16600   3.582   4.362   8.250
 4376POPC   C3A16601   3.541   4.365   7.950
 4376POPC   C4A16602   3.535   4.365   7.650
 4376POPC   C1B16603   3.315   4.189   8.550
 4376POPC   C2B16604   3.314   4.172   8.250
 4376POPC   C3B16605   3.390   4.186   7.950
 4376POPC   C4B16606   3.375   4.130   7.650
 4377POPC   NC316607  39.208   3.589   9.450
 4377POPC   PO416608  39.272   3.532   9.150
 4377POPC   GL116609  39.203   3.582   8.850
 4377POPC   GL216610  39.233   3.459   8.850
 4377POPC   C1A16611  39.273   3.521   8.550
 4377POPC   D2A16612  39.219   3.552   8.250
 4377POPC   C3A16613  39.241   3.560   7.950
 4377POPC   C4A16614  39.214   3.563   7.650
 4377POPC   C1B16615  39.230   3.270   8.550
 4377POPC   C2B16616  39.199   3.248   8.250
 4377POPC   C3B16617  39.204   3.247   7.950
 4377POPC   C4B16618  39.255   3.266   7.650
 4378POPC   NC316619  29.939  42.313   9.450
 4378POPC   PO416620  29.962  42.352   9.150
 4378POPC   GL116621  29.881  42.353   8.850
 4378POPC   GL216622  29.847  42.419   8.850
 4378POPC   C1A16623  29.905  42.310   8.550
 4378POPC   D2A16624  29.967  42.303   8.250
 4378POPC   C3A16625  29.899  42.308   7.950
 4378POPC   C4A16626  29.887  42.338   7.650
 4378POPC   C1B16627  29.781  42.547   8.550
 4378POPC   C2B16628  29.830  42.562   8.250
 4378POPC   C3B16629  29.821  42.548   7.950
 4378POPC   C4B16630  29.776  42.514   7.650
 4379POPC   NC316631  36.899  24.497   9.450
 4379POPC   PO416632  36.858  24.530   9.150
 4379POPC   GL116633  36.887  24.512   8.850
 4379POPC   GL216634  37.032  24.444   8.850
 4379POPC   C1A16635  36.930  24.494   8.550
 4379POPC   D2A16636  36.941  24.489   8.250
 4379POPC   C3A16637  36.945  24.472   7.950
 4379POPC   C4A16638  36.896  24.458   7.650
 4379POPC   C1B16639  37.186  24.459   8.550
 4379POPC   C2B16640  37.113  24.414   8.250
 4379POPC   C3B16641  37.114  24.416   7.950
 4379POPC   C4B16642  37.194  24.464   7.650
 4380POPC   NC316643  34.588  13.640   9.450
 4380POPC   PO416644  34.614  13.620   9.150
 4380POPC   GL116645  34.618  13.635   8.850
 4380POPC   GL216646  34.650  13.756   8.850
 4380POPC   C1A16647  34.570  13.597   8.550
 4380POPC   D2A16648  34.558  13.633   8.250
 4380POPC   C3A16649  34.547  13.603   7.950
 4380POPC   C4A16650  34.530  13.581   7.650
 4380POPC   C1B16651  34.613  13.847   8.550
 4380POPC   C2B16652  34.634  13.855   8.250
 4380POPC   C3B16653  34.645  13.840   7.950
 4380POPC   C4B16654  34.638  13.851   7.650
 4381POPC   NC316655   6.622  22.136   9.450
 4381POPC   PO416656   6.615  22.158   9.150
 4381POPC   GL116657   6.660  22.152   8.850
 4381POPC   GL216658   6.564  22.310   8.850
 4381POPC   C1A16659   6.682  22.154   8.550
 4381POPC   D2A16660   6.689  22.155   8.250
 4381POPC   C3A16661   6.628  22.203   7.950
 4381POPC   C4A16662   6.689  22.123   7.650
 4381POPC   C1B16663   6.546  22.373   8.550
 4381POPC   C2B16664   6.500  22.405   8.250
 4381POPC   C3B16665   6.528  22.433   7.950
 4381POPC   C4B16666   6.556  22.431   7.650
 4382POPC   NC316667  33.840   6.632   9.450
 4382POPC   PO416668  33.768   6.607   9.150
 4382POPC   GL116669  33.810   6.688   8.850
 4382POPC   GL216670  33.843   6.764   8.850
 4382POPC   C1A16671  33.845   6.636   8.550
 4382POPC   D2A16672  33.754   6.632   8.250
 4382POPC   C3A16673  33.805   6.675   7.950
 4382POPC   C4A16674  33.798   6.664   7.650
 4382POPC   C1B16675  33.901   6.799   8.550
 4382POPC   C2B16676  33.993   6.826   8.250
 4382POPC   C3B16677  33.977   6.865   7.950
 4382POPC   C4B16678  33.931   6.825   7.650
 4383POPC   NC316679  22.929  29.907   9.450
 4383POPC   PO416680  22.889  29.930   9.150
 4383POPC   GL116681  22.961  29.957   8.850
 4383POPC   GL216682  23.037  30.015   8.850
 4383POPC   C1A16683  22.982  29.935   8.550
 4383POPC   D2A16684  22.982  29.957   8.250
 4383POPC   C3A16685  22.912  29.921   7.950
 4383POPC   C4A16686  22.953  29.927   7.650
 4383POPC   C1B16687  23.040  30.185   8.550
 4383POPC   C2B16688  23.083  30.160   8.250
 4383POPC   C3B16689  23.083  30.126   7.950
 4383POPC   C4B16690  23.045  30.176   7.650
 4384POPC   NC316691   0.391   8.200   9.450
 4384POPC   PO416692   0.454   8.244   9.150
 4384POPC   GL116693   0.412   8.218   8.850
 4384POPC   GL216694   0.453   8.320   8.850
 4384POPC   C1A16695   0.448   8.231   8.550
 4384POPC   D2A16696   0.444   8.220   8.250
 4384POPC   C3A16697   0.461   8.175   7.950
 4384POPC   C4A16698   0.446   8.155   7.650
 4384POPC   C1B16699   0.509   8.400   8.550
 4384POPC   C2B16700   0.538   8.400   8.250
 4384POPC   C3B16701   0.527   8.443   7.950
 4384POPC   C4B16702   0.516   8.390   7.650
 4385POPC   NC316703  29.876   4.275   9.450
 4385POPC   PO416704  29.899   4.282   9.150
 4385POPC   GL116705  29.903   4.300   8.850
 4385POPC   GL216706  29.953   4.424   8.850
 4385POPC   C1A16707  29.920   4.268   8.550
 4385POPC   D2A16708  29.922   4.294   8.250
 4385POPC   C3A16709  29.926   4.281   7.950
 4385POPC   C4A16710  29.950   4.281   7.650
 4385POPC   C1B16711  30.021   4.557   8.550
 4385POPC   C2B16712  30.060   4.585   8.250
 4385POPC   C3B16713  30.019   4.495   7.950
 4385POPC   C4B16714  30.035   4.539   7.650
 4386POPC   NC316715  43.132  26.054   9.450
 4386POPC   PO416716  43.133  26.016   9.150
 4386POPC   GL116717  43.076  26.078   8.850
 4386POPC   GL216718  43.120  26.154   8.850
 4386POPC   C1A16719  43.125  26.058   8.550
 4386POPC   D2A16720  43.068  26.024   8.250
 4386POPC   C3A16721  43.133  26.085   7.950
 4386POPC   C4A16722  43.081  26.052   7.650
 4386POPC   C1B16723  43.092  26.258   8.550
 4386POPC   C2B16724  43.092  26.256   8.250
 4386POPC   C3B16725  43.133  26.299   7.950
 4386POPC   C4B16726  43.064  26.317   7.650
 4387POPC   NC316727  41.595  40.011   9.450
 4387POPC   PO416728  41.536  40.008   9.150
 4387POPC   GL116729  41.538  40.017   8.850
 4387POPC   GL216730  41.480  40.030   8.850
 4387POPC   C1A16731  41.566  40.032   8.550
 4387POPC   D2A16732  41.528  40.051   8.250
 4387POPC   C3A16733  41.545  40.054   7.950
 4387POPC   C4A16734  41.524  40.035   7.650
 4387POPC   C1B16735  41.284  40.009   8.550
 4387POPC   C2B16736  41.332  40.001   8.250
 4387POPC   C3B16737  41.332  39.960   7.950
 4387POPC   C4B16738  41.333  39.980   7.650
 4388POPC   NC316739  15.919  34.608   9.450
 4388POPC   PO416740  15.965  34.573   9.150
 4388POPC   GL116741  15.948  34.587   8.850
 4388POPC   GL216742  15.834  34.643   8.850
 4388POPC   C1A16743  15.958  34.553   8.550
 4388POPC   D2A16744  15.959  34.617   8.250
 4388POPC   C3A16745  15.975  34.592   7.950
 4388POPC   C4A16746  15.939  34.530   7.650
 4388POPC   C1B16747  15.700  34.715   8.550
 4388POPC   C2B16748  15.729  34.718   8.250
 4388POPC   C3B16749  15.711  34.739   7.950
 4388POPC   C4B16750  15.712  34.681   7.650
 4389POPC   NC316751  13.652  26.048   9.450
 4389POPC   PO416752  13.645  26.009   9.150
 4389POPC   GL116753  13.658  26.013   8.850
 4389POPC   GL216754  13.548  25.959   8.850
 4389POPC   C1A16755  13.671  26.077   8.550
 4389POPC   D2A16756  13.642  26.056   8.250
 4389POPC   C3A16757  13.625  26.071   7.950
 4389POPC   C4A16758  13.609  26.080   7.650
 4389POPC   C1B16759  13.459  25.895   8.550
 4389POPC   C2B16760  13.486  25.868   8.250
 4389POPC   C3B16761  13.471  25.896   7.950
 4389POPC   C4B16762  13.441  25.843   7.650
 4390POPC   NC316763  43.067  28.346   9.450
 4390POPC   PO416764  43.109  28.369   9.150
 4390POPC   GL116765  43.104  28.391   8.850
 4390POPC   GL216766  43.073  28.491   8.850
 4390POPC   C1A16767  43.146  28.399   8.550
 4390POPC   D2A16768  43.097  28.350   8.250
 4390POPC   C3A16769  43.143  28.367   7.950
 4390POPC   C4A16770  43.120  28.390   7.650
 4390POPC   C1B16771  43.055  28.641   8.550
 4390POPC   C2B16772  43.044  28.603   8.250
 4390POPC   C3B16773  43.041  28.632   7.950
 4390POPC   C4B16774  43.086  28.618   7.650
 4391POPC   NC316775  33.785   1.242   9.450
 4391POPC   PO416776  33.818   1.178   9.150
 4391POPC   GL116777  33.843   1.218   8.850
 4391POPC   GL216778  33.802   1.118   8.850
 4391POPC   C1A16779  33.790   1.253   8.550
 4391POPC   D2A16780  33.839   1.196   8.250
 4391POPC   C3A16781  33.840   1.178   7.950
 4391POPC   C4A16782  33.826   1.203   7.650
 4391POPC   C1B16783  33.780   0.918   8.550
 4391POPC   C2B16784  33.786   0.976   8.250
 4391POPC   C3B16785  33.779   1.009   7.950
 4391POPC   C4B16786  33.862   1.011   7.650
 4392POPC   NC316787  11.311  30.733   9.450
 4392POPC   PO416788  11.288  30.728   9.150
 4392POPC   GL116789  11.312  30.657   8.850
 4392POPC   GL216790  11.323  30.855   8.850
 4392POPC   C1A16791  11.279  30.688   8.550
 4392POPC   D2A16792  11.299  30.711   8.250
 4392POPC   C3A16793  11.343  30.691   7.950
 4392POPC   C4A16794  11.274  30.667   7.650
 4392POPC   C1B16795  11.428  30.913   8.550
 4392POPC   C2B16796  11.440  30.886   8.250
 4392POPC   C3B16797  11.445  30.902   7.950
 4392POPC   C4B16798  11.407  30.930   7.650
 4393POPC   NC316799   1.215  11.285   9.450
 4393POPC   PO416800   1.200  11.312   9.150
 4393POPC   GL116801   1.205  11.326   8.850
 4393POPC   GL216802   1.188  11.128   8.850
 4393POPC   C1A16803   1.208  11.303   8.550
 4393POPC   D2A16804   1.259  11.313   8.250
 4393POPC   C3A16805   1.229  11.335   7.950
 4393POPC   C4A16806   1.197  11.256   7.650
 4393POPC   C1B16807   1.196  11.083   8.550
 4393POPC   C2B16808   1.265  11.036   8.250
 4393POPC   C3B16809   1.236  11.035   7.950
 4393POPC   C4B16810   1.268  11.009   7.650
 4394POPC   NC316811  15.938  15.975   9.450
 4394POPC   PO416812  15.929  15.934   9.150
 4394POPC   GL116813  15.938  15.920   8.850
 4394POPC   GL216814  16.087  15.994   8.850
 4394POPC   C1A16815  15.970  15.934   8.550
 4394POPC   D2A16816  15.909  15.957   8.250
 4394POPC   C3A16817  15.986  15.931   7.950
 4394POPC   C4A16818  15.922  15.916   7.650
 4394POPC   C1B16819  16.156  15.931   8.550
 4394POPC   C2B16820  16.251  15.987   8.250
 4394POPC   C3B16821  16.194  15.939   7.950
 4394POPC   C4B16822  16.215  16.025   7.650
 4395POPC   NC316823  34.527  19.071   9.450
 4395POPC   PO416824  34.622  19.099   9.150
 4395POPC   GL116825  34.570  19.080   8.850
 4395POPC   GL216826  34.618  19.139   8.850
 4395POPC   C1A16827  34.541  19.060   8.550
 4395POPC   D2A16828  34.581  19.061   8.250
 4395POPC   C3A16829  34.537  19.056   7.950
 4395POPC   C4A16830  34.581  19.013   7.650
 4395POPC   C1B16831  34.743  19.281   8.550
 4395POPC   C2B16832  34.700  19.282   8.250
 4395POPC   C3B16833  34.770  19.253   7.950
 4395POPC   C4B16834  34.772  19.241   7.650
 4396POPC   NC316835   8.193   2.783   9.450
 4396POPC   PO416836   8.167   2.733   9.150
 4396POPC   GL116837   8.178   2.784   8.850
 4396POPC   GL216838   8.060   2.736   8.850
 4396POPC   C1A16839   8.180   2.738   8.550
 4396POPC   D2A16840   8.217   2.764   8.250
 4396POPC   C3A16841   8.239   2.736   7.950
 4396POPC   C4A16842   8.227   2.766   7.650
 4396POPC   C1B16843   7.933   2.788   8.550
 4396POPC   C2B16844   7.933   2.767   8.250
 4396POPC   C3B16845   7.969   2.713   7.950
 4396POPC   C4B16846   7.978   2.713   7.650
 4397POPC   NC316847   5.833  23.724   9.450
 4397POPC   PO416848   5.901  23.755   9.150
 4397POPC   GL116849   5.826  23.666   8.850
 4397POPC   GL216850   5.726  23.677   8.850
 4397POPC   C1A16851   5.910  23.742   8.550
 4397POPC   D2A16852   5.855  23.705   8.250
 4397POPC   C3A16853   5.894  23.686   7.950
 4397POPC   C4A16854   5.908  23.730   7.650
 4397POPC   C1B16855   5.651  23.635   8.550
 4397POPC   C2B16856   5.625  23.638   8.250
 4397POPC   C3B16857   5.589  23.708   7.950
 4397POPC   C4B16858   5.662  23.683   7.650
 4398POPC   NC316859  43.922  43.115   9.450
 4398POPC   PO416860  43.894  43.118   9.150
 4398POPC   GL116861  43.882  43.148   8.850
 4398POPC   GL216862  43.791  43.006   8.850
 4398POPC   C1A16863  43.856  43.122   8.550
 4398POPC   D2A16864  43.844  43.085   8.250
 4398POPC   C3A16865  43.926  43.074   7.950
 4398POPC   C4A16866  43.907  43.123   7.650
 4398POPC   C1B16867  43.812  42.872   8.550
 4398POPC   C2B16868  43.758  42.898   8.250
 4398POPC   C3B16869  43.830  42.865   7.950
 4398POPC   C4B16870  43.765  42.887   7.650
 4399POPC   NC316871  41.526   5.875   9.450
 4399POPC   PO416872  41.566   5.843   9.150
 4399POPC   GL116873  41.544   5.880   8.850
 4399POPC   GL216874  41.414   5.824   8.850
 4399POPC   C1A16875  41.585   5.900   8.550
 4399POPC   D2A16876  41.591   5.834   8.250
 4399POPC   C3A16877  41.594   5.914   7.950
 4399POPC   C4A16878  41.563   5.882   7.650
 4399POPC   C1B16879  41.304   5.777   8.550
 4399POPC   C2B16880  41.303   5.790   8.250
 4399POPC   C3B16881  41.294   5.802   7.950
 4399POPC   C4B16882  41.319   5.712   7.650
 4400POPC   NC316883  22.949  33.753   9.450
 4400POPC   PO416884  22.914  33.759   9.150
 4400POPC   GL116885  22.928  33.813   8.850
 4400POPC   GL216886  22.836  33.684   8.850
 4400POPC   C1A16887  22.948  33.799   8.550
 4400POPC   D2A16888  22.931  33.789   8.250
 4400POPC   C3A16889  22.915  33.837   7.950
 4400POPC   C4A16890  22.939  33.777   7.650
 4400POPC   C1B16891  22.715  33.582   8.550
 4400POPC   C2B16892  22.740  33.575   8.250
 4400POPC   C3B16893  22.800  33.656   7.950
 4400POPC   C4B16894  22.729  33.613   7.650
 4401POPC   NC316895   5.862  24.518   9.450
 4401POPC   PO416896   5.835  24.503   9.150
 4401POPC   GL116897   5.902  24.466   8.850
 4401POPC   GL216898   5.932  24.446   8.850
 4401POPC   C1A16899   5.822  24.451   8.550
 4401POPC   D2A16900   5.846  24.503   8.250
 4401POPC   C3A16901   5.820  24.531   7.950
 4401POPC   C4A16902   5.913  24.461   7.650
 4401POPC   C1B16903   6.104  24.383   8.550
 4401POPC   C2B16904   6.041  24.317   8.250
 4401POPC   C3B16905   6.025  24.365   7.950
 4401POPC   C4B16906   6.101  24.355   7.650
 4402POPC   NC316907   8.233  19.868   9.450
 4402POPC   PO416908   8.175  19.837   9.150
 4402POPC   GL116909   8.223  19.825   8.850
 4402POPC   GL216910   8.133  19.924   8.850
 4402POPC   C1A16911   8.231  19.866   8.550
 4402POPC   D2A16912   8.150  19.840   8.250
 4402POPC   C3A16913   8.186  19.875   7.950
 4402POPC   C4A16914   8.217  19.841   7.650
 4402POPC   C1B16915   8.064  20.040   8.550
 4402POPC   C2B16916   8.099  20.058   8.250
 4402POPC   C3B16917   8.102  20.064   7.950
 4402POPC   C4B16918   8.137  20.082   7.650
 4403POPC   NC316919  32.989  43.067   9.450
 4403POPC   PO416920  32.984  43.100   9.150
 4403POPC   GL116921  33.024  43.142   8.850
 4403POPC   GL216922  32.926  43.232   8.850
 4403POPC   C1A16923  32.986  43.149   8.550
 4403POPC   D2A16924  32.999  43.107   8.250
 4403POPC   C3A16925  33.062  43.127   7.950
 4403POPC   C4A16926  33.069  43.071   7.650
 4403POPC   C1B16927  32.830  43.330   8.550
 4403POPC   C2B16928  32.859  43.344   8.250
 4403POPC   C3B16929  32.838  43.270   7.950
 4403POPC   C4B16930  32.825  43.295   7.650
 4404POPC   NC316931  26.805   1.197   9.450
 4404POPC   PO416932  26.828   1.222   9.150
 4404POPC   GL116933  26.824   1.208   8.850
 4404POPC   GL216934  26.734   1.296   8.850
 4404POPC   C1A16935  26.827   1.246   8.550
 4404POPC   D2A16936  26.828   1.248   8.250
 4404POPC   C3A16937  26.855   1.246   7.950
 4404POPC   C4A16938  26.767   1.252   7.650
 4404POPC   C1B16939  26.719   1.477   8.550
 4404POPC   C2B16940  26.789   1.485   8.250
 4404POPC   C3B16941  26.772   1.435   7.950
 4404POPC   C4B16942  26.747   1.411   7.650
 4405POPC   NC316943  43.094  38.485   9.450
 4405POPC   PO416944  43.139  38.428   9.150
 4405POPC   GL116945  43.087  38.427   8.850
 4405POPC   GL216946  43.065  38.370   8.850
 4405POPC   C1A16947  43.102  38.468   8.550
 4405POPC   D2A16948  43.133  38.467   8.250
 4405POPC   C3A16949  43.129  38.441   7.950
 4405POPC   C4A16950  43.114  38.407   7.650
 4405POPC   C1B16951  42.906  38.268   8.550
 4405POPC   C2B16952  42.876  38.265   8.250
 4405POPC   C3B16953  42.918  38.251   7.950
 4405POPC   C4B16954  42.921  38.257   7.650
 4406POPC   NC316955  30.733  15.132   9.450
 4406POPC   PO416956  30.657  15.184   9.150
 4406POPC   GL116957  30.649  15.225   8.850
 4406POPC   GL216958  30.799  15.046   8.850
 4406POPC   C1A16959  30.734  15.188   8.550
 4406POPC   D2A16960  30.655  15.221   8.250
 4406POPC   C3A16961  30.648  15.154   7.950
 4406POPC   C4A16962  30.708  15.196   7.650
 4406POPC   C1B16963  30.828  14.992   8.550
 4406POPC   C2B16964  30.855  14.922   8.250
 4406POPC   C3B16965  30.844  14.937   7.950
 4406POPC   C4B16966  30.847  14.964   7.650
 4407POPC   NC316967   5.833  29.906   9.450
 4407POPC   PO416968   5.826  29.885   9.150
 4407POPC   GL116969   5.916  29.890   8.850
 4407POPC   GL216970   5.989  30.034   8.850
 4407POPC   C1A16971   5.820  29.954   8.550
 4407POPC   D2A16972   5.910  29.890   8.250
 4407POPC   C3A16973   5.831  29.917   7.950
 4407POPC   C4A16974   5.895  29.873   7.650
 4407POPC   C1B16975   6.076  30.118   8.550
 4407POPC   C2B16976   6.049  30.128   8.250
 4407POPC   C3B16977   6.002  30.079   7.950
 4407POPC   C4B16978   6.004  30.083   7.650
 4408POPC   NC316979   9.772   6.632   9.450
 4408POPC   PO416980   9.703   6.691   9.150
 4408POPC   GL116981   9.779   6.617   8.850
 4408POPC   GL216982   9.652   6.558   8.850
 4408POPC   C1A16983   9.751   6.621   8.550
 4408POPC   D2A16984   9.777   6.643   8.250
 4408POPC   C3A16985   9.779   6.598   7.950
 4408POPC   C4A16986   9.698   6.617   7.650
 4408POPC   C1B16987   9.510   6.601   8.550
 4408POPC   C2B16988   9.511   6.529   8.250
 4408POPC   C3B16989   9.527   6.604   7.950
 4408POPC   C4B16990   9.503   6.578   7.650
 4409POPC   NC316991   1.264   6.637   9.450
 4409POPC   PO416992   1.257   6.661   9.150
 4409POPC   GL116993   1.246   6.683   8.850
 4409POPC   GL216994   1.241   6.722   8.850
 4409POPC   C1A16995   1.181   6.684   8.550
 4409POPC   D2A16996   1.199   6.688   8.250
 4409POPC   C3A16997   1.171   6.614   7.950
 4409POPC   C4A16998   1.239   6.603   7.650
 4409POPC   C1B16999   1.240   6.893   8.550
 4409POPC   C2B17000   1.194   6.925   8.250
 4409POPC   C3B17001   1.245   6.851   7.950
 4409POPC   C4B17002   1.223   6.857   7.650
 4410POPC   NC317003  12.125  13.640   9.450
 4410POPC   PO417004  12.096  13.635   9.150
 4410POPC   GL117005  12.088  13.579   8.850
 4410POPC   GL217006  12.096  13.749   8.850
 4410POPC   C1A17007  12.066  13.673   8.550
 4410POPC   D2A17008  12.026  13.657   8.250
 4410POPC   C3A17009  12.046  13.659   7.950
 4410POPC   C4A17010  12.079  13.590   7.650
 4410POPC   C1B17011  12.068  13.898   8.550
 4410POPC   C2B17012  12.077  13.883   8.250
 4410POPC   C3B17013  12.044  13.879   7.950
 4410POPC   C4B17014  12.039  13.917   7.650
 4411POPC   NC317015   1.207  22.952   9.450
 4411POPC   PO417016   1.207  22.943   9.150
 4411POPC   GL117017   1.184  22.948   8.850
 4411POPC   GL217018   1.051  22.880   8.850
 4411POPC   C1A17019   1.216  22.965   8.550
 4411POPC   D2A17020   1.212  22.924   8.250
 4411POPC   C3A17021   1.230  22.982   7.950
 4411POPC   C4A17022   1.207  22.915   7.650
 4411POPC   C1B17023   0.999  22.826   8.550
 4411POPC   C2B17024   0.993  22.866   8.250
 4411POPC   C3B17025   1.009  22.819   7.950
 4411POPC   C4B17026   1.011  22.843   7.650
 4412POPC   NC317027   5.827  10.564   9.450
 4412POPC   PO417028   5.897  10.490   9.150
 4412POPC   GL117029   5.878  10.512   8.850
 4412POPC   GL217030   5.824  10.617   8.850
 4412POPC   C1A17031   5.824  10.558   8.550
 4412POPC   D2A17032   5.896  10.500   8.250
 4412POPC   C3A17033   5.822  10.566   7.950
 4412POPC   C4A17034   5.890  10.561   7.650
 4412POPC   C1B17035   5.712  10.711   8.550
 4412POPC   C2B17036   5.721  10.727   8.250
 4412POPC   C3B17037   5.695  10.750   7.950
 4412POPC   C4B17038   5.680  10.738   7.650
 4413POPC   NC317039   0.391  43.849   9.450
 4413POPC   PO417040   0.409  43.850   9.150
 4413POPC   GL117041   0.459  43.927   8.850
 4413POPC   GL217042   0.431  43.987   8.850
 4413POPC   C1A17043   0.434  43.897   8.550
 4413POPC   D2A17044   0.461  43.929   8.250
 4413POPC   C3A17045   0.430  43.898   7.950
 4413POPC   C4A17046   0.433  43.925   7.650
 4413POPC   C1B17047   0.490  44.077   8.550
 4413POPC   C2B17048   0.542  44.107   8.250
 4413POPC   C3B17049   0.523  44.119   7.950
 4413POPC   C4B17050   0.496  44.089   7.650
 4414POPC   NC317051   1.195   2.036   9.450
 4414POPC   PO417052   1.257   2.037   9.150
 4414POPC   GL117053   1.194   1.956   8.850
 4414POPC   GL217054   1.201   1.861   8.850
 4414POPC   C1A17055   1.234   1.950   8.550
 4414POPC   D2A17056   1.242   1.974   8.250
 4414POPC   C3A17057   1.234   1.978   7.950
 4414POPC   C4A17058   1.209   2.021   7.650
 4414POPC   C1B17059   1.179   1.701   8.550
 4414POPC   C2B17060   1.140   1.744   8.250
 4414POPC   C3B17061   1.132   1.778   7.950
 4414POPC   C4B17062   1.104   1.783   7.650
 4415POPC   NC317063  23.761  23.735   9.450
 4415POPC   PO417064  23.762  23.717   9.150
 4415POPC   GL117065  23.720  23.694   8.850
 4415POPC   GL217066  23.756  23.807   8.850
 4415POPC   C1A17067  23.746  23.684   8.550
 4415POPC   D2A17068  23.707  23.722   8.250
 4415POPC   C3A17069  23.711  23.735   7.950
 4415POPC   C4A17070  23.737  23.733   7.650
 4415POPC   C1B17071  23.733  23.974   8.550
 4415POPC   C2B17072  23.690  23.956   8.250
 4415POPC   C3B17073  23.716  23.925   7.950
 4415POPC   C4B17074  23.767  23.962   7.650
 4416POPC   NC317075  22.135  11.335   9.450
 4416POPC   PO417076  22.199  11.275   9.150
 4416POPC   GL117077  22.119  11.259   8.850
 4416POPC   GL217078  22.218  11.167   8.850
 4416POPC   C1A17079  22.166  11.315   8.550
 4416POPC   D2A17080  22.201  11.342   8.250
 4416POPC   C3A17081  22.208  11.299   7.950
 4416POPC   C4A17082  22.205  11.310   7.650
 4416POPC   C1B17083  22.366  11.098   8.550
 4416POPC   C2B17084  22.334  11.126   8.250
 4416POPC   C3B17085  22.290  11.132   7.950
 4416POPC   C4B17086  22.320  11.084   7.650
 4417POPC   NC317087  23.715  42.309   9.450
 4417POPC   PO417088  23.717  42.345   9.150
 4417POPC   GL117089  23.695  42.335   8.850
 4417POPC   GL217090  23.580  42.296   8.850
 4417POPC   C1A17091  23.684  42.343   8.550
 4417POPC   D2A17092  23.681  42.384   8.250
 4417POPC   C3A17093  23.687  42.353   7.950
 4417POPC   C4A17094  23.700  42.316   7.650
 4417POPC   C1B17095  23.449  42.268   8.550
 4417POPC   C2B17096  23.535  42.190   8.250
 4417POPC   C3B17097  23.533  42.265   7.950
 4417POPC   C4B17098  23.446  42.176   7.650
 4418POPC   NC317099  26.041  17.537   9.450
 4418POPC   PO417100  26.069  17.524   9.150
 4418POPC   GL117101  26.024  17.506   8.850
 4418POPC   GL217102  26.126  17.385   8.850
 4418POPC   C1A17103  26.048  17.556   8.550
 4418POPC   D2A17104  26.031  17.500   8.250
 4418POPC   C3A17105  26.020  17.503   7.950
 4418POPC   C4A17106  26.077  17.534   7.650
 4418POPC   C1B17107  26.274  17.349   8.550
 4418POPC   C2B17108  26.245  17.384   8.250
 4418POPC   C3B17109  26.189  17.308   7.950
 4418POPC   C4B17110  26.268  17.359   7.650
 4419POPC   NC317111   5.917  16.730   9.450
 4419POPC   PO417112   5.890  16.697   9.150
 4419POPC   GL117113   5.845  16.731   8.850
 4419POPC   GL217114   5.948  16.650   8.850
 4419POPC   C1A17115   5.881  16.776   8.550
 4419POPC   D2A17116   5.822  16.747   8.250
 4419POPC   C3A17117   5.839  16.757   7.950
 4419POPC   C4A17118   5.874  16.729   7.650
 4419POPC   C1B17119   6.078  16.503   8.550
 4419POPC   C2B17120   6.048  16.546   8.250
 4419POPC   C3B17121   5.986  16.512   7.950
 4419POPC   C4B17122   6.026  16.519   7.650
 4420POPC   NC317123  27.560  27.571   9.450
 4420POPC   PO417124  27.575  27.569   9.150
 4420POPC   GL117125  27.640  27.555   8.850
 4420POPC   GL217126  27.523  27.742   8.850
 4420POPC   C1A17127  27.589  27.623   8.550
 4420POPC   D2A17128  27.555  27.615   8.250
 4420POPC   C3A17129  27.616  27.581   7.950
 4420POPC   C4A17130  27.586  27.623   7.650
 4420POPC   C1B17131  27.443  27.851   8.550
 4420POPC   C2B17132  27.431  27.813   8.250
 4420POPC   C3B17133  27.486  27.852   7.950
 4420POPC   C4B17134  27.521  27.842   7.650
 4421POPC   NC317135  26.011   5.882   9.450
 4421POPC   PO417136  26.020   5.910   9.150
 4421POPC   GL117137  25.993   5.850   8.850
 4421POPC   GL217138  25.948   5.818   8.850
 4421POPC   C1A17139  26.077   5.844   8.550
 4421POPC   D2A17140  26.082   5.893   8.250
 4421POPC   C3A17141  25.995   5.871   7.950
 4421POPC   C4A17142  26.082   5.838   7.650
 4421POPC   C1B17143  25.834   5.644   8.550
 4421POPC   C2B17144  25.897   5.642   8.250
 4421POPC   C3B17145  25.903   5.667   7.950
 4421POPC   C4B17146  25.871   5.656   7.650
 4422POPC   NC317147   6.618  27.580   9.450
 4422POPC   PO417148   6.620  27.570   9.150
 4422POPC   GL117149   6.649  27.635   8.850
 4422POPC   GL217150   6.752  27.682   8.850
 4422POPC   C1A17151   6.627  27.617   8.550
 4422POPC   D2A17152   6.654  27.621   8.250
 4422POPC   C3A17153   6.627  27.613   7.950
 4422POPC   C4A17154   6.641  27.603   7.650
 4422POPC   C1B17155   6.759  27.818   8.550
 4422POPC   C2B17156   6.821  27.818   8.250
 4422POPC   C3B17157   6.800  27.844   7.950
 4422POPC   C4B17158   6.763  27.775   7.650
 4423POPC   NC317159  44.695  29.104   9.450
 4423POPC   PO417160  44.679  29.186   9.150
 4423POPC   GL117161  44.704  29.156   8.850
 4423POPC   GL217162  44.688  29.004   8.850
 4423POPC   C1A17163  44.690  29.156   8.550
 4423POPC   D2A17164  44.635  29.122   8.250
 4423POPC   C3A17165  44.621  29.151   7.950
 4423POPC   C4A17166  44.645  29.175   7.650
 4423POPC   C1B17167  44.729  28.884   8.550
 4423POPC   C2B17168  44.679  28.932   8.250
 4423POPC   C3B17169  44.701  28.923   7.950
 4423POPC   C4B17170  44.709  28.871   7.650
 4424POPC   NC317171  40.797  34.552   9.450
 4424POPC   PO417172  40.800  34.564   9.150
 4424POPC   GL117173  40.765  34.576   8.850
 4424POPC   GL217174  40.727  34.471   8.850
 4424POPC   C1A17175  40.737  34.575   8.550
 4424POPC   D2A17176  40.771  34.600   8.250
 4424POPC   C3A17177  40.745  34.556   7.950
 4424POPC   C4A17178  40.743  34.576   7.650
 4424POPC   C1B17179  40.723  34.308   8.550
 4424POPC   C2B17180  40.710  34.300   8.250
 4424POPC   C3B17181  40.713  34.294   7.950
 4424POPC   C4B17182  40.706  34.323   7.650
 4425POPC   NC317183   7.466  26.033   9.450
 4425POPC   PO417184   7.465  26.009   9.150
 4425POPC   GL117185   7.390  26.026   8.850
 4425POPC   GL217186   7.544  25.997   8.850
 4425POPC   C1A17187   7.440  26.051   8.550
 4425POPC   D2A17188   7.418  26.080   8.250
 4425POPC   C3A17189   7.411  26.024   7.950
 4425POPC   C4A17190   7.414  26.077   7.650
 4425POPC   C1B17191   7.591  25.946   8.550
 4425POPC   C2B17192   7.635  25.879   8.250
 4425POPC   C3B17193   7.602  25.876   7.950
 4425POPC   C4B17194   7.581  25.887   7.650
 4426POPC   NC317195  31.501   1.982   9.450
 4426POPC   PO417196  31.462   1.948   9.150
 4426POPC   GL117197  31.432   2.019   8.850
 4426POPC   GL217198  31.565   2.107   8.850
 4426POPC   C1A17199  31.496   1.946   8.550
 4426POPC   D2A17200  31.505   1.967   8.250
 4426POPC   C3A17201  31.453   1.950   7.950
 4426POPC   C4A17202  31.461   2.026   7.650
 4426POPC   C1B17203  31.579   2.164   8.550
 4426POPC   C2B17204  31.587   2.217   8.250
 4426POPC   C3B17205  31.591   2.182   7.950
 4426POPC   C4B17206  31.646   2.171   7.650
 4427POPC   NC317207  43.853   9.017   9.450
 4427POPC   PO417208  43.934   9.000   9.150
 4427POPC   GL117209  43.934   8.928   8.850
 4427POPC   GL217210  43.832   9.091   8.850
 4427POPC   C1A17211  43.901   8.981   8.550
 4427POPC   D2A17212  43.912   8.923   8.250
 4427POPC   C3A17213  43.890   8.968   7.950
 4427POPC   C4A17214  43.904   8.987   7.650
 4427POPC   C1B17215  43.797   9.179   8.550
 4427POPC   C2B17216  43.818   9.232   8.250
 4427POPC   C3B17217  43.827   9.163   7.950
 4427POPC   C4B17218  43.803   9.173   7.650
 4428POPC   NC317219  13.656   2.735   9.450
 4428POPC   PO417220  13.673   2.811   9.150
 4428POPC   GL117221  13.597   2.744   8.850
 4428POPC   GL217222  13.489   2.680   8.850
 4428POPC   C1A17223  13.602   2.721   8.550
 4428POPC   D2A17224  13.608   2.732   8.250
 4428POPC   C3A17225  13.627   2.742   7.950
 4428POPC   C4A17226  13.622   2.791   7.650
 4428POPC   C1B17227  13.368   2.675   8.550
 4428POPC   C2B17228  13.418   2.664   8.250
 4428POPC   C3B17229  13.370   2.684   7.950
 4428POPC   C4B17230  13.418   2.665   7.650
 4429POPC   NC317231  24.445  13.673   9.450
 4429POPC   PO417232  24.537  13.592   9.150
 4429POPC   GL117233  24.462  13.623   8.850
 4429POPC   GL217234  24.581  13.638   8.850
 4429POPC   C1A17235  24.516  13.579   8.550
 4429POPC   D2A17236  24.520  13.655   8.250
 4429POPC   C3A17237  24.495  13.613   7.950
 4429POPC   C4A17238  24.511  13.620   7.650
 4429POPC   C1B17239  24.715  13.644   8.550
 4429POPC   C2B17240  24.720  13.674   8.250
 4429POPC   C3B17241  24.721  13.670   7.950
 4429POPC   C4B17242  24.782  13.687   7.650
 4430POPC   NC317243  26.074  15.225   9.450
 4430POPC   PO417244  26.012  15.171   9.150
 4430POPC   GL117245  26.000  15.228   8.850
 4430POPC   GL217246  26.123  15.167   8.850
 4430POPC   C1A17247  26.068  15.157   8.550
 4430POPC   D2A17248  26.036  15.208   8.250
 4430POPC   C3A17249  26.020  15.201   7.950
 4430POPC   C4A17250  26.067  15.200   7.650
 4430POPC   C1B17251  26.300  15.199   8.550
 4430POPC   C2B17252  26.264  15.180   8.250
 4430POPC   C3B17253  26.338  15.186   7.950
 4430POPC   C4B17254  26.313  15.181   7.650
 4431POPC   NC317255  14.427  13.650   9.450
 4431POPC   PO417256  14.384  13.627   9.150
 4431POPC   GL117257  14.397  13.591   8.850
 4431POPC   GL217258  14.317  13.764   8.850
 4431POPC   C1A17259  14.423  13.658   8.550
 4431POPC   D2A17260  14.417  13.617   8.250
 4431POPC   C3A17261  14.412  13.633   7.950
 4431POPC   C4A17262  14.362  13.638   7.650
 4431POPC   C1B17263  14.322  13.821   8.550
 4431POPC   C2B17264  14.361  13.839   8.250
 4431POPC   C3B17265  14.301  13.909   7.950
 4431POPC   C4B17266  14.282  13.827   7.650
 4432POPC   NC317267  17.536   2.812   9.450
 4432POPC   PO417268  17.556   2.814   9.150
 4432POPC   GL117269  17.466   2.750   8.850
 4432POPC   GL217270  17.629   2.762   8.850
 4432POPC   C1A17271  17.520   2.731   8.550
 4432POPC   D2A17272  17.507   2.752   8.250
 4432POPC   C3A17273  17.471   2.722   7.950
 4432POPC   C4A17274  17.529   2.724   7.650
 4432POPC   C1B17275  17.774   2.725   8.550
 4432POPC   C2B17276  17.770   2.684   8.250
 4432POPC   C3B17277  17.786   2.715   7.950
 4432POPC   C4B17278  17.733   2.637   7.650
 4433POPC   NC317279  25.244  27.632   9.450
 4433POPC   PO417280  25.307  27.643   9.150
 4433POPC   GL117281  25.243  27.573   8.850
 4433POPC   GL217282  25.324  27.486   8.850
 4433POPC   C1A17283  25.246  27.601   8.550
 4433POPC   D2A17284  25.227  27.565   8.250
 4433POPC   C3A17285  25.223  27.587   7.950
 4433POPC   C4A17286  25.217  27.599   7.650
 4433POPC   C1B17287  25.397  27.414   8.550
 4433POPC   C2B17288  25.436  27.376   8.250
 4433POPC   C3B17289  25.480  27.432   7.950
 4433POPC   C4B17290  25.478  27.378   7.650
 4434POPC   NC317291  43.082   5.894   9.450
 4434POPC   PO417292  43.139   5.863   9.150
 4434POPC   GL117293  43.074   5.907   8.850
 4434POPC   GL217294  43.101   5.720   8.850
 4434POPC   C1A17295  43.100   5.873   8.550
 4434POPC   D2A17296  43.073   5.853   8.250
 4434POPC   C3A17297  43.087   5.860   7.950
 4434POPC   C4A17298  43.110   5.895   7.650
 4434POPC   C1B17299  43.030   5.623   8.550
 4434POPC   C2B17300  43.038   5.572   8.250
 4434POPC   C3B17301  43.119   5.581   7.950
 4434POPC   C4B17302  43.042   5.604   7.650
 4435POPC   NC317303  33.801  19.826   9.450
 4435POPC   PO417304  33.841  19.800   9.150
 4435POPC   GL117305  33.777  19.816   8.850
 4435POPC   GL217306  33.841  19.906   8.850
 4435POPC   C1A17307  33.777  19.812   8.550
 4435POPC   D2A17308  33.817  19.883   8.250
 4435POPC   C3A17309  33.812  19.790   7.950
 4435POPC   C4A17310  33.810  19.792   7.650
 4435POPC   C1B17311  33.979  20.025   8.550
 4435POPC   C2B17312  33.987  20.015   8.250
 4435POPC   C3B17313  33.925  20.028   7.950
 4435POPC   C4B17314  33.971  20.048   7.650
 4436POPC   NC317315  17.463   9.754   9.450
 4436POPC   PO417316  17.531   9.706   9.150
 4436POPC   GL117317  17.513   9.779   8.850
 4436POPC   GL217318  17.491   9.621   8.850
 4436POPC   C1A17319  17.484   9.733   8.550
 4436POPC   D2A17320  17.467   9.786   8.250
 4436POPC   C3A17321  17.478   9.770   7.950
 4436POPC   C4A17322  17.553   9.710   7.650
 4436POPC   C1B17323  17.432   9.494   8.550
 4436POPC   C2B17324  17.428   9.495   8.250
 4436POPC   C3B17325  17.522   9.486   7.950
 4436POPC   C4B17326  17.442   9.533   7.650
 4437POPC   NC317327  14.412  32.286   9.450
 4437POPC   PO417328  14.383  32.199   9.150
 4437POPC   GL117329  14.453  32.293   8.850
 4437POPC   GL217330  14.515  32.233   8.850
 4437POPC   C1A17331  14.411  32.215   8.550
 4437POPC   D2A17332  14.450  32.251   8.250
 4437POPC   C3A17333  14.372  32.212   7.950
 4437POPC   C4A17334  14.381  32.243   7.650
 4437POPC   C1B17335  14.660  32.272   8.550
 4437POPC   C2B17336  14.650  32.230   8.250
 4437POPC   C3B17337  14.646  32.245   7.950
 4437POPC   C4B17338  14.639  32.238   7.650
 4438POPC   NC317339  20.626   8.228   9.450
 4438POPC   PO417340  20.626   8.199   9.150
 4438POPC   GL117341  20.583   8.147   8.850
 4438POPC   GL217342  20.696   8.100   8.850
 4438POPC   C1A17343  20.598   8.181   8.550
 4438POPC   D2A17344  20.600   8.186   8.250
 4438POPC   C3A17345  20.614   8.190   7.950
 4438POPC   C4A17346  20.576   8.192   7.650
 4438POPC   C1B17347  20.790   8.034   8.550
 4438POPC   C2B17348  20.758   8.002   8.250
 4438POPC   C3B17349  20.777   8.034   7.950
 4438POPC   C4B17350  20.759   7.984   7.650
 4439POPC   NC317351  26.854  39.210   9.450
 4439POPC   PO417352  26.822  39.261   9.150
 4439POPC   GL117353  26.787  39.216   8.850
 4439POPC   GL217354  26.686  39.235   8.850
 4439POPC   C1A17355  26.769  39.267   8.550
 4439POPC   D2A17356  26.790  39.249   8.250
 4439POPC   C3A17357  26.833  39.277   7.950
 4439POPC   C4A17358  26.841  39.239   7.650
 4439POPC   C1B17359  26.532  39.220   8.550
 4439POPC   C2B17360  26.569  39.293   8.250
 4439POPC   C3B17361  26.561  39.303   7.950
 4439POPC   C4B17362  26.588  39.295   7.650
 4440POPC   NC317363  41.534  26.849   9.450
 4440POPC   PO417364  41.532  26.860   9.150
 4440POPC   GL117365  41.550  26.768   8.850
 4440POPC   GL217366  41.671  26.712   8.850
 4440POPC   C1A17367  41.605  26.849   8.550
 4440POPC   D2A17368  41.535  26.776   8.250
 4440POPC   C3A17369  41.590  26.786   7.950
 4440POPC   C4A17370  41.588  26.785   7.650
 4440POPC   C1B17371  41.719  26.641   8.550
 4440POPC   C2B17372  41.720  26.671   8.250
 4440POPC   C3B17373  41.785  26.647   7.950
 4440POPC   C4B17374  41.755  26.638   7.650
 4441POPC   NC317375  43.113  37.681   9.450
 4441POPC   PO417376  43.110  37.708   9.150
 4441POPC   GL117377  43.096  37.706   8.850
 4441POPC   GL217378  43.225  37.595   8.850
 4441POPC   C1A17379  43.117  37.691   8.550
 4441POPC   D2A17380  43.111  37.707   8.250
 4441POPC   C3A17381  43.160  37.699   7.950
 4441POPC   C4A17382  43.149  37.631   7.650
 4441POPC   C1B17383  43.204  37.473   8.550
 4441POPC   C2B17384  43.250  37.450   8.250
 4441POPC   C3B17385  43.242  37.436   7.950
 4441POPC   C4B17386  43.296  37.518   7.650
 4442POPC   NC317387  31.512   8.158   9.450
 4442POPC   PO417388  31.471   8.188   9.150
 4442POPC   GL117389  31.427   8.169   8.850
 4442POPC   GL217390  31.308   8.211   8.850
 4442POPC   C1A17391  31.433   8.245   8.550
 4442POPC   D2A17392  31.426   8.178   8.250
 4442POPC   C3A17393  31.468   8.198   7.950
 4442POPC   C4A17394  31.424   8.213   7.650
 4442POPC   C1B17395  31.194   8.229   8.550
 4442POPC   C2B17396  31.237   8.215   8.250
 4442POPC   C3B17397  31.183   8.237   7.950
 4442POPC   C4B17398  31.181   8.187   7.650
 4443POPC   NC317399  25.229  19.089   9.450
 4443POPC   PO417400  25.234  19.037   9.150
 4443POPC   GL117401  25.240  19.085   8.850
 4443POPC   GL217402  25.322  19.151   8.850
 4443POPC   C1A17403  25.234  19.021   8.550
 4443POPC   D2A17404  25.220  19.044   8.250
 4443POPC   C3A17405  25.239  19.038   7.950
 4443POPC   C4A17406  25.247  19.031   7.650
 4443POPC   C1B17407  25.439  19.251   8.550
 4443POPC   C2B17408  25.372  19.219   8.250
 4443POPC   C3B17409  25.363  19.226   7.950
 4443POPC   C4B17410  25.365  19.273   7.650
 4444POPC   NC317411  18.236  17.488   9.450
 4444POPC   PO417412  18.259  17.528   9.150
 4444POPC   GL117413  18.325  17.533   8.850
 4444POPC   GL217414  18.367  17.548   8.850
 4444POPC   C1A17415  18.279  17.546   8.550
 4444POPC   D2A17416  18.332  17.496   8.250
 4444POPC   C3A17417  18.266  17.508   7.950
 4444POPC   C4A17418  18.276  17.509   7.650
 4444POPC   C1B17419  18.498  17.559   8.550
 4444POPC   C2B17420  18.497  17.595   8.250
 4444POPC   C3B17421  18.499  17.637   7.950
 4444POPC   C4B17422  18.502  17.594   7.650
 4445POPC   NC317423  16.688  14.447   9.450
 4445POPC   PO417424  16.754  14.394   9.150
 4445POPC   GL117425  16.684  14.361   8.850
 4445POPC   GL217426  16.739  14.301   8.850
 4445POPC   C1A17427  16.747  14.441   8.550
 4445POPC   D2A17428  16.777  14.427   8.250
 4445POPC   C3A17429  16.760  14.453   7.950
 4445POPC   C4A17430  16.735  14.387   7.650
 4445POPC   C1B17431  16.851  14.209   8.550
 4445POPC   C2B17432  16.817  14.152   8.250
 4445POPC   C3B17433  16.871  14.191   7.950
 4445POPC   C4B17434  16.826  14.187   7.650
 4446POPC   NC317435   7.378  22.950   9.450
 4446POPC   PO417436   7.420  22.938   9.150
 4446POPC   GL117437   7.382  22.921   8.850
 4446POPC   GL217438   7.356  22.835   8.850
 4446POPC   C1A17439   7.466  22.945   8.550
 4446POPC   D2A17440   7.465  22.918   8.250
 4446POPC   C3A17441   7.378  22.930   7.950
 4446POPC   C4A17442   7.454  22.891   7.650
 4446POPC   C1B17443   7.224  22.846   8.550
 4446POPC   C2B17444   7.197  22.873   8.250
 4446POPC   C3B17445   7.165  22.817   7.950
 4446POPC   C4B17446   7.229  22.780   7.650
 4447POPC   NC317447  16.777   5.045   9.450
 4447POPC   PO417448  16.714   5.067   9.150
 4447POPC   GL117449  16.755   5.142   8.850
 4447POPC   GL217450  16.863   5.139   8.850
 4447POPC   C1A17451  16.737   5.133   8.550
 4447POPC   D2A17452  16.714   5.114   8.250
 4447POPC   C3A17453  16.682   5.074   7.950
 4447POPC   C4A17454  16.749   5.072   7.650
 4447POPC   C1B17455  16.923   5.248   8.550
 4447POPC   C2B17456  16.973   5.260   8.250
 4447POPC   C3B17457  16.934   5.269   7.950
 4447POPC   C4B17458  16.907   5.252   7.650
 4448POPC   NC317459  38.427  21.358   9.450
 4448POPC   PO417460  38.473  21.349   9.150
 4448POPC   GL117461  38.409  21.381   8.850
 4448POPC   GL217462  38.626  21.411   8.850
 4448POPC   C1A17463  38.415  21.428   8.550
 4448POPC   D2A17464  38.429  21.380   8.250
 4448POPC   C3A17465  38.418  21.382   7.950
 4448POPC   C4A17466  38.451  21.418   7.650
 4448POPC   C1B17467  38.686  21.327   8.550
 4448POPC   C2B17468  38.727  21.314   8.250
 4448POPC   C3B17469  38.711  21.348   7.950
 4448POPC   C4B17470  38.659  21.334   7.650
 4449POPC   NC317471   5.877   7.470   9.450
 4449POPC   PO417472   5.910   7.389   9.150
 4449POPC   GL117473   5.865   7.441   8.850
 4449POPC   GL217474   5.952   7.545   8.850
 4449POPC   C1A17475   5.853   7.399   8.550
 4449POPC   D2A17476   5.861   7.429   8.250
 4449POPC   C3A17477   5.822   7.413   7.950
 4449POPC   C4A17478   5.821   7.427   7.650
 4449POPC   C1B17479   5.980   7.581   8.550
 4449POPC   C2B17480   6.059   7.587   8.250
 4449POPC   C3B17481   6.038   7.631   7.950
 4449POPC   C4B17482   5.986   7.587   7.650
 4450POPC   NC317483   6.626  15.139   9.450
 4450POPC   PO417484   6.683  15.178   9.150
 4450POPC   GL117485   6.695  15.201   8.850
 4450POPC   GL217486   6.742  15.036   8.850
 4450POPC   C1A17487   6.656  15.169   8.550
 4450POPC   D2A17488   6.612  15.171   8.250
 4450POPC   C3A17489   6.669  15.134   7.950
 4450POPC   C4A17490   6.626  15.162   7.650
 4450POPC   C1B17491   6.724  14.980   8.550
 4450POPC   C2B17492   6.779  14.954   8.250
 4450POPC   C3B17493   6.787  14.988   7.950
 4450POPC   C4B17494   6.734  14.995   7.650
 4451POPC   NC317495  29.893  31.441   9.450
 4451POPC   PO417496  29.968  31.509   9.150
 4451POPC   GL117497  29.908  31.518   8.850
 4451POPC   GL217498  30.000  31.397   8.850
 4451POPC   C1A17499  29.949  31.474   8.550
 4451POPC   D2A17500  29.960  31.505   8.250
 4451POPC   C3A17501  29.959  31.522   7.950
 4451POPC   C4A17502  29.874  31.520   7.650
 4451POPC   C1B17503  30.201  31.427   8.550
 4451POPC   C2B17504  30.121  31.373   8.250
 4451POPC   C3B17505  30.125  31.382   7.950
 4451POPC   C4B17506  30.184  31.417   7.650
 4452POPC   NC317507   5.072  35.348   9.450
 4452POPC   PO417508   5.064  35.330   9.150
 4452POPC   GL117509   5.137  35.344   8.850
 4452POPC   GL217510   5.019  35.347   8.850
 4452POPC   C1A17511   5.068  35.348   8.550
 4452POPC   D2A17512   5.049  35.330   8.250
 4452POPC   C3A17513   5.129  35.385   7.950
 4452POPC   C4A17514   5.050  35.303   7.650
 4452POPC   C1B17515   4.853  35.266   8.550
 4452POPC   C2B17516   4.873  35.217   8.250
 4452POPC   C3B17517   4.816  35.251   7.950
 4452POPC   C4B17518   4.880  35.227   7.650
 4453POPC   NC317519  15.951  10.548   9.450
 4453POPC   PO417520  16.003  10.481   9.150
 4453POPC   GL117521  15.926  10.491   8.850
 4453POPC   GL217522  15.965  10.679   8.850
 4453POPC   C1A17523  15.961  10.536   8.550
 4453POPC   D2A17524  15.985  10.557   8.250
 4453POPC   C3A17525  15.994  10.496   7.950
 4453POPC   C4A17526  15.918  10.530   7.650
 4453POPC   C1B17527  16.043  10.739   8.550
 4453POPC   C2B17528  16.061  10.757   8.250
 4453POPC   C3B17529  16.099  10.737   7.950
 4453POPC   C4B17530  16.101  10.789   7.650
 4454POPC   NC317531  11.278   6.641   9.450
 4454POPC   PO417532  11.340   6.616   9.150
 4454POPC   GL117533  11.317   6.617   8.850
 4454POPC   GL217534  11.351   6.507   8.850
 4454POPC   C1A17535  11.323   6.657   8.550
 4454POPC   D2A17536  11.262   6.626   8.250
 4454POPC   C3A17537  11.264   6.691   7.950
 4454POPC   C4A17538  11.340   6.638   7.650
 4454POPC   C1B17539  11.360   6.422   8.550
 4454POPC   C2B17540  11.393   6.401   8.250
 4454POPC   C3B17541  11.344   6.429   7.950
 4454POPC   C4B17542  11.403   6.397   7.650
 4455POPC   NC317543   8.187  34.567   9.450
 4455POPC   PO417544   8.217  34.581   9.150
 4455POPC   GL117545   8.154  34.575   8.850
 4455POPC   GL217546   8.051  34.580   8.850
 4455POPC   C1A17547   8.186  34.541   8.550
 4455POPC   D2A17548   8.166  34.565   8.250
 4455POPC   C3A17549   8.239  34.584   7.950
 4455POPC   C4A17550   8.191  34.543   7.650
 4455POPC   C1B17551   7.991  34.549   8.550
 4455POPC   C2B17552   7.955  34.561   8.250
 4455POPC   C3B17553   7.919  34.584   7.950
 4455POPC   C4B17554   7.958  34.543   7.650
 4456POPC   NC317555   1.260  29.896   9.450
 4456POPC   PO417556   1.231  29.959   9.150
 4456POPC   GL117557   1.223  29.872   8.850
 4456POPC   GL217558   1.217  29.751   8.850
 4456POPC   C1A17559   1.235  29.927   8.550
 4456POPC   D2A17560   1.245  29.945   8.250
 4456POPC   C3A17561   1.176  29.952   7.950
 4456POPC   C4A17562   1.169  29.939   7.650
 4456POPC   C1B17563   1.241  29.676   8.550
 4456POPC   C2B17564   1.259  29.671   8.250
 4456POPC   C3B17565   1.292  29.692   7.950
 4456POPC   C4B17566   1.307  29.681   7.650
 4457POPC   NC317567  37.684  38.415   9.450
 4457POPC   PO417568  37.655  38.487   9.150
 4457POPC   GL117569  37.724  38.440   8.850
 4457POPC   GL217570  37.758  38.334   8.850
 4457POPC   C1A17571  37.659  38.494   8.550
 4457POPC   D2A17572  37.654  38.465   8.250
 4457POPC   C3A17573  37.686  38.502   7.950
 4457POPC   C4A17574  37.696  38.496   7.650
 4457POPC   C1B17575  37.883  38.291   8.550
 4457POPC   C2B17576  37.906  38.293   8.250
 4457POPC   C3B17577  37.900  38.313   7.950
 4457POPC   C4B17578  37.888  38.282   7.650
 4458POPC   NC317579   1.195  31.514   9.450
 4458POPC   PO417580   1.216  31.492   9.150
 4458POPC   GL117581   1.253  31.438   8.850
 4458POPC   GL217582   1.132  31.564   8.850
 4458POPC   C1A17583   1.247  31.476   8.550
 4458POPC   D2A17584   1.222  31.480   8.250
 4458POPC   C3A17585   1.171  31.429   7.950
 4458POPC   C4A17586   1.204  31.423   7.650
 4458POPC   C1B17587   1.093  31.637   8.550
 4458POPC   C2B17588   1.045  31.708   8.250
 4458POPC   C3B17589   1.048  31.683   7.950
 4458POPC   C4B17590   1.073  31.647   7.650
 4459POPC   NC317591   8.924   4.361   9.450
 4459POPC   PO417592   8.958   4.315   9.150
 4459POPC   GL117593   9.018   4.280   8.850
 4459POPC   GL217594   9.107   4.340   8.850
 4459POPC   C1A17595   8.987   4.333   8.550
 4459POPC   D2A17596   8.982   4.340   8.250
 4459POPC   C3A17597   8.935   4.298   7.950
 4459POPC   C4A17598   8.949   4.364   7.650
 4459POPC   C1B17599   9.160   4.445   8.550
 4459POPC   C2B17600   9.180   4.438   8.250
 4459POPC   C3B17601   9.213   4.462   7.950
 4459POPC   C4B17602   9.144   4.484   7.650
 4460POPC   NC317603  15.944  40.765   9.450
 4460POPC   PO417604  15.992  40.801   9.150
 4460POPC   GL117605  15.939  40.749   8.850
 4460POPC   GL217606  15.868  40.747   8.850
 4460POPC   C1A17607  15.954  40.737   8.550
 4460POPC   D2A17608  15.964  40.808   8.250
 4460POPC   C3A17609  15.943  40.753   7.950
 4460POPC   C4A17610  15.940  40.774   7.650
 4460POPC   C1B17611  15.677  40.724   8.550
 4460POPC   C2B17612  15.697  40.763   8.250
 4460POPC   C3B17613  15.734  40.740   7.950
 4460POPC   C4B17614  15.677  40.687   7.650
 4461POPC   NC317615  30.654  22.211   9.450
 4461POPC   PO417616  30.668  22.186   9.150
 4461POPC   GL117617  30.713  22.139   8.850
 4461POPC   GL217618  30.663  22.245   8.850
 4461POPC   C1A17619  30.689  22.200   8.550
 4461POPC   D2A17620  30.679  22.211   8.250
 4461POPC   C3A17621  30.717  22.133   7.950
 4461POPC   C4A17622  30.674  22.130   7.650
 4461POPC   C1B17623  30.725  22.448   8.550
 4461POPC   C2B17624  30.725  22.395   8.250
 4461POPC   C3B17625  30.662  22.363   7.950
 4461POPC   C4B17626  30.735  22.375   7.650
 4462POPC   NC317627  18.248  42.374   9.450
 4462POPC   PO417628  18.273  42.298   9.150
 4462POPC   GL117629  18.324  42.286   8.850
 4462POPC   GL217630  18.374  42.394   8.850
 4462POPC   C1A17631  18.270  42.355   8.550
 4462POPC   D2A17632  18.290  42.310   8.250
 4462POPC   C3A17633  18.286  42.332   7.950
 4462POPC   C4A17634  18.269  42.299   7.650
 4462POPC   C1B17635  18.484  42.343   8.550
 4462POPC   C2B17636  18.495  42.379   8.250
 4462POPC   C3B17637  18.568  42.342   7.950
 4462POPC   C4B17638  18.505  42.398   7.650
 4463POPC   NC317639   5.833  39.988   9.450
 4463POPC   PO417640   5.833  40.052   9.150
 4463POPC   GL117641   5.873  40.041   8.850
 4463POPC   GL217642   5.870  40.139   8.850
 4463POPC   C1A17643   5.909  39.966   8.550
 4463POPC   D2A17644   5.910  40.023   8.250
 4463POPC   C3A17645   5.867  39.994   7.950
 4463POPC   C4A17646   5.837  39.961   7.650
 4463POPC   C1B17647   5.820  40.211   8.550
 4463POPC   C2B17648   5.845  40.264   8.250
 4463POPC   C3B17649   5.784  40.267   7.950
 4463POPC   C4B17650   5.777  40.248   7.650
 4464POPC   NC317651   8.180  23.753   9.450
 4464POPC   PO417652   8.195  23.668   9.150
 4464POPC   GL117653   8.168  23.690   8.850
 4464POPC   GL217654   8.305  23.705   8.850
 4464POPC   C1A17655   8.168  23.699   8.550
 4464POPC   D2A17656   8.187  23.698   8.250
 4464POPC   C3A17657   8.205  23.690   7.950
 4464POPC   C4A17658   8.183  23.743   7.650
 4464POPC   C1B17659   8.397  23.662   8.550
 4464POPC   C2B17660   8.440  23.738   8.250
 4464POPC   C3B17661   8.468  23.678   7.950
 4464POPC   C4B17662   8.483  23.741   7.650
 4465POPC   NC317663   1.990  15.944   9.450
 4465POPC   PO417664   2.020  15.981   9.150
 4465POPC   GL117665   1.997  15.947   8.850
 4465POPC   GL217666   1.887  15.945   8.850
 4465POPC   C1A17667   2.030  15.961   8.550
 4465POPC   D2A17668   2.000  15.915   8.250
 4465POPC   C3A17669   2.031  15.985   7.950
 4465POPC   C4A17670   2.022  15.907   7.650
 4465POPC   C1B17671   1.794  15.816   8.550
 4465POPC   C2B17672   1.803  15.841   8.250
 4465POPC   C3B17673   1.803  15.806   7.950
 4465POPC   C4B17674   1.737  15.803   7.650
 4466POPC   NC317675  26.033  42.369   9.450
 4466POPC   PO417676  26.084  42.375   9.150
 4466POPC   GL117677  26.036  42.355   8.850
 4466POPC   GL217678  26.083  42.457   8.850
 4466POPC   C1A17679  25.993  42.307   8.550
 4466POPC   D2A17680  26.052  42.328   8.250
 4466POPC   C3A17681  25.993  42.330   7.950
 4466POPC   C4A17682  26.009  42.305   7.650
 4466POPC   C1B17683  26.200  42.588   8.550
 4466POPC   C2B17684  26.187  42.567   8.250
 4466POPC   C3B17685  26.190  42.579   7.950
 4466POPC   C4B17686  26.111  42.565   7.650
 4467POPC   NC317687  43.066  23.688   9.450
 4467POPC   PO417688  43.153  23.740   9.150
 4467POPC   GL117689  43.130  23.752   8.850
 4467POPC   GL217690  43.016  23.764   8.850
 4467POPC   C1A17691  43.073  23.707   8.550
 4467POPC   D2A17692  43.137  23.718   8.250
 4467POPC   C3A17693  43.106  23.735   7.950
 4467POPC   C4A17694  43.095  23.740   7.650
 4467POPC   C1B17695  42.891  23.695   8.550
 4467POPC   C2B17696  42.851  23.682   8.250
 4467POPC   C3B17697  42.869  23.766   7.950
 4467POPC   C4B17698  42.835  23.678   7.650
 4468POPC   NC317699  33.018  41.583   9.450
 4468POPC   PO417700  33.031  41.574   9.150
 4468POPC   GL117701  33.015  41.562   8.850
 4468POPC   GL217702  33.082  41.476   8.850
 4468POPC   C1A17703  33.028  41.551   8.550
 4468POPC   D2A17704  32.982  41.560   8.250
 4468POPC   C3A17705  33.037  41.588   7.950
 4468POPC   C4A17706  33.063  41.561   7.650
 4468POPC   C1B17707  33.130  41.282   8.550
 4468POPC   C2B17708  33.154  41.322   8.250
 4468POPC   C3B17709  33.082  41.377   7.950
 4468POPC   C4B17710  33.134  41.327   7.650
 4469POPC   NC317711  22.154  22.187   9.450
 4469POPC   PO417712  22.199  22.128   9.150
 4469POPC   GL117713  22.205  22.119   8.850
 4469POPC   GL217714  22.017  22.123   8.850
 4469POPC   C1A17715  22.188  22.142   8.550
 4469POPC   D2A17716  22.156  22.195   8.250
 4469POPC   C3A17717  22.121  22.184   7.950
 4469POPC   C4A17718  22.196  22.204   7.650
 4469POPC   C1B17719  21.904  22.187   8.550
 4469POPC   C2B17720  21.882  22.153   8.250
 4469POPC   C3B17721  21.867  22.157   7.950
 4469POPC   C4B17722  21.878  22.154   7.650
 4470POPC   NC317723  17.499   1.242   9.450
 4470POPC   PO417724  17.483   1.257   9.150
 4470POPC   GL117725  17.553   1.249   8.850
 4470POPC   GL217726  17.410   1.275   8.850
 4470POPC   C1A17727  17.532   1.229   8.550
 4470POPC   D2A17728  17.525   1.195   8.250
 4470POPC   C3A17729  17.516   1.258   7.950
 4470POPC   C4A17730  17.555   1.165   7.650
 4470POPC   C1B17731  17.315   1.380   8.550
 4470POPC   C2B17732  17.340   1.373   8.250
 4470POPC   C3B17733  17.307   1.335   7.950
 4470POPC   C4B17734  17.367   1.428   7.650
 4471POPC   NC317735  40.752  22.967   9.450
 4471POPC   PO417736  40.752  22.918   9.150
 4471POPC   GL117737  40.760  22.981   8.850
 4471POPC   GL217738  40.812  23.091   8.850
 4471POPC   C1A17739  40.761  22.907   8.550
 4471POPC   D2A17740  40.775  22.910   8.250
 4471POPC   C3A17741  40.798  22.962   7.950
 4471POPC   C4A17742  40.801  22.933   7.650
 4471POPC   C1B17743  40.743  23.226   8.550
 4471POPC   C2B17744  40.739  23.210   8.250
 4471POPC   C3B17745  40.759  23.210   7.950
 4471POPC   C4B17746  40.807  23.208   7.650
 4472POPC   NC317747  21.422  23.668   9.450
 4472POPC   PO417748  21.432  23.697   9.150
 4472POPC   GL117749  21.369  23.733   8.850
 4472POPC   GL217750  21.541  23.631   8.850
 4472POPC   C1A17751  21.357  23.736   8.550
 4472POPC   D2A17752  21.400  23.747   8.250
 4472POPC   C3A17753  21.381  23.701   7.950
 4472POPC   C4A17754  21.348  23.669   7.650
 4472POPC   C1B17755  21.593  23.597   8.550
 4472POPC   C2B17756  21.602  23.592   8.250
 4472POPC   C3B17757  21.626  23.580   7.950
 4472POPC   C4B17758  21.615  23.656   7.650
 4473POPC   NC317759  12.838  14.397   9.450
 4473POPC   PO417760  12.887  14.420   9.150
 4473POPC   GL117761  12.863  14.399   8.850
 4473POPC   GL217762  12.690  14.420   8.850
 4473POPC   C1A17763  12.873  14.388   8.550
 4473POPC   D2A17764  12.836  14.399   8.250
 4473POPC   C3A17765  12.857  14.404   7.950
 4473POPC   C4A17766  12.808  14.423   7.650
 4473POPC   C1B17767  12.579  14.425   8.550
 4473POPC   C2B17768  12.636  14.476   8.250
 4473POPC   C3B17769  12.562  14.477   7.950
 4473POPC   C4B17770  12.612  14.467   7.650
 4474POPC   NC317771  12.867  15.905   9.450
 4474POPC   PO417772  12.887  15.977   9.150
 4474POPC   GL117773  12.858  15.914   8.850
 4474POPC   GL217774  12.766  15.930   8.850
 4474POPC   C1A17775  12.854  15.971   8.550
 4474POPC   D2A17776  12.840  15.979   8.250
 4474POPC   C3A17777  12.828  15.945   7.950
 4474POPC   C4A17778  12.820  15.943   7.650
 4474POPC   C1B17779  12.668  15.856   8.550
 4474POPC   C2B17780  12.595  15.853   8.250
 4474POPC   C3B17781  12.687  15.790   7.950
 4474POPC   C4B17782  12.673  15.782   7.650
 4475POPC   NC317783  15.966  32.997   9.450
 4475POPC   PO417784  15.979  33.000   9.150
 4475POPC   GL117785  15.948  33.033   8.850
 4475POPC   GL217786  15.859  33.019   8.850
 4475POPC   C1A17787  15.962  32.980   8.550
 4475POPC   D2A17788  15.991  33.007   8.250
 4475POPC   C3A17789  15.967  33.059   7.950
 4475POPC   C4A17790  15.974  33.042   7.650
 4475POPC   C1B17791  15.712  33.140   8.550
 4475POPC   C2B17792  15.756  33.054   8.250
 4475POPC   C3B17793  15.675  33.058   7.950
 4475POPC   C4B17794  15.718  33.081   7.650
 4476POPC   NC317795  25.278  12.900   9.450
 4476POPC   PO417796  25.270  12.852   9.150
 4476POPC   GL117797  25.275  12.829   8.850
 4476POPC   GL217798  25.281  12.934   8.850
 4476POPC   C1A17799  25.222  12.856   8.550
 4476POPC   D2A17800  25.278  12.811   8.250
 4476POPC   C3A17801  25.280  12.829   7.950
 4476POPC   C4A17802  25.314  12.892   7.650
 4476POPC   C1B17803  25.164  13.075   8.550
 4476POPC   C2B17804  25.220  13.137   8.250
 4476POPC   C3B17805  25.210  13.062   7.950
 4476POPC   C4B17806  25.228  13.097   7.650
 4477POPC   NC317807  11.328  28.339   9.450
 4477POPC   PO417808  11.257  28.365   9.150
 4477POPC   GL117809  11.306  28.365   8.850
 4477POPC   GL217810  11.214  28.228   8.850
 4477POPC   C1A17811  11.317  28.389   8.550
 4477POPC   D2A17812  11.260  28.409   8.250
 4477POPC   C3A17813  11.292  28.360   7.950
 4477POPC   C4A17814  11.269  28.349   7.650
 4477POPC   C1B17815  11.187  28.122   8.550
 4477POPC   C2B17816  11.156  28.131   8.250
 4477POPC   C3B17817  11.182  28.124   7.950
 4477POPC   C4B17818  11.202  28.177   7.650
 4478POPC   NC317819  29.167  26.773   9.450
 4478POPC   PO417820  29.184  26.853   9.150
 4478POPC   GL117821  29.194  26.825   8.850
 4478POPC   GL217822  29.088  26.878   8.850
 4478POPC   C1A17823  29.175  26.805   8.550
 4478POPC   D2A17824  29.114  26.815   8.250
 4478POPC   C3A17825  29.191  26.819   7.950
 4478POPC   C4A17826  29.164  26.844   7.650
 4478POPC   C1B17827  28.977  26.983   8.550
 4478POPC   C2B17828  29.024  27.035   8.250
 4478POPC   C3B17829  29.012  27.020   7.950
 4478POPC   C4B17830  29.039  27.064   7.650
 4479POPC   NC317831   4.331  39.193   9.450
 4479POPC   PO417832   4.318  39.187   9.150
 4479POPC   GL117833   4.284  39.267   8.850
 4479POPC   GL217834   4.429  39.192   8.850
 4479POPC   C1A17835   4.305  39.273   8.550
 4479POPC   D2A17836   4.307  39.219   8.250
 4479POPC   C3A17837   4.318  39.257   7.950
 4479POPC   C4A17838   4.323  39.230   7.650
 4479POPC   C1B17839   4.548  39.189   8.550
 4479POPC   C2B17840   4.596  39.196   8.250
 4479POPC   C3B17841   4.550  39.262   7.950
 4479POPC   C4B17842   4.533  39.243   7.650
 4480POPC   NC317843   3.570  42.383   9.450
 4480POPC   PO417844   3.505  42.308   9.150
 4480POPC   GL117845   3.576  42.369   8.850
 4480POPC   GL217846   3.666  42.365   8.850
 4480POPC   C1A17847   3.565  42.369   8.550
 4480POPC   D2A17848   3.502  42.295   8.250
 4480POPC   C3A17849   3.543  42.321   7.950
 4480POPC   C4A17850   3.544  42.381   7.650
 4480POPC   C1B17851   3.775  42.403   8.550
 4480POPC   C2B17852   3.775  42.407   8.250
 4480POPC   C3B17853   3.811  42.364   7.950
 4480POPC   C4B17854   3.795  42.404   7.650
 4481POPC   NC317855   2.735   2.790   9.450
 4481POPC   PO417856   2.795   2.805   9.150
 4481POPC   GL117857   2.809   2.796   8.850
 4481POPC   GL217858   2.668   2.699   8.850
 4481POPC   C1A17859   2.753   2.717   8.550
 4481POPC   D2A17860   2.726   2.753   8.250
 4481POPC   C3A17861   2.766   2.749   7.950
 4481POPC   C4A17862   2.736   2.768   7.650
 4481POPC   C1B17863   2.542   2.682   8.550
 4481POPC   C2B17864   2.523   2.707   8.250
 4481POPC   C3B17865   2.521   2.734   7.950
 4481POPC   C4B17866   2.503   2.734   7.650
 4482POPC   NC317867   0.476  37.676   9.450
 4482POPC   PO417868   0.402  37.677   9.150
 4482POPC   GL117869   0.445  37.668   8.850
 4482POPC   GL217870   0.409  37.519   8.850
 4482POPC   C1A17871   0.458  37.710   8.550
 4482POPC   D2A17872   0.484  37.645   8.250
 4482POPC   C3A17873   0.414  37.689   7.950
 4482POPC   C4A17874   0.484  37.704   7.650
 4482POPC   C1B17875   0.434  37.416   8.550
 4482POPC   C2B17876   0.420  37.433   8.250
 4482POPC   C3B17877   0.450  37.437   7.950
 4482POPC   C4B17878   0.484  37.447   7.650
 4483POPC   NC317879  41.566  25.242   9.450
 4483POPC   PO417880  41.551  25.236   9.150
 4483POPC   GL117881  41.585  25.276   8.850
 4483POPC   GL217882  41.647  25.135   8.850
 4483POPC   C1A17883  41.556  25.275   8.550
 4483POPC   D2A17884  41.527  25.287   8.250
 4483POPC   C3A17885  41.589  25.265   7.950
 4483POPC   C4A17886  41.529  25.254   7.650
 4483POPC   C1B17887  41.739  25.105   8.550
 4483POPC   C2B17888  41.710  25.075   8.250
 4483POPC   C3B17889  41.775  25.119   7.950
 4483POPC   C4B17890  41.695  25.069   7.650
 4484POPC   NC317891  10.514  27.605   9.450
 4484POPC   PO417892  10.490  27.578   9.150
 4484POPC   GL117893  10.532  27.604   8.850
 4484POPC   GL217894  10.488  27.460   8.850
 4484POPC   C1A17895  10.568  27.598   8.550
 4484POPC   D2A17896  10.505  27.581   8.250
 4484POPC   C3A17897  10.569  27.582   7.950
 4484POPC   C4A17898  10.487  27.632   7.650
 4484POPC   C1B17899  10.468  27.386   8.550
 4484POPC   C2B17900  10.429  27.325   8.250
 4484POPC   C3B17901  10.380  27.372   7.950
 4484POPC   C4B17902  10.414  27.323   7.650
 4485POPC   NC317903  40.756   3.514   9.450
 4485POPC   PO417904  40.789   3.496   9.150
 4485POPC   GL117905  40.767   3.495   8.850
 4485POPC   GL217906  40.846   3.430   8.850
 4485POPC   C1A17907  40.826   3.529   8.550
 4485POPC   D2A17908  40.783   3.525   8.250
 4485POPC   C3A17909  40.772   3.506   7.950
 4485POPC   C4A17910  40.733   3.571   7.650
 4485POPC   C1B17911  40.941   3.401   8.550
 4485POPC   C2B17912  41.013   3.348   8.250
 4485POPC   C3B17913  41.013   3.406   7.950
 4485POPC   C4B17914  40.965   3.413   7.650
 4486POPC   NC317915  33.834  27.556   9.450
 4486POPC   PO417916  33.766  27.555   9.150
 4486POPC   GL117917  33.778  27.623   8.850
 4486POPC   GL217918  33.847  27.502   8.850
 4486POPC   C1A17919  33.835  27.549   8.550
 4486POPC   D2A17920  33.815  27.631   8.250
 4486POPC   C3A17921  33.835  27.588   7.950
 4486POPC   C4A17922  33.789  27.586   7.650
 4486POPC   C1B17923  33.954  27.425   8.550
 4486POPC   C2B17924  33.900  27.379   8.250
 4486POPC   C3B17925  33.936  27.344   7.950
 4486POPC   C4B17926  33.936  27.351   7.650
 4487POPC   NC317927  12.053  37.714   9.450
 4487POPC   PO417928  12.063  37.696   9.150
 4487POPC   GL117929  12.031  37.708   8.850
 4487POPC   GL217930  12.017  37.794   8.850
 4487POPC   C1A17931  12.118  37.684   8.550
 4487POPC   D2A17932  12.037  37.705   8.250
 4487POPC   C3A17933  12.075  37.688   7.950
 4487POPC   C4A17934  12.116  37.636   7.650
 4487POPC   C1B17935  11.840  37.885   8.550
 4487POPC   C2B17936  11.834  37.874   8.250
 4487POPC   C3B17937  11.845  37.790   7.950
 4487POPC   C4B17938  11.893  37.875   7.650
 4488POPC   NC317939  40.813  40.752   9.450
 4488POPC   PO417940  40.809  40.735   9.150
 4488POPC   GL117941  40.831  40.761   8.850
 4488POPC   GL217942  40.788  40.661   8.850
 4488POPC   C1A17943  40.789  40.796   8.550
 4488POPC   D2A17944  40.748  40.794   8.250
 4488POPC   C3A17945  40.819  40.830   7.950
 4488POPC   C4A17946  40.828  40.831   7.650
 4488POPC   C1B17947  40.814  40.495   8.550
 4488POPC   C2B17948  40.812  40.502   8.250
 4488POPC   C3B17949  40.776  40.546   7.950
 4488POPC   C4B17950  40.774  40.543   7.650
 4489POPC   NC317951  35.320   0.442   9.450
 4489POPC   PO417952  35.351   0.441   9.150
 4489POPC   GL117953  35.342   0.398   8.850
 4489POPC   GL217954  35.419   0.565   8.850
 4489POPC   C1A17955  35.366   0.450   8.550
 4489POPC   D2A17956  35.323   0.479   8.250
 4489POPC   C3A17957  35.357   0.430   7.950
 4489POPC   C4A17958  35.385   0.420   7.650
 4489POPC   C1B17959  35.551   0.685   8.550
 4489POPC   C2B17960  35.461   0.659   8.250
 4489POPC   C3B17961  35.506   0.626   7.950
 4489POPC   C4B17962  35.523   0.681   7.650
 4490POPC   NC317963  29.140   5.109   9.450
 4490POPC   PO417964  29.114   5.125   9.150
 4490POPC   GL117965  29.183   5.131   8.850
 4490POPC   GL217966  29.281   5.030   8.850
 4490POPC   C1A17967  29.156   5.080   8.550
 4490POPC   D2A17968  29.190   5.137   8.250
 4490POPC   C3A17969  29.109   5.095   7.950
 4490POPC   C4A17970  29.165   5.141   7.650
 4490POPC   C1B17971  29.280   4.883   8.550
 4490POPC   C2B17972  29.365   4.908   8.250
 4490POPC   C3B17973  29.350   4.910   7.950
 4490POPC   C4B17974  29.279   4.883   7.650
 4491POPC   NC317975   6.611  29.134   9.450
 4491POPC   PO417976   6.662  29.128   9.150
 4491POPC   GL117977   6.689  29.164   8.850
 4491POPC   GL217978   6.749  29.223   8.850
 4491POPC   C1A17979   6.662  29.113   8.550
 4491POPC   D2A17980   6.635  29.135   8.250
 4491POPC   C3A17981   6.638  29.158   7.950
 4491POPC   C4A17982   6.660  29.110   7.650
 4491POPC   C1B17983   6.820  29.263   8.550
 4491POPC   C2B17984   6.836  29.276   8.250
 4491POPC   C3B17985   6.861  29.282   7.950
 4491POPC   C4B17986   6.890  29.245   7.650
 4492POPC   NC317987   8.982   5.095   9.450
 4492POPC   PO417988   8.933   5.048   9.150
 4492POPC   GL117989   9.000   5.046   8.850
 4492POPC   GL217990   8.894   5.186   8.850
 4492POPC   C1A17991   8.945   5.093   8.550
 4492POPC   D2A17992   8.984   5.112   8.250
 4492POPC   C3A17993   8.930   5.092   7.950
 4492POPC   C4A17994   8.979   5.069   7.650
 4492POPC   C1B17995   8.736   5.191   8.550
 4492POPC   C2B17996   8.801   5.219   8.250
 4492POPC   C3B17997   8.740   5.209   7.950
 4492POPC   C4B17998   8.708   5.252   7.650
 4493POPC   NC317999  22.913  16.002   9.450
 4493POPC   PO418000  22.931  15.989   9.150
 4493POPC   GL118001  22.980  15.921   8.850
 4493POPC   GL218002  22.907  15.822   8.850
 4493POPC   C1A18003  22.983  15.984   8.550
 4493POPC   D2A18004  22.975  15.942   8.250
 4493POPC   C3A18005  22.907  15.934   7.950
 4493POPC   C4A18006  22.898  15.975   7.650
 4493POPC   C1B18007  22.833  15.733   8.550
 4493POPC   C2B18008  22.845  15.701   8.250
 4493POPC   C3B18009  22.820  15.774   7.950
 4493POPC   C4B18010  22.843  15.690   7.650
 4494POPC   NC318011   5.857  12.900   9.450
 4494POPC   PO418012   5.888  12.852   9.150
 4494POPC   GL118013   5.828  12.853   8.850
 4494POPC   GL218014   5.743  12.978   8.850
 4494POPC   C1A18015   5.879  12.860   8.550
 4494POPC   D2A18016   5.882  12.858   8.250
 4494POPC   C3A18017   5.892  12.890   7.950
 4494POPC   C4A18018   5.851  12.821   7.650
 4494POPC   C1B18019   5.631  12.967   8.550
 4494POPC   C2B18020   5.621  12.955   8.250
 4494POPC   C3B18021   5.660  12.992   7.950
 4494POPC   C4B18022   5.636  12.995   7.650
 4495POPC   NC318023  16.743   1.954   9.450
 4495POPC   PO418024  16.724   2.009   9.150
 4495POPC   GL118025  16.750   2.032   8.850
 4495POPC   GL218026  16.881   1.976   8.850
 4495POPC   C1A18027  16.759   2.030   8.550
 4495POPC   D2A18028  16.683   2.039   8.250
 4495POPC   C3A18029  16.729   2.001   7.950
 4495POPC   C4A18030  16.682   1.985   7.650
 4495POPC   C1B18031  17.018   1.960   8.550
 4495POPC   C2B18032  16.963   2.013   8.250
 4495POPC   C3B18033  16.967   2.031   7.950
 4495POPC   C4B18034  16.941   1.993   7.650
 4496POPC   NC318035  39.193  26.080   9.450
 4496POPC   PO418036  39.189  26.091   9.150
 4496POPC   GL118037  39.200  25.996   8.850
 4496POPC   GL218038  39.176  25.891   8.850
 4496POPC   C1A18039  39.258  26.017   8.550
 4496POPC   D2A18040  39.254  26.022   8.250
 4496POPC   C3A18041  39.235  26.054   7.950
 4496POPC   C4A18042  39.213  26.001   7.650
 4496POPC   C1B18043  39.158  25.824   8.550
 4496POPC   C2B18044  39.199  25.832   8.250
 4496POPC   C3B18045  39.149  25.823   7.950
 4496POPC   C4B18046  39.141  25.827   7.650
 4497POPC   NC318047  30.651   9.785   9.450
 4497POPC   PO418048  30.734   9.785   9.150
 4497POPC   GL118049  30.652   9.715   8.850
 4497POPC   GL218050  30.620   9.729   8.850
 4497POPC   C1A18051  30.672   9.772   8.550
 4497POPC   D2A18052  30.711   9.728   8.250
 4497POPC   C3A18053  30.723   9.710   7.950
 4497POPC   C4A18054  30.743   9.732   7.650
 4497POPC   C1B18055  30.461   9.684   8.550
 4497POPC   C2B18056  30.411   9.759   8.250
 4497POPC   C3B18057  30.457   9.744   7.950
 4497POPC   C4B18058  30.496   9.765   7.650
 4498POPC   NC318059  14.453  20.576   9.450
 4498POPC   PO418060  14.442  20.640   9.150
 4498POPC   GL118061  14.426  20.654   8.850
 4498POPC   GL218062  14.329  20.708   8.850
 4498POPC   C1A18063  14.378  20.643   8.550
 4498POPC   D2A18064  14.430  20.561   8.250
 4498POPC   C3A18065  14.444  20.644   7.950
 4498POPC   C4A18066  14.444  20.592   7.650
 4498POPC   C1B18067  14.286  20.832   8.550
 4498POPC   C2B18068  14.259  20.805   8.250
 4498POPC   C3B18069  14.301  20.845   7.950
 4498POPC   C4B18070  14.311  20.867   7.650
 4499POPC   NC318071  15.213  15.177   9.450
 4499POPC   PO418072  15.177  15.202   9.150
 4499POPC   GL118073  15.223  15.203   8.850
 4499POPC   GL218074  15.107  15.240   8.850
 4499POPC   C1A18075  15.204  15.226   8.550
 4499POPC   D2A18076  15.170  15.132   8.250
 4499POPC   C3A18077  15.191  15.135   7.950
 4499POPC   C4A18078  15.208  15.216   7.650
 4499POPC   C1B18079  14.984  15.328   8.550
 4499POPC   C2B18080  15.009  15.376   8.250
 4499POPC   C3B18081  15.048  15.397   7.950
 4499POPC   C4B18082  15.037  15.378   7.650
 4500POPC   NC318083  43.111  43.918   9.450
 4500POPC   PO418084  43.133  43.836   9.150
 4500POPC   GL118085  43.091  43.880   8.850
 4500POPC   GL218086  43.018  43.957   8.850
 4500POPC   C1A18087  43.070  43.858   8.550
 4500POPC   D2A18088  43.134  43.878   8.250
 4500POPC   C3A18089  43.086  43.886   7.950
 4500POPC   C4A18090  43.085  43.852   7.650
 4500POPC   C1B18091  43.001  44.138   8.550
 4500POPC   C2B18092  42.989  44.147   8.250
 4500POPC   C3B18093  42.973  44.097   7.950
 4500POPC   C4B18094  42.985  44.126   7.650
 4501POPC   NC318095  36.097  40.824   9.450
 4501POPC   PO418096  36.172  40.809   9.150
 4501POPC   GL118097  36.139  40.754   8.850
 4501POPC   GL218098  36.141  40.870   8.850
 4501POPC   C1A18099  36.159  40.825   8.550
 4501POPC   D2A18100  36.170  40.813   8.250
 4501POPC   C3A18101  36.082  40.740   7.950
 4501POPC   C4A18102  36.143  40.805   7.650
 4501POPC   C1B18103  36.120  41.047   8.550
 4501POPC   C2B18104  36.137  41.049   8.250
 4501POPC   C3B18105  36.107  41.010   7.950
 4501POPC   C4B18106  36.084  41.007   7.650
 4502POPC   NC318107  19.043   9.796   9.450
 4502POPC   PO418108  19.064   9.742   9.150
 4502POPC   GL118109  19.101   9.757   8.850
 4502POPC   GL218110  18.973   9.885   8.850
 4502POPC   C1A18111  19.101   9.726   8.550
 4502POPC   D2A18112  19.055   9.797   8.250
 4502POPC   C3A18113  19.034   9.750   7.950
 4502POPC   C4A18114  19.058   9.796   7.650
 4502POPC   C1B18115  19.019   9.970   8.550
 4502POPC   C2B18116  18.941  10.028   8.250
 4502POPC   C3B18117  18.949  10.015   7.950
 4502POPC   C4B18118  18.957   9.936   7.650
 4503POPC   NC318119   5.061   3.552   9.450
 4503POPC   PO418120   5.090   3.557   9.150
 4503POPC   GL118121   5.101   3.550   8.850
 4503POPC   GL218122   5.181   3.438   8.850
 4503POPC   C1A18123   5.103   3.501   8.550
 4503POPC   D2A18124   5.068   3.534   8.250
 4503POPC   C3A18125   5.097   3.517   7.950
 4503POPC   C4A18126   5.114   3.551   7.650
 4503POPC   C1B18127   5.324   3.359   8.550
 4503POPC   C2B18128   5.244   3.366   8.250
 4503POPC   C3B18129   5.278   3.385   7.950
 4503POPC   C4B18130   5.319   3.422   7.650
 4504POPC   NC318131   0.424  11.278   9.450
 4504POPC   PO418132   0.462  11.301   9.150
 4504POPC   GL118133   0.466  11.259   8.850
 4504POPC   GL218134   0.543  11.201   8.850
 4504POPC   C1A18135   0.485  11.296   8.550
 4504POPC   D2A18136   0.416  11.326   8.250
 4504POPC   C3A18137   0.442  11.304   7.950
 4504POPC   C4A18138   0.466  11.257   7.650
 4504POPC   C1B18139   0.604  11.078   8.550
 4504POPC   C2B18140   0.534  11.070   8.250
 4504POPC   C3B18141   0.595  11.064   7.950
 4504POPC   C4B18142   0.529  11.072   7.650
 4505POPC   NC318143  22.946  40.798   9.450
 4505POPC   PO418144  22.910  40.737   9.150
 4505POPC   GL118145  22.921  40.786   8.850
 4505POPC   GL218146  23.009  40.880   8.850
 4505POPC   C1A18147  22.920  40.799   8.550
 4505POPC   D2A18148  22.954  40.797   8.250
 4505POPC   C3A18149  22.985  40.803   7.950
 4505POPC   C4A18150  22.960  40.817   7.650
 4505POPC   C1B18151  23.103  40.991   8.550
 4505POPC   C2B18152  23.066  40.991   8.250
 4505POPC   C3B18153  23.058  40.993   7.950
 4505POPC   C4B18154  23.100  41.007   7.650
 4506POPC   NC318155  41.590  10.476   9.450
 4506POPC   PO418156  41.532  10.484   9.150
 4506POPC   GL118157  41.511  10.557   8.850
 4506POPC   GL218158  41.642  10.519   8.850
 4506POPC   C1A18159  41.582  10.568   8.550
 4506POPC   D2A18160  41.513  10.543   8.250
 4506POPC   C3A18161  41.529  10.509   7.950
 4506POPC   C4A18162  41.521  10.500   7.650
 4506POPC   C1B18163  41.838  10.450   8.550
 4506POPC   C2B18164  41.774  10.445   8.250
 4506POPC   C3B18165  41.753  10.481   7.950
 4506POPC   C4B18166  41.789  10.414   7.650
 4507POPC   NC318167  21.407  35.367   9.450
 4507POPC   PO418168  21.340  35.378   9.150
 4507POPC   GL118169  21.417  35.357   8.850
 4507POPC   GL218170  21.276  35.468   8.850
 4507POPC   C1A18171  21.337  35.302   8.550
 4507POPC   D2A18172  21.397  35.354   8.250
 4507POPC   C3A18173  21.356  35.377   7.950
 4507POPC   C4A18174  21.392  35.304   7.650
 4507POPC   C1B18175  21.218  35.490   8.550
 4507POPC   C2B18176  21.236  35.545   8.250
 4507POPC   C3B18177  21.159  35.464   7.950
 4507POPC   C4B18178  21.185  35.515   7.650
 4508POPC   NC318179  41.562  43.901   9.450
 4508POPC   PO418180  41.564  43.896   9.150
 4508POPC   GL118181  41.589  43.897   8.850
 4508POPC   GL218182  41.601  44.032   8.850
 4508POPC   C1A18183  41.520  43.929   8.550
 4508POPC   D2A18184  41.532  43.879   8.250
 4508POPC   C3A18185  41.520  43.890   7.950
 4508POPC   C4A18186  41.560  43.905   7.650
 4508POPC   C1B18187  41.610  44.119   8.550
 4508POPC   C2B18188  41.572  44.112   8.250
 4508POPC   C3B18189  41.571  44.119   7.950
 4508POPC   C4B18190  41.556  44.105   7.650
 4509POPC   NC318191   0.479  21.433   9.450
 4509POPC   PO418192   0.445  21.344   9.150
 4509POPC   GL118193   0.452  21.433   8.850
 4509POPC   GL218194   0.407  21.503   8.850
 4509POPC   C1A18195   0.477  21.369   8.550
 4509POPC   D2A18196   0.469  21.369   8.250
 4509POPC   C3A18197   0.437  21.367   7.950
 4509POPC   C4A18198   0.433  21.433   7.650
 4509POPC   C1B18199   0.385  21.585   8.550
 4509POPC   C2B18200   0.368  21.568   8.250
 4509POPC   C3B18201   0.328  21.621   7.950
 4509POPC   C4B18202   0.342  21.628   7.650
 4510POPC   NC318203  40.021  22.115   9.450
 4510POPC   PO418204  40.049  22.127   9.150
 4510POPC   GL118205  39.998  22.207   8.850
 4510POPC   GL218206  40.109  22.031   8.850
 4510POPC   C1A18207  39.994  22.186   8.550
 4510POPC   D2A18208  40.001  22.197   8.250
 4510POPC   C3A18209  40.000  22.197   7.950
 4510POPC   C4A18210  40.038  22.137   7.650
 4510POPC   C1B18211  40.173  21.986   8.550
 4510POPC   C2B18212  40.166  21.917   8.250
 4510POPC   C3B18213  40.177  21.907   7.950
 4510POPC   C4B18214  40.179  21.972   7.650
 4511POPC   NC318215  32.251  37.690   9.450
 4511POPC   PO418216  32.270  37.707   9.150
 4511POPC   GL118217  32.209  37.664   8.850
 4511POPC   GL218218  32.395  37.692   8.850
 4511POPC   C1A18219  32.220  37.700   8.550
 4511POPC   D2A18220  32.199  37.649   8.250
 4511POPC   C3A18221  32.260  37.685   7.950
 4511POPC   C4A18222  32.221  37.634   7.650
 4511POPC   C1B18223  32.471  37.756   8.550
 4511POPC   C2B18224  32.457  37.721   8.250
 4511POPC   C3B18225  32.435  37.807   7.950
 4511POPC   C4B18226  32.480  37.729   7.650
 4512POPC   NC318227  33.773  40.792   9.450
 4512POPC   PO418228  33.837  40.829   9.150
 4512POPC   GL118229  33.786  40.802   8.850
 4512POPC   GL218230  33.844  40.709   8.850
 4512POPC   C1A18231  33.835  40.747   8.550
 4512POPC   D2A18232  33.794  40.820   8.250
 4512POPC   C3A18233  33.753  40.782   7.950
 4512POPC   C4A18234  33.830  40.764   7.650
 4512POPC   C1B18235  33.874  40.531   8.550
 4512POPC   C2B18236  33.857  40.526   8.250
 4512POPC   C3B18237  33.914  40.581   7.950
 4512POPC   C4B18238  33.835  40.536   7.650
 4513POPC   NC318239  12.864  29.890   9.450
 4513POPC   PO418240  12.883  29.946   9.150
 4513POPC   GL118241  12.851  29.906   8.850
 4513POPC   GL218242  12.749  29.786   8.850
 4513POPC   C1A18243  12.832  29.892   8.550
 4513POPC   D2A18244  12.851  29.941   8.250
 4513POPC   C3A18245  12.860  29.874   7.950
 4513POPC   C4A18246  12.846  29.919   7.650
 4513POPC   C1B18247  12.707  29.706   8.550
 4513POPC   C2B18248  12.710  29.667   8.250
 4513POPC   C3B18249  12.689  29.674   7.950
 4513POPC   C4B18250  12.762  29.728   7.650
 4514POPC   NC318251  19.035  38.417   9.450
 4514POPC   PO418252  19.106  38.414   9.150
 4514POPC   GL118253  19.057  38.434   8.850
 4514POPC   GL218254  18.924  38.505   8.850
 4514POPC   C1A18255  19.053  38.481   8.550
 4514POPC   D2A18256  19.092  38.417   8.250
 4514POPC   C3A18257  19.067  38.418   7.950
 4514POPC   C4A18258  19.082  38.415   7.650
 4514POPC   C1B18259  18.775  38.492   8.550
 4514POPC   C2B18260  18.826  38.507   8.250
 4514POPC   C3B18261  18.820  38.494   7.950
 4514POPC   C4B18262  18.778  38.560   7.650
 4515POPC   NC318263   0.454  41.581   9.450
 4515POPC   PO418264   0.395  41.517   9.150
 4515POPC   GL118265   0.486  41.600   8.850
 4515POPC   GL218266   0.451  41.461   8.850
 4515POPC   C1A18267   0.465  41.565   8.550
 4515POPC   D2A18268   0.400  41.548   8.250
 4515POPC   C3A18269   0.445  41.592   7.950
 4515POPC   C4A18270   0.473  41.546   7.650
 4515POPC   C1B18271   0.460  41.309   8.550
 4515POPC   C2B18272   0.396  41.297   8.250
 4515POPC   C3B18273   0.409  41.271   7.950
 4515POPC   C4B18274   0.433  41.288   7.650
 4516POPC   NC318275   6.671  36.118   9.450
 4516POPC   PO418276   6.660  36.150   9.150
 4516POPC   GL118277   6.681  36.101   8.850
 4516POPC   GL218278   6.593  36.009   8.850
 4516POPC   C1A18279   6.606  36.137   8.550
 4516POPC   D2A18280   6.600  36.098   8.250
 4516POPC   C3A18281   6.616  36.086   7.950
 4516POPC   C4A18282   6.645  36.140   7.650
 4516POPC   C1B18283   6.507  35.985   8.550
 4516POPC   C2B18284   6.447  35.947   8.250
 4516POPC   C3B18285   6.452  35.976   7.950
 4516POPC   C4B18286   6.518  35.926   7.650
 4517POPC   NC318287  21.428  17.486   9.450
 4517POPC   PO418288  21.389  17.509   9.150
 4517POPC   GL118289  21.341  17.459   8.850
 4517POPC   GL218290  21.485  17.440   8.850
 4517POPC   C1A18291  21.408  17.480   8.550
 4517POPC   D2A18292  21.404  17.518   8.250
 4517POPC   C3A18293  21.342  17.458   7.950
 4517POPC   C4A18294  21.423  17.484   7.650
 4517POPC   C1B18295  21.602  17.416   8.550
 4517POPC   C2B18296  21.615  17.464   8.250
 4517POPC   C3B18297  21.667  17.479   7.950
 4517POPC   C4B18298  21.635  17.453   7.650
 4518POPC   NC318299  19.093  28.397   9.450
 4518POPC   PO418300  19.102  28.365   9.150
 4518POPC   GL118301  19.083  28.323   8.850
 4518POPC   GL218302  19.132  28.330   8.850
 4518POPC   C1A18303  19.058  28.337   8.550
 4518POPC   D2A18304  19.020  28.331   8.250
 4518POPC   C3A18305  19.057  28.375   7.950
 4518POPC   C4A18306  19.104  28.397   7.650
 4518POPC   C1B18307  19.230  28.253   8.550
 4518POPC   C2B18308  19.251  28.186   8.250
 4518POPC   C3B18309  19.211  28.205   7.950
 4518POPC   C4B18310  19.202  28.237   7.650
 4519POPC   NC318311   1.205  43.131   9.450
 4519POPC   PO418312   1.226  43.116   9.150
 4519POPC   GL118313   1.255  43.149   8.850
 4519POPC   GL218314   1.344  43.065   8.850
 4519POPC   C1A18315   1.245  43.113   8.550
 4519POPC   D2A18316   1.186  43.098   8.250
 4519POPC   C3A18317   1.251  43.133   7.950
 4519POPC   C4A18318   1.206  43.113   7.650
 4519POPC   C1B18319   1.376  42.964   8.550
 4519POPC   C2B18320   1.469  42.931   8.250
 4519POPC   C3B18321   1.457  43.007   7.950
 4519POPC   C4B18322   1.448  42.951   7.650
 4520POPC   NC318323  25.283   7.437   9.450
 4520POPC   PO418324  25.222   7.422   9.150
 4520POPC   GL118325  25.230   7.440   8.850
 4520POPC   GL218326  25.395   7.384   8.850
 4520POPC   C1A18327  25.315   7.440   8.550
 4520POPC   D2A18328  25.266   7.404   8.250
 4520POPC   C3A18329  25.286   7.386   7.950
 4520POPC   C4A18330  25.287   7.468   7.650
 4520POPC   C1B18331  25.554   7.390   8.550
 4520POPC   C2B18332  25.456   7.302   8.250
 4520POPC   C3B18333  25.461   7.348   7.950
 4520POPC   C4B18334  25.530   7.313   7.650
 4521POPC   NC318335  23.686   4.295   9.450
 4521POPC   PO418336  23.714   4.360   9.150
 4521POPC   GL118337  23.710   4.283   8.850
 4521POPC   GL218338  23.680   4.450   8.850
 4521POPC   C1A18339  23.752   4.331   8.550
 4521POPC   D2A18340  23.681   4.319   8.250
 4521POPC   C3A18341  23.698   4.270   7.950
 4521POPC   C4A18342  23.687   4.283   7.650
 4521POPC   C1B18343  23.767   4.556   8.550
 4521POPC   C2B18344  23.750   4.528   8.250
 4521POPC   C3B18345  23.699   4.602   7.950
 4521POPC   C4B18346  23.689   4.557   7.650
 4522POPC   NC318347  15.191  24.517   9.450
 4522POPC   PO418348  15.152  24.521   9.150
 4522POPC   GL118349  15.162  24.495   8.850
 4522POPC   GL218350  15.122  24.579   8.850
 4522POPC   C1A18351  15.143  24.522   8.550
 4522POPC   D2A18352  15.191  24.509   8.250
 4522POPC   C3A18353  15.195  24.487   7.950
 4522POPC   C4A18354  15.177  24.531   7.650
 4522POPC   C1B18355  14.948  24.691   8.550
 4522POPC   C2B18356  14.954  24.618   8.250
 4522POPC   C3B18357  14.936  24.596   7.950
 4522POPC   C4B18358  15.021  24.626   7.650
 4523POPC   NC318359  41.559   5.059   9.450
 4523POPC   PO418360  41.580   5.108   9.150
 4523POPC   GL118361  41.561   5.066   8.850
 4523POPC   GL218362  41.436   5.194   8.850
 4523POPC   C1A18363  41.512   5.118   8.550
 4523POPC   D2A18364  41.530   5.105   8.250
 4523POPC   C3A18365  41.605   5.064   7.950
 4523POPC   C4A18366  41.600   5.094   7.650
 4523POPC   C1B18367  41.347   5.239   8.550
 4523POPC   C2B18368  41.326   5.178   8.250
 4523POPC   C3B18369  41.379   5.249   7.950
 4523POPC   C4B18370  41.366   5.194   7.650
 4524POPC   NC318371  15.965  18.252   9.450
 4524POPC   PO418372  15.922  18.266   9.150
 4524POPC   GL118373  15.962  18.253   8.850
 4524POPC   GL218374  16.028  18.332   8.850
 4524POPC   C1A18375  15.951  18.278   8.550
 4524POPC   D2A18376  16.005  18.271   8.250
 4524POPC   C3A18377  15.936  18.240   7.950
 4524POPC   C4A18378  15.916  18.234   7.650
 4524POPC   C1B18379  16.079  18.527   8.550
 4524POPC   C2B18380  16.060  18.485   8.250
 4524POPC   C3B18381  16.073  18.465   7.950
 4524POPC   C4B18382  16.145  18.450   7.650
 4525POPC   NC318383  33.757  26.786   9.450
 4525POPC   PO418384  33.772  26.797   9.150
 4525POPC   GL118385  33.821  26.827   8.850
 4525POPC   GL218386  33.653  26.793   8.850
 4525POPC   C1A18387  33.760  26.812   8.550
 4525POPC   D2A18388  33.821  26.768   8.250
 4525POPC   C3A18389  33.797  26.822   7.950
 4525POPC   C4A18390  33.757  26.839   7.650
 4525POPC   C1B18391  33.593  26.771   8.550
 4525POPC   C2B18392  33.540  26.754   8.250
 4525POPC   C3B18393  33.561  26.817   7.950
 4525POPC   C4B18394  33.541  26.728   7.650
 4526POPC   NC318395   7.424  12.104   9.450
 4526POPC   PO418396   7.421  12.037   9.150
 4526POPC   GL118397   7.426  12.048   8.850
 4526POPC   GL218398   7.348  12.160   8.850
 4526POPC   C1A18399   7.377  12.030   8.550
 4526POPC   D2A18400   7.468  12.032   8.250
 4526POPC   C3A18401   7.424  12.112   7.950
 4526POPC   C4A18402   7.385  12.101   7.650
 4526POPC   C1B18403   7.206  12.244   8.550
 4526POPC   C2B18404   7.228  12.187   8.250
 4526POPC   C3B18405   7.215  12.247   7.950
 4526POPC   C4B18406   7.243  12.203   7.650
 4527POPC   NC318407  19.845  15.907   9.450
 4527POPC   PO418408  19.870  15.960   9.150
 4527POPC   GL118409  19.850  15.990   8.850
 4527POPC   GL218410  19.868  15.808   8.850
 4527POPC   C1A18411  19.863  15.973   8.550
 4527POPC   D2A18412  19.875  15.907   8.250
 4527POPC   C3A18413  19.850  15.963   7.950
 4527POPC   C4A18414  19.809  15.919   7.650
 4527POPC   C1B18415  19.890  15.697   8.550
 4527POPC   C2B18416  19.916  15.670   8.250
 4527POPC   C3B18417  19.880  15.720   7.950
 4527POPC   C4B18418  19.923  15.749   7.650
 4528POPC   NC318419   5.851  31.437   9.450
 4528POPC   PO418420   5.904  31.487   9.150
 4528POPC   GL118421   5.854  31.475   8.850
 4528POPC   GL218422   5.706  31.491   8.850
 4528POPC   C1A18423   5.864  31.499   8.550
 4528POPC   D2A18424   5.890  31.510   8.250
 4528POPC   C3A18425   5.905  31.430   7.950
 4528POPC   C4A18426   5.831  31.505   7.650
 4528POPC   C1B18427   5.629  31.536   8.550
 4528POPC   C2B18428   5.634  31.498   8.250
 4528POPC   C3B18429   5.674  31.525   7.950
 4528POPC   C4B18430   5.614  31.495   7.650
 4529POPC   NC318431  37.704  19.806   9.450
 4529POPC   PO418432  37.718  19.814   9.150
 4529POPC   GL118433  37.666  19.796   8.850
 4529POPC   GL218434  37.520  19.809   8.850
 4529POPC   C1A18435  37.729  19.857   8.550
 4529POPC   D2A18436  37.644  19.825   8.250
 4529POPC   C3A18437  37.728  19.859   7.950
 4529POPC   C4A18438  37.646  19.841   7.650
 4529POPC   C1B18439  37.437  19.877   8.550
 4529POPC   C2B18440  37.442  19.819   8.250
 4529POPC   C3B18441  37.445  19.832   7.950
 4529POPC   C4B18442  37.460  19.801   7.650
 4530POPC   NC318443  33.062  21.354   9.450
 4530POPC   PO418444  33.045  21.379   9.150
 4530POPC   GL118445  33.001  21.422   8.850
 4530POPC   GL218446  33.039  21.522   8.850
 4530POPC   C1A18447  32.985  21.393   8.550
 4530POPC   D2A18448  33.061  21.433   8.250
 4530POPC   C3A18449  33.010  21.401   7.950
 4530POPC   C4A18450  32.991  21.413   7.650
 4530POPC   C1B18451  33.010  21.631   8.550
 4530POPC   C2B18452  33.009  21.603   8.250
 4530POPC   C3B18453  32.972  21.608   7.950
 4530POPC   C4B18454  32.979  21.652   7.650
 4531POPC   NC318455  27.635  36.135   9.450
 4531POPC   PO418456  27.551  36.100   9.150
 4531POPC   GL118457  27.618  36.146   8.850
 4531POPC   GL218458  27.746  36.107   8.850
 4531POPC   C1A18459  27.620  36.113   8.550
 4531POPC   D2A18460  27.602  36.162   8.250
 4531POPC   C3A18461  27.547  36.086   7.950
 4531POPC   C4A18462  27.579  36.084   7.650
 4531POPC   C1B18463  27.867  36.066   8.550
 4531POPC   C2B18464  27.789  36.034   8.250
 4531POPC   C3B18465  27.836  35.980   7.950
 4531POPC   C4B18466  27.848  36.067   7.650
 4532POPC   NC318467  16.769   3.578   9.450
 4532POPC   PO418468  16.715   3.548   9.150
 4532POPC   GL118469  16.759   3.507   8.850
 4532POPC   GL218470  16.760   3.482   8.850
 4532POPC   C1A18471  16.733   3.551   8.550
 4532POPC   D2A18472  16.683   3.534   8.250
 4532POPC   C3A18473  16.690   3.572   7.950
 4532POPC   C4A18474  16.778   3.523   7.650
 4532POPC   C1B18475  16.921   3.333   8.550
 4532POPC   C2B18476  16.856   3.373   8.250
 4532POPC   C3B18477  16.882   3.355   7.950
 4532POPC   C4B18478  16.930   3.376   7.650
 4533POPC   NC318479  14.369  34.537   9.450
 4533POPC   PO418480  14.446  34.566   9.150
 4533POPC   GL118481  14.426  34.573   8.850
 4533POPC   GL218482  14.313  34.442   8.850
 4533POPC   C1A18483  14.447  34.623   8.550
 4533POPC   D2A18484  14.398  34.552   8.250
 4533POPC   C3A18485  14.377  34.623   7.950
 4533POPC   C4A18486  14.378  34.528   7.650
 4533POPC   C1B18487  14.359  34.316   8.550
 4533POPC   C2B18488  14.355  34.297   8.250
 4533POPC   C3B18489  14.357  34.338   7.950
 4533POPC   C4B18490  14.341  34.320   7.650
 4534POPC   NC318491  37.670  22.209   9.450
 4534POPC   PO418492  37.716  22.171   9.150
 4534POPC   GL118493  37.729  22.132   8.850
 4534POPC   GL218494  37.617  22.305   8.850
 4534POPC   C1A18495  37.636  22.155   8.550
 4534POPC   D2A18496  37.643  22.114   8.250
 4534POPC   C3A18497  37.727  22.176   7.950
 4534POPC   C4A18498  37.710  22.119   7.650
 4534POPC   C1B18499  37.564  22.389   8.550
 4534POPC   C2B18500  37.599  22.411   8.250
 4534POPC   C3B18501  37.609  22.411   7.950
 4534POPC   C4B18502  37.595  22.368   7.650
 4535POPC   NC318503  20.577  12.810   9.450
 4535POPC   PO418504  20.581  12.849   9.150
 4535POPC   GL118505  20.621  12.896   8.850
 4535POPC   GL218506  20.472  12.811   8.850
 4535POPC   C1A18507  20.597  12.849   8.550
 4535POPC   D2A18508  20.626  12.863   8.250
 4535POPC   C3A18509  20.659  12.845   7.950
 4535POPC   C4A18510  20.612  12.836   7.650
 4535POPC   C1B18511  20.371  12.748   8.550
 4535POPC   C2B18512  20.406  12.737   8.250
 4535POPC   C3B18513  20.416  12.742   7.950
 4535POPC   C4B18514  20.372  12.730   7.650
 4536POPC   NC318515  43.120  33.054   9.450
 4536POPC   PO418516  43.128  33.060   9.150
 4536POPC   GL118517  43.131  33.010   8.850
 4536POPC   GL218518  43.205  32.989   8.850
 4536POPC   C1A18519  43.152  33.012   8.550
 4536POPC   D2A18520  43.078  33.032   8.250
 4536POPC   C3A18521  43.113  32.983   7.950
 4536POPC   C4A18522  43.159  33.043   7.650
 4536POPC   C1B18523  43.296  32.866   8.550
 4536POPC   C2B18524  43.351  32.884   8.250
 4536POPC   C3B18525  43.377  32.910   7.950
 4536POPC   C4B18526  43.328  32.924   7.650
 4537POPC   NC318527  29.897  19.788   9.450
 4537POPC   PO418528  29.941  19.825   9.150
 4537POPC   GL118529  29.887  19.817   8.850
 4537POPC   GL218530  29.784  19.777   8.850
 4537POPC   C1A18531  29.903  19.848   8.550
 4537POPC   D2A18532  29.923  19.872   8.250
 4537POPC   C3A18533  29.923  19.845   7.950
 4537POPC   C4A18534  29.921  19.859   7.650
 4537POPC   C1B18535  29.710  19.839   8.550
 4537POPC   C2B18536  29.695  19.820   8.250
 4537POPC   C3B18537  29.634  19.834   7.950
 4537POPC   C4B18538  29.696  19.795   7.650
 4538POPC   NC318539  36.080   3.550   9.450
 4538POPC   PO418540  36.129   3.566   9.150
 4538POPC   GL118541  36.163   3.498   8.850
 4538POPC   GL218542  35.984   3.461   8.850
 4538POPC   C1A18543  36.152   3.539   8.550
 4538POPC   D2A18544  36.149   3.538   8.250
 4538POPC   C3A18545  36.164   3.546   7.950
 4538POPC   C4A18546  36.150   3.566   7.650
 4538POPC   C1B18547  35.902   3.453   8.550
 4538POPC   C2B18548  35.882   3.413   8.250
 4538POPC   C3B18549  35.889   3.402   7.950
 4538POPC   C4B18550  35.906   3.422   7.650
 4539POPC   NC318551  39.968   2.726   9.450
 4539POPC   PO418552  39.995   2.774   9.150
 4539POPC   GL118553  40.024   2.732   8.850
 4539POPC   GL218554  40.114   2.770   8.850
 4539POPC   C1A18555  39.958   2.798   8.550
 4539POPC   D2A18556  39.967   2.775   8.250
 4539POPC   C3A18557  40.000   2.780   7.950
 4539POPC   C4A18558  40.039   2.718   7.650
 4539POPC   C1B18559  40.278   2.777   8.550
 4539POPC   C2B18560  40.277   2.745   8.250
 4539POPC   C3B18561  40.305   2.766   7.950
 4539POPC   C4B18562  40.234   2.761   7.650
 4540POPC   NC318563  33.014  36.913   9.450
 4540POPC   PO418564  33.013  36.855   9.150
 4540POPC   GL118565  32.992  36.940   8.850
 4540POPC   GL218566  33.059  37.066   8.850
 4540POPC   C1A18567  33.008  36.928   8.550
 4540POPC   D2A18568  33.015  36.912   8.250
 4540POPC   C3A18569  32.988  36.862   7.950
 4540POPC   C4A18570  32.984  36.934   7.650
 4540POPC   C1B18571  33.066  37.161   8.550
 4540POPC   C2B18572  33.133  37.110   8.250
 4540POPC   C3B18573  33.133  37.093   7.950
 4540POPC   C4B18574  33.074  37.154   7.650
 4541POPC   NC318575   7.457  36.912   9.450
 4541POPC   PO418576   7.418  36.923   9.150
 4541POPC   GL118577   7.423  36.914   8.850
 4541POPC   GL218578   7.393  36.835   8.850
 4541POPC   C1A18579   7.391  36.890   8.550
 4541POPC   D2A18580   7.378  36.855   8.250
 4541POPC   C3A18581   7.395  36.930   7.950
 4541POPC   C4A18582   7.436  36.926   7.650
 4541POPC   C1B18583   7.264  36.638   8.550
 4541POPC   C2B18584   7.316  36.660   8.250
 4541POPC   C3B18585   7.357  36.725   7.950
 4541POPC   C4B18586   7.318  36.715   7.650
 4542POPC   NC318587  39.261   4.312   9.450
 4542POPC   PO418588  39.183   4.336   9.150
 4542POPC   GL118589  39.228   4.351   8.850
 4542POPC   GL218590  39.137   4.268   8.850
 4542POPC   C1A18591  39.226   4.355   8.550
 4542POPC   D2A18592  39.279   4.294   8.250
 4542POPC   C3A18593  39.250   4.308   7.950
 4542POPC   C4A18594  39.212   4.347   7.650
 4542POPC   C1B18595  39.054   4.154   8.550
 4542POPC   C2B18596  39.004   4.126   8.250
 4542POPC   C3B18597  39.064   4.209   7.950
 4542POPC   C4B18598  38.988   4.200   7.650
 4543POPC   NC318599   0.396  22.132   9.450
 4543POPC   PO418600   0.437  22.131   9.150
 4543POPC   GL118601   0.396  22.120   8.850
 4543POPC   GL218602   0.438  22.255   8.850
 4543POPC   C1A18603   0.426  22.200   8.550
 4543POPC   D2A18604   0.466  22.202   8.250
 4543POPC   C3A18605   0.442  22.120   7.950
 4543POPC   C4A18606   0.418  22.158   7.650
 4543POPC   C1B18607   0.405  22.384   8.550
 4543POPC   C2B18608   0.457  22.410   8.250
 4543POPC   C3B18609   0.485  22.402   7.950
 4543POPC   C4B18610   0.471  22.416   7.650
 4544POPC   NC318611   5.868  13.646   9.450
 4544POPC   PO418612   5.829  13.672   9.150
 4544POPC   GL118613   5.888  13.642   8.850
 4544POPC   GL218614   5.796  13.554   8.850
 4544POPC   C1A18615   5.867  13.664   8.550
 4544POPC   D2A18616   5.872  13.613   8.250
 4544POPC   C3A18617   5.848  13.651   7.950
 4544POPC   C4A18618   5.902  13.629   7.650
 4544POPC   C1B18619   5.690  13.394   8.550
 4544POPC   C2B18620   5.740  13.392   8.250
 4544POPC   C3B18621   5.709  13.469   7.950
 4544POPC   C4B18622   5.737  13.475   7.650
 4545POPC   NC318623  16.753  17.490   9.450
 4545POPC   PO418624  16.776  17.487   9.150
 4545POPC   GL118625  16.734  17.457   8.850
 4545POPC   GL218626  16.827  17.634   8.850
 4545POPC   C1A18627  16.690  17.532   8.550
 4545POPC   D2A18628  16.750  17.472   8.250
 4545POPC   C3A18629  16.706  17.510   7.950
 4545POPC   C4A18630  16.720  17.459   7.650
 4545POPC   C1B18631  16.931  17.748   8.550
 4545POPC   C2B18632  16.879  17.661   8.250
 4545POPC   C3B18633  16.860  17.696   7.950
 4545POPC   C4B18634  16.893  17.668   7.650
 4546POPC   NC318635   0.413  24.499   9.450
 4546POPC   PO418636   0.412  24.468   9.150
 4546POPC   GL118637   0.453  24.507   8.850
 4546POPC   GL218638   0.388  24.568   8.850
 4546POPC   C1A18639   0.454  24.482   8.550
 4546POPC   D2A18640   0.485  24.481   8.250
 4546POPC   C3A18641   0.449  24.463   7.950
 4546POPC   C4A18642   0.447  24.470   7.650
 4546POPC   C1B18643   0.270  24.679   8.550
 4546POPC   C2B18644   0.276  24.685   8.250
 4546POPC   C3B18645   0.233  24.709   7.950
 4546POPC   C4B18646   0.272  24.716   7.650
 4547POPC   NC318647  13.581  41.587   9.450
 4547POPC   PO418648  13.652  41.555   9.150
 4547POPC   GL118649  13.628  41.514   8.850
 4547POPC   GL218650  13.727  41.480   8.850
 4547POPC   C1A18651  13.649  41.528   8.550
 4547POPC   D2A18652  13.619  41.554   8.250
 4547POPC   C3A18653  13.631  41.581   7.950
 4547POPC   C4A18654  13.622  41.521   7.650
 4547POPC   C1B18655  13.852  41.441   8.550
 4547POPC   C2B18656  13.824  41.444   8.250
 4547POPC   C3B18657  13.831  41.520   7.950
 4547POPC   C4B18658  13.820  41.451   7.650
 4548POPC   NC318659   2.033  35.326   9.450
 4548POPC   PO418660   1.955  35.311   9.150
 4548POPC   GL118661   1.967  35.387   8.850
 4548POPC   GL218662   1.938  35.500   8.850
 4548POPC   C1A18663   1.959  35.395   8.550
 4548POPC   D2A18664   1.941  35.340   8.250
 4548POPC   C3A18665   1.943  35.382   7.950
 4548POPC   C4A18666   1.956  35.394   7.650
 4548POPC   C1B18667   1.949  35.645   8.550
 4548POPC   C2B18668   1.998  35.549   8.250
 4548POPC   C3B18669   1.962  35.647   7.950
 4548POPC   C4B18670   1.906  35.564   7.650
 4549POPC   NC318671  42.369   8.183   9.450
 4549POPC   PO418672  42.311   8.170   9.150
 4549POPC   GL118673  42.306   8.154   8.850
 4549POPC   GL218674  42.445   8.140   8.850
 4549POPC   C1A18675  42.317   8.200   8.550
 4549POPC   D2A18676  42.346   8.205   8.250
 4549POPC   C3A18677  42.382   8.168   7.950
 4549POPC   C4A18678  42.323   8.181   7.650
 4549POPC   C1B18679  42.530   8.146   8.550
 4549POPC   C2B18680  42.528   8.117   8.250
 4549POPC   C3B18681  42.526   8.151   7.950
 4549POPC   C4B18682  42.607   8.122   7.650
 4550POPC   NC318683   6.679   5.899   9.450
 4550POPC   PO418684   6.622   5.899   9.150
 4550POPC   GL118685   6.667   5.865   8.850
 4550POPC   GL218686   6.517   5.816   8.850
 4550POPC   C1A18687   6.688   5.889   8.550
 4550POPC   D2A18688   6.652   5.886   8.250
 4550POPC   C3A18689   6.664   5.865   7.950
 4550POPC   C4A18690   6.682   5.864   7.650
 4550POPC   C1B18691   6.453   5.662   8.550
 4550POPC   C2B18692   6.493   5.698   8.250
 4550POPC   C3B18693   6.494   5.725   7.950
 4550POPC   C4B18694   6.459   5.659   7.650
 4551POPC   NC318695  18.292  15.219   9.450
 4551POPC   PO418696  18.275  15.147   9.150
 4551POPC   GL118697  18.293  15.193   8.850
 4551POPC   GL218698  18.239  15.053   8.850
 4551POPC   C1A18699  18.251  15.195   8.550
 4551POPC   D2A18700  18.292  15.192   8.250
 4551POPC   C3A18701  18.259  15.173   7.950
 4551POPC   C4A18702  18.326  15.203   7.650
 4551POPC   C1B18703  18.198  14.974   8.550
 4551POPC   C2B18704  18.132  14.982   8.250
 4551POPC   C3B18705  18.131  15.003   7.950
 4551POPC   C4B18706  18.137  14.913   7.650
 4552POPC   NC318707  36.157  22.969   9.450
 4552POPC   PO418708  36.133  22.929   9.150
 4552POPC   GL118709  36.139  22.904   8.850
 4552POPC   GL218710  36.233  22.831   8.850
 4552POPC   C1A18711  36.091  22.971   8.550
 4552POPC   D2A18712  36.176  22.915   8.250
 4552POPC   C3A18713  36.114  22.972   7.950
 4552POPC   C4A18714  36.123  22.918   7.650
 4552POPC   C1B18715  36.292  22.724   8.550
 4552POPC   C2B18716  36.252  22.741   8.250
 4552POPC   C3B18717  36.249  22.786   7.950
 4552POPC   C4B18718  36.270  22.718   7.650
 4553POPC   NC318719  35.324  19.044   9.450
 4553POPC   PO418720  35.355  19.014   9.150
 4553POPC   GL118721  35.338  19.011   8.850
 4553POPC   GL218722  35.446  19.136   8.850
 4553POPC   C1A18723  35.369  19.102   8.550
 4553POPC   D2A18724  35.365  19.067   8.250
 4553POPC   C3A18725  35.386  19.019   7.950
 4553POPC   C4A18726  35.380  19.024   7.650
 4553POPC   C1B18727  35.537  19.255   8.550
 4553POPC   C2B18728  35.529  19.214   8.250
 4553POPC   C3B18729  35.563  19.237   7.950
 4553POPC   C4B18730  35.590  19.263   7.650
 4554POPC   NC318731  39.244  31.429   9.450
 4554POPC   PO418732  39.227  31.442   9.150
 4554POPC   GL118733  39.244  31.429   8.850
 4554POPC   GL218734  39.355  31.403   8.850
 4554POPC   C1A18735  39.234  31.472   8.550
 4554POPC   D2A18736  39.256  31.504   8.250
 4554POPC   C3A18737  39.248  31.477   7.950
 4554POPC   C4A18738  39.238  31.496   7.650
 4554POPC   C1B18739  39.463  31.386   8.550
 4554POPC   C2B18740  39.470  31.452   8.250
 4554POPC   C3B18741  39.512  31.387   7.950
 4554POPC   C4B18742  39.479  31.430   7.650
 4555POPC   NC318743  31.449   5.854   9.450
 4555POPC   PO418744  31.518   5.855   9.150
 4555POPC   GL118745  31.506   5.820   8.850
 4555POPC   GL218746  31.527   5.971   8.850
 4555POPC   C1A18747  31.429   5.865   8.550
 4555POPC   D2A18748  31.453   5.873   8.250
 4555POPC   C3A18749  31.505   5.821   7.950
 4555POPC   C4A18750  31.473   5.859   7.650
 4555POPC   C1B18751  31.554   6.130   8.550
 4555POPC   C2B18752  31.554   6.078   8.250
 4555POPC   C3B18753  31.497   6.101   7.950
 4555POPC   C4B18754  31.539   6.162   7.650
 4556POPC   NC318755   6.687  24.526   9.450
 4556POPC   PO418756   6.679  24.487   9.150
 4556POPC   GL118757   6.679  24.442   8.850
 4556POPC   GL218758   6.625  24.577   8.850
 4556POPC   C1A18759   6.690  24.457   8.550
 4556POPC   D2A18760   6.657  24.471   8.250
 4556POPC   C3A18761   6.649  24.516   7.950
 4556POPC   C4A18762   6.675  24.503   7.650
 4556POPC   C1B18763   6.619  24.770   8.550
 4556POPC   C2B18764   6.574  24.710   8.250
 4556POPC   C3B18765   6.631  24.740   7.950
 4556POPC   C4B18766   6.591  24.715   7.650
 4557POPC   NC318767  14.365  43.146   9.450
 4557POPC   PO418768  14.395  43.120   9.150
 4557POPC   GL118769  14.443  43.084   8.850
 4557POPC   GL218770  14.480  43.182   8.850
 4557POPC   C1A18771  14.391  43.145   8.550
 4557POPC   D2A18772  14.434  43.100   8.250
 4557POPC   C3A18773  14.446  43.158   7.950
 4557POPC   C4A18774  14.420  43.122   7.650
 4557POPC   C1B18775  14.533  43.266   8.550
 4557POPC   C2B18776  14.529  43.334   8.250
 4557POPC   C3B18777  14.544  43.278   7.950
 4557POPC   C4B18778  14.506  43.316   7.650
 4558POPC   NC318779  15.184  19.852   9.450
 4558POPC   PO418780  15.130  19.835   9.150
 4558POPC   GL118781  15.142  19.822   8.850
 4558POPC   GL218782  15.153  19.982   8.850
 4558POPC   C1A18783  15.210  19.814   8.550
 4558POPC   D2A18784  15.204  19.863   8.250
 4558POPC   C3A18785  15.131  19.854   7.950
 4558POPC   C4A18786  15.150  19.829   7.650
 4558POPC   C1B18787  15.080  20.042   8.550
 4558POPC   C2B18788  15.126  20.040   8.250
 4558POPC   C3B18789  15.128  20.019   7.950
 4558POPC   C4B18790  15.059  20.056   7.650
 4559POPC   NC318791   0.421  14.378   9.450
 4559POPC   PO418792   0.473  14.435   9.150
 4559POPC   GL118793   0.406  14.359   8.850
 4559POPC   GL218794   0.404  14.333   8.850
 4559POPC   C1A18795   0.486  14.426   8.550
 4559POPC   D2A18796   0.392  14.433   8.250
 4559POPC   C3A18797   0.393  14.392   7.950
 4559POPC   C4A18798   0.435  14.408   7.650
 4559POPC   C1B18799   0.308  14.212   8.550
 4559POPC   C2B18800   0.336  14.216   8.250
 4559POPC   C3B18801   0.270  14.196   7.950
 4559POPC   C4B18802   0.311  14.164   7.650
 4560POPC   NC318803  12.822  28.412   9.450
 4560POPC   PO418804  12.832  28.390   9.150
 4560POPC   GL118805  12.849  28.409   8.850
 4560POPC   GL218806  12.843  28.474   8.850
 4560POPC   C1A18807  12.806  28.352   8.550
 4560POPC   D2A18808  12.852  28.335   8.250
 4560POPC   C3A18809  12.817  28.355   7.950
 4560POPC   C4A18810  12.843  28.357   7.650
 4560POPC   C1B18811  12.881  28.594   8.550
 4560POPC   C2B18812  12.865  28.646   8.250
 4560POPC   C3B18813  12.877  28.636   7.950
 4560POPC   C4B18814  12.841  28.586   7.650
 4561POPC   NC318815   1.239   3.503   9.450
 4561POPC   PO418816   1.168   3.567   9.150
 4561POPC   GL118817   1.248   3.589   8.850
 4561POPC   GL218818   1.142   3.490   8.850
 4561POPC   C1A18819   1.208   3.589   8.550
 4561POPC   D2A18820   1.206   3.492   8.250
 4561POPC   C3A18821   1.216   3.566   7.950
 4561POPC   C4A18822   1.227   3.570   7.650
 4561POPC   C1B18823   1.042   3.343   8.550
 4561POPC   C2B18824   0.985   3.335   8.250
 4561POPC   C3B18825   1.069   3.356   7.950
 4561POPC   C4B18826   1.049   3.334   7.650
 4562POPC   NC318827  17.509  28.394   9.450
 4562POPC   PO418828  17.511  28.360   9.150
 4562POPC   GL118829  17.482  28.375   8.850
 4562POPC   GL218830  17.531  28.288   8.850
 4562POPC   C1A18831  17.483  28.397   8.550
 4562POPC   D2A18832  17.536  28.399   8.250
 4562POPC   C3A18833  17.526  28.367   7.950
 4562POPC   C4A18834  17.467  28.399   7.650
 4562POPC   C1B18835  17.652  28.202   8.550
 4562POPC   C2B18836  17.658  28.190   8.250
 4562POPC   C3B18837  17.660  28.152   7.950
 4562POPC   C4B18838  17.665  28.158   7.650
 4563POPC   NC318839   5.847   2.759   9.450
 4563POPC   PO418840   5.830   2.746   9.150
 4563POPC   GL118841   5.899   2.809   8.850
 4563POPC   GL218842   5.761   2.774   8.850
 4563POPC   C1A18843   5.902   2.786   8.550
 4563POPC   D2A18844   5.879   2.792   8.250
 4563POPC   C3A18845   5.827   2.796   7.950
 4563POPC   C4A18846   5.915   2.753   7.650
 4563POPC   C1B18847   5.575   2.737   8.550
 4563POPC   C2B18848   5.620   2.677   8.250
 4563POPC   C3B18849   5.637   2.715   7.950
 4563POPC   C4B18850   5.583   2.763   7.650
 4564POPC   NC318851  44.702  16.771   9.450
 4564POPC   PO418852  44.652  16.710   9.150
 4564POPC   GL118853  44.704  16.691   8.850
 4564POPC   GL218854  44.613  16.846   8.850
 4564POPC   C1A18855  44.658  16.695   8.550
 4564POPC   D2A18856  44.652  16.708   8.250
 4564POPC   C3A18857  44.670  16.705   7.950
 4564POPC   C4A18858  44.617  16.685   7.650
 4564POPC   C1B18859  44.615  17.020   8.550
 4564POPC   C2B18860  44.705  16.989   8.250
 4564POPC   C3B18861  44.668  16.933   7.950
 4564POPC   C4B18862  44.701  17.016   7.650
 4565POPC   NC318863  32.202  15.163   9.450
 4565POPC   PO418864  32.232  15.185   9.150
 4565POPC   GL118865  32.252  15.152   8.850
 4565POPC   GL218866  32.381  15.184   8.850
 4565POPC   C1A18867  32.248  15.147   8.550
 4565POPC   D2A18868  32.206  15.195   8.250
 4565POPC   C3A18869  32.220  15.180   7.950
 4565POPC   C4A18870  32.265  15.202   7.650
 4565POPC   C1B18871  32.456  15.153   8.550
 4565POPC   C2B18872  32.526  15.095   8.250
 4565POPC   C3B18873  32.540  15.144   7.950
 4565POPC   C4B18874  32.521  15.087   7.650
 4566POPC   NC318875   7.421  31.424   9.450
 4566POPC   PO418876   7.372  31.487   9.150
 4566POPC   GL118877   7.466  31.435   8.850
 4566POPC   GL218878   7.408  31.597   8.850
 4566POPC   C1A18879   7.416  31.428   8.550
 4566POPC   D2A18880   7.393  31.446   8.250
 4566POPC   C3A18881   7.430  31.424   7.950
 4566POPC   C4A18882   7.469  31.452   7.650
 4566POPC   C1B18883   7.356  31.700   8.550
 4566POPC   C2B18884   7.321  31.673   8.250
 4566POPC   C3B18885   7.310  31.749   7.950
 4566POPC   C4B18886   7.289  31.715   7.650
 4567POPC   NC318887  19.076   8.186   9.450
 4567POPC   PO418888  19.093   8.200   9.150
 4567POPC   GL118889  19.098   8.218   8.850
 4567POPC   GL218890  19.108   8.281   8.850
 4567POPC   C1A18891  19.053   8.226   8.550
 4567POPC   D2A18892  19.084   8.242   8.250
 4567POPC   C3A18893  19.018   8.189   7.950
 4567POPC   C4A18894  19.051   8.205   7.650
 4567POPC   C1B18895  19.159   8.388   8.550
 4567POPC   C2B18896  19.125   8.441   8.250
 4567POPC   C3B18897  19.136   8.431   7.950
 4567POPC   C4B18898  19.109   8.437   7.650
 4568POPC   NC318899  32.242   4.305   9.450
 4568POPC   PO418900  32.271   4.349   9.150
 4568POPC   GL118901  32.208   4.276   8.850
 4568POPC   GL218902  32.337   4.447   8.850
 4568POPC   C1A18903  32.247   4.316   8.550
 4568POPC   D2A18904  32.255   4.302   8.250
 4568POPC   C3A18905  32.207   4.363   7.950
 4568POPC   C4A18906  32.211   4.271   7.650
 4568POPC   C1B18907  32.336   4.570   8.550
 4568POPC   C2B18908  32.386   4.502   8.250
 4568POPC   C3B18909  32.391   4.511   7.950
 4568POPC   C4B18910  32.375   4.495   7.650
 4569POPC   NC318911  35.330  15.156   9.450
 4569POPC   PO418912  35.320  15.194   9.150
 4569POPC   GL118913  35.332  15.183   8.850
 4569POPC   GL218914  35.427  15.064   8.850
 4569POPC   C1A18915  35.309  15.217   8.550
 4569POPC   D2A18916  35.346  15.167   8.250
 4569POPC   C3A18917  35.337  15.133   7.950
 4569POPC   C4A18918  35.352  15.156   7.650
 4569POPC   C1B18919  35.416  14.927   8.550
 4569POPC   C2B18920  35.481  14.978   8.250
 4569POPC   C3B18921  35.454  14.968   7.950
 4569POPC   C4B18922  35.427  14.952   7.650
 4570POPC   NC318923   6.671  16.730   9.450
 4570POPC   PO418924   6.601  16.723   9.150
 4570POPC   GL118925   6.671  16.704   8.850
 4570POPC   GL218926   6.691  16.826   8.850
 4570POPC   C1A18927   6.678  16.726   8.550
 4570POPC   D2A18928   6.673  16.778   8.250
 4570POPC   C3A18929   6.649  16.719   7.950
 4570POPC   C4A18930   6.681  16.738   7.650
 4570POPC   C1B18931   6.719  16.930   8.550
 4570POPC   C2B18932   6.768  16.922   8.250
 4570POPC   C3B18933   6.724  16.969   7.950
 4570POPC   C4B18934   6.730  16.947   7.650
 4571POPC   NC318935  26.052   0.411   9.450
 4571POPC   PO418936  26.088   0.414   9.150
 4571POPC   GL118937  26.032   0.460   8.850
 4571POPC   GL218938  25.947   0.407   8.850
 4571POPC   C1A18939  26.091   0.430   8.550
 4571POPC   D2A18940  26.012   0.399   8.250
 4571POPC   C3A18941  25.996   0.445   7.950
 4571POPC   C4A18942  26.017   0.452   7.650
 4571POPC   C1B18943  25.877   0.345   8.550
 4571POPC   C2B18944  25.822   0.341   8.250
 4571POPC   C3B18945  25.843   0.262   7.950
 4571POPC   C4B18946  25.864   0.302   7.650
 4572POPC   NC318947  20.588   9.748   9.450
 4572POPC   PO418948  20.624   9.705   9.150
 4572POPC   GL118949  20.566   9.710   8.850
 4572POPC   GL218950  20.660   9.841   8.850
 4572POPC   C1A18951  20.607   9.702   8.550
 4572POPC   D2A18952  20.579   9.749   8.250
 4572POPC   C3A18953  20.638   9.769   7.950
 4572POPC   C4A18954  20.653   9.734   7.650
 4572POPC   C1B18955  20.803   9.933   8.550
 4572POPC   C2B18956  20.849   9.939   8.250
 4572POPC   C3B18957  20.768   9.912   7.950
 4572POPC   C4B18958  20.837   9.932   7.650
 4573POPC   NC318959  23.751  25.246   9.450
 4573POPC   PO418960  23.730  25.280   9.150
 4573POPC   GL118961  23.725  25.284   8.850
 4573POPC   GL218962  23.744  25.400   8.850
 4573POPC   C1A18963  23.744  25.307   8.550
 4573POPC   D2A18964  23.679  25.285   8.250
 4573POPC   C3A18965  23.755  25.276   7.950
 4573POPC   C4A18966  23.719  25.237   7.650
 4573POPC   C1B18967  23.711  25.536   8.550
 4573POPC   C2B18968  23.700  25.556   8.250
 4573POPC   C3B18969  23.689  25.475   7.950
 4573POPC   C4B18970  23.733  25.495   7.650
 4574POPC   NC318971  43.147  29.878   9.450
 4574POPC   PO418972  43.106  29.920   9.150
 4574POPC   GL118973  43.094  29.920   8.850
 4574POPC   GL218974  42.957  29.907   8.850
 4574POPC   C1A18975  43.060  29.887   8.550
 4574POPC   D2A18976  43.066  29.958   8.250
 4574POPC   C3A18977  43.097  29.891   7.950
 4574POPC   C4A18978  43.093  29.909   7.650
 4574POPC   C1B18979  42.900  29.891   8.550
 4574POPC   C2B18980  42.879  29.943   8.250
 4574POPC   C3B18981  42.836  29.879   7.950
 4574POPC   C4B18982  42.835  29.876   7.650
 4575POPC   NC318983   1.229   0.487   9.450
 4575POPC   PO418984   1.239   0.403   9.150
 4575POPC   GL118985   1.186   0.425   8.850
 4575POPC   GL218986   1.257   0.493   8.850
 4575POPC   C1A18987   1.230   0.441   8.550
 4575POPC   D2A18988   1.247   0.412   8.250
 4575POPC   C3A18989   1.168   0.480   7.950
 4575POPC   C4A18990   1.169   0.428   7.650
 4575POPC   C1B18991   1.345   0.670   8.550
 4575POPC   C2B18992   1.351   0.603   8.250
 4575POPC   C3B18993   1.345   0.613   7.950
 4575POPC   C4B18994   1.393   0.669   7.650
 4576POPC   NC318995   8.176  36.139   9.450
 4576POPC   PO418996   8.186  36.109   9.150
 4576POPC   GL118997   8.198  36.147   8.850
 4576POPC   GL218998   8.105  36.275   8.850
 4576POPC   C1A18999   8.222  36.154   8.550
 4576POPC   D2A19000   8.221  36.146   8.250
 4576POPC   C3A19001   8.214  36.120   7.950
 4576POPC   C4A19002   8.223  36.089   7.650
 4576POPC   C1B19003   8.035  36.329   8.550
 4576POPC   C2B19004   8.077  36.316   8.250
 4576POPC   C3B19005   8.058  36.298   7.950
 4576POPC   C4B19006   8.048  36.367   7.650
 4577POPC   NC319007   5.102  12.085   9.450
 4577POPC   PO419008   5.070  12.083   9.150
 4577POPC   GL119009   5.127  12.078   8.850
 4577POPC   GL219010   5.211  12.106   8.850
 4577POPC   C1A19011   5.067  12.072   8.550
 4577POPC   D2A19012   5.142  12.077   8.250
 4577POPC   C3A19013   5.064  12.099   7.950
 4577POPC   C4A19014   5.050  12.120   7.650
 4577POPC   C1B19015   5.291  12.174   8.550
 4577POPC   C2B19016   5.299  12.184   8.250
 4577POPC   C3B19017   5.338  12.143   7.950
 4577POPC   C4B19018   5.370  12.183   7.650
 4578POPC   NC319019  32.202  22.962   9.450
 4578POPC   PO419020  32.294  22.950   9.150
 4578POPC   GL119021  32.233  22.920   8.850
 4578POPC   GL219022  32.227  23.073   8.850
 4578POPC   C1A19023  32.249  22.894   8.550
 4578POPC   D2A19024  32.257  22.967   8.250
 4578POPC   C3A19025  32.213  22.963   7.950
 4578POPC   C4A19026  32.228  22.973   7.650
 4578POPC   C1B19027  32.295  23.230   8.550
 4578POPC   C2B19028  32.280  23.149   8.250
 4578POPC   C3B19029  32.233  23.216   7.950
 4578POPC   C4B19030  32.292  23.208   7.650
 4579POPC   NC319031   6.688   6.630   9.450
 4579POPC   PO419032   6.656   6.600   9.150
 4579POPC   GL119033   6.678   6.637   8.850
 4579POPC   GL219034   6.719   6.739   8.850
 4579POPC   C1A19035   6.653   6.627   8.550
 4579POPC   D2A19036   6.612   6.640   8.250
 4579POPC   C3A19037   6.600   6.624   7.950
 4579POPC   C4A19038   6.675   6.599   7.650
 4579POPC   C1B19039   6.811   6.850   8.550
 4579POPC   C2B19040   6.803   6.812   8.250
 4579POPC   C3B19041   6.816   6.839   7.950
 4579POPC   C4B19042   6.822   6.824   7.650
 4580POPC   NC319043  38.441  11.295   9.450
 4580POPC   PO419044  38.437  11.302   9.150
 4580POPC   GL119045  38.486  11.309   8.850
 4580POPC   GL219046  38.366  11.382   8.850
 4580POPC   C1A19047  38.463  11.262   8.550
 4580POPC   D2A19048  38.494  11.330   8.250
 4580POPC   C3A19049  38.431  11.283   7.950
 4580POPC   C4A19050  38.447  11.347   7.650
 4580POPC   C1B19051  38.333  11.446   8.550
 4580POPC   C2B19052  38.319  11.450   8.250
 4580POPC   C3B19053  38.284  11.537   7.950
 4580POPC   C4B19054  38.304  11.472   7.650
 4581POPC   NC319055   2.769  11.268   9.450
 4581POPC   PO419056   2.740  11.258   9.150
 4581POPC   GL119057   2.733  11.317   8.850
 4581POPC   GL219058   2.904  11.307   8.850
 4581POPC   C1A19059   2.806  11.291   8.550
 4581POPC   D2A19060   2.771  11.340   8.250
 4581POPC   C3A19061   2.751  11.329   7.950
 4581POPC   C4A19062   2.730  11.346   7.650
 4581POPC   C1B19063   3.016  11.431   8.550
 4581POPC   C2B19064   3.002  11.351   8.250
 4581POPC   C3B19065   2.978  11.408   7.950
 4581POPC   C4B19066   2.962  11.337   7.650
 4582POPC   NC319067  36.876   8.924   9.450
 4582POPC   PO419068  36.886   8.963   9.150
 4582POPC   GL119069  36.909   8.948   8.850
 4582POPC   GL219070  36.897   8.847   8.850
 4582POPC   C1A19071  36.859   9.020   8.550
 4582POPC   D2A19072  36.862   8.933   8.250
 4582POPC   C3A19073  36.938   9.000   7.950
 4582POPC   C4A19074  36.889   8.931   7.650
 4582POPC   C1B19075  36.862   8.764   8.550
 4582POPC   C2B19076  36.832   8.720   8.250
 4582POPC   C3B19077  36.833   8.685   7.950
 4582POPC   C4B19078  36.838   8.735   7.650
 4583POPC   NC319079  12.076   8.159   9.450
 4583POPC   PO419080  12.070   8.224   9.150
 4583POPC   GL119081  12.074   8.149   8.850
 4583POPC   GL219082  12.101   8.065   8.850
 4583POPC   C1A19083  12.086   8.182   8.550
 4583POPC   D2A19084  12.122   8.204   8.250
 4583POPC   C3A19085  12.051   8.149   7.950
 4583POPC   C4A19086  12.040   8.236   7.650
 4583POPC   C1B19087  12.080   7.981   8.550
 4583POPC   C2B19088  12.026   7.901   8.250
 4583POPC   C3B19089  12.073   7.902   7.950
 4583POPC   C4B19090  12.027   7.950   7.650
 4584POPC   NC319091   5.062  25.221   9.450
 4584POPC   PO419092   5.044  25.234   9.150
 4584POPC   GL119093   5.109  25.314   8.850
 4584POPC   GL219094   5.083  25.194   8.850
 4584POPC   C1A19095   5.091  25.259   8.550
 4584POPC   D2A19096   5.080  25.309   8.250
 4584POPC   C3A19097   5.103  25.253   7.950
 4584POPC   C4A19098   5.048  25.310   7.650
 4584POPC   C1B19099   5.062  25.047   8.550
 4584POPC   C2B19100   4.986  25.026   8.250
 4584POPC   C3B19101   4.985  25.011   7.950
 4584POPC   C4B19102   5.039  25.048   7.650
 4585POPC   NC319103  31.475  32.988   9.450
 4585POPC   PO419104  31.441  33.007   9.150
 4585POPC   GL119105  31.469  33.063   8.850
 4585POPC   GL219106  31.618  33.085   8.850
 4585POPC   C1A19107  31.454  33.003   8.550
 4585POPC   D2A19108  31.455  32.976   8.250
 4585POPC   C3A19109  31.520  32.987   7.950
 4585POPC   C4A19110  31.428  33.002   7.650
 4585POPC   C1B19111  31.711  33.112   8.550
 4585POPC   C2B19112  31.754  33.052   8.250
 4585POPC   C3B19113  31.756  33.129   7.950
 4585POPC   C4B19114  31.711  33.052   7.650
 4586POPC   NC319115  19.858  36.122   9.450
 4586POPC   PO419116  19.873  36.091   9.150
 4586POPC   GL119117  19.874  36.177   8.850
 4586POPC   GL219118  19.852  35.985   8.850
 4586POPC   C1A19119  19.851  36.173   8.550
 4586POPC   D2A19120  19.814  36.115   8.250
 4586POPC   C3A19121  19.846  36.118   7.950
 4586POPC   C4A19122  19.841  36.142   7.650
 4586POPC   C1B19123  19.934  35.934   8.550
 4586POPC   C2B19124  19.942  35.906   8.250
 4586POPC   C3B19125  19.973  35.948   7.950
 4586POPC   C4B19126  19.977  35.942   7.650
 4587POPC   NC319127   8.932  18.244   9.450
 4587POPC   PO419128   8.961  18.244   9.150
 4587POPC   GL119129   8.995  18.250   8.850
 4587POPC   GL219130   8.876  18.312   8.850
 4587POPC   C1A19131   9.020  18.275   8.550
 4587POPC   D2A19132   8.988  18.256   8.250
 4587POPC   C3A19133   9.000  18.243   7.950
 4587POPC   C4A19134   9.012  18.295   7.650
 4587POPC   C1B19135   8.779  18.435   8.550
 4587POPC   C2B19136   8.721  18.417   8.250
 4587POPC   C3B19137   8.813  18.403   7.950
 4587POPC   C4B19138   8.791  18.378   7.650
 4588POPC   NC319139  29.190  37.694   9.450
 4588POPC   PO419140  29.131  37.672   9.150
 4588POPC   GL119141  29.134  37.677   8.850
 4588POPC   GL219142  29.026  37.758   8.850
 4588POPC   C1A19143  29.176  37.643   8.550
 4588POPC   D2A19144  29.123  37.674   8.250
 4588POPC   C3A19145  29.122  37.676   7.950
 4588POPC   C4A19146  29.187  37.633   7.650
 4588POPC   C1B19147  29.016  37.840   8.550
 4588POPC   C2B19148  29.010  37.906   8.250
 4588POPC   C3B19149  28.972  37.816   7.950
 4588POPC   C4B19150  28.987  37.894   7.650
 4589POPC   NC319151  15.218  38.482   9.450
 4589POPC   PO419152  15.199  38.465   9.150
 4589POPC   GL119153  15.155  38.446   8.850
 4589POPC   GL219154  15.253  38.531   8.850
 4589POPC   C1A19155  15.175  38.411   8.550
 4589POPC   D2A19156  15.155  38.458   8.250
 4589POPC   C3A19157  15.196  38.448   7.950
 4589POPC   C4A19158  15.129  38.488   7.650
 4589POPC   C1B19159  15.348  38.610   8.550
 4589POPC   C2B19160  15.345  38.609   8.250
 4589POPC   C3B19161  15.372  38.641   7.950
 4589POPC   C4B19162  15.373  38.680   7.650
 4590POPC   NC319163  13.595  30.680   9.450
 4590POPC   PO419164  13.620  30.662   9.150
 4590POPC   GL119165  13.579  30.742   8.850
 4590POPC   GL219166  13.540  30.839   8.850
 4590POPC   C1A19167  13.614  30.668   8.550
 4590POPC   D2A19168  13.659  30.725   8.250
 4590POPC   C3A19169  13.677  30.741   7.950
 4590POPC   C4A19170  13.597  30.676   7.650
 4590POPC   C1B19171  13.566  30.891   8.550
 4590POPC   C2B19172  13.546  30.905   8.250
 4590POPC   C3B19173  13.511  30.953   7.950
 4590POPC   C4B19174  13.512  30.896   7.650
 4591POPC   NC319175  22.921  10.498   9.450
 4591POPC   PO419176  22.917  10.492   9.150
 4591POPC   GL119177  22.915  10.483   8.850
 4591POPC   GL219178  23.077  10.433   8.850
 4591POPC   C1A19179  22.920  10.507   8.550
 4591POPC   D2A19180  22.938  10.485   8.250
 4591POPC   C3A19181  22.939  10.570   7.950
 4591POPC   C4A19182  22.986  10.566   7.650
 4591POPC   C1B19183  23.128  10.365   8.550
 4591POPC   C2B19184  23.092  10.338   8.250
 4591POPC   C3B19185  23.143  10.375   7.950
 4591POPC   C4B19186  23.120  10.328   7.650
 4592POPC   NC319187  13.667  23.727   9.450
 4592POPC   PO419188  13.642  23.714   9.150
 4592POPC   GL119189  13.585  23.700   8.850
 4592POPC   GL219190  13.571  23.859   8.850
 4592POPC   C1A19191  13.665  23.746   8.550
 4592POPC   D2A19192  13.661  23.711   8.250
 4592POPC   C3A19193  13.654  23.725   7.950
 4592POPC   C4A19194  13.667  23.674   7.650
 4592POPC   C1B19195  13.542  23.978   8.550
 4592POPC   C2B19196  13.564  23.890   8.250
 4592POPC   C3B19197  13.526  23.946   7.950
 4592POPC   C4B19198  13.470  23.964   7.650
 4593POPC   NC319199  33.766  18.296   9.450
 4593POPC   PO419200  33.810  18.240   9.150
 4593POPC   GL119201  33.772  18.237   8.850
 4593POPC   GL219202  33.732  18.365   8.850
 4593POPC   C1A19203  33.793  18.262   8.550
 4593POPC   D2A19204  33.781  18.306   8.250
 4593POPC   C3A19205  33.804  18.308   7.950
 4593POPC   C4A19206  33.844  18.254   7.650
 4593POPC   C1B19207  33.724  18.469   8.550
 4593POPC   C2B19208  33.718  18.462   8.250
 4593POPC   C3B19209  33.685  18.528   7.950
 4593POPC   C4B19210  33.637  18.504   7.650
 4594POPC   NC319211  27.564  19.831   9.450
 4594POPC   PO419212  27.553  19.828   9.150
 4594POPC   GL119213  27.631  19.838   8.850
 4594POPC   GL219214  27.564  19.733   8.850
 4594POPC   C1A19215  27.591  19.787   8.550
 4594POPC   D2A19216  27.613  19.785   8.250
 4594POPC   C3A19217  27.564  19.831   7.950
 4594POPC   C4A19218  27.601  19.848   7.650
 4594POPC   C1B19219  27.538  19.558   8.550
 4594POPC   C2B19220  27.511  19.652   8.250
 4594POPC   C3B19221  27.532  19.655   7.950
 4594POPC   C4B19222  27.540  19.637   7.650
 4595POPC   NC319223  40.046  17.471   9.450
 4595POPC   PO419224  40.033  17.521   9.150
 4595POPC   GL119225  39.986  17.537   8.850
 4595POPC   GL219226  39.952  17.657   8.850
 4595POPC   C1A19227  40.000  17.549   8.550
 4595POPC   D2A19228  40.038  17.550   8.250
 4595POPC   C3A19229  39.990  17.540   7.950
 4595POPC   C4A19230  40.057  17.508   7.650
 4595POPC   C1B19231  40.007  17.767   8.550
 4595POPC   C2B19232  39.970  17.748   8.250
 4595POPC   C3B19233  39.952  17.730   7.950
 4595POPC   C4B19234  39.921  17.771   7.650
 4596POPC   NC319235  26.065  30.689   9.450
 4596POPC   PO419236  26.028  30.701   9.150
 4596POPC   GL119237  25.999  30.725   8.850
 4596POPC   GL219238  26.099  30.783   8.850
 4596POPC   C1A19239  26.013  30.711   8.550
 4596POPC   D2A19240  26.006  30.666   8.250
 4596POPC   C3A19241  26.009  30.675   7.950
 4596POPC   C4A19242  26.034  30.742   7.650
 4596POPC   C1B19243  26.193  30.864   8.550
 4596POPC   C2B19244  26.173  30.891   8.250
 4596POPC   C3B19245  26.231  30.896   7.950
 4596POPC   C4B19246  26.258  30.912   7.650
 4597POPC   NC319247  15.971  36.945   9.450
 4597POPC   PO419248  15.924  36.910   9.150
 4597POPC   GL119249  15.945  36.885   8.850
 4597POPC   GL219250  16.054  36.767   8.850
 4597POPC   C1A19251  15.955  36.860   8.550
 4597POPC   D2A19252  15.908  36.925   8.250
 4597POPC   C3A19253  15.973  36.928   7.950
 4597POPC   C4A19254  15.950  36.870   7.650
 4597POPC   C1B19255  16.100  36.715   8.550
 4597POPC   C2B19256  16.141  36.698   8.250
 4597POPC   C3B19257  16.135  36.747   7.950
 4597POPC   C4B19258  16.072  36.706   7.650
 4598POPC   NC319259  12.052  12.079   9.450
 4598POPC   PO419260  12.113  12.070   9.150
 4598POPC   GL119261  12.057  12.034   8.850
 4598POPC   GL219262  12.009  12.169   8.850
 4598POPC   C1A19263  12.104  12.117   8.550
 4598POPC   D2A19264  12.078  12.064   8.250
 4598POPC   C3A19265  12.095  12.100   7.950
 4598POPC   C4A19266  12.090  12.087   7.650
 4598POPC   C1B19267  11.858  12.136   8.550
 4598POPC   C2B19268  11.842  12.138   8.250
 4598POPC   C3B19269  11.827  12.211   7.950
 4598POPC   C4B19270  11.799  12.143   7.650
 4599POPC   NC319271  21.345  28.334   9.450
 4599POPC   PO419272  21.416  28.382   9.150
 4599POPC   GL119273  21.404  28.383   8.850
 4599POPC   GL219274  21.440  28.266   8.850
 4599POPC   C1A19275  21.379  28.320   8.550
 4599POPC   D2A19276  21.377  28.333   8.250
 4599POPC   C3A19277  21.393  28.400   7.950
 4599POPC   C4A19278  21.383  28.383   7.650
 4599POPC   C1B19279  21.356  28.112   8.550
 4599POPC   C2B19280  21.404  28.115   8.250
 4599POPC   C3B19281  21.407  28.078   7.950
 4599POPC   C4B19282  21.357  28.116   7.650
 4600POPC   NC319283  36.913  25.233   9.450
 4600POPC   PO419284  36.935  25.280   9.150
 4600POPC   GL119285  36.948  25.280   8.850
 4600POPC   GL219286  36.991  25.251   8.850
 4600POPC   C1A19287  36.868  25.309   8.550
 4600POPC   D2A19288  36.938  25.228   8.250
 4600POPC   C3A19289  36.877  25.288   7.950
 4600POPC   C4A19290  36.930  25.301   7.650
 4600POPC   C1B19291  37.163  25.172   8.550
 4600POPC   C2B19292  37.140  25.174   8.250
 4600POPC   C3B19293  37.178  25.127   7.950
 4600POPC   C4B19294  37.088  25.204   7.650
 4601POPC   NC319295   1.250  39.271   9.450
 4601POPC   PO419296   1.176  39.256   9.150
 4601POPC   GL119297   1.214  39.256   8.850
 4601POPC   GL219298   1.170  39.099   8.850
 4601POPC   C1A19299   1.248  39.235   8.550
 4601POPC   D2A19300   1.230  39.223   8.250
 4601POPC   C3A19301   1.255  39.236   7.950
 4601POPC   C4A19302   1.260  39.237   7.650
 4601POPC   C1B19303   1.135  38.970   8.550
 4601POPC   C2B19304   1.178  38.968   8.250
 4601POPC   C3B19305   1.112  39.037   7.950
 4601POPC   C4B19306   1.107  39.037   7.650
 4602POPC   NC319307  26.780  32.246   9.450
 4602POPC   PO419308  26.807  32.219   9.150
 4602POPC   GL119309  26.800  32.290   8.850
 4602POPC   GL219310  26.656  32.215   8.850
 4602POPC   C1A19311  26.835  32.255   8.550
 4602POPC   D2A19312  26.847  32.238   8.250
 4602POPC   C3A19313  26.785  32.207   7.950
 4602POPC   C4A19314  26.862  32.285   7.650
 4602POPC   C1B19315  26.528  32.186   8.550
 4602POPC   C2B19316  26.575  32.153   8.250
 4602POPC   C3B19317  26.620  32.151   7.950
 4602POPC   C4B19318  26.524  32.231   7.650
 4603POPC   NC319319  33.765   5.856   9.450
 4603POPC   PO419320  33.786   5.834   9.150
 4603POPC   GL119321  33.814   5.862   8.850
 4603POPC   GL219322  33.637   5.805   8.850
 4603POPC   C1A19323  33.809   5.845   8.550
 4603POPC   D2A19324  33.823   5.838   8.250
 4603POPC   C3A19325  33.771   5.895   7.950
 4603POPC   C4A19326  33.787   5.880   7.650
 4603POPC   C1B19327  33.586   5.797   8.550
 4603POPC   C2B19328  33.557   5.808   8.250
 4603POPC   C3B19329  33.522   5.822   7.950
 4603POPC   C4B19330  33.523   5.781   7.650
 4604POPC   NC319331  14.452  40.769   9.450
 4604POPC   PO419332  14.422  40.790   9.150
 4604POPC   GL119333  14.388  40.814   8.850
 4604POPC   GL219334  14.361  40.703   8.850
 4604POPC   C1A19335  14.354  40.744   8.550
 4604POPC   D2A19336  14.399  40.808   8.250
 4604POPC   C3A19337  14.362  40.794   7.950
 4604POPC   C4A19338  14.369  40.807   7.650
 4604POPC   C1B19339  14.252  40.546   8.550
 4604POPC   C2B19340  14.269  40.513   8.250
 4604POPC   C3B19341  14.321  40.508   7.950
 4604POPC   C4B19342  14.301  40.514   7.650
 4605POPC   NC319343  16.766  24.519   9.450
 4605POPC   PO419344  16.760  24.503   9.150
 4605POPC   GL119345  16.777  24.473   8.850
 4605POPC   GL219346  16.790  24.465   8.850
 4605POPC   C1A19347  16.734  24.480   8.550
 4605POPC   D2A19348  16.710  24.458   8.250
 4605POPC   C3A19349  16.720  24.522   7.950
 4605POPC   C4A19350  16.741  24.503   7.650
 4605POPC   C1B19351  16.974  24.343   8.550
 4605POPC   C2B19352  16.979  24.340   8.250
 4605POPC   C3B19353  16.981  24.333   7.950
 4605POPC   C4B19354  16.904  24.333   7.650
 4606POPC   NC319355   9.701  38.496   9.450
 4606POPC   PO419356   9.745  38.434   9.150
 4606POPC   GL119357   9.705  38.468   8.850
 4606POPC   GL219358   9.877  38.411   8.850
 4606POPC   C1A19359   9.702  38.453   8.550
 4606POPC   D2A19360   9.780  38.503   8.250
 4606POPC   C3A19361   9.722  38.485   7.950
 4606POPC   C4A19362   9.734  38.443   7.650
 4606POPC   C1B19363  10.003  38.423   8.550
 4606POPC   C2B19364   9.975  38.377   8.250
 4606POPC   C3B19365   9.953  38.411   7.950
 4606POPC   C4B19366   9.961  38.361   7.650
 4607POPC   NC319367   2.792  18.263   9.450
 4607POPC   PO419368   2.797  18.304   9.150
 4607POPC   GL119369   2.785  18.296   8.850
 4607POPC   GL219370   2.723  18.442   8.850
 4607POPC   C1A19371   2.756  18.306   8.550
 4607POPC   D2A19372   2.806  18.264   8.250
 4607POPC   C3A19373   2.790  18.292   7.950
 4607POPC   C4A19374   2.761  18.260   7.650
 4607POPC   C1B19375   2.778  18.515   8.550
 4607POPC   C2B19376   2.746  18.543   8.250
 4607POPC   C3B19377   2.799  18.500   7.950
 4607POPC   C4B19378   2.804  18.527   7.650
 4608POPC   NC319379  21.404  10.547   9.450
 4608POPC   PO419380  21.427  10.506   9.150
 4608POPC   GL119381  21.424  10.517   8.850
 4608POPC   GL219382  21.399  10.361   8.850
 4608POPC   C1A19383  21.357  10.550   8.550
 4608POPC   D2A19384  21.395  10.542   8.250
 4608POPC   C3A19385  21.413  10.561   7.950
 4608POPC   C4A19386  21.374  10.554   7.650
 4608POPC   C1B19387  21.391  10.248   8.550
 4608POPC   C2B19388  21.450  10.304   8.250
 4608POPC   C3B19389  21.441  10.226   7.950
 4608POPC   C4B19390  21.445  10.233   7.650
 4609POPC   NC319391  22.126  35.392   9.450
 4609POPC   PO419392  22.129  35.319   9.150
 4609POPC   GL119393  22.148  35.398   8.850
 4609POPC   GL219394  22.242  35.420   8.850
 4609POPC   C1A19395  22.187  35.389   8.550
 4609POPC   D2A19396  22.160  35.375   8.250
 4609POPC   C3A19397  22.201  35.399   7.950
 4609POPC   C4A19398  22.168  35.371   7.650
 4609POPC   C1B19399  22.356  35.534   8.550
 4609POPC   C2B19400  22.337  35.508   8.250
 4609POPC   C3B19401  22.397  35.509   7.950
 4609POPC   C4B19402  22.321  35.484   7.650
 4610POPC   NC319403  33.767  22.207   9.450
 4610POPC   PO419404  33.838  22.180   9.150
 4610POPC   GL119405  33.831  22.175   8.850
 4610POPC   GL219406  33.829  22.073   8.850
 4610POPC   C1A19407  33.783  22.124   8.550
 4610POPC   D2A19408  33.813  22.156   8.250
 4610POPC   C3A19409  33.752  22.163   7.950
 4610POPC   C4A19410  33.814  22.121   7.650
 4610POPC   C1B19411  33.903  21.897   8.550
 4610POPC   C2B19412  33.942  21.909   8.250
 4610POPC   C3B19413  33.921  21.934   7.950
 4610POPC   C4B19414  33.937  21.985   7.650
 4611POPC   NC319415  30.718  10.549   9.450
 4611POPC   PO419416  30.652  10.548   9.150
 4611POPC   GL119417  30.655  10.523   8.850
 4611POPC   GL219418  30.788  10.579   8.850
 4611POPC   C1A19419  30.653  10.477   8.550
 4611POPC   D2A19420  30.679  10.514   8.250
 4611POPC   C3A19421  30.709  10.516   7.950
 4611POPC   C4A19422  30.670  10.502   7.650
 4611POPC   C1B19423  30.938  10.687   8.550
 4611POPC   C2B19424  30.905  10.670   8.250
 4611POPC   C3B19425  30.899  10.650   7.950
 4611POPC   C4B19426  30.890  10.664   7.650
 4612POPC   NC319427  23.686   5.863   9.450
 4612POPC   PO419428  23.753   5.845   9.150
 4612POPC   GL119429  23.723   5.906   8.850
 4612POPC   GL219430  23.679   6.009   8.850
 4612POPC   C1A19431  23.683   5.886   8.550
 4612POPC   D2A19432  23.702   5.841   8.250
 4612POPC   C3A19433  23.740   5.900   7.950
 4612POPC   C4A19434  23.760   5.853   7.650
 4612POPC   C1B19435  23.741   6.073   8.550
 4612POPC   C2B19436  23.726   6.138   8.250
 4612POPC   C3B19437  23.686   6.100   7.950
 4612POPC   C4B19438  23.723   6.164   7.650
 4613POPC   NC319439   0.463  40.831   9.450
 4613POPC   PO419440   0.485  40.769   9.150
 4613POPC   GL119441   0.469  40.799   8.850
 4613POPC   GL219442   0.362  40.862   8.850
 4613POPC   C1A19443   0.459  40.788   8.550
 4613POPC   D2A19444   0.406  40.783   8.250
 4613POPC   C3A19445   0.406  40.758   7.950
 4613POPC   C4A19446   0.483  40.776   7.650
 4613POPC   C1B19447   0.308  40.951   8.550
 4613POPC   C2B19448   0.331  40.973   8.250
 4613POPC   C3B19449   0.264  41.028   7.950
 4613POPC   C4B19450   0.258  40.941   7.650
 4614POPC   NC319451  22.135  24.512   9.450
 4614POPC   PO419452  22.197  24.507   9.150
 4614POPC   GL119453  22.194  24.522   8.850
 4614POPC   GL219454  22.006  24.596   8.850
 4614POPC   C1A19455  22.141  24.474   8.550
 4614POPC   D2A19456  22.115  24.470   8.250
 4614POPC   C3A19457  22.209  24.524   7.950
 4614POPC   C4A19458  22.158  24.474   7.650
 4614POPC   C1B19459  21.977  24.650   8.550
 4614POPC   C2B19460  21.915  24.654   8.250
 4614POPC   C3B19461  21.923  24.567   7.950
 4614POPC   C4B19462  21.952  24.637   7.650
 4615POPC   NC319463  11.323   7.441   9.450
 4615POPC   PO419464  11.255   7.380   9.150
 4615POPC   GL119465  11.322   7.443   8.850
 4615POPC   GL219466  11.297   7.247   8.850
 4615POPC   C1A19467  11.344   7.452   8.550
 4615POPC   D2A19468  11.279   7.448   8.250
 4615POPC   C3A19469  11.287   7.432   7.950
 4615POPC   C4A19470  11.321   7.460   7.650
 4615POPC   C1B19471  11.319   7.222   8.550
 4615POPC   C2B19472  11.241   7.221   8.250
 4615POPC   C3B19473  11.282   7.177   7.950
 4615POPC   C4B19474  11.266   7.195   7.650
 4616POPC   NC319475  22.153  19.826   9.450
 4616POPC   PO419476  22.185  19.879   9.150
 4616POPC   GL119477  22.197  19.875   8.850
 4616POPC   GL219478  22.183  19.985   8.850
 4616POPC   C1A19479  22.114  19.852   8.550
 4616POPC   D2A19480  22.134  19.845   8.250
 4616POPC   C3A19481  22.182  19.835   7.950
 4616POPC   C4A19482  22.163  19.849   7.650
 4616POPC   C1B19483  22.240  20.021   8.550
 4616POPC   C2B19484  22.232  20.024   8.250
 4616POPC   C3B19485  22.254  20.060   7.950
 4616POPC   C4B19486  22.308  20.092   7.650
 4617POPC   NC319487  33.833  31.501   9.450
 4617POPC   PO419488  33.838  31.493   9.150
 4617POPC   GL119489  33.823  31.469   8.850
 4617POPC   GL219490  33.963  31.503   8.850
 4617POPC   C1A19491  33.797  31.432   8.550
 4617POPC   D2A19492  33.841  31.482   8.250
 4617POPC   C3A19493  33.796  31.471   7.950
 4617POPC   C4A19494  33.833  31.500   7.650
 4617POPC   C1B19495  34.005  31.505   8.550
 4617POPC   C2B19496  34.057  31.443   8.250
 4617POPC   C3B19497  34.007  31.454   7.950
 4617POPC   C4B19498  34.014  31.418   7.650
 4618POPC   NC319499   7.429   1.181   9.450
 4618POPC   PO419500   7.434   1.209   9.150
 4618POPC   GL119501   7.447   1.193   8.850
 4618POPC   GL219502   7.315   1.332   8.850
 4618POPC   C1A19503   7.422   1.169   8.550
 4618POPC   D2A19504   7.410   1.242   8.250
 4618POPC   C3A19505   7.447   1.212   7.950
 4618POPC   C4A19506   7.405   1.214   7.650
 4618POPC   C1B19507   7.312   1.373   8.550
 4618POPC   C2B19508   7.292   1.466   8.250
 4618POPC   C3B19509   7.284   1.392   7.950
 4618POPC   C4B19510   7.324   1.380   7.650
 4619POPC   NC319511  43.879  26.090   9.450
 4619POPC   PO419512  43.916  26.077   9.150
 4619POPC   GL119513  43.910  26.023   8.850
 4619POPC   GL219514  43.959  25.977   8.850
 4619POPC   C1A19515  43.919  26.037   8.550
 4619POPC   D2A19516  43.845  26.075   8.250
 4619POPC   C3A19517  43.923  26.064   7.950
 4619POPC   C4A19518  43.920  26.025   7.650
 4619POPC   C1B19519  44.083  25.836   8.550
 4619POPC   C2B19520  44.023  25.839   8.250
 4619POPC   C3B19521  43.997  25.823   7.950
 4619POPC   C4B19522  44.036  25.849   7.650
 4620POPC   NC319523  32.244   1.952   9.450
 4620POPC   PO419524  32.284   1.973   9.150
 4620POPC   GL119525  32.212   1.951   8.850
 4620POPC   GL219526  32.287   2.146   8.850
 4620POPC   C1A19527  32.256   1.991   8.550
 4620POPC   D2A19528  32.223   1.999   8.250
 4620POPC   C3A19529  32.217   2.013   7.950
 4620POPC   C4A19530  32.273   1.983   7.650
 4620POPC   C1B19531  32.316   2.242   8.550
 4620POPC   C2B19532  32.270   2.235   8.250
 4620POPC   C3B19533  32.263   2.279   7.950
 4620POPC   C4B19534  32.295   2.233   7.650
 4621POPC   NC319535  36.129  24.495   9.450
 4621POPC   PO419536  36.111  24.458   9.150
 4621POPC   GL119537  36.133  24.526   8.850
 4621POPC   GL219538  36.155  24.652   8.850
 4621POPC   C1A19539  36.132  24.464   8.550
 4621POPC   D2A19540  36.151  24.512   8.250
 4621POPC   C3A19541  36.086  24.522   7.950
 4621POPC   C4A19542  36.146  24.462   7.650
 4621POPC   C1B19543  36.208  24.744   8.550
 4621POPC   C2B19544  36.202  24.719   8.250
 4621POPC   C3B19545  36.256  24.724   7.950
 4621POPC   C4B19546  36.196  24.720   7.650
 4622POPC   NC319547   5.082  42.377   9.450
 4622POPC   PO419548   5.068  42.296   9.150
 4622POPC   GL119549   5.125  42.290   8.850
 4622POPC   GL219550   5.249  42.416   8.850
 4622POPC   C1A19551   5.110  42.343   8.550
 4622POPC   D2A19552   5.057  42.297   8.250
 4622POPC   C3A19553   5.120  42.379   7.950
 4622POPC   C4A19554   5.052  42.381   7.650
 4622POPC   C1B19555   5.299  42.446   8.550
 4622POPC   C2B19556   5.308  42.383   8.250
 4622POPC   C3B19557   5.367  42.363   7.950
 4622POPC   C4B19558   5.359  42.458   7.650
 4623POPC   NC319559  28.370  27.599   9.450
 4623POPC   PO419560  28.377  27.605   9.150
 4623POPC   GL119561  28.322  27.569   8.850
 4623POPC   GL219562  28.219  27.650   8.850
 4623POPC   C1A19563  28.356  27.594   8.550
 4623POPC   D2A19564  28.340  27.605   8.250
 4623POPC   C3A19565  28.349  27.570   7.950
 4623POPC   C4A19566  28.408  27.639   7.650
 4623POPC   C1B19567  28.143  27.665   8.550
 4623POPC   C2B19568  28.150  27.597   8.250
 4623POPC   C3B19569  28.133  27.585   7.950
 4623POPC   C4B19570  28.071  27.617   7.650
 4624POPC   NC319571  27.591   1.191   9.450
 4624POPC   PO419572  27.619   1.199   9.150
 4624POPC   GL119573  27.634   1.190   8.850
 4624POPC   GL219574  27.565   1.336   8.850
 4624POPC   C1A19575  27.573   1.185   8.550
 4624POPC   D2A19576  27.627   1.174   8.250
 4624POPC   C3A19577  27.602   1.262   7.950
 4624POPC   C4A19578  27.622   1.241   7.650
 4624POPC   C1B19579  27.454   1.403   8.550
 4624POPC   C2B19580  27.500   1.406   8.250
 4624POPC   C3B19581  27.475   1.402   7.950
 4624POPC   C4B19582  27.435   1.406   7.650
 4625POPC   NC319583   1.201  24.503   9.450
 4625POPC   PO419584   1.259  24.463   9.150
 4625POPC   GL119585   1.217  24.474   8.850
 4625POPC   GL219586   1.313  24.422   8.850
 4625POPC   C1A19587   1.174  24.450   8.550
 4625POPC   D2A19588   1.183  24.510   8.250
 4625POPC   C3A19589   1.242  24.456   7.950
 4625POPC   C4A19590   1.245  24.507   7.650
 4625POPC   C1B19591   1.353  24.297   8.550
 4625POPC   C2B19592   1.345  24.215   8.250
 4625POPC   C3B19593   1.330  24.308   7.950
 4625POPC   C4B19594   1.353  24.211   7.650
 4626POPC   NC319595  20.629  26.044   9.450
 4626POPC   PO419596  20.620  26.079   9.150
 4626POPC   GL119597  20.568  26.038   8.850
 4626POPC   GL219598  20.588  26.199   8.850
 4626POPC   C1A19599  20.573  26.067   8.550
 4626POPC   D2A19600  20.597  26.030   8.250
 4626POPC   C3A19601  20.565  26.090   7.950
 4626POPC   C4A19602  20.650  26.050   7.650
 4626POPC   C1B19603  20.539  26.294   8.550
 4626POPC   C2B19604  20.529  26.231   8.250
 4626POPC   C3B19605  20.564  26.254   7.950
 4626POPC   C4B19606  20.555  26.278   7.650
 4627POPC   NC319607  22.888   6.690   9.450
 4627POPC   PO419608  22.975   6.627   9.150
 4627POPC   GL119609  22.987   6.613   8.850
 4627POPC   GL219610  22.820   6.606   8.850
 4627POPC   C1A19611  22.907   6.635   8.550
 4627POPC   D2A19612  22.963   6.607   8.250
 4627POPC   C3A19613  22.926   6.678   7.950
 4627POPC   C4A19614  22.913   6.630   7.650
 4627POPC   C1B19615  22.669   6.571   8.550
 4627POPC   C2B19616  22.660   6.601   8.250
 4627POPC   C3B19617  22.659   6.599   7.950
 4627POPC   C4B19618  22.657   6.562   7.650
 4628POPC   NC319619  13.579  12.086   9.450
 4628POPC   PO419620  13.604  12.056   9.150
 4628POPC   GL119621  13.653  12.051   8.850
 4628POPC   GL219622  13.649  12.235   8.850
 4628POPC   C1A19623  13.615  12.110   8.550
 4628POPC   D2A19624  13.667  12.064   8.250
 4628POPC   C3A19625  13.666  12.108   7.950
 4628POPC   C4A19626  13.581  12.115   7.650
 4628POPC   C1B19627  13.644  12.296   8.550
 4628POPC   C2B19628  13.619  12.364   8.250
 4628POPC   C3B19629  13.597  12.367   7.950
 4628POPC   C4B19630  13.580  12.352   7.650
 4629POPC   NC319631   1.253  26.085   9.450
 4629POPC   PO419632   1.217  26.053   9.150
 4629POPC   GL119633   1.242  26.020   8.850
 4629POPC   GL219634   1.118  26.114   8.850
 4629POPC   C1A19635   1.228  26.043   8.550
 4629POPC   D2A19636   1.219  26.060   8.250
 4629POPC   C3A19637   1.246  26.087   7.950
 4629POPC   C4A19638   1.179  26.031   7.650
 4629POPC   C1B19639   1.059  26.202   8.550
 4629POPC   C2B19640   1.014  26.167   8.250
 4629POPC   C3B19641   1.011  26.205   7.950
 4629POPC   C4B19642   1.024  26.175   7.650
 4630POPC   NC319643   3.586  15.170   9.450
 4630POPC   PO419644   3.540  15.201   9.150
 4630POPC   GL119645   3.546  15.216   8.850
 4630POPC   GL219646   3.533  15.268   8.850
 4630POPC   C1A19647   3.567  15.175   8.550
 4630POPC   D2A19648   3.578  15.211   8.250
 4630POPC   C3A19649   3.562  15.211   7.950
 4630POPC   C4A19650   3.496  15.198   7.650
 4630POPC   C1B19651   3.486  15.410   8.550
 4630POPC   C2B19652   3.505  15.413   8.250
 4630POPC   C3B19653   3.515  15.411   7.950
 4630POPC   C4B19654   3.486  15.389   7.650
 4631POPC   NC319655  36.937  29.113   9.450
 4631POPC   PO419656  36.923  29.151   9.150
 4631POPC   GL119657  36.866  29.172   8.850
 4631POPC   GL219658  36.956  29.222   8.850
 4631POPC   C1A19659  36.950  29.185   8.550
 4631POPC   D2A19660  36.865  29.172   8.250
 4631POPC   C3A19661  36.880  29.135   7.950
 4631POPC   C4A19662  36.899  29.189   7.650
 4631POPC   C1B19663  36.969  29.351   8.550
 4631POPC   C2B19664  36.944  29.404   8.250
 4631POPC   C3B19665  36.934  29.391   7.950
 4631POPC   C4B19666  36.989  29.386   7.650
 4632POPC   NC319667   6.693  25.217   9.450
 4632POPC   PO419668   6.657  25.216   9.150
 4632POPC   GL119669   6.692  25.272   8.850
 4632POPC   GL219670   6.551  25.223   8.850
 4632POPC   C1A19671   6.630  25.261   8.550
 4632POPC   D2A19672   6.665  25.275   8.250
 4632POPC   C3A19673   6.664  25.305   7.950
 4632POPC   C4A19674   6.635  25.297   7.650
 4632POPC   C1B19675   6.403  25.251   8.550
 4632POPC   C2B19676   6.445  25.294   8.250
 4632POPC   C3B19677   6.348  25.298   7.950
 4632POPC   C4B19678   6.435  25.287   7.650
 4633POPC   NC319679  35.352  15.980   9.450
 4633POPC   PO419680  35.400  16.001   9.150
 4633POPC   GL119681  35.304  15.947   8.850
 4633POPC   GL219682  35.279  15.794   8.850
 4633POPC   C1A19683  35.327  15.910   8.550
 4633POPC   D2A19684  35.306  15.970   8.250
 4633POPC   C3A19685  35.362  15.954   7.950
 4633POPC   C4A19686  35.335  15.952   7.650
 4633POPC   C1B19687  35.281  15.723   8.550
 4633POPC   C2B19688  35.241  15.747   8.250
 4633POPC   C3B19689  35.241  15.696   7.950
 4633POPC   C4B19690  35.210  15.777   7.650
 4634POPC   NC319691  12.813   1.182   9.450
 4634POPC   PO419692  12.877   1.192   9.150
 4634POPC   GL119693  12.900   1.186   8.850
 4634POPC   GL219694  12.809   1.086   8.850
 4634POPC   C1A19695  12.873   1.205   8.550
 4634POPC   D2A19696  12.898   1.259   8.250
 4634POPC   C3A19697  12.873   1.224   7.950
 4634POPC   C4A19698  12.853   1.202   7.650
 4634POPC   C1B19699  12.776   0.946   8.550
 4634POPC   C2B19700  12.757   0.947   8.250
 4634POPC   C3B19701  12.766   0.959   7.950
 4634POPC   C4B19702  12.797   0.998   7.650
 4635POPC   NC319703  33.074  39.183   9.450
 4635POPC   PO419704  32.980  39.232   9.150
 4635POPC   GL119705  33.017  39.238   8.850
 4635POPC   GL219706  32.913  39.308   8.850
 4635POPC   C1A19707  33.011  39.201   8.550
 4635POPC   D2A19708  33.009  39.187   8.250
 4635POPC   C3A19709  33.001  39.186   7.950
 4635POPC   C4A19710  32.995  39.263   7.650
 4635POPC   C1B19711  32.819  39.384   8.550
 4635POPC   C2B19712  32.812  39.330   8.250
 4635POPC   C3B19713  32.805  39.411   7.950
 4635POPC   C4B19714  32.835  39.330   7.650
 4636POPC   NC319715  27.582   4.331   9.450
 4636POPC   PO419716  27.640   4.330   9.150
 4636POPC   GL119717  27.584   4.275   8.850
 4636POPC   GL219718  27.719   4.314   8.850
 4636POPC   C1A19719  27.628   4.365   8.550
 4636POPC   D2A19720  27.580   4.354   8.250
 4636POPC   C3A19721  27.553   4.328   7.950
 4636POPC   C4A19722  27.565   4.314   7.650
 4636POPC   C1B19723  27.818   4.275   8.550
 4636POPC   C2B19724  27.796   4.358   8.250
 4636POPC   C3B19725  27.857   4.294   7.950
 4636POPC   C4B19726  27.809   4.289   7.650
 4637POPC   NC319727  26.852   1.966   9.450
 4637POPC   PO419728  26.815   2.033   9.150
 4637POPC   GL119729  26.862   2.030   8.850
 4637POPC   GL219730  26.939   1.925   8.850
 4637POPC   C1A19731  26.769   2.013   8.550
 4637POPC   D2A19732  26.861   2.031   8.250
 4637POPC   C3A19733  26.835   2.010   7.950
 4637POPC   C4A19734  26.809   1.944   7.650
 4637POPC   C1B19735  27.035   1.823   8.550
 4637POPC   C2B19736  26.999   1.839   8.250
 4637POPC   C3B19737  26.983   1.862   7.950
 4637POPC   C4B19738  26.972   1.842   7.650
 4638POPC   NC319739  13.670  29.932   9.450
 4638POPC   PO419740  13.611  29.890   9.150
 4638POPC   GL119741  13.640  29.913   8.850
 4638POPC   GL219742  13.524  29.893   8.850
 4638POPC   C1A19743  13.649  29.880   8.550
 4638POPC   D2A19744  13.609  29.903   8.250
 4638POPC   C3A19745  13.673  29.883   7.950
 4638POPC   C4A19746  13.653  29.896   7.650
 4638POPC   C1B19747  13.423  29.725   8.550
 4638POPC   C2B19748  13.405  29.777   8.250
 4638POPC   C3B19749  13.465  29.809   7.950
 4638POPC   C4B19750  13.471  29.774   7.650
 4639POPC   NC319751  33.822   3.523   9.450
 4639POPC   PO419752  33.755   3.583   9.150
 4639POPC   GL119753  33.786   3.530   8.850
 4639POPC   GL219754  33.889   3.601   8.850
 4639POPC   C1A19755  33.788   3.574   8.550
 4639POPC   D2A19756  33.766   3.541   8.250
 4639POPC   C3A19757  33.777   3.580   7.950
 4639POPC   C4A19758  33.843   3.558   7.650
 4639POPC   C1B19759  34.060   3.623   8.550
 4639POPC   C2B19760  34.032   3.634   8.250
 4639POPC   C3B19761  34.044   3.625   7.950
 4639POPC   C4B19762  33.986   3.643   7.650
 4640POPC   NC319763  13.653  28.397   9.450
 4640POPC   PO419764  13.671  28.374   9.150
 4640POPC   GL119765  13.673  28.416   8.850
 4640POPC   GL219766  13.505  28.426   8.850
 4640POPC   C1A19767  13.646  28.378   8.550
 4640POPC   D2A19768  13.613  28.413   8.250
 4640POPC   C3A19769  13.626  28.406   7.950
 4640POPC   C4A19770  13.620  28.418   7.650
 4640POPC   C1B19771  13.436  28.465   8.550
 4640POPC   C2B19772  13.398  28.527   8.250
 4640POPC   C3B19773  13.395  28.487   7.950
 4640POPC   C4B19774  13.397  28.507   7.650
 4641POPC   NC319775  36.126  37.686   9.450
 4641POPC   PO419776  36.127  37.668   9.150
 4641POPC   GL119777  36.157  37.653   8.850
 4641POPC   GL219778  36.273  37.732   8.850
 4641POPC   C1A19779  36.111  37.643   8.550
 4641POPC   D2A19780  36.094  37.683   8.250
 4641POPC   C3A19781  36.119  37.683   7.950
 4641POPC   C4A19782  36.090  37.673   7.650
 4641POPC   C1B19783  36.369  37.806   8.550
 4641POPC   C2B19784  36.314  37.785   8.250
 4641POPC   C3B19785  36.392  37.804   7.950
 4641POPC   C4B19786  36.332  37.793   7.650
 4642POPC   NC319787  21.342  26.067   9.450
 4642POPC   PO419788  21.341  26.009   9.150
 4642POPC   GL119789  21.341  26.059   8.850
 4642POPC   GL219790  21.355  26.162   8.850
 4642POPC   C1A19791  21.422  25.997   8.550
 4642POPC   D2A19792  21.391  26.059   8.250
 4642POPC   C3A19793  21.345  26.061   7.950
 4642POPC   C4A19794  21.363  26.028   7.650
 4642POPC   C1B19795  21.269  26.247   8.550
 4642POPC   C2B19796  21.347  26.237   8.250
 4642POPC   C3B19797  21.308  26.233   7.950
 4642POPC   C4B19798  21.319  26.311   7.650
 4643POPC   NC319799   2.005  43.865   9.450
 4643POPC   PO419800   2.024  43.897   9.150
 4643POPC   GL119801   1.951  43.885   8.850
 4643POPC   GL219802   1.955  44.042   8.850
 4643POPC   C1A19803   2.021  43.848   8.550
 4643POPC   D2A19804   1.989  43.868   8.250
 4643POPC   C3A19805   2.004  43.886   7.950
 4643POPC   C4A19806   1.971  43.936   7.650
 4643POPC   C1B19807   1.890  44.081   8.550
 4643POPC   C2B19808   1.920  44.085   8.250
 4643POPC   C3B19809   1.882  44.087   7.950
 4643POPC   C4B19810   1.859  44.114   7.650
 4644POPC   NC319811  17.520  21.355   9.450
 4644POPC   PO419812  17.536  21.364   9.150
 4644POPC   GL119813  17.497  21.380   8.850
 4644POPC   GL219814  17.399  21.347   8.850
 4644POPC   C1A19815  17.543  21.354   8.550
 4644POPC   D2A19816  17.498  21.424   8.250
 4644POPC   C3A19817  17.530  21.411   7.950
 4644POPC   C4A19818  17.501  21.403   7.650
 4644POPC   C1B19819  17.274  21.288   8.550
 4644POPC   C2B19820  17.282  21.292   8.250
 4644POPC   C3B19821  17.264  21.281   7.950
 4644POPC   C4B19822  17.322  21.290   7.650
 4645POPC   NC319823   5.857  34.534   9.450
 4645POPC   PO419824   5.898  34.609   9.150
 4645POPC   GL119825   5.893  34.565   8.850
 4645POPC   GL219826   5.992  34.628   8.850
 4645POPC   C1A19827   5.858  34.604   8.550
 4645POPC   D2A19828   5.898  34.625   8.250
 4645POPC   C3A19829   5.864  34.540   7.950
 4645POPC   C4A19830   5.834  34.596   7.650
 4645POPC   C1B19831   6.048  34.797   8.550
 4645POPC   C2B19832   6.023  34.779   8.250
 4645POPC   C3B19833   6.052  34.754   7.950
 4645POPC   C4B19834   6.033  34.792   7.650
 4646POPC   NC319835   9.740  25.253   9.450
 4646POPC   PO419836   9.772  25.260   9.150
 4646POPC   GL119837   9.793  25.275   8.850
 4646POPC   GL219838   9.641  25.308   8.850
 4646POPC   C1A19839   9.764  25.240   8.550
 4646POPC   D2A19840   9.729  25.250   8.250
 4646POPC   C3A19841   9.750  25.258   7.950
 4646POPC   C4A19842   9.726  25.250   7.650
 4646POPC   C1B19843   9.539  25.284   8.550
 4646POPC   C2B19844   9.483  25.265   8.250
 4646POPC   C3B19845   9.468  25.275   7.950
 4646POPC   C4B19846   9.474  25.276   7.650
 4647POPC   NC319847  15.164  11.341   9.450
 4647POPC   PO419848  15.209  11.333   9.150
 4647POPC   GL119849  15.227  11.323   8.850
 4647POPC   GL219850  15.144  11.418   8.850
 4647POPC   C1A19851  15.163  11.291   8.550
 4647POPC   D2A19852  15.161  11.282   8.250
 4647POPC   C3A19853  15.169  11.347   7.950
 4647POPC   C4A19854  15.145  11.274   7.650
 4647POPC   C1B19855  15.216  11.590   8.550
 4647POPC   C2B19856  15.177  11.512   8.250
 4647POPC   C3B19857  15.195  11.522   7.950
 4647POPC   C4B19858  15.139  11.591   7.650
 4648POPC   NC319859   6.621   0.446   9.450
 4648POPC   PO419860   6.625   0.413   9.150
 4648POPC   GL119861   6.677   0.425   8.850
 4648POPC   GL219862   6.489   0.497   8.850
 4648POPC   C1A19863   6.637   0.458   8.550
 4648POPC   D2A19864   6.683   0.436   8.250
 4648POPC   C3A19865   6.669   0.451   7.950
 4648POPC   C4A19866   6.601   0.434   7.650
 4648POPC   C1B19867   6.443   0.473   8.550
 4648POPC   C2B19868   6.419   0.466   8.250
 4648POPC   C3B19869   6.421   0.539   7.950
 4648POPC   C4B19870   6.450   0.478   7.650
 4649POPC   NC319871  19.013  35.340   9.450
 4649POPC   PO419872  19.081  35.385   9.150
 4649POPC   GL119873  19.050  35.323   8.850
 4649POPC   GL219874  19.117  35.474   8.850
 4649POPC   C1A19875  19.075  35.333   8.550
 4649POPC   D2A19876  19.027  35.307   8.250
 4649POPC   C3A19877  19.057  35.314   7.950
 4649POPC   C4A19878  19.097  35.369   7.650
 4649POPC   C1B19879  19.208  35.507   8.550
 4649POPC   C2B19880  19.288  35.548   8.250
 4649POPC   C3B19881  19.246  35.512   7.950
 4649POPC   C4B19882  19.280  35.546   7.650
 4650POPC   NC319883   1.989   5.901   9.450
 4650POPC   PO419884   1.942   5.824   9.150
 4650POPC   GL119885   1.964   5.824   8.850
 4650POPC   GL219886   1.883   5.874   8.850
 4650POPC   C1A19887   2.004   5.911   8.550
 4650POPC   D2A19888   1.955   5.871   8.250
 4650POPC   C3A19889   2.000   5.883   7.950
 4650POPC   C4A19890   1.988   5.863   7.650
 4650POPC   C1B19891   1.769   5.880   8.550
 4650POPC   C2B19892   1.781   5.791   8.250
 4650POPC   C3B19893   1.725   5.816   7.950
 4650POPC   C4B19894   1.741   5.881   7.650
 4651POPC   NC319895   1.241   4.334   9.450
 4651POPC   PO419896   1.231   4.367   9.150
 4651POPC   GL119897   1.223   4.340   8.850
 4651POPC   GL219898   1.340   4.266   8.850
 4651POPC   C1A19899   1.209   4.270   8.550
 4651POPC   D2A19900   1.219   4.288   8.250
 4651POPC   C3A19901   1.192   4.352   7.950
 4651POPC   C4A19902   1.170   4.284   7.650
 4651POPC   C1B19903   1.411   4.114   8.550
 4651POPC   C2B19904   1.392   4.111   8.250
 4651POPC   C3B19905   1.330   4.163   7.950
 4651POPC   C4B19906   1.384   4.142   7.650
 4652POPC   NC319907  23.686   9.741   9.450
 4652POPC   PO419908  23.699   9.735   9.150
 4652POPC   GL119909  23.760   9.734   8.850
 4652POPC   GL219910  23.645   9.687   8.850
 4652POPC   C1A19911  23.681   9.733   8.550
 4652POPC   D2A19912  23.674   9.795   8.250
 4652POPC   C3A19913  23.704   9.764   7.950
 4652POPC   C4A19914  23.709   9.781   7.650
 4652POPC   C1B19915  23.527   9.608   8.550
 4652POPC   C2B19916  23.495   9.615   8.250
 4652POPC   C3B19917  23.521   9.571   7.950
 4652POPC   C4B19918  23.562   9.623   7.650
 4653POPC   NC319919   3.547   2.771   9.450
 4653POPC   PO419920   3.574   2.807   9.150
 4653POPC   GL119921   3.513   2.791   8.850
 4653POPC   GL219922   3.555   2.657   8.850
 4653POPC   C1A19923   3.497   2.764   8.550
 4653POPC   D2A19924   3.570   2.807   8.250
 4653POPC   C3A19925   3.499   2.748   7.950
 4653POPC   C4A19926   3.572   2.740   7.650
 4653POPC   C1B19927   3.483   2.515   8.550
 4653POPC   C2B19928   3.530   2.568   8.250
 4653POPC   C3B19929   3.506   2.524   7.950
 4653POPC   C4B19930   3.530   2.481   7.650
 4654POPC   NC319931   9.776  33.037   9.450
 4654POPC   PO419932   9.795  33.068   9.150
 4654POPC   GL119933   9.738  32.988   8.850
 4654POPC   GL219934   9.766  32.888   8.850
 4654POPC   C1A19935   9.766  33.029   8.550
 4654POPC   D2A19936   9.776  33.040   8.250
 4654POPC   C3A19937   9.750  33.004   7.950
 4654POPC   C4A19938   9.787  33.073   7.650
 4654POPC   C1B19939   9.856  32.746   8.550
 4654POPC   C2B19940   9.804  32.808   8.250
 4654POPC   C3B19941   9.847  32.747   7.950
 4654POPC   C4B19942   9.858  32.803   7.650
 4655POPC   NC319943  19.846  29.112   9.450
 4655POPC   PO419944  19.829  29.132   9.150
 4655POPC   GL119945  19.821  29.136   8.850
 4655POPC   GL219946  19.884  29.077   8.850
 4655POPC   C1A19947  19.878  29.113   8.550
 4655POPC   D2A19948  19.812  29.154   8.250
 4655POPC   C3A19949  19.838  29.124   7.950
 4655POPC   C4A19950  19.874  29.100   7.650
 4655POPC   C1B19951  19.954  28.935   8.550
 4655POPC   C2B19952  19.958  28.906   8.250
 4655POPC   C3B19953  19.945  28.905   7.950
 4655POPC   C4B19954  19.932  28.905   7.650
 4656POPC   NC319955   5.879  33.775   9.450
 4656POPC   PO419956   5.908  33.788   9.150
 4656POPC   GL119957   5.821  33.847   8.850
 4656POPC   GL219958   5.870  33.638   8.850
 4656POPC   C1A19959   5.851  33.823   8.550
 4656POPC   D2A19960   5.830  33.817   8.250
 4656POPC   C3A19961   5.861  33.826   7.950
 4656POPC   C4A19962   5.842  33.782   7.650
 4656POPC   C1B19963   5.760  33.549   8.550
 4656POPC   C2B19964   5.758  33.558   8.250
 4656POPC   C3B19965   5.813  33.523   7.950
 4656POPC   C4B19966   5.749  33.588   7.650
 4657POPC   NC319967  31.484  40.777   9.450
 4657POPC   PO419968  31.505  40.789   9.150
 4657POPC   GL119969  31.471  40.782   8.850
 4657POPC   GL219970  31.359  40.771   8.850
 4657POPC   C1A19971  31.438  40.823   8.550
 4657POPC   D2A19972  31.510  40.832   8.250
 4657POPC   C3A19973  31.454  40.733   7.950
 4657POPC   C4A19974  31.511  40.784   7.650
 4657POPC   C1B19975  31.233  40.757   8.550
 4657POPC   C2B19976  31.271  40.769   8.250
 4657POPC   C3B19977  31.249  40.820   7.950
 4657POPC   C4B19978  31.254  40.817   7.650
 4658POPC   NC319979  26.807   6.653   9.450
 4658POPC   PO419980  26.782   6.608   9.150
 4658POPC   GL119981  26.770   6.664   8.850
 4658POPC   GL219982  26.798   6.506   8.850
 4658POPC   C1A19983  26.840   6.639   8.550
 4658POPC   D2A19984  26.812   6.597   8.250
 4658POPC   C3A19985  26.789   6.596   7.950
 4658POPC   C4A19986  26.856   6.631   7.650
 4658POPC   C1B19987  26.818   6.389   8.550
 4658POPC   C2B19988  26.824   6.395   8.250
 4658POPC   C3B19989  26.810   6.380   7.950
 4658POPC   C4B19990  26.849   6.398   7.650
 4659POPC   NC319991  15.177  36.164   9.450
 4659POPC   PO419992  15.137  36.155   9.150
 4659POPC   GL119993  15.187  36.138   8.850
 4659POPC   GL219994  15.253  36.007   8.850
 4659POPC   C1A19995  15.227  36.106   8.550
 4659POPC   D2A19996  15.159  36.109   8.250
 4659POPC   C3A19997  15.216  36.079   7.950
 4659POPC   C4A19998  15.148  36.127   7.650
 4659POPC   C1B19999  15.210  35.867   8.550
 4659POPC   C2B20000  15.225  35.863   8.250
 4659POPC   C3B20001  15.180  35.931   7.950
 4659POPC   C4B20002  15.259  35.858   7.650
 4660POPC   NC320003  10.512  43.094   9.450
 4660POPC   PO420004  10.512  43.103   9.150
 4660POPC   GL120005  10.491  43.109   8.850
 4660POPC   GL220006  10.389  43.216   8.850
 4660POPC   C1A20007  10.493  43.082   8.550
 4660POPC   D2A20008  10.546  43.118   8.250
 4660POPC   C3A20009  10.548  43.095   7.950
 4660POPC   C4A20010  10.533  43.103   7.650
 4660POPC   C1B20011  10.358  43.226   8.550
 4660POPC   C2B20012  10.320  43.208   8.250
 4660POPC   C3B20013  10.325  43.296   7.950
 4660POPC   C4B20014  10.339  43.214   7.650
 4661POPC   NC320015   4.280  33.841   9.450
 4661POPC   PO420016   4.339  33.766   9.150
 4661POPC   GL120017   4.316  33.775   8.850
 4661POPC   GL220018   4.416  33.739   8.850
 4661POPC   C1A20019   4.332  33.786   8.550
 4661POPC   D2A20020   4.302  33.820   8.250
 4661POPC   C3A20021   4.293  33.763   7.950
 4661POPC   C4A20022   4.306  33.776   7.650
 4661POPC   C1B20023   4.524  33.764   8.550
 4661POPC   C2B20024   4.560  33.754   8.250
 4661POPC   C3B20025   4.513  33.735   7.950
 4661POPC   C4B20026   4.603  33.769   7.650
 4662POPC   NC320027  38.475  22.904   9.450
 4662POPC   PO420028  38.487  22.970   9.150
 4662POPC   GL120029  38.454  22.983   8.850
 4662POPC   GL220030  38.292  22.956   8.850
 4662POPC   C1A20031  38.458  22.933   8.550
 4662POPC   D2A20032  38.427  22.988   8.250
 4662POPC   C3A20033  38.482  22.905   7.950
 4662POPC   C4A20034  38.413  22.986   7.650
 4662POPC   C1B20035  38.219  23.090   8.550
 4662POPC   C2B20036  38.225  23.012   8.250
 4662POPC   C3B20037  38.244  22.993   7.950
 4662POPC   C4B20038  38.260  23.030   7.650
 4663POPC   NC320039  27.570  35.323   9.450
 4663POPC   PO420040  27.548  35.342   9.150
 4663POPC   GL120041  27.623  35.371   8.850
 4663POPC   GL220042  27.522  35.447   8.850
 4663POPC   C1A20043  27.603  35.353   8.550
 4663POPC   D2A20044  27.585  35.329   8.250
 4663POPC   C3A20045  27.549  35.335   7.950
 4663POPC   C4A20046  27.562  35.346   7.650
 4663POPC   C1B20047  27.468  35.554   8.550
 4663POPC   C2B20048  27.432  35.499   8.250
 4663POPC   C3B20049  27.470  35.534   7.950
 4663POPC   C4B20050  27.426  35.581   7.650
 4664POPC   NC320051   8.184  31.442   9.450
 4664POPC   PO420052   8.245  31.485   9.150
 4664POPC   GL120053   8.204  31.437   8.850
 4664POPC   GL220054   8.139  31.427   8.850
 4664POPC   C1A20055   8.195  31.489   8.550
 4664POPC   D2A20056   8.198  31.487   8.250
 4664POPC   C3A20057   8.242  31.517   7.950
 4664POPC   C4A20058   8.181  31.461   7.650
 4664POPC   C1B20059   7.971  31.339   8.550
 4664POPC   C2B20060   8.018  31.272   8.250
 4664POPC   C3B20061   8.009  31.352   7.950
 4664POPC   C4B20062   8.001  31.323   7.650
 4665POPC   NC320063  43.867   8.221   9.450
 4665POPC   PO420064  43.880   8.208   9.150
 4665POPC   GL120065  43.901   8.204   8.850
 4665POPC   GL220066  43.891   8.065   8.850
 4665POPC   C1A20067  43.914   8.194   8.550
 4665POPC   D2A20068  43.873   8.245   8.250
 4665POPC   C3A20069  43.840   8.221   7.950
 4665POPC   C4A20070  43.852   8.172   7.650
 4665POPC   C1B20071  43.926   7.994   8.550
 4665POPC   C2B20072  43.949   7.996   8.250
 4665POPC   C3B20073  43.953   7.936   7.950
 4665POPC   C4B20074  43.916   7.915   7.650
 4666POPC   NC320075  12.122  36.878   9.450
 4666POPC   PO420076  12.114  36.869   9.150
 4666POPC   GL120077  12.100  36.883   8.850
 4666POPC   GL220078  11.969  37.019   8.850
 4666POPC   C1A20079  12.111  36.858   8.550
 4666POPC   D2A20080  12.070  36.857   8.250
 4666POPC   C3A20081  12.036  36.931   7.950
 4666POPC   C4A20082  12.109  36.923   7.650
 4666POPC   C1B20083  11.865  37.076   8.550
 4666POPC   C2B20084  11.899  37.063   8.250
 4666POPC   C3B20085  11.888  37.059   7.950
 4666POPC   C4B20086  11.833  37.087   7.650
 4667POPC   NC320087   9.706  36.932   9.450
 4667POPC   PO420088   9.751  36.912   9.150
 4667POPC   GL120089   9.768  36.923   8.850
 4667POPC   GL220090   9.765  36.762   8.850
 4667POPC   C1A20091   9.773  36.910   8.550
 4667POPC   D2A20092   9.781  36.948   8.250
 4667POPC   C3A20093   9.782  36.875   7.950
 4667POPC   C4A20094   9.770  36.939   7.650
 4667POPC   C1B20095   9.861  36.661   8.550
 4667POPC   C2B20096   9.839  36.710   8.250
 4667POPC   C3B20097   9.908  36.712   7.950
 4667POPC   C4B20098   9.908  36.684   7.650
 4668POPC   NC320099  41.578  43.078   9.450
 4668POPC   PO420100  41.598  43.154   9.150
 4668POPC   GL120101  41.545  43.064   8.850
 4668POPC   GL220102  41.470  43.013   8.850
 4668POPC   C1A20103  41.521  43.158   8.550
 4668POPC   D2A20104  41.594  43.120   8.250
 4668POPC   C3A20105  41.555  43.122   7.950
 4668POPC   C4A20106  41.529  43.063   7.650
 4668POPC   C1B20107  41.346  43.005   8.550
 4668POPC   C2B20108  41.365  42.997   8.250
 4668POPC   C3B20109  41.351  42.952   7.950
 4668POPC   C4B20110  41.341  42.930   7.650
 4669POPC   NC320111  35.375   4.350   9.450
 4669POPC   PO420112  35.330   4.347   9.150
 4669POPC   GL120113  35.397   4.271   8.850
 4669POPC   GL220114  35.331   4.211   8.850
 4669POPC   C1A20115  35.393   4.282   8.550
 4669POPC   D2A20116  35.359   4.332   8.250
 4669POPC   C3A20117  35.317   4.298   7.950
 4669POPC   C4A20118  35.335   4.319   7.650
 4669POPC   C1B20119  35.395   4.052   8.550
 4669POPC   C2B20120  35.360   4.108   8.250
 4669POPC   C3B20121  35.428   4.030   7.950
 4669POPC   C4B20122  35.389   4.115   7.650
 4670POPC   NC320123  26.826  34.568   9.450
 4670POPC   PO420124  26.791  34.552   9.150
 4670POPC   GL120125  26.795  34.597   8.850
 4670POPC   GL220126  26.737  34.712   8.850
 4670POPC   C1A20127  26.794  34.606   8.550
 4670POPC   D2A20128  26.782  34.587   8.250
 4670POPC   C3A20129  26.783  34.528   7.950
 4670POPC   C4A20130  26.774  34.613   7.650
 4670POPC   C1B20131  26.686  34.761   8.550
 4670POPC   C2B20132  26.736  34.801   8.250
 4670POPC   C3B20133  26.690  34.775   7.950
 4670POPC   C4B20134  26.686  34.791   7.650
 4671POPC   NC320135  36.910  20.659   9.450
 4671POPC   PO420136  36.899  20.603   9.150
 4671POPC   GL120137  36.911  20.606   8.850
 4671POPC   GL220138  37.017  20.668   8.850
 4671POPC   C1A20139  36.859  20.569   8.550
 4671POPC   D2A20140  36.867  20.644   8.250
 4671POPC   C3A20141  36.880  20.645   7.950
 4671POPC   C4A20142  36.910  20.605   7.650
 4671POPC   C1B20143  37.118  20.708   8.550
 4671POPC   C2B20144  37.107  20.720   8.250
 4671POPC   C3B20145  37.173  20.673   7.950
 4671POPC   C4B20146  37.148  20.701   7.650
 4672POPC   NC320147  14.417  27.554   9.450
 4672POPC   PO420148  14.379  27.614   9.150
 4672POPC   GL120149  14.425  27.588   8.850
 4672POPC   GL220150  14.535  27.624   8.850
 4672POPC   C1A20151  14.406  27.588   8.550
 4672POPC   D2A20152  14.400  27.613   8.250
 4672POPC   C3A20153  14.431  27.603   7.950
 4672POPC   C4A20154  14.432  27.640   7.650
 4672POPC   C1B20155  14.657  27.689   8.550
 4672POPC   C2B20156  14.630  27.706   8.250
 4672POPC   C3B20157  14.599  27.752   7.950
 4672POPC   C4B20158  14.583  27.740   7.650
 4673POPC   NC320159   0.391   4.346   9.450
 4673POPC   PO420160   0.436   4.274   9.150
 4673POPC   GL120161   0.396   4.293   8.850
 4673POPC   GL220162   0.375   4.248   8.850
 4673POPC   C1A20163   0.407   4.364   8.550
 4673POPC   D2A20164   0.453   4.291   8.250
 4673POPC   C3A20165   0.474   4.287   7.950
 4673POPC   C4A20166   0.466   4.316   7.650
 4673POPC   C1B20167   0.313   4.177   8.550
 4673POPC   C2B20168   0.277   4.172   8.250
 4673POPC   C3B20169   0.298   4.126   7.950
 4673POPC   C4B20170   0.278   4.143   7.650
 4674POPC   NC320171  13.611   0.420   9.450
 4674POPC   PO420172  13.618   0.401   9.150
 4674POPC   GL120173  13.675   0.415   8.850
 4674POPC   GL220174  13.746   0.537   8.850
 4674POPC   C1A20175  13.612   0.422   8.550
 4674POPC   D2A20176  13.607   0.418   8.250
 4674POPC   C3A20177  13.676   0.408   7.950
 4674POPC   C4A20178  13.649   0.443   7.650
 4674POPC   C1B20179  13.896   0.543   8.550
 4674POPC   C2B20180  13.874   0.588   8.250
 4674POPC   C3B20181  13.851   0.531   7.950
 4674POPC   C4B20182  13.855   0.539   7.650
 4675POPC   NC320183  43.092  15.968   9.450
 4675POPC   PO420184  43.150  15.998   9.150
 4675POPC   GL120185  43.087  15.995   8.850
 4675POPC   GL220186  43.070  16.082   8.850
 4675POPC   C1A20187  43.101  15.970   8.550
 4675POPC   D2A20188  43.082  15.930   8.250
 4675POPC   C3A20189  43.099  15.979   7.950
 4675POPC   C4A20190  43.155  15.984   7.650
 4675POPC   C1B20191  43.118  16.238   8.550
 4675POPC   C2B20192  43.121  16.189   8.250
 4675POPC   C3B20193  43.070  16.243   7.950
 4675POPC   C4B20194  43.114  16.179   7.650
 4676POPC   NC320195  10.550  20.588   9.450
 4676POPC   PO420196  10.482  20.586   9.150
 4676POPC   GL120197  10.566  20.580   8.850
 4676POPC   GL220198  10.501  20.518   8.850
 4676POPC   C1A20199  10.475  20.570   8.550
 4676POPC   D2A20200  10.516  20.596   8.250
 4676POPC   C3A20201  10.512  20.583   7.950
 4676POPC   C4A20202  10.508  20.639   7.650
 4676POPC   C1B20203  10.517  20.317   8.550
 4676POPC   C2B20204  10.572  20.406   8.250
 4676POPC   C3B20205  10.560  20.340   7.950
 4676POPC   C4B20206  10.526  20.323   7.650
 4677POPC   NC320207  26.812  26.054   9.450
 4677POPC   PO420208  26.812  25.995   9.150
 4677POPC   GL120209  26.824  26.008   8.850
 4677POPC   GL220210  26.654  26.011   8.850
 4677POPC   C1A20211  26.822  26.007   8.550
 4677POPC   D2A20212  26.791  26.040   8.250
 4677POPC   C3A20213  26.847  26.061   7.950
 4677POPC   C4A20214  26.841  26.062   7.650
 4677POPC   C1B20215  26.555  26.021   8.550
 4677POPC   C2B20216  26.562  26.071   8.250
 4677POPC   C3B20217  26.601  26.098   7.950
 4677POPC   C4B20218  26.614  26.103   7.650
 4678POPC   NC320219  14.386  38.418   9.450
 4678POPC   PO420220  14.394  38.505   9.150
 4678POPC   GL120221  14.395  38.472   8.850
 4678POPC   GL220222  14.292  38.514   8.850
 4678POPC   C1A20223  14.450  38.439   8.550
 4678POPC   D2A20224  14.366  38.476   8.250
 4678POPC   C3A20225  14.406  38.424   7.950
 4678POPC   C4A20226  14.404  38.496   7.650
 4678POPC   C1B20227  14.187  38.571   8.550
 4678POPC   C2B20228  14.197  38.591   8.250
 4678POPC   C3B20229  14.134  38.502   7.950
 4678POPC   C4B20230  14.126  38.523   7.650
 4679POPC   NC320231  22.132  40.792   9.450
 4679POPC   PO420232  22.172  40.832   9.150
 4679POPC   GL120233  22.116  40.793   8.850
 4679POPC   GL220234  22.245  40.677   8.850
 4679POPC   C1A20235  22.205  40.772   8.550
 4679POPC   D2A20236  22.142  40.751   8.250
 4679POPC   C3A20237  22.150  40.795   7.950
 4679POPC   C4A20238  22.208  40.815   7.650
 4679POPC   C1B20239  22.345  40.623   8.550
 4679POPC   C2B20240  22.278  40.588   8.250
 4679POPC   C3B20241  22.324  40.599   7.950
 4679POPC   C4B20242  22.289  40.600   7.650
 4680POPC   NC320243  10.572   1.252   9.450
 4680POPC   PO420244  10.566   1.205   9.150
 4680POPC   GL120245  10.552   1.190   8.850
 4680POPC   GL220246  10.561   1.066   8.850
 4680POPC   C1A20247  10.525   1.193   8.550
 4680POPC   D2A20248  10.541   1.201   8.250
 4680POPC   C3A20249  10.545   1.211   7.950
 4680POPC   C4A20250  10.507   1.215   7.650
 4680POPC   C1B20251  10.647   0.991   8.550
 4680POPC   C2B20252  10.657   1.040   8.250
 4680POPC   C3B20253  10.692   1.035   7.950
 4680POPC   C4B20254  10.698   0.959   7.650
 4681POPC   NC320255  29.956   1.994   9.450
 4681POPC   PO420256  29.887   1.974   9.150
 4681POPC   GL120257  29.970   1.993   8.850
 4681POPC   GL220258  29.948   2.112   8.850
 4681POPC   C1A20259  29.915   2.018   8.550
 4681POPC   D2A20260  29.878   1.980   8.250
 4681POPC   C3A20261  29.955   1.965   7.950
 4681POPC   C4A20262  29.911   2.003   7.650
 4681POPC   C1B20263  30.036   2.274   8.550
 4681POPC   C2B20264  30.018   2.260   8.250
 4681POPC   C3B20265  29.973   2.263   7.950
 4681POPC   C4B20266  30.035   2.211   7.650
 4682POPC   NC320267  30.728   7.440   9.450
 4682POPC   PO420268  30.738   7.438   9.150
 4682POPC   GL120269  30.671   7.407   8.850
 4682POPC   GL220270  30.774   7.471   8.850
 4682POPC   C1A20271  30.675   7.460   8.550
 4682POPC   D2A20272  30.667   7.383   8.250
 4682POPC   C3A20273  30.742   7.384   7.950
 4682POPC   C4A20274  30.725   7.433   7.650
 4682POPC   C1B20275  30.853   7.592   8.550
 4682POPC   C2B20276  30.890   7.546   8.250
 4682POPC   C3B20277  30.896   7.577   7.950
 4682POPC   C4B20278  30.834   7.599   7.650
 4683POPC   NC320279  10.555  19.795   9.450
 4683POPC   PO420280  10.512  19.787   9.150
 4683POPC   GL120281  10.485  19.815   8.850
 4683POPC   GL220282  10.470  19.789   8.850
 4683POPC   C1A20283  10.570  19.818   8.550
 4683POPC   D2A20284  10.526  19.861   8.250
 4683POPC   C3A20285  10.565  19.841   7.950
 4683POPC   C4A20286  10.544  19.836   7.650
 4683POPC   C1B20287  10.301  19.685   8.550
 4683POPC   C2B20288  10.381  19.622   8.250
 4683POPC   C3B20289  10.305  19.638   7.950
 4683POPC   C4B20290  10.317  19.692   7.650
 4684POPC   NC320291  17.543  43.889   9.450
 4684POPC   PO420292  17.508  43.895   9.150
 4684POPC   GL120293  17.528  43.926   8.850
 4684POPC   GL220294  17.520  44.013   8.850
 4684POPC   C1A20295  17.503  43.910   8.550
 4684POPC   D2A20296  17.466  43.927   8.250
 4684POPC   C3A20297  17.547  43.913   7.950
 4684POPC   C4A20298  17.534  43.923   7.650
 4684POPC   C1B20299  17.550  44.107   8.550
 4684POPC   C2B20300  17.623  44.140   8.250
 4684POPC   C3B20301  17.544  44.130   7.950
 4684POPC   C4B20302  17.591  44.118   7.650
 4685POPC   NC320303  22.190  36.095   9.450
 4685POPC   PO420304  22.131  36.155   9.150
 4685POPC   GL120305  22.166  36.109   8.850
 4685POPC   GL220306  22.048  36.242   8.850
 4685POPC   C1A20307  22.209  36.083   8.550
 4685POPC   D2A20308  22.188  36.141   8.250
 4685POPC   C3A20309  22.167  36.134   7.950
 4685POPC   C4A20310  22.155  36.166   7.650
 4685POPC   C1B20311  21.949  36.258   8.550
 4685POPC   C2B20312  21.980  36.283   8.250
 4685POPC   C3B20313  22.002  36.333   7.950
 4685POPC   C4B20314  21.993  36.299   7.650
 4686POPC   NC320315  22.975  11.315   9.450
 4686POPC   PO420316  22.897  11.263   9.150
 4686POPC   GL120317  22.948  11.307   8.850
 4686POPC   GL220318  22.781  11.253   8.850
 4686POPC   C1A20319  22.975  11.278   8.550
 4686POPC   D2A20320  22.897  11.279   8.250
 4686POPC   C3A20321  22.919  11.345   7.950
 4686POPC   C4A20322  22.973  11.332   7.650
 4686POPC   C1B20323  22.692  11.299   8.550
 4686POPC   C2B20324  22.654  11.245   8.250
 4686POPC   C3B20325  22.683  11.222   7.950
 4686POPC   C4B20326  22.726  11.241   7.650
 4687POPC   NC320327   9.000   7.406   9.450
 4687POPC   PO420328   9.008   7.404   9.150
 4687POPC   GL120329   8.956   7.381   8.850
 4687POPC   GL220330   9.002   7.497   8.850
 4687POPC   C1A20331   8.937   7.378   8.550
 4687POPC   D2A20332   9.022   7.404   8.250
 4687POPC   C3A20333   8.956   7.412   7.950
 4687POPC   C4A20334   8.996   7.428   7.650
 4687POPC   C1B20335   9.047   7.618   8.550
 4687POPC   C2B20336   8.999   7.715   8.250
 4687POPC   C3B20337   9.046   7.640   7.950
 4687POPC   C4B20338   9.062   7.660   7.650
 4688POPC   NC320339  27.552  14.389   9.450
 4688POPC   PO420340  27.624  14.366   9.150
 4688POPC   GL120341  27.630  14.431   8.850
 4688POPC   GL220342  27.544  14.341   8.850
 4688POPC   C1A20343  27.621  14.436   8.550
 4688POPC   D2A20344  27.604  14.360   8.250
 4688POPC   C3A20345  27.634  14.412   7.950
 4688POPC   C4A20346  27.604  14.443   7.650
 4688POPC   C1B20347  27.443  14.175   8.550
 4688POPC   C2B20348  27.475  14.164   8.250
 4688POPC   C3B20349  27.443  14.242   7.950
 4688POPC   C4B20350  27.459  14.190   7.650
 4689POPC   NC320351  31.471  17.509   9.450
 4689POPC   PO420352  31.488  17.504   9.150
 4689POPC   GL120353  31.486  17.488   8.850
 4689POPC   GL220354  31.591  17.501   8.850
 4689POPC   C1A20355  31.466  17.466   8.550
 4689POPC   D2A20356  31.520  17.461   8.250
 4689POPC   C3A20357  31.468  17.524   7.950
 4689POPC   C4A20358  31.490  17.523   7.650
 4689POPC   C1B20359  31.725  17.553   8.550
 4689POPC   C2B20360  31.763  17.523   8.250
 4689POPC   C3B20361  31.710  17.496   7.950
 4689POPC   C4B20362  31.690  17.514   7.650
 4690POPC   NC320363   8.165   8.943   9.450
 4690POPC   PO420364   8.197   9.000   9.150
 4690POPC   GL120365   8.223   8.974   8.850
 4690POPC   GL220366   8.329   9.032   8.850
 4690POPC   C1A20367   8.183   8.974   8.550
 4690POPC   D2A20368   8.182   8.980   8.250
 4690POPC   C3A20369   8.171   8.971   7.950
 4690POPC   C4A20370   8.217   8.957   7.650
 4690POPC   C1B20371   8.416   9.092   8.550
 4690POPC   C2B20372   8.379   9.143   8.250
 4690POPC   C3B20373   8.399   9.175   7.950
 4690POPC   C4B20374   8.357   9.124   7.650
 4691POPC   NC320375  15.983   2.773   9.450
 4691POPC   PO420376  15.950   2.801   9.150
 4691POPC   GL120377  15.926   2.797   8.850
 4691POPC   GL220378  15.967   2.886   8.850
 4691POPC   C1A20379  15.918   2.763   8.550
 4691POPC   D2A20380  15.922   2.741   8.250
 4691POPC   C3A20381  15.966   2.731   7.950
 4691POPC   C4A20382  16.002   2.810   7.650
 4691POPC   C1B20383  15.877   3.016   8.550
 4691POPC   C2B20384  15.874   3.037   8.250
 4691POPC   C3B20385  15.950   3.019   7.950
 4691POPC   C4B20386  15.923   3.002   7.650
 4692POPC   NC320387  43.916   4.366   9.450
 4692POPC   PO420388  43.872   4.299   9.150
 4692POPC   GL120389  43.898   4.311   8.850
 4692POPC   GL220390  43.819   4.363   8.850
 4692POPC   C1A20391  43.852   4.276   8.550
 4692POPC   D2A20392  43.836   4.270   8.250
 4692POPC   C3A20393  43.926   4.305   7.950
 4692POPC   C4A20394  43.892   4.287   7.650
 4692POPC   C1B20395  43.660   4.464   8.550
 4692POPC   C2B20396  43.685   4.448   8.250
 4692POPC   C3B20397  43.665   4.451   7.950
 4692POPC   C4B20398  43.702   4.464   7.650
 4693POPC   NC320399  15.131  26.865   9.450
 4693POPC   PO420400  15.161  26.816   9.150
 4693POPC   GL120401  15.135  26.788   8.850
 4693POPC   GL220402  15.275  26.775   8.850
 4693POPC   C1A20403  15.199  26.862   8.550
 4693POPC   D2A20404  15.224  26.849   8.250
 4693POPC   C3A20405  15.138  26.777   7.950
 4693POPC   C4A20406  15.140  26.816   7.650
 4693POPC   C1B20407  15.382  26.709   8.550
 4693POPC   C2B20408  15.376  26.641   8.250
 4693POPC   C3B20409  15.412  26.652   7.950
 4693POPC   C4B20410  15.431  26.663   7.650
 4694POPC   NC320411  44.659   8.230   9.450
 4694POPC   PO420412  44.621   8.205   9.150
 4694POPC   GL120413  44.647   8.221   8.850
 4694POPC   GL220414  44.626   8.331   8.850
 4694POPC   C1A20415  44.639   8.156   8.550
 4694POPC   D2A20416  44.704   8.201   8.250
 4694POPC   C3A20417  44.710   8.161   7.950
 4694POPC   C4A20418  44.628   8.187   7.650
 4694POPC   C1B20419  44.603   8.401   8.550
 4694POPC   C2B20420  44.558   8.459   8.250
 4694POPC   C3B20421  44.585   8.441   7.950
 4694POPC   C4B20422  44.531   8.418   7.650
 4695POPC   NC320423  10.522  29.103   9.450
 4695POPC   PO420424  10.553  29.137   9.150
 4695POPC   GL120425  10.555  29.190   8.850
 4695POPC   GL220426  10.550  29.064   8.850
 4695POPC   C1A20427  10.546  29.179   8.550
 4695POPC   D2A20428  10.518  29.164   8.250
 4695POPC   C3A20429  10.520  29.096   7.950
 4695POPC   C4A20430  10.489  29.157   7.650
 4695POPC   C1B20431  10.574  28.937   8.550
 4695POPC   C2B20432  10.522  28.907   8.250
 4695POPC   C3B20433  10.564  28.896   7.950
 4695POPC   C4B20434  10.551  28.910   7.650
 4696POPC   NC320435  35.367  24.477   9.450
 4696POPC   PO420436  35.363  24.494   9.150
 4696POPC   GL120437  35.324  24.500   8.850
 4696POPC   GL220438  35.329  24.359   8.850
 4696POPC   C1A20439  35.360  24.487   8.550
 4696POPC   D2A20440  35.306  24.450   8.250
 4696POPC   C3A20441  35.359  24.463   7.950
 4696POPC   C4A20442  35.326  24.517   7.650
 4696POPC   C1B20443  35.418  24.251   8.550
 4696POPC   C2B20444  35.338  24.240   8.250
 4696POPC   C3B20445  35.399  24.256   7.950
 4696POPC   C4B20446  35.389  24.244   7.650
 4697POPC   NC320447   5.086  12.847   9.450
 4697POPC   PO420448   5.065  12.846   9.150
 4697POPC   GL120449   5.114  12.841   8.850
 4697POPC   GL220450   5.142  12.784   8.850
 4697POPC   C1A20451   5.090  12.856   8.550
 4697POPC   D2A20452   5.047  12.846   8.250
 4697POPC   C3A20453   5.132  12.879   7.950
 4697POPC   C4A20454   5.096  12.851   7.650
 4697POPC   C1B20455   5.263  12.613   8.550
 4697POPC   C2B20456   5.278  12.618   8.250
 4697POPC   C3B20457   5.207  12.637   7.950
 4697POPC   C4B20458   5.233  12.641   7.650
 4698POPC   NC320459  40.006  40.801   9.450
 4698POPC   PO420460  39.966  40.801   9.150
 4698POPC   GL120461  40.041  40.791   8.850
 4698POPC   GL220462  39.896  40.772   8.850
 4698POPC   C1A20463  39.972  40.825   8.550
 4698POPC   D2A20464  39.972  40.830   8.250
 4698POPC   C3A20465  39.967  40.828   7.950
 4698POPC   C4A20466  39.969  40.747   7.650
 4698POPC   C1B20467  39.753  40.679   8.550
 4698POPC   C2B20468  39.825  40.647   8.250
 4698POPC   C3B20469  39.824  40.664   7.950
 4698POPC   C4B20470  39.825  40.649   7.650
 4699POPC   NC320471   2.738  16.709   9.450
 4699POPC   PO420472   2.793  16.705   9.150
 4699POPC   GL120473   2.801  16.745   8.850
 4699POPC   GL220474   2.905  16.650   8.850
 4699POPC   C1A20475   2.790  16.743   8.550
 4699POPC   D2A20476   2.718  16.688   8.250
 4699POPC   C3A20477   2.723  16.773   7.950
 4699POPC   C4A20478   2.736  16.701   7.650
 4699POPC   C1B20479   2.970  16.652   8.550
 4699POPC   C2B20480   2.976  16.599   8.250
 4699POPC   C3B20481   3.051  16.650   7.950
 4699POPC   C4B20482   3.017  16.688   7.650
 4700POPC   NC320483  29.108  31.451   9.450
 4700POPC   PO420484  29.117  31.484   9.150
 4700POPC   GL120485  29.108  31.484   8.850
 4700POPC   GL220486  29.157  31.549   8.850
 4700POPC   C1A20487  29.192  31.467   8.550
 4700POPC   D2A20488  29.173  31.495   8.250
 4700POPC   C3A20489  29.144  31.448   7.950
 4700POPC   C4A20490  29.149  31.513   7.650
 4700POPC   C1B20491  29.295  31.681   8.550
 4700POPC   C2B20492  29.268  31.748   8.250
 4700POPC   C3B20493  29.218  31.743   7.950
 4700POPC   C4B20494  29.210  31.740   7.650
 4701POPC   NC320495  38.411  31.423   9.450
 4701POPC   PO420496  38.410  31.465   9.150
 4701POPC   GL120497  38.484  31.515   8.850
 4701POPC   GL220498  38.480  31.628   8.850
 4701POPC   C1A20499  38.433  31.451   8.550
 4701POPC   D2A20500  38.432  31.449   8.250
 4701POPC   C3A20501  38.447  31.493   7.950
 4701POPC   C4A20502  38.407  31.432   7.650
 4701POPC   C1B20503  38.412  31.738   8.550
 4701POPC   C2B20504  38.437  31.679   8.250
 4701POPC   C3B20505  38.431  31.693   7.950
 4701POPC   C4B20506  38.398  31.711   7.650
 4702POPC   NC320507  38.460  30.662   9.450
 4702POPC   PO420508  38.418  30.742   9.150
 4702POPC   GL120509  38.473  30.708   8.850
 4702POPC   GL220510  38.507  30.571   8.850
 4702POPC   C1A20511  38.493  30.649   8.550
 4702POPC   D2A20512  38.465  30.680   8.250
 4702POPC   C3A20513  38.421  30.666   7.950
 4702POPC   C4A20514  38.483  30.669   7.650
 4702POPC   C1B20515  38.589  30.448   8.550
 4702POPC   C2B20516  38.532  30.464   8.250
 4702POPC   C3B20517  38.571  30.462   7.950
 4702POPC   C4B20518  38.595  30.511   7.650
 4703POPC   NC320519  29.874  23.733   9.450
 4703POPC   PO420520  29.956  23.705   9.150
 4703POPC   GL120521  29.939  23.728   8.850
 4703POPC   GL220522  30.016  23.744   8.850
 4703POPC   C1A20523  29.886  23.688   8.550
 4703POPC   D2A20524  29.880  23.726   8.250
 4703POPC   C3A20525  29.924  23.760   7.950
 4703POPC   C4A20526  29.873  23.711   7.650
 4703POPC   C1B20527  30.164  23.722   8.550
 4703POPC   C2B20528  30.133  23.647   8.250
 4703POPC   C3B20529  30.123  23.662   7.950
 4703POPC   C4B20530  30.121  23.692   7.650
 4704POPC   NC320531  22.179  42.303   9.450
 4704POPC   PO420532  22.196  42.375   9.150
 4704POPC   GL120533  22.133  42.339   8.850
 4704POPC   GL220534  22.198  42.461   8.850
 4704POPC   C1A20535  22.134  42.353   8.550
 4704POPC   D2A20536  22.177  42.309   8.250
 4704POPC   C3A20537  22.155  42.305   7.950
 4704POPC   C4A20538  22.159  42.335   7.650
 4704POPC   C1B20539  22.282  42.526   8.550
 4704POPC   C2B20540  22.271  42.545   8.250
 4704POPC   C3B20541  22.259  42.593   7.950
 4704POPC   C4B20542  22.257  42.554   7.650
 4705POPC   NC320543  37.636  44.635   9.450
 4705POPC   PO420544  37.728  44.678   9.150
 4705POPC   GL120545  37.691  44.693   8.850
 4705POPC   GL220546  37.584  44.760   8.850
 4705POPC   C1A20547  37.705  44.630   8.550
 4705POPC   D2A20548  37.701  44.706   8.250
 4705POPC   C3A20549  37.709  44.675   7.950
 4705POPC   C4A20550  37.648  44.671   7.650
 4705POPC   C1B20551  37.550  44.838   8.550
 4705POPC   C2B20552  37.548  44.876   8.250
 4705POPC   C3B20553  37.572  44.919   7.950
 4705POPC   C4B20554  37.570  44.896   7.650
 4706POPC   NC320555  40.741   4.313   9.450
 4706POPC   PO420556  40.754   4.305   9.150
 4706POPC   GL120557  40.753   4.290   8.850
 4706POPC   GL220558  40.743   4.443   8.850
 4706POPC   C1A20559  40.819   4.340   8.550
 4706POPC   D2A20560  40.784   4.288   8.250
 4706POPC   C3A20561  40.823   4.325   7.950
 4706POPC   C4A20562  40.743   4.295   7.650
 4706POPC   C1B20563  40.796   4.561   8.550
 4706POPC   C2B20564  40.734   4.550   8.250
 4706POPC   C3B20565  40.799   4.570   7.950
 4706POPC   C4B20566  40.764   4.584   7.650
 4707POPC   NC320567  19.037   1.254   9.450
 4707POPC   PO420568  19.079   1.194   9.150
 4707POPC   GL120569  19.091   1.165   8.850
 4707POPC   GL220570  19.130   1.318   8.850
 4707POPC   C1A20571  19.010   1.225   8.550
 4707POPC   D2A20572  19.057   1.200   8.250
 4707POPC   C3A20573  19.013   1.195   7.950
 4707POPC   C4A20574  19.043   1.189   7.650
 4707POPC   C1B20575  19.176   1.397   8.550
 4707POPC   C2B20576  19.178   1.437   8.250
 4707POPC   C3B20577  19.184   1.414   7.950
 4707POPC   C4B20578  19.205   1.461   7.650
 4708POPC   NC320579  31.425   7.405   9.450
 4708POPC   PO420580  31.481   7.442   9.150
 4708POPC   GL120581  31.467   7.400   8.850
 4708POPC   GL220582  31.576   7.423   8.850
 4708POPC   C1A20583  31.478   7.387   8.550
 4708POPC   D2A20584  31.505   7.431   8.250
 4708POPC   C3A20585  31.498   7.395   7.950
 4708POPC   C4A20586  31.475   7.459   7.650
 4708POPC   C1B20587  31.680   7.479   8.550
 4708POPC   C2B20588  31.671   7.473   8.250
 4708POPC   C3B20589  31.732   7.477   7.950
 4708POPC   C4B20590  31.681   7.535   7.650
 4709POPC   NC320591  20.626  19.852   9.450
 4709POPC   PO420592  20.604  19.817   9.150
 4709POPC   GL120593  20.634  19.833   8.850
 4709POPC   GL220594  20.484  19.776   8.850
 4709POPC   C1A20595  20.587  19.878   8.550
 4709POPC   D2A20596  20.653  19.874   8.250
 4709POPC   C3A20597  20.569  19.794   7.950
 4709POPC   C4A20598  20.572  19.881   7.650
 4709POPC   C1B20599  20.420  19.713   8.550
 4709POPC   C2B20600  20.417  19.761   8.250
 4709POPC   C3B20601  20.431  19.770   7.950
 4709POPC   C4B20602  20.418  19.716   7.650
 4710POPC   NC320603  12.882  39.236   9.450
 4710POPC   PO420604  12.899  39.220   9.150
 4710POPC   GL120605  12.821  39.246   8.850
 4710POPC   GL220606  12.756  39.295   8.850
 4710POPC   C1A20607  12.896  39.257   8.550
 4710POPC   D2A20608  12.839  39.217   8.250
 4710POPC   C3A20609  12.845  39.257   7.950
 4710POPC   C4A20610  12.875  39.208   7.650
 4710POPC   C1B20611  12.680  39.402   8.550
 4710POPC   C2B20612  12.686  39.389   8.250
 4710POPC   C3B20613  12.687  39.455   7.950
 4710POPC   C4B20614  12.718  39.426   7.650
 4711POPC   NC320615   2.760  29.944   9.450
 4711POPC   PO420616   2.718  29.965   9.150
 4711POPC   GL120617   2.719  29.930   8.850
 4711POPC   GL220618   2.924  29.945   8.850
 4711POPC   C1A20619   2.789  29.875   8.550
 4711POPC   D2A20620   2.811  29.939   8.250
 4711POPC   C3A20621   2.765  29.915   7.950
 4711POPC   C4A20622   2.785  29.895   7.650
 4711POPC   C1B20623   3.050  29.905   8.550
 4711POPC   C2B20624   2.968  29.915   8.250
 4711POPC   C3B20625   2.973  29.912   7.950
 4711POPC   C4B20626   3.039  29.936   7.650
 4712POPC   NC320627   6.694  22.986   9.450
 4712POPC   PO420628   6.640  22.958   9.150
 4712POPC   GL120629   6.681  22.890   8.850
 4712POPC   GL220630   6.734  22.965   8.850
 4712POPC   C1A20631   6.682  22.980   8.550
 4712POPC   D2A20632   6.637  22.945   8.250
 4712POPC   C3A20633   6.600  22.908   7.950
 4712POPC   C4A20634   6.652  22.976   7.650
 4712POPC   C1B20635   6.918  22.918   8.550
 4712POPC   C2B20636   6.896  22.968   8.250
 4712POPC   C3B20637   6.885  22.982   7.950
 4712POPC   C4B20638   6.851  22.982   7.650
 4713POPC   NC320639  12.846   0.450   9.450
 4713POPC   PO420640  12.809   0.403   9.150
 4713POPC   GL120641  12.847   0.395   8.850
 4713POPC   GL220642  12.703   0.386   8.850
 4713POPC   C1A20643  12.891   0.481   8.550
 4713POPC   D2A20644  12.888   0.408   8.250
 4713POPC   C3A20645  12.872   0.487   7.950
 4713POPC   C4A20646  12.848   0.477   7.650
 4713POPC   C1B20647  12.611   0.309   8.550
 4713POPC   C2B20648  12.572   0.393   8.250
 4713POPC   C3B20649  12.649   0.323   7.950
 4713POPC   C4B20650  12.597   0.388   7.650
 4714POPC   NC320651  33.791  43.842   9.450
 4714POPC   PO420652  33.812  43.840   9.150
 4714POPC   GL120653  33.826  43.922   8.850
 4714POPC   GL220654  33.752  43.795   8.850
 4714POPC   C1A20655  33.823  43.859   8.550
 4714POPC   D2A20656  33.777  43.848   8.250
 4714POPC   C3A20657  33.812  43.928   7.950
 4714POPC   C4A20658  33.797  43.910   7.650
 4714POPC   C1B20659  33.740  43.631   8.550
 4714POPC   C2B20660  33.743  43.688   8.250
 4714POPC   C3B20661  33.728  43.660   7.950
 4714POPC   C4B20662  33.733  43.688   7.650
 4715POPC   NC320663   5.058  44.659   9.450
 4715POPC   PO420664   5.121  44.651   9.150
 4715POPC   GL120665   5.068  44.685   8.850
 4715POPC   GL220666   4.991  44.780   8.850
 4715POPC   C1A20667   5.143  44.653   8.550
 4715POPC   D2A20668   5.094  44.636   8.250
 4715POPC   C3A20669   5.129  44.665   7.950
 4715POPC   C4A20670   5.083  44.655   7.650
 4715POPC   C1B20671   5.004  44.903   8.550
 4715POPC   C2B20672   4.994  44.907   8.250
 4715POPC   C3B20673   4.993  44.862   7.950
 4715POPC   C4B20674   4.986  44.837   7.650
 4716POPC   NC320675   2.809  12.041   9.450
 4716POPC   PO420676   2.781  12.105   9.150
 4716POPC   GL120677   2.753  12.040   8.850
 4716POPC   GL220678   2.913  12.081   8.850
 4716POPC   C1A20679   2.812  12.061   8.550
 4716POPC   D2A20680   2.742  12.065   8.250
 4716POPC   C3A20681   2.767  12.123   7.950
 4716POPC   C4A20682   2.800  12.125   7.650
 4716POPC   C1B20683   2.977  12.163   8.550
 4716POPC   C2B20684   3.020  12.166   8.250
 4716POPC   C3B20685   2.972  12.168   7.950
 4716POPC   C4B20686   3.018  12.225   7.650
 4717POPC   NC320687  38.495   1.945   9.450
 4717POPC   PO420688  38.474   1.950   9.150
 4717POPC   GL120689  38.448   2.005   8.850
 4717POPC   GL220690  38.364   1.923   8.850
 4717POPC   C1A20691  38.471   2.010   8.550
 4717POPC   D2A20692  38.479   1.991   8.250
 4717POPC   C3A20693  38.500   1.984   7.950
 4717POPC   C4A20694  38.442   1.996   7.650
 4717POPC   C1B20695  38.381   1.791   8.550
 4717POPC   C2B20696  38.406   1.784   8.250
 4717POPC   C3B20697  38.330   1.754   7.950
 4717POPC   C4B20698  38.334   1.713   7.650
 4718POPC   NC320699  30.703  24.445   9.450
 4718POPC   PO420700  30.660  24.498   9.150
 4718POPC   GL120701  30.702  24.468   8.850
 4718POPC   GL220702  30.658  24.614   8.850
 4718POPC   C1A20703  30.687  24.510   8.550
 4718POPC   D2A20704  30.724  24.512   8.250
 4718POPC   C3A20705  30.708  24.495   7.950
 4718POPC   C4A20706  30.685  24.490   7.650
 4718POPC   C1B20707  30.683  24.770   8.550
 4718POPC   C2B20708  30.688  24.763   8.250
 4718POPC   C3B20709  30.677  24.732   7.950
 4718POPC   C4B20710  30.680  24.774   7.650
 4719POPC   NC320711  41.538   3.579   9.450
 4719POPC   PO420712  41.541   3.566   9.150
 4719POPC   GL120713  41.595   3.565   8.850
 4719POPC   GL220714  41.451   3.615   8.850
 4719POPC   C1A20715  41.608   3.578   8.550
 4719POPC   D2A20716  41.593   3.560   8.250
 4719POPC   C3A20717  41.589   3.588   7.950
 4719POPC   C4A20718  41.599   3.586   7.650
 4719POPC   C1B20719  41.345   3.765   8.550
 4719POPC   C2B20720  41.437   3.708   8.250
 4719POPC   C3B20721  41.374   3.683   7.950
 4719POPC   C4B20722  41.398   3.703   7.650
 4720POPC   NC320723  36.150  22.196   9.450
 4720POPC   PO420724  36.176  22.191   9.150
 4720POPC   GL120725  36.167  22.138   8.850
 4720POPC   GL220726  36.055  22.203   8.850
 4720POPC   C1A20727  36.128  22.123   8.550
 4720POPC   D2A20728  36.078  22.202   8.250
 4720POPC   C3A20729  36.144  22.178   7.950
 4720POPC   C4A20730  36.162  22.167   7.650
 4720POPC   C1B20731  35.934  22.274   8.550
 4720POPC   C2B20732  35.951  22.298   8.250
 4720POPC   C3B20733  35.932  22.262   7.950
 4720POPC   C4B20734  35.959  22.269   7.650
 4721POPC   NC320735   6.677  29.954   9.450
 4721POPC   PO420736   6.677  29.897   9.150
 4721POPC   GL120737   6.675  29.933   8.850
 4721POPC   GL220738   6.522  29.997   8.850
 4721POPC   C1A20739   6.649  29.922   8.550
 4721POPC   D2A20740   6.627  29.951   8.250
 4721POPC   C3A20741   6.636  29.905   7.950
 4721POPC   C4A20742   6.689  29.969   7.650
 4721POPC   C1B20743   6.505  30.073   8.550
 4721POPC   C2B20744   6.477  30.101   8.250
 4721POPC   C3B20745   6.486  30.115   7.950
 4721POPC   C4B20746   6.449  30.155   7.650
 4722POPC   NC320747  25.295  13.635   9.450
 4722POPC   PO420748  25.228  13.641   9.150
 4722POPC   GL120749  25.293  13.596   8.850
 4722POPC   GL220750  25.146  13.626   8.850
 4722POPC   C1A20751  25.232  13.675   8.550
 4722POPC   D2A20752  25.265  13.644   8.250
 4722POPC   C3A20753  25.298  13.626   7.950
 4722POPC   C4A20754  25.264  13.586   7.650
 4722POPC   C1B20755  24.989  13.620   8.550
 4722POPC   C2B20756  25.013  13.644   8.250
 4722POPC   C3B20757  24.976  13.633   7.950
 4722POPC   C4B20758  25.043  13.709   7.650
 4723POPC   NC320759  10.561  44.622   9.450
 4723POPC   PO420760  10.494  44.630   9.150
 4723POPC   GL120761  10.476  44.640   8.850
 4723POPC   GL220762  10.402  44.722   8.850
 4723POPC   C1A20763  10.538  44.656   8.550
 4723POPC   D2A20764  10.560  44.640   8.250
 4723POPC   C3A20765  10.546  44.645   7.950
 4723POPC   C4A20766  10.489  44.687   7.650
 4723POPC   C1B20767  10.303  44.788   8.550
 4723POPC   C2B20768  10.337  44.848   8.250
 4723POPC   C3B20769  10.315  44.828   7.950
 4723POPC   C4B20770  10.311  44.822   7.650
 4724POPC   NC320771  28.325  15.142   9.450
 4724POPC   PO420772  28.338  15.221   9.150
 4724POPC   GL120773  28.389  15.225   8.850
 4724POPC   GL220774  28.419  15.349   8.850
 4724POPC   C1A20775  28.360  15.152   8.550
 4724POPC   D2A20776  28.415  15.141   8.250
 4724POPC   C3A20777  28.404  15.144   7.950
 4724POPC   C4A20778  28.330  15.228   7.650
 4724POPC   C1B20779  28.377  15.474   8.550
 4724POPC   C2B20780  28.378  15.420   8.250
 4724POPC   C3B20781  28.408  15.401   7.950
 4724POPC   C4B20782  28.440  15.457   7.650
 4725POPC   NC320783   5.834   9.018   9.450
 4725POPC   PO420784   5.877   8.954   9.150
 4725POPC   GL120785   5.866   8.947   8.850
 4725POPC   GL220786   6.008   9.047   8.850
 4725POPC   C1A20787   5.897   9.006   8.550
 4725POPC   D2A20788   5.911   8.963   8.250
 4725POPC   C3A20789   5.820   8.961   7.950
 4725POPC   C4A20790   5.865   9.005   7.650
 4725POPC   C1B20791   6.108   9.114   8.550
 4725POPC   C2B20792   6.129   9.026   8.250
 4725POPC   C3B20793   6.050   9.076   7.950
 4725POPC   C4B20794   6.143   9.045   7.650
 4726POPC   NC320795  16.777  43.153   9.450
 4726POPC   PO420796  16.719  43.061   9.150
 4726POPC   GL120797  16.737  43.091   8.850
 4726POPC   GL220798  16.689  43.240   8.850
 4726POPC   C1A20799  16.774  43.133   8.550
 4726POPC   D2A20800  16.691  43.066   8.250
 4726POPC   C3A20801  16.696  43.076   7.950
 4726POPC   C4A20802  16.683  43.128   7.650
 4726POPC   C1B20803  16.612  43.264   8.550
 4726POPC   C2B20804  16.613  43.351   8.250
 4726POPC   C3B20805  16.584  43.305   7.950
 4726POPC   C4B20806  16.628  43.262   7.650
 4727POPC   NC320807  36.107  14.355   9.450
 4727POPC   PO420808  36.096  14.451   9.150
 4727POPC   GL120809  36.090  14.453   8.850
 4727POPC   GL220810  36.281  14.466   8.850
 4727POPC   C1A20811  36.122  14.385   8.550
 4727POPC   D2A20812  36.115  14.362   8.250
 4727POPC   C3A20813  36.167  14.376   7.950
 4727POPC   C4A20814  36.103  14.425   7.650
 4727POPC   C1B20815  36.358  14.464   8.550
 4727POPC   C2B20816  36.391  14.448   8.250
 4727POPC   C3B20817  36.380  14.440   7.950
 4727POPC   C4B20818  36.320  14.507   7.650
 4728POPC   NC320819  44.687  44.612   9.450
 4728POPC   PO420820  44.615  44.661   9.150
 4728POPC   GL120821  44.690  44.684   8.850
 4728POPC   GL220822  44.752  44.541   8.850
 4728POPC   C1A20823  44.687  44.709   8.550
 4728POPC   D2A20824  44.628  44.684   8.250
 4728POPC   C3A20825  44.667  44.634   7.950
 4728POPC   C4A20826  44.676  44.643   7.650
 4728POPC   C1B20827  44.823  44.469   8.550
 4728POPC   C2B20828  44.823  44.453   8.250
 4728POPC   C3B20829  44.850  44.495   7.950
 4728POPC   C4B20830  44.850  44.495   7.650
 4729POPC   NC320831  17.550  31.473   9.450
 4729POPC   PO420832  17.536  31.423   9.150
 4729POPC   GL120833  17.534  31.506   8.850
 4729POPC   GL220834  17.509  31.626   8.850
 4729POPC   C1A20835  17.510  31.486   8.550
 4729POPC   D2A20836  17.460  31.458   8.250
 4729POPC   C3A20837  17.553  31.520   7.950
 4729POPC   C4A20838  17.509  31.444   7.650
 4729POPC   C1B20839  17.466  31.728   8.550
 4729POPC   C2B20840  17.447  31.738   8.250
 4729POPC   C3B20841  17.483  31.678   7.950
 4729POPC   C4B20842  17.444  31.736   7.650
 4730POPC   NC320843   5.823  22.975   9.450
 4730POPC   PO420844   5.853  22.922   9.150
 4730POPC   GL120845   5.849  22.923   8.850
 4730POPC   GL220846   5.871  23.040   8.850
 4730POPC   C1A20847   5.864  22.914   8.550
 4730POPC   D2A20848   5.858  22.939   8.250
 4730POPC   C3A20849   5.906  22.929   7.950
 4730POPC   C4A20850   5.832  22.963   7.650
 4730POPC   C1B20851   5.911  23.199   8.550
 4730POPC   C2B20852   5.930  23.181   8.250
 4730POPC   C3B20853   5.959  23.168   7.950
 4730POPC   C4B20854   5.911  23.214   7.650
 4731POPC   NC320855  40.810  39.265   9.450
 4731POPC   PO420856  40.773  39.244   9.150
 4731POPC   GL120857  40.815  39.230   8.850
 4731POPC   GL220858  40.731  39.112   8.850
 4731POPC   C1A20859  40.743  39.214   8.550
 4731POPC   D2A20860  40.778  39.279   8.250
 4731POPC   C3A20861  40.829  39.233   7.950
 4731POPC   C4A20862  40.740  39.218   7.650
 4731POPC   C1B20863  40.729  39.028   8.550
 4731POPC   C2B20864  40.675  38.968   8.250
 4731POPC   C3B20865  40.690  39.040   7.950
 4731POPC   C4B20866  40.697  39.016   7.650
 4732POPC   NC320867   9.748  36.105   9.450
 4732POPC   PO420868   9.721  36.134   9.150
 4732POPC   GL120869   9.710  36.141   8.850
 4732POPC   GL220870   9.648  36.095   8.850
 4732POPC   C1A20871   9.699  36.105   8.550
 4732POPC   D2A20872   9.779  36.154   8.250
 4732POPC   C3A20873   9.766  36.168   7.950
 4732POPC   C4A20874   9.778  36.152   7.650
 4732POPC   C1B20875   9.521  36.136   8.550
 4732POPC   C2B20876   9.534  36.118   8.250
 4732POPC   C3B20877   9.542  36.137   7.950
 4732POPC   C4B20878   9.476  36.112   7.650
 4733POPC   NC320879  22.204   6.623   9.450
 4733POPC   PO420880  22.185   6.605   9.150
 4733POPC   GL120881  22.159   6.599   8.850
 4733POPC   GL220882  22.233   6.525   8.850
 4733POPC   C1A20883  22.138   6.659   8.550
 4733POPC   D2A20884  22.166   6.682   8.250
 4733POPC   C3A20885  22.172   6.646   7.950
 4733POPC   C4A20886  22.127   6.622   7.650
 4733POPC   C1B20887  22.268   6.361   8.550
 4733POPC   C2B20888  22.292   6.416   8.250
 4733POPC   C3B20889  22.232   6.437   7.950
 4733POPC   C4B20890  22.202   6.368   7.650
 4734POPC   NC320891   4.349   8.189   9.450
 4734POPC   PO420892   4.358   8.223   9.150
 4734POPC   GL120893   4.331   8.163   8.850
 4734POPC   GL220894   4.363   8.342   8.850
 4734POPC   C1A20895   4.358   8.208   8.550
 4734POPC   D2A20896   4.332   8.239   8.250
 4734POPC   C3A20897   4.274   8.213   7.950
 4734POPC   C4A20898   4.320   8.167   7.650
 4734POPC   C1B20899   4.395   8.469   8.550
 4734POPC   C2B20900   4.399   8.482   8.250
 4734POPC   C3B20901   4.361   8.415   7.950
 4734POPC   C4B20902   4.389   8.489   7.650
 4735POPC   NC320903  44.645  23.680   9.450
 4735POPC   PO420904  44.693  23.737   9.150
 4735POPC   GL120905  44.652  23.747   8.850
 4735POPC   GL220906  44.828  23.770   8.850
 4735POPC   C1A20907  44.653  23.664   8.550
 4735POPC   D2A20908  44.671  23.760   8.250
 4735POPC   C3A20909  44.619  23.753   7.950
 4735POPC   C4A20910  44.701  23.694   7.650
 4735POPC   C1B20911  44.862  23.733   8.550
 4735POPC   C2B20912  44.863  23.787   8.250
 4735POPC   C3B20913  44.915  23.714   7.950
 4735POPC   C4B20914  44.915  23.731   7.650
 4736POPC   NC320915  14.395  40.010   9.450
 4736POPC   PO420916  14.381  40.013   9.150
 4736POPC   GL120917  14.403  40.002   8.850
 4736POPC   GL220918  14.261  39.953   8.850
 4736POPC   C1A20919  14.434  39.986   8.550
 4736POPC   D2A20920  14.382  39.978   8.250
 4736POPC   C3A20921  14.379  40.027   7.950
 4736POPC   C4A20922  14.423  40.045   7.650
 4736POPC   C1B20923  14.181  39.887   8.550
 4736POPC   C2B20924  14.211  39.854   8.250
 4736POPC   C3B20925  14.144  39.864   7.950
 4736POPC   C4B20926  14.161  39.845   7.650
 4737POPC   NC320927  26.829  26.853   9.450
 4737POPC   PO420928  26.794  26.854   9.150
 4737POPC   GL120929  26.857  26.806   8.850
 4737POPC   GL220930  26.776  26.910   8.850
 4737POPC   C1A20931  26.835  26.862   8.550
 4737POPC   D2A20932  26.848  26.863   8.250
 4737POPC   C3A20933  26.833  26.818   7.950
 4737POPC   C4A20934  26.771  26.779   7.650
 4737POPC   C1B20935  26.787  27.099   8.550
 4737POPC   C2B20936  26.810  27.083   8.250
 4737POPC   C3B20937  26.744  27.085   7.950
 4737POPC   C4B20938  26.810  27.055   7.650
 4738POPC   NC320939  43.896  25.224   9.450
 4738POPC   PO420940  43.893  25.253   9.150
 4738POPC   GL120941  43.877  25.288   8.850
 4738POPC   GL220942  43.857  25.435   8.850
 4738POPC   C1A20943  43.926  25.254   8.550
 4738POPC   D2A20944  43.851  25.234   8.250
 4738POPC   C3A20945  43.858  25.235   7.950
 4738POPC   C4A20946  43.849  25.252   7.650
 4738POPC   C1B20947  43.896  25.534   8.550
 4738POPC   C2B20948  43.858  25.489   8.250
 4738POPC   C3B20949  43.885  25.507   7.950
 4738POPC   C4B20950  43.929  25.558   7.650
 4739POPC   NC320951   7.470  27.629   9.450
 4739POPC   PO420952   7.382  27.632   9.150
 4739POPC   GL120953   7.408  27.625   8.850
 4739POPC   GL220954   7.551  27.729   8.850
 4739POPC   C1A20955   7.405  27.587   8.550
 4739POPC   D2A20956   7.423  27.612   8.250
 4739POPC   C3A20957   7.400  27.558   7.950
 4739POPC   C4A20958   7.470  27.607   7.650
 4739POPC   C1B20959   7.576  27.786   8.550
 4739POPC   C2B20960   7.558  27.753   8.250
 4739POPC   C3B20961   7.570  27.776   7.950
 4739POPC   C4B20962   7.564  27.751   7.650
 4740POPC   NC320963  37.655  14.425   9.450
 4740POPC   PO420964  37.723  14.428   9.150
 4740POPC   GL120965  37.671  14.371   8.850
 4740POPC   GL220966  37.539  14.443   8.850
 4740POPC   C1A20967  37.650  14.434   8.550
 4740POPC   D2A20968  37.700  14.402   8.250
 4740POPC   C3A20969  37.692  14.387   7.950
 4740POPC   C4A20970  37.716  14.397   7.650
 4740POPC   C1B20971  37.458  14.416   8.550
 4740POPC   C2B20972  37.460  14.466   8.250
 4740POPC   C3B20973  37.477  14.376   7.950
 4740POPC   C4B20974  37.383  14.405   7.650
 4741POPC   NC320975  27.632  29.951   9.450
 4741POPC   PO420976  27.613  29.939   9.150
 4741POPC   GL120977  27.584  29.910   8.850
 4741POPC   GL220978  27.678  29.885   8.850
 4741POPC   C1A20979  27.580  29.930   8.550
 4741POPC   D2A20980  27.592  29.899   8.250
 4741POPC   C3A20981  27.551  29.920   7.950
 4741POPC   C4A20982  27.561  29.926   7.650
 4741POPC   C1B20983  27.795  29.901   8.550
 4741POPC   C2B20984  27.830  29.978   8.250
 4741POPC   C3B20985  27.885  29.973   7.950
 4741POPC   C4B20986  27.818  29.983   7.650
 4742POPC   NC320987  30.725  12.060   9.450
 4742POPC   PO420988  30.742  12.044   9.150
 4742POPC   GL120989  30.668  12.049   8.850
 4742POPC   GL220990  30.650  11.931   8.850
 4742POPC   C1A20991  30.701  12.068   8.550
 4742POPC   D2A20992  30.692  12.054   8.250
 4742POPC   C3A20993  30.729  12.082   7.950
 4742POPC   C4A20994  30.659  12.073   7.650
 4742POPC   C1B20995  30.566  11.843   8.550
 4742POPC   C2B20996  30.666  11.808   8.250
 4742POPC   C3B20997  30.659  11.860   7.950
 4742POPC   C4B20998  30.631  11.825   7.650
 4743POPC   NC320999  19.852  19.823   9.450
 4743POPC   PO421000  19.884  19.792   9.150
 4743POPC   GL121001  19.871  19.835   8.850
 4743POPC   GL221002  19.971  19.931   8.850
 4743POPC   C1A21003  19.847  19.846   8.550
 4743POPC   D2A21004  19.880  19.879   8.250
 4743POPC   C3A21005  19.832  19.883   7.950
 4743POPC   C4A21006  19.813  19.842   7.650
 4743POPC   C1B21007  20.073  19.893   8.550
 4743POPC   C2B21008  20.087  19.963   8.250
 4743POPC   C3B21009  20.089  19.967   7.950
 4743POPC   C4B21010  20.046  19.945   7.650
 4744POPC   NC321011  42.293  32.986   9.450
 4744POPC   PO421012  42.377  32.982   9.150
 4744POPC   GL121013  42.313  33.006   8.850
 4744POPC   GL221014  42.175  32.974   8.850
 4744POPC   C1A21015  42.367  33.016   8.550
 4744POPC   D2A21016  42.353  33.046   8.250
 4744POPC   C3A21017  42.302  33.063   7.950
 4744POPC   C4A21018  42.316  32.992   7.650
 4744POPC   C1B21019  42.088  32.964   8.550
 4744POPC   C2B21020  42.072  32.917   8.250
 4744POPC   C3B21021  42.107  32.967   7.950
 4744POPC   C4B21022  42.071  32.940   7.650
 4745POPC   NC321023  26.787  23.693   9.450
 4745POPC   PO421024  26.824  23.715   9.150
 4745POPC   GL121025  26.796  23.735   8.850
 4745POPC   GL221026  26.752  23.581   8.850
 4745POPC   C1A21027  26.772  23.671   8.550
 4745POPC   D2A21028  26.810  23.711   8.250
 4745POPC   C3A21029  26.777  23.716   7.950
 4745POPC   C4A21030  26.787  23.703   7.650
 4745POPC   C1B21031  26.703  23.541   8.550
 4745POPC   C2B21032  26.700  23.469   8.250
 4745POPC   C3B21033  26.679  23.504   7.950
 4745POPC   C4B21034  26.654  23.472   7.650
 4746POPC   NC321035   6.689  15.976   9.450
 4746POPC   PO421036   6.668  15.990   9.150
 4746POPC   GL121037   6.616  15.989   8.850
 4746POPC   GL221038   6.591  15.871   8.850
 4746POPC   C1A21039   6.597  15.979   8.550
 4746POPC   D2A21040   6.621  15.910   8.250
 4746POPC   C3A21041   6.643  15.949   7.950
 4746POPC   C4A21042   6.658  15.920   7.650
 4746POPC   C1B21043   6.443  15.728   8.550
 4746POPC   C2B21044   6.503  15.740   8.250
 4746POPC   C3B21045   6.505  15.786   7.950
 4746POPC   C4B21046   6.450  15.763   7.650
 4747POPC   NC321047  24.474  15.193   9.450
 4747POPC   PO421048  24.490  15.141   9.150
 4747POPC   GL121049  24.488  15.187   8.850
 4747POPC   GL221050  24.504  15.118   8.850
 4747POPC   C1A21051  24.514  15.136   8.550
 4747POPC   D2A21052  24.537  15.160   8.250
 4747POPC   C3A21053  24.449  15.156   7.950
 4747POPC   C4A21054  24.501  15.202   7.650
 4747POPC   C1B21055  24.632  14.924   8.550
 4747POPC   C2B21056  24.588  14.989   8.250
 4747POPC   C3B21057  24.643  14.944   7.950
 4747POPC   C4B21058  24.561  14.933   7.650
 4748POPC   NC321059  22.931  12.822   9.450
 4748POPC   PO421060  22.978  12.895   9.150
 4748POPC   GL121061  22.895  12.876   8.850
 4748POPC   GL221062  22.834  12.790   8.850
 4748POPC   C1A21063  22.968  12.840   8.550
 4748POPC   D2A21064  22.907  12.868   8.250
 4748POPC   C3A21065  22.923  12.875   7.950
 4748POPC   C4A21066  22.983  12.865   7.650
 4748POPC   C1B21067  22.822  12.671   8.550
 4748POPC   C2B21068  22.855  12.673   8.250
 4748POPC   C3B21069  22.856  12.629   7.950
 4748POPC   C4B21070  22.847  12.633   7.650
 4749POPC   NC321071   5.132  33.768   9.450
 4749POPC   PO421072   5.132  33.831   9.150
 4749POPC   GL121073   5.071  33.802   8.850
 4749POPC   GL221074   5.128  33.939   8.850
 4749POPC   C1A21075   5.129  33.821   8.550
 4749POPC   D2A21076   5.116  33.822   8.250
 4749POPC   C3A21077   5.126  33.826   7.950
 4749POPC   C4A21078   5.115  33.759   7.650
 4749POPC   C1B21079   5.145  34.090   8.550
 4749POPC   C2B21080   5.130  34.003   8.250
 4749POPC   C3B21081   5.171  34.042   7.950
 4749POPC   C4B21082   5.123  34.019   7.650
 4750POPC   NC321083  43.912   2.761   9.450
 4750POPC   PO421084  43.891   2.781   9.150
 4750POPC   GL121085  43.916   2.749   8.850
 4750POPC   GL221086  43.979   2.748   8.850
 4750POPC   C1A21087  43.888   2.777   8.550
 4750POPC   D2A21088  43.873   2.782   8.250
 4750POPC   C3A21089  43.933   2.726   7.950
 4750POPC   C4A21090  43.932   2.782   7.650
 4750POPC   C1B21091  44.182   2.722   8.550
 4750POPC   C2B21092  44.150   2.718   8.250
 4750POPC   C3B21093  44.143   2.713   7.950
 4750POPC   C4B21094  44.106   2.724   7.650
 4751POPC   NC321095  42.291  22.190   9.450
 4751POPC   PO421096  42.320  22.153   9.150
 4751POPC   GL121097  42.367  22.132   8.850
 4751POPC   GL221098  42.407  22.292   8.850
 4751POPC   C1A21099  42.295  22.171   8.550
 4751POPC   D2A21100  42.367  22.148   8.250
 4751POPC   C3A21101  42.348  22.182   7.950
 4751POPC   C4A21102  42.305  22.146   7.650
 4751POPC   C1B21103  42.558  22.372   8.550
 4751POPC   C2B21104  42.540  22.355   8.250
 4751POPC   C3B21105  42.499  22.364   7.950
 4751POPC   C4B21106  42.508  22.287   7.650
 4752POPC   NC321107  36.122  36.099   9.450
 4752POPC   PO421108  36.145  36.141   9.150
 4752POPC   GL121109  36.125  36.171   8.850
 4752POPC   GL221110  36.067  36.212   8.850
 4752POPC   C1A21111  36.121  36.081   8.550
 4752POPC   D2A21112  36.122  36.127   8.250
 4752POPC   C3A21113  36.145  36.130   7.950
 4752POPC   C4A21114  36.169  36.177   7.650
 4752POPC   C1B21115  36.006  36.268   8.550
 4752POPC   C2B21116  35.922  36.360   8.250
 4752POPC   C3B21117  36.015  36.272   7.950
 4752POPC   C4B21118  35.945  36.341   7.650
 4753POPC   NC321119  35.310  36.127   9.450
 4753POPC   PO421120  35.387  36.157   9.150
 4753POPC   GL121121  35.350  36.156   8.850
 4753POPC   GL221122  35.387  36.003   8.850
 4753POPC   C1A21123  35.337  36.122   8.550
 4753POPC   D2A21124  35.327  36.147   8.250
 4753POPC   C3A21125  35.343  36.103   7.950
 4753POPC   C4A21126  35.400  36.161   7.650
 4753POPC   C1B21127  35.449  35.860   8.550
 4753POPC   C2B21128  35.480  35.848   8.250
 4753POPC   C3B21129  35.405  35.939   7.950
 4753POPC   C4B21130  35.460  35.933   7.650
 4754POPC   NC321131   0.400  15.193   9.450
 4754POPC   PO421132   0.398  15.222   9.150
 4754POPC   GL121133   0.473  15.172   8.850
 4754POPC   GL221134   0.326  15.251   8.850
 4754POPC   C1A21135   0.400  15.196   8.550
 4754POPC   D2A21136   0.480  15.194   8.250
 4754POPC   C3A21137   0.436  15.218   7.950
 4754POPC   C4A21138   0.428  15.162   7.650
 4754POPC   C1B21139   0.167  15.294   8.550
 4754POPC   C2B21140   0.219  15.234   8.250
 4754POPC   C3B21141   0.185  15.258   7.950
 4754POPC   C4B21142   0.205  15.273   7.650
 4755POPC   NC321143  31.463  36.877   9.450
 4755POPC   PO421144  31.436  36.901   9.150
 4755POPC   GL121145  31.444  36.874   8.850
 4755POPC   GL221146  31.328  36.955   8.850
 4755POPC   C1A21147  31.481  36.873   8.550
 4755POPC   D2A21148  31.456  36.920   8.250
 4755POPC   C3A21149  31.480  36.916   7.950
 4755POPC   C4A21150  31.502  36.856   7.650
 4755POPC   C1B21151  31.232  36.886   8.550
 4755POPC   C2B21152  31.269  36.965   8.250
 4755POPC   C3B21153  31.215  36.951   7.950
 4755POPC   C4B21154  31.240  36.934   7.650
 4756POPC   NC321155  30.679  21.425   9.450
 4756POPC   PO421156  30.675  21.387   9.150
 4756POPC   GL121157  30.709  21.354   8.850
 4756POPC   GL221158  30.798  21.353   8.850
 4756POPC   C1A21159  30.682  21.385   8.550
 4756POPC   D2A21160  30.709  21.412   8.250
 4756POPC   C3A21161  30.664  21.403   7.950
 4756POPC   C4A21162  30.684  21.364   7.650
 4756POPC   C1B21163  30.995  21.342   8.550
 4756POPC   C2B21164  30.964  21.384   8.250
 4756POPC   C3B21165  30.986  21.436   7.950
 4756POPC   C4B21166  30.915  21.432   7.650
 4757POPC   NC321167  29.136  43.888   9.450
 4757POPC   PO421168  29.169  43.906   9.150
 4757POPC   GL121169  29.185  43.893   8.850
 4757POPC   GL221170  29.220  43.850   8.850
 4757POPC   C1A21171  29.156  43.923   8.550
 4757POPC   D2A21172  29.099  43.919   8.250
 4757POPC   C3A21173  29.112  43.926   7.950
 4757POPC   C4A21174  29.099  43.913   7.650
 4757POPC   C1B21175  29.407  43.821   8.550
 4757POPC   C2B21176  29.348  43.824   8.250
 4757POPC   C3B21177  29.363  43.827   7.950
 4757POPC   C4B21178  29.350  43.824   7.650
 4758POPC   NC321179   0.429  44.651   9.450
 4758POPC   PO421180   0.418  44.689   9.150
 4758POPC   GL121181   0.442  44.617   8.850
 4758POPC   GL221182   0.462  44.518   8.850
 4758POPC   C1A21183   0.397  44.634   8.550
 4758POPC   D2A21184   0.477  44.621   8.250
 4758POPC   C3A21185   0.389  44.630   7.950
 4758POPC   C4A21186   0.437  44.645   7.650
 4758POPC   C1B21187   0.555  44.494   8.550
 4758POPC   C2B21188   0.615  44.486   8.250
 4758POPC   C3B21189   0.564  44.440   7.950
 4758POPC   C4B21190   0.612  44.408   7.650
 4759POPC   NC321191  17.500  37.679   9.450
 4759POPC   PO421192  17.511  37.647   9.150
 4759POPC   GL121193  17.529  37.645   8.850
 4759POPC   GL221194  17.386  37.597   8.850
 4759POPC   C1A21195  17.521  37.663   8.550
 4759POPC   D2A21196  17.545  37.706   8.250
 4759POPC   C3A21197  17.501  37.648   7.950
 4759POPC   C4A21198  17.459  37.636   7.650
 4759POPC   C1B21199  17.336  37.521   8.550
 4759POPC   C2B21200  17.298  37.543   8.250
 4759POPC   C3B21201  17.272  37.551   7.950
 4759POPC   C4B21202  17.279  37.518   7.650
 4760POPC   NC321203  24.523  26.043   9.450
 4760POPC   PO421204  24.483  26.080   9.150
 4760POPC   GL121205  24.458  26.032   8.850
 4760POPC   GL221206  24.631  26.050   8.850
 4760POPC   C1A21207  24.522  26.061   8.550
 4760POPC   D2A21208  24.502  26.074   8.250
 4760POPC   C3A21209  24.460  26.028   7.950
 4760POPC   C4A21210  24.494  26.000   7.650
 4760POPC   C1B21211  24.747  26.053   8.550
 4760POPC   C2B21212  24.737  26.023   8.250
 4760POPC   C3B21213  24.768  26.007   7.950
 4760POPC   C4B21214  24.776  26.021   7.650
 4761POPC   NC321215  37.631  43.068   9.450
 4761POPC   PO421216  37.726  43.081   9.150
 4761POPC   GL121217  37.662  43.152   8.850
 4761POPC   GL221218  37.686  43.179   8.850
 4761POPC   C1A21219  37.703  43.090   8.550
 4761POPC   D2A21220  37.661  43.072   8.250
 4761POPC   C3A21221  37.683  43.065   7.950
 4761POPC   C4A21222  37.664  43.064   7.650
 4761POPC   C1B21223  37.796  43.322   8.550
 4761POPC   C2B21224  37.744  43.302   8.250
 4761POPC   C3B21225  37.782  43.355   7.950
 4761POPC   C4B21226  37.800  43.359   7.650
 4762POPC   NC321227  31.449  32.218   9.450
 4762POPC   PO421228  31.443  32.292   9.150
 4762POPC   GL121229  31.433  32.217   8.850
 4762POPC   GL221230  31.334  32.225   8.850
 4762POPC   C1A21231  31.490  32.219   8.550
 4762POPC   D2A21232  31.471  32.272   8.250
 4762POPC   C3A21233  31.490  32.296   7.950
 4762POPC   C4A21234  31.447  32.217   7.650
 4762POPC   C1B21235  31.243  32.151   8.550
 4762POPC   C2B21236  31.286  32.192   8.250
 4762POPC   C3B21237  31.261  32.109   7.950
 4762POPC   C4B21238  31.258  32.143   7.650
 4763POPC   NC321239   3.513   5.895   9.450
 4763POPC   PO421240   3.590   5.910   9.150
 4763POPC   GL121241   3.556   5.870   8.850
 4763POPC   GL221242   3.614   5.944   8.850
 4763POPC   C1A21243   3.553   5.841   8.550
 4763POPC   D2A21244   3.500   5.884   8.250
 4763POPC   C3A21245   3.567   5.916   7.950
 4763POPC   C4A21246   3.505   5.835   7.650
 4763POPC   C1B21247   3.739   6.023   8.550
 4763POPC   C2B21248   3.773   6.020   8.250
 4763POPC   C3B21249   3.748   5.996   7.950
 4763POPC   C4B21250   3.766   6.011   7.650
 4764POPC   NC321251   1.257  18.328   9.450
 4764POPC   PO421252   1.254  18.323   9.150
 4764POPC   GL121253   1.225  18.280   8.850
 4764POPC   GL221254   1.197  18.187   8.850
 4764POPC   C1A21255   1.193  18.246   8.550
 4764POPC   D2A21256   1.241  18.276   8.250
 4764POPC   C3A21257   1.263  18.240   7.950
 4764POPC   C4A21258   1.190  18.278   7.650
 4764POPC   C1B21259   1.177  18.084   8.550
 4764POPC   C2B21260   1.160  18.061   8.250
 4764POPC   C3B21261   1.186  18.046   7.950
 4764POPC   C4B21262   1.157  18.011   7.650
 4765POPC   NC321263  33.756  23.740   9.450
 4765POPC   PO421264  33.798  23.730   9.150
 4765POPC   GL121265  33.784  23.678   8.850
 4765POPC   GL221266  33.854  23.783   8.850
 4765POPC   C1A21267  33.773  23.693   8.550
 4765POPC   D2A21268  33.819  23.738   8.250
 4765POPC   C3A21269  33.818  23.752   7.950
 4765POPC   C4A21270  33.818  23.752   7.650
 4765POPC   C1B21271  33.940  23.968   8.550
 4765POPC   C2B21272  33.879  23.948   8.250
 4765POPC   C3B21273  33.960  23.910   7.950
 4765POPC   C4B21274  33.891  23.906   7.650
 4766POPC   NC321275  19.883  26.786   9.450
 4766POPC   PO421276  19.795  26.847   9.150
 4766POPC   GL121277  19.806  26.770   8.850
 4766POPC   GL221278  19.822  26.886   8.850
 4766POPC   C1A21279  19.832  26.859   8.550
 4766POPC   D2A21280  19.855  26.788   8.250
 4766POPC   C3A21281  19.859  26.818   7.950
 4766POPC   C4A21282  19.790  26.852   7.650
 4766POPC   C1B21283  19.686  27.064   8.550
 4766POPC   C2B21284  19.774  27.093   8.250
 4766POPC   C3B21285  19.742  27.058   7.950
 4766POPC   C4B21286  19.693  27.057   7.650
 4767POPC   NC321287   6.624  42.373   9.450
 4767POPC   PO421288   6.634  42.347   9.150
 4767POPC   GL121289   6.671  42.311   8.850
 4767POPC   GL221290   6.728  42.403   8.850
 4767POPC   C1A21291   6.617  42.306   8.550
 4767POPC   D2A21292   6.640  42.383   8.250
 4767POPC   C3A21293   6.649  42.330   7.950
 4767POPC   C4A21294   6.656  42.288   7.650
 4767POPC   C1B21295   6.842  42.553   8.550
 4767POPC   C2B21296   6.855  42.499   8.250
 4767POPC   C3B21297   6.855  42.513   7.950
 4767POPC   C4B21298   6.876  42.549   7.650
 4768POPC   NC321299   6.628  43.858   9.450
 4768POPC   PO421300   6.610  43.926   9.150
 4768POPC   GL121301   6.667  43.871   8.850
 4768POPC   GL221302   6.513  43.893   8.850
 4768POPC   C1A21303   6.651  43.898   8.550
 4768POPC   D2A21304   6.673  43.861   8.250
 4768POPC   C3A21305   6.656  43.875   7.950
 4768POPC   C4A21306   6.664  43.864   7.650
 4768POPC   C1B21307   6.367  43.786   8.550
 4768POPC   C2B21308   6.375  43.770   8.250
 4768POPC   C3B21309   6.413  43.846   7.950
 4768POPC   C4B21310   6.418  43.828   7.650
 4769POPC   NC321311  36.897  30.700   9.450
 4769POPC   PO421312  36.926  30.681   9.150
 4769POPC   GL121313  36.926  30.675   8.850
 4769POPC   GL221314  36.850  30.817   8.850
 4769POPC   C1A21315  36.936  30.735   8.550
 4769POPC   D2A21316  36.888  30.725   8.250
 4769POPC   C3A21317  36.862  30.746   7.950
 4769POPC   C4A21318  36.912  30.692   7.650
 4769POPC   C1B21319  36.930  30.929   8.550
 4769POPC   C2B21320  36.858  30.918   8.250
 4769POPC   C3B21321  36.838  30.918   7.950
 4769POPC   C4B21322  36.845  30.977   7.650
 4770POPC   NC321323  32.237  35.358   9.450
 4770POPC   PO421324  32.247  35.327   9.150
 4770POPC   GL121325  32.227  35.381   8.850
 4770POPC   GL221326  32.122  35.310   8.850
 4770POPC   C1A21327  32.243  35.306   8.550
 4770POPC   D2A21328  32.264  35.325   8.250
 4770POPC   C3A21329  32.203  35.308   7.950
 4770POPC   C4A21330  32.210  35.357   7.650
 4770POPC   C1B21331  32.026  35.137   8.550
 4770POPC   C2B21332  32.040  35.170   8.250
 4770POPC   C3B21333  32.047  35.185   7.950
 4770POPC   C4B21334  32.105  35.195   7.650
 4771POPC   NC321335  22.175  32.230   9.450
 4771POPC   PO421336  22.124  32.277   9.150
 4771POPC   GL121337  22.207  32.268   8.850
 4771POPC   GL221338  22.192  32.412   8.850
 4771POPC   C1A21339  22.152  32.228   8.550
 4771POPC   D2A21340  22.172  32.207   8.250
 4771POPC   C3A21341  22.165  32.252   7.950
 4771POPC   C4A21342  22.152  32.217   7.650
 4771POPC   C1B21343  22.161  32.517   8.550
 4771POPC   C2B21344  22.239  32.463   8.250
 4771POPC   C3B21345  22.219  32.517   7.950
 4771POPC   C4B21346  22.207  32.497   7.650
 4772POPC   NC321347  38.460  38.456   9.450
 4772POPC   PO421348  38.472  38.422   9.150
 4772POPC   GL121349  38.491  38.445   8.850
 4772POPC   GL221350  38.468  38.576   8.850
 4772POPC   C1A21351  38.426  38.486   8.550
 4772POPC   D2A21352  38.414  38.474   8.250
 4772POPC   C3A21353  38.410  38.434   7.950
 4772POPC   C4A21354  38.456  38.439   7.650
 4772POPC   C1B21355  38.453  38.677   8.550
 4772POPC   C2B21356  38.506  38.734   8.250
 4772POPC   C3B21357  38.475  38.689   7.950
 4772POPC   C4B21358  38.503  38.655   7.650
 4773POPC   NC321359   7.444   5.851   9.450
 4773POPC   PO421360   7.449   5.849   9.150
 4773POPC   GL121361   7.385   5.916   8.850
 4773POPC   GL221362   7.347   5.733   8.850
 4773POPC   C1A21363   7.399   5.912   8.550
 4773POPC   D2A21364   7.432   5.872   8.250
 4773POPC   C3A21365   7.425   5.917   7.950
 4773POPC   C4A21366   7.371   5.894   7.650
 4773POPC   C1B21367   7.299   5.708   8.550
 4773POPC   C2B21368   7.306   5.684   8.250
 4773POPC   C3B21369   7.249   5.636   7.950
 4773POPC   C4B21370   7.322   5.652   7.650
 4774POPC   NC321371  25.302  29.177   9.450
 4774POPC   PO421372  25.217  29.160   9.150
 4774POPC   GL121373  25.269  29.170   8.850
 4774POPC   GL221374  25.159  29.105   8.850
 4774POPC   C1A21375  25.250  29.132   8.550
 4774POPC   D2A21376  25.263  29.165   8.250
 4774POPC   C3A21377  25.277  29.129   7.950
 4774POPC   C4A21378  25.224  29.189   7.650
 4774POPC   C1B21379  25.094  28.975   8.550
 4774POPC   C2B21380  25.062  28.951   8.250
 4774POPC   C3B21381  25.111  28.978   7.950
 4774POPC   C4B21382  25.051  28.974   7.650
 4775POPC   NC321383  23.753  21.396   9.450
 4775POPC   PO421384  23.743  21.376   9.150
 4775POPC   GL121385  23.696  21.337   8.850
 4775POPC   GL221386  23.824  21.255   8.850
 4775POPC   C1A21387  23.713  21.380   8.550
 4775POPC   D2A21388  23.717  21.372   8.250
 4775POPC   C3A21389  23.752  21.358   7.950
 4775POPC   C4A21390  23.746  21.411   7.650
 4775POPC   C1B21391  23.833  21.128   8.550
 4775POPC   C2B21392  23.812  21.144   8.250
 4775POPC   C3B21393  23.818  21.224   7.950
 4775POPC   C4B21394  23.822  21.169   7.650
 4776POPC   NC321395  43.911  22.967   9.450
 4776POPC   PO421396  43.857  22.915   9.150
 4776POPC   GL121397  43.852  22.899   8.850
 4776POPC   GL221398  44.059  22.958   8.850
 4776POPC   C1A21399  43.872  22.943   8.550
 4776POPC   D2A21400  43.847  22.969   8.250
 4776POPC   C3A21401  43.857  22.894   7.950
 4776POPC   C4A21402  43.887  22.904   7.650
 4776POPC   C1B21403  44.141  22.958   8.550
 4776POPC   C2B21404  44.144  22.926   8.250
 4776POPC   C3B21405  44.122  22.942   7.950
 4776POPC   C4B21406  44.106  22.861   7.650
 4777POPC   NC321407  28.383  36.892   9.450
 4777POPC   PO421408  28.394  36.889   9.150
 4777POPC   GL121409  28.385  36.940   8.850
 4777POPC   GL221410  28.496  36.929   8.850
 4777POPC   C1A21411  28.367  36.877   8.550
 4777POPC   D2A21412  28.376  36.890   8.250
 4777POPC   C3A21413  28.388  36.916   7.950
 4777POPC   C4A21414  28.379  36.951   7.650
 4777POPC   C1B21415  28.595  36.999   8.550
 4777POPC   C2B21416  28.601  37.045   8.250
 4777POPC   C3B21417  28.581  37.033   7.950
 4777POPC   C4B21418  28.584  37.005   7.650
 4778POPC   NC321419  27.626  43.855   9.450
 4778POPC   PO421420  27.613  43.921   9.150
 4778POPC   GL121421  27.617  43.904   8.850
 4778POPC   GL221422  27.537  44.044   8.850
 4778POPC   C1A21423  27.626  43.874   8.550
 4778POPC   D2A21424  27.544  43.849   8.250
 4778POPC   C3A21425  27.596  43.915   7.950
 4778POPC   C4A21426  27.620  43.873   7.650
 4778POPC   C1B21427  27.480  44.166   8.550
 4778POPC   C2B21428  27.511  44.128   8.250
 4778POPC   C3B21429  27.478  44.078   7.950
 4778POPC   C4B21430  27.508  44.146   7.650
 4779POPC   NC321431  31.495  39.192   9.450
 4779POPC   PO421432  31.503  39.185   9.150
 4779POPC   GL121433  31.446  39.184   8.850
 4779POPC   GL221434  31.578  39.305   8.850
 4779POPC   C1A21435  31.487  39.196   8.550
 4779POPC   D2A21436  31.444  39.272   8.250
 4779POPC   C3A21437  31.486  39.209   7.950
 4779POPC   C4A21438  31.461  39.231   7.650
 4779POPC   C1B21439  31.706  39.307   8.550
 4779POPC   C2B21440  31.741  39.279   8.250
 4779POPC   C3B21441  31.729  39.354   7.950
 4779POPC   C4B21442  31.754  39.359   7.650
 4780POPC   NC321443  36.926  18.325   9.450
 4780POPC   PO421444  36.928  18.235   9.150
 4780POPC   GL121445  36.873  18.329   8.850
 4780POPC   GL221446  37.029  18.327   8.850
 4780POPC   C1A21447  36.862  18.264   8.550
 4780POPC   D2A21448  36.914  18.307   8.250
 4780POPC   C3A21449  36.902  18.303   7.950
 4780POPC   C4A21450  36.922  18.233   7.650
 4780POPC   C1B21451  37.096  18.472   8.550
 4780POPC   C2B21452  37.128  18.398   8.250
 4780POPC   C3B21453  37.146  18.467   7.950
 4780POPC   C4B21454  37.079  18.467   7.650
 4781POPC   NC321455  18.236  40.788   9.450
 4781POPC   PO421456  18.237  40.766   9.150
 4781POPC   GL121457  18.319  40.789   8.850
 4781POPC   GL221458  18.212  40.619   8.850
 4781POPC   C1A21459  18.323  40.798   8.550
 4781POPC   D2A21460  18.304  40.799   8.250
 4781POPC   C3A21461  18.268  40.745   7.950
 4781POPC   C4A21462  18.287  40.760   7.650
 4781POPC   C1B21463  18.241  40.524   8.550
 4781POPC   C2B21464  18.236  40.551   8.250
 4781POPC   C3B21465  18.217  40.530   7.950
 4781POPC   C4B21466  18.180  40.585   7.650
 4782POPC   NC321467   0.440  15.977   9.450
 4782POPC   PO421468   0.429  15.909   9.150
 4782POPC   GL121469   0.423  15.983   8.850
 4782POPC   GL221470   0.398  15.834   8.850
 4782POPC   C1A21471   0.436  15.952   8.550
 4782POPC   D2A21472   0.400  15.946   8.250
 4782POPC   C3A21473   0.442  15.986   7.950
 4782POPC   C4A21474   0.476  15.977   7.650
 4782POPC   C1B21475   0.312  15.689   8.550
 4782POPC   C2B21476   0.330  15.725   8.250
 4782POPC   C3B21477   0.316  15.683   7.950
 4782POPC   C4B21478   0.296  15.755   7.650
 4783POPC   NC321479  42.299  39.217   9.450
 4783POPC   PO421480  42.367  39.209   9.150
 4783POPC   GL121481  42.318  39.277   8.850
 4783POPC   GL221482  42.337  39.123   8.850
 4783POPC   C1A21483  42.343  39.194   8.550
 4783POPC   D2A21484  42.364  39.244   8.250
 4783POPC   C3A21485  42.285  39.192   7.950
 4783POPC   C4A21486  42.313  39.192   7.650
 4783POPC   C1B21487  42.318  39.020   8.550
 4783POPC   C2B21488  42.277  38.943   8.250
 4783POPC   C3B21489  42.329  38.978   7.950
 4783POPC   C4B21490  42.274  38.936   7.650
 4784POPC   NC321491  27.587  21.407   9.450
 4784POPC   PO421492  27.565  21.379   9.150
 4784POPC   GL121493  27.588  21.355   8.850
 4784POPC   GL221494  27.675  21.346   8.850
 4784POPC   C1A21495  27.576  21.431   8.550
 4784POPC   D2A21496  27.575  21.422   8.250
 4784POPC   C3A21497  27.569  21.420   7.950
 4784POPC   C4A21498  27.559  21.374   7.650
 4784POPC   C1B21499  27.752  21.168   8.550
 4784POPC   C2B21500  27.751  21.163   8.250
 4784POPC   C3B21501  27.755  21.181   7.950
 4784POPC   C4B21502  27.819  21.219   7.650
 4785POPC   NC321503  24.496   4.357   9.450
 4785POPC   PO421504  24.474   4.362   9.150
 4785POPC   GL121505  24.484   4.354   8.850
 4785POPC   GL221506  24.579   4.228   8.850
 4785POPC   C1A21507  24.539   4.353   8.550
 4785POPC   D2A21508  24.464   4.366   8.250
 4785POPC   C3A21509  24.497   4.332   7.950
 4785POPC   C4A21510  24.453   4.290   7.650
 4785POPC   C1B21511  24.558   4.083   8.550
 4785POPC   C2B21512  24.602   4.075   8.250
 4785POPC   C3B21513  24.588   4.059   7.950
 4785POPC   C4B21514  24.567   4.046   7.650
 4786POPC   NC321515   8.946  20.638   9.450
 4786POPC   PO421516   8.993  20.572   9.150
 4786POPC   GL121517   8.942  20.625   8.850
 4786POPC   GL221518   9.109  20.660   8.850
 4786POPC   C1A21519   9.008  20.640   8.550
 4786POPC   D2A21520   8.992  20.581   8.250
 4786POPC   C3A21521   8.974  20.595   7.950
 4786POPC   C4A21522   8.955  20.640   7.650
 4786POPC   C1B21523   9.171  20.768   8.550
 4786POPC   C2B21524   9.176  20.829   8.250
 4786POPC   C3B21525   9.187  20.804   7.950
 4786POPC   C4B21526   9.198  20.837   7.650
 4787POPC   NC321527   1.259  12.848   9.450
 4787POPC   PO421528   1.201  12.876   9.150
 4787POPC   GL121529   1.237  12.849   8.850
 4787POPC   GL221530   1.116  12.965   8.850
 4787POPC   C1A21531   1.168  12.823   8.550
 4787POPC   D2A21532   1.249  12.849   8.250
 4787POPC   C3A21533   1.194  12.811   7.950
 4787POPC   C4A21534   1.228  12.859   7.650
 4787POPC   C1B21535   1.126  13.081   8.550
 4787POPC   C2B21536   1.077  13.066   8.250
 4787POPC   C3B21537   1.159  13.094   7.950
 4787POPC   C4B21538   1.154  13.061   7.650
 4788POPC   NC321539  19.881   2.731   9.450
 4788POPC   PO421540  19.880   2.735   9.150
 4788POPC   GL121541  19.884   2.772   8.850
 4788POPC   GL221542  19.771   2.613   8.850
 4788POPC   C1A21543  19.838   2.808   8.550
 4788POPC   D2A21544  19.807   2.783   8.250
 4788POPC   C3A21545  19.809   2.779   7.950
 4788POPC   C4A21546  19.866   2.731   7.650
 4788POPC   C1B21547  19.736   2.524   8.550
 4788POPC   C2B21548  19.739   2.525   8.250
 4788POPC   C3B21549  19.788   2.570   7.950
 4788POPC   C4B21550  19.789   2.504   7.650
 4789POPC   NC321551   8.170  24.495   9.450
 4789POPC   PO421552   8.212  24.474   9.150
 4789POPC   GL121553   8.162  24.532   8.850
 4789POPC   GL221554   8.330  24.466   8.850
 4789POPC   C1A21555   8.232  24.455   8.550
 4789POPC   D2A21556   8.178  24.483   8.250
 4789POPC   C3A21557   8.191  24.487   7.950
 4789POPC   C4A21558   8.178  24.507   7.650
 4789POPC   C1B21559   8.428  24.432   8.550
 4789POPC   C2B21560   8.482  24.453   8.250
 4789POPC   C3B21561   8.480  24.370   7.950
 4789POPC   C4B21562   8.466  24.392   7.650
 4790POPC   NC321563  28.395   9.777   9.450
 4790POPC   PO421564  28.414   9.729   9.150
 4790POPC   GL121565  28.322   9.781   8.850
 4790POPC   GL221566  28.447   9.786   8.850
 4790POPC   C1A21567  28.417   9.709   8.550
 4790POPC   D2A21568  28.365   9.701   8.250
 4790POPC   C3A21569  28.365   9.728   7.950
 4790POPC   C4A21570  28.377   9.729   7.650
 4790POPC   C1B21571  28.561   9.806   8.550
 4790POPC   C2B21572  28.640   9.870   8.250
 4790POPC   C3B21573  28.589   9.816   7.950
 4790POPC   C4B21574  28.639   9.876   7.650
 4791POPC   NC321575   1.962  16.712   9.450
 4791POPC   PO421576   1.953  16.776   9.150
 4791POPC   GL121577   1.988  16.763   8.850
 4791POPC   GL221578   2.012  16.591   8.850
 4791POPC   C1A21579   1.956  16.691   8.550
 4791POPC   D2A21580   1.990  16.747   8.250
 4791POPC   C3A21581   1.957  16.741   7.950
 4791POPC   C4A21582   1.953  16.763   7.650
 4791POPC   C1B21583   2.094  16.526   8.550
 4791POPC   C2B21584   2.055  16.509   8.250
 4791POPC   C3B21585   2.044  16.512   7.950
 4791POPC   C4B21586   2.089  16.492   7.650
 4792POPC   NC321587   9.785   9.723   9.450
 4792POPC   PO421588   9.700   9.780   9.150
 4792POPC   GL121589   9.720   9.715   8.850
 4792POPC   GL221590   9.616   9.759   8.850
 4792POPC   C1A21591   9.720   9.734   8.550
 4792POPC   D2A21592   9.711   9.771   8.250
 4792POPC   C3A21593   9.736   9.798   7.950
 4792POPC   C4A21594   9.783   9.784   7.650
 4792POPC   C1B21595   9.494   9.788   8.550
 4792POPC   C2B21596   9.495   9.792   8.250
 4792POPC   C3B21597   9.539   9.748   7.950
 4792POPC   C4B21598   9.466   9.723   7.650
 4793POPC   NC321599  14.401   3.569   9.450
 4793POPC   PO421600  14.386   3.520   9.150
 4793POPC   GL121601  14.419   3.508   8.850
 4793POPC   GL221602  14.354   3.440   8.850
 4793POPC   C1A21603  14.367   3.516   8.550
 4793POPC   D2A21604  14.358   3.535   8.250
 4793POPC   C3A21605  14.404   3.543   7.950
 4793POPC   C4A21606  14.372   3.533   7.650
 4793POPC   C1B21607  14.336   3.308   8.550
 4793POPC   C2B21608  14.386   3.300   8.250
 4793POPC   C3B21609  14.315   3.338   7.950
 4793POPC   C4B21610  14.325   3.290   7.650
 4794POPC   NC321611  25.288  25.266   9.450
 4794POPC   PO421612  25.261  25.239   9.150
 4794POPC   GL121613  25.244  25.224   8.850
 4794POPC   GL221614  25.395  25.312   8.850
 4794POPC   C1A21615  25.278  25.250   8.550
 4794POPC   D2A21616  25.243  25.228   8.250
 4794POPC   C3A21617  25.298  25.313   7.950
 4794POPC   C4A21618  25.222  25.273   7.650
 4794POPC   C1B21619  25.477  25.272   8.550
 4794POPC   C2B21620  25.536  25.334   8.250
 4794POPC   C3B21621  25.505  25.315   7.950
 4794POPC   C4B21622  25.524  25.313   7.650
 4795POPC   NC321623  12.823  22.901   9.450
 4795POPC   PO421624  12.852  22.943   9.150
 4795POPC   GL121625  12.896  22.965   8.850
 4795POPC   GL221626  12.995  22.829   8.850
 4795POPC   C1A21627  12.852  22.889   8.550
 4795POPC   D2A21628  12.836  22.951   8.250
 4795POPC   C3A21629  12.869  22.938   7.950
 4795POPC   C4A21630  12.876  22.949   7.650
 4795POPC   C1B21631  13.061  22.793   8.550
 4795POPC   C2B21632  13.003  22.786   8.250
 4795POPC   C3B21633  13.049  22.748   7.950
 4795POPC   C4B21634  13.025  22.802   7.650
 4796POPC   NC321635   2.003  22.977   9.450
 4796POPC   PO421636   1.999  22.890   9.150
 4796POPC   GL121637   1.976  22.921   8.850
 4796POPC   GL221638   1.932  23.067   8.850
 4796POPC   C1A21639   1.967  22.972   8.550
 4796POPC   D2A21640   2.025  22.902   8.250
 4796POPC   C3A21641   1.966  22.985   7.950
 4796POPC   C4A21642   2.018  22.902   7.650
 4796POPC   C1B21643   1.766  23.061   8.550
 4796POPC   C2B21644   1.780  23.134   8.250
 4796POPC   C3B21645   1.817  23.059   7.950
 4796POPC   C4B21646   1.805  23.098   7.650
 4797POPC   NC321647  21.402  30.651   9.450
 4797POPC   PO421648  21.357  30.664   9.150
 4797POPC   GL121649  21.421  30.652   8.850
 4797POPC   GL221650  21.531  30.792   8.850
 4797POPC   C1A21651  21.376  30.681   8.550
 4797POPC   D2A21652  21.413  30.675   8.250
 4797POPC   C3A21653  21.345  30.723   7.950
 4797POPC   C4A21654  21.409  30.717   7.650
 4797POPC   C1B21655  21.586  30.812   8.550
 4797POPC   C2B21656  21.550  30.824   8.250
 4797POPC   C3B21657  21.566  30.816   7.950
 4797POPC   C4B21658  21.555  30.849   7.650
 4798POPC   NC321659  22.974  36.175   9.450
 4798POPC   PO421660  22.979  36.082   9.150
 4798POPC   GL121661  22.946  36.083   8.850
 4798POPC   GL221662  22.843  35.981   8.850
 4798POPC   C1A21663  22.965  36.145   8.550
 4798POPC   D2A21664  22.898  36.091   8.250
 4798POPC   C3A21665  22.973  36.166   7.950
 4798POPC   C4A21666  22.945  36.128   7.650
 4798POPC   C1B21667  22.792  35.980   8.550
 4798POPC   C2B21668  22.811  35.916   8.250
 4798POPC   C3B21669  22.820  35.932   7.950
 4798POPC   C4B21670  22.737  35.983   7.650
 4799POPC   NC321671  19.097  15.131   9.450
 4799POPC   PO421672  19.076  15.210   9.150
 4799POPC   GL121673  19.020  15.219   8.850
 4799POPC   GL221674  19.010  15.016   8.850
 4799POPC   C1A21675  19.064  15.145   8.550
 4799POPC   D2A21676  19.062  15.154   8.250
 4799POPC   C3A21677  19.021  15.201   7.950
 4799POPC   C4A21678  19.072  15.187   7.650
 4799POPC   C1B21679  18.988  14.955   8.550
 4799POPC   C2B21680  18.997  14.891   8.250
 4799POPC   C3B21681  19.054  14.911   7.950
 4799POPC   C4B21682  18.988  14.970   7.650
 4800POPC   NC321683  24.473   9.755   9.450
 4800POPC   PO421684  24.538   9.792   9.150
 4800POPC   GL121685  24.446   9.713   8.850
 4800POPC   GL221686  24.627   9.754   8.850
 4800POPC   C1A21687  24.522   9.721   8.550
 4800POPC   D2A21688  24.460   9.722   8.250
 4800POPC   C3A21689  24.444   9.698   7.950
 4800POPC   C4A21690  24.452   9.796   7.650
 4800POPC   C1B21691  24.704   9.741   8.550
 4800POPC   C2B21692  24.704   9.714   8.250
 4800POPC   C3B21693  24.716   9.714   7.950
 4800POPC   C4B21694  24.759   9.698   7.650
 4801POPC   NC321695  44.614  33.808   9.450
 4801POPC   PO421696  44.650  33.836   9.150
 4801POPC   GL121697  44.672  33.811   8.850
 4801POPC   GL221698  44.622  33.930   8.850
 4801POPC   C1A21699  44.620  33.754   8.550
 4801POPC   D2A21700  44.633  33.800   8.250
 4801POPC   C3A21701  44.630  33.841   7.950
 4801POPC   C4A21702  44.707  33.815   7.650
 4801POPC   C1B21703  44.658  34.097   8.550
 4801POPC   C2B21704  44.606  34.072   8.250
 4801POPC   C3B21705  44.643  34.073   7.950
 4801POPC   C4B21706  44.670  34.017   7.650
 4802POPC   NC321707  16.759  19.017   9.450
 4802POPC   PO421708  16.724  19.032   9.150
 4802POPC   GL121709  16.747  19.009   8.850
 4802POPC   GL221710  16.630  18.992   8.850
 4802POPC   C1A21711  16.701  19.061   8.550
 4802POPC   D2A21712  16.696  19.053   8.250
 4802POPC   C3A21713  16.732  19.103   7.950
 4802POPC   C4A21714  16.696  19.092   7.650
 4802POPC   C1B21715  16.553  18.849   8.550
 4802POPC   C2B21716  16.558  18.892   8.250
 4802POPC   C3B21717  16.511  18.832   7.950
 4802POPC   C4B21718  16.544  18.832   7.650
 4803POPC   NC321719  24.470  29.151   9.450
 4803POPC   PO421720  24.522  29.168   9.150
 4803POPC   GL121721  24.461  29.183   8.850
 4803POPC   GL221722  24.414  29.018   8.850
 4803POPC   C1A21723  24.489  29.146   8.550
 4803POPC   D2A21724  24.443  29.170   8.250
 4803POPC   C3A21725  24.494  29.166   7.950
 4803POPC   C4A21726  24.480  29.141   7.650
 4803POPC   C1B21727  24.399  28.924   8.550
 4803POPC   C2B21728  24.379  28.956   8.250
 4803POPC   C3B21729  24.405  28.949   7.950
 4803POPC   C4B21730  24.350  28.878   7.650
 4804POPC   NC321731  27.598   2.726   9.450
 4804POPC   PO421732  27.625   2.787   9.150
 4804POPC   GL121733  27.557   2.774   8.850
 4804POPC   GL221734  27.571   2.630   8.850
 4804POPC   C1A21735  27.594   2.812   8.550
 4804POPC   D2A21736  27.623   2.736   8.250
 4804POPC   C3A21737  27.577   2.778   7.950
 4804POPC   C4A21738  27.594   2.791   7.650
 4804POPC   C1B21739  27.495   2.573   8.550
 4804POPC   C2B21740  27.541   2.521   8.250
 4804POPC   C3B21741  27.494   2.502   7.950
 4804POPC   C4B21742  27.526   2.529   7.650
 4805POPC   NC321743   7.444  19.838   9.450
 4805POPC   PO421744   7.456  19.848   9.150
 4805POPC   GL121745   7.418  19.842   8.850
 4805POPC   GL221746   7.437  19.720   8.850
 4805POPC   C1A21747   7.384  19.879   8.550
 4805POPC   D2A21748   7.399  19.812   8.250
 4805POPC   C3A21749   7.374  19.871   7.950
 4805POPC   C4A21750   7.436  19.884   7.650
 4805POPC   C1B21751   7.478  19.569   8.550
 4805POPC   C2B21752   7.483  19.547   8.250
 4805POPC   C3B21753   7.467  19.637   7.950
 4805POPC   C4B21754   7.414  19.618   7.650
 4806POPC   NC321755  36.908  41.516   9.450
 4806POPC   PO421756  36.927  41.604   9.150
 4806POPC   GL121757  36.862  41.592   8.850
 4806POPC   GL221758  36.861  41.474   8.850
 4806POPC   C1A21759  36.941  41.597   8.550
 4806POPC   D2A21760  36.874  41.609   8.250
 4806POPC   C3A21761  36.904  41.597   7.950
 4806POPC   C4A21762  36.940  41.564   7.650
 4806POPC   C1B21763  36.792  41.317   8.550
 4806POPC   C2B21764  36.791  41.312   8.250
 4806POPC   C3B21765  36.776  41.376   7.950
 4806POPC   C4B21766  36.756  41.371   7.650
 4807POPC   NC321767  14.369   8.202   9.450
 4807POPC   PO421768  14.386   8.173   9.150
 4807POPC   GL121769  14.378   8.162   8.850
 4807POPC   GL221770  14.296   8.048   8.850
 4807POPC   C1A21771  14.425   8.241   8.550
 4807POPC   D2A21772  14.423   8.225   8.250
 4807POPC   C3A21773  14.365   8.183   7.950
 4807POPC   C4A21774  14.393   8.171   7.650
 4807POPC   C1B21775  14.226   7.937   8.550
 4807POPC   C2B21776  14.273   8.021   8.250
 4807POPC   C3B21777  14.246   7.976   7.950
 4807POPC   C4B21778  14.233   7.977   7.650
 4808POPC   NC321779  44.642  26.037   9.450
 4808POPC   PO421780  44.670  26.090   9.150
 4808POPC   GL121781  44.671  26.006   8.850
 4808POPC   GL221782  44.654  26.147   8.850
 4808POPC   C1A21783  44.676  26.043   8.550
 4808POPC   D2A21784  44.685  25.995   8.250
 4808POPC   C3A21785  44.696  26.031   7.950
 4808POPC   C4A21786  44.634  26.073   7.650
 4808POPC   C1B21787  44.682  26.291   8.550
 4808POPC   C2B21788  44.683  26.320   8.250
 4808POPC   C3B21789  44.756  26.330   7.950
 4808POPC   C4B21790  44.746  26.241   7.650
 4809POPC   NC321791  17.472  43.095   9.450
 4809POPC   PO421792  17.547  43.132   9.150
 4809POPC   GL121793  17.555  43.075   8.850
 4809POPC   GL221794  17.579  43.079   8.850
 4809POPC   C1A21795  17.528  43.092   8.550
 4809POPC   D2A21796  17.506  43.075   8.250
 4809POPC   C3A21797  17.527  43.090   7.950
 4809POPC   C4A21798  17.507  43.122   7.650
 4809POPC   C1B21799  17.756  43.002   8.550
 4809POPC   C2B21800  17.744  43.076   8.250
 4809POPC   C3B21801  17.768  43.017   7.950
 4809POPC   C4B21802  17.770  43.026   7.650
 4810POPC   NC321803  15.192   7.409   9.450
 4810POPC   PO421804  15.150   7.425   9.150
 4810POPC   GL121805  15.170   7.392   8.850
 4810POPC   GL221806  15.058   7.481   8.850
 4810POPC   C1A21807  15.189   7.389   8.550
 4810POPC   D2A21808  15.178   7.449   8.250
 4810POPC   C3A21809  15.187   7.451   7.950
 4810POPC   C4A21810  15.138   7.409   7.650
 4810POPC   C1B21811  14.998   7.581   8.550
 4810POPC   C2B21812  14.966   7.634   8.250
 4810POPC   C3B21813  14.999   7.607   7.950
 4810POPC   C4B21814  15.001   7.605   7.650
 4811POPC   NC321815  19.795  40.767   9.450
 4811POPC   PO421816  19.866  40.825   9.150
 4811POPC   GL121817  19.876  40.758   8.850
 4811POPC   GL221818  19.753  40.853   8.850
 4811POPC   C1A21819  19.874  40.754   8.550
 4811POPC   D2A21820  19.884  40.771   8.250
 4811POPC   C3A21821  19.854  40.801   7.950
 4811POPC   C4A21822  19.793  40.785   7.650
 4811POPC   C1B21823  19.754  40.961   8.550
 4811POPC   C2B21824  19.683  41.006   8.250
 4811POPC   C3B21825  19.662  41.049   7.950
 4811POPC   C4B21826  19.721  40.981   7.650
 4812POPC   NC321827  11.289  43.134   9.450
 4812POPC   PO421828  11.342  43.119   9.150
 4812POPC   GL121829  11.254  43.096   8.850
 4812POPC   GL221830  11.249  43.186   8.850
 4812POPC   C1A21831  11.301  43.104   8.550
 4812POPC   D2A21832  11.299  43.122   8.250
 4812POPC   C3A21833  11.255  43.134   7.950
 4812POPC   C4A21834  11.330  43.130   7.650
 4812POPC   C1B21835  11.175  43.292   8.550
 4812POPC   C2B21836  11.181  43.371   8.250
 4812POPC   C3B21837  11.138  43.288   7.950
 4812POPC   C4B21838  11.163  43.349   7.650
 4813POPC   NC321839  22.131  29.933   9.450
 4813POPC   PO421840  22.130  29.939   9.150
 4813POPC   GL121841  22.205  29.950   8.850
 4813POPC   GL221842  22.098  29.836   8.850
 4813POPC   C1A21843  22.157  29.910   8.550
 4813POPC   D2A21844  22.181  29.942   8.250
 4813POPC   C3A21845  22.160  29.951   7.950
 4813POPC   C4A21846  22.154  29.879   7.650
 4813POPC   C1B21847  22.113  29.644   8.550
 4813POPC   C2B21848  22.110  29.638   8.250
 4813POPC   C3B21849  22.175  29.657   7.950
 4813POPC   C4B21850  22.120  29.650   7.650
 4814POPC   NC321851  44.676  12.113   9.450
 4814POPC   PO421852  44.672  12.080   9.150
 4814POPC   GL121853  44.619  12.075   8.850
 4814POPC   GL221854  44.770  12.090   8.850
 4814POPC   C1A21855  44.687  12.082   8.550
 4814POPC   D2A21856  44.705  12.034   8.250
 4814POPC   C3A21857  44.674  12.113   7.950
 4814POPC   C4A21858  44.637  12.099   7.650
 4814POPC   C1B21859  44.862  12.120   8.550
 4814POPC   C2B21860  44.906  12.136   8.250
 4814POPC   C3B21861  44.863  12.169   7.950
 4814POPC   C4B21862  44.872  12.160   7.650
 4815POPC   NC321863  30.733  43.928   9.450
 4815POPC   PO421864  30.652  43.874   9.150
 4815POPC   GL121865  30.671  43.894   8.850
 4815POPC   GL221866  30.631  44.027   8.850
 4815POPC   C1A21867  30.647  43.911   8.550
 4815POPC   D2A21868  30.681  43.935   8.250
 4815POPC   C3A21869  30.729  43.891   7.950
 4815POPC   C4A21870  30.657  43.930   7.650
 4815POPC   C1B21871  30.574  44.133   8.550
 4815POPC   C2B21872  30.576  44.150   8.250
 4815POPC   C3B21873  30.544  44.125   7.950
 4815POPC   C4B21874  30.601  44.125   7.650
 4816POPC   NC321875   2.757  40.000   9.450
 4816POPC   PO421876   2.762  39.976   9.150
 4816POPC   GL121877   2.742  39.960   8.850
 4816POPC   GL221878   2.683  39.924   8.850
 4816POPC   C1A21879   2.774  40.010   8.550
 4816POPC   D2A21880   2.738  39.984   8.250
 4816POPC   C3A21881   2.796  39.970   7.950
 4816POPC   C4A21882   2.778  40.046   7.650
 4816POPC   C1B21883   2.542  39.847   8.550
 4816POPC   C2B21884   2.580  39.862   8.250
 4816POPC   C3B21885   2.519  39.887   7.950
 4816POPC   C4B21886   2.540  39.889   7.650
 4817POPC   NC321887  11.340  37.633   9.450
 4817POPC   PO421888  11.290  37.727   9.150
 4817POPC   GL121889  11.295  37.654   8.850
 4817POPC   GL221890  11.454  37.679   8.850
 4817POPC   C1A21891  11.264  37.650   8.550
 4817POPC   D2A21892  11.281  37.642   8.250
 4817POPC   C3A21893  11.255  37.727   7.950
 4817POPC   C4A21894  11.314  37.692   7.650
 4817POPC   C1B21895  11.582  37.665   8.550
 4817POPC   C2B21896  11.553  37.710   8.250
 4817POPC   C3B21897  11.564  37.706   7.950
 4817POPC   C4B21898  11.551  37.698   7.650
 4818POPC   NC321899  18.317  19.826   9.450
 4818POPC   PO421900  18.322  19.835   9.150
 4818POPC   GL121901  18.250  19.836   8.850
 4818POPC   GL221902  18.443  19.809   8.850
 4818POPC   C1A21903  18.267  19.821   8.550
 4818POPC   D2A21904  18.278  19.792   8.250
 4818POPC   C3A21905  18.254  19.853   7.950
 4818POPC   C4A21906  18.328  19.849   7.650
 4818POPC   C1B21907  18.529  19.853   8.550
 4818POPC   C2B21908  18.504  19.866   8.250
 4818POPC   C3B21909  18.528  19.824   7.950
 4818POPC   C4B21910  18.497  19.839   7.650
 4819POPC   NC321911  43.108  19.855   9.450
 4819POPC   PO421912  43.102  19.857   9.150
 4819POPC   GL121913  43.145  19.847   8.850
 4819POPC   GL221914  43.199  19.861   8.850
 4819POPC   C1A21915  43.148  19.827   8.550
 4819POPC   D2A21916  43.089  19.823   8.250
 4819POPC   C3A21917  43.102  19.836   7.950
 4819POPC   C4A21918  43.075  19.806   7.650
 4819POPC   C1B21919  43.284  19.995   8.550
 4819POPC   C2B21920  43.338  19.908   8.250
 4819POPC   C3B21921  43.328  19.904   7.950
 4819POPC   C4B21922  43.352  19.977   7.650
 4820POPC   NC321923  30.659  27.552   9.450
 4820POPC   PO421924  30.664  27.635   9.150
 4820POPC   GL121925  30.683  27.564   8.850
 4820POPC   GL221926  30.771  27.579   8.850
 4820POPC   C1A21927  30.737  27.624   8.550
 4820POPC   D2A21928  30.731  27.618   8.250
 4820POPC   C3A21929  30.664  27.618   7.950
 4820POPC   C4A21930  30.733  27.598   7.650
 4820POPC   C1B21931  30.954  27.466   8.550
 4820POPC   C2B21932  30.922  27.471   8.250
 4820POPC   C3B21933  30.880  27.455   7.950
 4820POPC   C4B21934  30.887  27.490   7.650
 4821POPC   NC321935  36.149  11.278   9.450
 4821POPC   PO421936  36.109  11.303   9.150
 4821POPC   GL121937  36.078  11.329   8.850
 4821POPC   GL221938  36.211  11.308   8.850
 4821POPC   C1A21939  36.118  11.349   8.550
 4821POPC   D2A21940  36.156  11.303   8.250
 4821POPC   C3A21941  36.145  11.340   7.950
 4821POPC   C4A21942  36.130  11.313   7.650
 4821POPC   C1B21943  36.329  11.293   8.550
 4821POPC   C2B21944  36.377  11.286   8.250
 4821POPC   C3B21945  36.369  11.303   7.950
 4821POPC   C4B21946  36.351  11.264   7.650
 4822POPC   NC321947  25.225  22.209   9.450
 4822POPC   PO421948  25.238  22.124   9.150
 4822POPC   GL121949  25.286  22.169   8.850
 4822POPC   GL221950  25.228  22.081   8.850
 4822POPC   C1A21951  25.300  22.171   8.550
 4822POPC   D2A21952  25.264  22.182   8.250
 4822POPC   C3A21953  25.225  22.208   7.950
 4822POPC   C4A21954  25.296  22.168   7.650
 4822POPC   C1B21955  25.069  21.996   8.550
 4822POPC   C2B21956  25.096  22.018   8.250
 4822POPC   C3B21957  25.131  21.960   7.950
 4822POPC   C4B21958  25.118  22.004   7.650
 4823POPC   NC321959  28.390  44.621   9.450
 4823POPC   PO421960  28.403  44.667   9.150
 4823POPC   GL121961  28.356  44.667   8.850
 4823POPC   GL221962  28.245  44.794   8.850
 4823POPC   C1A21963  28.323  44.642   8.550
 4823POPC   D2A21964  28.361  44.697   8.250
 4823POPC   C3A21965  28.406  44.673   7.950
 4823POPC   C4A21966  28.380  44.615   7.650
 4823POPC   C1B21967  28.221  44.836   8.550
 4823POPC   C2B21968  28.198  44.884   8.250
 4823POPC   C3B21969  28.183  44.804   7.950
 4823POPC   C4B21970  28.190  44.820   7.650
 4824POPC   NC321971  37.681  13.590   9.450
 4824POPC   PO421972  37.668  13.663   9.150
 4824POPC   GL121973  37.649  13.665   8.850
 4824POPC   GL221974  37.719  13.544   8.850
 4824POPC   C1A21975  37.717  13.593   8.550
 4824POPC   D2A21976  37.668  13.650   8.250
 4824POPC   C3A21977  37.649  13.613   7.950
 4824POPC   C4A21978  37.729  13.624   7.650
 4824POPC   C1B21979  37.702  13.386   8.550
 4824POPC   C2B21980  37.744  13.362   8.250
 4824POPC   C3B21981  37.664  13.356   7.950
 4824POPC   C4B21982  37.681  13.427   7.650
 4825POPC   NC321983  18.288  32.989   9.450
 4825POPC   PO421984  18.277  33.068   9.150
 4825POPC   GL121985  18.324  32.982   8.850
 4825POPC   GL221986  18.242  32.946   8.850
 4825POPC   C1A21987  18.311  33.017   8.550
 4825POPC   D2A21988  18.260  33.052   8.250
 4825POPC   C3A21989  18.318  33.022   7.950
 4825POPC   C4A21990  18.329  33.016   7.650
 4825POPC   C1B21991  18.246  32.795   8.550
 4825POPC   C2B21992  18.264  32.805   8.250
 4825POPC   C3B21993  18.228  32.812   7.950
 4825POPC   C4B21994  18.282  32.734   7.650
 4826POPC   NC321995  37.711  12.040   9.450
 4826POPC   PO421996  37.660  12.041   9.150
 4826POPC   GL121997  37.675  12.028   8.850
 4826POPC   GL221998  37.574  12.076   8.850
 4826POPC   C1A21999  37.671  12.109   8.550
 4826POPC   D2A22000  37.682  12.100   8.250
 4826POPC   C3A22001  37.635  12.098   7.950
 4826POPC   C4A22002  37.715  12.044   7.650
 4826POPC   C1B22003  37.488  12.006   8.550
 4826POPC   C2B22004  37.418  11.948   8.250
 4826POPC   C3B22005  37.409  12.009   7.950
 4826POPC   C4B22006  37.465  11.947   7.650
 4827POPC   NC322007   7.377  13.588   9.450
 4827POPC   PO422008   7.427  13.608   9.150
 4827POPC   GL122009   7.389  13.602   8.850
 4827POPC   GL222010   7.575  13.681   8.850
 4827POPC   C1A22011   7.432  13.613   8.550
 4827POPC   D2A22012   7.433  13.632   8.250
 4827POPC   C3A22013   7.383  13.617   7.950
 4827POPC   C4A22014   7.405  13.611   7.650
 4827POPC   C1B22015   7.624  13.768   8.550
 4827POPC   C2B22016   7.625  13.746   8.250
 4827POPC   C3B22017   7.690  13.769   7.950
 4827POPC   C4B22018   7.687  13.700   7.650
 4828POPC   NC322019   6.653  39.196   9.450
 4828POPC   PO422020   6.669  39.233   9.150
 4828POPC   GL122021   6.673  39.183   8.850
 4828POPC   GL222022   6.691  39.333   8.850
 4828POPC   C1A22023   6.676  39.211   8.550
 4828POPC   D2A22024   6.627  39.214   8.250
 4828POPC   C3A22025   6.626  39.266   7.950
 4828POPC   C4A22026   6.666  39.231   7.650
 4828POPC   C1B22027   6.779  39.497   8.550
 4828POPC   C2B22028   6.782  39.441   8.250
 4828POPC   C3B22029   6.744  39.454   7.950
 4828POPC   C4B22030   6.766  39.486   7.650
 4829POPC   NC322031  28.398  33.805   9.450
 4829POPC   PO422032  28.362  33.797   9.150
 4829POPC   GL122033  28.406  33.751   8.850
 4829POPC   GL222034  28.398  33.970   8.850
 4829POPC   C1A22035  28.319  33.835   8.550
 4829POPC   D2A22036  28.372  33.755   8.250
 4829POPC   C3A22037  28.402  33.803   7.950
 4829POPC   C4A22038  28.350  33.768   7.650
 4829POPC   C1B22039  28.388  34.029   8.550
 4829POPC   C2B22040  28.379  34.079   8.250
 4829POPC   C3B22041  28.353  34.002   7.950
 4829POPC   C4B22042  28.396  34.049   7.650
 4830POPC   NC322043  31.511  12.844   9.450
 4830POPC   PO422044  31.487  12.824   9.150
 4830POPC   GL122045  31.444  12.811   8.850
 4830POPC   GL222046  31.456  12.740   8.850
 4830POPC   C1A22047  31.512  12.887   8.550
 4830POPC   D2A22048  31.459  12.892   8.250
 4830POPC   C3A22049  31.460  12.860   7.950
 4830POPC   C4A22050  31.459  12.888   7.650
 4830POPC   C1B22051  31.378  12.641   8.550
 4830POPC   C2B22052  31.371  12.588   8.250
 4830POPC   C3B22053  31.391  12.583   7.950
 4830POPC   C4B22054  31.322  12.665   7.650
 4831POPC   NC322055  12.060  33.826   9.450
 4831POPC   PO422056  12.077  33.765   9.150
 4831POPC   GL122057  12.041  33.761   8.850
 4831POPC   GL222058  11.961  33.704   8.850
 4831POPC   C1A22059  12.064  33.787   8.550
 4831POPC   D2A22060  12.068  33.760   8.250
 4831POPC   C3A22061  12.069  33.751   7.950
 4831POPC   C4A22062  12.094  33.780   7.650
 4831POPC   C1B22063  11.941  33.638   8.550
 4831POPC   C2B22064  11.903  33.665   8.250
 4831POPC   C3B22065  11.947  33.659   7.950
 4831POPC   C4B22066  11.880  33.660   7.650
 4832POPC   NC322067  18.320  44.699   9.450
 4832POPC   PO422068  18.287  44.660   9.150
 4832POPC   GL122069  18.234  44.635   8.850
 4832POPC   GL222070  18.215  44.715   8.850
 4832POPC   C1A22071  18.241  44.698   8.550
 4832POPC   D2A22072  18.298  44.678   8.250
 4832POPC   C3A22073  18.322  44.680   7.950
 4832POPC   C4A22074  18.271  44.698   7.650
 4832POPC   C1B22075  18.038  44.806   8.550
 4832POPC   C2B22076  18.068  44.799   8.250
 4832POPC   C3B22077  18.066  44.808   7.950
 4832POPC   C4B22078  18.039  44.761   7.650
 4833POPC   NC322079  36.109  39.248   9.450
 4833POPC   PO422080  36.134  39.215   9.150
 4833POPC   GL122081  36.111  39.236   8.850
 4833POPC   GL222082  36.047  39.274   8.850
 4833POPC   C1A22083  36.148  39.217   8.550
 4833POPC   D2A22084  36.133  39.261   8.250
 4833POPC   C3A22085  36.146  39.238   7.950
 4833POPC   C4A22086  36.170  39.195   7.650
 4833POPC   C1B22087  35.890  39.323   8.550
 4833POPC   C2B22088  35.923  39.312   8.250
 4833POPC   C3B22089  35.898  39.284   7.950
 4833POPC   C4B22090  35.845  39.298   7.650
 4834POPC   NC322091   3.522   7.391   9.450
 4834POPC   PO422092   3.581   7.453   9.150
 4834POPC   GL122093   3.529   7.450   8.850
 4834POPC   GL222094   3.400   7.474   8.850
 4834POPC   C1A22095   3.518   7.427   8.550
 4834POPC   D2A22096   3.503   7.448   8.250
 4834POPC   C3A22097   3.586   7.426   7.950
 4834POPC   C4A22098   3.505   7.427   7.650
 4834POPC   C1B22099   3.294   7.435   8.550
 4834POPC   C2B22100   3.299   7.450   8.250
 4834POPC   C3B22101   3.278   7.457   7.950
 4834POPC   C4B22102   3.273   7.478   7.650
 4835POPC   NC322103  13.605  33.782   9.450
 4835POPC   PO422104  13.675  33.808   9.150
 4835POPC   GL122105  13.653  33.826   8.850
 4835POPC   GL222106  13.510  33.713   8.850
 4835POPC   C1A22107  13.674  33.828   8.550
 4835POPC   D2A22108  13.599  33.810   8.250
 4835POPC   C3A22109  13.647  33.790   7.950
 4835POPC   C4A22110  13.590  33.781   7.650
 4835POPC   C1B22111  13.405  33.583   8.550
 4835POPC   C2B22112  13.458  33.640   8.250
 4835POPC   C3B22113  13.405  33.659   7.950
 4835POPC   C4B22114  13.468  33.673   7.650
 4836POPC   NC322115  44.636   7.433   9.450
 4836POPC   PO422116  44.680   7.400   9.150
 4836POPC   GL122117  44.624   7.446   8.850
 4836POPC   GL222118  44.615   7.300   8.850
 4836POPC   C1A22119  44.688   7.398   8.550
 4836POPC   D2A22120  44.672   7.429   8.250
 4836POPC   C3A22121  44.613   7.388   7.950
 4836POPC   C4A22122  44.627   7.398   7.650
 4836POPC   C1B22123  44.486   7.177   8.550
 4836POPC   C2B22124  44.537   7.187   8.250
 4836POPC   C3B22125  44.550   7.196   7.950
 4836POPC   C4B22126  44.561   7.233   7.650
 4837POPC   NC322127  27.608   8.957   9.450
 4837POPC   PO422128  27.587   8.974   9.150
 4837POPC   GL122129  27.598   8.990   8.850
 4837POPC   GL222130  27.588   9.059   8.850
 4837POPC   C1A22131  27.583   8.958   8.550
 4837POPC   D2A22132  27.601   8.988   8.250
 4837POPC   C3A22133  27.609   9.022   7.950
 4837POPC   C4A22134  27.620   8.999   7.650
 4837POPC   C1B22135  27.492   9.180   8.550
 4837POPC   C2B22136  27.567   9.214   8.250
 4837POPC   C3B22137  27.539   9.234   7.950
 4837POPC   C4B22138  27.474   9.199   7.650
 4838POPC   NC322139   6.678  32.298   9.450
 4838POPC   PO422140   6.671  32.296   9.150
 4838POPC   GL122141   6.651  32.281   8.850
 4838POPC   GL222142   6.704  32.116   8.850
 4838POPC   C1A22143   6.690  32.233   8.550
 4838POPC   D2A22144   6.663  32.228   8.250
 4838POPC   C3A22145   6.687  32.268   7.950
 4838POPC   C4A22146   6.623  32.217   7.650
 4838POPC   C1B22147   6.833  32.109   8.550
 4838POPC   C2B22148   6.802  32.044   8.250
 4838POPC   C3B22149   6.792  32.044   7.950
 4838POPC   C4B22150   6.828  32.070   7.650
 4839POPC   NC322151  43.130   1.962   9.450
 4839POPC   PO422152  43.066   2.019   9.150
 4839POPC   GL122153  43.152   2.004   8.850
 4839POPC   GL222154  43.026   2.038   8.850
 4839POPC   C1A22155  43.108   2.018   8.550
 4839POPC   D2A22156  43.064   1.986   8.250
 4839POPC   C3A22157  43.127   1.996   7.950
 4839POPC   C4A22158  43.090   1.940   7.650
 4839POPC   C1B22159  42.893   2.053   8.550
 4839POPC   C2B22160  42.873   1.966   8.250
 4839POPC   C3B22161  42.822   1.999   7.950
 4839POPC   C4B22162  42.822   2.041   7.650
 4840POPC   NC322163  28.327  25.237   9.450
 4840POPC   PO422164  28.402  25.260   9.150
 4840POPC   GL122165  28.366  25.277   8.850
 4840POPC   GL222166  28.195  25.228   8.850
 4840POPC   C1A22167  28.352  25.245   8.550
 4840POPC   D2A22168  28.319  25.219   8.250
 4840POPC   C3A22169  28.390  25.295   7.950
 4840POPC   C4A22170  28.332  25.236   7.650
 4840POPC   C1B22171  28.070  25.276   8.550
 4840POPC   C2B22172  28.151  25.265   8.250
 4840POPC   C3B22173  28.160  25.283   7.950
 4840POPC   C4B22174  28.115  25.266   7.650
 4841POPC   NC322175  15.141  14.368   9.450
 4841POPC   PO422176  15.145  14.390   9.150
 4841POPC   GL122177  15.142  14.362   8.850
 4841POPC   GL222178  15.195  14.248   8.850
 4841POPC   C1A22179  15.214  14.422   8.550
 4841POPC   D2A22180  15.199  14.422   8.250
 4841POPC   C3A22181  15.191  14.399   7.950
 4841POPC   C4A22182  15.143  14.401   7.650
 4841POPC   C1B22183  15.180  14.178   8.550
 4841POPC   C2B22184  15.141  14.180   8.250
 4841POPC   C3B22185  15.180  14.167   7.950
 4841POPC   C4B22186  15.224  14.160   7.650
 4842POPC   NC322187  42.374  31.494   9.450
 4842POPC   PO422188  42.352  31.467   9.150
 4842POPC   GL122189  42.289  31.510   8.850
 4842POPC   GL222190  42.447  31.613   8.850
 4842POPC   C1A22191  42.378  31.442   8.550
 4842POPC   D2A22192  42.368  31.470   8.250
 4842POPC   C3A22193  42.315  31.520   7.950
 4842POPC   C4A22194  42.345  31.519   7.650
 4842POPC   C1B22195  42.498  31.701   8.550
 4842POPC   C2B22196  42.515  31.666   8.250
 4842POPC   C3B22197  42.493  31.639   7.950
 4842POPC   C4B22198  42.542  31.628   7.650
 4843POPC   NC322199  29.911   9.008   9.450
 4843POPC   PO422200  29.908   8.924   9.150
 4843POPC   GL122201  29.959   8.955   8.850
 4843POPC   GL222202  30.007   8.893   8.850
 4843POPC   C1A22203  29.895   8.958   8.550
 4843POPC   D2A22204  29.950   8.998   8.250
 4843POPC   C3A22205  29.912   9.014   7.950
 4843POPC   C4A22206  29.969   8.955   7.650
 4843POPC   C1B22207  30.087   8.732   8.550
 4843POPC   C2B22208  30.096   8.801   8.250
 4843POPC   C3B22209  30.027   8.779   7.950
 4843POPC   C4B22210  30.040   8.764   7.650
 4844POPC   NC322211  31.454   3.516   9.450
 4844POPC   PO422212  31.486   3.533   9.150
 4844POPC   GL122213  31.438   3.498   8.850
 4844POPC   GL222214  31.339   3.539   8.850
 4844POPC   C1A22215  31.510   3.540   8.550
 4844POPC   D2A22216  31.466   3.557   8.250
 4844POPC   C3A22217  31.488   3.496   7.950
 4844POPC   C4A22218  31.470   3.531   7.650
 4844POPC   C1B22219  31.281   3.402   8.550
 4844POPC   C2B22220  31.250   3.430   8.250
 4844POPC   C3B22221  31.259   3.448   7.950
 4844POPC   C4B22222  31.217   3.461   7.650
 4845POPC   NC322223  10.543  40.771   9.450
 4845POPC   PO422224  10.559  40.756   9.150
 4845POPC   GL122225  10.559  40.831   8.850
 4845POPC   GL222226  10.445  40.701   8.850
 4845POPC   C1A22227  10.543  40.819   8.550
 4845POPC   D2A22228  10.506  40.822   8.250
 4845POPC   C3A22229  10.485  40.818   7.950
 4845POPC   C4A22230  10.545  40.827   7.650
 4845POPC   C1B22231  10.314  40.681   8.550
 4845POPC   C2B22232  10.252  40.727   8.250
 4845POPC   C3B22233  10.250  40.724   7.950
 4845POPC   C4B22234  10.235  40.731   7.650
 4846POPC   NC322235  35.349  12.113   9.450
 4846POPC   PO422236  35.401  12.030   9.150
 4846POPC   GL122237  35.318  12.043   8.850
 4846POPC   GL222238  35.217  12.122   8.850
 4846POPC   C1A22239  35.316  12.096   8.550
 4846POPC   D2A22240  35.398  12.087   8.250
 4846POPC   C3A22241  35.394  12.063   7.950
 4846POPC   C4A22242  35.349  12.118   7.650
 4846POPC   C1B22243  35.095  12.132   8.550
 4846POPC   C2B22244  35.136  12.162   8.250
 4846POPC   C3B22245  35.100  12.166   7.950
 4846POPC   C4B22246  35.110  12.148   7.650
 4847POPC   NC322247  19.037   2.028   9.450
 4847POPC   PO422248  19.084   1.969   9.150
 4847POPC   GL122249  19.073   1.996   8.850
 4847POPC   GL222250  18.976   1.968   8.850
 4847POPC   C1A22251  19.060   1.953   8.550
 4847POPC   D2A22252  19.027   1.998   8.250
 4847POPC   C3A22253  19.106   1.948   7.950
 4847POPC   C4A22254  19.072   1.961   7.650
 4847POPC   C1B22255  18.788   1.957   8.550
 4847POPC   C2B22256  18.826   1.983   8.250
 4847POPC   C3B22257  18.843   1.989   7.950
 4847POPC   C4B22258  18.836   2.002   7.650
 4848POPC   NC322259  43.912  12.897   9.450
 4848POPC   PO422260  43.886  12.900   9.150
 4848POPC   GL122261  43.854  12.876   8.850
 4848POPC   GL222262  43.821  13.020   8.850
 4848POPC   C1A22263  43.849  12.821   8.550
 4848POPC   D2A22264  43.934  12.894   8.250
 4848POPC   C3A22265  43.878  12.835   7.950
 4848POPC   C4A22266  43.855  12.858   7.650
 4848POPC   C1B22267  43.851  13.082   8.550
 4848POPC   C2B22268  43.834  13.088   8.250
 4848POPC   C3B22269  43.800  13.113   7.950
 4848POPC   C4B22270  43.846  13.118   7.650
 4849POPC   NC322271  26.838  40.825   9.450
 4849POPC   PO422272  26.846  40.819   9.150
 4849POPC   GL122273  26.805  40.735   8.850
 4849POPC   GL222274  26.902  40.874   8.850
 4849POPC   C1A22275  26.864  40.759   8.550
 4849POPC   D2A22276  26.836  40.826   8.250
 4849POPC   C3A22277  26.822  40.789   7.950
 4849POPC   C4A22278  26.797  40.826   7.650
 4849POPC   C1B22279  27.015  40.886   8.550
 4849POPC   C2B22280  27.031  40.882   8.250
 4849POPC   C3B22281  27.035  40.964   7.950
 4849POPC   C4B22282  27.072  40.921   7.650
 4850POPC   NC322283  16.741  27.616   9.450
 4850POPC   PO422284  16.760  27.553   9.150
 4850POPC   GL122285  16.770  27.623   8.850
 4850POPC   GL222286  16.830  27.544   8.850
 4850POPC   C1A22287  16.701  27.579   8.550
 4850POPC   D2A22288  16.732  27.634   8.250
 4850POPC   C3A22289  16.709  27.550   7.950
 4850POPC   C4A22290  16.759  27.584   7.650
 4850POPC   C1B22291  17.002  27.525   8.550
 4850POPC   C2B22292  17.020  27.555   8.250
 4850POPC   C3B22293  16.951  27.508   7.950
 4850POPC   C4B22294  16.944  27.578   7.650
 4851POPC   NC322295  26.089  16.728   9.450
 4851POPC   PO422296  26.000  16.717   9.150
 4851POPC   GL122297  26.006  16.728   8.850
 4851POPC   GL222298  26.016  16.865   8.850
 4851POPC   C1A22299  26.031  16.732   8.550
 4851POPC   D2A22300  26.091  16.750   8.250
 4851POPC   C3A22301  26.001  16.687   7.950
 4851POPC   C4A22302  26.007  16.725   7.650
 4851POPC   C1B22303  25.998  16.976   8.550
 4851POPC   C2B22304  25.946  16.986   8.250
 4851POPC   C3B22305  25.976  16.989   7.950
 4851POPC   C4B22306  25.997  16.996   7.650
 4852POPC   NC322307  10.537  22.964   9.450
 4852POPC   PO422308  10.549  22.974   9.150
 4852POPC   GL122309  10.569  22.913   8.850
 4852POPC   GL222310  10.606  22.887   8.850
 4852POPC   C1A22311  10.542  22.894   8.550
 4852POPC   D2A22312  10.489  22.888   8.250
 4852POPC   C3A22313  10.522  22.945   7.950
 4852POPC   C4A22314  10.525  22.944   7.650
 4852POPC   C1B22315  10.718  22.785   8.550
 4852POPC   C2B22316  10.688  22.695   8.250
 4852POPC   C3B22317  10.724  22.721   7.950
 4852POPC   C4B22318  10.697  22.746   7.650
 4853POPC   NC322319  26.862  28.367   9.450
 4853POPC   PO422320  26.820  28.327   9.150
 4853POPC   GL122321  26.837  28.399   8.850
 4853POPC   GL222322  26.775  28.228   8.850
 4853POPC   C1A22323  26.792  28.370   8.550
 4853POPC   D2A22324  26.768  28.380   8.250
 4853POPC   C3A22325  26.786  28.322   7.950
 4853POPC   C4A22326  26.855  28.413   7.650
 4853POPC   C1B22327  26.742  28.129   8.550
 4853POPC   C2B22328  26.763  28.110   8.250
 4853POPC   C3B22329  26.698  28.177   7.950
 4853POPC   C4B22330  26.791  28.172   7.650
 4854POPC   NC322331  40.750   2.782   9.450
 4854POPC   PO422332  40.754   2.753   9.150
 4854POPC   GL122333  40.771   2.737   8.850
 4854POPC   GL222334  40.873   2.730   8.850
 4854POPC   C1A22335  40.826   2.737   8.550
 4854POPC   D2A22336  40.832   2.793   8.250
 4854POPC   C3A22337  40.741   2.785   7.950
 4854POPC   C4A22338  40.750   2.796   7.650
 4854POPC   C1B22339  40.981   2.701   8.550
 4854POPC   C2B22340  41.013   2.607   8.250
 4854POPC   C3B22341  40.992   2.610   7.950
 4854POPC   C4B22342  40.963   2.646   7.650
 4855POPC   NC322343  12.836  35.329   9.450
 4855POPC   PO422344  12.863  35.341   9.150
 4855POPC   GL122345  12.832  35.347   8.850
 4855POPC   GL222346  12.885  35.228   8.850
 4855POPC   C1A22347  12.866  35.389   8.550
 4855POPC   D2A22348  12.889  35.382   8.250
 4855POPC   C3A22349  12.869  35.357   7.950
 4855POPC   C4A22350  12.871  35.334   7.650
 4855POPC   C1B22351  13.013  35.131   8.550
 4855POPC   C2B22352  12.989  35.129   8.250
 4855POPC   C3B22353  12.974  35.130   7.950
 4855POPC   C4B22354  12.964  35.124   7.650
 4856POPC   NC322355   2.007   3.548   9.450
 4856POPC   PO422356   1.991   3.584   9.150
 4856POPC   GL122357   1.973   3.499   8.850
 4856POPC   GL222358   1.865   3.580   8.850
 4856POPC   C1A22359   2.038   3.572   8.550
 4856POPC   D2A22360   2.036   3.544   8.250
 4856POPC   C3A22361   2.035   3.583   7.950
 4856POPC   C4A22362   1.957   3.567   7.650
 4856POPC   C1B22363   1.725   3.602   8.550
 4856POPC   C2B22364   1.771   3.629   8.250
 4856POPC   C3B22365   1.807   3.662   7.950
 4856POPC   C4B22366   1.792   3.653   7.650
 4857POPC   NC322367   2.803  36.885   9.450
 4857POPC   PO422368   2.752  36.878   9.150
 4857POPC   GL122369   2.748  36.932   8.850
 4857POPC   GL222370   2.784  36.804   8.850
 4857POPC   C1A22371   2.742  36.916   8.550
 4857POPC   D2A22372   2.797  36.930   8.250
 4857POPC   C3A22373   2.812  36.900   7.950
 4857POPC   C4A22374   2.724  36.918   7.650
 4857POPC   C1B22375   2.779  36.618   8.550
 4857POPC   C2B22376   2.743  36.616   8.250
 4857POPC   C3B22377   2.708  36.656   7.950
 4857POPC   C4B22378   2.758  36.651   7.650
 4858POPC   NC322379   0.406   2.773   9.450
 4858POPC   PO422380   0.448   2.755   9.150
 4858POPC   GL122381   0.486   2.752   8.850
 4858POPC   GL222382   0.564   2.870   8.850
 4858POPC   C1A22383   0.429   2.807   8.550
 4858POPC   D2A22384   0.460   2.813   8.250
 4858POPC   C3A22385   0.416   2.733   7.950
 4858POPC   C4A22386   0.475   2.786   7.650
 4858POPC   C1B22387   0.642   2.842   8.550
 4858POPC   C2B22388   0.618   2.926   8.250
 4858POPC   C3B22389   0.672   2.887   7.950
 4858POPC   C4B22390   0.656   2.872   7.650
 4859POPC   NC322391  19.024  17.553   9.450
 4859POPC   PO422392  19.089  17.493   9.150
 4859POPC   GL122393  19.066  17.535   8.850
 4859POPC   GL222394  19.147  17.594   8.850
 4859POPC   C1A22395  19.069  17.547   8.550
 4859POPC   D2A22396  19.078  17.503   8.250
 4859POPC   C3A22397  19.085  17.525   7.950
 4859POPC   C4A22398  19.036  17.489   7.650
 4859POPC   C1B22399  19.146  17.712   8.550
 4859POPC   C2B22400  19.151  17.789   8.250
 4859POPC   C3B22401  19.169  17.736   7.950
 4859POPC   C4B22402  19.175  17.694   7.650
 4860POPC   NC322403  11.302  26.000   9.450
 4860POPC   PO422404  11.321  26.064   9.150
 4860POPC   GL122405  11.276  26.049   8.850
 4860POPC   GL222406  11.430  26.021   8.850
 4860POPC   C1A22407  11.347  26.059   8.550
 4860POPC   D2A22408  11.306  26.044   8.250
 4860POPC   C3A22409  11.269  26.028   7.950
 4860POPC   C4A22410  11.329  26.013   7.650
 4860POPC   C1B22411  11.501  25.967   8.550
 4860POPC   C2B22412  11.558  25.918   8.250
 4860POPC   C3B22413  11.558  25.977   7.950
 4860POPC   C4B22414  11.525  25.911   7.650
 4861POPC   NC322415  35.360   5.054   9.450
 4861POPC   PO422416  35.396   5.082   9.150
 4861POPC   GL122417  35.362   5.066   8.850
 4861POPC   GL222418  35.250   5.154   8.850
 4861POPC   C1A22419  35.360   5.093   8.550
 4861POPC   D2A22420  35.400   5.137   8.250
 4861POPC   C3A22421  35.362   5.087   7.950
 4861POPC   C4A22422  35.303   5.081   7.650
 4861POPC   C1B22423  35.184   5.270   8.550
 4861POPC   C2B22424  35.228   5.339   8.250
 4861POPC   C3B22425  35.203   5.333   7.950
 4861POPC   C4B22426  35.237   5.282   7.650
 4862POPC   NC322427  26.013  41.590   9.450
 4862POPC   PO422428  26.030  41.550   9.150
 4862POPC   GL122429  26.025  41.586   8.850
 4862POPC   GL222430  25.968  41.662   8.850
 4862POPC   C1A22431  26.021  41.509   8.550
 4862POPC   D2A22432  26.025  41.558   8.250
 4862POPC   C3A22433  25.991  41.530   7.950
 4862POPC   C4A22434  25.992  41.511   7.650
 4862POPC   C1B22435  25.869  41.730   8.550
 4862POPC   C2B22436  25.863  41.687   8.250
 4862POPC   C3B22437  25.810  41.640   7.950
 4862POPC   C4B22438  25.804  41.671   7.650
 4863POPC   NC322439   1.243   5.047   9.450
 4863POPC   PO422440   1.212   5.070   9.150
 4863POPC   GL122441   1.190   5.139   8.850
 4863POPC   GL222442   1.198   5.003   8.850
 4863POPC   C1A22443   1.216   5.092   8.550
 4863POPC   D2A22444   1.216   5.114   8.250
 4863POPC   C3A22445   1.242   5.134   7.950
 4863POPC   C4A22446   1.256   5.130   7.650
 4863POPC   C1B22447   1.236   4.795   8.550
 4863POPC   C2B22448   1.277   4.795   8.250
 4863POPC   C3B22449   1.281   4.884   7.950
 4863POPC   C4B22450   1.210   4.820   7.650
 4864POPC   NC322451  36.866   6.637   9.450
 4864POPC   PO422452  36.948   6.672   9.150
 4864POPC   GL122453  36.854   6.671   8.850
 4864POPC   GL222454  36.908   6.512   8.850
 4864POPC   C1A22455  36.946   6.666   8.550
 4864POPC   D2A22456  36.929   6.616   8.250
 4864POPC   C3A22457  36.858   6.625   7.950
 4864POPC   C4A22458  36.915   6.677   7.650
 4864POPC   C1B22459  36.867   6.445   8.550
 4864POPC   C2B22460  36.831   6.429   8.250
 4864POPC   C3B22461  36.820   6.445   7.950
 4864POPC   C4B22462  36.811   6.376   7.650
 4865POPC   NC322463  44.704  13.656   9.450
 4865POPC   PO422464  44.704  13.653   9.150
 4865POPC   GL122465  44.710  13.593   8.850
 4865POPC   GL222466  44.744  13.667   8.850
 4865POPC   C1A22467  44.631  13.667   8.550
 4865POPC   D2A22468  44.645  13.673   8.250
 4865POPC   C3A22469  44.706  13.639   7.950
 4865POPC   C4A22470  44.686  13.587   7.650
 4865POPC   C1B22471  44.869  13.720   8.550
 4865POPC   C2B22472  44.927  13.724   8.250
 4865POPC   C3B22473  44.841  13.772   7.950
 4865POPC   C4B22474  44.848  13.784   7.650
 4866POPC   NC322475   0.420  12.819   9.450
 4866POPC   PO422476   0.392  12.861   9.150
 4866POPC   GL122477   0.482  12.821   8.850
 4866POPC   GL222478   0.376  12.949   8.850
 4866POPC   C1A22479   0.402  12.873   8.550
 4866POPC   D2A22480   0.470  12.830   8.250
 4866POPC   C3A22481   0.478  12.896   7.950
 4866POPC   C4A22482   0.456  12.879   7.650
 4866POPC   C1B22483   0.197  13.014   8.550
 4866POPC   C2B22484   0.204  13.015   8.250
 4866POPC   C3B22485   0.268  13.002   7.950
 4866POPC   C4B22486   0.267  13.000   7.650
 4867POPC   NC322487  12.836  10.512   9.450
 4867POPC   PO422488  12.821  10.479   9.150
 4867POPC   GL122489  12.813  10.517   8.850
 4867POPC   GL222490  12.875  10.448   8.850
 4867POPC   C1A22491  12.829  10.478   8.550
 4867POPC   D2A22492  12.862  10.523   8.250
 4867POPC   C3A22493  12.871  10.517   7.950
 4867POPC   C4A22494  12.875  10.514   7.650
 4867POPC   C1B22495  12.887  10.271   8.550
 4867POPC   C2B22496  12.903  10.270   8.250
 4867POPC   C3B22497  12.849  10.239   7.950
 4867POPC   C4B22498  12.935  10.231   7.650
 4868POPC   NC322499  37.728  18.276   9.450
 4868POPC   PO422500  37.724  18.275   9.150
 4868POPC   GL122501  37.727  18.284   8.850
 4868POPC   GL222502  37.724  18.376   8.850
 4868POPC   C1A22503  37.686  18.283   8.550
 4868POPC   D2A22504  37.699  18.316   8.250
 4868POPC   C3A22505  37.719  18.256   7.950
 4868POPC   C4A22506  37.727  18.264   7.650
 4868POPC   C1B22507  37.853  18.412   8.550
 4868POPC   C2B22508  37.816  18.501   8.250
 4868POPC   C3B22509  37.858  18.442   7.950
 4868POPC   C4B22510  37.838  18.501   7.650
 4869POPC   NC322511  32.233  18.238   9.450
 4869POPC   PO422512  32.238  18.301   9.150
 4869POPC   GL122513  32.293  18.246   8.850
 4869POPC   GL222514  32.291  18.212   8.850
 4869POPC   C1A22515  32.259  18.267   8.550
 4869POPC   D2A22516  32.254  18.248   8.250
 4869POPC   C3A22517  32.218  18.244   7.950
 4869POPC   C4A22518  32.291  18.239   7.650
 4869POPC   C1B22519  32.378  18.042   8.550
 4869POPC   C2B22520  32.365  18.087   8.250
 4869POPC   C3B22521  32.369  18.065   7.950
 4869POPC   C4B22522  32.349  18.092   7.650
 4870POPC   NC322523   0.437  36.115   9.450
 4870POPC   PO422524   0.443  36.164   9.150
 4870POPC   GL122525   0.483  36.120   8.850
 4870POPC   GL222526   0.378  36.213   8.850
 4870POPC   C1A22527   0.415  36.144   8.550
 4870POPC   D2A22528   0.417  36.124   8.250
 4870POPC   C3A22529   0.408  36.176   7.950
 4870POPC   C4A22530   0.442  36.168   7.650
 4870POPC   C1B22531   0.286  36.348   8.550
 4870POPC   C2B22532   0.287  36.305   8.250
 4870POPC   C3B22533   0.309  36.354   7.950
 4870POPC   C4B22534   0.261  36.290   7.650
 4871POPC   NC322535  16.737  23.749   9.450
 4871POPC   PO422536  16.730  23.694   9.150
 4871POPC   GL122537  16.732  23.717   8.850
 4871POPC   GL222538  16.598  23.792   8.850
 4871POPC   C1A22539  16.682  23.673   8.550
 4871POPC   D2A22540  16.764  23.664   8.250
 4871POPC   C3A22541  16.712  23.755   7.950
 4871POPC   C4A22542  16.732  23.723   7.650
 4871POPC   C1B22543  16.517  23.830   8.550
 4871POPC   C2B22544  16.538  23.912   8.250
 4871POPC   C3B22545  16.522  23.920   7.950
 4871POPC   C4B22546  16.574  23.891   7.650
 4872POPC   NC322547   8.174  43.126   9.450
 4872POPC   PO422548   8.211  43.100   9.150
 4872POPC   GL122549   8.193  43.083   8.850
 4872POPC   GL222550   8.034  43.131   8.850
 4872POPC   C1A22551   8.200  43.091   8.550
 4872POPC   D2A22552   8.162  43.109   8.250
 4872POPC   C3A22553   8.194  43.102   7.950
 4872POPC   C4A22554   8.203  43.108   7.650
 4872POPC   C1B22555   7.990  43.240   8.550
 4872POPC   C2B22556   7.925  43.219   8.250
 4872POPC   C3B22557   7.934  43.217   7.950
 4872POPC   C4B22558   7.915  43.167   7.650
 4873POPC   NC322559   9.737  32.221   9.450
 4873POPC   PO422560   9.753  32.265   9.150
 4873POPC   GL122561   9.722  32.220   8.850
 4873POPC   GL222562   9.796  32.171   8.850
 4873POPC   C1A22563   9.762  32.206   8.550
 4873POPC   D2A22564   9.735  32.268   8.250
 4873POPC   C3A22565   9.726  32.208   7.950
 4873POPC   C4A22566   9.705  32.260   7.650
 4873POPC   C1B22567   9.840  32.037   8.550
 4873POPC   C2B22568   9.915  32.058   8.250
 4873POPC   C3B22569   9.843  32.051   7.950
 4873POPC   C4B22570   9.860  32.064   7.650
 4874POPC   NC322571  29.955  36.872   9.450
 4874POPC   PO422572  29.918  36.948   9.150
 4874POPC   GL122573  29.872  36.907   8.850
 4874POPC   GL222574  29.915  36.821   8.850
 4874POPC   C1A22575  29.961  36.934   8.550
 4874POPC   D2A22576  29.923  36.903   8.250
 4874POPC   C3A22577  29.941  36.924   7.950
 4874POPC   C4A22578  29.880  36.874   7.650
 4874POPC   C1B22579  29.834  36.618   8.550
 4874POPC   C2B22580  29.838  36.630   8.250
 4874POPC   C3B22581  29.889  36.714   7.950
 4874POPC   C4B22582  29.856  36.683   7.650
 4875POPC   NC322583  12.812  27.599   9.450
 4875POPC   PO422584  12.896  27.568   9.150
 4875POPC   GL122585  12.818  27.591   8.850
 4875POPC   GL222586  12.973  27.576   8.850
 4875POPC   C1A22587  12.876  27.585   8.550
 4875POPC   D2A22588  12.870  27.583   8.250
 4875POPC   C3A22589  12.815  27.582   7.950
 4875POPC   C4A22590  12.899  27.553   7.650
 4875POPC   C1B22591  13.064  27.577   8.550
 4875POPC   C2B22592  13.054  27.596   8.250
 4875POPC   C3B22593  13.114  27.592   7.950
 4875POPC   C4B22594  13.130  27.588   7.650
 4876POPC   NC322595  11.269  12.869   9.450
 4876POPC   PO422596  11.276  12.812   9.150
 4876POPC   GL122597  11.344  12.820   8.850
 4876POPC   GL222598  11.419  12.774   8.850
 4876POPC   C1A22599  11.296  12.835   8.550
 4876POPC   D2A22600  11.315  12.871   8.250
 4876POPC   C3A22601  11.316  12.874   7.950
 4876POPC   C4A22602  11.297  12.809   7.650
 4876POPC   C1B22603  11.494  12.812   8.550
 4876POPC   C2B22604  11.559  12.791   8.250
 4876POPC   C3B22605  11.531  12.724   7.950
 4876POPC   C4B22606  11.515  12.738   7.650
 4877POPC   NC322607  21.375  42.321   9.450
 4877POPC   PO422608  21.389  42.332   9.150
 4877POPC   GL122609  21.421  42.320   8.850
 4877POPC   GL222610  21.431  42.462   8.850
 4877POPC   C1A22611  21.349  42.299   8.550
 4877POPC   D2A22612  21.420  42.369   8.250
 4877POPC   C3A22613  21.430  42.346   7.950
 4877POPC   C4A22614  21.368  42.334   7.650
 4877POPC   C1B22615  21.413  42.562   8.550
 4877POPC   C2B22616  21.398  42.536   8.250
 4877POPC   C3B22617  21.446  42.538   7.950
 4877POPC   C4B22618  21.460  42.619   7.650
 4878POPC   NC322619  34.581   0.416   9.450
 4878POPC   PO422620  34.560   0.399   9.150
 4878POPC   GL122621  34.592   0.429   8.850
 4878POPC   GL222622  34.476   0.494   8.850
 4878POPC   C1A22623  34.592   0.464   8.550
 4878POPC   D2A22624  34.543   0.473   8.250
 4878POPC   C3A22625  34.572   0.424   7.950
 4878POPC   C4A22626  34.624   0.408   7.650
 4878POPC   C1B22627  34.384   0.555   8.550
 4878POPC   C2B22628  34.342   0.617   8.250
 4878POPC   C3B22629  34.381   0.604   7.950
 4878POPC   C4B22630  34.344   0.611   7.650
 4879POPC   NC322631  33.035  30.679   9.450
 4879POPC   PO422632  33.073  30.678   9.150
 4879POPC   GL122633  33.063  30.659   8.850
 4879POPC   GL222634  33.134  30.630   8.850
 4879POPC   C1A22635  33.068  30.654   8.550
 4879POPC   D2A22636  32.981  30.665   8.250
 4879POPC   C3A22637  33.028  30.736   7.950
 4879POPC   C4A22638  32.994  30.647   7.650
 4879POPC   C1B22639  33.162  30.563   8.550
 4879POPC   C2B22640  33.199  30.523   8.250
 4879POPC   C3B22641  33.222  30.509   7.950
 4879POPC   C4B22642  33.221  30.549   7.650
 4880POPC   NC322643   1.179  15.981   9.450
 4880POPC   PO422644   1.193  15.961   9.150
 4880POPC   GL122645   1.207  15.977   8.850
 4880POPC   GL222646   1.158  16.065   8.850
 4880POPC   C1A22647   1.175  15.975   8.550
 4880POPC   D2A22648   1.225  15.906   8.250
 4880POPC   C3A22649   1.194  15.942   7.950
 4880POPC   C4A22650   1.209  16.005   7.650
 4880POPC   C1B22651   1.153  16.161   8.550
 4880POPC   C2B22652   1.160  16.179   8.250
 4880POPC   C3B22653   1.117  16.178   7.950
 4880POPC   C4B22654   1.164  16.165   7.650
 4881POPC   NC322655  33.050  35.391   9.450
 4881POPC   PO422656  32.996  35.344   9.150
 4881POPC   GL122657  32.992  35.324   8.850
 4881POPC   GL222658  32.865  35.317   8.850
 4881POPC   C1A22659  33.070  35.346   8.550
 4881POPC   D2A22660  32.991  35.359   8.250
 4881POPC   C3A22661  33.027  35.312   7.950
 4881POPC   C4A22662  32.977  35.364   7.650
 4881POPC   C1B22663  32.805  35.310   8.550
 4881POPC   C2B22664  32.730  35.300   8.250
 4881POPC   C3B22665  32.751  35.324   7.950
 4881POPC   C4B22666  32.806  35.318   7.650
 4882POPC   NC322667  24.511  12.869   9.450
 4882POPC   PO422668  24.441  12.849   9.150
 4882POPC   GL122669  24.518  12.847   8.850
 4882POPC   GL222670  24.525  12.723   8.850
 4882POPC   C1A22671  24.523  12.842   8.550
 4882POPC   D2A22672  24.456  12.865   8.250
 4882POPC   C3A22673  24.465  12.873   7.950
 4882POPC   C4A22674  24.518  12.851   7.650
 4882POPC   C1B22675  24.526  12.628   8.550
 4882POPC   C2B22676  24.525  12.553   8.250
 4882POPC   C3B22677  24.490  12.572   7.950
 4882POPC   C4B22678  24.474  12.649   7.650
 4883POPC   NC322679  14.444   9.012   9.450
 4883POPC   PO422680  14.388   9.016   9.150
 4883POPC   GL122681  14.390   8.970   8.850
 4883POPC   GL222682  14.521   9.085   8.850
 4883POPC   C1A22683  14.391   8.926   8.550
 4883POPC   D2A22684  14.372   8.958   8.250
 4883POPC   C3A22685  14.410   8.934   7.950
 4883POPC   C4A22686  14.438   8.967   7.650
 4883POPC   C1B22687  14.586   9.139   8.550
 4883POPC   C2B22688  14.617   9.115   8.250
 4883POPC   C3B22689  14.547   9.119   7.950
 4883POPC   C4B22690  14.577   9.171   7.650
 4884POPC   NC322691   9.752  43.905   9.450
 4884POPC   PO422692   9.762  43.855   9.150
 4884POPC   GL122693   9.769  43.923   8.850
 4884POPC   GL222694   9.694  43.962   8.850
 4884POPC   C1A22695   9.704  43.925   8.550
 4884POPC   D2A22696   9.699  43.853   8.250
 4884POPC   C3A22697   9.750  43.904   7.950
 4884POPC   C4A22698   9.699  43.878   7.650
 4884POPC   C1B22699   9.587  44.055   8.550
 4884POPC   C2B22700   9.531  44.025   8.250
 4884POPC   C3B22701   9.547  44.020   7.950
 4884POPC   C4B22702   9.554  44.090   7.650
 4885POPC   NC322703  32.996  38.443   9.450
 4885POPC   PO422704  33.031  38.412   9.150
 4885POPC   GL122705  32.977  38.481   8.850
 4885POPC   GL222706  32.892  38.551   8.850
 4885POPC   C1A22707  33.056  38.480   8.550
 4885POPC   D2A22708  33.073  38.413   8.250
 4885POPC   C3A22709  33.073  38.448   7.950
 4885POPC   C4A22710  32.985  38.419   7.650
 4885POPC   C1B22711  32.795  38.649   8.550
 4885POPC   C2B22712  32.814  38.557   8.250
 4885POPC   C3B22713  32.858  38.580   7.950
 4885POPC   C4B22714  32.808  38.622   7.650
 4886POPC   NC322715   5.837  18.269   9.450
 4886POPC   PO422716   5.910  18.236   9.150
 4886POPC   GL122717   5.882  18.272   8.850
 4886POPC   GL222718   5.966  18.171   8.850
 4886POPC   C1A22719   5.882  18.268   8.550
 4886POPC   D2A22720   5.898  18.254   8.250
 4886POPC   C3A22721   5.866  18.297   7.950
 4886POPC   C4A22722   5.829  18.308   7.650
 4886POPC   C1B22723   6.094  18.141   8.550
 4886POPC   C2B22724   6.094  18.132   8.250
 4886POPC   C3B22725   6.083  18.098   7.950
 4886POPC   C4B22726   6.103  18.092   7.650
 4887POPC   NC322727  31.504  29.964   9.450
 4887POPC   PO422728  31.458  29.969   9.150
 4887POPC   GL122729  31.474  29.881   8.850
 4887POPC   GL222730  31.565  29.918   8.850
 4887POPC   C1A22731  31.496  29.948   8.550
 4887POPC   D2A22732  31.462  29.969   8.250
 4887POPC   C3A22733  31.503  29.970   7.950
 4887POPC   C4A22734  31.431  29.894   7.650
 4887POPC   C1B22735  31.762  30.002   8.550
 4887POPC   C2B22736  31.720  29.958   8.250
 4887POPC   C3B22737  31.759  30.004   7.950
 4887POPC   C4B22738  31.759  30.019   7.650
 4888POPC   NC322739  18.313  32.281   9.450
 4888POPC   PO422740  18.303  32.291   9.150
 4888POPC   GL122741  18.293  32.298   8.850
 4888POPC   GL222742  18.269  32.171   8.850
 4888POPC   C1A22743  18.289  32.276   8.550
 4888POPC   D2A22744  18.331  32.275   8.250
 4888POPC   C3A22745  18.280  32.248   7.950
 4888POPC   C4A22746  18.273  32.205   7.650
 4888POPC   C1B22747  18.178  32.022   8.550
 4888POPC   C2B22748  18.174  32.004   8.250
 4888POPC   C3B22749  18.136  32.054   7.950
 4888POPC   C4B22750  18.148  32.054   7.650
 4889POPC   NC322751  16.752  13.642   9.450
 4889POPC   PO422752  16.735  13.611   9.150
 4889POPC   GL122753  16.687  13.587   8.850
 4889POPC   GL222754  16.673  13.479   8.850
 4889POPC   C1A22755  16.769  13.611   8.550
 4889POPC   D2A22756  16.728  13.636   8.250
 4889POPC   C3A22757  16.777  13.655   7.950
 4889POPC   C4A22758  16.752  13.668   7.650
 4889POPC   C1B22759  16.586  13.352   8.550
 4889POPC   C2B22760  16.587  13.429   8.250
 4889POPC   C3B22761  16.599  13.381   7.950
 4889POPC   C4B22762  16.668  13.369   7.650
 4890POPC   NC322763   0.405  33.821   9.450
 4890POPC   PO422764   0.397  33.844   9.150
 4890POPC   GL122765   0.467  33.763   8.850
 4890POPC   GL222766   0.595  33.857   8.850
 4890POPC   C1A22767   0.401  33.842   8.550
 4890POPC   D2A22768   0.433  33.848   8.250
 4890POPC   C3A22769   0.458  33.791   7.950
 4890POPC   C4A22770   0.453  33.843   7.650
 4890POPC   C1B22771   0.705  33.910   8.550
 4890POPC   C2B22772   0.664  33.848   8.250
 4890POPC   C3B22773   0.640  33.891   7.950
 4890POPC   C4B22774   0.718  33.871   7.650
 4891POPC   NC322775  10.533  37.691   9.450
 4891POPC   PO422776  10.535  37.688   9.150
 4891POPC   GL122777  10.546  37.704   8.850
 4891POPC   GL222778  10.661  37.624   8.850
 4891POPC   C1A22779  10.557  37.702   8.550
 4891POPC   D2A22780  10.571  37.686   8.250
 4891POPC   C3A22781  10.555  37.693   7.950
 4891POPC   C4A22782  10.516  37.705   7.650
 4891POPC   C1B22783  10.773  37.586   8.550
 4891POPC   C2B22784  10.804  37.567   8.250
 4891POPC   C3B22785  10.801  37.571   7.950
 4891POPC   C4B22786  10.766  37.579   7.650
 4892POPC   NC322787  19.804  22.207   9.450
 4892POPC   PO422788  19.806  22.134   9.150
 4892POPC   GL122789  19.818  22.116   8.850
 4892POPC   GL222790  19.925  22.240   8.850
 4892POPC   C1A22791  19.884  22.208   8.550
 4892POPC   D2A22792  19.870  22.143   8.250
 4892POPC   C3A22793  19.884  22.130   7.950
 4892POPC   C4A22794  19.844  22.206   7.650
 4892POPC   C1B22795  20.031  22.325   8.550
 4892POPC   C2B22796  20.078  22.307   8.250
 4892POPC   C3B22797  20.067  22.298   7.950
 4892POPC   C4B22798  20.073  22.304   7.650
 4893POPC   NC322799  18.315  15.915   9.450
 4893POPC   PO422800  18.277  15.916   9.150
 4893POPC   GL122801  18.274  15.969   8.850
 4893POPC   GL222802  18.181  16.044   8.850
 4893POPC   C1A22803  18.301  15.949   8.550
 4893POPC   D2A22804  18.260  16.000   8.250
 4893POPC   C3A22805  18.240  15.973   7.950
 4893POPC   C4A22806  18.323  15.939   7.650
 4893POPC   C1B22807  18.025  16.130   8.550
 4893POPC   C2B22808  18.058  16.133   8.250
 4893POPC   C3B22809  18.094  16.047   7.950
 4893POPC   C4B22810  18.044  16.078   7.650
 4894POPC   NC322811  43.139   7.436   9.450
 4894POPC   PO422812  43.093   7.425   9.150
 4894POPC   GL122813  43.160   7.454   8.850
 4894POPC   GL222814  43.059   7.490   8.850
 4894POPC   C1A22815  43.091   7.399   8.550
 4894POPC   D2A22816  43.159   7.420   8.250
 4894POPC   C3A22817  43.158   7.464   7.950
 4894POPC   C4A22818  43.069   7.377   7.650
 4894POPC   C1B22819  42.949   7.641   8.550
 4894POPC   C2B22820  42.930   7.605   8.250
 4894POPC   C3B22821  42.935   7.671   7.950
 4894POPC   C4B22822  42.927   7.659   7.650
 4895POPC   NC322823  14.430   5.843   9.450
 4895POPC   PO422824  14.436   5.914   9.150
 4895POPC   GL122825  14.438   5.823   8.850
 4895POPC   GL222826  14.523   5.798   8.850
 4895POPC   C1A22827  14.354   5.897   8.550
 4895POPC   D2A22828  14.452   5.832   8.250
 4895POPC   C3A22829  14.390   5.874   7.950
 4895POPC   C4A22830  14.372   5.852   7.650
 4895POPC   C1B22831  14.631   5.811   8.550
 4895POPC   C2B22832  14.602   5.794   8.250
 4895POPC   C3B22833  14.643   5.789   7.950
 4895POPC   C4B22834  14.656   5.791   7.650
 4896POPC   NC322835  32.225  34.548   9.450
 4896POPC   PO422836  32.296  34.540   9.150
 4896POPC   GL122837  32.212  34.541   8.850
 4896POPC   GL222838  32.364  34.522   8.850
 4896POPC   C1A22839  32.292  34.568   8.550
 4896POPC   D2A22840  32.245  34.606   8.250
 4896POPC   C3A22841  32.235  34.581   7.950
 4896POPC   C4A22842  32.236  34.538   7.650
 4896POPC   C1B22843  32.446  34.487   8.550
 4896POPC   C2B22844  32.446  34.392   8.250
 4896POPC   C3B22845  32.435  34.423   7.950
 4896POPC   C4B22846  32.413  34.479   7.650
 4897POPC   NC322847  42.363  30.703   9.450
 4897POPC   PO422848  42.348  30.712   9.150
 4897POPC   GL122849  42.356  30.727   8.850
 4897POPC   GL222850  42.195  30.659   8.850
 4897POPC   C1A22851  42.347  30.686   8.550
 4897POPC   D2A22852  42.301  30.691   8.250
 4897POPC   C3A22853  42.317  30.720   7.950
 4897POPC   C4A22854  42.382  30.746   7.650
 4897POPC   C1B22855  42.074  30.550   8.550
 4897POPC   C2B22856  42.087  30.595   8.250
 4897POPC   C3B22857  42.085  30.589   7.950
 4897POPC   C4B22858  42.082  30.592   7.650
 4898POPC   NC322859  33.841  12.111   9.450
 4898POPC   PO422860  33.759  12.029   9.150
 4898POPC   GL122861  33.757  12.046   8.850
 4898POPC   GL222862  33.796  12.201   8.850
 4898POPC   C1A22863  33.825  12.032   8.550
 4898POPC   D2A22864  33.760  12.059   8.250
 4898POPC   C3A22865  33.843  12.108   7.950
 4898POPC   C4A22866  33.820  12.050   7.650
 4898POPC   C1B22867  33.828  12.357   8.550
 4898POPC   C2B22868  33.846  12.364   8.250
 4898POPC   C3B22869  33.814  12.364   7.950
 4898POPC   C4B22870  33.778  12.282   7.650
 4899POPC   NC322871  22.901  29.161   9.450
 4899POPC   PO422872  22.924  29.121   9.150
 4899POPC   GL122873  22.933  29.116   8.850
 4899POPC   GL222874  22.846  29.286   8.850
 4899POPC   C1A22875  22.894  29.107   8.550
 4899POPC   D2A22876  22.948  29.152   8.250
 4899POPC   C3A22877  22.983  29.186   7.950
 4899POPC   C4A22878  22.921  29.103   7.650
 4899POPC   C1B22879  22.835  29.337   8.550
 4899POPC   C2B22880  22.864  29.367   8.250
 4899POPC   C3B22881  22.871  29.418   7.950
 4899POPC   C4B22882  22.865  29.394   7.650
 4900POPC   NC322883  24.510   7.466   9.450
 4900POPC   PO422884  24.447   7.448   9.150
 4900POPC   GL122885  24.481   7.464   8.850
 4900POPC   GL222886  24.508   7.495   8.850
 4900POPC   C1A22887  24.464   7.443   8.550
 4900POPC   D2A22888  24.452   7.413   8.250
 4900POPC   C3A22889  24.479   7.391   7.950
 4900POPC   C4A22890  24.493   7.459   7.650
 4900POPC   C1B22891  24.453   7.673   8.550
 4900POPC   C2B22892  24.419   7.653   8.250
 4900POPC   C3B22893  24.439   7.700   7.950
 4900POPC   C4B22894  24.421   7.684   7.650
 4901POPC   NC322895  34.543  28.327   9.450
 4901POPC   PO422896  34.551  28.397   9.150
 4901POPC   GL122897  34.528  28.359   8.850
 4901POPC   GL222898  34.520  28.315   8.850
 4901POPC   C1A22899  34.568  28.328   8.550
 4901POPC   D2A22900  34.563  28.397   8.250
 4901POPC   C3A22901  34.563  28.401   7.950
 4901POPC   C4A22902  34.605  28.403   7.650
 4901POPC   C1B22903  34.379  28.225   8.550
 4901POPC   C2B22904  34.418  28.177   8.250
 4901POPC   C3B22905  34.343  28.240   7.950
 4901POPC   C4B22906  34.397  28.245   7.650
 4902POPC   NC322907  31.496   8.933   9.450
 4902POPC   PO422908  31.519   8.969   9.150
 4902POPC   GL122909  31.481   8.980   8.850
 4902POPC   GL222910  31.488   9.045   8.850
 4902POPC   C1A22911  31.482   8.970   8.550
 4902POPC   D2A22912  31.423   8.991   8.250
 4902POPC   C3A22913  31.473   8.988   7.950
 4902POPC   C4A22914  31.446   9.004   7.650
 4902POPC   C1B22915  31.520   9.250   8.550
 4902POPC   C2B22916  31.554   9.249   8.250
 4902POPC   C3B22917  31.517   9.169   7.950
 4902POPC   C4B22918  31.513   9.176   7.650
 4903POPC   NC322919  17.536  19.874   9.450
 4903POPC   PO422920  17.466  19.884   9.150
 4903POPC   GL122921  17.539  19.806   8.850
 4903POPC   GL222922  17.403  19.834   8.850
 4903POPC   C1A22923  17.477  19.843   8.550
 4903POPC   D2A22924  17.504  19.788   8.250
 4903POPC   C3A22925  17.535  19.822   7.950
 4903POPC   C4A22926  17.510  19.881   7.650
 4903POPC   C1B22927  17.240  19.933   8.550
 4903POPC   C2B22928  17.244  19.971   8.250
 4903POPC   C3B22929  17.309  19.964   7.950
 4903POPC   C4B22930  17.245  19.887   7.650
 4904POPC   NC322931  25.288  33.053   9.450
 4904POPC   PO422932  25.304  32.998   9.150
 4904POPC   GL122933  25.249  33.008   8.850
 4904POPC   GL222934  25.337  33.045   8.850
 4904POPC   C1A22935  25.255  32.982   8.550
 4904POPC   D2A22936  25.277  33.069   8.250
 4904POPC   C3A22937  25.282  33.032   7.950
 4904POPC   C4A22938  25.273  33.045   7.650
 4904POPC   C1B22939  25.551  33.109   8.550
 4904POPC   C2B22940  25.532  33.096   8.250
 4904POPC   C3B22941  25.466  33.096   7.950
 4904POPC   C4B22942  25.454  33.090   7.650
 4905POPC   NC322943  40.045   3.564   9.450
 4905POPC   PO422944  40.027   3.496   9.150
 4905POPC   GL122945  40.032   3.551   8.850
 4905POPC   GL222946  40.139   3.569   8.850
 4905POPC   C1A22947  39.966   3.589   8.550
 4905POPC   D2A22948  39.969   3.503   8.250
 4905POPC   C3A22949  39.989   3.581   7.950
 4905POPC   C4A22950  40.005   3.496   7.650
 4905POPC   C1B22951  40.245   3.666   8.550
 4905POPC   C2B22952  40.212   3.614   8.250
 4905POPC   C3B22953  40.283   3.615   7.950
 4905POPC   C4B22954  40.246   3.594   7.650
 4906POPC   NC322955  23.667   6.691   9.450
 4906POPC   PO422956  23.742   6.609   9.150
 4906POPC   GL122957  23.676   6.627   8.850
 4906POPC   GL222958  23.706   6.520   8.850
 4906POPC   C1A22959  23.699   6.693   8.550
 4906POPC   D2A22960  23.710   6.681   8.250
 4906POPC   C3A22961  23.724   6.681   7.950
 4906POPC   C4A22962  23.724   6.662   7.650
 4906POPC   C1B22963  23.724   6.389   8.550
 4906POPC   C2B22964  23.724   6.442   8.250
 4906POPC   C3B22965  23.659   6.381   7.950
 4906POPC   C4B22966  23.705   6.403   7.650
 4907POPC   NC322967  21.378   4.275   9.450
 4907POPC   PO422968  21.357   4.296   9.150
 4907POPC   GL122969  21.348   4.286   8.850
 4907POPC   GL222970  21.487   4.420   8.850
 4907POPC   C1A22971  21.415   4.347   8.550
 4907POPC   D2A22972  21.393   4.326   8.250
 4907POPC   C3A22973  21.433   4.312   7.950
 4907POPC   C4A22974  21.399   4.353   7.650
 4907POPC   C1B22975  21.618   4.505   8.550
 4907POPC   C2B22976  21.541   4.443   8.250
 4907POPC   C3B22977  21.575   4.467   7.950
 4907POPC   C4B22978  21.592   4.515   7.650
 4908POPC   NC322979  15.228  29.885   9.450
 4908POPC   PO422980  15.172  29.876   9.150
 4908POPC   GL122981  15.219  29.883   8.850
 4908POPC   GL222982  15.165  29.820   8.850
 4908POPC   C1A22983  15.195  29.937   8.550
 4908POPC   D2A22984  15.151  29.937   8.250
 4908POPC   C3A22985  15.151  29.892   7.950
 4908POPC   C4A22986  15.148  29.881   7.650
 4908POPC   C1B22987  15.047  29.729   8.550
 4908POPC   C2B22988  15.024  29.675   8.250
 4908POPC   C3B22989  15.111  29.733   7.950
 4908POPC   C4B22990  15.095  29.691   7.650
 4909POPC   NC322991  42.343   4.349   9.450
 4909POPC   PO422992  42.339   4.291   9.150
 4909POPC   GL122993  42.296   4.341   8.850
 4909POPC   GL222994  42.324   4.240   8.850
 4909POPC   C1A22995  42.353   4.294   8.550
 4909POPC   D2A22996  42.297   4.328   8.250
 4909POPC   C3A22997  42.323   4.306   7.950
 4909POPC   C4A22998  42.333   4.336   7.650
 4909POPC   C1B22999  42.177   4.086   8.550
 4909POPC   C2B23000  42.245   4.111   8.250
 4909POPC   C3B23001  42.173   4.074   7.950
 4909POPC   C4B23002  42.175   4.059   7.650
 4910POPC   NC323003  24.486  43.113   9.450
 4910POPC   PO423004  24.535  43.157   9.150
 4910POPC   GL123005  24.441  43.070   8.850
 4910POPC   GL223006  24.540  43.231   8.850
 4910POPC   C1A23007  24.518  43.063   8.550
 4910POPC   D2A23008  24.496  43.068   8.250
 4910POPC   C3A23009  24.493  43.159   7.950
 4910POPC   C4A23010  24.536  43.072   7.650
 4910POPC   C1B23011  24.634  43.321   8.550
 4910POPC   C2B23012  24.576  43.359   8.250
 4910POPC   C3B23013  24.623  43.346   7.950
 4910POPC   C4B23014  24.649  43.374   7.650
 4911POPC   NC323015  29.888  20.643   9.450
 4911POPC   PO423016  29.878  20.626   9.150
 4911POPC   GL123017  29.907  20.630   8.850
 4911POPC   GL223018  30.034  20.649   8.850
 4911POPC   C1A23019  29.873  20.628   8.550
 4911POPC   D2A23020  29.892  20.581   8.250
 4911POPC   C3A23021  29.952  20.571   7.950
 4911POPC   C4A23022  29.920  20.567   7.650
 4911POPC   C1B23023  30.133  20.614   8.550
 4911POPC   C2B23024  30.174  20.598   8.250
 4911POPC   C3B23025  30.212  20.588   7.950
 4911POPC   C4B23026  30.153  20.579   7.650
 4912POPC   NC323027  36.170  28.401   9.450
 4912POPC   PO423028  36.138  28.381   9.150
 4912POPC   GL123029  36.149  28.327   8.850
 4912POPC   GL223030  36.024  28.529   8.850
 4912POPC   C1A23031  36.141  28.365   8.550
 4912POPC   D2A23032  36.139  28.386   8.250
 4912POPC   C3A23033  36.152  28.393   7.950
 4912POPC   C4A23034  36.129  28.333   7.650
 4912POPC   C1B23035  36.029  28.563   8.550
 4912POPC   C2B23036  36.008  28.585   8.250
 4912POPC   C3B23037  35.989  28.544   7.950
 4912POPC   C4B23038  36.001  28.593   7.650
 4913POPC   NC323039  12.053  12.881   9.450
 4913POPC   PO423040  12.071  12.873   9.150
 4913POPC   GL123041  12.095  12.856   8.850
 4913POPC   GL223042  12.139  12.928   8.850
 4913POPC   C1A23043  12.122  12.857   8.550
 4913POPC   D2A23044  12.110  12.865   8.250
 4913POPC   C3A23045  12.112  12.886   7.950
 4913POPC   C4A23046  12.034  12.888   7.650
 4913POPC   C1B23047  12.165  13.131   8.550
 4913POPC   C2B23048  12.122  13.102   8.250
 4913POPC   C3B23049  12.089  13.059   7.950
 4913POPC   C4B23050  12.110  13.077   7.650
 4914POPC   NC323051  39.976  43.128   9.450
 4914POPC   PO423052  40.056  43.082   9.150
 4914POPC   GL123053  39.971  43.117   8.850
 4914POPC   GL223054  39.916  43.243   8.850
 4914POPC   C1A23055  39.981  43.123   8.550
 4914POPC   D2A23056  39.990  43.122   8.250
 4914POPC   C3A23057  39.993  43.075   7.950
 4914POPC   C4A23058  40.017  43.159   7.650
 4914POPC   C1B23059  39.871  43.299   8.550
 4914POPC   C2B23060  39.871  43.297   8.250
 4914POPC   C3B23061  39.864  43.248   7.950
 4914POPC   C4B23062  39.878  43.248   7.650
 4915POPC   NC323063  18.248   5.914   9.450
 4915POPC   PO423064  18.247   5.844   9.150
 4915POPC   GL123065  18.241   5.904   8.850
 4915POPC   GL223066  18.213   5.959   8.850
 4915POPC   C1A23067  18.300   5.888   8.550
 4915POPC   D2A23068  18.270   5.820   8.250
 4915POPC   C3A23069  18.310   5.889   7.950
 4915POPC   C4A23070  18.313   5.835   7.650
 4915POPC   C1B23071  18.216   6.108   8.550
 4915POPC   C2B23072  18.168   6.125   8.250
 4915POPC   C3B23073  18.145   6.122   7.950
 4915POPC   C4B23074  18.154   6.143   7.650
 4916POPC   NC323075   8.996  11.271   9.450
 4916POPC   PO423076   8.974  11.317   9.150
 4916POPC   GL123077   8.968  11.334   8.850
 4916POPC   GL223078   9.101  11.255   8.850
 4916POPC   C1A23079   8.925  11.267   8.550
 4916POPC   D2A23080   8.947  11.290   8.250
 4916POPC   C3A23081   8.951  11.282   7.950
 4916POPC   C4A23082   8.962  11.312   7.650
 4916POPC   C1B23083   9.214  11.285   8.550
 4916POPC   C2B23084   9.234  11.286   8.250
 4916POPC   C3B23085   9.247  11.248   7.950
 4916POPC   C4B23086   9.264  11.261   7.650
 4917POPC   NC323087  29.169  34.594   9.450
 4917POPC   PO423088  29.169  34.577   9.150
 4917POPC   GL123089  29.187  34.575   8.850
 4917POPC   GL223090  29.201  34.487   8.850
 4917POPC   C1A23091  29.106  34.620   8.550
 4917POPC   D2A23092  29.136  34.618   8.250
 4917POPC   C3A23093  29.127  34.547   7.950
 4917POPC   C4A23094  29.121  34.550   7.650
 4917POPC   C1B23095  29.193  34.306   8.550
 4917POPC   C2B23096  29.208  34.302   8.250
 4917POPC   C3B23097  29.220  34.289   7.950
 4917POPC   C4B23098  29.268  34.359   7.650
 4918POPC   NC323099  30.683  14.392   9.450
 4918POPC   PO423100  30.674  14.362   9.150
 4918POPC   GL123101  30.740  14.424   8.850
 4918POPC   GL223102  30.613  14.439   8.850
 4918POPC   C1A23103  30.687  14.367   8.550
 4918POPC   D2A23104  30.690  14.438   8.250
 4918POPC   C3A23105  30.731  14.371   7.950
 4918POPC   C4A23106  30.742  14.357   7.650
 4918POPC   C1B23107  30.501  14.576   8.550
 4918POPC   C2B23108  30.500  14.523   8.250
 4918POPC   C3B23109  30.519  14.539   7.950
 4918POPC   C4B23110  30.479  14.565   7.650
 4919POPC   NC323111  39.247  32.220   9.450
 4919POPC   PO423112  39.219  32.215   9.150
 4919POPC   GL123113  39.214  32.255   8.850
 4919POPC   GL223114  39.288  32.369   8.850
 4919POPC   C1A23115  39.229  32.280   8.550
 4919POPC   D2A23116  39.255  32.248   8.250
 4919POPC   C3A23117  39.269  32.276   7.950
 4919POPC   C4A23118  39.207  32.265   7.650
 4919POPC   C1B23119  39.446  32.424   8.550
 4919POPC   C2B23120  39.476  32.396   8.250
 4919POPC   C3B23121  39.392  32.365   7.950
 4919POPC   C4B23122  39.432  32.355   7.650
 4920POPC   NC323123  10.484  24.440   9.450
 4920POPC   PO423124  10.530  24.466   9.150
 4920POPC   GL123125  10.510  24.444   8.850
 4920POPC   GL223126  10.471  24.585   8.850
 4920POPC   C1A23127  10.562  24.500   8.550
 4920POPC   D2A23128  10.567  24.475   8.250
 4920POPC   C3A23129  10.548  24.487   7.950
 4920POPC   C4A23130  10.479  24.451   7.650
 4920POPC   C1B23131  10.477  24.726   8.550
 4920POPC   C2B23132  10.492  24.732   8.250
 4920POPC   C3B23133  10.465  24.709   7.950
 4920POPC   C4B23134  10.503  24.778   7.650
 4921POPC   NC323135  24.460  34.557   9.450
 4921POPC   PO423136  24.498  34.603   9.150
 4921POPC   GL123137  24.519  34.574   8.850
 4921POPC   GL223138  24.615  34.619   8.850
 4921POPC   C1A23139  24.467  34.529   8.550
 4921POPC   D2A23140  24.463  34.605   8.250
 4921POPC   C3A23141  24.518  34.564   7.950
 4921POPC   C4A23142  24.454  34.545   7.650
 4921POPC   C1B23143  24.772  34.560   8.550
 4921POPC   C2B23144  24.709  34.552   8.250
 4921POPC   C3B23145  24.746  34.595   7.950
 4921POPC   C4B23146  24.731  34.578   7.650
 4922POPC   NC323147  44.710  22.896   9.450
 4922POPC   PO423148  44.703  22.897   9.150
 4922POPC   GL123149  44.676  22.957   8.850
 4922POPC   GL223150  44.737  22.807   8.850
 4922POPC   C1A23151  44.702  22.933   8.550
 4922POPC   D2A23152  44.662  22.973   8.250
 4922POPC   C3A23153  44.638  22.968   7.950
 4922POPC   C4A23154  44.698  22.947   7.650
 4922POPC   C1B23155  44.772  22.695   8.550
 4922POPC   C2B23156  44.702  22.716   8.250
 4922POPC   C3B23157  44.756  22.728   7.950
 4922POPC   C4B23158  44.716  22.745   7.650
 4923POPC   NC323159   1.211  41.536   9.450
 4923POPC   PO423160   1.259  41.555   9.150
 4923POPC   GL123161   1.177  41.525   8.850
 4923POPC   GL223162   1.226  41.690   8.850
 4923POPC   C1A23163   1.202  41.526   8.550
 4923POPC   D2A23164   1.255  41.540   8.250
 4923POPC   C3A23165   1.240  41.524   7.950
 4923POPC   C4A23166   1.255  41.525   7.650
 4923POPC   C1B23167   1.187  41.758   8.550
 4923POPC   C2B23168   1.151  41.855   8.250
 4923POPC   C3B23169   1.230  41.767   7.950
 4923POPC   C4B23170   1.163  41.837   7.650
 4924POPC   NC323171  23.720  27.557   9.450
 4924POPC   PO423172  23.703  27.584   9.150
 4924POPC   GL123173  23.762  27.544   8.850
 4924POPC   GL223174  23.772  27.680   8.850
 4924POPC   C1A23175  23.753  27.546   8.550
 4924POPC   D2A23176  23.752  27.560   8.250
 4924POPC   C3A23177  23.695  27.567   7.950
 4924POPC   C4A23178  23.724  27.570   7.650
 4924POPC   C1B23179  23.847  27.789   8.550
 4924POPC   C2B23180  23.831  27.768   8.250
 4924POPC   C3B23181  23.838  27.803   7.950
 4924POPC   C4B23182  23.885  27.751   7.650
 4925POPC   NC323183  26.064  12.874   9.450
 4925POPC   PO423184  26.023  12.836   9.150
 4925POPC   GL123185  26.057  12.855   8.850
 4925POPC   GL223186  25.953  12.745   8.850
 4925POPC   C1A23187  26.042  12.845   8.550
 4925POPC   D2A23188  26.066  12.874   8.250
 4925POPC   C3A23189  26.049  12.842   7.950
 4925POPC   C4A23190  26.044  12.848   7.650
 4925POPC   C1B23191  25.844  12.690   8.550
 4925POPC   C2B23192  25.885  12.640   8.250
 4925POPC   C3B23193  25.846  12.690   7.950
 4925POPC   C4B23194  25.873  12.622   7.650
 4926POPC   NC323195  44.616  32.205   9.450
 4926POPC   PO423196  44.630  32.201   9.150
 4926POPC   GL123197  44.669  32.228   8.850
 4926POPC   GL223198  44.575  32.116   8.850
 4926POPC   C1A23199  44.665  32.226   8.550
 4926POPC   D2A23200  44.647  32.271   8.250
 4926POPC   C3A23201  44.614  32.289   7.950
 4926POPC   C4A23202  44.705  32.256   7.650
 4926POPC   C1B23203  44.526  32.013   8.550
 4926POPC   C2B23204  44.505  31.994   8.250
 4926POPC   C3B23205  44.534  31.978   7.950
 4926POPC   C4B23206  44.570  32.073   7.650
 4927POPC   NC323207  41.531  29.928   9.450
 4927POPC   PO423208  41.564  29.945   9.150
 4927POPC   GL123209  41.599  29.962   8.850
 4927POPC   GL223210  41.540  29.825   8.850
 4927POPC   C1A23211  41.600  29.921   8.550
 4927POPC   D2A23212  41.525  29.923   8.250
 4927POPC   C3A23213  41.563  29.969   7.950
 4927POPC   C4A23214  41.586  29.951   7.650
 4927POPC   C1B23215  41.433  29.698   8.550
 4927POPC   C2B23216  41.481  29.748   8.250
 4927POPC   C3B23217  41.485  29.686   7.950
 4927POPC   C4B23218  41.451  29.691   7.650
 4928POPC   NC323219  25.222  44.679   9.450
 4928POPC   PO423220  25.291  44.694   9.150
 4928POPC   GL123221  25.283  44.619   8.850
 4928POPC   GL223222  25.355  44.739   8.850
 4928POPC   C1A23223  25.258  44.650   8.550
 4928POPC   D2A23224  25.237  44.642   8.250
 4928POPC   C3A23225  25.278  44.638   7.950
 4928POPC   C4A23226  25.227  44.625   7.650
 4928POPC   C1B23227  25.374  44.889   8.550
 4928POPC   C2B23228  25.401  44.900   8.250
 4928POPC   C3B23229  25.397  44.822   7.950
 4928POPC   C4B23230  25.403  44.903   7.650
 4929POPC   NC323231  22.971  41.558   9.450
 4929POPC   PO423232  22.985  41.510   9.150
 4929POPC   GL123233  22.927  41.550   8.850
 4929POPC   GL223234  22.915  41.634   8.850
 4929POPC   C1A23235  22.904  41.551   8.550
 4929POPC   D2A23236  22.920  41.537   8.250
 4929POPC   C3A23237  22.986  41.605   7.950
 4929POPC   C4A23238  22.910  41.534   7.650
 4929POPC   C1B23239  22.852  41.720   8.550
 4929POPC   C2B23240  22.816  41.743   8.250
 4929POPC   C3B23241  22.847  41.727   7.950
 4929POPC   C4B23242  22.837  41.805   7.650
 4930POPC   NC323243  33.819  33.802   9.450
 4930POPC   PO423244  33.800  33.806   9.150
 4930POPC   GL123245  33.823  33.807   8.850
 4930POPC   GL223246  33.649  33.866   8.850
 4930POPC   C1A23247  33.810  33.835   8.550
 4930POPC   D2A23248  33.761  33.800   8.250
 4930POPC   C3A23249  33.803  33.758   7.950
 4930POPC   C4A23250  33.840  33.840   7.650
 4930POPC   C1B23251  33.592  33.897   8.550
 4930POPC   C2B23252  33.551  33.943   8.250
 4930POPC   C3B23253  33.605  33.889   7.950
 4930POPC   C4B23254  33.551  33.874   7.650
 4931POPC   NC323255  29.930  24.497   9.450
 4931POPC   PO423256  29.889  24.497   9.150
 4931POPC   GL123257  29.934  24.498   8.850
 4931POPC   GL223258  29.978  24.564   8.850
 4931POPC   C1A23259  29.943  24.523   8.550
 4931POPC   D2A23260  29.960  24.521   8.250
 4931POPC   C3A23261  29.904  24.451   7.950
 4931POPC   C4A23262  29.896  24.538   7.650
 4931POPC   C1B23263  30.119  24.647   8.550
 4931POPC   C2B23264  30.081  24.642   8.250
 4931POPC   C3B23265  30.075  24.686   7.950
 4931POPC   C4B23266  30.040  24.706   7.650
 4932POPC   NC323267  38.494  16.697   9.450
 4932POPC   PO423268  38.465  16.753   9.150
 4932POPC   GL123269  38.449  16.749   8.850
 4932POPC   GL223270  38.522  16.778   8.850
 4932POPC   C1A23271  38.430  16.751   8.550
 4932POPC   D2A23272  38.440  16.770   8.250
 4932POPC   C3A23273  38.435  16.762   7.950
 4932POPC   C4A23274  38.428  16.707   7.650
 4932POPC   C1B23275  38.685  16.857   8.550
 4932POPC   C2B23276  38.596  16.875   8.250
 4932POPC   C3B23277  38.625  16.891   7.950
 4932POPC   C4B23278  38.600  16.949   7.650
 4933POPC   NC323279  29.128   3.536   9.450
 4933POPC   PO423280  29.105   3.512   9.150
 4933POPC   GL123281  29.182   3.563   8.850
 4933POPC   GL223282  29.245   3.422   8.850
 4933POPC   C1A23283  29.156   3.560   8.550
 4933POPC   D2A23284  29.159   3.576   8.250
 4933POPC   C3A23285  29.150   3.499   7.950
 4933POPC   C4A23286  29.134   3.560   7.650
 4933POPC   C1B23287  29.316   3.347   8.550
 4933POPC   C2B23288  29.266   3.374   8.250
 4933POPC   C3B23289  29.277   3.354   7.950
 4933POPC   C4B23290  29.255   3.326   7.650
 4934POPC   NC323291  16.778  43.916   9.450
 4934POPC   PO423292  16.763  43.886   9.150
 4934POPC   GL123293  16.743  43.918   8.850
 4934POPC   GL223294  16.830  43.954   8.850
 4934POPC   C1A23295  16.730  43.841   8.550
 4934POPC   D2A23296  16.744  43.859   8.250
 4934POPC   C3A23297  16.683  43.840   7.950
 4934POPC   C4A23298  16.692  43.924   7.650
 4934POPC   C1B23299  17.001  44.026   8.550
 4934POPC   C2B23300  16.978  43.969   8.250
 4934POPC   C3B23301  16.964  44.021   7.950
 4934POPC   C4B23302  16.998  43.969   7.650
 4935POPC   NC323303  39.241  40.763   9.450
 4935POPC   PO423304  39.252  40.825   9.150
 4935POPC   GL123305  39.195  40.737   8.850
 4935POPC   GL223306  39.299  40.886   8.850
 4935POPC   C1A23307  39.196  40.798   8.550
 4935POPC   D2A23308  39.202  40.782   8.250
 4935POPC   C3A23309  39.259  40.736   7.950
 4935POPC   C4A23310  39.257  40.742   7.650
 4935POPC   C1B23311  39.492  40.882   8.550
 4935POPC   C2B23312  39.461  40.858   8.250
 4935POPC   C3B23313  39.421  40.858   7.950
 4935POPC   C4B23314  39.480  40.865   7.650
 4936POPC   NC323315  13.603   3.575   9.450
 4936POPC   PO423316  13.627   3.517   9.150
 4936POPC   GL123317  13.598   3.531   8.850
 4936POPC   GL223318  13.627   3.418   8.850
 4936POPC   C1A23319  13.618   3.585   8.550
 4936POPC   D2A23320  13.639   3.554   8.250
 4936POPC   C3A23321  13.594   3.535   7.950
 4936POPC   C4A23322  13.605   3.523   7.650
 4936POPC   C1B23323  13.571   3.286   8.550
 4936POPC   C2B23324  13.515   3.296   8.250
 4936POPC   C3B23325  13.531   3.305   7.950
 4936POPC   C4B23326  13.585   3.277   7.650
 4937POPC   NC323327   4.282  43.107   9.450
 4937POPC   PO423328   4.358  43.066   9.150
 4937POPC   GL123329   4.315  43.088   8.850
 4937POPC   GL223330   4.214  43.179   8.850
 4937POPC   C1A23331   4.289  43.147   8.550
 4937POPC   D2A23332   4.359  43.102   8.250
 4937POPC   C3A23333   4.331  43.123   7.950
 4937POPC   C4A23334   4.291  43.142   7.650
 4937POPC   C1B23335   4.079  43.153   8.550
 4937POPC   C2B23336   4.099  43.158   8.250
 4937POPC   C3B23337   4.029  43.180   7.950
 4937POPC   C4B23338   4.091  43.191   7.650
 4938POPC   NC323339  36.866  22.152   9.450
 4938POPC   PO423340  36.913  22.184   9.150
 4938POPC   GL123341  36.929  22.175   8.850
 4938POPC   GL223342  36.825  22.050   8.850
 4938POPC   C1A23343  36.949  22.191   8.550
 4938POPC   D2A23344  36.876  22.205   8.250
 4938POPC   C3A23345  36.865  22.141   7.950
 4938POPC   C4A23346  36.881  22.177   7.650
 4938POPC   C1B23347  36.774  22.001   8.550
 4938POPC   C2B23348  36.765  21.957   8.250
 4938POPC   C3B23349  36.722  21.927   7.950
 4938POPC   C4B23350  36.777  21.967   7.650
 4939POPC   NC323351  15.933  29.162   9.450
 4939POPC   PO423352  15.971  29.109   9.150
 4939POPC   GL123353  15.957  29.108   8.850
 4939POPC   GL223354  16.029  29.108   8.850
 4939POPC   C1A23355  15.965  29.096   8.550
 4939POPC   D2A23356  15.986  29.097   8.250
 4939POPC   C3A23357  15.939  29.117   7.950
 4939POPC   C4A23358  15.974  29.187   7.650
 4939POPC   C1B23359  16.205  29.053   8.550
 4939POPC   C2B23360  16.213  29.041   8.250
 4939POPC   C3B23361  16.145  29.047   7.950
 4939POPC   C4B23362  16.182  28.967   7.650
 4940POPC   NC323363  35.345  29.179   9.450
 4940POPC   PO423364  35.325  29.171   9.150
 4940POPC   GL123365  35.327  29.096   8.850
 4940POPC   GL223366  35.353  29.049   8.850
 4940POPC   C1A23367  35.380  29.191   8.550
 4940POPC   D2A23368  35.384  29.186   8.250
 4940POPC   C3A23369  35.323  29.106   7.950
 4940POPC   C4A23370  35.353  29.129   7.650
 4940POPC   C1B23371  35.382  28.879   8.550
 4940POPC   C2B23372  35.341  28.934   8.250
 4940POPC   C3B23373  35.314  28.890   7.950
 4940POPC   C4B23374  35.360  28.880   7.650
 4941POPC   NC323375   8.980   9.741   9.450
 4941POPC   PO423376   8.989   9.700   9.150
 4941POPC   GL123377   8.997   9.748   8.850
 4941POPC   GL223378   8.800   9.756   8.850
 4941POPC   C1A23379   9.000   9.770   8.550
 4941POPC   D2A23380   9.012   9.786   8.250
 4941POPC   C3A23381   9.018   9.713   7.950
 4941POPC   C4A23382   8.980   9.712   7.650
 4941POPC   C1B23383   8.683   9.762   8.550
 4941POPC   C2B23384   8.689   9.724   8.250
 4941POPC   C3B23385   8.769   9.724   7.950
 4941POPC   C4B23386   8.736   9.739   7.650
 4942POPC   NC323387  18.236   9.013   9.450
 4942POPC   PO423388  18.331   8.993   9.150
 4942POPC   GL123389  18.250   8.956   8.850
 4942POPC   GL223390  18.427   9.080   8.850
 4942POPC   C1A23391  18.288   9.021   8.550
 4942POPC   D2A23392  18.291   8.980   8.250
 4942POPC   C3A23393  18.306   8.927   7.950
 4942POPC   C4A23394  18.293   8.969   7.650
 4942POPC   C1B23395  18.483   9.084   8.550
 4942POPC   C2B23396  18.474   9.091   8.250
 4942POPC   C3B23397  18.537   9.120   7.950
 4942POPC   C4B23398  18.455   9.061   7.650
 4943POPC   NC323399  29.946  40.818   9.450
 4943POPC   PO423400  29.937  40.741   9.150
 4943POPC   GL123401  29.897  40.818   8.850
 4943POPC   GL223402  29.885  40.938   8.850
 4943POPC   C1A23403  29.886  40.813   8.550
 4943POPC   D2A23404  29.882  40.814   8.250
 4943POPC   C3A23405  29.914  40.804   7.950
 4943POPC   C4A23406  29.942  40.764   7.650
 4943POPC   C1B23407  29.898  41.063   8.550
 4943POPC   C2B23408  29.899  41.055   8.250
 4943POPC   C3B23409  29.876  40.979   7.950
 4943POPC   C4B23410  29.888  41.012   7.650
 4944POPC   NC323411   1.941  39.957   9.450
 4944POPC   PO423412   1.984  39.988   9.150
 4944POPC   GL123413   2.002  40.056   8.850
 4944POPC   GL223414   1.932  40.137   8.850
 4944POPC   C1A23415   2.038  40.050   8.550
 4944POPC   D2A23416   1.995  39.973   8.250
 4944POPC   C3A23417   1.992  39.984   7.950
 4944POPC   C4A23418   1.983  39.978   7.650
 4944POPC   C1B23419   1.945  40.267   8.550
 4944POPC   C2B23420   2.009  40.263   8.250
 4944POPC   C3B23421   1.979  40.275   7.950
 4944POPC   C4B23422   1.992  40.227   7.650
 4945POPC   NC323423  21.412  27.586   9.450
 4945POPC   PO423424  21.354  27.642   9.150
 4945POPC   GL123425  21.381  27.630   8.850
 4945POPC   GL223426  21.280  27.585   8.850
 4945POPC   C1A23427  21.367  27.563   8.550
 4945POPC   D2A23428  21.390  27.629   8.250
 4945POPC   C3A23429  21.407  27.546   7.950
 4945POPC   C4A23430  21.379  27.551   7.650
 4945POPC   C1B23431  21.130  27.606   8.550
 4945POPC   C2B23432  21.105  27.580   8.250
 4945POPC   C3B23433  21.177  27.550   7.950
 4945POPC   C4B23434  21.119  27.620   7.650
 4946POPC   NC323435  13.630  32.293   9.450
 4946POPC   PO423436  13.631  32.239   9.150
 4946POPC   GL123437  13.600  32.297   8.850
 4946POPC   GL223438  13.693  32.092   8.850
 4946POPC   C1A23439  13.596  32.294   8.550
 4946POPC   D2A23440  13.641  32.270   8.250
 4946POPC   C3A23441  13.599  32.266   7.950
 4946POPC   C4A23442  13.648  32.207   7.650
 4946POPC   C1B23443  13.670  31.978   8.550
 4946POPC   C2B23444  13.681  31.979   8.250
 4946POPC   C3B23445  13.724  32.028   7.950
 4946POPC   C4B23446  13.726  32.021   7.650
 4947POPC   NC323447   1.180  32.986   9.450
 4947POPC   PO423448   1.260  33.061   9.150
 4947POPC   GL123449   1.259  33.018   8.850
 4947POPC   GL223450   1.210  33.140   8.850
 4947POPC   C1A23451   1.261  33.044   8.550
 4947POPC   D2A23452   1.209  33.065   8.250
 4947POPC   C3A23453   1.172  33.003   7.950
 4947POPC   C4A23454   1.223  33.001   7.650
 4947POPC   C1B23455   1.224  33.276   8.550
 4947POPC   C2B23456   1.264  33.236   8.250
 4947POPC   C3B23457   1.223  33.282   7.950
 4947POPC   C4B23458   1.260  33.282   7.650
 4948POPC   NC323459  36.170  18.314   9.450
 4948POPC   PO423460  36.098  18.234   9.150
 4948POPC   GL123461  36.108  18.235   8.850
 4948POPC   GL223462  36.280  18.323   8.850
 4948POPC   C1A23463  36.170  18.313   8.550
 4948POPC   D2A23464  36.106  18.300   8.250
 4948POPC   C3A23465  36.101  18.291   7.950
 4948POPC   C4A23466  36.089  18.289   7.650
 4948POPC   C1B23467  36.328  18.232   8.550
 4948POPC   C2B23468  36.376  18.216   8.250
 4948POPC   C3B23469  36.365  18.299   7.950
 4948POPC   C4B23470  36.364  18.250   7.650
 4949POPC   NC323471  16.714   9.018   9.450
 4949POPC   PO423472  16.711   8.937   9.150
 4949POPC   GL123473  16.685   8.964   8.850
 4949POPC   GL223474  16.845   9.020   8.850
 4949POPC   C1A23475  16.770   9.014   8.550
 4949POPC   D2A23476  16.761   8.987   8.250
 4949POPC   C3A23477  16.746   8.960   7.950
 4949POPC   C4A23478  16.734   9.013   7.650
 4949POPC   C1B23479  16.872   9.145   8.550
 4949POPC   C2B23480  16.940   9.193   8.250
 4949POPC   C3B23481  16.855   9.203   7.950
 4949POPC   C4B23482  16.885   9.168   7.650
 4950POPC   NC323483  14.378   5.096   9.450
 4950POPC   PO423484  14.410   5.068   9.150
 4950POPC   GL123485  14.442   5.140   8.850
 4950POPC   GL223486  14.441   5.018   8.850
 4950POPC   C1A23487  14.369   5.055   8.550
 4950POPC   D2A23488  14.406   5.054   8.250
 4950POPC   C3A23489  14.430   5.050   7.950
 4950POPC   C4A23490  14.412   5.091   7.650
 4950POPC   C1B23491  14.414   4.864   8.550
 4950POPC   C2B23492  14.467   4.865   8.250
 4950POPC   C3B23493  14.445   4.892   7.950
 4950POPC   C4B23494  14.447   4.814   7.650
 4951POPC   NC323495  31.486   2.734   9.450
 4951POPC   PO423496  31.492   2.752   9.150
 4951POPC   GL123497  31.509   2.801   8.850
 4951POPC   GL223498  31.394   2.697   8.850
 4951POPC   C1A23499  31.483   2.743   8.550
 4951POPC   D2A23500  31.475   2.725   8.250
 4951POPC   C3A23501  31.507   2.778   7.950
 4951POPC   C4A23502  31.500   2.798   7.650
 4951POPC   C1B23503  31.307   2.557   8.550
 4951POPC   C2B23504  31.256   2.566   8.250
 4951POPC   C3B23505  31.304   2.556   7.950
 4951POPC   C4B23506  31.306   2.588   7.650
 4952POPC   NC323507  12.063   2.766   9.450
 4952POPC   PO423508  12.040   2.780   9.150
 4952POPC   GL123509  12.040   2.804   8.850
 4952POPC   GL223510  12.115   2.621   8.850
 4952POPC   C1A23511  12.062   2.741   8.550
 4952POPC   D2A23512  12.093   2.721   8.250
 4952POPC   C3A23513  12.032   2.774   7.950
 4952POPC   C4A23514  12.050   2.781   7.650
 4952POPC   C1B23515  12.090   2.481   8.550
 4952POPC   C2B23516  12.074   2.565   8.250
 4952POPC   C3B23517  12.116   2.507   7.950
 4952POPC   C4B23518  12.039   2.544   7.650
 4953POPC   NC323519  20.569  13.592   9.450
 4953POPC   PO423520  20.628  13.677   9.150
 4953POPC   GL123521  20.608  13.608   8.850
 4953POPC   GL223522  20.662  13.517   8.850
 4953POPC   C1A23523  20.565  13.602   8.550
 4953POPC   D2A23524  20.580  13.670   8.250
 4953POPC   C3A23525  20.568  13.600   7.950
 4953POPC   C4A23526  20.623  13.633   7.650
 4953POPC   C1B23527  20.807  13.426   8.550
 4953POPC   C2B23528  20.738  13.422   8.250
 4953POPC   C3B23529  20.743  13.455   7.950
 4953POPC   C4B23530  20.826  13.421   7.650
 4954POPC   NC323531   6.690  13.658   9.450
 4954POPC   PO423532   6.671  13.651   9.150
 4954POPC   GL123533   6.636  13.613   8.850
 4954POPC   GL223534   6.733  13.579   8.850
 4954POPC   C1A23535   6.655  13.650   8.550
 4954POPC   D2A23536   6.597  13.629   8.250
 4954POPC   C3A23537   6.659  13.624   7.950
 4954POPC   C4A23538   6.644  13.606   7.650
 4954POPC   C1B23539   6.871  13.652   8.550
 4954POPC   C2B23540   6.899  13.656   8.250
 4954POPC   C3B23541   6.935  13.606   7.950
 4954POPC   C4B23542   6.920  13.659   7.650
 4955POPC   NC323543  29.185  35.369   9.450
 4955POPC   PO423544  29.190  35.346   9.150
 4955POPC   GL123545  29.195  35.373   8.850
 4955POPC   GL223546  29.010  35.381   8.850
 4955POPC   C1A23547  29.168  35.352   8.550
 4955POPC   D2A23548  29.124  35.357   8.250
 4955POPC   C3A23549  29.156  35.347   7.950
 4955POPC   C4A23550  29.165  35.322   7.650
 4955POPC   C1B23551  28.870  35.393   8.550
 4955POPC   C2B23552  28.914  35.363   8.250
 4955POPC   C3B23553  28.857  35.414   7.950
 4955POPC   C4B23554  28.875  35.370   7.650
 4956POPC   NC323555   4.346  31.463   9.450
 4956POPC   PO423556   4.273  31.486   9.150
 4956POPC   GL123557   4.349  31.444   8.850
 4956POPC   GL223558   4.321  31.349   8.850
 4956POPC   C1A23559   4.317  31.457   8.550
 4956POPC   D2A23560   4.358  31.453   8.250
 4956POPC   C3A23561   4.284  31.472   7.950
 4956POPC   C4A23562   4.302  31.506   7.650
 4956POPC   C1B23563   4.284  31.232   8.550
 4956POPC   C2B23564   4.327  31.203   8.250
 4956POPC   C3B23565   4.325  31.261   7.950
 4956POPC   C4B23566   4.254  31.257   7.650
 4957POPC   NC323567  28.343   5.865   9.450
 4957POPC   PO423568  28.332   5.846   9.150
 4957POPC   GL123569  28.392   5.863   8.850
 4957POPC   GL223570  28.423   5.708   8.850
 4957POPC   C1A23571  28.418   5.861   8.550
 4957POPC   D2A23572  28.392   5.901   8.250
 4957POPC   C3A23573  28.369   5.906   7.950
 4957POPC   C4A23574  28.321   5.865   7.650
 4957POPC   C1B23575  28.440   5.635   8.550
 4957POPC   C2B23576  28.375   5.654   8.250
 4957POPC   C3B23577  28.429   5.580   7.950
 4957POPC   C4B23578  28.424   5.625   7.650
 4958POPC   NC323579  24.486   8.157   9.450
 4958POPC   PO423580  24.497   8.225   9.150
 4958POPC   GL123581  24.457   8.155   8.850
 4958POPC   GL223582  24.524   8.119   8.850
 4958POPC   C1A23583  24.463   8.242   8.550
 4958POPC   D2A23584  24.488   8.232   8.250
 4958POPC   C3A23585  24.476   8.215   7.950
 4958POPC   C4A23586  24.447   8.171   7.650
 4958POPC   C1B23587  24.489   7.955   8.550
 4958POPC   C2B23588  24.576   7.982   8.250
 4958POPC   C3B23589  24.576   7.980   7.950
 4958POPC   C4B23590  24.504   7.948   7.650
 4959POPC   NC323591   5.104  40.788   9.450
 4959POPC   PO423592   5.046  40.762   9.150
 4959POPC   GL123593   5.086  40.805   8.850
 4959POPC   GL223594   5.011  40.863   8.850
 4959POPC   C1A23595   5.079  40.762   8.550
 4959POPC   D2A23596   5.097  40.815   8.250
 4959POPC   C3A23597   5.101  40.746   7.950
 4959POPC   C4A23598   5.104  40.763   7.650
 4959POPC   C1B23599   4.935  40.990   8.550
 4959POPC   C2B23600   4.991  41.017   8.250
 4959POPC   C3B23601   4.997  40.947   7.950
 4959POPC   C4B23602   5.011  40.947   7.650
 4960POPC   NC323603  24.462   5.049   9.450
 4960POPC   PO423604  24.507   5.087   9.150
 4960POPC   GL123605  24.481   5.109   8.850
 4960POPC   GL223606  24.621   5.221   8.850
 4960POPC   C1A23607  24.505   5.135   8.550
 4960POPC   D2A23608  24.456   5.052   8.250
 4960POPC   C3A23609  24.505   5.116   7.950
 4960POPC   C4A23610  24.509   5.087   7.650
 4960POPC   C1B23611  24.649   5.258   8.550
 4960POPC   C2B23612  24.695   5.279   8.250
 4960POPC   C3B23613  24.705   5.258   7.950
 4960POPC   C4B23614  24.718   5.207   7.650
 4961POPC   NC323615  12.103  42.383   9.450
 4961POPC   PO423616  12.064  42.357   9.150
 4961POPC   GL123617  12.090  42.318   8.850
 4961POPC   GL223618  12.176  42.276   8.850
 4961POPC   C1A23619  12.108  42.285   8.550
 4961POPC   D2A23620  12.111  42.330   8.250
 4961POPC   C3A23621  12.038  42.335   7.950
 4961POPC   C4A23622  12.082  42.333   7.650
 4961POPC   C1B23623  12.319  42.300   8.550
 4961POPC   C2B23624  12.345  42.248   8.250
 4961POPC   C3B23625  12.328  42.272   7.950
 4961POPC   C4B23626  12.306  42.308   7.650
 4962POPC   NC323627  43.090   5.053   9.450
 4962POPC   PO423628  43.149   5.053   9.150
 4962POPC   GL123629  43.159   5.126   8.850
 4962POPC   GL223630  43.198   4.972   8.850
 4962POPC   C1A23631  43.089   5.141   8.550
 4962POPC   D2A23632  43.087   5.085   8.250
 4962POPC   C3A23633  43.091   5.110   7.950
 4962POPC   C4A23634  43.099   5.059   7.650
 4962POPC   C1B23635  43.327   4.986   8.550
 4962POPC   C2B23636  43.303   4.931   8.250
 4962POPC   C3B23637  43.299   4.908   7.950
 4962POPC   C4B23638  43.364   4.941   7.650
 4963POPC   NC323639  30.710  36.146   9.450
 4963POPC   PO423640  30.706  36.166   9.150
 4963POPC   GL123641  30.692  36.098   8.850
 4963POPC   GL223642  30.824  36.158   8.850
 4963POPC   C1A23643  30.671  36.159   8.550
 4963POPC   D2A23644  30.729  36.093   8.250
 4963POPC   C3A23645  30.689  36.177   7.950
 4963POPC   C4A23646  30.692  36.134   7.650
 4963POPC   C1B23647  30.896  36.277   8.550
 4963POPC   C2B23648  30.868  36.264   8.250
 4963POPC   C3B23649  30.900  36.256   7.950
 4963POPC   C4B23650  30.881  36.308   7.650
 4964POPC   NC323651  29.112  29.880   9.450
 4964POPC   PO423652  29.169  29.922   9.150
 4964POPC   GL123653  29.158  29.946   8.850
 4964POPC   GL223654  29.254  29.966   8.850
 4964POPC   C1A23655  29.134  29.876   8.550
 4964POPC   D2A23656  29.183  29.920   8.250
 4964POPC   C3A23657  29.173  29.907   7.950
 4964POPC   C4A23658  29.168  29.888   7.650
 4964POPC   C1B23659  29.350  29.989   8.550
 4964POPC   C2B23660  29.373  29.976   8.250
 4964POPC   C3B23661  29.419  29.966   7.950
 4964POPC   C4B23662  29.415  29.958   7.650
 4965POPC   NC323663   3.495  10.493   9.450
 4965POPC   PO423664   3.506  10.499   9.150
 4965POPC   GL123665   3.541  10.546   8.850
 4965POPC   GL223666   3.653  10.403   8.850
 4965POPC   C1A23667   3.547  10.478   8.550
 4965POPC   D2A23668   3.504  10.499   8.250
 4965POPC   C3A23669   3.549  10.508   7.950
 4965POPC   C4A23670   3.553  10.482   7.650
 4965POPC   C1B23671   3.770  10.340   8.550
 4965POPC   C2B23672   3.775  10.334   8.250
 4965POPC   C3B23673   3.753  10.332   7.950
 4965POPC   C4B23674   3.709  10.377   7.650
 4966POPC   NC323675  26.025  29.149   9.450
 4966POPC   PO423676  26.028  29.142   9.150
 4966POPC   GL123677  26.038  29.128   8.850
 4966POPC   GL223678  25.926  29.126   8.850
 4966POPC   C1A23679  26.019  29.125   8.550
 4966POPC   D2A23680  26.012  29.128   8.250
 4966POPC   C3A23681  26.068  29.189   7.950
 4966POPC   C4A23682  26.050  29.102   7.650
 4966POPC   C1B23683  25.767  29.161   8.550
 4966POPC   C2B23684  25.755  29.110   8.250
 4966POPC   C3B23685  25.806  29.103   7.950
 4966POPC   C4B23686  25.788  29.155   7.650
 4967POPC   NC323687  19.874  23.709   9.450
 4967POPC   PO423688  19.834  23.731   9.150
 4967POPC   GL123689  19.855  23.756   8.850
 4967POPC   GL223690  19.762  23.667   8.850
 4967POPC   C1A23691  19.848  23.708   8.550
 4967POPC   D2A23692  19.830  23.681   8.250
 4967POPC   C3A23693  19.845  23.751   7.950
 4967POPC   C4A23694  19.806  23.666   7.650
 4967POPC   C1B23695  19.629  23.507   8.550
 4967POPC   C2B23696  19.659  23.536   8.250
 4967POPC   C3B23697  19.613  23.559   7.950
 4967POPC   C4B23698  19.626  23.561   7.650
 4968POPC   NC323699  16.003  39.973   9.450
 4968POPC   PO423700  15.979  40.014   9.150
 4968POPC   GL123701  15.996  40.044   8.850
 4968POPC   GL223702  16.036  39.994   8.850
 4968POPC   C1A23703  15.977  40.033   8.550
 4968POPC   D2A23704  15.986  40.007   8.250
 4968POPC   C3A23705  15.971  40.005   7.950
 4968POPC   C4A23706  15.935  39.991   7.650
 4968POPC   C1B23707  16.223  40.033   8.550
 4968POPC   C2B23708  16.210  40.053   8.250
 4968POPC   C3B23709  16.240  40.040   7.950
 4968POPC   C4B23710  16.246  40.055   7.650
 4969POPC   NC323711  13.659  36.938   9.450
 4969POPC   PO423712  13.649  36.936   9.150
 4969POPC   GL123713  13.630  36.903   8.850
 4969POPC   GL223714  13.552  36.806   8.850
 4969POPC   C1A23715  13.649  36.942   8.550
 4969POPC   D2A23716  13.641  36.920   8.250
 4969POPC   C3A23717  13.587  36.953   7.950
 4969POPC   C4A23718  13.648  36.899   7.650
 4969POPC   C1B23719  13.581  36.633   8.550
 4969POPC   C2B23720  13.559  36.637   8.250
 4969POPC   C3B23721  13.563  36.626   7.950
 4969POPC   C4B23722  13.608  36.639   7.650
 4970POPC   NC323723  32.988   5.133   9.450
 4970POPC   PO423724  33.072   5.058   9.150
 4970POPC   GL123725  33.032   5.100   8.850
 4970POPC   GL223726  32.967   5.052   8.850
 4970POPC   C1A23727  32.979   5.114   8.550
 4970POPC   D2A23728  33.059   5.046   8.250
 4970POPC   C3A23729  33.023   5.133   7.950
 4970POPC   C4A23730  32.995   5.055   7.650
 4970POPC   C1B23731  32.860   4.903   8.550
 4970POPC   C2B23732  32.840   4.901   8.250
 4970POPC   C3B23733  32.879   4.928   7.950
 4970POPC   C4B23734  32.890   4.890   7.650
 4971POPC   NC323735  17.504  18.263   9.450
 4971POPC   PO423736  17.538  18.266   9.150
 4971POPC   GL123737  17.486  18.331   8.850
 4971POPC   GL223738  17.430  18.231   8.850
 4971POPC   C1A23739  17.539  18.289   8.550
 4971POPC   D2A23740  17.538  18.327   8.250
 4971POPC   C3A23741  17.537  18.300   7.950
 4971POPC   C4A23742  17.466  18.234   7.650
 4971POPC   C1B23743  17.247  18.211   8.550
 4971POPC   C2B23744  17.308  18.204   8.250
 4971POPC   C3B23745  17.249  18.235   7.950
 4971POPC   C4B23746  17.266  18.160   7.650
 4972POPC   NC323747  44.618  14.381   9.450
 4972POPC   PO423748  44.681  14.368   9.150
 4972POPC   GL123749  44.662  14.430   8.850
 4972POPC   GL223750  44.672  14.253   8.850
 4972POPC   C1A23751  44.696  14.382   8.550
 4972POPC   D2A23752  44.663  14.438   8.250
 4972POPC   C3A23753  44.688  14.450   7.950
 4972POPC   C4A23754  44.639  14.372   7.650
 4972POPC   C1B23755  44.726  14.126   8.550
 4972POPC   C2B23756  44.773  14.211   8.250
 4972POPC   C3B23757  44.745  14.132   7.950
 4972POPC   C4B23758  44.785  14.135   7.650
 4973POPC   NC323759   8.225  25.253   9.450
 4973POPC   PO423760   8.220  25.289   9.150
 4973POPC   GL123761   8.151  25.300   8.850
 4973POPC   GL223762   8.116  25.108   8.850
 4973POPC   C1A23763   8.187  25.270   8.550
 4973POPC   D2A23764   8.162  25.221   8.250
 4973POPC   C3A23765   8.188  25.263   7.950
 4973POPC   C4A23766   8.232  25.273   7.650
 4973POPC   C1B23767   8.134  24.991   8.550
 4973POPC   C2B23768   8.053  24.990   8.250
 4973POPC   C3B23769   8.111  24.998   7.950
 4973POPC   C4B23770   8.123  25.044   7.650
 4974POPC   NC323771  19.853  37.655   9.450
 4974POPC   PO423772  19.843  37.687   9.150
 4974POPC   GL123773  19.829  37.722   8.850
 4974POPC   GL223774  19.779  37.838   8.850
 4974POPC   C1A23775  19.796  37.715   8.550
 4974POPC   D2A23776  19.800  37.686   8.250
 4974POPC   C3A23777  19.799  37.683   7.950
 4974POPC   C4A23778  19.818  37.720   7.650
 4974POPC   C1B23779  19.751  37.956   8.550
 4974POPC   C2B23780  19.838  37.923   8.250
 4974POPC   C3B23781  19.768  37.942   7.950
 4974POPC   C4B23782  19.777  37.949   7.650
 4975POPC   NC323783  28.363  33.027   9.450
 4975POPC   PO423784  28.410  33.017   9.150
 4975POPC   GL123785  28.382  33.009   8.850
 4975POPC   GL223786  28.482  33.004   8.850
 4975POPC   C1A23787  28.356  33.005   8.550
 4975POPC   D2A23788  28.351  32.986   8.250
 4975POPC   C3A23789  28.408  32.996   7.950
 4975POPC   C4A23790  28.366  33.009   7.650
 4975POPC   C1B23791  28.646  32.964   8.550
 4975POPC   C2B23792  28.595  33.010   8.250
 4975POPC   C3B23793  28.606  32.991   7.950
 4975POPC   C4B23794  28.585  33.019   7.650
 4976POPC   NC323795  26.826  22.171   9.450
 4976POPC   PO423796  26.794  22.142   9.150
 4976POPC   GL123797  26.799  22.112   8.850
 4976POPC   GL223798  26.704  22.244   8.850
 4976POPC   C1A23799  26.795  22.144   8.550
 4976POPC   D2A23800  26.852  22.193   8.250
 4976POPC   C3A23801  26.857  22.124   7.950
 4976POPC   C4A23802  26.845  22.179   7.650
 4976POPC   C1B23803  26.609  22.293   8.550
 4976POPC   C2B23804  26.659  22.314   8.250
 4976POPC   C3B23805  26.637  22.361   7.950
 4976POPC   C4B23806  26.657  22.361   7.650
 4977POPC   NC323807  14.396  36.140   9.450
 4977POPC   PO423808  14.368  36.078   9.150
 4977POPC   GL123809  14.375  36.138   8.850
 4977POPC   GL223810  14.546  36.205   8.850
 4977POPC   C1A23811  14.364  36.165   8.550
 4977POPC   D2A23812  14.369  36.142   8.250
 4977POPC   C3A23813  14.410  36.156   7.950
 4977POPC   C4A23814  14.450  36.176   7.650
 4977POPC   C1B23815  14.633  36.219   8.550
 4977POPC   C2B23816  14.654  36.187   8.250
 4977POPC   C3B23817  14.663  36.222   7.950
 4977POPC   C4B23818  14.634  36.260   7.650
 4978POPC   NC323819  40.756  35.303   9.450
 4978POPC   PO423820  40.783  35.388   9.150
 4978POPC   GL123821  40.749  35.398   8.850
 4978POPC   GL223822  40.726  35.385   8.850
 4978POPC   C1A23823  40.798  35.319   8.550
 4978POPC   D2A23824  40.745  35.378   8.250
 4978POPC   C3A23825  40.737  35.361   7.950
 4978POPC   C4A23826  40.756  35.311   7.650
 4978POPC   C1B23827  40.567  35.440   8.550
 4978POPC   C2B23828  40.548  35.515   8.250
 4978POPC   C3B23829  40.592  35.477   7.950
 4978POPC   C4B23830  40.617  35.465   7.650
 4979POPC   NC323831  22.155  10.493   9.450
 4979POPC   PO423832  22.134  10.573   9.150
 4979POPC   GL123833  22.199  10.561   8.850
 4979POPC   GL223834  22.049  10.467   8.850
 4979POPC   C1A23835  22.121  10.531   8.550
 4979POPC   D2A23836  22.194  10.480   8.250
 4979POPC   C3A23837  22.126  10.508   7.950
 4979POPC   C4A23838  22.119  10.526   7.650
 4979POPC   C1B23839  21.954  10.336   8.550
 4979POPC   C2B23840  22.011  10.407   8.250
 4979POPC   C3B23841  21.947  10.350   7.950
 4979POPC   C4B23842  22.008  10.342   7.650
 4980POPC   NC323843  12.806  33.052   9.450
 4980POPC   PO423844  12.892  32.977   9.150
 4980POPC   GL123845  12.901  33.018   8.850
 4980POPC   GL223846  12.968  33.005   8.850
 4980POPC   C1A23847  12.816  32.981   8.550
 4980POPC   D2A23848  12.838  32.975   8.250
 4980POPC   C3A23849  12.843  33.036   7.950
 4980POPC   C4A23850  12.899  33.041   7.650
 4980POPC   C1B23851  13.076  32.905   8.550
 4980POPC   C2B23852  13.054  32.882   8.250
 4980POPC   C3B23853  13.103  32.861   7.950
 4980POPC   C4B23854  13.093  32.902   7.650
 4981POPC   NC323855  43.088  40.785   9.450
 4981POPC   PO423856  43.121  40.763   9.150
 4981POPC   GL123857  43.084  40.825   8.850
 4981POPC   GL223858  43.031  40.724   8.850
 4981POPC   C1A23859  43.100  40.780   8.550
 4981POPC   D2A23860  43.130  40.815   8.250
 4981POPC   C3A23861  43.098  40.751   7.950
 4981POPC   C4A23862  43.130  40.822   7.650
 4981POPC   C1B23863  42.879  40.714   8.550
 4981POPC   C2B23864  42.815  40.736   8.250
 4981POPC   C3B23865  42.832  40.741   7.950
 4981POPC   C4B23866  42.818  40.751   7.650
 4982POPC   NC323867  18.285   4.313   9.450
 4982POPC   PO423868  18.325   4.321   9.150
 4982POPC   GL123869  18.254   4.327   8.850
 4982POPC   GL223870  18.434   4.258   8.850
 4982POPC   C1A23871  18.324   4.346   8.550
 4982POPC   D2A23872  18.285   4.286   8.250
 4982POPC   C3A23873  18.299   4.360   7.950
 4982POPC   C4A23874  18.279   4.299   7.650
 4982POPC   C1B23875  18.501   4.198   8.550
 4982POPC   C2B23876  18.479   4.201   8.250
 4982POPC   C3B23877  18.528   4.178   7.950
 4982POPC   C4B23878  18.507   4.260   7.650
 4983POPC   NC323879  29.117  15.998   9.450
 4983POPC   PO423880  29.170  15.934   9.150
 4983POPC   GL123881  29.103  15.970   8.850
 4983POPC   GL223882  29.151  16.036   8.850
 4983POPC   C1A23883  29.151  15.967   8.550
 4983POPC   D2A23884  29.113  15.911   8.250
 4983POPC   C3A23885  29.115  15.987   7.950
 4983POPC   C4A23886  29.115  15.973   7.650
 4983POPC   C1B23887  29.077  16.216   8.550
 4983POPC   C2B23888  29.119  16.242   8.250
 4983POPC   C3B23889  29.071  16.213   7.950
 4983POPC   C4B23890  29.103  16.173   7.650
 4984POPC   NC323891  36.946  16.768   9.450
 4984POPC   PO423892  36.867  16.740   9.150
 4984POPC   GL123893  36.892  16.726   8.850
 4984POPC   GL223894  36.821  16.831   8.850
 4984POPC   C1A23895  36.889  16.770   8.550
 4984POPC   D2A23896  36.869  16.683   8.250
 4984POPC   C3A23897  36.914  16.775   7.950
 4984POPC   C4A23898  36.924  16.683   7.650
 4984POPC   C1B23899  36.711  16.826   8.550
 4984POPC   C2B23900  36.657  16.881   8.250
 4984POPC   C3B23901  36.666  16.801   7.950
 4984POPC   C4B23902  36.637  16.851   7.650
 4985POPC   NC323903   9.713  34.562   9.450
 4985POPC   PO423904   9.753  34.594   9.150
 4985POPC   GL123905   9.714  34.589   8.850
 4985POPC   GL223906   9.912  34.591   8.850
 4985POPC   C1A23907   9.787  34.625   8.550
 4985POPC   D2A23908   9.766  34.530   8.250
 4985POPC   C3A23909   9.732  34.582   7.950
 4985POPC   C4A23910   9.736  34.559   7.650
 4985POPC   C1B23911   9.999  34.495   8.550
 4985POPC   C2B23912  10.023  34.491   8.250
 4985POPC   C3B23913   9.964  34.481   7.950
 4985POPC   C4B23914  10.006  34.462   7.650
 4986POPC   NC323915  33.001   1.176   9.450
 4986POPC   PO423916  32.999   1.225   9.150
 4986POPC   GL123917  33.020   1.245   8.850
 4986POPC   GL223918  32.966   1.103   8.850
 4986POPC   C1A23919  33.040   1.182   8.550
 4986POPC   D2A23920  33.039   1.262   8.250
 4986POPC   C3A23921  33.018   1.193   7.950
 4986POPC   C4A23922  32.987   1.261   7.650
 4986POPC   C1B23923  32.987   0.956   8.550
 4986POPC   C2B23924  32.982   0.957   8.250
 4986POPC   C3B23925  32.996   0.929   7.950
 4986POPC   C4B23926  33.043   0.980   7.650
 4987POPC   NC323927  12.034  43.912   9.450
 4987POPC   PO423928  12.109  43.916   9.150
 4987POPC   GL123929  12.124  43.898   8.850
 4987POPC   GL223930  11.967  43.896   8.850
 4987POPC   C1A23931  12.048  43.900   8.550
 4987POPC   D2A23932  12.028  43.854   8.250
 4987POPC   C3A23933  12.056  43.870   7.950
 4987POPC   C4A23934  12.111  43.853   7.650
 4987POPC   C1B23935  11.796  43.844   8.550
 4987POPC   C2B23936  11.830  43.852   8.250
 4987POPC   C3B23937  11.782  43.815   7.950
 4987POPC   C4B23938  11.857  43.792   7.650
 4988POPC   NC323939  25.306  43.837   9.450
 4988POPC   PO423940  25.274  43.901   9.150
 4988POPC   GL123941  25.256  43.886   8.850
 4988POPC   GL223942  25.352  43.884   8.850
 4988POPC   C1A23943  25.239  43.904   8.550
 4988POPC   D2A23944  25.246  43.918   8.250
 4988POPC   C3A23945  25.220  43.895   7.950
 4988POPC   C4A23946  25.260  43.877   7.650
 4988POPC   C1B23947  25.547  43.904   8.550
 4988POPC   C2B23948  25.483  43.926   8.250
 4988POPC   C3B23949  25.477  43.937   7.950
 4988POPC   C4B23950  25.518  43.949   7.650
 4989POPC   NC323951  36.881  21.364   9.450
 4989POPC   PO423952  36.933  21.383   9.150
 4989POPC   GL123953  36.906  21.359   8.850
 4989POPC   GL223954  36.854  21.516   8.850
 4989POPC   C1A23955  36.855  21.396   8.550
 4989POPC   D2A23956  36.946  21.337   8.250
 4989POPC   C3A23957  36.890  21.429   7.950
 4989POPC   C4A23958  36.929  21.386   7.650
 4989POPC   C1B23959  36.703  21.552   8.550
 4989POPC   C2B23960  36.721  21.513   8.250
 4989POPC   C3B23961  36.705  21.600   7.950
 4989POPC   C4B23962  36.682  21.603   7.650
 4990POPC   NC323963  19.022  20.647   9.450
 4990POPC   PO423964  19.063  20.635   9.150
 4990POPC   GL123965  19.029  20.600   8.850
 4990POPC   GL223966  18.937  20.529   8.850
 4990POPC   C1A23967  19.058  20.566   8.550
 4990POPC   D2A23968  19.050  20.658   8.250
 4990POPC   C3A23969  19.021  20.618   7.950
 4990POPC   C4A23970  19.040  20.604   7.650
 4990POPC   C1B23971  18.823  20.453   8.550
 4990POPC   C2B23972  18.895  20.494   8.250
 4990POPC   C3B23973  18.820  20.499   7.950
 4990POPC   C4B23974  18.895  20.497   7.650
 4991POPC   NC323975  38.465  39.280   9.450
 4991POPC   PO423976  38.410  39.216   9.150
 4991POPC   GL123977  38.489  39.224   8.850
 4991POPC   GL223978  38.429  39.392   8.850
 4991POPC   C1A23979  38.459  39.192   8.550
 4991POPC   D2A23980  38.407  39.213   8.250
 4991POPC   C3A23981  38.450  39.229   7.950
 4991POPC   C4A23982  38.470  39.277   7.650
 4991POPC   C1B23983  38.452  39.522   8.550
 4991POPC   C2B23984  38.459  39.489   8.250
 4991POPC   C3B23985  38.431  39.522   7.950
 4991POPC   C4B23986  38.440  39.518   7.650
 4992POPC   NC323987  20.564  35.384   9.450
 4992POPC   PO423988  20.620  35.366   9.150
 4992POPC   GL123989  20.580  35.348   8.850
 4992POPC   GL223990  20.536  35.464   8.850
 4992POPC   C1A23991  20.651  35.376   8.550
 4992POPC   D2A23992  20.632  35.391   8.250
 4992POPC   C3A23993  20.591  35.397   7.950
 4992POPC   C4A23994  20.605  35.395   7.650
 4992POPC   C1B23995  20.490  35.511   8.550
 4992POPC   C2B23996  20.493  35.579   8.250
 4992POPC   C3B23997  20.476  35.517   7.950
 4992POPC   C4B23998  20.497  35.571   7.650
 4993POPC   NC323999  12.839  41.593   9.450
 4993POPC   PO424000  12.899  41.607   9.150
 4993POPC   GL124001  12.811  41.540   8.850
 4993POPC   GL224002  12.963  41.485   8.850
 4993POPC   C1A24003  12.862  41.560   8.550
 4993POPC   D2A24004  12.807  41.569   8.250
 4993POPC   C3A24005  12.803  41.566   7.950
 4993POPC   C4A24006  12.810  41.564   7.650
 4993POPC   C1B24007  13.050  41.461   8.550
 4993POPC   C2B24008  13.112  41.461   8.250
 4993POPC   C3B24009  13.021  41.389   7.950
 4993POPC   C4B24010  13.085  41.460   7.650
 4994POPC   NC324011  44.682  22.164   9.450
 4994POPC   PO424012  44.648  22.207   9.150
 4994POPC   GL124013  44.692  22.179   8.850
 4994POPC   GL224014  44.755  22.230   8.850
 4994POPC   C1A24015  44.648  22.134   8.550
 4994POPC   D2A24016  44.656  22.120   8.250
 4994POPC   C3A24017  44.674  22.115   7.950
 4994POPC   C4A24018  44.680  22.162   7.650
 4994POPC   C1B24019  44.874  22.331   8.550
 4994POPC   C2B24020  44.877  22.263   8.250
 4994POPC   C3B24021  44.832  22.260   7.950
 4994POPC   C4B24022  44.839  22.271   7.650
 4995POPC   NC324023  10.488   9.772   9.450
 4995POPC   PO424024  10.533   9.782   9.150
 4995POPC   GL124025  10.565   9.745   8.850
 4995POPC   GL224026  10.444   9.683   8.850
 4995POPC   C1A24027  10.565   9.735   8.550
 4995POPC   D2A24028  10.554   9.795   8.250
 4995POPC   C3A24029  10.570   9.736   7.950
 4995POPC   C4A24030  10.535   9.784   7.650
 4995POPC   C1B24031  10.358   9.562   8.550
 4995POPC   C2B24032  10.292   9.571   8.250
 4995POPC   C3B24033  10.318   9.648   7.950
 4995POPC   C4B24034  10.310   9.612   7.650
 4996POPC   NC324035  17.488  29.141   9.450
 4996POPC   PO424036  17.526  29.110   9.150
 4996POPC   GL124037  17.475  29.161   8.850
 4996POPC   GL224038  17.371  29.217   8.850
 4996POPC   C1A24039  17.530  29.166   8.550
 4996POPC   D2A24040  17.503  29.143   8.250
 4996POPC   C3A24041  17.488  29.171   7.950
 4996POPC   C4A24042  17.494  29.122   7.650
 4996POPC   C1B24043  17.305  29.259   8.550
 4996POPC   C2B24044  17.286  29.238   8.250
 4996POPC   C3B24045  17.217  29.251   7.950
 4996POPC   C4B24046  17.276  29.196   7.650
 4997POPC   NC324047  29.925   2.791   9.450
 4997POPC   PO424048  29.924   2.807   9.150
 4997POPC   GL124049  29.929   2.723   8.850
 4997POPC   GL224050  29.918   2.604   8.850
 4997POPC   C1A24051  29.920   2.801   8.550
 4997POPC   D2A24052  29.952   2.731   8.250
 4997POPC   C3A24053  29.925   2.757   7.950
 4997POPC   C4A24054  29.936   2.805   7.650
 4997POPC   C1B24055  29.901   2.522   8.550
 4997POPC   C2B24056  29.886   2.483   8.250
 4997POPC   C3B24057  29.882   2.567   7.950
 4997POPC   C4B24058  29.855   2.508   7.650
 4998POPC   NC324059  17.550  24.538   9.450
 4998POPC   PO424060  17.512  24.525   9.150
 4998POPC   GL124061  17.528  24.490   8.850
 4998POPC   GL224062  17.432  24.472   8.850
 4998POPC   C1A24063  17.544  24.472   8.550
 4998POPC   D2A24064  17.491  24.514   8.250
 4998POPC   C3A24065  17.551  24.499   7.950
 4998POPC   C4A24066  17.482  24.530   7.650
 4998POPC   C1B24067  17.242  24.392   8.550
 4998POPC   C2B24068  17.276  24.371   8.250
 4998POPC   C3B24069  17.257  24.389   7.950
 4998POPC   C4B24070  17.245  24.405   7.650
 4999POPC   NC324071   5.083  43.851   9.450
 4999POPC   PO424072   5.121  43.889   9.150
 4999POPC   GL124073   5.061  43.895   8.850
 4999POPC   GL224074   5.079  44.014   8.850
 4999POPC   C1A24075   5.096  43.890   8.550
 4999POPC   D2A24076   5.139  43.856   8.250
 4999POPC   C3A24077   5.083  43.860   7.950
 4999POPC   C4A24078   5.125  43.919   7.650
 4999POPC   C1B24079   5.078  44.178   8.550
 4999POPC   C2B24080   5.099  44.171   8.250
 4999POPC   C3B24081   5.110  44.116   7.950
 4999POPC   C4B24082   5.141  44.123   7.650
 5000POPC   NC324083   5.828   5.135   9.450
 5000POPC   PO424084   5.879   5.113   9.150
 5000POPC   GL124085   5.844   5.121   8.850
 5000POPC   GL224086   5.780   5.082   8.850
 5000POPC   C1A24087   5.899   5.070   8.550
 5000POPC   D2A24088   5.865   5.138   8.250
 5000POPC   C3A24089   5.887   5.086   7.950
 5000POPC   C4A24090   5.909   5.057   7.650
 5000POPC   C1B24091   5.604   5.147   8.550
 5000POPC   C2B24092   5.653   5.096   8.250
 5000POPC   C3B24093   5.602   5.104   7.950
 5000POPC   C4B24094   5.614   5.163   7.650
 5001POPC   NC324095  28.416  36.102   9.450
 5001POPC   PO424096  28.377  36.145   9.150
 5001POPC   GL124097  28.402  36.103   8.850
 5001POPC   GL224098  28.504  36.175   8.850
 5001POPC   C1A24099  28.324  36.152   8.550
 5001POPC   D2A24100  28.410  36.117   8.250
 5001POPC   C3A24101  28.411  36.119   7.950
 5001POPC   C4A24102  28.370  36.153   7.650
 5001POPC   C1B24103  28.598  36.146   8.550
 5001POPC   C2B24104  28.606  36.118   8.250
 5001POPC   C3B24105  28.639  36.095   7.950
 5001POPC   C4B24106  28.581  36.120   7.650
 5002POPC   NC324107  17.505  15.945   9.450
 5002POPC   PO424108  17.468  15.916   9.150
 5002POPC   GL124109  17.541  15.918   8.850
 5002POPC   GL224110  17.625  15.831   8.850
 5002POPC   C1A24111  17.465  15.973   8.550
 5002POPC   D2A24112  17.488  15.930   8.250
 5002POPC   C3A24113  17.553  15.964   7.950
 5002POPC   C4A24114  17.513  15.924   7.650
 5002POPC   C1B24115  17.700  15.779   8.550
 5002POPC   C2B24116  17.659  15.755   8.250
 5002POPC   C3B24117  17.737  15.783   7.950
 5002POPC   C4B24118  17.686  15.752   7.650
 5003POPC   NC324119  36.135  29.117   9.450
 5003POPC   PO424120  36.137  29.110   9.150
 5003POPC   GL124121  36.134  29.116   8.850
 5003POPC   GL224122  36.284  29.071   8.850
 5003POPC   C1A24123  36.121  29.167   8.550
 5003POPC   D2A24124  36.126  29.103   8.250
 5003POPC   C3A24125  36.132  29.130   7.950
 5003POPC   C4A24126  36.142  29.185   7.650
 5003POPC   C1B24127  36.405  29.045   8.550
 5003POPC   C2B24128  36.339  29.088   8.250
 5003POPC   C3B24129  36.375  29.107   7.950
 5003POPC   C4B24130  36.392  29.030   7.650
 5004POPC   NC324131  17.472  11.265   9.450
 5004POPC   PO424132  17.473  11.301   9.150
 5004POPC   GL124133  17.536  11.259   8.850
 5004POPC   GL224134  17.443  11.166   8.850
 5004POPC   C1A24135  17.472  11.308   8.550
 5004POPC   D2A24136  17.462  11.290   8.250
 5004POPC   C3A24137  17.480  11.344   7.950
 5004POPC   C4A24138  17.551  11.330   7.650
 5004POPC   C1B24139  17.304  11.140   8.550
 5004POPC   C2B24140  17.325  11.073   8.250
 5004POPC   C3B24141  17.309  11.110   7.950
 5004POPC   C4B24142  17.321  11.096   7.650
 5005POPC   NC324143  23.697  11.318   9.450
 5005POPC   PO424144  23.730  11.335   9.150
 5005POPC   GL124145  23.741  11.300   8.850
 5005POPC   GL224146  23.632  11.311   8.850
 5005POPC   C1A24147  23.755  11.335   8.550
 5005POPC   D2A24148  23.750  11.342   8.250
 5005POPC   C3A24149  23.730  11.274   7.950
 5005POPC   C4A24150  23.719  11.325   7.650
 5005POPC   C1B24151  23.447  11.399   8.550
 5005POPC   C2B24152  23.510  11.366   8.250
 5005POPC   C3B24153  23.497  11.336   7.950
 5005POPC   C4B24154  23.494  11.362   7.650
 5006POPC   NC324155   5.859   4.332   9.450
 5006POPC   PO424156   5.866   4.334   9.150
 5006POPC   GL124157   5.847   4.347   8.850
 5006POPC   GL224158   5.951   4.183   8.850
 5006POPC   C1A24159   5.832   4.283   8.550
 5006POPC   D2A24160   5.831   4.333   8.250
 5006POPC   C3A24161   5.862   4.312   7.950
 5006POPC   C4A24162   5.904   4.301   7.650
 5006POPC   C1B24163   6.044   4.164   8.550
 5006POPC   C2B24164   6.042   4.116   8.250
 5006POPC   C3B24165   6.037   4.122   7.950
 5006POPC   C4B24166   6.007   4.100   7.650
 5007POPC   NC324167  26.056   4.290   9.450
 5007POPC   PO424168  26.046   4.338   9.150
 5007POPC   GL124169  25.999   4.363   8.850
 5007POPC   GL224170  26.157   4.226   8.850
 5007POPC   C1A24171  26.033   4.301   8.550
 5007POPC   D2A24172  26.037   4.339   8.250
 5007POPC   C3A24173  26.012   4.320   7.950
 5007POPC   C4A24174  26.028   4.356   7.650
 5007POPC   C1B24175  26.196   4.177   8.550
 5007POPC   C2B24176  26.223   4.108   8.250
 5007POPC   C3B24177  26.216   4.168   7.950
 5007POPC   C4B24178  26.227   4.094   7.650
 5008POPC   NC324179  30.738  43.079   9.450
 5008POPC   PO424180  30.735  43.082   9.150
 5008POPC   GL124181  30.706  43.064   8.850
 5008POPC   GL224182  30.757  43.187   8.850
 5008POPC   C1A24183  30.719  43.108   8.550
 5008POPC   D2A24184  30.715  43.139   8.250
 5008POPC   C3A24185  30.735  43.100   7.950
 5008POPC   C4A24186  30.729  43.104   7.650
 5008POPC   C1B24187  30.884  43.311   8.550
 5008POPC   C2B24188  30.876  43.292   8.250
 5008POPC   C3B24189  30.828  43.290   7.950
 5008POPC   C4B24190  30.869  43.291   7.650
 5009POPC   NC324191  29.894  41.563   9.450
 5009POPC   PO424192  29.930  41.605   9.150
 5009POPC   GL124193  29.878  41.597   8.850
 5009POPC   GL224194  29.814  41.599   8.850
 5009POPC   C1A24195  29.896  41.537   8.550
 5009POPC   D2A24196  29.960  41.606   8.250
 5009POPC   C3A24197  29.873  41.588   7.950
 5009POPC   C4A24198  29.955  41.587   7.650
 5009POPC   C1B24199  29.632  41.599   8.550
 5009POPC   C2B24200  29.689  41.629   8.250
 5009POPC   C3B24201  29.656  41.642   7.950
 5009POPC   C4B24202  29.690  41.613   7.650
 5010POPC   NC324203  36.091   9.004   9.450
 5010POPC   PO424204  36.095   8.986   9.150
 5010POPC   GL124205  36.155   8.939   8.850
 5010POPC   GL224206  36.161   8.870   8.850
 5010POPC   C1A24207  36.097   9.014   8.550
 5010POPC   D2A24208  36.123   8.998   8.250
 5010POPC   C3A24209  36.164   8.953   7.950
 5010POPC   C4A24210  36.175   8.943   7.650
 5010POPC   C1B24211  36.088   8.772   8.550
 5010POPC   C2B24212  36.144   8.744   8.250
 5010POPC   C3B24213  36.166   8.753   7.950
 5010POPC   C4B24214  36.146   8.678   7.650
 5011POPC   NC324215  30.655  42.353   9.450
 5011POPC   PO424216  30.657  42.297   9.150
 5011POPC   GL124217  30.709  42.329   8.850
 5011POPC   GL224218  30.538  42.422   8.850
 5011POPC   C1A24219  30.695  42.310   8.550
 5011POPC   D2A24220  30.707  42.358   8.250
 5011POPC   C3A24221  30.681  42.348   7.950
 5011POPC   C4A24222  30.705  42.337   7.650
 5011POPC   C1B24223  30.472  42.463   8.550
 5011POPC   C2B24224  30.473  42.407   8.250
 5011POPC   C3B24225  30.489  42.414   7.950
 5011POPC   C4B24226  30.454  42.446   7.650
 5012POPC   NC324227  29.171  24.486   9.450
 5012POPC   PO424228  29.175  24.508   9.150
 5012POPC   GL124229  29.152  24.467   8.850
 5012POPC   GL224230  29.183  24.358   8.850
 5012POPC   C1A24231  29.160  24.453   8.550
 5012POPC   D2A24232  29.124  24.522   8.250
 5012POPC   C3A24233  29.190  24.538   7.950
 5012POPC   C4A24234  29.140  24.457   7.650
 5012POPC   C1B24235  29.260  24.260   8.550
 5012POPC   C2B24236  29.281  24.318   8.250
 5012POPC   C3B24237  29.287  24.274   7.950
 5012POPC   C4B24238  29.231  24.258   7.650
 5013POPC   NC324239   4.297  24.442   9.450
 5013POPC   PO424240   4.357  24.506   9.150
 5013POPC   GL124241   4.330  24.449   8.850
 5013POPC   GL224242   4.199  24.350   8.850
 5013POPC   C1A24243   4.293  24.516   8.550
 5013POPC   D2A24244   4.338  24.509   8.250
 5013POPC   C3A24245   4.327  24.504   7.950
 5013POPC   C4A24246   4.335  24.475   7.650
 5013POPC   C1B24247   4.129  24.308   8.550
 5013POPC   C2B24248   4.149  24.265   8.250
 5013POPC   C3B24249   4.208  24.293   7.950
 5013POPC   C4B24250   4.188  24.313   7.650
 5014POPC   NC324251  31.459  38.486   9.450
 5014POPC   PO424252  31.451  38.425   9.150
 5014POPC   GL124253  31.478  38.432   8.850
 5014POPC   GL224254  31.455  38.347   8.850
 5014POPC   C1A24255  31.498  38.459   8.550
 5014POPC   D2A24256  31.447  38.418   8.250
 5014POPC   C3A24257  31.446  38.430   7.950
 5014POPC   C4A24258  31.426  38.502   7.650
 5014POPC   C1B24259  31.417  38.188   8.550
 5014POPC   C2B24260  31.484  38.234   8.250
 5014POPC   C3B24261  31.479  38.196   7.950
 5014POPC   C4B24262  31.447  38.193   7.650
 5015POPC   NC324263  43.064  16.760   9.450
 5015POPC   PO424264  43.152  16.764   9.150
 5015POPC   GL124265  43.111  16.716   8.850
 5015POPC   GL224266  43.189  16.691   8.850
 5015POPC   C1A24267  43.119  16.725   8.550
 5015POPC   D2A24268  43.104  16.780   8.250
 5015POPC   C3A24269  43.100  16.720   7.950
 5015POPC   C4A24270  43.098  16.720   7.650
 5015POPC   C1B24271  43.335  16.653   8.550
 5015POPC   C2B24272  43.365  16.676   8.250
 5015POPC   C3B24273  43.320  16.658   7.950
 5015POPC   C4B24274  43.313  16.610   7.650
 5016POPC   NC324275  24.441  35.353   9.450
 5016POPC   PO424276  24.496  35.337   9.150
 5016POPC   GL124277  24.442  35.360   8.850
 5016POPC   GL224278  24.619  35.401   8.850
 5016POPC   C1A24279  24.518  35.318   8.550
 5016POPC   D2A24280  24.453  35.381   8.250
 5016POPC   C3A24281  24.524  35.387   7.950
 5016POPC   C4A24282  24.497  35.310   7.650
 5016POPC   C1B24283  24.726  35.436   8.550
 5016POPC   C2B24284  24.723  35.427   8.250
 5016POPC   C3B24285  24.693  35.382   7.950
 5016POPC   C4B24286  24.746  35.413   7.650
 5017POPC   NC324287   3.579   0.395   9.450
 5017POPC   PO424288   3.588   0.461   9.150
 5017POPC   GL124289   3.580   0.446   8.850
 5017POPC   GL224290   3.651   0.494   8.850
 5017POPC   C1A24291   3.531   0.420   8.550
 5017POPC   D2A24292   3.565   0.404   8.250
 5017POPC   C3A24293   3.576   0.487   7.950
 5017POPC   C4A24294   3.520   0.481   7.650
 5017POPC   C1B24295   3.710   0.649   8.550
 5017POPC   C2B24296   3.667   0.601   8.250
 5017POPC   C3B24297   3.705   0.663   7.950
 5017POPC   C4B24298   3.698   0.653   7.650
 5018POPC   NC324299  18.328  39.238   9.450
 5018POPC   PO424300  18.260  39.260   9.150
 5018POPC   GL124301  18.307  39.278   8.850
 5018POPC   GL224302  18.211  39.303   8.850
 5018POPC   C1A24303  18.293  39.269   8.550
 5018POPC   D2A24304  18.246  39.234   8.250
 5018POPC   C3A24305  18.274  39.201   7.950
 5018POPC   C4A24306  18.295  39.226   7.650
 5018POPC   C1B24307  18.055  39.445   8.550
 5018POPC   C2B24308  18.142  39.432   8.250
 5018POPC   C3B24309  18.068  39.374   7.950
 5018POPC   C4B24310  18.139  39.365   7.650
 5019POPC   NC324311   6.634  11.312   9.450
 5019POPC   PO424312   6.676  11.309   9.150
 5019POPC   GL124313   6.632  11.301   8.850
 5019POPC   GL224314   6.513  11.376   8.850
 5019POPC   C1A24315   6.613  11.271   8.550
 5019POPC   D2A24316   6.653  11.330   8.250
 5019POPC   C3A24317   6.638  11.341   7.950
 5019POPC   C4A24318   6.641  11.285   7.650
 5019POPC   C1B24319   6.435  11.489   8.550
 5019POPC   C2B24320   6.435  11.473   8.250
 5019POPC   C3B24321   6.428  11.507   7.950
 5019POPC   C4B24322   6.449  11.527   7.650
 5020POPC   NC324323   2.812  40.801   9.450
 5020POPC   PO424324   2.792  40.830   9.150
 5020POPC   GL124325   2.749  40.748   8.850
 5020POPC   GL224326   2.599  40.791   8.850
 5020POPC   C1A24327   2.761  40.757   8.550
 5020POPC   D2A24328   2.767  40.779   8.250
 5020POPC   C3A24329   2.772  40.757   7.950
 5020POPC   C4A24330   2.755  40.776   7.650
 5020POPC   C1B24331   2.570  40.758   8.550
 5020POPC   C2B24332   2.538  40.737   8.250
 5020POPC   C3B24333   2.518  40.774   7.950
 5020POPC   C4B24334   2.529  40.766   7.650
 5021POPC   NC324335  11.311  40.015   9.450
 5021POPC   PO424336  11.323  39.978   9.150
 5021POPC   GL124337  11.253  40.014   8.850
 5021POPC   GL224338  11.321  39.901   8.850
 5021POPC   C1A24339  11.340  40.040   8.550
 5021POPC   D2A24340  11.252  40.057   8.250
 5021POPC   C3A24341  11.270  40.000   7.950
 5021POPC   C4A24342  11.348  40.017   7.650
 5021POPC   C1B24343  11.321  39.728   8.550
 5021POPC   C2B24344  11.310  39.735   8.250
 5021POPC   C3B24345  11.253  39.731   7.950
 5021POPC   C4B24346  11.285  39.733   7.650
 5022POPC   NC324347  22.160  33.820   9.450
 5022POPC   PO424348  22.127  33.756   9.150
 5022POPC   GL124349  22.123  33.786   8.850
 5022POPC   GL224350  22.227  33.839   8.850
 5022POPC   C1A24351  22.130  33.822   8.550
 5022POPC   D2A24352  22.144  33.807   8.250
 5022POPC   C3A24353  22.177  33.786   7.950
 5022POPC   C4A24354  22.201  33.802   7.650
 5022POPC   C1B24355  22.391  33.955   8.550
 5022POPC   C2B24356  22.394  33.931   8.250
 5022POPC   C3B24357  22.383  33.908   7.950
 5022POPC   C4B24358  22.351  33.897   7.650
 5023POPC   NC324359  30.743   5.059   9.450
 5023POPC   PO424360  30.706   5.053   9.150
 5023POPC   GL124361  30.649   5.043   8.850
 5023POPC   GL224362  30.810   5.087   8.850
 5023POPC   C1A24363  30.667   5.142   8.550
 5023POPC   D2A24364  30.736   5.083   8.250
 5023POPC   C3A24365  30.740   5.132   7.950
 5023POPC   C4A24366  30.649   5.111   7.650
 5023POPC   C1B24367  30.955   5.029   8.550
 5023POPC   C2B24368  30.966   5.043   8.250
 5023POPC   C3B24369  30.993   5.106   7.950
 5023POPC   C4B24370  30.973   5.119   7.650
 5024POPC   NC324371  36.937   1.958   9.450
 5024POPC   PO424372  36.900   2.034   9.150
 5024POPC   GL124373  36.938   1.978   8.850
 5024POPC   GL224374  36.784   1.875   8.850
 5024POPC   C1A24375  36.875   2.018   8.550
 5024POPC   D2A24376  36.948   1.980   8.250
 5024POPC   C3A24377  36.902   2.017   7.950
 5024POPC   C4A24378  36.867   1.980   7.650
 5024POPC   C1B24379  36.715   1.850   8.550
 5024POPC   C2B24380  36.699   1.805   8.250
 5024POPC   C3B24381  36.677   1.829   7.950
 5024POPC   C4B24382  36.670   1.774   7.650
 5025POPC   NC324383  12.070   1.260   9.450
 5025POPC   PO424384  12.072   1.205   9.150
 5025POPC   GL124385  12.066   1.244   8.850
 5025POPC   GL224386  12.172   1.182   8.850
 5025POPC   C1A24387  12.071   1.230   8.550
 5025POPC   D2A24388  12.047   1.221   8.250
 5025POPC   C3A24389  12.118   1.240   7.950
 5025POPC   C4A24390  12.060   1.167   7.650
 5025POPC   C1B24391  12.345   1.166   8.550
 5025POPC   C2B24392  12.338   1.180   8.250
 5025POPC   C3B24393  12.370   1.156   7.950
 5025POPC   C4B24394  12.281   1.217   7.650
 5026POPC   NC324395   0.466  32.216   9.450
 5026POPC   PO424396   0.439  32.215   9.150
 5026POPC   GL124397   0.485  32.227   8.850
 5026POPC   GL224398   0.304  32.262   8.850
 5026POPC   C1A24399   0.440  32.222   8.550
 5026POPC   D2A24400   0.477  32.242   8.250
 5026POPC   C3A24401   0.465  32.269   7.950
 5026POPC   C4A24402   0.402  32.252   7.650
 5026POPC   C1B24403   0.223  32.344   8.550
 5026POPC   C2B24404   0.229  32.339   8.250
 5026POPC   C3B24405   0.170  32.401   7.950
 5026POPC   C4B24406   0.198  32.397   7.650
 5027POPC   NC324407  29.129  17.549   9.450
 5027POPC   PO424408  29.148  17.540   9.150
 5027POPC   GL124409  29.178  17.533   8.850
 5027POPC   GL224410  29.195  17.662   8.850
 5027POPC   C1A24411  29.141  17.537   8.550
 5027POPC   D2A24412  29.172  17.509   8.250
 5027POPC   C3A24413  29.104  17.505   7.950
 5027POPC   C4A24414  29.183  17.528   7.650
 5027POPC   C1B24415  29.225  17.782   8.550
 5027POPC   C2B24416  29.211  17.790   8.250
 5027POPC   C3B24417  29.219  17.711   7.950
 5027POPC   C4B24418  29.161  17.704   7.650
 5028POPC   NC324419  14.452   2.733   9.450
 5028POPC   PO424420  14.439   2.716   9.150
 5028POPC   GL124421  14.359   2.773   8.850
 5028POPC   GL224422  14.432   2.832   8.850
 5028POPC   C1A24423  14.411   2.806   8.550
 5028POPC   D2A24424  14.361   2.725   8.250
 5028POPC   C3A24425  14.415   2.743   7.950
 5028POPC   C4A24426  14.382   2.795   7.650
 5028POPC   C1B24427  14.532   2.980   8.550
 5028POPC   C2B24428  14.536   2.966   8.250
 5028POPC   C3B24429  14.475   3.010   7.950
 5028POPC   C4B24430  14.546   3.029   7.650
 5029POPC   NC324431  30.692  11.255   9.450
 5029POPC   PO424432  30.659  11.311   9.150
 5029POPC   GL124433  30.695  11.324   8.850
 5029POPC   GL224434  30.545  11.320   8.850
 5029POPC   C1A24435  30.690  11.264   8.550
 5029POPC   D2A24436  30.712  11.335   8.250
 5029POPC   C3A24437  30.723  11.292   7.950
 5029POPC   C4A24438  30.681  11.297   7.650
 5029POPC   C1B24439  30.459  11.420   8.550
 5029POPC   C2B24440  30.429  11.353   8.250
 5029POPC   C3B24441  30.436  11.407   7.950
 5029POPC   C4B24442  30.450  11.354   7.650
 5030POPC   NC324443  13.668   1.995   9.450
 5030POPC   PO424444  13.674   1.958   9.150
 5030POPC   GL124445  13.605   1.965   8.850
 5030POPC   GL224446  13.761   1.994   8.850
 5030POPC   C1A24447  13.633   1.992   8.550
 5030POPC   D2A24448  13.616   2.032   8.250
 5030POPC   C3A24449  13.626   2.038   7.950
 5030POPC   C4A24450  13.612   2.021   7.650
 5030POPC   C1B24451  13.826   1.916   8.550
 5030POPC   C2B24452  13.903   1.870   8.250
 5030POPC   C3B24453  13.893   1.890   7.950
 5030POPC   C4B24454  13.827   1.922   7.650
 5031POPC   NC324455  42.285  11.297   9.450
 5031POPC   PO424456  42.361  11.292   9.150
 5031POPC   GL124457  42.292  11.311   8.850
 5031POPC   GL224458  42.162  11.343   8.850
 5031POPC   C1A24459  42.309  11.340   8.550
 5031POPC   D2A24460  42.342  11.255   8.250
 5031POPC   C3A24461  42.363  11.311   7.950
 5031POPC   C4A24462  42.306  11.290   7.650
 5031POPC   C1B24463  42.099  11.291   8.550
 5031POPC   C2B24464  42.039  11.351   8.250
 5031POPC   C3B24465  42.109  11.283   7.950
 5031POPC   C4B24466  42.061  11.340   7.650
 5032POPC   NC324467  12.058  41.514   9.450
 5032POPC   PO424468  12.045  41.535   9.150
 5032POPC   GL124469  12.090  41.510   8.850
 5032POPC   GL224470  12.245  41.563   8.850
 5032POPC   C1A24471  12.042  41.585   8.550
 5032POPC   D2A24472  12.113  41.584   8.250
 5032POPC   C3A24473  12.074  41.516   7.950
 5032POPC   C4A24474  12.034  41.578   7.650
 5032POPC   C1B24475  12.279  41.637   8.550
 5032POPC   C2B24476  12.299  41.579   8.250
 5032POPC   C3B24477  12.316  41.646   7.950
 5032POPC   C4B24478  12.315  41.626   7.650
 5033POPC   NC324479  30.739  19.815   9.450
 5033POPC   PO424480  30.722  19.809   9.150
 5033POPC   GL124481  30.660  19.830   8.850
 5033POPC   GL224482  30.735  19.913   8.850
 5033POPC   C1A24483  30.666  19.841   8.550
 5033POPC   D2A24484  30.668  19.798   8.250
 5033POPC   C3A24485  30.705  19.860   7.950
 5033POPC   C4A24486  30.695  19.822   7.650
 5033POPC   C1B24487  30.750  20.087   8.550
 5033POPC   C2B24488  30.801  20.103   8.250
 5033POPC   C3B24489  30.768  20.042   7.950
 5033POPC   C4B24490  30.818  20.021   7.650
 5034POPC   NC324491  18.233  37.715   9.450
 5034POPC   PO424492  18.306  37.643   9.150
 5034POPC   GL124493  18.267  37.717   8.850
 5034POPC   GL224494  18.434  37.689   8.850
 5034POPC   C1A24495  18.235  37.650   8.550
 5034POPC   D2A24496  18.233  37.644   8.250
 5034POPC   C3A24497  18.264  37.652   7.950
 5034POPC   C4A24498  18.246  37.697   7.650
 5034POPC   C1B24499  18.571  37.701   8.550
 5034POPC   C2B24500  18.501  37.701   8.250
 5034POPC   C3B24501  18.568  37.757   7.950
 5034POPC   C4B24502  18.562  37.750   7.650
 5035POPC   NC324503  12.028  26.028   9.450
 5035POPC   PO424504  12.125  26.010   9.150
 5035POPC   GL124505  12.119  26.002   8.850
 5035POPC   GL224506  12.061  25.889   8.850
 5035POPC   C1A24507  12.112  26.008   8.550
 5035POPC   D2A24508  12.038  26.038   8.250
 5035POPC   C3A24509  12.062  26.001   7.950
 5035POPC   C4A24510  12.069  26.016   7.650
 5035POPC   C1B24511  12.158  25.775   8.550
 5035POPC   C2B24512  12.177  25.765   8.250
 5035POPC   C3B24513  12.188  25.813   7.950
 5035POPC   C4B24514  12.150  25.778   7.650
 5036POPC   NC324515  23.711  26.073   9.450
 5036POPC   PO424516  23.727  26.060   9.150
 5036POPC   GL124517  23.712  25.992   8.850
 5036POPC   GL224518  23.612  26.080   8.850
 5036POPC   C1A24519  23.762  26.089   8.550
 5036POPC   D2A24520  23.745  26.075   8.250
 5036POPC   C3A24521  23.695  26.062   7.950
 5036POPC   C4A24522  23.740  26.077   7.650
 5036POPC   C1B24523  23.514  26.150   8.550
 5036POPC   C2B24524  23.482  26.091   8.250
 5036POPC   C3B24525  23.479  26.166   7.950
 5036POPC   C4B24526  23.466  26.155   7.650
 5037POPC   NC324527   6.661   4.348   9.450
 5037POPC   PO424528   6.633   4.303   9.150
 5037POPC   GL124529   6.653   4.313   8.850
 5037POPC   GL224530   6.491   4.359   8.850
 5037POPC   C1A24531   6.611   4.342   8.550
 5037POPC   D2A24532   6.665   4.337   8.250
 5037POPC   C3A24533   6.625   4.353   7.950
 5037POPC   C4A24534   6.603   4.337   7.650
 5037POPC   C1B24535   6.395   4.351   8.550
 5037POPC   C2B24536   6.438   4.350   8.250
 5037POPC   C3B24537   6.410   4.325   7.950
 5037POPC   C4B24538   6.403   4.402   7.650
 5038POPC   NC324539  14.435  30.658   9.450
 5038POPC   PO424540  14.440  30.673   9.150
 5038POPC   GL124541  14.452  30.695   8.850
 5038POPC   GL224542  14.480  30.777   8.850
 5038POPC   C1A24543  14.367  30.695   8.550
 5038POPC   D2A24544  14.434  30.709   8.250
 5038POPC   C3A24545  14.431  30.677   7.950
 5038POPC   C4A24546  14.385  30.735   7.650
 5038POPC   C1B24547  14.675  30.733   8.550
 5038POPC   C2B24548  14.654  30.775   8.250
 5038POPC   C3B24549  14.603  30.793   7.950
 5038POPC   C4B24550  14.647  30.755   7.650
 5039POPC   NC324551  38.465  14.413   9.450
 5039POPC   PO424552  38.423  14.447   9.150
 5039POPC   GL124553  38.455  14.442   8.850
 5039POPC   GL224554  38.371  14.248   8.850
 5039POPC   C1A24555  38.498  14.355   8.550
 5039POPC   D2A24556  38.489  14.385   8.250
 5039POPC   C3A24557  38.465  14.400   7.950
 5039POPC   C4A24558  38.446  14.394   7.650
 5039POPC   C1B24559  38.367  14.194   8.550
 5039POPC   C2B24560  38.422  14.148   8.250
 5039POPC   C3B24561  38.428  14.205   7.950
 5039POPC   C4B24562  38.370  14.196   7.650
 5040POPC   NC324563  31.506   5.062   9.450
 5040POPC   PO424564  31.519   5.111   9.150
 5040POPC   GL124565  31.472   5.131   8.850
 5040POPC   GL224566  31.581   5.098   8.850
 5040POPC   C1A24567  31.494   5.133   8.550
 5040POPC   D2A24568  31.509   5.123   8.250
 5040POPC   C3A24569  31.496   5.133   7.950
 5040POPC   C4A24570  31.434   5.134   7.650
 5040POPC   C1B24571  31.723   4.984   8.550
 5040POPC   C2B24572  31.715   5.047   8.250
 5040POPC   C3B24573  31.746   5.026   7.950
 5040POPC   C4B24574  31.719   4.994   7.650
 5041POPC   NC324575  19.072   5.833   9.450
 5041POPC   PO424576  19.028   5.876   9.150
 5041POPC   GL124577  19.066   5.872   8.850
 5041POPC   GL224578  18.937   5.825   8.850
 5041POPC   C1A24579  19.030   5.916   8.550
 5041POPC   D2A24580  19.087   5.871   8.250
 5041POPC   C3A24581  19.089   5.825   7.950
 5041POPC   C4A24582  19.064   5.901   7.650
 5041POPC   C1B24583  18.857   5.661   8.550
 5041POPC   C2B24584  18.893   5.725   8.250
 5041POPC   C3B24585  18.890   5.711   7.950
 5041POPC   C4B24586  18.881   5.736   7.650
 5042POPC   NC324587  40.747   2.003   9.450
 5042POPC   PO424588  40.776   1.975   9.150
 5042POPC   GL124589  40.749   1.982   8.850
 5042POPC   GL224590  40.910   2.042   8.850
 5042POPC   C1A24591  40.800   1.951   8.550
 5042POPC   D2A24592  40.820   2.023   8.250
 5042POPC   C3A24593  40.751   1.971   7.950
 5042POPC   C4A24594  40.779   1.951   7.650
 5042POPC   C1B24595  40.997   2.117   8.550
 5042POPC   C2B24596  40.971   2.154   8.250
 5042POPC   C3B24597  40.940   2.133   7.950
 5042POPC   C4B24598  41.003   2.186   7.650
 5043POPC   NC324599  44.657   2.784   9.450
 5043POPC   PO424600  44.700   2.815   9.150
 5043POPC   GL124601  44.637   2.785   8.850
 5043POPC   GL224602  44.627   2.645   8.850
 5043POPC   C1A24603  44.612   2.752   8.550
 5043POPC   D2A24604  44.671   2.744   8.250
 5043POPC   C3A24605  44.631   2.759   7.950
 5043POPC   C4A24606  44.707   2.763   7.650
 5043POPC   C1B24607  44.591   2.492   8.550
 5043POPC   C2B24608  44.633   2.490   8.250
 5043POPC   C3B24609  44.567   2.565   7.950
 5043POPC   C4B24610  44.629   2.564   7.650
 5044POPC   NC324611  35.315  20.568   9.450
 5044POPC   PO424612  35.364  20.592   9.150
 5044POPC   GL124613  35.310  20.566   8.850
 5044POPC   GL224614  35.422  20.656   8.850
 5044POPC   C1A24615  35.321  20.591   8.550
 5044POPC   D2A24616  35.384  20.627   8.250
 5044POPC   C3A24617  35.376  20.634   7.950
 5044POPC   C4A24618  35.400  20.573   7.650
 5044POPC   C1B24619  35.597  20.696   8.550
 5044POPC   C2B24620  35.625  20.750   8.250
 5044POPC   C3B24621  35.537  20.768   7.950
 5044POPC   C4B24622  35.612  20.700   7.650
 5045POPC   NC324623  13.651  22.934   9.450
 5045POPC   PO424624  13.658  22.977   9.150
 5045POPC   GL124625  13.634  22.965   8.850
 5045POPC   GL224626  13.603  22.863   8.850
 5045POPC   C1A24627  13.661  22.931   8.550
 5045POPC   D2A24628  13.582  22.902   8.250
 5045POPC   C3A24629  13.627  22.976   7.950
 5045POPC   C4A24630  13.657  22.930   7.650
 5045POPC   C1B24631  13.569  22.731   8.550
 5045POPC   C2B24632  13.630  22.694   8.250
 5045POPC   C3B24633  13.553  22.690   7.950
 5045POPC   C4B24634  13.611  22.725   7.650
 5046POPC   NC324635   9.759  31.452   9.450
 5046POPC   PO424636   9.736  31.469   9.150
 5046POPC   GL124637   9.699  31.473   8.850
 5046POPC   GL224638   9.771  31.375   8.850
 5046POPC   C1A24639   9.770  31.511   8.550
 5046POPC   D2A24640   9.704  31.486   8.250
 5046POPC   C3A24641   9.779  31.457   7.950
 5046POPC   C4A24642   9.754  31.442   7.650
 5046POPC   C1B24643   9.755  31.249   8.550
 5046POPC   C2B24644   9.835  31.224   8.250
 5046POPC   C3B24645   9.823  31.185   7.950
 5046POPC   C4B24646   9.838  31.207   7.650
 5047POPC   NC324647  36.926  15.147   9.450
 5047POPC   PO424648  36.864  15.137   9.150
 5047POPC   GL124649  36.918  15.209   8.850
 5047POPC   GL224650  36.966  15.315   8.850
 5047POPC   C1A24651  36.889  15.183   8.550
 5047POPC   D2A24652  36.908  15.168   8.250
 5047POPC   C3A24653  36.925  15.224   7.950
 5047POPC   C4A24654  36.920  15.184   7.650
 5047POPC   C1B24655  37.033  15.341   8.550
 5047POPC   C2B24656  37.001  15.345   8.250
 5047POPC   C3B24657  37.057  15.367   7.950
 5047POPC   C4B24658  37.035  15.392   7.650
 5048POPC   NC324659  13.643  34.561   9.450
 5048POPC   PO424660  13.609  34.539   9.150
 5048POPC   GL124661  13.616  34.571   8.850
 5048POPC   GL224662  13.703  34.461   8.850
 5048POPC   C1A24663  13.661  34.534   8.550
 5048POPC   D2A24664  13.677  34.589   8.250
 5048POPC   C3A24665  13.653  34.535   7.950
 5048POPC   C4A24666  13.601  34.611   7.650
 5048POPC   C1B24667  13.831  34.429   8.550
 5048POPC   C2B24668  13.769  34.373   8.250
 5048POPC   C3B24669  13.865  34.462   7.950
 5048POPC   C4B24670  13.845  34.422   7.650
 5049POPC   NC324671  28.327  29.154   9.450
 5049POPC   PO424672  28.395  29.110   9.150
 5049POPC   GL124673  28.326  29.171   8.850
 5049POPC   GL224674  28.251  29.179   8.850
 5049POPC   C1A24675  28.350  29.165   8.550
 5049POPC   D2A24676  28.348  29.185   8.250
 5049POPC   C3A24677  28.417  29.195   7.950
 5049POPC   C4A24678  28.366  29.191   7.650
 5049POPC   C1B24679  28.107  29.225   8.550
 5049POPC   C2B24680  28.139  29.198   8.250
 5049POPC   C3B24681  28.111  29.210   7.950
 5049POPC   C4B24682  28.115  29.191   7.650
 5050POPC   NC324683  28.353  20.640   9.450
 5050POPC   PO424684  28.357  20.650   9.150
 5050POPC   GL124685  28.389  20.602   8.850
 5050POPC   GL224686  28.225  20.681   8.850
 5050POPC   C1A24687  28.369  20.614   8.550
 5050POPC   D2A24688  28.383  20.610   8.250
 5050POPC   C3A24689  28.346  20.568   7.950
 5050POPC   C4A24690  28.409  20.588   7.650
 5050POPC   C1B24691  28.120  20.744   8.550
 5050POPC   C2B24692  28.162  20.678   8.250
 5050POPC   C3B24693  28.094  20.697   7.950
 5050POPC   C4B24694  28.101  20.693   7.650
 5051POPC   NC324695   6.694  30.669   9.450
 5051POPC   PO424696   6.668  30.671   9.150
 5051POPC   GL124697   6.643  30.708   8.850
 5051POPC   GL224698   6.478  30.712   8.850
 5051POPC   C1A24699   6.642  30.717   8.550
 5051POPC   D2A24700   6.636  30.703   8.250
 5051POPC   C3A24701   6.669  30.708   7.950
 5051POPC   C4A24702   6.653  30.701   7.650
 5051POPC   C1B24703   6.416  30.614   8.550
 5051POPC   C2B24704   6.362  30.599   8.250
 5051POPC   C3B24705   6.389  30.657   7.950
 5051POPC   C4B24706   6.413  30.682   7.650
 5052POPC   NC324707  32.217  33.841   9.450
 5052POPC   PO424708  32.254  33.848   9.150
 5052POPC   GL124709  32.216  33.848   8.850
 5052POPC   GL224710  32.297  33.869   8.850
 5052POPC   C1A24711  32.297  33.815   8.550
 5052POPC   D2A24712  32.289  33.779   8.250
 5052POPC   C3A24713  32.281  33.784   7.950
 5052POPC   C4A24714  32.245  33.848   7.650
 5052POPC   C1B24715  32.399  34.014   8.550
 5052POPC   C2B24716  32.345  34.063   8.250
 5052POPC   C3B24717  32.313  34.039   7.950
 5052POPC   C4B24718  32.377  34.022   7.650
 5053POPC   NC324719  14.432  21.416   9.450
 5053POPC   PO424720  14.390  21.382   9.150
 5053POPC   GL124721  14.449  21.351   8.850
 5053POPC   GL224722  14.452  21.487   8.850
 5053POPC   C1A24723  14.377  21.384   8.550
 5053POPC   D2A24724  14.381  21.371   8.250
 5053POPC   C3A24725  14.380  21.423   7.950
 5053POPC   C4A24726  14.428  21.406   7.650
 5053POPC   C1B24727  14.487  21.614   8.550
 5053POPC   C2B24728  14.476  21.584   8.250
 5053POPC   C3B24729  14.492  21.587   7.950
 5053POPC   C4B24730  14.514  21.587   7.650
 5054POPC   NC324731  19.838   3.500   9.450
 5054POPC   PO424732  19.803   3.515   9.150
 5054POPC   GL124733  19.801   3.580   8.850
 5054POPC   GL224734  19.861   3.406   8.850
 5054POPC   C1A24735  19.837   3.501   8.550
 5054POPC   D2A24736  19.865   3.545   8.250
 5054POPC   C3A24737  19.817   3.580   7.950
 5054POPC   C4A24738  19.809   3.577   7.650
 5054POPC   C1B24739  19.924   3.313   8.550
 5054POPC   C2B24740  19.899   3.334   8.250
 5054POPC   C3B24741  19.900   3.364   7.950
 5054POPC   C4B24742  19.948   3.350   7.650
 5055POPC   NC324743  43.142   6.613   9.450
 5055POPC   PO424744  43.108   6.639   9.150
 5055POPC   GL124745  43.074   6.597   8.850
 5055POPC   GL224746  43.112   6.787   8.850
 5055POPC   C1A24747  43.143   6.595   8.550
 5055POPC   D2A24748  43.132   6.654   8.250
 5055POPC   C3A24749  43.158   6.643   7.950
 5055POPC   C4A24750  43.094   6.602   7.650
 5055POPC   C1B24751  42.988   6.845   8.550
 5055POPC   C2B24752  43.006   6.853   8.250
 5055POPC   C3B24753  43.038   6.887   7.950
 5055POPC   C4B24754  42.971   6.876   7.650
 5056POPC   NC324755   3.582   8.157   9.450
 5056POPC   PO424756   3.518   8.243   9.150
 5056POPC   GL124757   3.576   8.164   8.850
 5056POPC   GL224758   3.589   8.304   8.850
 5056POPC   C1A24759   3.496   8.174   8.550
 5056POPC   D2A24760   3.590   8.205   8.250
 5056POPC   C3A24761   3.556   8.163   7.950
 5056POPC   C4A24762   3.561   8.161   7.650
 5056POPC   C1B24763   3.584   8.480   8.550
 5056POPC   C2B24764   3.537   8.408   8.250
 5056POPC   C3B24765   3.531   8.425   7.950
 5056POPC   C4B24766   3.606   8.441   7.650
 5057POPC   NC324767  23.700  22.192   9.450
 5057POPC   PO424768  23.736  22.204   9.150
 5057POPC   GL124769  23.713  22.141   8.850
 5057POPC   GL224770  23.788  22.113   8.850
 5057POPC   C1A24771  23.686  22.211   8.550
 5057POPC   D2A24772  23.730  22.186   8.250
 5057POPC   C3A24773  23.686  22.136   7.950
 5057POPC   C4A24774  23.728  22.169   7.650
 5057POPC   C1B24775  23.910  22.085   8.550
 5057POPC   C2B24776  23.993  22.045   8.250
 5057POPC   C3B24777  23.911  22.077   7.950
 5057POPC   C4B24778  23.950  22.023   7.650
 5058POPC   NC324779  43.922  29.137   9.450
 5058POPC   PO424780  43.912  29.190   9.150
 5058POPC   GL124781  43.920  29.099   8.850
 5058POPC   GL224782  43.751  29.140   8.850
 5058POPC   C1A24783  43.871  29.176   8.550
 5058POPC   D2A24784  43.873  29.135   8.250
 5058POPC   C3A24785  43.874  29.095   7.950
 5058POPC   C4A24786  43.934  29.147   7.650
 5058POPC   C1B24787  43.608  29.170   8.550
 5058POPC   C2B24788  43.615  29.244   8.250
 5058POPC   C3B24789  43.595  29.248   7.950
 5058POPC   C4B24790  43.680  29.198   7.650
 5059POPC   NC324791  10.507   5.845   9.450
 5059POPC   PO424792  10.531   5.860   9.150
 5059POPC   GL124793  10.521   5.899   8.850
 5059POPC   GL224794  10.420   5.772   8.850
 5059POPC   C1A24795  10.485   5.896   8.550
 5059POPC   D2A24796  10.537   5.830   8.250
 5059POPC   C3A24797  10.567   5.894   7.950
 5059POPC   C4A24798  10.550   5.824   7.650
 5059POPC   C1B24799  10.266   5.720   8.550
 5059POPC   C2B24800  10.359   5.782   8.250
 5059POPC   C3B24801  10.318   5.740   7.950
 5059POPC   C4B24802  10.355   5.722   7.650
 5060POPC   NC324803   2.738  12.870   9.450
 5060POPC   PO424804   2.809  12.821   9.150
 5060POPC   GL124805   2.783  12.805   8.850
 5060POPC   GL224806   2.793  12.763   8.850
 5060POPC   C1A24807   2.795  12.825   8.550
 5060POPC   D2A24808   2.726  12.815   8.250
 5060POPC   C3A24809   2.745  12.884   7.950
 5060POPC   C4A24810   2.718  12.825   7.650
 5060POPC   C1B24811   2.777  12.610   8.550
 5060POPC   C2B24812   2.807  12.592   8.250
 5060POPC   C3B24813   2.759  12.616   7.950
 5060POPC   C4B24814   2.798  12.554   7.650
 5061POPC   NC324815   6.636  19.859   9.450
 5061POPC   PO424816   6.598  19.842   9.150
 5061POPC   GL124817   6.670  19.873   8.850
 5061POPC   GL224818   6.544  19.981   8.850
 5061POPC   C1A24819   6.651  19.864   8.550
 5061POPC   D2A24820   6.652  19.852   8.250
 5061POPC   C3A24821   6.616  19.841   7.950
 5061POPC   C4A24822   6.662  19.853   7.650
 5061POPC   C1B24823   6.510  20.077   8.550
 5061POPC   C2B24824   6.467  20.008   8.250
 5061POPC   C3B24825   6.485  20.084   7.950
 5061POPC   C4B24826   6.447  20.024   7.650
 5062POPC   NC324827  42.367  24.459   9.450
 5062POPC   PO424828  42.355  24.519   9.150
 5062POPC   GL124829  42.337  24.442   8.850
 5062POPC   GL224830  42.368  24.378   8.850
 5062POPC   C1A24831  42.346  24.539   8.550
 5062POPC   D2A24832  42.322  24.518   8.250
 5062POPC   C3A24833  42.338  24.538   7.950
 5062POPC   C4A24834  42.290  24.518   7.650
 5062POPC   C1B24835  42.373  24.221   8.550
 5062POPC   C2B24836  42.300  24.223   8.250
 5062POPC   C3B24837  42.328  24.254   7.950
 5062POPC   C4B24838  42.288  24.277   7.650
 5063POPC   NC324839   5.134  34.566   9.450
 5063POPC   PO424840   5.062  34.559   9.150
 5063POPC   GL124841   5.091  34.601   8.850
 5063POPC   GL224842   5.103  34.706   8.850
 5063POPC   C1A24843   5.114  34.544   8.550
 5063POPC   D2A24844   5.082  34.610   8.250
 5063POPC   C3A24845   5.059  34.603   7.950
 5063POPC   C4A24846   5.044  34.615   7.650
 5063POPC   C1B24847   5.225  34.767   8.550
 5063POPC   C2B24848   5.157  34.835   8.250
 5063POPC   C3B24849   5.221  34.792   7.950
 5063POPC   C4B24850   5.193  34.844   7.650
 5064POPC   NC324851  12.114  33.042   9.450
 5064POPC   PO424852  12.056  32.982   9.150
 5064POPC   GL124853  12.026  32.979   8.850
 5064POPC   GL224854  12.073  33.176   8.850
 5064POPC   C1A24855  12.118  33.055   8.550
 5064POPC   D2A24856  12.048  33.058   8.250
 5064POPC   C3A24857  12.088  33.008   7.950
 5064POPC   C4A24858  12.045  33.009   7.650
 5064POPC   C1B24859  12.076  33.292   8.550
 5064POPC   C2B24860  12.003  33.277   8.250
 5064POPC   C3B24861  12.032  33.260   7.950
 5064POPC   C4B24862  12.062  33.299   7.650
 5065POPC   NC324863  40.055  22.943   9.450
 5065POPC   PO424864  39.973  22.984   9.150
 5065POPC   GL124865  40.016  22.901   8.850
 5065POPC   GL224866  39.882  22.977   8.850
 5065POPC   C1A24867  40.049  22.904   8.550
 5065POPC   D2A24868  39.957  22.945   8.250
 5065POPC   C3A24869  40.045  22.916   7.950
 5065POPC   C4A24870  39.969  22.941   7.650
 5065POPC   C1B24871  39.776  22.952   8.550
 5065POPC   C2B24872  39.709  22.935   8.250
 5065POPC   C3B24873  39.764  22.982   7.950
 5065POPC   C4B24874  39.728  22.987   7.650
 5066POPC   NC324875  12.889   6.597   9.450
 5066POPC   PO424876  12.809   6.624   9.150
 5066POPC   GL124877  12.849   6.660   8.850
 5066POPC   GL224878  12.992   6.640   8.850
 5066POPC   C1A24879  12.826   6.660   8.550
 5066POPC   D2A24880  12.882   6.609   8.250
 5066POPC   C3A24881  12.836   6.660   7.950
 5066POPC   C4A24882  12.893   6.618   7.650
 5066POPC   C1B24883  13.099   6.623   8.550
 5066POPC   C2B24884  13.108   6.670   8.250
 5066POPC   C3B24885  13.052   6.626   7.950
 5066POPC   C4B24886  13.103   6.616   7.650
 5067POPC   NC324887   3.585  28.356   9.450
 5067POPC   PO424888   3.558  28.338   9.150
 5067POPC   GL124889   3.578  28.412   8.850
 5067POPC   GL224890   3.475  28.499   8.850
 5067POPC   C1A24891   3.541  28.415   8.550
 5067POPC   D2A24892   3.586  28.324   8.250
 5067POPC   C3A24893   3.501  28.406   7.950
 5067POPC   C4A24894   3.544  28.369   7.650
 5067POPC   C1B24895   3.466  28.643   8.550
 5067POPC   C2B24896   3.395  28.604   8.250
 5067POPC   C3B24897   3.414  28.641   7.950
 5067POPC   C4B24898   3.443  28.620   7.650
 5068POPC   NC324899  32.290  10.568   9.450
 5068POPC   PO424900  32.281  10.491   9.150
 5068POPC   GL124901  32.235  10.568   8.850
 5068POPC   GL224902  32.155  10.547   8.850
 5068POPC   C1A24903  32.247  10.505   8.550
 5068POPC   D2A24904  32.256  10.560   8.250
 5068POPC   C3A24905  32.213  10.487   7.950
 5068POPC   C4A24906  32.298  10.526   7.650
 5068POPC   C1B24907  31.993  10.555   8.550
 5068POPC   C2B24908  31.980  10.564   8.250
 5068POPC   C3B24909  32.024  10.618   7.950
 5068POPC   C4B24910  32.038  10.553   7.650
 5069POPC   NC324911  24.460   0.413   9.450
 5069POPC   PO424912  24.464   0.431   9.150
 5069POPC   GL124913  24.505   0.453   8.850
 5069POPC   GL224914  24.504   0.571   8.850
 5069POPC   C1A24915  24.493   0.393   8.550
 5069POPC   D2A24916  24.454   0.464   8.250
 5069POPC   C3A24917  24.501   0.430   7.950
 5069POPC   C4A24918  24.449   0.398   7.650
 5069POPC   C1B24919  24.572   0.663   8.550
 5069POPC   C2B24920  24.549   0.674   8.250
 5069POPC   C3B24921  24.636   0.671   7.950
 5069POPC   C4B24922  24.589   0.663   7.650
 5070POPC   NC324923   1.212  15.138   9.450
 5070POPC   PO424924   1.262  15.191   9.150
 5070POPC   GL124925   1.249  15.156   8.850
 5070POPC   GL224926   1.272  15.045   8.850
 5070POPC   C1A24927   1.263  15.166   8.550
 5070POPC   D2A24928   1.203  15.225   8.250
 5070POPC   C3A24929   1.259  15.149   7.950
 5070POPC   C4A24930   1.173  15.205   7.650
 5070POPC   C1B24931   1.306  14.985   8.550
 5070POPC   C2B24932   1.302  14.973   8.250
 5070POPC   C3B24933   1.311  14.943   7.950
 5070POPC   C4B24934   1.287  14.924   7.650
 5071POPC   NC324935  36.884   0.469   9.450
 5071POPC   PO424936  36.888   0.439   9.150
 5071POPC   GL124937  36.934   0.396   8.850
 5071POPC   GL224938  36.934   0.291   8.850
 5071POPC   C1A24939  36.899   0.430   8.550
 5071POPC   D2A24940  36.870   0.421   8.250
 5071POPC   C3A24941  36.902   0.445   7.950
 5071POPC   C4A24942  36.865   0.426   7.650
 5071POPC   C1B24943  36.952   0.244   8.550
 5071POPC   C2B24944  36.966   0.185   8.250
 5071POPC   C3B24945  36.970   0.208   7.950
 5071POPC   C4B24946  37.034   0.168   7.650
 5072POPC   NC324947  30.647   3.564   9.450
 5072POPC   PO424948  30.703   3.572   9.150
 5072POPC   GL124949  30.731   3.527   8.850
 5072POPC   GL224950  30.606   3.437   8.850
 5072POPC   C1A24951  30.731   3.556   8.550
 5072POPC   D2A24952  30.699   3.568   8.250
 5072POPC   C3A24953  30.734   3.512   7.950
 5072POPC   C4A24954  30.728   3.512   7.650
 5072POPC   C1B24955  30.494   3.439   8.550
 5072POPC   C2B24956  30.503   3.372   8.250
 5072POPC   C3B24957  30.445   3.427   7.950
 5072POPC   C4B24958  30.460   3.405   7.650
 5073POPC   NC324959  33.042  18.331   9.450
 5073POPC   PO424960  33.062  18.267   9.150
 5073POPC   GL124961  33.028  18.259   8.850
 5073POPC   GL224962  33.078  18.361   8.850
 5073POPC   C1A24963  33.031  18.311   8.550
 5073POPC   D2A24964  33.001  18.250   8.250
 5073POPC   C3A24965  33.015  18.311   7.950
 5073POPC   C4A24966  33.004  18.248   7.650
 5073POPC   C1B24967  33.201  18.412   8.550
 5073POPC   C2B24968  33.192  18.421   8.250
 5073POPC   C3B24969  33.182  18.443   7.950
 5073POPC   C4B24970  33.199  18.413   7.650
 5074POPC   NC324971  13.635  10.538   9.450
 5074POPC   PO424972  13.652  10.500   9.150
 5074POPC   GL124973  13.638  10.522   8.850
 5074POPC   GL224974  13.753  10.569   8.850
 5074POPC   C1A24975  13.625  10.541   8.550
 5074POPC   D2A24976  13.597  10.483   8.250
 5074POPC   C3A24977  13.621  10.541   7.950
 5074POPC   C4A24978  13.607  10.545   7.650
 5074POPC   C1B24979  13.841  10.661   8.550
 5074POPC   C2B24980  13.897  10.655   8.250
 5074POPC   C3B24981  13.898  10.585   7.950
 5074POPC   C4B24982  13.825  10.594   7.650
 5075POPC   NC324983   1.233  32.219   9.450
 5075POPC   PO424984   1.248  32.267   9.150
 5075POPC   GL124985   1.196  32.218   8.850
 5075POPC   GL224986   1.331  32.274   8.850
 5075POPC   C1A24987   1.201  32.205   8.550
 5075POPC   D2A24988   1.180  32.255   8.250
 5075POPC   C3A24989   1.210  32.254   7.950
 5075POPC   C4A24990   1.201  32.221   7.650
 5075POPC   C1B24991   1.513  32.203   8.550
 5075POPC   C2B24992   1.435  32.275   8.250
 5075POPC   C3B24993   1.500  32.274   7.950
 5075POPC   C4B24994   1.436  32.200   7.650
 5076POPC   NC324995   9.732  35.358   9.450
 5076POPC   PO424996   9.773  35.370   9.150
 5076POPC   GL124997   9.752  35.311   8.850
 5076POPC   GL224998   9.644  35.258   8.850
 5076POPC   C1A24999   9.791  35.339   8.550
 5076POPC   D2A25000   9.724  35.320   8.250
 5076POPC   C3A25001   9.701  35.304   7.950
 5076POPC   C4A25002   9.720  35.382   7.650
 5076POPC   C1B25003   9.505  35.172   8.550
 5076POPC   C2B25004   9.510  35.206   8.250
 5076POPC   C3B25005   9.501  35.163   7.950
 5076POPC   C4B25006   9.537  35.213   7.650
 5077POPC   NC325007   1.252  20.573   9.450
 5077POPC   PO425008   1.211  20.619   9.150
 5077POPC   GL125009   1.227  20.605   8.850
 5077POPC   GL225010   1.168  20.489   8.850
 5077POPC   C1A25011   1.165  20.571   8.550
 5077POPC   D2A25012   1.208  20.622   8.250
 5077POPC   C3A25013   1.234  20.567   7.950
 5077POPC   C4A25014   1.182  20.610   7.650
 5077POPC   C1B25015   0.984  20.474   8.550
 5077POPC   C2B25016   1.058  20.473   8.250
 5077POPC   C3B25017   1.073  20.445   7.950
 5077POPC   C4B25018   1.070  20.462   7.650
 5078POPC   NC325019   5.856  44.621   9.450
 5078POPC   PO425020   5.918  44.627   9.150
 5078POPC   GL125021   5.903  44.701   8.850
 5078POPC   GL225022   5.811  44.558   8.850
 5078POPC   C1A25023   5.822  44.683   8.550
 5078POPC   D2A25024   5.853  44.639   8.250
 5078POPC   C3A25025   5.898  44.631   7.950
 5078POPC   C4A25026   5.872  44.669   7.650
 5078POPC   C1B25027   5.792  44.447   8.550
 5078POPC   C2B25028   5.765  44.394   8.250
 5078POPC   C3B25029   5.854  44.450   7.950
 5078POPC   C4B25030   5.789  44.448   7.650
 5079POPC   NC325031  22.196  23.670   9.450
 5079POPC   PO425032  22.192  23.666   9.150
 5079POPC   GL125033  22.168  23.761   8.850
 5079POPC   GL225034  22.008  23.747   8.850
 5079POPC   C1A25035  22.143  23.677   8.550
 5079POPC   D2A25036  22.143  23.750   8.250
 5079POPC   C3A25037  22.124  23.748   7.950
 5079POPC   C4A25038  22.140  23.665   7.650
 5079POPC   C1B25039  21.918  23.769   8.550
 5079POPC   C2B25040  21.920  23.845   8.250
 5079POPC   C3B25041  21.896  23.776   7.950
 5079POPC   C4B25042  21.917  23.768   7.650
 5080POPC   NC325043  17.537  25.310   9.450
 5080POPC   PO425044  17.477  25.229   9.150
 5080POPC   GL125045  17.495  25.305   8.850
 5080POPC   GL225046  17.375  25.280   8.850
 5080POPC   C1A25047  17.506  25.306   8.550
 5080POPC   D2A25048  17.494  25.281   8.250
 5080POPC   C3A25049  17.516  25.240   7.950
 5080POPC   C4A25050  17.481  25.286   7.650
 5080POPC   C1B25051  17.311  25.398   8.550
 5080POPC   C2B25052  17.230  25.328   8.250
 5080POPC   C3B25053  17.238  25.334   7.950
 5080POPC   C4B25054  17.234  25.397   7.650
 5081POPC   NC325055  23.692  24.457   9.450
 5081POPC   PO425056  23.675  24.523   9.150
 5081POPC   GL125057  23.676  24.518   8.850
 5081POPC   GL225058  23.783  24.634   8.850
 5081POPC   C1A25059  23.698  24.466   8.550
 5081POPC   D2A25060  23.693  24.515   8.250
 5081POPC   C3A25061  23.694  24.511   7.950
 5081POPC   C4A25062  23.757  24.525   7.650
 5081POPC   C1B25063  23.782  24.767   8.550
 5081POPC   C2B25064  23.745  24.729   8.250
 5081POPC   C3B25065  23.764  24.707   7.950
 5081POPC   C4B25066  23.774  24.731   7.650
 5082POPC   NC325067  39.981  12.830   9.450
 5082POPC   PO425068  40.027  12.823   9.150
 5082POPC   GL125069  40.033  12.805   8.850
 5082POPC   GL225070  39.967  12.988   8.850
 5082POPC   C1A25071  40.023  12.847   8.550
 5082POPC   D2A25072  39.997  12.835   8.250
 5082POPC   C3A25073  40.022  12.837   7.950
 5082POPC   C4A25074  40.037  12.878   7.650
 5082POPC   C1B25075  39.888  13.071   8.550
 5082POPC   C2B25076  39.826  13.030   8.250
 5082POPC   C3B25077  39.890  13.056   7.950
 5082POPC   C4B25078  39.911  13.015   7.650
 5083POPC   NC325079  12.105   5.084   9.450
 5083POPC   PO425080  12.096   5.095   9.150
 5083POPC   GL125081  12.104   5.053   8.850
 5083POPC   GL225082  12.133   5.172   8.850
 5083POPC   C1A25083  12.070   5.111   8.550
 5083POPC   D2A25084  12.097   5.081   8.250
 5083POPC   C3A25085  12.072   5.142   7.950
 5083POPC   C4A25086  12.077   5.075   7.650
 5083POPC   C1B25087  12.326   5.209   8.550
 5083POPC   C2B25088  12.271   5.214   8.250
 5083POPC   C3B25089  12.247   5.206   7.950
 5083POPC   C4B25090  12.306   5.189   7.650
 5084POPC   NC325091  19.826  14.355   9.450
 5084POPC   PO425092  19.811  14.430   9.150
 5084POPC   GL125093  19.809  14.368   8.850
 5084POPC   GL225094  19.754  14.473   8.850
 5084POPC   C1A25095  19.850  14.413   8.550
 5084POPC   D2A25096  19.805  14.367   8.250
 5084POPC   C3A25097  19.843  14.412   7.950
 5084POPC   C4A25098  19.797  14.404   7.650
 5084POPC   C1B25099  19.706  14.615   8.550
 5084POPC   C2B25100  19.713  14.600   8.250
 5084POPC   C3B25101  19.729  14.553   7.950
 5084POPC   C4B25102  19.650  14.607   7.650
 5085POPC   NC325103  25.290   5.069   9.450
 5085POPC   PO425104  25.252   5.046   9.150
 5085POPC   GL125105  25.248   5.045   8.850
 5085POPC   GL225106  25.229   5.214   8.850
 5085POPC   C1A25107  25.245   5.092   8.550
 5085POPC   D2A25108  25.253   5.130   8.250
 5085POPC   C3A25109  25.259   5.054   7.950
 5085POPC   C4A25110  25.240   5.119   7.650
 5085POPC   C1B25111  25.229   5.348   8.550
 5085POPC   C2B25112  25.231   5.358   8.250
 5085POPC   C3B25113  25.232   5.317   7.950
 5085POPC   C4B25114  25.250   5.336   7.650
 5086POPC   NC325115  28.363  34.534   9.450
 5086POPC   PO425116  28.358  34.550   9.150
 5086POPC   GL125117  28.392  34.599   8.850
 5086POPC   GL225118  28.478  34.512   8.850
 5086POPC   C1A25119  28.385  34.601   8.550
 5086POPC   D2A25120  28.334  34.594   8.250
 5086POPC   C3A25121  28.382  34.568   7.950
 5086POPC   C4A25122  28.377  34.622   7.650
 5086POPC   C1B25123  28.461  34.332   8.550
 5086POPC   C2B25124  28.473  34.366   8.250
 5086POPC   C3B25125  28.482  34.390   7.950
 5086POPC   C4B25126  28.523  34.319   7.650
 5087POPC   NC325127  28.337  30.696   9.450
 5087POPC   PO425128  28.396  30.718   9.150
 5087POPC   GL125129  28.379  30.667   8.850
 5087POPC   GL225130  28.344  30.595   8.850
 5087POPC   C1A25131  28.374  30.663   8.550
 5087POPC   D2A25132  28.327  30.697   8.250
 5087POPC   C3A25133  28.364  30.655   7.950
 5087POPC   C4A25134  28.336  30.675   7.650
 5087POPC   C1B25135  28.335  30.449   8.550
 5087POPC   C2B25136  28.371  30.494   8.250
 5087POPC   C3B25137  28.345  30.479   7.950
 5087POPC   C4B25138  28.347  30.481   7.650
 5088POPC   NC325139  36.130  42.380   9.450
 5088POPC   PO425140  36.130  42.347   9.150
 5088POPC   GL125141  36.114  42.325   8.850
 5088POPC   GL225142  36.109  42.410   8.850
 5088POPC   C1A25143  36.143  42.356   8.550
 5088POPC   D2A25144  36.158  42.340   8.250
 5088POPC   C3A25145  36.112  42.364   7.950
 5088POPC   C4A25146  36.098  42.304   7.650
 5088POPC   C1B25147  35.999  42.553   8.550
 5088POPC   C2B25148  36.046  42.534   8.250
 5088POPC   C3B25149  36.009  42.587   7.950
 5088POPC   C4B25150  35.977  42.536   7.650
 5089POPC   NC325151  20.615  36.910   9.450
 5089POPC   PO425152  20.623  36.879   9.150
 5089POPC   GL125153  20.572  36.916   8.850
 5089POPC   GL225154  20.521  36.770   8.850
 5089POPC   C1A25155  20.597  36.925   8.550
 5089POPC   D2A25156  20.636  36.894   8.250
 5089POPC   C3A25157  20.659  36.949   7.950
 5089POPC   C4A25158  20.594  36.890   7.650
 5089POPC   C1B25159  20.470  36.749   8.550
 5089POPC   C2B25160  20.501  36.704   8.250
 5089POPC   C3B25161  20.441  36.741   7.950
 5089POPC   C4B25162  20.501  36.719   7.650
 5090POPC   NC325163  31.441  29.176   9.450
 5090POPC   PO425164  31.500  29.183   9.150
 5090POPC   GL125165  31.492  29.103   8.850
 5090POPC   GL225166  31.332  29.211   8.850
 5090POPC   C1A25167  31.447  29.131   8.550
 5090POPC   D2A25168  31.464  29.135   8.250
 5090POPC   C3A25169  31.484  29.125   7.950
 5090POPC   C4A25170  31.437  29.176   7.650
 5090POPC   C1B25171  31.277  29.231   8.550
 5090POPC   C2B25172  31.214  29.221   8.250
 5090POPC   C3B25173  31.211  29.230   7.950
 5090POPC   C4B25174  31.271  29.209   7.650
 5091POPC   NC325175  12.844  13.666   9.450
 5091POPC   PO425176  12.828  13.596   9.150
 5091POPC   GL125177  12.896  13.662   8.850
 5091POPC   GL225178  12.785  13.706   8.850
 5091POPC   C1A25179  12.843  13.592   8.550
 5091POPC   D2A25180  12.866  13.616   8.250
 5091POPC   C3A25181  12.837  13.636   7.950
 5091POPC   C4A25182  12.899  13.598   7.650
 5091POPC   C1B25183  12.629  13.782   8.550
 5091POPC   C2B25184  12.670  13.779   8.250
 5091POPC   C3B25185  12.588  13.789   7.950
 5091POPC   C4B25186  12.605  13.727   7.650
 5092POPC   NC325187   1.198  14.359   9.450
 5092POPC   PO425188   1.185  14.405   9.150
 5092POPC   GL125189   1.224  14.423   8.850
 5092POPC   GL225190   1.137  14.529   8.850
 5092POPC   C1A25191   1.217  14.420   8.550
 5092POPC   D2A25192   1.242  14.416   8.250
 5092POPC   C3A25193   1.258  14.395   7.950
 5092POPC   C4A25194   1.201  14.432   7.650
 5092POPC   C1B25195   1.167  14.620   8.550
 5092POPC   C2B25196   1.115  14.635   8.250
 5092POPC   C3B25197   1.101  14.641   7.950
 5092POPC   C4B25198   1.093  14.637   7.650
 5093POPC   NC325199  29.191   2.759   9.450
 5093POPC   PO425200  29.110   2.716   9.150
 5093POPC   GL125201  29.183   2.752   8.850
 5093POPC   GL225202  29.277   2.846   8.850
 5093POPC   C1A25203  29.148   2.750   8.550
 5093POPC   D2A25204  29.154   2.794   8.250
 5093POPC   C3A25205  29.124   2.739   7.950
 5093POPC   C4A25206  29.159   2.811   7.650
 5093POPC   C1B25207  29.358   2.931   8.550
 5093POPC   C2B25208  29.392   2.924   8.250
 5093POPC   C3B25209  29.356   2.907   7.950
 5093POPC   C4B25210  29.381   2.942   7.650
 5094POPC   NC325211  11.282  43.839   9.450
 5094POPC   PO425212  11.293  43.887   9.150
 5094POPC   GL125213  11.316  43.918   8.850
 5094POPC   GL225214  11.148  43.809   8.850
 5094POPC   C1A25215  11.271  43.863   8.550
 5094POPC   D2A25216  11.282  43.929   8.250
 5094POPC   C3A25217  11.343  43.893   7.950
 5094POPC   C4A25218  11.276  43.884   7.650
 5094POPC   C1B25219  11.051  43.820   8.550
 5094POPC   C2B25220  11.096  43.829   8.250
 5094POPC   C3B25221  11.028  43.850   7.950
 5094POPC   C4B25222  11.087  43.776   7.650
 5095POPC   NC325223   9.700  39.194   9.450
 5095POPC   PO425224   9.741  39.216   9.150
 5095POPC   GL125225   9.714  39.267   8.850
 5095POPC   GL225226   9.658  39.189   8.850
 5095POPC   C1A25227   9.774  39.203   8.550
 5095POPC   D2A25228   9.747  39.203   8.250
 5095POPC   C3A25229   9.758  39.277   7.950
 5095POPC   C4A25230   9.707  39.258   7.650
 5095POPC   C1B25231   9.494  39.239   8.550
 5095POPC   C2B25232   9.462  39.205   8.250
 5095POPC   C3B25233   9.486  39.264   7.950
 5095POPC   C4B25234   9.500  39.194   7.650
 5096POPC   NC325235  36.918  40.778   9.450
 5096POPC   PO425236  36.873  40.782   9.150
 5096POPC   GL125237  36.890  40.760   8.850
 5096POPC   GL225238  36.978  40.829   8.850
 5096POPC   C1A25239  36.911  40.818   8.550
 5096POPC   D2A25240  36.862  40.804   8.250
 5096POPC   C3A25241  36.939  40.820   7.950
 5096POPC   C4A25242  36.942  40.759   7.650
 5096POPC   C1B25243  37.127  40.914   8.550
 5096POPC   C2B25244  37.101  40.956   8.250
 5096POPC   C3B25245  37.132  40.903   7.950
 5096POPC   C4B25246  37.136  40.970   7.650
 5097POPC   NC325247  12.807  29.139   9.450
 5097POPC   PO425248  12.841  29.161   9.150
 5097POPC   GL125249  12.810  29.124   8.850
 5097POPC   GL225250  12.806  29.234   8.850
 5097POPC   C1A25251  12.835  29.176   8.550
 5097POPC   D2A25252  12.865  29.123   8.250
 5097POPC   C3A25253  12.803  29.139   7.950
 5097POPC   C4A25254  12.894  29.096   7.650
 5097POPC   C1B25255  12.699  29.296   8.550
 5097POPC   C2B25256  12.693  29.274   8.250
 5097POPC   C3B25257  12.696  29.283   7.950
 5097POPC   C4B25258  12.679  29.291   7.650
 5098POPC   NC325259   8.971  37.668   9.450
 5098POPC   PO425260   8.952  37.715   9.150
 5098POPC   GL125261   9.020  37.635   8.850
 5098POPC   GL225262   9.086  37.739   8.850
 5098POPC   C1A25263   8.998  37.716   8.550
 5098POPC   D2A25264   8.939  37.671   8.250
 5098POPC   C3A25265   9.020  37.690   7.950
 5098POPC   C4A25266   8.929  37.667   7.650
 5098POPC   C1B25267   9.209  37.710   8.550
 5098POPC   C2B25268   9.186  37.735   8.250
 5098POPC   C3B25269   9.249  37.792   7.950
 5098POPC   C4B25270   9.177  37.790   7.650
 5099POPC   NC325271  37.682  26.817   9.450
 5099POPC   PO425272  37.690  26.768   9.150
 5099POPC   GL125273  37.638  26.809   8.850
 5099POPC   GL225274  37.701  26.956   8.850
 5099POPC   C1A25275  37.651  26.794   8.550
 5099POPC   D2A25276  37.659  26.825   8.250
 5099POPC   C3A25277  37.638  26.784   7.950
 5099POPC   C4A25278  37.676  26.835   7.650
 5099POPC   C1B25279  37.693  27.017   8.550
 5099POPC   C2B25280  37.641  27.113   8.250
 5099POPC   C3B25281  37.638  27.020   7.950
 5099POPC   C4B25282  37.626  27.056   7.650
 5100POPC   NC325283  26.087  43.886   9.450
 5100POPC   PO425284  26.045  43.923   9.150
 5100POPC   GL125285  26.043  43.849   8.850
 5100POPC   GL225286  26.182  43.913   8.850
 5100POPC   C1A25287  26.009  43.897   8.550
 5100POPC   D2A25288  26.021  43.886   8.250
 5100POPC   C3A25289  26.072  43.873   7.950
 5100POPC   C4A25290  26.086  43.903   7.650
 5100POPC   C1B25291  26.315  43.855   8.550
 5100POPC   C2B25292  26.306  43.873   8.250
 5100POPC   C3B25293  26.316  43.846   7.950
 5100POPC   C4B25294  26.294  43.832   7.650
 5101POPC   NC325295  41.605  36.907   9.450
 5101POPC   PO425296  41.602  36.953   9.150
 5101POPC   GL125297  41.597  36.890   8.850
 5101POPC   GL225298  41.466  36.933   8.850
 5101POPC   C1A25299  41.595  36.895   8.550
 5101POPC   D2A25300  41.512  36.929   8.250
 5101POPC   C3A25301  41.604  36.946   7.950
 5101POPC   C4A25302  41.554  36.925   7.650
 5101POPC   C1B25303  41.310  36.958   8.550
 5101POPC   C2B25304  41.352  36.960   8.250
 5101POPC   C3B25305  41.275  36.975   7.950
 5101POPC   C4B25306  41.325  37.026   7.650
 5102POPC   NC325307  29.951  15.200   9.450
 5102POPC   PO425308  29.929  15.130   9.150
 5102POPC   GL125309  29.895  15.198   8.850
 5102POPC   GL225310  29.789  15.105   8.850
 5102POPC   C1A25311  29.877  15.189   8.550
 5102POPC   D2A25312  29.949  15.209   8.250
 5102POPC   C3A25313  29.932  15.130   7.950
 5102POPC   C4A25314  29.935  15.171   7.650
 5102POPC   C1B25315  29.653  15.088   8.550
 5102POPC   C2B25316  29.651  15.120   8.250
 5102POPC   C3B25317  29.648  15.061   7.950
 5102POPC   C4B25318  29.654  15.099   7.650
 5103POPC   NC325319  29.125  30.727   9.450
 5103POPC   PO425320  29.114  30.682   9.150
 5103POPC   GL125321  29.193  30.648   8.850
 5103POPC   GL225322  29.032  30.567   8.850
 5103POPC   C1A25323  29.172  30.649   8.550
 5103POPC   D2A25324  29.177  30.680   8.250
 5103POPC   C3A25325  29.140  30.663   7.950
 5103POPC   C4A25326  29.177  30.744   7.650
 5103POPC   C1B25327  28.970  30.533   8.550
 5103POPC   C2B25328  29.049  30.495   8.250
 5103POPC   C3B25329  29.017  30.460   7.950
 5103POPC   C4B25330  28.981  30.439   7.650
 5104POPC   NC325331  19.069   6.629   9.450
 5104POPC   PO425332  19.012   6.595   9.150
 5104POPC   GL125333  19.049   6.632   8.850
 5104POPC   GL225334  18.982   6.706   8.850
 5104POPC   C1A25335  19.054   6.673   8.550
 5104POPC   D2A25336  19.037   6.622   8.250
 5104POPC   C3A25337  19.071   6.597   7.950
 5104POPC   C4A25338  19.076   6.626   7.650
 5104POPC   C1B25339  18.861   6.779   8.550
 5104POPC   C2B25340  18.869   6.839   8.250
 5104POPC   C3B25341  18.913   6.860   7.950
 5104POPC   C4B25342  18.906   6.836   7.650
 5105POPC   NC325343  16.716   0.488   9.450
 5105POPC   PO425344  16.685   0.486   9.150
 5105POPC   GL125345  16.705   0.426   8.850
 5105POPC   GL225346  16.604   0.342   8.850
 5105POPC   C1A25347  16.753   0.440   8.550
 5105POPC   D2A25348  16.710   0.442   8.250
 5105POPC   C3A25349  16.706   0.481   7.950
 5105POPC   C4A25350  16.768   0.451   7.650
 5105POPC   C1B25351  16.485   0.305   8.550
 5105POPC   C2B25352  16.547   0.293   8.250
 5105POPC   C3B25353  16.512   0.322   7.950
 5105POPC   C4B25354  16.525   0.330   7.650
 5106POPC   NC325355  10.502  15.165   9.450
 5106POPC   PO425356  10.522  15.224   9.150
 5106POPC   GL125357  10.566  15.198   8.850
 5106POPC   GL225358  10.573  15.019   8.850
 5106POPC   C1A25359  10.503  15.155   8.550
 5106POPC   D2A25360  10.514  15.134   8.250
 5106POPC   C3A25361  10.523  15.190   7.950
 5106POPC   C4A25362  10.510  15.176   7.650
 5106POPC   C1B25363  10.556  14.929   8.550
 5106POPC   C2B25364  10.592  14.932   8.250
 5106POPC   C3B25365  10.529  14.894   7.950
 5106POPC   C4B25366  10.519  14.886   7.650
 5107POPC   NC325367  23.690  33.059   9.450
 5107POPC   PO425368  23.735  32.992   9.150
 5107POPC   GL125369  23.714  33.032   8.850
 5107POPC   GL225370  23.560  33.117   8.850
 5107POPC   C1A25371  23.727  33.074   8.550
 5107POPC   D2A25372  23.740  33.054   8.250
 5107POPC   C3A25373  23.671  32.995   7.950
 5107POPC   C4A25374  23.739  32.995   7.650
 5107POPC   C1B25375  23.453  33.123   8.550
 5107POPC   C2B25376  23.517  33.171   8.250
 5107POPC   C3B25377  23.459  33.188   7.950
 5107POPC   C4B25378  23.465  33.160   7.650
 5108POPC   NC325379  12.885   3.500   9.450
 5108POPC   PO425380  12.899   3.574   9.150
 5108POPC   GL125381  12.849   3.498   8.850
 5108POPC   GL225382  12.835   3.641   8.850
 5108POPC   C1A25383  12.892   3.590   8.550
 5108POPC   D2A25384  12.811   3.508   8.250
 5108POPC   C3A25385  12.885   3.544   7.950
 5108POPC   C4A25386  12.877   3.520   7.650
 5108POPC   C1B25387  12.939   3.801   8.550
 5108POPC   C2B25388  12.882   3.813   8.250
 5108POPC   C3B25389  12.938   3.755   7.950
 5108POPC   C4B25390  12.908   3.766   7.650
 5109POPC   NC325391  40.018  31.451   9.450
 5109POPC   PO425392  39.999  31.431   9.150
 5109POPC   GL125393  39.976  31.503   8.850
 5109POPC   GL225394  39.865  31.567   8.850
 5109POPC   C1A25395  40.019  31.490   8.550
 5109POPC   D2A25396  40.028  31.453   8.250
 5109POPC   C3A25397  40.040  31.462   7.950
 5109POPC   C4A25398  40.011  31.453   7.650
 5109POPC   C1B25399  39.807  31.600   8.550
 5109POPC   C2B25400  39.808  31.518   8.250
 5109POPC   C3B25401  39.821  31.570   7.950
 5109POPC   C4B25402  39.739  31.560   7.650
 5110POPC   NC325403  44.640  36.914   9.450
 5110POPC   PO425404  44.648  36.887   9.150
 5110POPC   GL125405  44.662  36.869   8.850
 5110POPC   GL225406  44.766  37.000   8.850
 5110POPC   C1A25407  44.632  36.953   8.550
 5110POPC   D2A25408  44.647  36.930   8.250
 5110POPC   C3A25409  44.691  36.920   7.950
 5110POPC   C4A25410  44.622  36.947   7.650
 5110POPC   C1B25411  44.858  37.120   8.550
 5110POPC   C2B25412  44.856  37.055   8.250
 5110POPC   C3B25413  44.812  37.053   7.950
 5110POPC   C4B25414  44.892  37.042   7.650
 5111POPC   NC325415  37.640  16.772   9.450
 5111POPC   PO425416  37.695  16.696   9.150
 5111POPC   GL125417  37.661  16.755   8.850
 5111POPC   GL225418  37.579  16.856   8.850
 5111POPC   C1A25419  37.678  16.696   8.550
 5111POPC   D2A25420  37.644  16.707   8.250
 5111POPC   C3A25421  37.665  16.779   7.950
 5111POPC   C4A25422  37.657  16.779   7.650
 5111POPC   C1B25423  37.481  16.909   8.550
 5111POPC   C2B25424  37.485  16.868   8.250
 5111POPC   C3B25425  37.458  16.938   7.950
 5111POPC   C4B25426  37.501  16.923   7.650
 5112POPC   NC325427  28.379  43.931   9.450
 5112POPC   PO425428  28.335  43.918   9.150
 5112POPC   GL125429  28.331  43.880   8.850
 5112POPC   GL225430  28.258  43.917   8.850
 5112POPC   C1A25431  28.366  43.890   8.550
 5112POPC   D2A25432  28.411  43.848   8.250
 5112POPC   C3A25433  28.365  43.936   7.950
 5112POPC   C4A25434  28.352  43.883   7.650
 5112POPC   C1B25435  28.161  43.969   8.550
 5112POPC   C2B25436  28.106  43.916   8.250
 5112POPC   C3B25437  28.135  43.963   7.950
 5112POPC   C4B25438  28.107  43.962   7.650
 5113POPC   NC325439  29.879  38.407   9.450
 5113POPC   PO425440  29.872  38.504   9.150
 5113POPC   GL125441  29.918  38.470   8.850
 5113POPC   GL225442  29.876  38.302   8.850
 5113POPC   C1A25443  29.966  38.416   8.550
 5113POPC   D2A25444  29.950  38.446   8.250
 5113POPC   C3A25445  29.897  38.407   7.950
 5113POPC   C4A25446  29.892  38.450   7.650
 5113POPC   C1B25447  29.881  38.181   8.550
 5113POPC   C2B25448  29.866  38.248   8.250
 5113POPC   C3B25449  29.909  38.230   7.950
 5113POPC   C4B25450  29.872  38.211   7.650
 5114POPC   NC325451  25.291  26.772   9.450
 5114POPC   PO425452  25.255  26.835   9.150
 5114POPC   GL125453  25.302  26.842   8.850
 5114POPC   GL225454  25.172  26.942   8.850
 5114POPC   C1A25455  25.273  26.822   8.550
 5114POPC   D2A25456  25.250  26.824   8.250
 5114POPC   C3A25457  25.235  26.849   7.950
 5114POPC   C4A25458  25.264  26.769   7.650
 5114POPC   C1B25459  25.207  27.058   8.550
 5114POPC   C2B25460  25.197  27.038   8.250
 5114POPC   C3B25461  25.219  27.088   7.950
 5114POPC   C4B25462  25.164  27.042   7.650
 5115POPC   NC325463   5.102  16.776   9.450
 5115POPC   PO425464   5.048  16.701   9.150
 5115POPC   GL125465   5.045  16.709   8.850
 5115POPC   GL225466   5.169  16.575   8.850
 5115POPC   C1A25467   5.139  16.755   8.550
 5115POPC   D2A25468   5.122  16.735   8.250
 5115POPC   C3A25469   5.068  16.739   7.950
 5115POPC   C4A25470   5.093  16.778   7.650
 5115POPC   C1B25471   5.136  16.508   8.550
 5115POPC   C2B25472   5.192  16.528   8.250
 5115POPC   C3B25473   5.191  16.531   7.950
 5115POPC   C4B25474   5.163  16.466   7.650
 5116POPC   NC325475   2.031  36.122   9.450
 5116POPC   PO425476   1.955  36.157   9.150
 5116POPC   GL125477   1.984  36.127   8.850
 5116POPC   GL225478   2.142  36.116   8.850
 5116POPC   C1A25479   1.956  36.122   8.550
 5116POPC   D2A25480   2.021  36.083   8.250
 5116POPC   C3A25481   1.995  36.096   7.950
 5116POPC   C4A25482   1.986  36.170   7.650
 5116POPC   C1B25483   2.217  36.102   8.550
 5116POPC   C2B25484   2.237  36.095   8.250
 5116POPC   C3B25485   2.193  36.085   7.950
 5116POPC   C4B25486   2.286  36.058   7.650
 5117POPC   NC325487  29.154  19.849   9.450
 5117POPC   PO425488  29.109  19.801   9.150
 5117POPC   GL125489  29.180  19.824   8.850
 5117POPC   GL225490  29.048  19.961   8.850
 5117POPC   C1A25491  29.124  19.786   8.550
 5117POPC   D2A25492  29.178  19.884   8.250
 5117POPC   C3A25493  29.115  19.848   7.950
 5117POPC   C4A25494  29.110  19.819   7.650
 5117POPC   C1B25495  29.023  20.030   8.550
 5117POPC   C2B25496  29.043  20.056   8.250
 5117POPC   C3B25497  29.007  20.040   7.950
 5117POPC   C4B25498  29.034  20.009   7.650
 5118POPC   NC325499  24.452  21.350   9.450
 5118POPC   PO425500  24.454  21.382   9.150
 5118POPC   GL125501  24.477  21.339   8.850
 5118POPC   GL225502  24.323  21.396   8.850
 5118POPC   C1A25503  24.440  21.410   8.550
 5118POPC   D2A25504  24.534  21.428   8.250
 5118POPC   C3A25505  24.521  21.341   7.950
 5118POPC   C4A25506  24.475  21.393   7.650
 5118POPC   C1B25507  24.196  21.336   8.550
 5118POPC   C2B25508  24.251  21.331   8.250
 5118POPC   C3B25509  24.279  21.312   7.950
 5118POPC   C4B25510  24.223  21.390   7.650
 5119POPC   NC325511  22.899  22.136   9.450
 5119POPC   PO425512  22.969  22.195   9.150
 5119POPC   GL125513  22.894  22.210   8.850
 5119POPC   GL225514  22.776  22.142   8.850
 5119POPC   C1A25515  22.904  22.178   8.550
 5119POPC   D2A25516  22.972  22.150   8.250
 5119POPC   C3A25517  22.889  22.190   7.950
 5119POPC   C4A25518  22.967  22.166   7.650
 5119POPC   C1B25519  22.645  22.227   8.550
 5119POPC   C2B25520  22.725  22.237   8.250
 5119POPC   C3B25521  22.705  22.188   7.950
 5119POPC   C4B25522  22.720  22.198   7.650
 5120POPC   NC325523  43.135  25.251   9.450
 5120POPC   PO425524  43.096  25.220   9.150
 5120POPC   GL125525  43.076  25.275   8.850
 5120POPC   GL225526  43.214  25.232   8.850
 5120POPC   C1A25527  43.080  25.267   8.550
 5120POPC   D2A25528  43.065  25.304   8.250
 5120POPC   C3A25529  43.101  25.303   7.950
 5120POPC   C4A25530  43.065  25.279   7.650
 5120POPC   C1B25531  43.309  25.213   8.550
 5120POPC   C2B25532  43.332  25.212   8.250
 5120POPC   C3B25533  43.324  25.262   7.950
 5120POPC   C4B25534  43.361  25.268   7.650
 5121POPC   NC325535  31.445  19.825   9.450
 5121POPC   PO425536  31.512  19.853   9.150
 5121POPC   GL125537  31.484  19.820   8.850
 5121POPC   GL225538  31.362  19.810   8.850
 5121POPC   C1A25539  31.451  19.826   8.550
 5121POPC   D2A25540  31.513  19.882   8.250
 5121POPC   C3A25541  31.508  19.820   7.950
 5121POPC   C4A25542  31.519  19.793   7.650
 5121POPC   C1B25543  31.260  19.794   8.550
 5121POPC   C2B25544  31.177  19.800   8.250
 5121POPC   C3B25545  31.194  19.817   7.950
 5121POPC   C4B25546  31.213  19.774   7.650
 5122POPC   NC325547  25.248   3.573   9.450
 5122POPC   PO425548  25.232   3.492   9.150
 5122POPC   GL125549  25.230   3.503   8.850
 5122POPC   GL225550  25.303   3.464   8.850
 5122POPC   C1A25551  25.277   3.519   8.550
 5122POPC   D2A25552  25.301   3.531   8.250
 5122POPC   C3A25553  25.275   3.561   7.950
 5122POPC   C4A25554  25.251   3.583   7.650
 5122POPC   C1B25555  25.393   3.270   8.550
 5122POPC   C2B25556  25.354   3.326   8.250
 5122POPC   C3B25557  25.357   3.347   7.950
 5122POPC   C4B25558  25.322   3.335   7.650
 5123POPC   NC325559  19.108  36.866   9.450
 5123POPC   PO425560  19.064  36.932   9.150
 5123POPC   GL125561  19.041  36.941   8.850
 5123POPC   GL225562  19.204  36.800   8.850
 5123POPC   C1A25563  19.073  36.857   8.550
 5123POPC   D2A25564  19.079  36.924   8.250
 5123POPC   C3A25565  19.052  36.922   7.950
 5123POPC   C4A25566  19.055  36.885   7.650
 5123POPC   C1B25567  19.229  36.745   8.550
 5123POPC   C2B25568  19.220  36.793   8.250
 5123POPC   C3B25569  19.242  36.723   7.950
 5123POPC   C4B25570  19.265  36.764   7.650
 5124POPC   NC325571   8.180  22.900   9.450
 5124POPC   PO425572   8.157  22.898   9.150
 5124POPC   GL125573   8.191  22.950   8.850
 5124POPC   GL225574   8.197  22.853   8.850
 5124POPC   C1A25575   8.159  22.954   8.550
 5124POPC   D2A25576   8.210  22.939   8.250
 5124POPC   C3A25577   8.234  22.919   7.950
 5124POPC   C4A25578   8.200  22.892   7.650
 5124POPC   C1B25579   8.108  22.703   8.550
 5124POPC   C2B25580   8.185  22.650   8.250
 5124POPC   C3B25581   8.168  22.712   7.950
 5124POPC   C4B25582   8.178  22.658   7.650
 5125POPC   NC325583  30.726  40.817   9.450
 5125POPC   PO425584  30.706  40.745   9.150
 5125POPC   GL125585  30.729  40.793   8.850
 5125POPC   GL225586  30.704  40.671   8.850
 5125POPC   C1A25587  30.736  40.785   8.550
 5125POPC   D2A25588  30.712  40.803   8.250
 5125POPC   C3A25589  30.726  40.832   7.950
 5125POPC   C4A25590  30.685  40.799   7.650
 5125POPC   C1B25591  30.720  40.578   8.550
 5125POPC   C2B25592  30.690  40.582   8.250
 5125POPC   C3B25593  30.745  40.499   7.950
 5125POPC   C4B25594  30.686  40.572   7.650
 5126POPC   NC325595  39.194  11.322   9.450
 5126POPC   PO425596  39.267  11.310   9.150
 5126POPC   GL125597  39.200  11.326   8.850
 5126POPC   GL225598  39.296  11.205   8.850
 5126POPC   C1A25599  39.189  11.270   8.550
 5126POPC   D2A25600  39.212  11.278   8.250
 5126POPC   C3A25601  39.235  11.267   7.950
 5126POPC   C4A25602  39.229  11.280   7.650
 5126POPC   C1B25603  39.284  11.051   8.550
 5126POPC   C2B25604  39.307  11.032   8.250
 5126POPC   C3B25605  39.259  11.042   7.950
 5126POPC   C4B25606  39.301  11.093   7.650
 5127POPC   NC325607  19.827  19.088   9.450
 5127POPC   PO425608  19.832  19.039   9.150
 5127POPC   GL125609  19.796  19.040   8.850
 5127POPC   GL225610  19.793  19.172   8.850
 5127POPC   C1A25611  19.790  19.017   8.550
 5127POPC   D2A25612  19.880  19.107   8.250
 5127POPC   C3A25613  19.794  19.025   7.950
 5127POPC   C4A25614  19.836  19.081   7.650
 5127POPC   C1B25615  19.855  19.349   8.550
 5127POPC   C2B25616  19.835  19.333   8.250
 5127POPC   C3B25617  19.838  19.308   7.950
 5127POPC   C4B25618  19.806  19.345   7.650
 5128POPC   NC325619  33.842   5.126   9.450
 5128POPC   PO425620  33.805   5.107   9.150
 5128POPC   GL125621  33.835   5.094   8.850
 5128POPC   GL225622  33.835   5.205   8.850
 5128POPC   C1A25623  33.797   5.056   8.550
 5128POPC   D2A25624  33.784   5.048   8.250
 5128POPC   C3A25625  33.833   5.058   7.950
 5128POPC   C4A25626  33.782   5.064   7.650
 5128POPC   C1B25627  33.932   5.335   8.550
 5128POPC   C2B25628  33.981   5.342   8.250
 5128POPC   C3B25629  33.986   5.320   7.950
 5128POPC   C4B25630  33.968   5.303   7.650
 5129POPC   NC325631   5.844   6.694   9.450
 5129POPC   PO425632   5.825   6.672   9.150
 5129POPC   GL125633   5.872   6.607   8.850
 5129POPC   GL225634   6.023   6.600   8.850
 5129POPC   C1A25635   5.868   6.648   8.550
 5129POPC   D2A25636   5.854   6.640   8.250
 5129POPC   C3A25637   5.914   6.657   7.950
 5129POPC   C4A25638   5.911   6.656   7.650
 5129POPC   C1B25639   6.142   6.619   8.550
 5129POPC   C2B25640   6.111   6.616   8.250
 5129POPC   C3B25641   6.069   6.594   7.950
 5129POPC   C4B25642   6.077   6.625   7.650
 5130POPC   NC325643   5.858  12.076   9.450
 5130POPC   PO425644   5.829  12.077   9.150
 5130POPC   GL125645   5.903  12.101   8.850
 5130POPC   GL225646   5.805  12.189   8.850
 5130POPC   C1A25647   5.890  12.118   8.550
 5130POPC   D2A25648   5.863  12.078   8.250
 5130POPC   C3A25649   5.861  12.034   7.950
 5130POPC   C4A25650   5.894  12.093   7.650
 5130POPC   C1B25651   5.790  12.285   8.550
 5130POPC   C2B25652   5.850  12.317   8.250
 5130POPC   C3B25653   5.814  12.320   7.950
 5130POPC   C4B25654   5.848  12.360   7.650
 5131POPC   NC325655  11.300  26.772   9.450
 5131POPC   PO425656  11.296  26.806   9.150
 5131POPC   GL125657  11.323  26.796   8.850
 5131POPC   GL225658  11.255  26.676   8.850
 5131POPC   C1A25659  11.334  26.777   8.550
 5131POPC   D2A25660  11.278  26.827   8.250
 5131POPC   C3A25661  11.283  26.781   7.950
 5131POPC   C4A25662  11.298  26.812   7.650
 5131POPC   C1B25663  11.106  26.596   8.550
 5131POPC   C2B25664  11.175  26.591   8.250
 5131POPC   C3B25665  11.172  26.591   7.950
 5131POPC   C4B25666  11.176  26.605   7.650
 5132POPC   NC325667  39.219  24.452   9.450
 5132POPC   PO425668  39.270  24.480   9.150
 5132POPC   GL125669  39.212  24.472   8.850
 5132POPC   GL225670  39.261  24.572   8.850
 5132POPC   C1A25671  39.210  24.467   8.550
 5132POPC   D2A25672  39.234  24.513   8.250
 5132POPC   C3A25673  39.194  24.490   7.950
 5132POPC   C4A25674  39.261  24.490   7.650
 5132POPC   C1B25675  39.275  24.774   8.550
 5132POPC   C2B25676  39.280  24.782   8.250
 5132POPC   C3B25677  39.228  24.693   7.950
 5132POPC   C4B25678  39.268  24.703   7.650
 5133POPC   NC325679  37.715  29.965   9.450
 5133POPC   PO425680  37.689  29.945   9.150
 5133POPC   GL125681  37.711  29.904   8.850
 5133POPC   GL225682  37.581  30.052   8.850
 5133POPC   C1A25683  37.686  29.877   8.550
 5133POPC   D2A25684  37.723  29.890   8.250
 5133POPC   C3A25685  37.650  29.876   7.950
 5133POPC   C4A25686  37.678  29.927   7.650
 5133POPC   C1B25687  37.536  30.102   8.550
 5133POPC   C2B25688  37.530  30.118   8.250
 5133POPC   C3B25689  37.525  30.156   7.950
 5133POPC   C4B25690  37.548  30.118   7.650
 5134POPC   NC325691  10.493   0.449   9.450
 5134POPC   PO425692  10.512   0.414   9.150
 5134POPC   GL125693  10.527   0.434   8.850
 5134POPC   GL225694  10.352   0.403   8.850
 5134POPC   C1A25695  10.499   0.429   8.550
 5134POPC   D2A25696  10.511   0.389   8.250
 5134POPC   C3A25697  10.518   0.398   7.950
 5134POPC   C4A25698  10.551   0.464   7.650
 5134POPC   C1B25699  10.252   0.389   8.550
 5134POPC   C2B25700  10.238   0.400   8.250
 5134POPC   C3B25701  10.284   0.385   7.950
 5134POPC   C4B25702  10.309   0.409   7.650
 5135POPC   NC325703  20.642  17.546   9.450
 5135POPC   PO425704  20.659  17.459   9.150
 5135POPC   GL125705  20.581  17.554   8.850
 5135POPC   GL225706  20.686  17.659   8.850
 5135POPC   C1A25707  20.573  17.472   8.550
 5135POPC   D2A25708  20.618  17.540   8.250
 5135POPC   C3A25709  20.628  17.497   7.950
 5135POPC   C4A25710  20.595  17.481   7.650
 5135POPC   C1B25711  20.707  17.685   8.550
 5135POPC   C2B25712  20.706  17.771   8.250
 5135POPC   C3B25713  20.750  17.753   7.950
 5135POPC   C4B25714  20.784  17.704   7.650
 5136POPC   NC325715   2.720  17.539   9.450
 5136POPC   PO425716   2.736  17.522   9.150
 5136POPC   GL125717   2.772  17.535   8.850
 5136POPC   GL225718   2.799  17.592   8.850
 5136POPC   C1A25719   2.791  17.501   8.550
 5136POPC   D2A25720   2.810  17.538   8.250
 5136POPC   C3A25721   2.756  17.529   7.950
 5136POPC   C4A25722   2.718  17.500   7.650
 5136POPC   C1B25723   2.868  17.759   8.550
 5136POPC   C2B25724   2.830  17.761   8.250
 5136POPC   C3B25725   2.882  17.709   7.950
 5136POPC   C4B25726   2.879  17.761   7.650
 5137POPC   NC325727  29.165  40.756   9.450
 5137POPC   PO425728  29.195  40.817   9.150
 5137POPC   GL125729  29.164  40.798   8.850
 5137POPC   GL225730  29.056  40.765   8.850
 5137POPC   C1A25731  29.193  40.824   8.550
 5137POPC   D2A25732  29.105  40.821   8.250
 5137POPC   C3A25733  29.158  40.822   7.950
 5137POPC   C4A25734  29.180  40.807   7.650
 5137POPC   C1B25735  28.878  40.856   8.550
 5137POPC   C2B25736  28.909  40.819   8.250
 5137POPC   C3B25737  28.929  40.790   7.950
 5137POPC   C4B25738  28.902  40.813   7.650
 5138POPC   NC325739  16.729  42.324   9.450
 5138POPC   PO425740  16.780  42.345   9.150
 5138POPC   GL125741  16.745  42.329   8.850
 5138POPC   GL225742  16.587  42.319   8.850
 5138POPC   C1A25743  16.759  42.362   8.550
 5138POPC   D2A25744  16.754  42.314   8.250
 5138POPC   C3A25745  16.763  42.327   7.950
 5138POPC   C4A25746  16.719  42.334   7.650
 5138POPC   C1B25747  16.494  42.355   8.550
 5138POPC   C2B25748  16.480  42.322   8.250
 5138POPC   C3B25749  16.495  42.391   7.950
 5138POPC   C4B25750  16.490  42.410   7.650
 5139POPC   NC325751  35.360  19.834   9.450
 5139POPC   PO425752  35.329  19.838   9.150
 5139POPC   GL125753  35.393  19.867   8.850
 5139POPC   GL225754  35.269  19.935   8.850
 5139POPC   C1A25755  35.309  19.865   8.550
 5139POPC   D2A25756  35.327  19.853   8.250
 5139POPC   C3A25757  35.355  19.792   7.950
 5139POPC   C4A25758  35.314  19.798   7.650
 5139POPC   C1B25759  35.284  20.087   8.550
 5139POPC   C2B25760  35.307  20.040   8.250
 5139POPC   C3B25761  35.241  20.049   7.950
 5139POPC   C4B25762  35.302  20.026   7.650
 5140POPC   NC325763  44.622  40.783   9.450
 5140POPC   PO425764  44.624  40.784   9.150
 5140POPC   GL125765  44.658  40.776   8.850
 5140POPC   GL225766  44.569  40.762   8.850
 5140POPC   C1A25767  44.705  40.820   8.550
 5140POPC   D2A25768  44.634  40.785   8.250
 5140POPC   C3A25769  44.635  40.800   7.950
 5140POPC   C4A25770  44.674  40.745   7.650
 5140POPC   C1B25771  44.402  40.788   8.550
 5140POPC   C2B25772  44.370  40.796   8.250
 5140POPC   C3B25773  44.415  40.804   7.950
 5140POPC   C4B25774  44.459  40.779   7.650
 5141POPC   NC325775  12.875  16.724   9.450
 5141POPC   PO425776  12.811  16.741   9.150
 5141POPC   GL125777  12.855  16.704   8.850
 5141POPC   GL225778  12.814  16.859   8.850
 5141POPC   C1A25779  12.854  16.771   8.550
 5141POPC   D2A25780  12.840  16.772   8.250
 5141POPC   C3A25781  12.848  16.747   7.950
 5141POPC   C4A25782  12.899  16.721   7.650
 5141POPC   C1B25783  12.718  16.973   8.550
 5141POPC   C2B25784  12.745  16.991   8.250
 5141POPC   C3B25785  12.782  16.979   7.950
 5141POPC   C4B25786  12.781  16.951   7.650
 5142POPC   NC325787  33.046  10.567   9.450
 5142POPC   PO425788  33.023  10.498   9.150
 5142POPC   GL125789  33.066  10.520   8.850
 5142POPC   GL225790  33.131  10.496   8.850
 5142POPC   C1A25791  33.014  10.538   8.550
 5142POPC   D2A25792  33.022  10.568   8.250
 5142POPC   C3A25793  33.043  10.499   7.950
 5142POPC   C4A25794  33.073  10.560   7.650
 5142POPC   C1B25795  33.295  10.554   8.550
 5142POPC   C2B25796  33.276  10.547   8.250
 5142POPC   C3B25797  33.300  10.527   7.950
 5142POPC   C4B25798  33.283  10.613   7.650
 5143POPC   NC325799  26.792  31.511   9.450
 5143POPC   PO425800  26.791  31.502   9.150
 5143POPC   GL125801  26.795  31.483   8.850
 5143POPC   GL225802  26.870  31.577   8.850
 5143POPC   C1A25803  26.772  31.427   8.550
 5143POPC   D2A25804  26.773  31.480   8.250
 5143POPC   C3A25805  26.821  31.425   7.950
 5143POPC   C4A25806  26.785  31.506   7.650
 5143POPC   C1B25807  26.860  31.711   8.550
 5143POPC   C2B25808  26.835  31.735   8.250
 5143POPC   C3B25809  26.801  31.754   7.950
 5143POPC   C4B25810  26.872  31.684   7.650
 5144POPC   NC325811   8.940  16.736   9.450
 5144POPC   PO425812   8.977  16.743   9.150
 5144POPC   GL125813   8.945  16.722   8.850
 5144POPC   GL225814   8.975  16.877   8.850
 5144POPC   C1A25815   8.996  16.762   8.550
 5144POPC   D2A25816   8.996  16.701   8.250
 5144POPC   C3A25817   8.971  16.702   7.950
 5144POPC   C4A25818   9.015  16.709   7.650
 5144POPC   C1B25819   8.920  16.987   8.550
 5144POPC   C2B25820   8.889  17.011   8.250
 5144POPC   C3B25821   8.964  16.939   7.950
 5144POPC   C4B25822   8.896  16.971   7.650
 5145POPC   NC325823   7.428  44.681   9.450
 5145POPC   PO425824   7.395  44.691   9.150
 5145POPC   GL125825   7.460  44.631   8.850
 5145POPC   GL225826   7.492  44.769   8.850
 5145POPC   C1A25827   7.471  44.642   8.550
 5145POPC   D2A25828   7.421  44.664   8.250
 5145POPC   C3A25829   7.411  44.687   7.950
 5145POPC   C4A25830   7.394  44.701   7.650
 5145POPC   C1B25831   7.612  44.849   8.550
 5145POPC   C2B25832   7.546  44.835   8.250
 5145POPC   C3B25833   7.575  44.874   7.950
 5145POPC   C4B25834   7.576  44.816   7.650
 5146POPC   NC325835  23.729  22.891   9.450
 5146POPC   PO425836  23.730  22.938   9.150
 5146POPC   GL125837  23.706  22.912   8.850
 5146POPC   GL225838  23.733  22.836   8.850
 5146POPC   C1A25839  23.680  22.891   8.550
 5146POPC   D2A25840  23.693  22.972   8.250
 5146POPC   C3A25841  23.752  22.986   7.950
 5146POPC   C4A25842  23.721  22.891   7.650
 5146POPC   C1B25843  23.690  22.665   8.550
 5146POPC   C2B25844  23.676  22.739   8.250
 5146POPC   C3B25845  23.637  22.693   7.950
 5146POPC   C4B25846  23.678  22.744   7.650
 5147POPC   NC325847  33.826  40.051   9.450
 5147POPC   PO425848  33.803  39.981   9.150
 5147POPC   GL125849  33.831  39.996   8.850
 5147POPC   GL225850  33.896  39.951   8.850
 5147POPC   C1A25851  33.766  39.978   8.550
 5147POPC   D2A25852  33.771  40.010   8.250
 5147POPC   C3A25853  33.787  40.027   7.950
 5147POPC   C4A25854  33.836  40.021   7.650
 5147POPC   C1B25855  34.014  39.846   8.550
 5147POPC   C2B25856  34.019  39.857   8.250
 5147POPC   C3B25857  34.061  39.930   7.950
 5147POPC   C4B25858  34.047  39.879   7.650
 5148POPC   NC325859  43.912  18.241   9.450
 5148POPC   PO425860  43.935  18.283   9.150
 5148POPC   GL125861  43.892  18.305   8.850
 5148POPC   GL225862  43.753  18.191   8.850
 5148POPC   C1A25863  43.888  18.323   8.550
 5148POPC   D2A25864  43.850  18.236   8.250
 5148POPC   C3A25865  43.860  18.259   7.950
 5148POPC   C4A25866  43.925  18.288   7.650
 5148POPC   C1B25867  43.714  18.081   8.550
 5148POPC   C2B25868  43.747  18.104   8.250
 5148POPC   C3B25869  43.668  18.096   7.950
 5148POPC   C4B25870  43.731  18.073   7.650
 5149POPC   NC325871  29.935   5.905   9.450
 5149POPC   PO425872  29.928   5.900   9.150
 5149POPC   GL125873  29.941   5.848   8.850
 5149POPC   GL225874  29.952   5.722   8.850
 5149POPC   C1A25875  29.874   5.839   8.550
 5149POPC   D2A25876  29.931   5.820   8.250
 5149POPC   C3A25877  29.898   5.843   7.950
 5149POPC   C4A25878  29.907   5.916   7.650
 5149POPC   C1B25879  30.080   5.631   8.550
 5149POPC   C2B25880  30.041   5.656   8.250
 5149POPC   C3B25881  30.093   5.667   7.950
 5149POPC   C4B25882  30.066   5.668   7.650
 5150POPC   NC325883   7.431   9.753   9.450
 5150POPC   PO425884   7.388   9.798   9.150
 5150POPC   GL125885   7.434   9.703   8.850
 5150POPC   GL225886   7.393   9.605   8.850
 5150POPC   C1A25887   7.447   9.740   8.550
 5150POPC   D2A25888   7.441   9.771   8.250
 5150POPC   C3A25889   7.398   9.794   7.950
 5150POPC   C4A25890   7.382   9.793   7.650
 5150POPC   C1B25891   7.443   9.501   8.550
 5150POPC   C2B25892   7.427   9.550   8.250
 5150POPC   C3B25893   7.417   9.461   7.950
 5150POPC   C4B25894   7.419   9.467   7.650
 5151POPC   NC325895  22.926  32.221   9.450
 5151POPC   PO425896  22.896  32.286   9.150
 5151POPC   GL125897  22.962  32.204   8.850
 5151POPC   GL225898  22.929  32.418   8.850
 5151POPC   C1A25899  22.925  32.204   8.550
 5151POPC   D2A25900  22.963  32.208   8.250
 5151POPC   C3A25901  22.918  32.209   7.950
 5151POPC   C4A25902  22.963  32.273   7.650
 5151POPC   C1B25903  22.965  32.506   8.550
 5151POPC   C2B25904  23.014  32.471   8.250
 5151POPC   C3B25905  23.019  32.541   7.950
 5151POPC   C4B25906  22.984  32.469   7.650
 5152POPC   NC325907  11.257  14.407   9.450
 5152POPC   PO425908  11.326  14.403   9.150
 5152POPC   GL125909  11.261  14.392   8.850
 5152POPC   GL225910  11.365  14.317   8.850
 5152POPC   C1A25911  11.263  14.423   8.550
 5152POPC   D2A25912  11.266  14.395   8.250
 5152POPC   C3A25913  11.345  14.364   7.950
 5152POPC   C4A25914  11.317  14.421   7.650
 5152POPC   C1B25915  11.356  14.192   8.550
 5152POPC   C2B25916  11.418  14.166   8.250
 5152POPC   C3B25917  11.343  14.168   7.950
 5152POPC   C4B25918  11.439  14.134   7.650
 5153POPC   NC325919  40.807   5.125   9.450
 5153POPC   PO425920  40.781   5.051   9.150
 5153POPC   GL125921  40.784   5.082   8.850
 5153POPC   GL225922  40.749   5.012   8.850
 5153POPC   C1A25923  40.796   5.050   8.550
 5153POPC   D2A25924  40.783   5.061   8.250
 5153POPC   C3A25925  40.802   5.072   7.950
 5153POPC   C4A25926  40.745   5.103   7.650
 5153POPC   C1B25927  40.637   4.893   8.550
 5153POPC   C2B25928  40.651   4.934   8.250
 5153POPC   C3B25929  40.600   4.914   7.950
 5153POPC   C4B25930  40.622   4.865   7.650
 5154POPC   NC325931  29.936  36.126   9.450
 5154POPC   PO425932  29.929  36.117   9.150
 5154POPC   GL125933  29.969  36.149   8.850
 5154POPC   GL225934  30.030  36.086   8.850
 5154POPC   C1A25935  29.971  36.144   8.550
 5154POPC   D2A25936  29.961  36.115   8.250
 5154POPC   C3A25937  29.938  36.098   7.950
 5154POPC   C4A25938  29.952  36.119   7.650
 5154POPC   C1B25939  30.132  36.114   8.550
 5154POPC   C2B25940  30.142  36.160   8.250
 5154POPC   C3B25941  30.149  36.094   7.950
 5154POPC   C4B25942  30.207  36.142   7.650
 5155POPC   NC325943  36.109  27.558   9.450
 5155POPC   PO425944  36.161  27.575   9.150
 5155POPC   GL125945  36.085  27.638   8.850
 5155POPC   GL225946  35.961  27.665   8.850
 5155POPC   C1A25947  36.109  27.555   8.550
 5155POPC   D2A25948  36.131  27.568   8.250
 5155POPC   C3A25949  36.120  27.624   7.950
 5155POPC   C4A25950  36.126  27.586   7.650
 5155POPC   C1B25951  35.904  27.724   8.550
 5155POPC   C2B25952  35.883  27.673   8.250
 5155POPC   C3B25953  35.854  27.672   7.950
 5155POPC   C4B25954  35.894  27.666   7.650
 5156POPC   NC325955  20.622  22.889   9.450
 5156POPC   PO425956  20.593  22.956   9.150
 5156POPC   GL125957  20.635  22.925   8.850
 5156POPC   GL225958  20.744  22.919   8.850
 5156POPC   C1A25959  20.586  22.973   8.550
 5156POPC   D2A25960  20.564  22.987   8.250
 5156POPC   C3A25961  20.631  22.946   7.950
 5156POPC   C4A25962  20.584  22.982   7.650
 5156POPC   C1B25963  20.807  22.882   8.550
 5156POPC   C2B25964  20.849  22.836   8.250
 5156POPC   C3B25965  20.871  22.874   7.950
 5156POPC   C4B25966  20.852  22.829   7.650
 5157POPC   NC325967   2.767  30.654   9.450
 5157POPC   PO425968   2.732  30.703   9.150
 5157POPC   GL125969   2.810  30.746   8.850
 5157POPC   GL225970   2.860  30.711   8.850
 5157POPC   C1A25971   2.771  30.653   8.550
 5157POPC   D2A25972   2.803  30.658   8.250
 5157POPC   C3A25973   2.772  30.690   7.950
 5157POPC   C4A25974   2.723  30.743   7.650
 5157POPC   C1B25975   3.040  30.758   8.550
 5157POPC   C2B25976   2.961  30.805   8.250
 5157POPC   C3B25977   3.022  30.762   7.950
 5157POPC   C4B25978   3.022  30.800   7.650
 5158POPC   NC325979  23.671  15.203   9.450
 5158POPC   PO425980  23.727  15.155   9.150
 5158POPC   GL125981  23.724  15.169   8.850
 5158POPC   GL225982  23.575  15.230   8.850
 5158POPC   C1A25983  23.715  15.131   8.550
 5158POPC   D2A25984  23.704  15.149   8.250
 5158POPC   C3A25985  23.723  15.207   7.950
 5158POPC   C4A25986  23.686  15.202   7.650
 5158POPC   C1B25987  23.450  15.325   8.550
 5158POPC   C2B25988  23.526  15.238   8.250
 5158POPC   C3B25989  23.510  15.236   7.950
 5158POPC   C4B25990  23.502  15.303   7.650
 5159POPC   NC325991  18.244   7.401   9.450
 5159POPC   PO425992  18.268   7.422   9.150
 5159POPC   GL125993  18.247   7.392   8.850
 5159POPC   GL225994  18.212   7.284   8.850
 5159POPC   C1A25995  18.244   7.410   8.550
 5159POPC   D2A25996  18.285   7.427   8.250
 5159POPC   C3A25997  18.287   7.420   7.950
 5159POPC   C4A25998  18.324   7.445   7.650
 5159POPC   C1B25999  18.128   7.238   8.550
 5159POPC   C2B26000  18.122   7.269   8.250
 5159POPC   C3B26001  18.081   7.224   7.950
 5159POPC   C4B26002  18.090   7.186   7.650
 5160POPC   NC326003  25.253   1.260   9.450
 5160POPC   PO426004  25.262   1.245   9.150
 5160POPC   GL126005  25.314   1.229   8.850
 5160POPC   GL226006  25.196   1.267   8.850
 5160POPC   C1A26007  25.311   1.214   8.550
 5160POPC   D2A26008  25.225   1.226   8.250
 5160POPC   C3A26009  25.227   1.166   7.950
 5160POPC   C4A26010  25.266   1.213   7.650
 5160POPC   C1B26011  25.004   1.245   8.550
 5160POPC   C2B26012  25.050   1.244   8.250
 5160POPC   C3B26013  24.985   1.326   7.950
 5160POPC   C4B26014  24.984   1.243   7.650
 5161POPC   NC326015   1.179  22.123   9.450
 5161POPC   PO426016   1.190  22.115   9.150
 5161POPC   GL126017   1.249  22.179   8.850
 5161POPC   GL226018   1.337  22.209   8.850
 5161POPC   C1A26019   1.234  22.165   8.550
 5161POPC   D2A26020   1.210  22.168   8.250
 5161POPC   C3A26021   1.182  22.153   7.950
 5161POPC   C4A26022   1.256  22.131   7.650
 5161POPC   C1B26023   1.356  22.306   8.550
 5161POPC   C2B26024   1.396  22.289   8.250
 5161POPC   C3B26025   1.431  22.369   7.950
 5161POPC   C4B26026   1.413  22.321   7.650
 5162POPC   NC326027  27.614  22.915   9.450
 5162POPC   PO426028  27.605  22.932   9.150
 5162POPC   GL126029  27.637  22.892   8.850
 5162POPC   GL226030  27.717  22.989   8.850
 5162POPC   C1A26031  27.574  22.940   8.550
 5162POPC   D2A26032  27.560  22.964   8.250
 5162POPC   C3A26033  27.570  22.973   7.950
 5162POPC   C4A26034  27.636  22.926   7.650
 5162POPC   C1B26035  27.869  23.003   8.550
 5162POPC   C2B26036  27.812  22.947   8.250
 5162POPC   C3B26037  27.832  22.954   7.950
 5162POPC   C4B26038  27.840  22.934   7.650
 5163POPC   NC326039  38.480  10.504   9.450
 5163POPC   PO426040  38.493  10.553   9.150
 5163POPC   GL126041  38.416  10.493   8.850
 5163POPC   GL226042  38.563  10.583   8.850
 5163POPC   C1A26043  38.460  10.478   8.550
 5163POPC   D2A26044  38.465  10.488   8.250
 5163POPC   C3A26045  38.503  10.547   7.950
 5163POPC   C4A26046  38.489  10.565   7.650
 5163POPC   C1B26047  38.619  10.737   8.550
 5163POPC   C2B26048  38.573  10.704   8.250
 5163POPC   C3B26049  38.555  10.746   7.950
 5163POPC   C4B26050  38.636  10.681   7.650
 5164POPC   NC326051  25.246   9.779   9.450
 5164POPC   PO426052  25.270   9.699   9.150
 5164POPC   GL126053  25.294   9.796   8.850
 5164POPC   GL226054  25.380   9.786   8.850
 5164POPC   C1A26055  25.285   9.704   8.550
 5164POPC   D2A26056  25.245   9.718   8.250
 5164POPC   C3A26057  25.312   9.747   7.950
 5164POPC   C4A26058  25.224   9.775   7.650
 5164POPC   C1B26059  25.542   9.770   8.550
 5164POPC   C2B26060  25.490   9.828   8.250
 5164POPC   C3B26061  25.482   9.851   7.950
 5164POPC   C4B26062  25.515   9.828   7.650
 5165POPC   NC326063   5.896  26.771   9.450
 5165POPC   PO426064   5.864  26.800   9.150
 5165POPC   GL126065   5.855  26.817   8.850
 5165POPC   GL226066   6.024  26.731   8.850
 5165POPC   C1A26067   5.884  26.769   8.550
 5165POPC   D2A26068   5.902  26.821   8.250
 5165POPC   C3A26069   5.885  26.851   7.950
 5165POPC   C4A26070   5.896  26.773   7.650
 5165POPC   C1B26071   6.104  26.716   8.550
 5165POPC   C2B26072   6.122  26.668   8.250
 5165POPC   C3B26073   6.145  26.727   7.950
 5165POPC   C4B26074   6.138  26.674   7.650
 5166POPC   NC326075  26.836  36.899   9.450
 5166POPC   PO426076  26.805  36.892   9.150
 5166POPC   GL126077  26.822  36.948   8.850
 5166POPC   GL226078  26.866  36.768   8.850
 5166POPC   C1A26079  26.771  36.877   8.550
 5166POPC   D2A26080  26.861  36.914   8.250
 5166POPC   C3A26081  26.778  36.872   7.950
 5166POPC   C4A26082  26.864  36.895   7.650
 5166POPC   C1B26083  26.953  36.673   8.550
 5166POPC   C2B26084  27.008  36.758   8.250
 5166POPC   C3B26085  26.951  36.719   7.950
 5166POPC   C4B26086  26.946  36.734   7.650
 5167POPC   NC326087  38.413  17.491   9.450
 5167POPC   PO426088  38.497  17.549   9.150
 5167POPC   GL126089  38.472  17.506   8.850
 5167POPC   GL226090  38.302  17.529   8.850
 5167POPC   C1A26091  38.470  17.533   8.550
 5167POPC   D2A26092  38.457  17.506   8.250
 5167POPC   C3A26093  38.421  17.552   7.950
 5167POPC   C4A26094  38.482  17.490   7.650
 5167POPC   C1B26095  38.214  17.622   8.550
 5167POPC   C2B26096  38.215  17.649   8.250
 5167POPC   C3B26097  38.273  17.634   7.950
 5167POPC   C4B26098  38.253  17.597   7.650
 5168POPC   NC326099  33.048  25.307   9.450
 5168POPC   PO426100  33.017  25.281   9.150
 5168POPC   GL126101  33.043  25.218   8.850
 5168POPC   GL226102  33.178  25.212   8.850
 5168POPC   C1A26103  33.067  25.239   8.550
 5168POPC   D2A26104  32.991  25.313   8.250
 5168POPC   C3A26105  32.990  25.277   7.950
 5168POPC   C4A26106  33.067  25.300   7.650
 5168POPC   C1B26107  33.194  25.167   8.550
 5168POPC   C2B26108  33.206  25.158   8.250
 5168POPC   C3B26109  33.247  25.109   7.950
 5168POPC   C4B26110  33.216  25.093   7.650
 5169POPC   NC326111  34.531  12.070   9.450
 5169POPC   PO426112  34.616  12.037   9.150
 5169POPC   GL126113  34.620  12.079   8.850
 5169POPC   GL226114  34.696  12.026   8.850
 5169POPC   C1A26115  34.610  12.080   8.550
 5169POPC   D2A26116  34.608  12.038   8.250
 5169POPC   C3A26117  34.587  12.052   7.950
 5169POPC   C4A26118  34.536  12.047   7.650
 5169POPC   C1B26119  34.745  11.838   8.550
 5169POPC   C2B26120  34.705  11.926   8.250
 5169POPC   C3B26121  34.688  11.934   7.950
 5169POPC   C4B26122  34.733  11.877   7.650
 5170POPC   NC326123   3.578  15.974   9.450
 5170POPC   PO426124   3.531  15.954   9.150
 5170POPC   GL126125   3.523  15.980   8.850
 5170POPC   GL226126   3.553  16.047   8.850
 5170POPC   C1A26127   3.515  15.906   8.550
 5170POPC   D2A26128   3.566  15.938   8.250
 5170POPC   C3A26129   3.492  15.960   7.950
 5170POPC   C4A26130   3.499  15.980   7.650
 5170POPC   C1B26131   3.493  16.188   8.550
 5170POPC   C2B26132   3.487  16.219   8.250
 5170POPC   C3B26133   3.514  16.191   7.950
 5170POPC   C4B26134   3.498  16.190   7.650
 5171POPC   NC326135  23.706  26.840   9.450
 5171POPC   PO426136  23.702  26.862   9.150
 5171POPC   GL126137  23.735  26.839   8.850
 5171POPC   GL226138  23.711  26.650   8.850
 5171POPC   C1A26139  23.698  26.843   8.550
 5171POPC   D2A26140  23.751  26.790   8.250
 5171POPC   C3A26141  23.674  26.798   7.950
 5171POPC   C4A26142  23.750  26.855   7.650
 5171POPC   C1B26143  23.780  26.532   8.550
 5171POPC   C2B26144  23.745  26.581   8.250
 5171POPC   C3B26145  23.753  26.555   7.950
 5171POPC   C4B26146  23.742  26.562   7.650
 5172POPC   NC326147   9.771  20.635   9.450
 5172POPC   PO426148   9.785  20.583   9.150
 5172POPC   GL126149   9.712  20.579   8.850
 5172POPC   GL226150   9.647  20.649   8.850
 5172POPC   C1A26151   9.734  20.628   8.550
 5172POPC   D2A26152   9.734  20.595   8.250
 5172POPC   C3A26153   9.741  20.636   7.950
 5172POPC   C4A26154   9.759  20.569   7.650
 5172POPC   C1B26155   9.502  20.750   8.550
 5172POPC   C2B26156   9.501  20.756   8.250
 5172POPC   C3B26157   9.543  20.762   7.950
 5172POPC   C4B26158   9.556  20.753   7.650
 5173POPC   NC326159  39.223  19.855   9.450
 5173POPC   PO426160  39.256  19.874   9.150
 5173POPC   GL126161  39.219  19.848   8.850
 5173POPC   GL226162  39.134  19.908   8.850
 5173POPC   C1A26163  39.280  19.811   8.550
 5173POPC   D2A26164  39.231  19.799   8.250
 5173POPC   C3A26165  39.214  19.813   7.950
 5173POPC   C4A26166  39.270  19.791   7.650
 5173POPC   C1B26167  39.024  20.030   8.550
 5173POPC   C2B26168  39.030  19.988   8.250
 5173POPC   C3B26169  39.094  19.990   7.950
 5173POPC   C4B26170  39.060  20.015   7.650
 5174POPC   NC326171   7.386  32.200   9.450
 5174POPC   PO426172   7.387  32.291   9.150
 5174POPC   GL126173   7.423  32.255   8.850
 5174POPC   GL226174   7.562  32.270   8.850
 5174POPC   C1A26175   7.399  32.201   8.550
 5174POPC   D2A26176   7.444  32.227   8.250
 5174POPC   C3A26177   7.419  32.242   7.950
 5174POPC   C4A26178   7.373  32.282   7.650
 5174POPC   C1B26179   7.625  32.280   8.550
 5174POPC   C2B26180   7.653  32.322   8.250
 5174POPC   C3B26181   7.684  32.312   7.950
 5174POPC   C4B26182   7.648  32.308   7.650
 5175POPC   NC326183  24.459  33.028   9.450
 5175POPC   PO426184  24.500  33.061   9.150
 5175POPC   GL126185  24.520  33.071   8.850
 5175POPC   GL226186  24.423  32.989   8.850
 5175POPC   C1A26187  24.511  33.008   8.550
 5175POPC   D2A26188  24.465  32.980   8.250
 5175POPC   C3A26189  24.502  33.059   7.950
 5175POPC   C4A26190  24.469  33.047   7.650
 5175POPC   C1B26191  24.265  32.887   8.550
 5175POPC   C2B26192  24.290  32.867   8.250
 5175POPC   C3B26193  24.283  32.906   7.950
 5175POPC   C4B26194  24.304  32.843   7.650
 5176POPC   NC326195  15.141  36.872   9.450
 5176POPC   PO426196  15.179  36.889   9.150
 5176POPC   GL126197  15.194  36.927   8.850
 5176POPC   GL226198  15.265  36.800   8.850
 5176POPC   C1A26199  15.219  36.937   8.550
 5176POPC   D2A26200  15.181  36.893   8.250
 5176POPC   C3A26201  15.191  36.877   7.950
 5176POPC   C4A26202  15.145  36.948   7.650
 5176POPC   C1B26203  15.277  36.679   8.550
 5176POPC   C2B26204  15.232  36.682   8.250
 5176POPC   C3B26205  15.250  36.652   7.950
 5176POPC   C4B26206  15.238  36.695   7.650
 5177POPC   NC326207  34.613  15.940   9.450
 5177POPC   PO426208  34.541  15.994   9.150
 5177POPC   GL126209  34.531  15.916   8.850
 5177POPC   GL226210  34.495  15.883   8.850
 5177POPC   C1A26211  34.542  15.922   8.550
 5177POPC   D2A26212  34.593  15.976   8.250
 5177POPC   C3A26213  34.589  15.908   7.950
 5177POPC   C4A26214  34.527  15.953   7.650
 5177POPC   C1B26215  34.545  15.676   8.550
 5177POPC   C2B26216  34.488  15.731   8.250
 5177POPC   C3B26217  34.524  15.725   7.950
 5177POPC   C4B26218  34.517  15.691   7.650
 5178POPC   NC326219  19.105  26.779   9.450
 5178POPC   PO426220  19.037  26.841   9.150
 5178POPC   GL126221  19.101  26.834   8.850
 5178POPC   GL226222  18.941  26.729   8.850
 5178POPC   C1A26223  19.092  26.772   8.550
 5178POPC   D2A26224  19.096  26.796   8.250
 5178POPC   C3A26225  19.096  26.782   7.950
 5178POPC   C4A26226  19.089  26.858   7.650
 5178POPC   C1B26227  18.869  26.702   8.550
 5178POPC   C2B26228  18.811  26.708   8.250
 5178POPC   C3B26229  18.813  26.658   7.950
 5178POPC   C4B26230  18.851  26.709   7.650
 5179POPC   NC326231  16.003  29.901   9.450
 5179POPC   PO426232  15.997  29.964   9.150
 5179POPC   GL126233  15.907  29.912   8.850
 5179POPC   GL226234  15.952  30.054   8.850
 5179POPC   C1A26235  15.937  29.890   8.550
 5179POPC   D2A26236  15.939  29.919   8.250
 5179POPC   C3A26237  15.919  29.967   7.950
 5179POPC   C4A26238  15.971  29.897   7.650
 5179POPC   C1B26239  15.850  30.196   8.550
 5179POPC   C2B26240  15.869  30.131   8.250
 5179POPC   C3B26241  15.816  30.186   7.950
 5179POPC   C4B26242  15.825  30.141   7.650
 5180POPC   NC326243  39.226  28.401   9.450
 5180POPC   PO426244  39.195  28.334   9.150
 5180POPC   GL126245  39.219  28.359   8.850
 5180POPC   GL226246  39.212  28.513   8.850
 5180POPC   C1A26247  39.239  28.367   8.550
 5180POPC   D2A26248  39.214  28.324   8.250
 5180POPC   C3A26249  39.197  28.339   7.950
 5180POPC   C4A26250  39.202  28.389   7.650
 5180POPC   C1B26251  39.153  28.630   8.550
 5180POPC   C2B26252  39.155  28.582   8.250
 5180POPC   C3B26253  39.205  28.574   7.950
 5180POPC   C4B26254  39.173  28.635   7.650
 5181POPC   NC326255  28.337  15.979   9.450
 5181POPC   PO426256  28.392  15.962   9.150
 5181POPC   GL126257  28.416  15.959   8.850
 5181POPC   GL226258  28.501  15.959   8.850
 5181POPC   C1A26259  28.347  15.976   8.550
 5181POPC   D2A26260  28.335  15.979   8.250
 5181POPC   C3A26261  28.373  15.976   7.950
 5181POPC   C4A26262  28.347  16.001   7.650
 5181POPC   C1B26263  28.634  16.097   8.550
 5181POPC   C2B26264  28.587  16.019   8.250
 5181POPC   C3B26265  28.601  16.067   7.950
 5181POPC   C4B26266  28.568  16.040   7.650
 5182POPC   NC326267   4.344   8.938   9.450
 5182POPC   PO426268   4.308   8.985   9.150
 5182POPC   GL126269   4.320   8.994   8.850
 5182POPC   GL226270   4.256   8.892   8.850
 5182POPC   C1A26271   4.276   8.965   8.550
 5182POPC   D2A26272   4.289   8.926   8.250
 5182POPC   C3A26273   4.339   9.020   7.950
 5182POPC   C4A26274   4.336   8.975   7.650
 5182POPC   C1B26275   4.127   8.791   8.550
 5182POPC   C2B26276   4.191   8.774   8.250
 5182POPC   C3B26277   4.146   8.790   7.950
 5182POPC   C4B26278   4.163   8.815   7.650
 5183POPC   NC326279  14.362   4.366   9.450
 5183POPC   PO426280  14.428   4.319   9.150
 5183POPC   GL126281  14.427   4.310   8.850
 5183POPC   GL226282  14.468   4.361   8.850
 5183POPC   C1A26283  14.447   4.320   8.550
 5183POPC   D2A26284  14.418   4.315   8.250
 5183POPC   C3A26285  14.367   4.353   7.950
 5183POPC   C4A26286  14.442   4.343   7.650
 5183POPC   C1B26287  14.567   4.510   8.550
 5183POPC   C2B26288  14.532   4.510   8.250
 5183POPC   C3B26289  14.564   4.455   7.950
 5183POPC   C4B26290  14.583   4.528   7.650
 5184POPC   NC326291  21.380  41.586   9.450
 5184POPC   PO426292  21.426  41.531   9.150
 5184POPC   GL126293  21.380  41.532   8.850
 5184POPC   GL226294  21.394  41.485   8.850
 5184POPC   C1A26295  21.427  41.588   8.550
 5184POPC   D2A26296  21.368  41.597   8.250
 5184POPC   C3A26297  21.355  41.519   7.950
 5184POPC   C4A26298  21.387  41.601   7.650
 5184POPC   C1B26299  21.478  41.317   8.550
 5184POPC   C2B26300  21.443  41.305   8.250
 5184POPC   C3B26301  21.413  41.353   7.950
 5184POPC   C4B26302  21.486  41.347   7.650
 5185POPC   NC326303  36.898  37.713   9.450
 5185POPC   PO426304  36.923  37.699   9.150
 5185POPC   GL126305  36.867  37.703   8.850
 5185POPC   GL226306  37.061  37.675   8.850
 5185POPC   C1A26307  36.855  37.679   8.550
 5185POPC   D2A26308  36.921  37.697   8.250
 5185POPC   C3A26309  36.874  37.632   7.950
 5185POPC   C4A26310  36.894  37.637   7.650
 5185POPC   C1B26311  37.167  37.762   8.550
 5185POPC   C2B26312  37.187  37.714   8.250
 5185POPC   C3B26313  37.126  37.800   7.950
 5185POPC   C4B26314  37.136  37.774   7.650
 5186POPC   NC326315  18.296   2.810   9.450
 5186POPC   PO426316  18.303   2.752   9.150
 5186POPC   GL126317  18.250   2.811   8.850
 5186POPC   GL226318  18.317   2.663   8.850
 5186POPC   C1A26319  18.300   2.746   8.550
 5186POPC   D2A26320  18.247   2.732   8.250
 5186POPC   C3A26321  18.319   2.763   7.950
 5186POPC   C4A26322  18.267   2.717   7.650
 5186POPC   C1B26323  18.356   2.583   8.550
 5186POPC   C2B26324  18.404   2.506   8.250
 5186POPC   C3B26325  18.448   2.502   7.950
 5186POPC   C4B26326  18.376   2.499   7.650
 5187POPC   NC326327  11.276  23.722   9.450
 5187POPC   PO426328  11.274  23.682   9.150
 5187POPC   GL126329  11.257  23.690   8.850
 5187POPC   GL226330  11.444  23.757   8.850
 5187POPC   C1A26331  11.283  23.666   8.550
 5187POPC   D2A26332  11.348  23.704   8.250
 5187POPC   C3A26333  11.318  23.763   7.950
 5187POPC   C4A26334  11.275  23.742   7.650
 5187POPC   C1B26335  11.551  23.831   8.550
 5187POPC   C2B26336  11.552  23.826   8.250
 5187POPC   C3B26337  11.561  23.748   7.950
 5187POPC   C4B26338  11.525  23.789   7.650
 5188POPC   NC326339  19.791   8.239   9.450
 5188POPC   PO426340  19.810   8.163   9.150
 5188POPC   GL126341  19.842   8.233   8.850
 5188POPC   GL226342  19.918   8.175   8.850
 5188POPC   C1A26343  19.832   8.171   8.550
 5188POPC   D2A26344  19.787   8.173   8.250
 5188POPC   C3A26345  19.852   8.198   7.950
 5188POPC   C4A26346  19.874   8.171   7.650
 5188POPC   C1B26347  20.062   8.198   8.550
 5188POPC   C2B26348  20.116   8.201   8.250
 5188POPC   C3B26349  20.036   8.200   7.950
 5188POPC   C4B26350  20.083   8.199   7.650
 5189POPC   NC326351  29.960  28.357   9.450
 5189POPC   PO426352  29.910  28.328   9.150
 5189POPC   GL126353  29.905  28.337   8.850
 5189POPC   GL226354  29.775  28.321   8.850
 5189POPC   C1A26355  29.883  28.325   8.550
 5189POPC   D2A26356  29.933  28.321   8.250
 5189POPC   C3A26357  29.900  28.380   7.950
 5189POPC   C4A26358  29.874  28.399   7.650
 5189POPC   C1B26359  29.722  28.276   8.550
 5189POPC   C2B26360  29.714  28.318   8.250
 5189POPC   C3B26361  29.704  28.225   7.950
 5189POPC   C4B26362  29.736  28.272   7.650
 5190POPC   NC326363  31.499  28.410   9.450
 5190POPC   PO426364  31.449  28.348   9.150
 5190POPC   GL126365  31.467  28.404   8.850
 5190POPC   GL226366  31.340  28.276   8.850
 5190POPC   C1A26367  31.507  28.348   8.550
 5190POPC   D2A26368  31.470  28.409   8.250
 5190POPC   C3A26369  31.511  28.418   7.950
 5190POPC   C4A26370  31.470  28.377   7.650
 5190POPC   C1B26371  31.206  28.300   8.550
 5190POPC   C2B26372  31.246  28.237   8.250
 5190POPC   C3B26373  31.222  28.308   7.950
 5190POPC   C4B26374  31.272  28.241   7.650
 5191POPC   NC326375  29.100  27.561   9.450
 5191POPC   PO426376  29.193  27.544   9.150
 5191POPC   GL126377  29.142  27.561   8.850
 5191POPC   GL226378  29.034  27.712   8.850
 5191POPC   C1A26379  29.111  27.578   8.550
 5191POPC   D2A26380  29.125  27.567   8.250
 5191POPC   C3A26381  29.184  27.569   7.950
 5191POPC   C4A26382  29.160  27.580   7.650
 5191POPC   C1B26383  28.967  27.828   8.550
 5191POPC   C2B26384  28.992  27.829   8.250
 5191POPC   C3B26385  28.960  27.781   7.950
 5191POPC   C4B26386  29.002  27.770   7.650
 5192POPC   NC326387  43.155  10.484   9.450
 5192POPC   PO426388  43.157  10.499   9.150
 5192POPC   GL126389  43.121  10.569   8.850
 5192POPC   GL226390  43.140  10.645   8.850
 5192POPC   C1A26391  43.126  10.521   8.550
 5192POPC   D2A26392  43.125  10.546   8.250
 5192POPC   C3A26393  43.122  10.492   7.950
 5192POPC   C4A26394  43.121  10.503   7.650
 5192POPC   C1B26395  43.191  10.776   8.550
 5192POPC   C2B26396  43.222  10.762   8.250
 5192POPC   C3B26397  43.177  10.749   7.950
 5192POPC   C4B26398  43.211  10.783   7.650
 5193POPC   NC326399  12.112   5.856   9.450
 5193POPC   PO426400  12.091   5.873   9.150
 5193POPC   GL126401  12.097   5.836   8.850
 5193POPC   GL226402  12.056   5.710   8.850
 5193POPC   C1A26403  12.112   5.888   8.550
 5193POPC   D2A26404  12.073   5.910   8.250
 5193POPC   C3A26405  12.055   5.889   7.950
 5193POPC   C4A26406  12.108   5.901   7.650
 5193POPC   C1B26407  11.981   5.616   8.550
 5193POPC   C2B26408  12.052   5.608   8.250
 5193POPC   C3B26409  12.057   5.636   7.950
 5193POPC   C4B26410  12.024   5.663   7.650
 5194POPC   NC326411  13.602  17.529   9.450
 5194POPC   PO426412  13.651  17.510   9.150
 5194POPC   GL126413  13.588  17.501   8.850
 5194POPC   GL226414  13.768  17.487   8.850
 5194POPC   C1A26415  13.666  17.466   8.550
 5194POPC   D2A26416  13.656  17.482   8.250
 5194POPC   C3A26417  13.668  17.536   7.950
 5194POPC   C4A26418  13.646  17.485   7.650
 5194POPC   C1B26419  13.817  17.413   8.550
 5194POPC   C2B26420  13.850  17.376   8.250
 5194POPC   C3B26421  13.809  17.422   7.950
 5194POPC   C4B26422  13.795  17.362   7.650
 5195POPC   NC326423  20.608  41.581   9.450
 5195POPC   PO426424  20.562  41.516   9.150
 5195POPC   GL126425  20.642  41.523   8.850
 5195POPC   GL226426  20.768  41.547   8.850
 5195POPC   C1A26427  20.588  41.549   8.550
 5195POPC   D2A26428  20.652  41.574   8.250
 5195POPC   C3A26429  20.585  41.588   7.950
 5195POPC   C4A26430  20.613  41.562   7.650
 5195POPC   C1B26431  20.840  41.431   8.550
 5195POPC   C2B26432  20.815  41.438   8.250
 5195POPC   C3B26433  20.785  41.411   7.950
 5195POPC   C4B26434  20.827  41.468   7.650
 5196POPC   NC326435  43.145  22.121   9.450
 5196POPC   PO426436  43.153  22.129   9.150
 5196POPC   GL126437  43.071  22.188   8.850
 5196POPC   GL226438  43.163  22.064   8.850
 5196POPC   C1A26439  43.105  22.181   8.550
 5196POPC   D2A26440  43.142  22.160   8.250
 5196POPC   C3A26441  43.079  22.135   7.950
 5196POPC   C4A26442  43.145  22.200   7.650
 5196POPC   C1B26443  43.284  22.015   8.550
 5196POPC   C2B26444  43.278  22.039   8.250
 5196POPC   C3B26445  43.338  22.040   7.950
 5196POPC   C4B26446  43.334  21.987   7.650
 5197POPC   NC326447   4.286  26.853   9.450
 5197POPC   PO426448   4.287  26.855   9.150
 5197POPC   GL126449   4.331  26.782   8.850
 5197POPC   GL226450   4.334  26.742   8.850
 5197POPC   C1A26451   4.356  26.827   8.550
 5197POPC   D2A26452   4.311  26.818   8.250
 5197POPC   C3A26453   4.289  26.795   7.950
 5197POPC   C4A26454   4.288  26.830   7.650
 5197POPC   C1B26455   4.374  26.577   8.550
 5197POPC   C2B26456   4.373  26.628   8.250
 5197POPC   C3B26457   4.415  26.587   7.950
 5197POPC   C4B26458   4.425  26.628   7.650
 5198POPC   NC326459  12.071   8.941   9.450
 5198POPC   PO426460  12.043   8.963   9.150
 5198POPC   GL126461  12.068   8.933   8.850
 5198POPC   GL226462  12.071   9.060   8.850
 5198POPC   C1A26463  12.055   8.964   8.550
 5198POPC   D2A26464  12.118   8.960   8.250
 5198POPC   C3A26465  12.100   9.000   7.950
 5198POPC   C4A26466  12.032   8.979   7.650
 5198POPC   C1B26467  12.086   9.266   8.550
 5198POPC   C2B26468  12.116   9.215   8.250
 5198POPC   C3B26469  12.132   9.183   7.950
 5198POPC   C4B26470  12.121   9.173   7.650
 5199POPC   NC326471   7.458  36.173   9.450
 5199POPC   PO426472   7.394  36.151   9.150
 5199POPC   GL126473   7.438  36.122   8.850
 5199POPC   GL226474   7.258  36.177   8.850
 5199POPC   C1A26475   7.430  36.125   8.550
 5199POPC   D2A26476   7.446  36.086   8.250
 5199POPC   C3A26477   7.388  36.094   7.950
 5199POPC   C4A26478   7.410  36.120   7.650
 5199POPC   C1B26479   7.200  36.143   8.550
 5199POPC   C2B26480   7.180  36.174   8.250
 5199POPC   C3B26481   7.141  36.163   7.950
 5199POPC   C4B26482   7.139  36.143   7.650
 5200POPC   NC326483   0.449  29.912   9.450
 5200POPC   PO426484   0.436  29.949   9.150
 5200POPC   GL126485   0.449  29.890   8.850
 5200POPC   GL226486   0.475  30.006   8.850
 5200POPC   C1A26487   0.404  29.889   8.550
 5200POPC   D2A26488   0.430  29.967   8.250
 5200POPC   C3A26489   0.428  29.872   7.950
 5200POPC   C4A26490   0.446  29.968   7.650
 5200POPC   C1B26491   0.427  30.154   8.550
 5200POPC   C2B26492   0.422  30.124   8.250
 5200POPC   C3B26493   0.431  30.139   7.950
 5200POPC   C4B26494   0.448  30.124   7.650
 5201POPC   NC326495  11.255   4.275   9.450
 5201POPC   PO426496  11.297   4.344   9.150
 5201POPC   GL126497  11.318   4.310   8.850
 5201POPC   GL226498  11.399   4.282   8.850
 5201POPC   C1A26499  11.311   4.323   8.550
 5201POPC   D2A26500  11.293   4.316   8.250
 5201POPC   C3A26501  11.337   4.301   7.950
 5201POPC   C4A26502  11.295   4.316   7.650
 5201POPC   C1B26503  11.512   4.364   8.550
 5201POPC   C2B26504  11.542   4.279   8.250
 5201POPC   C3B26505  11.546   4.339   7.950
 5201POPC   C4B26506  11.536   4.344   7.650
 5202POPC   NC326507  21.410  18.238   9.450
 5202POPC   PO426508  21.344  18.246   9.150
 5202POPC   GL126509  21.391  18.314   8.850
 5202POPC   GL226510  21.424  18.341   8.850
 5202POPC   C1A26511  21.356  18.238   8.550
 5202POPC   D2A26512  21.389  18.251   8.250
 5202POPC   C3A26513  21.400  18.287   7.950
 5202POPC   C4A26514  21.417  18.331   7.650
 5202POPC   C1B26515  21.531  18.450   8.550
 5202POPC   C2B26516  21.535  18.451   8.250
 5202POPC   C3B26517  21.511  18.472   7.950
 5202POPC   C4B26518  21.503  18.488   7.650
 5203POPC   NC326519  15.172  19.037   9.450
 5203POPC   PO426520  15.182  19.043   9.150
 5203POPC   GL126521  15.221  19.027   8.850
 5203POPC   GL226522  15.288  19.061   8.850
 5203POPC   C1A26523  15.173  19.094   8.550
 5203POPC   D2A26524  15.188  19.071   8.250
 5203POPC   C3A26525  15.160  19.055   7.950
 5203POPC   C4A26526  15.170  19.089   7.650
 5203POPC   C1B26527  15.380  19.164   8.550
 5203POPC   C2B26528  15.386  19.132   8.250
 5203POPC   C3B26529  15.433  19.147   7.950
 5203POPC   C4B26530  15.439  19.121   7.650
 5204POPC   NC326531  41.572   9.749   9.450
 5204POPC   PO426532  41.543   9.764   9.150
 5204POPC   GL126533  41.542   9.776   8.850
 5204POPC   GL226534  41.699   9.794   8.850
 5204POPC   C1A26535  41.542   9.754   8.550
 5204POPC   D2A26536  41.525   9.747   8.250
 5204POPC   C3A26537  41.566   9.735   7.950
 5204POPC   C4A26538  41.518   9.724   7.650
 5204POPC   C1B26539  41.748   9.863   8.550
 5204POPC   C2B26540  41.719   9.871   8.250
 5204POPC   C3B26541  41.705   9.872   7.950
 5204POPC   C4B26542  41.704   9.936   7.650
 5205POPC   NC326543  26.827   5.141   9.450
 5205POPC   PO426544  26.782   5.142   9.150
 5205POPC   GL126545  26.772   5.088   8.850
 5205POPC   GL226546  26.897   5.202   8.850
 5205POPC   C1A26547  26.773   5.106   8.550
 5205POPC   D2A26548  26.781   5.105   8.250
 5205POPC   C3A26549  26.857   5.096   7.950
 5205POPC   C4A26550  26.811   5.115   7.650
 5205POPC   C1B26551  27.015   5.264   8.550
 5205POPC   C2B26552  26.997   5.294   8.250
 5205POPC   C3B26553  26.960   5.318   7.950
 5205POPC   C4B26554  26.978   5.244   7.650
 5206POPC   NC326555  37.727  19.060   9.450
 5206POPC   PO426556  37.653  19.063   9.150
 5206POPC   GL126557  37.650  19.073   8.850
 5206POPC   GL226558  37.742  19.138   8.850
 5206POPC   C1A26559  37.629  19.049   8.550
 5206POPC   D2A26560  37.650  19.012   8.250
 5206POPC   C3A26561  37.694  19.096   7.950
 5206POPC   C4A26562  37.647  19.099   7.650
 5206POPC   C1B26563  37.882  19.164   8.550
 5206POPC   C2B26564  37.831  19.179   8.250
 5206POPC   C3B26565  37.886  19.206   7.950
 5206POPC   C4B26566  37.865  19.187   7.650
 5207POPC   NC326567   8.927  15.207   9.450
 5207POPC   PO426568   8.948  15.161   9.150
 5207POPC   GL126569   8.936  15.131   8.850
 5207POPC   GL226570   8.839  15.180   8.850
 5207POPC   C1A26571   8.979  15.151   8.550
 5207POPC   D2A26572   8.962  15.218   8.250
 5207POPC   C3A26573   8.968  15.172   7.950
 5207POPC   C4A26574   8.979  15.218   7.650
 5207POPC   C1B26575   8.766  15.136   8.550
 5207POPC   C2B26576   8.768  15.068   8.250
 5207POPC   C3B26577   8.755  15.066   7.950
 5207POPC   C4B26578   8.733  15.157   7.650
 5208POPC   NC326579  36.945   1.173   9.450
 5208POPC   PO426580  36.931   1.207   9.150
 5208POPC   GL126581  36.914   1.176   8.850
 5208POPC   GL226582  36.806   1.127   8.850
 5208POPC   C1A26583  36.897   1.182   8.550
 5208POPC   D2A26584  36.886   1.235   8.250
 5208POPC   C3A26585  36.912   1.165   7.950
 5208POPC   C4A26586  36.879   1.263   7.650
 5208POPC   C1B26587  36.806   1.037   8.550
 5208POPC   C2B26588  36.753   1.019   8.250
 5208POPC   C3B26589  36.769   1.050   7.950
 5208POPC   C4B26590  36.791   1.030   7.650
 5209POPC   NC326591  20.638  12.051   9.450
 5209POPC   PO426592  20.607  12.104   9.150
 5209POPC   GL126593  20.579  12.053   8.850
 5209POPC   GL226594  20.649  11.988   8.850
 5209POPC   C1A26595  20.562  12.069   8.550
 5209POPC   D2A26596  20.607  12.041   8.250
 5209POPC   C3A26597  20.625  12.076   7.950
 5209POPC   C4A26598  20.655  12.119   7.650
 5209POPC   C1B26599  20.766  11.844   8.550
 5209POPC   C2B26600  20.726  11.894   8.250
 5209POPC   C3B26601  20.696  11.877   7.950
 5209POPC   C4B26602  20.747  11.889   7.650
 5210POPC   NC326603  24.454  36.173   9.450
 5210POPC   PO426604  24.487  36.151   9.150
 5210POPC   GL126605  24.449  36.129   8.850
 5210POPC   GL226606  24.619  36.206   8.850
 5210POPC   C1A26607  24.465  36.121   8.550
 5210POPC   D2A26608  24.446  36.087   8.250
 5210POPC   C3A26609  24.441  36.107   7.950
 5210POPC   C4A26610  24.476  36.144   7.650
 5210POPC   C1B26611  24.667  36.237   8.550
 5210POPC   C2B26612  24.663  36.256   8.250
 5210POPC   C3B26613  24.734  36.289   7.950
 5210POPC   C4B26614  24.663  36.304   7.650
 5211POPC   NC326615  25.264  15.921   9.450
 5211POPC   PO426616  25.236  15.981   9.150
 5211POPC   GL126617  25.304  16.001   8.850
 5211POPC   GL226618  25.216  16.053   8.850
 5211POPC   C1A26619  25.301  15.972   8.550
 5211POPC   D2A26620  25.256  16.003   8.250
 5211POPC   C3A26621  25.296  15.950   7.950
 5211POPC   C4A26622  25.232  15.977   7.650
 5211POPC   C1B26623  25.174  16.172   8.550
 5211POPC   C2B26624  25.164  16.124   8.250
 5211POPC   C3B26625  25.079  16.153   7.950
 5211POPC   C4B26626  25.084  16.123   7.650
 5212POPC   NC326627  38.446  18.260   9.450
 5212POPC   PO426628  38.465  18.281   9.150
 5212POPC   GL126629  38.451  18.263   8.850
 5212POPC   GL226630  38.532  18.396   8.850
 5212POPC   C1A26631  38.428  18.256   8.550
 5212POPC   D2A26632  38.487  18.278   8.250
 5212POPC   C3A26633  38.481  18.291   7.950
 5212POPC   C4A26634  38.437  18.302   7.650
 5212POPC   C1B26635  38.638  18.477   8.550
 5212POPC   C2B26636  38.671  18.467   8.250
 5212POPC   C3B26637  38.620  18.398   7.950
 5212POPC   C4B26638  38.677  18.454   7.650
 5213POPC   NC326639  22.964   9.771   9.450
 5213POPC   PO426640  22.971   9.753   9.150
 5213POPC   GL126641  22.988   9.712   8.850
 5213POPC   GL226642  22.868   9.644   8.850
 5213POPC   C1A26643  22.937   9.784   8.550
 5213POPC   D2A26644  22.965   9.798   8.250
 5213POPC   C3A26645  22.947   9.732   7.950
 5213POPC   C4A26646  22.924   9.698   7.650
 5213POPC   C1B26647  22.791   9.570   8.550
 5213POPC   C2B26648  22.768   9.542   8.250
 5213POPC   C3B26649  22.768   9.563   7.950
 5213POPC   C4B26650  22.809   9.527   7.650
 5214POPC   NC326651   6.671   7.455   9.450
 5214POPC   PO426652   6.669   7.414   9.150
 5214POPC   GL126653   6.689   7.448   8.850
 5214POPC   GL226654   6.517   7.433   8.850
 5214POPC   C1A26655   6.606   7.454   8.550
 5214POPC   D2A26656   6.599   7.445   8.250
 5214POPC   C3A26657   6.611   7.411   7.950
 5214POPC   C4A26658   6.642   7.391   7.650
 5214POPC   C1B26659   6.420   7.318   8.550
 5214POPC   C2B26660   6.389   7.331   8.250
 5214POPC   C3B26661   6.373   7.382   7.950
 5214POPC   C4B26662   6.384   7.315   7.650
 5215POPC   NC326663   4.337  13.600   9.450
 5215POPC   PO426664   4.276  13.666   9.150
 5215POPC   GL126665   4.356  13.611   8.850
 5215POPC   GL226666   4.244  13.696   8.850
 5215POPC   C1A26667   4.302  13.673   8.550
 5215POPC   D2A26668   4.303  13.589   8.250
 5215POPC   C3A26669   4.295  13.616   7.950
 5215POPC   C4A26670   4.322  13.612   7.650
 5215POPC   C1B26671   4.183  13.855   8.550
 5215POPC   C2B26672   4.249  13.808   8.250
 5215POPC   C3B26673   4.187  13.849   7.950
 5215POPC   C4B26674   4.194  13.844   7.650
 5216POPC   NC326675  13.627  35.400   9.450
 5216POPC   PO426676  13.625  35.373   9.150
 5216POPC   GL126677  13.646  35.306   8.850
 5216POPC   GL226678  13.635  35.268   8.850
 5216POPC   C1A26679  13.626  35.340   8.550
 5216POPC   D2A26680  13.583  35.335   8.250
 5216POPC   C3A26681  13.638  35.365   7.950
 5216POPC   C4A26682  13.601  35.363   7.650
 5216POPC   C1B26683  13.676  35.137   8.550
 5216POPC   C2B26684  13.588  35.106   8.250
 5216POPC   C3B26685  13.608  35.080   7.950
 5216POPC   C4B26686  13.622  35.125   7.650
 5217POPC   NC326687   5.860  36.079   9.450
 5217POPC   PO426688   5.837  36.157   9.150
 5217POPC   GL126689   5.867  36.147   8.850
 5217POPC   GL226690   5.899  36.058   8.850
 5217POPC   C1A26691   5.871  36.168   8.550
 5217POPC   D2A26692   5.885  36.100   8.250
 5217POPC   C3A26693   5.890  36.148   7.950
 5217POPC   C4A26694   5.858  36.079   7.650
 5217POPC   C1B26695   5.997  35.948   8.550
 5217POPC   C2B26696   6.033  35.951   8.250
 5217POPC   C3B26697   5.983  35.860   7.950
 5217POPC   C4B26698   6.010  35.927   7.650
 5218POPC   NC326699   0.415  28.369   9.450
 5218POPC   PO426700   0.404  28.330   9.150
 5218POPC   GL126701   0.482  28.347   8.850
 5218POPC   GL226702   0.517  28.459   8.850
 5218POPC   C1A26703   0.437  28.335   8.550
 5218POPC   D2A26704   0.471  28.365   8.250
 5218POPC   C3A26705   0.450  28.355   7.950
 5218POPC   C4A26706   0.486  28.338   7.650
 5218POPC   C1B26707   0.645  28.527   8.550
 5218POPC   C2B26708   0.633  28.514   8.250
 5218POPC   C3B26709   0.677  28.564   7.950
 5218POPC   C4B26710   0.677  28.538   7.650
 5219POPC   NC326711  22.136  22.985   9.450
 5219POPC   PO426712  22.191  22.931   9.150
 5219POPC   GL126713  22.141  22.984   8.850
 5219POPC   GL226714  22.294  22.993   8.850
 5219POPC   C1A26715  22.151  22.916   8.550
 5219POPC   D2A26716  22.189  22.903   8.250
 5219POPC   C3A26717  22.187  22.913   7.950
 5219POPC   C4A26718  22.128  22.961   7.650
 5219POPC   C1B26719  22.337  23.018   8.550
 5219POPC   C2B26720  22.360  23.068   8.250
 5219POPC   C3B26721  22.426  23.040   7.950
 5219POPC   C4B26722  22.355  23.048   7.650
 5220POPC   NC326723  19.812  33.027   9.450
 5220POPC   PO426724  19.855  33.045   9.150
 5220POPC   GL126725  19.804  33.058   8.850
 5220POPC   GL226726  19.701  33.092   8.850
 5220POPC   C1A26727  19.879  33.059   8.550
 5220POPC   D2A26728  19.831  33.010   8.250
 5220POPC   C3A26729  19.828  33.013   7.950
 5220POPC   C4A26730  19.860  33.068   7.650
 5220POPC   C1B26731  19.608  33.032   8.550
 5220POPC   C2B26732  19.584  33.032   8.250
 5220POPC   C3B26733  19.572  33.094   7.950
 5220POPC   C4B26734  19.544  33.092   7.650
 5221POPC   NC326735  41.538  41.597   9.450
 5221POPC   PO426736  41.554  41.603   9.150
 5221POPC   GL126737  41.536  41.524   8.850
 5221POPC   GL226738  41.671  41.492   8.850
 5221POPC   C1A26739  41.516  41.549   8.550
 5221POPC   D2A26740  41.580  41.584   8.250
 5221POPC   C3A26741  41.579  41.577   7.950
 5221POPC   C4A26742  41.512  41.523   7.650
 5221POPC   C1B26743  41.765  41.365   8.550
 5221POPC   C2B26744  41.767  41.398   8.250
 5221POPC   C3B26745  41.680  41.421   7.950
 5221POPC   C4B26746  41.682  41.356   7.650
 5222POPC   NC326747  11.329  22.201   9.450
 5222POPC   PO426748  11.283  22.182   9.150
 5222POPC   GL126749  11.325  22.165   8.850
 5222POPC   GL226750  11.361  22.240   8.850
 5222POPC   C1A26751  11.291  22.146   8.550
 5222POPC   D2A26752  11.304  22.150   8.250
 5222POPC   C3A26753  11.338  22.187   7.950
 5222POPC   C4A26754  11.302  22.189   7.650
 5222POPC   C1B26755  11.475  22.304   8.550
 5222POPC   C2B26756  11.432  22.322   8.250
 5222POPC   C3B26757  11.519  22.380   7.950
 5222POPC   C4B26758  11.430  22.374   7.650
 5223POPC   NC326759  39.983  33.056   9.450
 5223POPC   PO426760  40.022  32.977   9.150
 5223POPC   GL126761  39.983  32.977   8.850
 5223POPC   GL226762  40.070  33.108   8.850
 5223POPC   C1A26763  39.961  32.995   8.550
 5223POPC   D2A26764  40.001  33.059   8.250
 5223POPC   C3A26765  39.968  33.072   7.950
 5223POPC   C4A26766  40.008  32.987   7.650
 5223POPC   C1B26767  40.082  33.285   8.550
 5223POPC   C2B26768  40.076  33.307   8.250
 5223POPC   C3B26769  40.098  33.313   7.950
 5223POPC   C4B26770  40.117  33.246   7.650
 5224POPC   NC326771   9.743  13.620   9.450
 5224POPC   PO426772   9.763  13.609   9.150
 5224POPC   GL126773   9.750  13.669   8.850
 5224POPC   GL226774   9.876  13.521   8.850
 5224POPC   C1A26775   9.729  13.610   8.550
 5224POPC   D2A26776   9.709  13.666   8.250
 5224POPC   C3A26777   9.759  13.616   7.950
 5224POPC   C4A26778   9.764  13.606   7.650
 5224POPC   C1B26779   9.923  13.397   8.550
 5224POPC   C2B26780   9.919  13.391   8.250
 5224POPC   C3B26781   9.924  13.410   7.950
 5224POPC   C4B26782   9.961  13.425   7.650
 5225POPC   NC326783  20.604  38.420   9.450
 5225POPC   PO426784  20.602  38.431   9.150
 5225POPC   GL126785  20.624  38.408   8.850
 5225POPC   GL226786  20.715  38.489   8.850
 5225POPC   C1A26787  20.656  38.420   8.550
 5225POPC   D2A26788  20.595  38.437   8.250
 5225POPC   C3A26789  20.564  38.475   7.950
 5225POPC   C4A26790  20.563  38.415   7.650
 5225POPC   C1B26791  20.853  38.534   8.550
 5225POPC   C2B26792  20.824  38.486   8.250
 5225POPC   C3B26793  20.882  38.460   7.950
 5225POPC   C4B26794  20.810  38.457   7.650
 5226POPC   NC326795  40.008  27.629   9.450
 5226POPC   PO426796  40.056  27.621   9.150
 5226POPC   GL126797  39.983  27.586   8.850
 5226POPC   GL226798  39.837  27.606   8.850
 5226POPC   C1A26799  40.057  27.631   8.550
 5226POPC   D2A26800  39.988  27.621   8.250
 5226POPC   C3A26801  39.980  27.567   7.950
 5226POPC   C4A26802  39.987  27.558   7.650
 5226POPC   C1B26803  39.791  27.515   8.550
 5226POPC   C2B26804  39.722  27.561   8.250
 5226POPC   C3B26805  39.749  27.571   7.950
 5226POPC   C4B26806  39.806  27.572   7.650
 5227POPC   NC326807  16.686  31.510   9.450
 5227POPC   PO426808  16.701  31.430   9.150
 5227POPC   GL126809  16.768  31.430   8.850
 5227POPC   GL226810  16.628  31.571   8.850
 5227POPC   C1A26811  16.697  31.446   8.550
 5227POPC   D2A26812  16.734  31.486   8.250
 5227POPC   C3A26813  16.686  31.480   7.950
 5227POPC   C4A26814  16.707  31.455   7.650
 5227POPC   C1B26815  16.496  31.636   8.550
 5227POPC   C2B26816  16.535  31.648   8.250
 5227POPC   C3B26817  16.516  31.638   7.950
 5227POPC   C4B26818  16.494  31.635   7.650
 5228POPC   NC326819  26.031  25.996   9.450
 5228POPC   PO426820  26.090  26.000   9.150
 5228POPC   GL126821  26.052  26.086   8.850
 5228POPC   GL226822  26.148  25.954   8.850
 5228POPC   C1A26823  26.025  26.028   8.550
 5228POPC   D2A26824  26.078  26.022   8.250
 5228POPC   C3A26825  26.015  26.061   7.950
 5228POPC   C4A26826  25.993  26.084   7.650
 5228POPC   C1B26827  26.195  25.847   8.550
 5228POPC   C2B26828  26.220  25.908   8.250
 5228POPC   C3B26829  26.186  25.854   7.950
 5228POPC   C4B26830  26.229  25.834   7.650
 5229POPC   NC326831   2.022  27.579   9.450
 5229POPC   PO426832   2.039  27.638   9.150
 5229POPC   GL126833   1.947  27.551   8.850
 5229POPC   GL226834   1.834  27.677   8.850
 5229POPC   C1A26835   2.039  27.608   8.550
 5229POPC   D2A26836   2.023  27.604   8.250
 5229POPC   C3A26837   1.959  27.639   7.950
 5229POPC   C4A26838   1.984  27.574   7.650
 5229POPC   C1B26839   1.769  27.730   8.550
 5229POPC   C2B26840   1.765  27.707   8.250
 5229POPC   C3B26841   1.792  27.669   7.950
 5229POPC   C4B26842   1.728  27.712   7.650
 5230POPC   NC326843  33.818  19.039   9.450
 5230POPC   PO426844  33.848  19.034   9.150
 5230POPC   GL126845  33.798  19.065   8.850
 5230POPC   GL226846  33.897  19.171   8.850
 5230POPC   C1A26847  33.760  19.045   8.550
 5230POPC   D2A26848  33.829  19.023   8.250
 5230POPC   C3A26849  33.809  19.012   7.950
 5230POPC   C4A26850  33.755  19.063   7.650
 5230POPC   C1B26851  33.984  19.233   8.550
 5230POPC   C2B26852  33.922  19.249   8.250
 5230POPC   C3B26853  33.993  19.278   7.950
 5230POPC   C4B26854  33.941  19.247   7.650
 5231POPC   NC326855  12.883  31.448   9.450
 5231POPC   PO426856  12.831  31.454   9.150
 5231POPC   GL126857  12.888  31.505   8.850
 5231POPC   GL226858  12.894  31.360   8.850
 5231POPC   C1A26859  12.886  31.493   8.550
 5231POPC   D2A26860  12.831  31.518   8.250
 5231POPC   C3A26861  12.897  31.515   7.950
 5231POPC   C4A26862  12.810  31.424   7.650
 5231POPC   C1B26863  12.971  31.304   8.550
 5231POPC   C2B26864  12.960  31.266   8.250
 5231POPC   C3B26865  13.052  31.280   7.950
 5231POPC   C4B26866  12.976  31.238   7.650
 5232POPC   NC326867   1.183  19.794   9.450
 5232POPC   PO426868   1.207  19.810   9.150
 5232POPC   GL126869   1.173  19.809   8.850
 5232POPC   GL226870   1.316  19.705   8.850
 5232POPC   C1A26871   1.217  19.874   8.550
 5232POPC   D2A26872   1.243  19.863   8.250
 5232POPC   C3A26873   1.195  19.860   7.950
 5232POPC   C4A26874   1.173  19.861   7.650
 5232POPC   C1B26875   1.354  19.596   8.550
 5232POPC   C2B26876   1.364  19.626   8.250
 5232POPC   C3B26877   1.379  19.639   7.950
 5232POPC   C4B26878   1.392  19.652   7.650
 5233POPC   NC326879  40.761  38.444   9.450
 5233POPC   PO426880  40.747  38.478   9.150
 5233POPC   GL126881  40.761  38.434   8.850
 5233POPC   GL226882  40.902  38.554   8.850
 5233POPC   C1A26883  40.805  38.475   8.550
 5233POPC   D2A26884  40.816  38.415   8.250
 5233POPC   C3A26885  40.734  38.420   7.950
 5233POPC   C4A26886  40.809  38.449   7.650
 5233POPC   C1B26887  40.938  38.620   8.550
 5233POPC   C2B26888  40.975  38.678   8.250
 5233POPC   C3B26889  40.964  38.681   7.950
 5233POPC   C4B26890  40.944  38.625   7.650
 5234POPC   NC326891  40.740  28.418   9.450
 5234POPC   PO426892  40.785  28.393   9.150
 5234POPC   GL126893  40.754  28.379   8.850
 5234POPC   GL226894  40.855  28.323   8.850
 5234POPC   C1A26895  40.734  28.393   8.550
 5234POPC   D2A26896  40.821  28.331   8.250
 5234POPC   C3A26897  40.828  28.399   7.950
 5234POPC   C4A26898  40.787  28.415   7.650
 5234POPC   C1B26899  40.938  28.170   8.550
 5234POPC   C2B26900  40.945  28.193   8.250
 5234POPC   C3B26901  40.984  28.229   7.950
 5234POPC   C4B26902  40.984  28.237   7.650
 5235POPC   NC326903  40.822  37.660   9.450
 5235POPC   PO426904  40.795  37.727   9.150
 5235POPC   GL126905  40.744  37.706   8.850
 5235POPC   GL226906  40.622  37.733   8.850
 5235POPC   C1A26907  40.802  37.659   8.550
 5235POPC   D2A26908  40.827  37.665   8.250
 5235POPC   C3A26909  40.738  37.657   7.950
 5235POPC   C4A26910  40.829  37.695   7.650
 5235POPC   C1B26911  40.577  37.785   8.550
 5235POPC   C2B26912  40.584  37.819   8.250
 5235POPC   C3B26913  40.586  37.739   7.950
 5235POPC   C4B26914  40.506  37.800   7.650
 5236POPC   NC326915  15.953   1.248   9.450
 5236POPC   PO426916  15.966   1.230   9.150
 5236POPC   GL126917  15.920   1.217   8.850
 5236POPC   GL226918  16.093   1.279   8.850
 5236POPC   C1A26919  15.923   1.223   8.550
 5236POPC   D2A26920  15.988   1.230   8.250
 5236POPC   C3A26921  15.933   1.244   7.950
 5236POPC   C4A26922  15.919   1.246   7.650
 5236POPC   C1B26923  16.133   1.397   8.550
 5236POPC   C2B26924  16.162   1.318   8.250
 5236POPC   C3B26925  16.133   1.325   7.950
 5236POPC   C4B26926  16.168   1.312   7.650
 5237POPC   NC326927  19.809  16.717   9.450
 5237POPC   PO426928  19.823  16.769   9.150
 5237POPC   GL126929  19.865  16.686   8.850
 5237POPC   GL226930  19.781  16.755   8.850
 5237POPC   C1A26931  19.884  16.724   8.550
 5237POPC   D2A26932  19.793  16.717   8.250
 5237POPC   C3A26933  19.853  16.735   7.950
 5237POPC   C4A26934  19.822  16.737   7.650
 5237POPC   C1B26935  19.637  16.877   8.550
 5237POPC   C2B26936  19.609  16.845   8.250
 5237POPC   C3B26937  19.594  16.917   7.950
 5237POPC   C4B26938  19.670  16.877   7.650
 5238POPC   NC326939  33.010   4.321   9.450
 5238POPC   PO426940  32.975   4.269   9.150
 5238POPC   GL126941  33.043   4.300   8.850
 5238POPC   GL226942  33.129   4.425   8.850
 5238POPC   C1A26943  33.025   4.356   8.550
 5238POPC   D2A26944  33.045   4.279   8.250
 5238POPC   C3A26945  32.977   4.311   7.950
 5238POPC   C4A26946  32.991   4.281   7.650
 5238POPC   C1B26947  33.176   4.519   8.550
 5238POPC   C2B26948  33.179   4.508   8.250
 5238POPC   C3B26949  33.152   4.508   7.950
 5238POPC   C4B26950  33.118   4.572   7.650
 5239POPC   NC326951  12.119  31.475   9.450
 5239POPC   PO426952  12.087  31.460   9.150
 5239POPC   GL126953  12.035  31.500   8.850
 5239POPC   GL226954  12.203  31.402   8.850
 5239POPC   C1A26955  12.062  31.439   8.550
 5239POPC   D2A26956  12.033  31.494   8.250
 5239POPC   C3A26957  12.093  31.434   7.950
 5239POPC   C4A26958  12.070  31.439   7.650
 5239POPC   C1B26959  12.299  31.347   8.550
 5239POPC   C2B26960  12.241  31.297   8.250
 5239POPC   C3B26961  12.320  31.319   7.950
 5239POPC   C4B26962  12.279  31.346   7.650
 5240POPC   NC326963  28.354  24.506   9.450
 5240POPC   PO426964  28.353  24.517   9.150
 5240POPC   GL126965  28.350  24.466   8.850
 5240POPC   GL226966  28.363  24.356   8.850
 5240POPC   C1A26967  28.377  24.525   8.550
 5240POPC   D2A26968  28.367  24.514   8.250
 5240POPC   C3A26969  28.399  24.499   7.950
 5240POPC   C4A26970  28.364  24.463   7.650
 5240POPC   C1B26971  28.319  24.201   8.550
 5240POPC   C2B26972  28.322  24.204   8.250
 5240POPC   C3B26973  28.369  24.284   7.950
 5240POPC   C4B26974  28.344  24.256   7.650
 5241POPC   NC326975  11.332  32.977   9.450
 5241POPC   PO426976  11.312  33.034   9.150
 5241POPC   GL126977  11.345  33.074   8.850
 5241POPC   GL226978  11.219  32.961   8.850
 5241POPC   C1A26979  11.310  33.023   8.550
 5241POPC   D2A26980  11.266  33.017   8.250
 5241POPC   C3A26981  11.334  33.073   7.950
 5241POPC   C4A26982  11.280  33.053   7.650
 5241POPC   C1B26983  11.092  32.900   8.550
 5241POPC   C2B26984  11.035  32.928   8.250
 5241POPC   C3B26985  11.024  32.928   7.950
 5241POPC   C4B26986  11.107  32.938   7.650
 5242POPC   NC326987  17.535  30.693   9.450
 5242POPC   PO426988  17.482  30.738   9.150
 5242POPC   GL126989  17.497  30.742   8.850
 5242POPC   GL226990  17.391  30.820   8.850
 5242POPC   C1A26991  17.501  30.732   8.550
 5242POPC   D2A26992  17.524  30.680   8.250
 5242POPC   C3A26993  17.531  30.716   7.950
 5242POPC   C4A26994  17.491  30.693   7.650
 5242POPC   C1B26995  17.356  30.905   8.550
 5242POPC   C2B26996  17.357  30.885   8.250
 5242POPC   C3B26997  17.317  30.917   7.950
 5242POPC   C4B26998  17.374  30.849   7.650
 5243POPC   NC326999   4.310  14.411   9.450
 5243POPC   PO427000   4.272  14.444   9.150
 5243POPC   GL127001   4.270  14.400   8.850
 5243POPC   GL227002   4.208  14.390   8.850
 5243POPC   C1A27003   4.277  14.437   8.550
 5243POPC   D2A27004   4.286  14.363   8.250
 5243POPC   C3A27005   4.281  14.369   7.950
 5243POPC   C4A27006   4.348  14.382   7.650
 5243POPC   C1B27007   4.028  14.438   8.550
 5243POPC   C2B27008   4.032  14.476   8.250
 5243POPC   C3B27009   4.082  14.490   7.950
 5243POPC   C4B27010   4.032  14.431   7.650
 5244POPC   NC327011   2.757   1.998   9.450
 5244POPC   PO427012   2.783   1.948   9.150
 5244POPC   GL127013   2.775   2.005   8.850
 5244POPC   GL227014   2.865   1.868   8.850
 5244POPC   C1A27015   2.716   1.953   8.550
 5244POPC   D2A27016   2.754   2.006   8.250
 5244POPC   C3A27017   2.798   2.000   7.950
 5244POPC   C4A27018   2.806   2.021   7.650
 5244POPC   C1B27019   2.888   1.765   8.550
 5244POPC   C2B27020   2.908   1.769   8.250
 5244POPC   C3B27021   2.897   1.747   7.950
 5244POPC   C4B27022   2.854   1.753   7.650
 5245POPC   NC327023  36.940  19.844   9.450
 5245POPC   PO427024  36.952  19.866   9.150
 5245POPC   GL127025  36.866  19.840   8.850
 5245POPC   GL227026  36.771  19.843   8.850
 5245POPC   C1A27027  36.880  19.811   8.550
 5245POPC   D2A27028  36.897  19.869   8.250
 5245POPC   C3A27029  36.884  19.785   7.950
 5245POPC   C4A27030  36.953  19.806   7.650
 5245POPC   C1B27031  36.665  19.854   8.550
 5245POPC   C2B27032  36.679  19.801   8.250
 5245POPC   C3B27033  36.668  19.817   7.950
 5245POPC   C4B27034  36.628  19.845   7.650
 5246POPC   NC327035  38.484  33.791   9.450
 5246POPC   PO427036  38.465  33.776   9.150
 5246POPC   GL127037  38.416  33.816   8.850
 5246POPC   GL227038  38.618  33.746   8.850
 5246POPC   C1A27039  38.441  33.841   8.550
 5246POPC   D2A27040  38.431  33.777   8.250
 5246POPC   C3A27041  38.427  33.815   7.950
 5246POPC   C4A27042  38.495  33.777   7.650
 5246POPC   C1B27043  38.708  33.701   8.550
 5246POPC   C2B27044  38.718  33.746   8.250
 5246POPC   C3B27045  38.644  33.696   7.950
 5246POPC   C4B27046  38.693  33.684   7.650
 5247POPC   NC327047   6.666   1.262   9.450
 5247POPC   PO427048   6.676   1.259   9.150
 5247POPC   GL127049   6.630   1.184   8.850
 5247POPC   GL227050   6.799   1.316   8.850
 5247POPC   C1A27051   6.650   1.248   8.550
 5247POPC   D2A27052   6.635   1.200   8.250
 5247POPC   C3A27053   6.639   1.195   7.950
 5247POPC   C4A27054   6.603   1.236   7.650
 5247POPC   C1B27055   6.883   1.313   8.550
 5247POPC   C2B27056   6.826   1.322   8.250
 5247POPC   C3B27057   6.839   1.347   7.950
 5247POPC   C4B27058   6.901   1.320   7.650
 5248POPC   NC327059  43.867  33.029   9.450
 5248POPC   PO427060  43.895  33.064   9.150
 5248POPC   GL127061  43.921  33.060   8.850
 5248POPC   GL227062  43.857  33.138   8.850
 5248POPC   C1A27063  43.837  33.029   8.550
 5248POPC   D2A27064  43.888  33.040   8.250
 5248POPC   C3A27065  43.898  33.003   7.950
 5248POPC   C4A27066  43.875  33.020   7.650
 5248POPC   C1B27067  43.751  33.214   8.550
 5248POPC   C2B27068  43.805  33.231   8.250
 5248POPC   C3B27069  43.738  33.261   7.950
 5248POPC   C4B27070  43.744  33.234   7.650
 5249POPC   NC327071  39.958  28.351   9.450
 5249POPC   PO427072  40.040  28.370   9.150
 5249POPC   GL127073  40.017  28.359   8.850
 5249POPC   GL227074  40.152  28.444   8.850
 5249POPC   C1A27075  40.010  28.399   8.550
 5249POPC   D2A27076  40.038  28.341   8.250
 5249POPC   C3A27077  40.053  28.373   7.950
 5249POPC   C4A27078  39.988  28.396   7.650
 5249POPC   C1B27079  40.269  28.453   8.550
 5249POPC   C2B27080  40.278  28.428   8.250
 5249POPC   C3B27081  40.267  28.467   7.950
 5249POPC   C4B27082  40.268  28.381   7.650
 5250POPC   NC327083  33.837  14.371   9.450
 5250POPC   PO427084  33.846  14.406   9.150
 5250POPC   GL127085  33.819  14.373   8.850
 5250POPC   GL227086  33.880  14.361   8.850
 5250POPC   C1A27087  33.807  14.404   8.550
 5250POPC   D2A27088  33.799  14.414   8.250
 5250POPC   C3A27089  33.806  14.402   7.950
 5250POPC   C4A27090  33.766  14.444   7.650
 5250POPC   C1B27091  34.025  14.286   8.550
 5250POPC   C2B27092  33.988  14.215   8.250
 5250POPC   C3B27093  33.967  14.213   7.950
 5250POPC   C4B27094  33.975  14.269   7.650
 5251POPC   NC327095  34.601  37.675   9.450
 5251POPC   PO427096  34.530  37.709   9.150
 5251POPC   GL127097  34.561  37.684   8.850
 5251POPC   GL227098  34.644  37.531   8.850
 5251POPC   C1A27099  34.555  37.703   8.550
 5251POPC   D2A27100  34.572  37.682   8.250
 5251POPC   C3A27101  34.624  37.632   7.950
 5251POPC   C4A27102  34.543  37.640   7.650
 5251POPC   C1B27103  34.654  37.492   8.550
 5251POPC   C2B27104  34.699  37.506   8.250
 5251POPC   C3B27105  34.733  37.474   7.950
 5251POPC   C4B27106  34.664  37.466   7.650
 5252POPC   NC327107  12.098  34.618   9.450
 5252POPC   PO427108  12.026  34.556   9.150
 5252POPC   GL127109  12.095  34.556   8.850
 5252POPC   GL227110  12.219  34.532   8.850
 5252POPC   C1A27111  12.110  34.594   8.550
 5252POPC   D2A27112  12.051  34.586   8.250
 5252POPC   C3A27113  12.113  34.535   7.950
 5252POPC   C4A27114  12.104  34.602   7.650
 5252POPC   C1B27115  12.340  34.527   8.550
 5252POPC   C2B27116  12.325  34.545   8.250
 5252POPC   C3B27117  12.313  34.563   7.950
 5252POPC   C4B27118  12.370  34.513   7.650
 5253POPC   NC327119  12.063  21.350   9.450
 5253POPC   PO427120  12.057  21.424   9.150
 5253POPC   GL127121  12.121  21.349   8.850
 5253POPC   GL227122  12.049  21.490   8.850
 5253POPC   C1A27123  12.100  21.422   8.550
 5253POPC   D2A27124  12.097  21.349   8.250
 5253POPC   C3A27125  12.026  21.436   7.950
 5253POPC   C4A27126  12.087  21.356   7.650
 5253POPC   C1B27127  12.080  21.652   8.550
 5253POPC   C2B27128  12.092  21.603   8.250
 5253POPC   C3B27129  12.012  21.591   7.950
 5253POPC   C4B27130  12.043  21.625   7.650
 5254POPC   NC327131  41.523   7.372   9.450
 5254POPC   PO427132  41.518   7.423   9.150
 5254POPC   GL127133  41.603   7.428   8.850
 5254POPC   GL227134  41.548   7.511   8.850
 5254POPC   C1A27135  41.525   7.460   8.550
 5254POPC   D2A27136  41.537   7.432   8.250
 5254POPC   C3A27137  41.567   7.412   7.950
 5254POPC   C4A27138  41.556   7.409   7.650
 5254POPC   C1B27139  41.577   7.616   8.550
 5254POPC   C2B27140  41.632   7.695   8.250
 5254POPC   C3B27141  41.653   7.639   7.950
 5254POPC   C4B27142  41.578   7.620   7.650
 5255POPC   NC327143  15.953  19.818   9.450
 5255POPC   PO427144  15.919  19.845   9.150
 5255POPC   GL127145  15.974  19.805   8.850
 5255POPC   GL227146  16.086  19.960   8.850
 5255POPC   C1A27147  15.944  19.867   8.550
 5255POPC   D2A27148  15.918  19.820   8.250
 5255POPC   C3A27149  15.992  19.860   7.950
 5255POPC   C4A27150  15.922  19.860   7.650
 5255POPC   C1B27151  16.144  19.965   8.550
 5255POPC   C2B27152  16.164  20.003   8.250
 5255POPC   C3B27153  16.117  19.995   7.950
 5255POPC   C4B27154  16.105  20.009   7.650
 5256POPC   NC327155   3.504   6.643   9.450
 5256POPC   PO427156   3.573   6.654   9.150
 5256POPC   GL127157   3.518   6.642   8.850
 5256POPC   GL227158   3.500   6.569   8.850
 5256POPC   C1A27159   3.491   6.654   8.550
 5256POPC   D2A27160   3.577   6.676   8.250
 5256POPC   C3A27161   3.562   6.658   7.950
 5256POPC   C4A27162   3.511   6.611   7.650
 5256POPC   C1B27163   3.359   6.468   8.550
 5256POPC   C2B27164   3.406   6.483   8.250
 5256POPC   C3B27165   3.419   6.433   7.950
 5256POPC   C4B27166   3.400   6.412   7.650
 5257POPC   NC327167   9.745  15.938   9.450
 5257POPC   PO427168   9.734  15.915   9.150
 5257POPC   GL127169   9.714  15.976   8.850
 5257POPC   GL227170   9.883  15.987   8.850
 5257POPC   C1A27171   9.708  16.004   8.550
 5257POPC   D2A27172   9.706  15.929   8.250
 5257POPC   C3A27173   9.768  15.911   7.950
 5257POPC   C4A27174   9.762  15.993   7.650
 5257POPC   C1B27175   9.983  16.005   8.550
 5257POPC   C2B27176  10.034  16.013   8.250
 5257POPC   C3B27177  10.028  16.068   7.950
 5257POPC   C4B27178   9.950  15.993   7.650
 5258POPC   NC327179   9.001  31.465   9.450
 5258POPC   PO427180   8.960  31.440   9.150
 5258POPC   GL127181   9.001  31.469   8.850
 5258POPC   GL227182   9.060  31.382   8.850
 5258POPC   C1A27183   9.008  31.519   8.550
 5258POPC   D2A27184   8.978  31.456   8.250
 5258POPC   C3A27185   8.974  31.470   7.950
 5258POPC   C4A27186   8.999  31.424   7.650
 5258POPC   C1B27187   9.202  31.378   8.550
 5258POPC   C2B27188   9.199  31.371   8.250
 5258POPC   C3B27189   9.148  31.387   7.950
 5258POPC   C4B27190   9.203  31.334   7.650
 5259POPC   NC327191  15.173  12.077   9.450
 5259POPC   PO427192  15.223  12.040   9.150
 5259POPC   GL127193  15.134  12.069   8.850
 5259POPC   GL227194  15.272  11.920   8.850
 5259POPC   C1A27195  15.133  12.101   8.550
 5259POPC   D2A27196  15.156  12.121   8.250
 5259POPC   C3A27197  15.217  12.110   7.950
 5259POPC   C4A27198  15.145  12.106   7.650
 5259POPC   C1B27199  15.310  11.813   8.550
 5259POPC   C2B27200  15.292  11.848   8.250
 5259POPC   C3B27201  15.297  11.852   7.950
 5259POPC   C4B27202  15.266  11.849   7.650
 5260POPC   NC327203  40.784  36.154   9.450
 5260POPC   PO427204  40.829  36.163   9.150
 5260POPC   GL127205  40.792  36.098   8.850
 5260POPC   GL227206  40.630  36.155   8.850
 5260POPC   C1A27207  40.735  36.087   8.550
 5260POPC   D2A27208  40.796  36.165   8.250
 5260POPC   C3A27209  40.825  36.087   7.950
 5260POPC   C4A27210  40.788  36.119   7.650
 5260POPC   C1B27211  40.575  36.209   8.550
 5260POPC   C2B27212  40.549  36.171   8.250
 5260POPC   C3B27213  40.546  36.137   7.950
 5260POPC   C4B27214  40.496  36.192   7.650
 5261POPC   NC327215  37.677  39.969   9.450
 5261POPC   PO427216  37.684  40.028   9.150
 5261POPC   GL127217  37.639  40.009   8.850
 5261POPC   GL227218  37.695  40.148   8.850
 5261POPC   C1A27219  37.656  40.003   8.550
 5261POPC   D2A27220  37.665  40.031   8.250
 5261POPC   C3A27221  37.644  39.968   7.950
 5261POPC   C4A27222  37.710  39.966   7.650
 5261POPC   C1B27223  37.599  40.262   8.550
 5261POPC   C2B27224  37.623  40.260   8.250
 5261POPC   C3B27225  37.671  40.231   7.950
 5261POPC   C4B27226  37.648  40.215   7.650
 5262POPC   NC327227   2.005  12.831   9.450
 5262POPC   PO427228   1.949  12.845   9.150
 5262POPC   GL127229   1.974  12.838   8.850
 5262POPC   GL227230   2.117  12.943   8.850
 5262POPC   C1A27231   2.032  12.875   8.550
 5262POPC   D2A27232   2.008  12.880   8.250
 5262POPC   C3A27233   1.997  12.885   7.950
 5262POPC   C4A27234   1.942  12.809   7.650
 5262POPC   C1B27235   2.192  12.913   8.550
 5262POPC   C2B27236   2.233  12.898   8.250
 5262POPC   C3B27237   2.183  12.950   7.950
 5262POPC   C4B27238   2.256  12.915   7.650
 5263POPC   NC327239   2.786  26.824   9.450
 5263POPC   PO427240   2.768  26.801   9.150
 5263POPC   GL127241   2.805  26.807   8.850
 5263POPC   GL227242   2.778  26.941   8.850
 5263POPC   C1A27243   2.722  26.819   8.550
 5263POPC   D2A27244   2.765  26.782   8.250
 5263POPC   C3A27245   2.729  26.850   7.950
 5263POPC   C4A27246   2.778  26.799   7.650
 5263POPC   C1B27247   2.905  27.020   8.550
 5263POPC   C2B27248   2.877  27.069   8.250
 5263POPC   C3B27249   2.851  27.035   7.950
 5263POPC   C4B27250   2.843  27.030   7.650
 5264POPC   NC327251  17.532  39.958   9.450
 5264POPC   PO427252  17.549  39.996   9.150
 5264POPC   GL127253  17.556  39.990   8.850
 5264POPC   GL227254  17.597  40.151   8.850
 5264POPC   C1A27255  17.498  39.986   8.550
 5264POPC   D2A27256  17.537  39.972   8.250
 5264POPC   C3A27257  17.499  40.041   7.950
 5264POPC   C4A27258  17.475  40.017   7.650
 5264POPC   C1B27259  17.605  40.263   8.550
 5264POPC   C2B27260  17.662  40.179   8.250
 5264POPC   C3B27261  17.584  40.250   7.950
 5264POPC   C4B27262  17.662  40.212   7.650
 5265POPC   NC327263   9.778   5.887   9.450
 5265POPC   PO427264   9.789   5.902   9.150
 5265POPC   GL127265   9.715   5.869   8.850
 5265POPC   GL227266   9.816   5.779   8.850
 5265POPC   C1A27267   9.719   5.869   8.550
 5265POPC   D2A27268   9.747   5.883   8.250
 5265POPC   C3A27269   9.796   5.888   7.950
 5265POPC   C4A27270   9.783   5.912   7.650
 5265POPC   C1B27271   9.926   5.698   8.550
 5265POPC   C2B27272   9.946   5.644   8.250
 5265POPC   C3B27273   9.882   5.716   7.950
 5265POPC   C4B27274   9.928   5.642   7.650
 5266POPC   NC327275  29.968  27.632   9.450
 5266POPC   PO427276  29.916  27.560   9.150
 5266POPC   GL127277  29.966  27.548   8.850
 5266POPC   GL227278  29.966  27.460   8.850
 5266POPC   C1A27279  29.929  27.577   8.550
 5266POPC   D2A27280  29.918  27.566   8.250
 5266POPC   C3A27281  29.885  27.613   7.950
 5266POPC   C4A27282  29.925  27.625   7.650
 5266POPC   C1B27283  30.075  27.363   8.550
 5266POPC   C2B27284  30.087  27.417   8.250
 5266POPC   C3B27285  30.055  27.382   7.950
 5266POPC   C4B27286  30.043  27.397   7.650
 5267POPC   NC327287   3.517  30.657   9.450
 5267POPC   PO427288   3.524  30.658   9.150
 5267POPC   GL127289   3.549  30.731   8.850
 5267POPC   GL227290   3.666  30.840   8.850
 5267POPC   C1A27291   3.546  30.730   8.550
 5267POPC   D2A27292   3.575  30.728   8.250
 5267POPC   C3A27293   3.573  30.673   7.950
 5267POPC   C4A27294   3.589  30.730   7.650
 5267POPC   C1B27295   3.748  30.877   8.550
 5267POPC   C2B27296   3.700  30.866   8.250
 5267POPC   C3B27297   3.657  30.844   7.950
 5267POPC   C4B27298   3.705  30.929   7.650
 5268POPC   NC327299   4.342   5.069   9.450
 5268POPC   PO427300   4.275   5.106   9.150
 5268POPC   GL127301   4.286   5.102   8.850
 5268POPC   GL227302   4.381   4.998   8.850
 5268POPC   C1A27303   4.329   5.098   8.550
 5268POPC   D2A27304   4.272   5.112   8.250
 5268POPC   C3A27305   4.270   5.076   7.950
 5268POPC   C4A27306   4.333   5.066   7.650
 5268POPC   C1B27307   4.541   4.961   8.550
 5268POPC   C2B27308   4.524   4.901   8.250
 5268POPC   C3B27309   4.519   4.922   7.950
 5268POPC   C4B27310   4.538   4.877   7.650
 5269POPC   NC327311  12.043   6.677   9.450
 5269POPC   PO427312  12.048   6.648   9.150
 5269POPC   GL127313  12.107   6.603   8.850
 5269POPC   GL227314  12.128   6.796   8.850
 5269POPC   C1A27315  12.087   6.651   8.550
 5269POPC   D2A27316  12.125   6.622   8.250
 5269POPC   C3A27317  12.037   6.681   7.950
 5269POPC   C4A27318  12.096   6.596   7.650
 5269POPC   C1B27319  12.188   6.890   8.550
 5269POPC   C2B27320  12.213   6.887   8.250
 5269POPC   C3B27321  12.150   6.864   7.950
 5269POPC   C4B27322  12.211   6.864   7.650
 5270POPC   NC327323   4.329  21.386   9.450
 5270POPC   PO427324   4.345  21.359   9.150
 5270POPC   GL127325   4.278  21.417   8.850
 5270POPC   GL227326   4.439  21.489   8.850
 5270POPC   C1A27327   4.319  21.360   8.550
 5270POPC   D2A27328   4.339  21.408   8.250
 5270POPC   C3A27329   4.365  21.363   7.950
 5270POPC   C4A27330   4.336  21.396   7.650
 5270POPC   C1B27331   4.452  21.551   8.550
 5270POPC   C2B27332   4.446  21.571   8.250
 5270POPC   C3B27333   4.432  21.584   7.950
 5270POPC   C4B27334   4.420  21.616   7.650
 5271POPC   NC327335  20.601  21.405   9.450
 5271POPC   PO427336  20.655  21.416   9.150
 5271POPC   GL127337  20.577  21.379   8.850
 5271POPC   GL227338  20.716  21.358   8.850
 5271POPC   C1A27339  20.659  21.353   8.550
 5271POPC   D2A27340  20.614  21.350   8.250
 5271POPC   C3A27341  20.646  21.416   7.950
 5271POPC   C4A27342  20.563  21.417   7.650
 5271POPC   C1B27343  20.818  21.325   8.550
 5271POPC   C2B27344  20.829  21.325   8.250
 5271POPC   C3B27345  20.833  21.328   7.950
 5271POPC   C4B27346  20.812  21.372   7.650
 5272POPC   NC327347  42.344  41.608   9.450
 5272POPC   PO427348  42.306  41.520   9.150
 5272POPC   GL127349  42.336  41.511   8.850
 5272POPC   GL227350  42.475  41.564   8.850
 5272POPC   C1A27351  42.361  41.580   8.550
 5272POPC   D2A27352  42.346  41.588   8.250
 5272POPC   C3A27353  42.301  41.551   7.950
 5272POPC   C4A27354  42.372  41.527   7.650
 5272POPC   C1B27355  42.619  41.583   8.550
 5272POPC   C2B27356  42.600  41.607   8.250
 5272POPC   C3B27357  42.526  41.653   7.950
 5272POPC   C4B27358  42.572  41.598   7.650
 5273POPC   NC327359  37.701   3.587   9.450
 5273POPC   PO427360  37.711   3.559   9.150
 5273POPC   GL127361  37.662   3.520   8.850
 5273POPC   GL227362  37.761   3.603   8.850
 5273POPC   C1A27363  37.726   3.565   8.550
 5273POPC   D2A27364  37.680   3.585   8.250
 5273POPC   C3A27365  37.659   3.504   7.950
 5273POPC   C4A27366  37.640   3.586   7.650
 5273POPC   C1B27367  37.903   3.622   8.550
 5273POPC   C2B27368  37.921   3.674   8.250
 5273POPC   C3B27369  37.941   3.608   7.950
 5273POPC   C4B27370  37.935   3.627   7.650
 5274POPC   NC327371  22.156  43.089   9.450
 5274POPC   PO427372  22.167  43.090   9.150
 5274POPC   GL127373  22.113  43.096   8.850
 5274POPC   GL227374  22.291  43.083   8.850
 5274POPC   C1A27375  22.181  43.149   8.550
 5274POPC   D2A27376  22.150  43.125   8.250
 5274POPC   C3A27377  22.160  43.095   7.950
 5274POPC   C4A27378  22.198  43.132   7.650
 5274POPC   C1B27379  22.439  43.110   8.550
 5274POPC   C2B27380  22.433  43.060   8.250
 5274POPC   C3B27381  22.458  43.064   7.950
 5274POPC   C4B27382  22.462  43.100   7.650
 5275POPC   NC327383  29.954   1.213   9.450
 5275POPC   PO427384  29.950   1.239   9.150
 5275POPC   GL127385  29.963   1.219   8.850
 5275POPC   GL227386  29.845   1.162   8.850
 5275POPC   C1A27387  29.881   1.213   8.550
 5275POPC   D2A27388  29.938   1.185   8.250
 5275POPC   C3A27389  29.886   1.234   7.950
 5275POPC   C4A27390  29.892   1.230   7.650
 5275POPC   C1B27391  29.757   1.063   8.550
 5275POPC   C2B27392  29.726   1.012   8.250
 5275POPC   C3B27393  29.688   1.013   7.950
 5275POPC   C4B27394  29.722   1.085   7.650
 5276POPC   NC327395  12.859  43.888   9.450
 5276POPC   PO427396  12.880  43.925   9.150
 5276POPC   GL127397  12.896  43.880   8.850
 5276POPC   GL227398  12.838  43.784   8.850
 5276POPC   C1A27399  12.868  43.852   8.550
 5276POPC   D2A27400  12.881  43.918   8.250
 5276POPC   C3A27401  12.817  43.931   7.950
 5276POPC   C4A27402  12.842  43.848   7.650
 5276POPC   C1B27403  12.834  43.599   8.550
 5276POPC   C2B27404  12.763  43.598   8.250
 5276POPC   C3B27405  12.792  43.682   7.950
 5276POPC   C4B27406  12.780  43.613   7.650
 5277POPC   NC327407  20.583   6.632   9.450
 5277POPC   PO427408  20.584   6.653   9.150
 5277POPC   GL127409  20.630   6.688   8.850
 5277POPC   GL227410  20.709   6.551   8.850
 5277POPC   C1A27411  20.573   6.598   8.550
 5277POPC   D2A27412  20.651   6.595   8.250
 5277POPC   C3A27413  20.628   6.628   7.950
 5277POPC   C4A27414  20.606   6.650   7.650
 5277POPC   C1B27415  20.873   6.593   8.550
 5277POPC   C2B27416  20.817   6.552   8.250
 5277POPC   C3B27417  20.894   6.524   7.950
 5277POPC   C4B27418  20.813   6.581   7.650
 5278POPC   NC327419  40.816  43.130   9.450
 5278POPC   PO427420  40.822  43.081   9.150
 5278POPC   GL127421  40.756  43.157   8.850
 5278POPC   GL227422  40.911  43.089   8.850
 5278POPC   C1A27423  40.802  43.148   8.550
 5278POPC   D2A27424  40.820  43.158   8.250
 5278POPC   C3A27425  40.765  43.129   7.950
 5278POPC   C4A27426  40.823  43.156   7.650
 5278POPC   C1B27427  40.961  43.015   8.550
 5278POPC   C2B27428  40.959  43.004   8.250
 5278POPC   C3B27429  40.957  42.966   7.950
 5278POPC   C4B27430  40.983  42.967   7.650
 5279POPC   NC327431  11.346  11.330   9.450
 5279POPC   PO427432  11.262  11.311   9.150
 5279POPC   GL127433  11.297  11.253   8.850
 5279POPC   GL227434  11.272  11.400   8.850
 5279POPC   C1A27435  11.287  11.302   8.550
 5279POPC   D2A27436  11.339  11.344   8.250
 5279POPC   C3A27437  11.273  11.322   7.950
 5279POPC   C4A27438  11.305  11.271   7.650
 5279POPC   C1B27439  11.233  11.555   8.550
 5279POPC   C2B27440  11.140  11.528   8.250
 5279POPC   C3B27441  11.155  11.526   7.950
 5279POPC   C4B27442  11.223  11.544   7.650
 5280POPC   NC327443  43.907  38.495   9.450
 5280POPC   PO427444  43.845  38.472   9.150
 5280POPC   GL127445  43.930  38.419   8.850
 5280POPC   GL227446  43.880  38.324   8.850
 5280POPC   C1A27447  43.923  38.419   8.550
 5280POPC   D2A27448  43.890  38.438   8.250
 5280POPC   C3A27449  43.905  38.469   7.950
 5280POPC   C4A27450  43.850  38.462   7.650
 5280POPC   C1B27451  43.831  38.248   8.550
 5280POPC   C2B27452  43.882  38.172   8.250
 5280POPC   C3B27453  43.876  38.228   7.950
 5280POPC   C4B27454  43.875  38.203   7.650
 5281POPC   NC327455  26.009  35.304   9.450
 5281POPC   PO427456  26.040  35.389   9.150
 5281POPC   GL127457  26.024  35.308   8.850
 5281POPC   GL227458  26.130  35.267   8.850
 5281POPC   C1A27459  26.027  35.335   8.550
 5281POPC   D2A27460  25.994  35.377   8.250
 5281POPC   C3A27461  26.011  35.321   7.950
 5281POPC   C4A27462  26.064  35.325   7.650
 5281POPC   C1B27463  26.300  35.320   8.550
 5281POPC   C2B27464  26.291  35.329   8.250
 5281POPC   C3B27465  26.254  35.282   7.950
 5281POPC   C4B27466  26.320  35.304   7.650
 5282POPC   NC327467  22.182  33.059   9.450
 5282POPC   PO427468  22.148  33.049   9.150
 5282POPC   GL127469  22.163  33.073   8.850
 5282POPC   GL227470  22.131  32.907   8.850
 5282POPC   C1A27471  22.148  33.053   8.550
 5282POPC   D2A27472  22.178  33.059   8.250
 5282POPC   C3A27473  22.161  32.992   7.950
 5282POPC   C4A27474  22.122  33.069   7.650
 5282POPC   C1B27475  21.977  32.785   8.550
 5282POPC   C2B27476  22.020  32.826   8.250
 5282POPC   C3B27477  21.960  32.866   7.950
 5282POPC   C4B27478  22.009  32.835   7.650
 5283POPC   NC327479   1.198   7.416   9.450
 5283POPC   PO427480   1.186   7.400   9.150
 5283POPC   GL127481   1.241   7.462   8.850
 5283POPC   GL227482   1.113   7.305   8.850
 5283POPC   C1A27483   1.206   7.382   8.550
 5283POPC   D2A27484   1.200   7.415   8.250
 5283POPC   C3A27485   1.218   7.384   7.950
 5283POPC   C4A27486   1.247   7.455   7.650
 5283POPC   C1B27487   1.064   7.229   8.550
 5283POPC   C2B27488   1.085   7.214   8.250
 5283POPC   C3B27489   1.090   7.212   7.950
 5283POPC   C4B27490   1.142   7.176   7.650
 5284POPC   NC327491  37.679  23.706   9.450
 5284POPC   PO427492  37.716  23.752   9.150
 5284POPC   GL127493  37.673  23.748   8.850
 5284POPC   GL227494  37.528  23.682   8.850
 5284POPC   C1A27495  37.704  23.738   8.550
 5284POPC   D2A27496  37.702  23.690   8.250
 5284POPC   C3A27497  37.659  23.731   7.950
 5284POPC   C4A27498  37.684  23.665   7.650
 5284POPC   C1B27499  37.390  23.664   8.550
 5284POPC   C2B27500  37.464  23.628   8.250
 5284POPC   C3B27501  37.443  23.691   7.950
 5284POPC   C4B27502  37.418  23.616   7.650
 5285POPC   NC327503  15.962   8.181   9.450
 5285POPC   PO427504  15.923   8.154   9.150
 5285POPC   GL127505  15.972   8.243   8.850
 5285POPC   GL227506  16.086   8.228   8.850
 5285POPC   C1A27507  15.934   8.246   8.550
 5285POPC   D2A27508  15.931   8.150   8.250
 5285POPC   C3A27509  15.918   8.164   7.950
 5285POPC   C4A27510  15.946   8.193   7.650
 5285POPC   C1B27511  16.242   8.265   8.550
 5285POPC   C2B27512  16.201   8.264   8.250
 5285POPC   C3B27513  16.197   8.246   7.950
 5285POPC   C4B27514  16.208   8.259   7.650
 5286POPC   NC327515  29.971  29.191   9.450
 5286POPC   PO427516  29.880  29.141   9.150
 5286POPC   GL127517  29.914  29.190   8.850
 5286POPC   GL227518  29.759  29.193   8.850
 5286POPC   C1A27519  29.946  29.154   8.550
 5286POPC   D2A27520  29.886  29.187   8.250
 5286POPC   C3A27521  29.904  29.179   7.950
 5286POPC   C4A27522  29.879  29.111   7.650
 5286POPC   C1B27523  29.703  29.261   8.550
 5286POPC   C2B27524  29.660  29.219   8.250
 5286POPC   C3B27525  29.655  29.241   7.950
 5286POPC   C4B27526  29.744  29.293   7.650
 5287POPC   NC327527  22.892  34.597   9.450
 5287POPC   PO427528  22.948  34.533   9.150
 5287POPC   GL127529  22.985  34.604   8.850
 5287POPC   GL227530  22.990  34.681   8.850
 5287POPC   C1A27531  22.973  34.609   8.550
 5287POPC   D2A27532  22.982  34.534   8.250
 5287POPC   C3A27533  22.901  34.609   7.950
 5287POPC   C4A27534  22.972  34.623   7.650
 5287POPC   C1B27535  22.951  34.776   8.550
 5287POPC   C2B27536  22.927  34.863   8.250
 5287POPC   C3B27537  22.906  34.827   7.950
 5287POPC   C4B27538  22.951  34.828   7.650
 5288POPC   NC327539  33.836  36.126   9.450
 5288POPC   PO427540  33.811  36.156   9.150
 5288POPC   GL127541  33.828  36.152   8.850
 5288POPC   GL227542  33.892  36.169   8.850
 5288POPC   C1A27543  33.756  36.145   8.550
 5288POPC   D2A27544  33.762  36.084   8.250
 5288POPC   C3A27545  33.759  36.167   7.950
 5288POPC   C4A27546  33.840  36.144   7.650
 5288POPC   C1B27547  33.985  36.297   8.550
 5288POPC   C2B27548  33.996  36.242   8.250
 5288POPC   C3B27549  33.944  36.336   7.950
 5288POPC   C4B27550  33.987  36.283   7.650
 5289POPC   NC327551  39.262  17.484   9.450
 5289POPC   PO427552  39.212  17.469   9.150
 5289POPC   GL127553  39.259  17.556   8.850
 5289POPC   GL227554  39.280  17.581   8.850
 5289POPC   C1A27555  39.213  17.525   8.550
 5289POPC   D2A27556  39.212  17.475   8.250
 5289POPC   C3A27557  39.264  17.550   7.950
 5289POPC   C4A27558  39.197  17.518   7.650
 5289POPC   C1B27559  39.301  17.751   8.550
 5289POPC   C2B27560  39.371  17.761   8.250
 5289POPC   C3B27561  39.362  17.736   7.950
 5289POPC   C4B27562  39.299  17.774   7.650
 5290POPC   NC327563  37.687  15.961   9.450
 5290POPC   PO427564  37.722  15.906   9.150
 5290POPC   GL127565  37.636  16.001   8.850
 5290POPC   GL227566  37.680  16.124   8.850
 5290POPC   C1A27567  37.644  15.938   8.550
 5290POPC   D2A27568  37.686  15.923   8.250
 5290POPC   C3A27569  37.686  15.982   7.950
 5290POPC   C4A27570  37.726  15.931   7.650
 5290POPC   C1B27571  37.660  16.193   8.550
 5290POPC   C2B27572  37.752  16.241   8.250
 5290POPC   C3B27573  37.729  16.171   7.950
 5290POPC   C4B27574  37.738  16.243   7.650
 5291POPC   NC327575  19.869   7.403   9.450
 5291POPC   PO427576  19.839   7.407   9.150
 5291POPC   GL127577  19.819   7.453   8.850
 5291POPC   GL227578  19.787   7.297   8.850
 5291POPC   C1A27579  19.870   7.430   8.550
 5291POPC   D2A27580  19.817   7.389   8.250
 5291POPC   C3A27581  19.864   7.455   7.950
 5291POPC   C4A27582  19.817   7.470   7.650
 5291POPC   C1B27583  19.759   7.233   8.550
 5291POPC   C2B27584  19.698   7.146   8.250
 5291POPC   C3B27585  19.772   7.155   7.950
 5291POPC   C4B27586  19.699   7.193   7.650
 5292POPC   NC327587  10.498   5.091   9.450
 5292POPC   PO427588  10.556   5.054   9.150
 5292POPC   GL127589  10.511   5.137   8.850
 5292POPC   GL227590  10.358   5.081   8.850
 5292POPC   C1A27591  10.536   5.112   8.550
 5292POPC   D2A27592  10.491   5.136   8.250
 5292POPC   C3A27593  10.551   5.043   7.950
 5292POPC   C4A27594  10.529   5.123   7.650
 5292POPC   C1B27595  10.235   5.097   8.550
 5292POPC   C2B27596  10.233   5.157   8.250
 5292POPC   C3B27597  10.294   5.162   7.950
 5292POPC   C4B27598  10.244   5.113   7.650
 5293POPC   NC327599  40.016  35.345   9.450
 5293POPC   PO427600  40.017  35.357   9.150
 5293POPC   GL127601  40.010  35.307   8.850
 5293POPC   GL227602  40.048  35.183   8.850
 5293POPC   C1A27603  39.965  35.390   8.550
 5293POPC   D2A27604  40.016  35.316   8.250
 5293POPC   C3A27605  39.979  35.338   7.950
 5293POPC   C4A27606  40.018  35.351   7.650
 5293POPC   C1B27607  40.005  35.103   8.550
 5293POPC   C2B27608  39.983  35.077   8.250
 5293POPC   C3B27609  39.963  35.114   7.950
 5293POPC   C4B27610  40.029  35.149   7.650
 5294POPC   NC327611  35.337  25.218   9.450
 5294POPC   PO427612  35.382  25.271   9.150
 5294POPC   GL127613  35.369  25.278   8.850
 5294POPC   GL227614  35.447  25.331   8.850
 5294POPC   C1A27615  35.339  25.275   8.550
 5294POPC   D2A27616  35.365  25.256   8.250
 5294POPC   C3A27617  35.402  25.266   7.950
 5294POPC   C4A27618  35.376  25.229   7.650
 5294POPC   C1B27619  35.548  25.410   8.550
 5294POPC   C2B27620  35.551  25.431   8.250
 5294POPC   C3B27621  35.579  25.447   7.950
 5294POPC   C4B27622  35.576  25.478   7.650
 5295POPC   NC327623  12.032  26.800   9.450
 5295POPC   PO427624  12.046  26.818   9.150
 5295POPC   GL127625  12.116  26.800   8.850
 5295POPC   GL227626  12.212  26.742   8.850
 5295POPC   C1A27627  12.123  26.824   8.550
 5295POPC   D2A27628  12.057  26.829   8.250
 5295POPC   C3A27629  12.038  26.861   7.950
 5295POPC   C4A27630  12.085  26.822   7.650
 5295POPC   C1B27631  12.276  26.764   8.550
 5295POPC   C2B27632  12.347  26.753   8.250
 5295POPC   C3B27633  12.368  26.810   7.950
 5295POPC   C4B27634  12.369  26.716   7.650
 5296POPC   NC327635   8.975  15.955   9.450
 5296POPC   PO427636   8.948  15.930   9.150
 5296POPC   GL127637   8.969  15.954   8.850
 5296POPC   GL227638   9.112  16.022   8.850
 5296POPC   C1A27639   8.960  15.968   8.550
 5296POPC   D2A27640   8.964  15.959   8.250
 5296POPC   C3A27641   8.973  15.936   7.950
 5296POPC   C4A27642   9.013  15.925   7.650
 5296POPC   C1B27643   9.217  16.069   8.550
 5296POPC   C2B27644   9.180  16.053   8.250
 5296POPC   C3B27645   9.151  16.093   7.950
 5296POPC   C4B27646   9.230  16.071   7.650
 5297POPC   NC327647  43.072  41.608   9.450
 5297POPC   PO427648  43.115  41.573   9.150
 5297POPC   GL127649  43.104  41.548   8.850
 5297POPC   GL227650  43.060  41.652   8.850
 5297POPC   C1A27651  43.143  41.529   8.550
 5297POPC   D2A27652  43.098  41.536   8.250
 5297POPC   C3A27653  43.105  41.533   7.950
 5297POPC   C4A27654  43.079  41.555   7.650
 5297POPC   C1B27655  42.963  41.685   8.550
 5297POPC   C2B27656  42.904  41.744   8.250
 5297POPC   C3B27657  42.955  41.736   7.950
 5297POPC   C4B27658  42.912  41.683   7.650
 5298POPC   NC327659   1.166  12.029   9.450
 5298POPC   PO427660   1.247  12.121   9.150
 5298POPC   GL127661   1.177  12.029   8.850
 5298POPC   GL227662   1.313  11.939   8.850
 5298POPC   C1A27663   1.216  12.061   8.550
 5298POPC   D2A27664   1.228  12.072   8.250
 5298POPC   C3A27665   1.212  12.119   7.950
 5298POPC   C4A27666   1.245  12.113   7.650
 5298POPC   C1B27667   1.340  11.856   8.550
 5298POPC   C2B27668   1.300  11.834   8.250
 5298POPC   C3B27669   1.354  11.879   7.950
 5298POPC   C4B27670   1.354  11.862   7.650
 5299POPC   NC327671  43.836  17.534   9.450
 5299POPC   PO427672  43.849  17.537   9.150
 5299POPC   GL127673  43.872  17.497   8.850
 5299POPC   GL227674  44.003  17.659   8.850
 5299POPC   C1A27675  43.933  17.488   8.550
 5299POPC   D2A27676  43.872  17.541   8.250
 5299POPC   C3A27677  43.868  17.490   7.950
 5299POPC   C4A27678  43.866  17.511   7.650
 5299POPC   C1B27679  44.051  17.740   8.550
 5299POPC   C2B27680  44.019  17.678   8.250
 5299POPC   C3B27681  44.057  17.675   7.950
 5299POPC   C4B27682  44.036  17.736   7.650
 5300POPC   NC327683  39.225  39.203   9.450
 5300POPC   PO427684  39.227  39.240   9.150
 5300POPC   GL127685  39.209  39.261   8.850
 5300POPC   GL227686  39.235  39.124   8.850
 5300POPC   C1A27687  39.184  39.195   8.550
 5300POPC   D2A27688  39.263  39.241   8.250
 5300POPC   C3A27689  39.188  39.214   7.950
 5300POPC   C4A27690  39.220  39.225   7.650
 5300POPC   C1B27691  39.344  39.048   8.550
 5300POPC   C2B27692  39.355  38.971   8.250
 5300POPC   C3B27693  39.327  39.013   7.950
 5300POPC   C4B27694  39.327  39.008   7.650
 5301POPC   NC327695  30.663  34.560   9.450
 5301POPC   PO427696  30.729  34.552   9.150
 5301POPC   GL127697  30.738  34.613   8.850
 5301POPC   GL227698  30.788  34.513   8.850
 5301POPC   C1A27699  30.690  34.572   8.550
 5301POPC   D2A27700  30.660  34.610   8.250
 5301POPC   C3A27701  30.659  34.557   7.950
 5301POPC   C4A27702  30.745  34.557   7.650
 5301POPC   C1B27703  30.903  34.499   8.550
 5301POPC   C2B27704  30.922  34.509   8.250
 5301POPC   C3B27705  30.975  34.543   7.950
 5301POPC   C4B27706  30.978  34.491   7.650
 5302POPC   NC327707  28.360  29.971   9.450
 5302POPC   PO427708  28.397  29.945   9.150
 5302POPC   GL127709  28.359  29.927   8.850
 5302POPC   GL227710  28.447  29.822   8.850
 5302POPC   C1A27711  28.405  29.919   8.550
 5302POPC   D2A27712  28.416  29.913   8.250
 5302POPC   C3A27713  28.395  29.878   7.950
 5302POPC   C4A27714  28.383  29.895   7.650
 5302POPC   C1B27715  28.508  29.780   8.550
 5302POPC   C2B27716  28.521  29.785   8.250
 5302POPC   C3B27717  28.526  29.786   7.950
 5302POPC   C4B27718  28.512  29.725   7.650
 5303POPC   NC327719   5.132   8.246   9.450
 5303POPC   PO427720   5.090   8.233   9.150
 5303POPC   GL127721   5.112   8.195   8.850
 5303POPC   GL227722   5.035   8.350   8.850
 5303POPC   C1A27723   5.075   8.159   8.550
 5303POPC   D2A27724   5.093   8.147   8.250
 5303POPC   C3A27725   5.053   8.197   7.950
 5303POPC   C4A27726   5.104   8.229   7.650
 5303POPC   C1B27727   5.012   8.401   8.550
 5303POPC   C2B27728   4.976   8.437   8.250
 5303POPC   C3B27729   4.980   8.485   7.950
 5303POPC   C4B27730   4.983   8.477   7.650
 5304POPC   NC327731  35.346   5.820   9.450
 5304POPC   PO427732  35.359   5.882   9.150
 5304POPC   GL127733  35.329   5.841   8.850
 5304POPC   GL227734  35.458   5.980   8.850
 5304POPC   C1A27735  35.377   5.890   8.550
 5304POPC   D2A27736  35.339   5.880   8.250
 5304POPC   C3A27737  35.388   5.895   7.950
 5304POPC   C4A27738  35.303   5.867   7.650
 5304POPC   C1B27739  35.550   6.016   8.550
 5304POPC   C2B27740  35.588   5.999   8.250
 5304POPC   C3B27741  35.526   5.969   7.950
 5304POPC   C4B27742  35.519   6.053   7.650
 5305POPC   NC327743  24.458  41.551   9.450
 5305POPC   PO427744  24.527  41.562   9.150
 5305POPC   GL127745  24.532  41.538   8.850
 5305POPC   GL227746  24.420  41.453   8.850
 5305POPC   C1A27747  24.522  41.597   8.550
 5305POPC   D2A27748  24.513  41.538   8.250
 5305POPC   C3A27749  24.482  41.528   7.950
 5305POPC   C4A27750  24.537  41.563   7.650
 5305POPC   C1B27751  24.323  41.389   8.550
 5305POPC   C2B27752  24.256  41.417   8.250
 5305POPC   C3B27753  24.313  41.381   7.950
 5305POPC   C4B27754  24.309  41.460   7.650
 5306POPC   NC327755  20.579  24.476   9.450
 5306POPC   PO427756  20.651  24.523   9.150
 5306POPC   GL127757  20.631  24.450   8.850
 5306POPC   GL227758  20.487  24.457   8.850
 5306POPC   C1A27759  20.583  24.442   8.550
 5306POPC   D2A27760  20.576  24.447   8.250
 5306POPC   C3A27761  20.623  24.454   7.950
 5306POPC   C4A27762  20.655  24.487   7.650
 5306POPC   C1B27763  20.311  24.480   8.550
 5306POPC   C2B27764  20.348  24.523   8.250
 5306POPC   C3B27765  20.390  24.520   7.950
 5306POPC   C4B27766  20.385  24.492   7.650
 5307POPC   NC327767  40.785   8.978   9.450
 5307POPC   PO427768  40.829   8.929   9.150
 5307POPC   GL127769  40.812   8.926   8.850
 5307POPC   GL227770  40.679   8.948   8.850
 5307POPC   C1A27771  40.828   9.012   8.550
 5307POPC   D2A27772  40.813   8.961   8.250
 5307POPC   C3A27773  40.814   8.923   7.950
 5307POPC   C4A27774  40.805   8.968   7.650
 5307POPC   C1B27775  40.594   8.874   8.550
 5307POPC   C2B27776  40.603   8.834   8.250
 5307POPC   C3B27777  40.547   8.872   7.950
 5307POPC   C4B27778  40.526   8.834   7.650
 5308POPC   NC327779  10.495   6.694   9.450
 5308POPC   PO427780  10.492   6.659   9.150
 5308POPC   GL127781  10.548   6.647   8.850
 5308POPC   GL227782  10.493   6.569   8.850
 5308POPC   C1A27783  10.551   6.680   8.550
 5308POPC   D2A27784  10.548   6.665   8.250
 5308POPC   C3A27785  10.568   6.618   7.950
 5308POPC   C4A27786  10.483   6.661   7.650
 5308POPC   C1B27787  10.496   6.387   8.550
 5308POPC   C2B27788  10.582   6.408   8.250
 5308POPC   C3B27789  10.560   6.429   7.950
 5308POPC   C4B27790  10.514   6.413   7.650
 5309POPC   NC327791   2.737   4.346   9.450
 5309POPC   PO427792   2.758   4.339   9.150
 5309POPC   GL127793   2.798   4.310   8.850
 5309POPC   GL227794   2.801   4.469   8.850
 5309POPC   C1A27795   2.773   4.329   8.550
 5309POPC   D2A27796   2.763   4.340   8.250
 5309POPC   C3A27797   2.780   4.315   7.950
 5309POPC   C4A27798   2.742   4.327   7.650
 5309POPC   C1B27799   2.865   4.598   8.550
 5309POPC   C2B27800   2.823   4.529   8.250
 5309POPC   C3B27801   2.824   4.576   7.950
 5309POPC   C4B27802   2.894   4.554   7.650
 5310POPC   NC327803  22.194  36.876   9.450
 5310POPC   PO427804  22.155  36.891   9.150
 5310POPC   GL127805  22.189  36.877   8.850
 5310POPC   GL227806  22.213  36.767   8.850
 5310POPC   C1A27807  22.160  36.861   8.550
 5310POPC   D2A27808  22.196  36.932   8.250
 5310POPC   C3A27809  22.184  36.863   7.950
 5310POPC   C4A27810  22.175  36.941   7.650
 5310POPC   C1B27811  22.314  36.719   8.550
 5310POPC   C2B27812  22.258  36.699   8.250
 5310POPC   C3B27813  22.288  36.724   7.950
 5310POPC   C4B27814  22.307  36.710   7.650
 5311POPC   NC327815   8.226  35.400   9.450
 5311POPC   PO427816   8.241  35.396   9.150
 5311POPC   GL127817   8.226  35.332   8.850
 5311POPC   GL227818   8.053  35.295   8.850
 5311POPC   C1A27819   8.225  35.358   8.550
 5311POPC   D2A27820   8.229  35.381   8.250
 5311POPC   C3A27821   8.168  35.355   7.950
 5311POPC   C4A27822   8.195  35.350   7.650
 5311POPC   C1B27823   7.934  35.253   8.550
 5311POPC   C2B27824   7.907  35.323   8.250
 5311POPC   C3B27825   7.909  35.301   7.950
 5311POPC   C4B27826   7.934  35.266   7.650
 5312POPC   NC327827  16.686  29.185   9.450
 5312POPC   PO427828  16.736  29.168   9.150
 5312POPC   GL127829  16.751  29.171   8.850
 5312POPC   GL227830  16.670  28.975   8.850
 5312POPC   C1A27831  16.696  29.174   8.550
 5312POPC   D2A27832  16.713  29.133   8.250
 5312POPC   C3A27833  16.767  29.181   7.950
 5312POPC   C4A27834  16.775  29.188   7.650
 5312POPC   C1B27835  16.638  28.930   8.550
 5312POPC   C2B27836  16.713  28.907   8.250
 5312POPC   C3B27837  16.679  28.881   7.950
 5312POPC   C4B27838  16.720  28.922   7.650
 5313POPC   NC327839  35.372   6.616   9.450
 5313POPC   PO427840  35.381   6.663   9.150
 5313POPC   GL127841  35.316   6.682   8.850
 5313POPC   GL227842  35.445   6.543   8.850
 5313POPC   C1A27843  35.345   6.604   8.550
 5313POPC   D2A27844  35.308   6.649   8.250
 5313POPC   C3A27845  35.377   6.646   7.950
 5313POPC   C4A27846  35.328   6.674   7.650
 5313POPC   C1B27847  35.494   6.510   8.550
 5313POPC   C2B27848  35.510   6.501   8.250
 5313POPC   C3B27849  35.486   6.440   7.950
 5313POPC   C4B27850  35.560   6.446   7.650
 5314POPC   NC327851  15.159  18.264   9.450
 5314POPC   PO427852  15.223  18.316   9.150
 5314POPC   GL127853  15.142  18.321   8.850
 5314POPC   GL227854  15.029  18.313   8.850
 5314POPC   C1A27855  15.172  18.237   8.550
 5314POPC   D2A27856  15.223  18.311   8.250
 5314POPC   C3A27857  15.144  18.321   7.950
 5314POPC   C4A27858  15.167  18.304   7.650
 5314POPC   C1B27859  14.944  18.283   8.550
 5314POPC   C2B27860  14.978  18.250   8.250
 5314POPC   C3B27861  14.911  18.301   7.950
 5314POPC   C4B27862  14.903  18.297   7.650
 5315POPC   NC327863   5.828  11.290   9.450
 5315POPC   PO427864   5.845  11.327   9.150
 5315POPC   GL127865   5.887  11.283   8.850
 5315POPC   GL227866   6.028  11.382   8.850
 5315POPC   C1A27867   5.849  11.331   8.550
 5315POPC   D2A27868   5.829  11.260   8.250
 5315POPC   C3A27869   5.857  11.284   7.950
 5315POPC   C4A27870   5.855  11.286   7.650
 5315POPC   C1B27871   6.114  11.347   8.550
 5315POPC   C2B27872   6.099  11.358   8.250
 5315POPC   C3B27873   6.126  11.336   7.950
 5315POPC   C4B27874   6.117  11.389   7.650
 5316POPC   NC327875   3.513  33.063   9.450
 5316POPC   PO427876   3.505  33.043   9.150
 5316POPC   GL127877   3.513  33.040   8.850
 5316POPC   GL227878   3.527  32.863   8.850
 5316POPC   C1A27879   3.506  33.036   8.550
 5316POPC   D2A27880   3.499  32.978   8.250
 5316POPC   C3A27881   3.513  33.020   7.950
 5316POPC   C4A27882   3.576  33.029   7.650
 5316POPC   C1B27883   3.595  32.793   8.550
 5316POPC   C2B27884   3.573  32.805   8.250
 5316POPC   C3B27885   3.519  32.810   7.950
 5316POPC   C4B27886   3.523  32.796   7.650
 5317POPC   NC327887  19.046  37.641   9.450
 5317POPC   PO427888  19.034  37.707   9.150
 5317POPC   GL127889  19.035  37.647   8.850
 5317POPC   GL227890  19.137  37.744   8.850
 5317POPC   C1A27891  19.030  37.698   8.550
 5317POPC   D2A27892  19.058  37.672   8.250
 5317POPC   C3A27893  19.045  37.715   7.950
 5317POPC   C4A27894  19.074  37.712   7.650
 5317POPC   C1B27895  19.120  37.889   8.550
 5317POPC   C2B27896  19.121  37.870   8.250
 5317POPC   C3B27897  19.153  37.910   7.950
 5317POPC   C4B27898  19.151  37.955   7.650
 5318POPC   NC327899  15.925  17.556   9.450
 5318POPC   PO427900  16.003  17.510   9.150
 5318POPC   GL127901  15.971  17.499   8.850
 5318POPC   GL227902  16.107  17.497   8.850
 5318POPC   C1A27903  15.922  17.537   8.550
 5318POPC   D2A27904  15.990  17.470   8.250
 5318POPC   C3A27905  15.995  17.523   7.950
 5318POPC   C4A27906  16.000  17.483   7.650
 5318POPC   C1B27907  16.169  17.374   8.550
 5318POPC   C2B27908  16.162  17.433   8.250
 5318POPC   C3B27909  16.164  17.458   7.950
 5318POPC   C4B27910  16.154  17.391   7.650
 5319POPC   NC327911  36.134   0.453   9.450
 5319POPC   PO427912  36.166   0.393   9.150
 5319POPC   GL127913  36.128   0.431   8.850
 5319POPC   GL227914  36.239   0.524   8.850
 5319POPC   C1A27915  36.129   0.469   8.550
 5319POPC   D2A27916  36.113   0.432   8.250
 5319POPC   C3A27917  36.096   0.391   7.950
 5319POPC   C4A27918  36.160   0.396   7.650
 5319POPC   C1B27919  36.297   0.637   8.550
 5319POPC   C2B27920  36.224   0.670   8.250
 5319POPC   C3B27921  36.244   0.687   7.950
 5319POPC   C4B27922  36.299   0.652   7.650
 5320POPC   NC327923   3.534  11.345   9.450
 5320POPC   PO427924   3.556  11.331   9.150
 5320POPC   GL127925   3.534  11.309   8.850
 5320POPC   GL227926   3.428  11.269   8.850
 5320POPC   C1A27927   3.553  11.345   8.550
 5320POPC   D2A27928   3.528  11.255   8.250
 5320POPC   C3A27929   3.560  11.293   7.950
 5320POPC   C4A27930   3.545  11.326   7.650
 5320POPC   C1B27931   3.290  11.254   8.550
 5320POPC   C2B27932   3.263  11.241   8.250
 5320POPC   C3B27933   3.255  11.210   7.950
 5320POPC   C4B27934   3.282  11.263   7.650
 5321POPC   NC327935  26.055  27.565   9.450
 5321POPC   PO427936  26.037  27.544   9.150
 5321POPC   GL127937  26.003  27.565   8.850
 5321POPC   GL227938  26.175  27.654   8.850
 5321POPC   C1A27939  26.027  27.554   8.550
 5321POPC   D2A27940  26.033  27.550   8.250
 5321POPC   C3A27941  26.009  27.642   7.950
 5321POPC   C4A27942  26.001  27.563   7.650
 5321POPC   C1B27943  26.255  27.712   8.550
 5321POPC   C2B27944  26.323  27.712   8.250
 5321POPC   C3B27945  26.314  27.708   7.950
 5321POPC   C4B27946  26.244  27.720   7.650
 5322POPC   NC327947  18.251  11.255   9.450
 5322POPC   PO427948  18.284  11.258   9.150
 5322POPC   GL127949  18.300  11.347   8.850
 5322POPC   GL227950  18.384  11.389   8.850
 5322POPC   C1A27951  18.278  11.272   8.550
 5322POPC   D2A27952  18.316  11.288   8.250
 5322POPC   C3A27953  18.330  11.298   7.950
 5322POPC   C4A27954  18.322  11.340   7.650
 5322POPC   C1B27955  18.460  11.549   8.550
 5322POPC   C2B27956  18.374  11.509   8.250
 5322POPC   C3B27957  18.433  11.502   7.950
 5322POPC   C4B27958  18.405  11.539   7.650
 5323POPC   NC327959  10.516  42.292   9.450
 5323POPC   PO427960  10.511  42.349   9.150
 5323POPC   GL127961  10.521  42.316   8.850
 5323POPC   GL227962  10.576  42.215   8.850
 5323POPC   C1A27963  10.532  42.383   8.550
 5323POPC   D2A27964  10.556  42.367   8.250
 5323POPC   C3A27965  10.538  42.299   7.950
 5323POPC   C4A27966  10.562  42.326   7.650
 5323POPC   C1B27967  10.694  42.227   8.550
 5323POPC   C2B27968  10.771  42.152   8.250
 5323POPC   C3B27969  10.681  42.207   7.950
 5323POPC   C4B27970  10.755  42.147   7.650
 5324POPC   NC327971  43.913   5.847   9.450
 5324POPC   PO427972  43.871   5.852   9.150
 5324POPC   GL127973  43.924   5.822   8.850
 5324POPC   GL227974  43.872   5.722   8.850
 5324POPC   C1A27975  43.851   5.836   8.550
 5324POPC   D2A27976  43.913   5.883   8.250
 5324POPC   C3A27977  43.885   5.904   7.950
 5324POPC   C4A27978  43.886   5.864   7.650
 5324POPC   C1B27979  43.860   5.635   8.550
 5324POPC   C2B27980  43.934   5.627   8.250
 5324POPC   C3B27981  43.900   5.584   7.950
 5324POPC   C4B27982  43.886   5.596   7.650
 5325POPC   NC327983   9.792  24.454   9.450
 5325POPC   PO427984   9.764  24.538   9.150
 5325POPC   GL127985   9.786  24.450   8.850
 5325POPC   GL227986   9.669  24.567   8.850
 5325POPC   C1A27987   9.772  24.490   8.550
 5325POPC   D2A27988   9.733  24.462   8.250
 5325POPC   C3A27989   9.711  24.449   7.950
 5325POPC   C4A27990   9.767  24.511   7.650
 5325POPC   C1B27991   9.495  24.632   8.550
 5325POPC   C2B27992   9.493  24.575   8.250
 5325POPC   C3B27993   9.486  24.600   7.950
 5325POPC   C4B27994   9.559  24.555   7.650
 5326POPC   NC327995  16.746  37.656   9.450
 5326POPC   PO427996  16.741  37.701   9.150
 5326POPC   GL127997  16.735  37.643   8.850
 5326POPC   GL227998  16.818  37.816   8.850
 5326POPC   C1A27999  16.711  37.668   8.550
 5326POPC   D2A28000  16.735  37.677   8.250
 5326POPC   C3A28001  16.734  37.716   7.950
 5326POPC   C4A28002  16.686  37.699   7.650
 5326POPC   C1B28003  16.888  37.918   8.550
 5326POPC   C2B28004  16.811  37.892   8.250
 5326POPC   C3B28005  16.816  37.919   7.950
 5326POPC   C4B28006  16.900  37.945   7.650
 5327POPC   NC328007  11.305  35.337   9.450
 5327POPC   PO428008  11.326  35.331   9.150
 5327POPC   GL128009  11.288  35.317   8.850
 5327POPC   GL228010  11.239  35.469   8.850
 5327POPC   C1A28011  11.273  35.377   8.550
 5327POPC   D2A28012  11.313  35.392   8.250
 5327POPC   C3A28013  11.320  35.339   7.950
 5327POPC   C4A28014  11.329  35.366   7.650
 5327POPC   C1B28015  11.104  35.476   8.550
 5327POPC   C2B28016  11.119  35.463   8.250
 5327POPC   C3B28017  11.115  35.461   7.950
 5327POPC   C4B28018  11.116  35.511   7.650
 5328POPC   NC328019  43.851  23.740   9.450
 5328POPC   PO428020  43.930  23.723   9.150
 5328POPC   GL128021  43.902  23.699   8.850
 5328POPC   GL228022  43.944  23.783   8.850
 5328POPC   C1A28023  43.917  23.762   8.550
 5328POPC   D2A28024  43.876  23.673   8.250
 5328POPC   C3A28025  43.921  23.702   7.950
 5328POPC   C4A28026  43.857  23.733   7.650
 5328POPC   C1B28027  44.044  23.888   8.550
 5328POPC   C2B28028  44.013  23.912   8.250
 5328POPC   C3B28029  44.025  23.912   7.950
 5328POPC   C4B28030  44.044  23.902   7.650
 5329POPC   NC328031   1.994  29.124   9.450
 5329POPC   PO428032   1.974  29.101   9.150
 5329POPC   GL128033   2.003  29.134   8.850
 5329POPC   GL228034   1.861  29.130   8.850
 5329POPC   C1A28035   1.941  29.129   8.550
 5329POPC   D2A28036   1.955  29.129   8.250
 5329POPC   C3A28037   2.034  29.106   7.950
 5329POPC   C4A28038   2.037  29.180   7.650
 5329POPC   C1B28039   1.763  29.106   8.550
 5329POPC   C2B28040   1.744  29.167   8.250
 5329POPC   C3B28041   1.710  29.165   7.950
 5329POPC   C4B28042   1.733  29.116   7.650
 5330POPC   NC328043   8.926   1.995   9.450
 5330POPC   PO428044   8.985   1.979   9.150
 5330POPC   GL128045   8.962   2.004   8.850
 5330POPC   GL228046   8.983   2.132   8.850
 5330POPC   C1A28047   8.950   1.967   8.550
 5330POPC   D2A28048   8.934   1.994   8.250
 5330POPC   C3A28049   9.003   2.025   7.950
 5330POPC   C4A28050   8.952   2.006   7.650
 5330POPC   C1B28051   8.928   2.211   8.550
 5330POPC   C2B28052   8.884   2.233   8.250
 5330POPC   C3B28053   8.952   2.251   7.950
 5330POPC   C4B28054   8.951   2.203   7.650
 5331POPC   NC328055  29.180   8.194   9.450
 5331POPC   PO428056  29.189   8.193   9.150
 5331POPC   GL128057  29.128   8.247   8.850
 5331POPC   GL228058  29.312   8.132   8.850
 5331POPC   C1A28059  29.113   8.182   8.550
 5331POPC   D2A28060  29.122   8.158   8.250
 5331POPC   C3A28061  29.114   8.212   7.950
 5331POPC   C4A28062  29.129   8.172   7.650
 5331POPC   C1B28063  29.359   8.117   8.550
 5331POPC   C2B28064  29.368   8.100   8.250
 5331POPC   C3B28065  29.360   8.059   7.950
 5331POPC   C4B28066  29.399   8.131   7.650
 5332POPC   NC328067  19.816  41.591   9.450
 5332POPC   PO428068  19.873  41.581   9.150
 5332POPC   GL128069  19.871  41.592   8.850
 5332POPC   GL228070  19.822  41.416   8.850
 5332POPC   C1A28071  19.812  41.560   8.550
 5332POPC   D2A28072  19.800  41.539   8.250
 5332POPC   C3A28073  19.817  41.563   7.950
 5332POPC   C4A28074  19.839  41.570   7.650
 5332POPC   C1B28075  19.738  41.350   8.550
 5332POPC   C2B28076  19.692  41.356   8.250
 5332POPC   C3B28077  19.784  41.329   7.950
 5332POPC   C4B28078  19.765  41.330   7.650
 5333POPC   NC328079  40.016  42.285   9.450
 5333POPC   PO428080  39.990  42.315   9.150
 5333POPC   GL128081  39.990  42.326   8.850
 5333POPC   GL228082  40.033  42.496   8.850
 5333POPC   C1A28083  39.973  42.380   8.550
 5333POPC   D2A28084  40.027  42.344   8.250
 5333POPC   C3A28085  39.995  42.334   7.950
 5333POPC   C4A28086  40.047  42.330   7.650
 5333POPC   C1B28087  40.075  42.574   8.550
 5333POPC   C2B28088  40.037  42.590   8.250
 5333POPC   C3B28089  40.003  42.533   7.950
 5333POPC   C4B28090  40.059  42.533   7.650
 5334POPC   NC328091  18.318   1.995   9.450
 5334POPC   PO428092  18.244   2.020   9.150
 5334POPC   GL128093  18.320   2.024   8.850
 5334POPC   GL228094  18.437   2.015   8.850
 5334POPC   C1A28095  18.262   1.977   8.550
 5334POPC   D2A28096  18.293   1.950   8.250
 5334POPC   C3A28097  18.268   2.019   7.950
 5334POPC   C4A28098  18.283   1.982   7.650
 5334POPC   C1B28099  18.558   1.974   8.550
 5334POPC   C2B28100  18.492   2.030   8.250
 5334POPC   C3B28101  18.523   1.952   7.950
 5334POPC   C4B28102  18.571   1.988   7.650
 5335POPC   NC328103  22.923  25.225   9.450
 5335POPC   PO428104  22.971  25.223   9.150
 5335POPC   GL128105  22.926  25.250   8.850
 5335POPC   GL228106  22.961  25.187   8.850
 5335POPC   C1A28107  22.986  25.219   8.550
 5335POPC   D2A28108  22.931  25.239   8.250
 5335POPC   C3A28109  22.958  25.254   7.950
 5335POPC   C4A28110  22.919  25.280   7.650
 5335POPC   C1B28111  22.977  24.972   8.550
 5335POPC   C2B28112  22.957  25.040   8.250
 5335POPC   C3B28113  22.959  24.979   7.950
 5335POPC   C4B28114  22.967  25.019   7.650
 5336POPC   NC328115  22.173  37.729   9.450
 5336POPC   PO428116  22.121  37.678   9.150
 5336POPC   GL128117  22.164  37.698   8.850
 5336POPC   GL228118  22.169  37.605   8.850
 5336POPC   C1A28119  22.177  37.668   8.550
 5336POPC   D2A28120  22.157  37.696   8.250
 5336POPC   C3A28121  22.174  37.646   7.950
 5336POPC   C4A28122  22.115  37.630   7.650
 5336POPC   C1B28123  22.225  37.431   8.550
 5336POPC   C2B28124  22.218  37.460   8.250
 5336POPC   C3B28125  22.227  37.397   7.950
 5336POPC   C4B28126  22.246  37.440   7.650
 5337POPC   NC328127   9.759  14.354   9.450
 5337POPC   PO428128   9.790  14.395   9.150
 5337POPC   GL128129   9.763  14.381   8.850
 5337POPC   GL228130   9.815  14.505   8.850
 5337POPC   C1A28131   9.737  14.448   8.550
 5337POPC   D2A28132   9.790  14.417   8.250
 5337POPC   C3A28133   9.787  14.363   7.950
 5337POPC   C4A28134   9.716  14.369   7.650
 5337POPC   C1B28135   9.825  14.680   8.550
 5337POPC   C2B28136   9.810  14.647   8.250
 5337POPC   C3B28137   9.783  14.620   7.950
 5337POPC   C4B28138   9.840  14.672   7.650
 5338POPC   NC328139   9.012  33.805   9.450
 5338POPC   PO428140   8.937  33.791   9.150
 5338POPC   GL128141   9.004  33.773   8.850
 5338POPC   GL228142   8.880  33.871   8.850
 5338POPC   C1A28143   8.932  33.838   8.550
 5338POPC   D2A28144   8.931  33.767   8.250
 5338POPC   C3A28145   8.925  33.838   7.950
 5338POPC   C4A28146   8.977  33.801   7.650
 5338POPC   C1B28147   8.758  34.012   8.550
 5338POPC   C2B28148   8.819  33.969   8.250
 5338POPC   C3B28149   8.818  33.951   7.950
 5338POPC   C4B28150   8.756  33.948   7.650
 5339POPC   NC328151  27.605   5.836   9.450
 5339POPC   PO428152  27.578   5.858   9.150
 5339POPC   GL128153  27.608   5.883   8.850
 5339POPC   GL228154  27.584   5.959   8.850
 5339POPC   C1A28155  27.598   5.865   8.550
 5339POPC   D2A28156  27.631   5.848   8.250
 5339POPC   C3A28157  27.567   5.859   7.950
 5339POPC   C4A28158  27.565   5.888   7.650
 5339POPC   C1B28159  27.543   6.122   8.550
 5339POPC   C2B28160  27.540   6.154   8.250
 5339POPC   C3B28161  27.520   6.136   7.950
 5339POPC   C4B28162  27.513   6.101   7.650
 5340POPC   NC328163  20.658   9.016   9.450
 5340POPC   PO428164  20.651   9.002   9.150
 5340POPC   GL128165  20.657   8.995   8.850
 5340POPC   GL228166  20.736   9.043   8.850
 5340POPC   C1A28167  20.652   8.929   8.550
 5340POPC   D2A28168  20.649   8.961   8.250
 5340POPC   C3A28169  20.641   9.002   7.950
 5340POPC   C4A28170  20.634   8.995   7.650
 5340POPC   C1B28171  20.788   9.151   8.550
 5340POPC   C2B28172  20.810   9.198   8.250
 5340POPC   C3B28173  20.731   9.151   7.950
 5340POPC   C4B28174  20.767   9.137   7.650
 5341POPC   NC328175  21.426  40.053   9.450
 5341POPC   PO428176  21.351  40.038   9.150
 5341POPC   GL128177  21.374  39.995   8.850
 5341POPC   GL228178  21.243  40.000   8.850
 5341POPC   C1A28179  21.349  39.978   8.550
 5341POPC   D2A28180  21.349  39.973   8.250
 5341POPC   C3A28181  21.412  40.021   7.950
 5341POPC   C4A28182  21.415  40.019   7.650
 5341POPC   C1B28183  21.148  40.040   8.550
 5341POPC   C2B28184  21.112  40.014   8.250
 5341POPC   C3B28185  21.137  40.019   7.950
 5341POPC   C4B28186  21.118  40.010   7.650
 5342POPC   NC328187   8.164  32.297   9.450
 5342POPC   PO428188   8.233  32.211   9.150
 5342POPC   GL128189   8.240  32.225   8.850
 5342POPC   GL228190   8.280  32.215   8.850
 5342POPC   C1A28191   8.231  32.254   8.550
 5342POPC   D2A28192   8.181  32.202   8.250
 5342POPC   C3A28193   8.239  32.211   7.950
 5342POPC   C4A28194   8.156  32.250   7.650
 5342POPC   C1B28195   8.460  32.180   8.550
 5342POPC   C2B28196   8.450  32.176   8.250
 5342POPC   C3B28197   8.409  32.181   7.950
 5342POPC   C4B28198   8.484  32.167   7.650
 5343POPC   NC328199   1.210  40.775   9.450
 5343POPC   PO428200   1.203  40.741   9.150
 5343POPC   GL128201   1.244  40.785   8.850
 5343POPC   GL228202   1.237  40.917   8.850
 5343POPC   C1A28203   1.236  40.744   8.550
 5343POPC   D2A28204   1.227  40.747   8.250
 5343POPC   C3A28205   1.165  40.755   7.950
 5343POPC   C4A28206   1.165  40.775   7.650
 5343POPC   C1B28207   1.223  41.028   8.550
 5343POPC   C2B28208   1.262  41.068   8.250
 5343POPC   C3B28209   1.261  41.040   7.950
 5343POPC   C4B28210   1.246  41.029   7.650
 5344POPC   NC328211  42.322  34.595   9.450
 5344POPC   PO428212  42.379  34.535   9.150
 5344POPC   GL128213  42.380  34.540   8.850
 5344POPC   GL228214  42.349  34.432   8.850
 5344POPC   C1A28215  42.318  34.625   8.550
 5344POPC   D2A28216  42.380  34.593   8.250
 5344POPC   C3A28217  42.361  34.600   7.950
 5344POPC   C4A28218  42.320  34.528   7.650
 5344POPC   C1B28219  42.356  34.288   8.550
 5344POPC   C2B28220  42.320  34.294   8.250
 5344POPC   C3B28221  42.265  34.363   7.950
 5344POPC   C4B28222  42.289  34.328   7.650
 5345POPC   NC328223  42.323   1.990   9.450
 5345POPC   PO428224  42.360   1.992   9.150
 5345POPC   GL128225  42.300   2.007   8.850
 5345POPC   GL228226  42.280   2.076   8.850
 5345POPC   C1A28227  42.363   1.979   8.550
 5345POPC   D2A28228  42.367   2.032   8.250
 5345POPC   C3A28229  42.361   1.984   7.950
 5345POPC   C4A28230  42.360   2.035   7.650
 5345POPC   C1B28231  42.235   2.235   8.550
 5345POPC   C2B28232  42.245   2.234   8.250
 5345POPC   C3B28233  42.183   2.194   7.950
 5345POPC   C4B28234  42.237   2.180   7.650
 5346POPC   NC328235  40.827  27.601   9.450
 5346POPC   PO428236  40.802  27.580   9.150
 5346POPC   GL128237  40.801  27.639   8.850
 5346POPC   GL228238  40.786  27.515   8.850
 5346POPC   C1A28239  40.737  27.547   8.550
 5346POPC   D2A28240  40.769  27.619   8.250
 5346POPC   C3A28241  40.815  27.614   7.950
 5346POPC   C4A28242  40.829  27.592   7.650
 5346POPC   C1B28243  40.823  27.380   8.550
 5346POPC   C2B28244  40.734  27.333   8.250
 5346POPC   C3B28245  40.753  27.333   7.950
 5346POPC   C4B28246  40.789  27.350   7.650
 5347POPC   NC328247  32.205  33.035   9.450
 5347POPC   PO428248  32.265  33.058   9.150
 5347POPC   GL128249  32.234  32.980   8.850
 5347POPC   GL228250  32.357  33.070   8.850
 5347POPC   C1A28251  32.290  33.053   8.550
 5347POPC   D2A28252  32.209  32.990   8.250
 5347POPC   C3A28253  32.211  33.007   7.950
 5347POPC   C4A28254  32.233  33.048   7.650
 5347POPC   C1B28255  32.537  33.100   8.550
 5347POPC   C2B28256  32.464  33.115   8.250
 5347POPC   C3B28257  32.481  33.068   7.950
 5347POPC   C4B28258  32.472  33.081   7.650
 5348POPC   NC328259  32.257  38.418   9.450
 5348POPC   PO428260  32.252  38.417   9.150
 5348POPC   GL128261  32.204  38.486   8.850
 5348POPC   GL228262  32.287  38.338   8.850
 5348POPC   C1A28263  32.203  38.460   8.550
 5348POPC   D2A28264  32.260  38.426   8.250
 5348POPC   C3A28265  32.210  38.451   7.950
 5348POPC   C4A28266  32.270  38.448   7.650
 5348POPC   C1B28267  32.212  38.212   8.550
 5348POPC   C2B28268  32.265  38.245   8.250
 5348POPC   C3B28269  32.236  38.199   7.950
 5348POPC   C4B28270  32.197  38.199   7.650
 5349POPC   NC328271   9.743  37.719   9.450
 5349POPC   PO428272   9.795  37.695   9.150
 5349POPC   GL128273   9.714  37.634   8.850
 5349POPC   GL228274   9.816  37.544   8.850
 5349POPC   C1A28275   9.715  37.685   8.550
 5349POPC   D2A28276   9.729  37.663   8.250
 5349POPC   C3A28277   9.771  37.665   7.950
 5349POPC   C4A28278   9.739  37.646   7.650
 5349POPC   C1B28279   9.883  37.469   8.550
 5349POPC   C2B28280   9.888  37.454   8.250
 5349POPC   C3B28281   9.859  37.465   7.950
 5349POPC   C4B28282   9.851  37.442   7.650
 5350POPC   NC328283  33.790  24.507   9.450
 5350POPC   PO428284  33.817  24.512   9.150
 5350POPC   GL128285  33.836  24.492   8.850
 5350POPC   GL228286  33.740  24.347   8.850
 5350POPC   C1A28287  33.823  24.495   8.550
 5350POPC   D2A28288  33.843  24.463   8.250
 5350POPC   C3A28289  33.832  24.510   7.950
 5350POPC   C4A28290  33.829  24.473   7.650
 5350POPC   C1B28291  33.653  24.232   8.550
 5350POPC   C2B28292  33.711  24.243   8.250
 5350POPC   C3B28293  33.724  24.291   7.950
 5350POPC   C4B28294  33.663  24.315   7.650
 5351POPC   NC328295  36.903   3.577   9.450
 5351POPC   PO428296  36.890   3.559   9.150
 5351POPC   GL128297  36.895   3.565   8.850
 5351POPC   GL228298  36.838   3.433   8.850
 5351POPC   C1A28299  36.889   3.559   8.550
 5351POPC   D2A28300  36.893   3.495   8.250
 5351POPC   C3A28301  36.877   3.497   7.950
 5351POPC   C4A28302  36.914   3.499   7.650
 5351POPC   C1B28303  36.887   3.269   8.550
 5351POPC   C2B28304  36.822   3.260   8.250
 5351POPC   C3B28305  36.856   3.331   7.950
 5351POPC   C4B28306  36.871   3.324   7.650
 5352POPC   NC328307  37.638  22.909   9.450
 5352POPC   PO428308  37.649  22.941   9.150
 5352POPC   GL128309  37.650  22.922   8.850
 5352POPC   GL228310  37.617  22.998   8.850
 5352POPC   C1A28311  37.649  22.959   8.550
 5352POPC   D2A28312  37.672  22.930   8.250
 5352POPC   C3A28313  37.693  22.923   7.950
 5352POPC   C4A28314  37.639  22.889   7.650
 5352POPC   C1B28315  37.496  23.077   8.550
 5352POPC   C2B28316  37.500  23.086   8.250
 5352POPC   C3B28317  37.463  23.041   7.950
 5352POPC   C4B28318  37.439  23.034   7.650
 5353POPC   NC328319  29.933  43.071   9.450
 5353POPC   PO428320  29.939  43.118   9.150
 5353POPC   GL128321  29.901  43.113   8.850
 5353POPC   GL228322  29.999  43.033   8.850
 5353POPC   C1A28323  29.949  43.115   8.550
 5353POPC   D2A28324  29.938  43.151   8.250
 5353POPC   C3A28325  29.937  43.091   7.950
 5353POPC   C4A28326  29.960  43.105   7.650
 5353POPC   C1B28327  30.106  42.899   8.550
 5353POPC   C2B28328  30.081  42.962   8.250
 5353POPC   C3B28329  30.085  42.948   7.950
 5353POPC   C4B28330  30.072  42.904   7.650
 5354POPC   NC328331  36.906   7.381   9.450
 5354POPC   PO428332  36.927   7.413   9.150
 5354POPC   GL128333  36.883   7.377   8.850
 5354POPC   GL228334  36.789   7.328   8.850
 5354POPC   C1A28335  36.869   7.372   8.550
 5354POPC   D2A28336  36.922   7.404   8.250
 5354POPC   C3A28337  36.923   7.381   7.950
 5354POPC   C4A28338  36.897   7.436   7.650
 5354POPC   C1B28339  36.744   7.237   8.550
 5354POPC   C2B28340  36.685   7.324   8.250
 5354POPC   C3B28341  36.740   7.293   7.950
 5354POPC   C4B28342  36.696   7.281   7.650
 5355POPC   NC328343   9.798  22.173   9.450
 5355POPC   PO428344   9.713  22.201   9.150
 5355POPC   GL128345   9.793  22.129   8.850
 5355POPC   GL228346   9.649  22.228   8.850
 5355POPC   C1A28347   9.768  22.177   8.550
 5355POPC   D2A28348   9.735  22.173   8.250
 5355POPC   C3A28349   9.767  22.164   7.950
 5355POPC   C4A28350   9.705  22.163   7.650
 5355POPC   C1B28351   9.607  22.329   8.550
 5355POPC   C2B28352   9.555  22.364   8.250
 5355POPC   C3B28353   9.592  22.346   7.950
 5355POPC   C4B28354   9.550  22.380   7.650
 5356POPC   NC328355  12.824  22.157   9.450
 5356POPC   PO428356  12.815  22.172   9.150
 5356POPC   GL128357  12.840  22.192   8.850
 5356POPC   GL228358  12.945  22.150   8.850
 5356POPC   C1A28359  12.873  22.118   8.550
 5356POPC   D2A28360  12.832  22.191   8.250
 5356POPC   C3A28361  12.827  22.171   7.950
 5356POPC   C4A28362  12.864  22.132   7.650
 5356POPC   C1B28363  13.082  22.206   8.550
 5356POPC   C2B28364  13.102  22.236   8.250
 5356POPC   C3B28365  13.076  22.172   7.950
 5356POPC   C4B28366  13.123  22.157   7.650
 5357POPC   NC328367   5.049  21.347   9.450
 5357POPC   PO428368   5.050  21.391   9.150
 5357POPC   GL128369   5.050  21.346   8.850
 5357POPC   GL228370   5.031  21.476   8.850
 5357POPC   C1A28371   5.090  21.343   8.550
 5357POPC   D2A28372   5.080  21.390   8.250
 5357POPC   C3A28373   5.094  21.361   7.950
 5357POPC   C4A28374   5.065  21.401   7.650
 5357POPC   C1B28375   5.068  21.667   8.550
 5357POPC   C2B28376   5.065  21.621   8.250
 5357POPC   C3B28377   5.081  21.661   7.950
 5357POPC   C4B28378   5.059  21.672   7.650
 5358POPC   NC328379   1.226  36.136   9.450
 5358POPC   PO428380   1.247  36.140   9.150
 5358POPC   GL128381   1.218  36.157   8.850
 5358POPC   GL228382   1.147  36.021   8.850
 5358POPC   C1A28383   1.220  36.106   8.550
 5358POPC   D2A28384   1.190  36.171   8.250
 5358POPC   C3A28385   1.231  36.088   7.950
 5358POPC   C4A28386   1.182  36.160   7.650
 5358POPC   C1B28387   1.046  35.954   8.550
 5358POPC   C2B28388   1.058  35.968   8.250
 5358POPC   C3B28389   1.026  35.967   7.950
 5358POPC   C4B28390   1.030  35.914   7.650
 5359POPC   NC328391  36.886  39.208   9.450
 5359POPC   PO428392  36.858  39.216   9.150
 5359POPC   GL128393  36.924  39.243   8.850
 5359POPC   GL228394  36.994  39.296   8.850
 5359POPC   C1A28395  36.876  39.187   8.550
 5359POPC   D2A28396  36.943  39.214   8.250
 5359POPC   C3A28397  36.945  39.193   7.950
 5359POPC   C4A28398  36.944  39.205   7.650
 5359POPC   C1B28399  37.028  39.404   8.550
 5359POPC   C2B28400  37.041  39.377   8.250
 5359POPC   C3B28401  37.109  39.414   7.950
 5359POPC   C4B28402  37.047  39.471   7.650
 5360POPC   NC328403  26.797  21.347   9.450
 5360POPC   PO428404  26.798  21.338   9.150
 5360POPC   GL128405  26.818  21.350   8.850
 5360POPC   GL228406  26.659  21.432   8.850
 5360POPC   C1A28407  26.858  21.430   8.550
 5360POPC   D2A28408  26.806  21.354   8.250
 5360POPC   C3A28409  26.844  21.358   7.950
 5360POPC   C4A28410  26.845  21.383   7.650
 5360POPC   C1B28411  26.593  21.408   8.550
 5360POPC   C2B28412  26.562  21.475   8.250
 5360POPC   C3B28413  26.580  21.450   7.950
 5360POPC   C4B28414  26.543  21.489   7.650
 5361POPC   NC328415   3.577  29.186   9.450
 5361POPC   PO428416   3.573  29.130   9.150
 5361POPC   GL128417   3.571  29.132   8.850
 5361POPC   GL228418   3.478  29.271   8.850
 5361POPC   C1A28419   3.548  29.175   8.550
 5361POPC   D2A28420   3.572  29.165   8.250
 5361POPC   C3A28421   3.572  29.096   7.950
 5361POPC   C4A28422   3.524  29.116   7.650
 5361POPC   C1B28423   3.404  29.311   8.550
 5361POPC   C2B28424   3.397  29.351   8.250
 5361POPC   C3B28425   3.438  29.327   7.950
 5361POPC   C4B28426   3.439  29.315   7.650
 5362POPC   NC328427  20.626   7.441   9.450
 5362POPC   PO428428  20.595   7.371   9.150
 5362POPC   GL128429  20.622   7.471   8.850
 5362POPC   GL228430  20.552   7.326   8.850
 5362POPC   C1A28431  20.608   7.377   8.550
 5362POPC   D2A28432  20.598   7.438   8.250
 5362POPC   C3A28433  20.615   7.418   7.950
 5362POPC   C4A28434  20.637   7.460   7.650
 5362POPC   C1B28435  20.382   7.248   8.550
 5362POPC   C2B28436  20.433   7.275   8.250
 5362POPC   C3B28437  20.357   7.249   7.950
 5362POPC   C4B28438  20.387   7.287   7.650
 5363POPC   NC328439  11.306   1.250   9.450
 5363POPC   PO428440  11.333   1.182   9.150
 5363POPC   GL128441  11.319   1.232   8.850
 5363POPC   GL228442  11.441   1.310   8.850
 5363POPC   C1A28443  11.286   1.209   8.550
 5363POPC   D2A28444  11.260   1.221   8.250
 5363POPC   C3A28445  11.329   1.180   7.950
 5363POPC   C4A28446  11.323   1.205   7.650
 5363POPC   C1B28447  11.469   1.353   8.550
 5363POPC   C2B28448  11.485   1.316   8.250
 5363POPC   C3B28449  11.494   1.408   7.950
 5363POPC   C4B28450  11.523   1.393   7.650
 5364POPC   NC328451   1.996  37.639   9.450
 5364POPC   PO428452   1.968  37.707   9.150
 5364POPC   GL128453   1.992  37.661   8.850
 5364POPC   GL228454   1.856  37.688   8.850
 5364POPC   C1A28455   2.000  37.720   8.550
 5364POPC   D2A28456   2.021  37.676   8.250
 5364POPC   C3A28457   1.996  37.698   7.950
 5364POPC   C4A28458   1.993  37.637   7.650
 5364POPC   C1B28459   1.715  37.675   8.550
 5364POPC   C2B28460   1.711  37.691   8.250
 5364POPC   C3B28461   1.757  37.610   7.950
 5364POPC   C4B28462   1.721  37.668   7.650
 5365POPC   NC328463  22.945   4.301   9.450
 5365POPC   PO428464  22.972   4.345   9.150
 5365POPC   GL128465  22.927   4.286   8.850
 5365POPC   GL228466  23.023   4.313   8.850
 5365POPC   C1A28467  22.967   4.335   8.550
 5365POPC   D2A28468  22.915   4.278   8.250
 5365POPC   C3A28469  22.955   4.267   7.950
 5365POPC   C4A28470  22.924   4.287   7.650
 5365POPC   C1B28471  23.197   4.196   8.550
 5365POPC   C2B28472  23.151   4.269   8.250
 5365POPC   C3B28473  23.144   4.265   7.950
 5365POPC   C4B28474  23.141   4.260   7.650
 5366POPC   NC328475  35.397  36.898   9.450
 5366POPC   PO428476  35.347  36.938   9.150
 5366POPC   GL128477  35.361  36.923   8.850
 5366POPC   GL228478  35.408  37.015   8.850
 5366POPC   C1A28479  35.384  36.917   8.550
 5366POPC   D2A28480  35.390  36.871   8.250
 5366POPC   C3A28481  35.352  36.882   7.950
 5366POPC   C4A28482  35.327  36.869   7.650
 5366POPC   C1B28483  35.514  37.098   8.550
 5366POPC   C2B28484  35.506  37.085   8.250
 5366POPC   C3B28485  35.531  37.054   7.950
 5366POPC   C4B28486  35.546  37.006   7.650
 5367POPC   NC328487  19.801  10.486   9.450
 5367POPC   PO428488  19.823  10.479   9.150
 5367POPC   GL128489  19.852  10.537   8.850
 5367POPC   GL228490  19.867  10.390   8.850
 5367POPC   C1A28491  19.838  10.510   8.550
 5367POPC   D2A28492  19.803  10.524   8.250
 5367POPC   C3A28493  19.872  10.544   7.950
 5367POPC   C4A28494  19.829  10.561   7.650
 5367POPC   C1B28495  19.870  10.265   8.550
 5367POPC   C2B28496  19.959  10.272   8.250
 5367POPC   C3B28497  19.956  10.324   7.950
 5367POPC   C4B28498  19.945  10.259   7.650
 5368POPC   NC328499  31.510  20.618   9.450
 5368POPC   PO428500  31.453  20.567   9.150
 5368POPC   GL128501  31.451  20.568   8.850
 5368POPC   GL228502  31.505  20.679   8.850
 5368POPC   C1A28503  31.433  20.564   8.550
 5368POPC   D2A28504  31.452  20.598   8.250
 5368POPC   C3A28505  31.448  20.636   7.950
 5368POPC   C4A28506  31.438  20.568   7.650
 5368POPC   C1B28507  31.607  20.841   8.550
 5368POPC   C2B28508  31.583  20.830   8.250
 5368POPC   C3B28509  31.533  20.883   7.950
 5368POPC   C4B28510  31.585  20.829   7.650
 5369POPC   NC328511  33.756  38.457   9.450
 5369POPC   PO428512  33.815  38.489   9.150
 5369POPC   GL128513  33.821  38.492   8.850
 5369POPC   GL228514  33.779  38.598   8.850
 5369POPC   C1A28515  33.832  38.485   8.550
 5369POPC   D2A28516  33.824  38.458   8.250
 5369POPC   C3A28517  33.778  38.490   7.950
 5369POPC   C4A28518  33.759  38.434   7.650
 5369POPC   C1B28519  33.706  38.713   8.550
 5369POPC   C2B28520  33.649  38.682   8.250
 5369POPC   C3B28521  33.641  38.643   7.950
 5369POPC   C4B28522  33.695  38.664   7.650
 5370POPC   NC328523  19.095  10.560   9.450
 5370POPC   PO428524  19.069  10.574   9.150
 5370POPC   GL128525  19.089  10.573   8.850
 5370POPC   GL228526  19.011  10.402   8.850
 5370POPC   C1A28527  19.073  10.572   8.550
 5370POPC   D2A28528  19.065  10.561   8.250
 5370POPC   C3A28529  19.074  10.556   7.950
 5370POPC   C4A28530  19.108  10.551   7.650
 5370POPC   C1B28531  18.901  10.270   8.550
 5370POPC   C2B28532  18.942  10.328   8.250
 5370POPC   C3B28533  18.932  10.318   7.950
 5370POPC   C4B28534  18.926  10.358   7.650
 5371POPC   NC328535   3.514  25.220   9.450
 5371POPC   PO428536   3.510  25.308   9.150
 5371POPC   GL128537   3.560  25.288   8.850
 5371POPC   GL228538   3.479  25.341   8.850
 5371POPC   C1A28539   3.585  25.302   8.550
 5371POPC   D2A28540   3.552  25.266   8.250
 5371POPC   C3A28541   3.570  25.262   7.950
 5371POPC   C4A28542   3.493  25.289   7.650
 5371POPC   C1B28543   3.460  25.441   8.550
 5371POPC   C2B28544   3.452  25.456   8.250
 5371POPC   C3B28545   3.437  25.450   7.950
 5371POPC   C4B28546   3.427  25.507   7.650
 5372POPC   NC328547  40.001  41.530   9.450
 5372POPC   PO428548  40.048  41.565   9.150
 5372POPC   GL128549  39.982  41.554   8.850
 5372POPC   GL228550  40.001  41.635   8.850
 5372POPC   C1A28551  40.054  41.539   8.550
 5372POPC   D2A28552  40.009  41.555   8.250
 5372POPC   C3A28553  39.985  41.525   7.950
 5372POPC   C4A28554  39.969  41.528   7.650
 5372POPC   C1B28555  39.971  41.847   8.550
 5372POPC   C2B28556  40.005  41.828   8.250
 5372POPC   C3B28557  40.019  41.856   7.950
 5372POPC   C4B28558  40.014  41.844   7.650
 5373POPC   NC328559   0.396  36.857   9.450
 5373POPC   PO428560   0.444  36.892   9.150
 5373POPC   GL128561   0.484  36.855   8.850
 5373POPC   GL228562   0.313  36.929   8.850
 5373POPC   C1A28563   0.432  36.881   8.550
 5373POPC   D2A28564   0.425  36.932   8.250
 5373POPC   C3A28565   0.411  36.859   7.950
 5373POPC   C4A28566   0.401  36.887   7.650
 5373POPC   C1B28567   0.227  36.882   8.550
 5373POPC   C2B28568   0.169  36.964   8.250
 5373POPC   C3B28569   0.183  36.909   7.950
 5373POPC   C4B28570   0.231  36.912   7.650
 5374POPC   NC328571  33.011  22.160   9.450
 5374POPC   PO428572  33.043  22.146   9.150
 5374POPC   GL128573  33.026  22.132   8.850
 5374POPC   GL228574  33.015  22.251   8.850
 5374POPC   C1A28575  32.999  22.131   8.550
 5374POPC   D2A28576  33.021  22.129   8.250
 5374POPC   C3A28577  32.997  22.157   7.950
 5374POPC   C4A28578  33.046  22.137   7.650
 5374POPC   C1B28579  33.019  22.442   8.550
 5374POPC   C2B28580  33.014  22.427   8.250
 5374POPC   C3B28581  33.040  22.398   7.950
 5374POPC   C4B28582  32.995  22.429   7.650
 5375POPC   NC328583  36.134   5.067   9.450
 5375POPC   PO428584  36.121   5.132   9.150
 5375POPC   GL128585  36.104   5.104   8.850
 5375POPC   GL228586  36.046   5.060   8.850
 5375POPC   C1A28587  36.130   5.113   8.550
 5375POPC   D2A28588  36.148   5.092   8.250
 5375POPC   C3A28589  36.141   5.056   7.950
 5375POPC   C4A28590  36.145   5.086   7.650
 5375POPC   C1B28591  35.948   4.949   8.550
 5375POPC   C2B28592  35.953   5.020   8.250
 5375POPC   C3B28593  35.903   4.955   7.950
 5375POPC   C4B28594  35.916   4.929   7.650
 5376POPC   NC328595  17.527  13.605   9.450
 5376POPC   PO428596  17.486  13.668   9.150
 5376POPC   GL128597  17.489  13.667   8.850
 5376POPC   GL228598  17.666  13.636   8.850
 5376POPC   C1A28599  17.526  13.602   8.550
 5376POPC   D2A28600  17.476  13.589   8.250
 5376POPC   C3A28601  17.513  13.604   7.950
 5376POPC   C4A28602  17.517  13.596   7.650
 5376POPC   C1B28603  17.742  13.680   8.550
 5376POPC   C2B28604  17.719  13.663   8.250
 5376POPC   C3B28605  17.795  13.636   7.950
 5376POPC   C4B28606  17.791  13.723   7.650
 5377POPC   NC328607  43.102  13.637   9.450
 5377POPC   PO428608  43.157  13.619   9.150
 5377POPC   GL128609  43.139  13.592   8.850
 5377POPC   GL228610  43.113  13.753   8.850
 5377POPC   C1A28611  43.106  13.603   8.550
 5377POPC   D2A28612  43.135  13.584   8.250
 5377POPC   C3A28613  43.071  13.644   7.950
 5377POPC   C4A28614  43.158  13.622   7.650
 5377POPC   C1B28615  43.086  13.856   8.550
 5377POPC   C2B28616  43.062  13.878   8.250
 5377POPC   C3B28617  43.033  13.868   7.950
 5377POPC   C4B28618  43.076  13.919   7.650
 5378POPC   NC328619   5.103  10.574   9.450
 5378POPC   PO428620   5.090  10.481   9.150
 5378POPC   GL128621   5.088  10.563   8.850
 5378POPC   GL228622   5.093  10.629   8.850
 5378POPC   C1A28623   5.050  10.484   8.550
 5378POPC   D2A28624   5.115  10.487   8.250
 5378POPC   C3A28625   5.125  10.502   7.950
 5378POPC   C4A28626   5.138  10.514   7.650
 5378POPC   C1B28627   5.036  10.765   8.550
 5378POPC   C2B28628   5.049  10.737   8.250
 5378POPC   C3B28629   5.067  10.763   7.950
 5378POPC   C4B28630   5.068  10.772   7.650
 5379POPC   NC328631  12.049   0.426   9.450
 5379POPC   PO428632  12.064   0.411   9.150
 5379POPC   GL128633  12.035   0.407   8.850
 5379POPC   GL228634  12.071   0.519   8.850
 5379POPC   C1A28635  12.037   0.445   8.550
 5379POPC   D2A28636  12.103   0.429   8.250
 5379POPC   C3A28637  12.115   0.476   7.950
 5379POPC   C4A28638  12.119   0.419   7.650
 5379POPC   C1B28639  12.133   0.685   8.550
 5379POPC   C2B28640  12.086   0.691   8.250
 5379POPC   C3B28641  12.076   0.659   7.950
 5379POPC   C4B28642  12.138   0.685   7.650
 5380POPC   NC328643  32.279  36.880   9.450
 5380POPC   PO428644  32.254  36.887   9.150
 5380POPC   GL128645  32.206  36.911   8.850
 5380POPC   GL228646  32.206  37.038   8.850
 5380POPC   C1A28647  32.199  36.942   8.550
 5380POPC   D2A28648  32.278  36.906   8.250
 5380POPC   C3A28649  32.279  36.886   7.950
 5380POPC   C4A28650  32.257  36.911   7.650
 5380POPC   C1B28651  32.222  37.184   8.550
 5380POPC   C2B28652  32.210  37.165   8.250
 5380POPC   C3B28653  32.198  37.193   7.950
 5380POPC   C4B28654  32.152  37.178   7.650
 5381POPC   NC328655  35.308  29.940   9.450
 5381POPC   PO428656  35.336  29.911   9.150
 5381POPC   GL128657  35.394  29.890   8.850
 5381POPC   GL228658  35.352  30.085   8.850
 5381POPC   C1A28659  35.401  29.876   8.550
 5381POPC   D2A28660  35.387  29.944   8.250
 5381POPC   C3A28661  35.339  29.958   7.950
 5381POPC   C4A28662  35.332  29.915   7.650
 5381POPC   C1B28663  35.286  30.201   8.550
 5381POPC   C2B28664  35.299  30.141   8.250
 5381POPC   C3B28665  35.296  30.174   7.950
 5381POPC   C4B28666  35.359  30.146   7.650
 5382POPC   NC328667  12.057  15.221   9.450
 5382POPC   PO428668  12.051  15.200   9.150
 5382POPC   GL128669  12.050  15.166   8.850
 5382POPC   GL228670  12.097  15.290   8.850
 5382POPC   C1A28671  12.070  15.198   8.550
 5382POPC   D2A28672  12.086  15.175   8.250
 5382POPC   C3A28673  12.087  15.214   7.950
 5382POPC   C4A28674  12.112  15.157   7.650
 5382POPC   C1B28675  12.165  15.411   8.550
 5382POPC   C2B28676  12.098  15.443   8.250
 5382POPC   C3B28677  12.087  15.450   7.950
 5382POPC   C4B28678  12.121  15.428   7.650
 5383POPC   NC328679  38.491  29.112   9.450
 5383POPC   PO428680  38.466  29.158   9.150
 5383POPC   GL128681  38.476  29.138   8.850
 5383POPC   GL228682  38.358  29.180   8.850
 5383POPC   C1A28683  38.483  29.191   8.550
 5383POPC   D2A28684  38.449  29.175   8.250
 5383POPC   C3A28685  38.487  29.128   7.950
 5383POPC   C4A28686  38.459  29.116   7.650
 5383POPC   C1B28687  38.192  29.173   8.550
 5383POPC   C2B28688  38.257  29.201   8.250
 5383POPC   C3B28689  38.204  29.213   7.950
 5383POPC   C4B28690  38.225  29.189   7.650
 5384POPC   NC328691  43.905  31.471   9.450
 5384POPC   PO428692  43.867  31.466   9.150
 5384POPC   GL128693  43.891  31.456   8.850
 5384POPC   GL228694  43.752  31.497   8.850
 5384POPC   C1A28695  43.869  31.488   8.550
 5384POPC   D2A28696  43.868  31.499   8.250
 5384POPC   C3A28697  43.906  31.471   7.950
 5384POPC   C4A28698  43.875  31.508   7.650
 5384POPC   C1B28699  43.662  31.465   8.550
 5384POPC   C2B28700  43.596  31.436   8.250
 5384POPC   C3B28701  43.668  31.508   7.950
 5384POPC   C4B28702  43.656  31.510   7.650
 5385POPC   NC328703  17.555  38.414   9.450
 5385POPC   PO428704  17.475  38.454   9.150
 5385POPC   GL128705  17.494  38.457   8.850
 5385POPC   GL228706  17.401  38.591   8.850
 5385POPC   C1A28707  17.468  38.415   8.550
 5385POPC   D2A28708  17.467  38.487   8.250
 5385POPC   C3A28709  17.494  38.498   7.950
 5385POPC   C4A28710  17.526  38.434   7.650
 5385POPC   C1B28711  17.314  38.695   8.550
 5385POPC   C2B28712  17.331  38.667   8.250
 5385POPC   C3B28713  17.344  38.635   7.950
 5385POPC   C4B28714  17.397  38.622   7.650
 5386POPC   NC328715  33.800   2.004   9.450
 5386POPC   PO428716  33.826   2.037   9.150
 5386POPC   GL128717  33.829   1.990   8.850
 5386POPC   GL228718  33.889   1.829   8.850
 5386POPC   C1A28719  33.783   2.009   8.550
 5386POPC   D2A28720  33.838   1.992   8.250
 5386POPC   C3A28721  33.775   1.992   7.950
 5386POPC   C4A28722  33.826   1.997   7.650
 5386POPC   C1B28723  33.943   1.777   8.550
 5386POPC   C2B28724  33.880   1.731   8.250
 5386POPC   C3B28725  33.876   1.716   7.950
 5386POPC   C4B28726  33.926   1.804   7.650
 5387POPC   NC328727   1.198  10.546   9.450
 5387POPC   PO428728   1.249  10.484   9.150
 5387POPC   GL128729   1.199  10.504   8.850
 5387POPC   GL228730   1.088  10.422   8.850
 5387POPC   C1A28731   1.228  10.543   8.550
 5387POPC   D2A28732   1.220  10.497   8.250
 5387POPC   C3A28733   1.230  10.489   7.950
 5387POPC   C4A28734   1.197  10.526   7.650
 5387POPC   C1B28735   0.980  10.378   8.550
 5387POPC   C2B28736   0.980  10.446   8.250
 5387POPC   C3B28737   1.010  10.429   7.950
 5387POPC   C4B28738   1.001  10.441   7.650
 5388POPC   NC328739  43.902  44.670   9.450
 5388POPC   PO428740  43.896  44.648   9.150
 5388POPC   GL128741  43.882  44.680   8.850
 5388POPC   GL228742  43.983  44.718   8.850
 5388POPC   C1A28743  43.853  44.613   8.550
 5388POPC   D2A28744  43.848  44.658   8.250
 5388POPC   C3A28745  43.890  44.613   7.950
 5388POPC   C4A28746  43.839  44.672   7.650
 5388POPC   C1B28747  44.054  44.782   8.550
 5388POPC   C2B28748  44.108  44.826   8.250
 5388POPC   C3B28749  44.087  44.838   7.950
 5388POPC   C4B28750  44.107  44.877   7.650
 5389POPC   NC328751  13.626  20.646   9.450
 5389POPC   PO428752  13.642  20.638   9.150
 5389POPC   GL128753  13.670  20.599   8.850
 5389POPC   GL228754  13.712  20.654   8.850
 5389POPC   C1A28755  13.641  20.609   8.550
 5389POPC   D2A28756  13.634  20.563   8.250
 5389POPC   C3A28757  13.590  20.574   7.950
 5389POPC   C4A28758  13.595  20.597   7.650
 5389POPC   C1B28759  13.913  20.669   8.550
 5389POPC   C2B28760  13.907  20.620   8.250
 5389POPC   C3B28761  13.917  20.647   7.950
 5389POPC   C4B28762  13.875  20.649   7.650
 5390POPC   NC328763  37.723  31.469   9.450
 5390POPC   PO428764  37.672  31.493   9.150
 5390POPC   GL128765  37.670  31.491   8.850
 5390POPC   GL228766  37.833  31.429   8.850
 5390POPC   C1A28767  37.630  31.466   8.550
 5390POPC   D2A28768  37.665  31.506   8.250
 5390POPC   C3A28769  37.687  31.495   7.950
 5390POPC   C4A28770  37.636  31.485   7.650
 5390POPC   C1B28771  37.901  31.510   8.550
 5390POPC   C2B28772  37.904  31.441   8.250
 5390POPC   C3B28773  37.943  31.517   7.950
 5390POPC   C4B28774  37.899  31.434   7.650
 5391POPC   NC328775  24.499  27.577   9.450
 5391POPC   PO428776  24.441  27.566   9.150
 5391POPC   GL128777  24.502  27.565   8.850
 5391POPC   GL228778  24.530  27.498   8.850
 5391POPC   C1A28779  24.530  27.641   8.550
 5391POPC   D2A28780  24.539  27.600   8.250
 5391POPC   C3A28781  24.469  27.577   7.950
 5391POPC   C4A28782  24.523  27.580   7.650
 5391POPC   C1B28783  24.472  27.301   8.550
 5391POPC   C2B28784  24.491  27.333   8.250
 5391POPC   C3B28785  24.530  27.379   7.950
 5391POPC   C4B28786  24.470  27.387   7.650
 5392POPC   NC328787  43.143  21.395   9.450
 5392POPC   PO428788  43.133  21.371   9.150
 5392POPC   GL128789  43.073  21.361   8.850
 5392POPC   GL228790  43.118  21.280   8.850
 5392POPC   C1A28791  43.149  21.413   8.550
 5392POPC   D2A28792  43.137  21.400   8.250
 5392POPC   C3A28793  43.106  21.371   7.950
 5392POPC   C4A28794  43.065  21.371   7.650
 5392POPC   C1B28795  43.178  21.183   8.550
 5392POPC   C2B28796  43.200  21.093   8.250
 5392POPC   C3B28797  43.131  21.123   7.950
 5392POPC   C4B28798  43.132  21.097   7.650
 5393POPC   NC328799  18.246  35.370   9.450
 5393POPC   PO428800  18.235  35.358   9.150
 5393POPC   GL128801  18.331  35.341   8.850
 5393POPC   GL228802  18.402  35.357   8.850
 5393POPC   C1A28803  18.237  35.320   8.550
 5393POPC   D2A28804  18.290  35.375   8.250
 5393POPC   C3A28805  18.267  35.375   7.950
 5393POPC   C4A28806  18.262  35.308   7.650
 5393POPC   C1B28807  18.547  35.346   8.550
 5393POPC   C2B28808  18.483  35.339   8.250
 5393POPC   C3B28809  18.571  35.358   7.950
 5393POPC   C4B28810  18.499  35.276   7.650
 5394POPC   NC328811   3.498  38.473   9.450
 5394POPC   PO428812   3.520  38.435   9.150
 5394POPC   GL128813   3.565  38.503   8.850
 5394POPC   GL228814   3.601  38.521   8.850
 5394POPC   C1A28815   3.563  38.458   8.550
 5394POPC   D2A28816   3.546  38.455   8.250
 5394POPC   C3A28817   3.589  38.474   7.950
 5394POPC   C4A28818   3.544  38.435   7.650
 5394POPC   C1B28819   3.682  38.640   8.550
 5394POPC   C2B28820   3.676  38.662   8.250
 5394POPC   C3B28821   3.646  38.648   7.950
 5394POPC   C4B28822   3.709  38.616   7.650
 5395POPC   NC328823  27.569  39.214   9.450
 5395POPC   PO428824  27.643  39.227   9.150
 5395POPC   GL128825  27.547  39.277   8.850
 5395POPC   GL228826  27.672  39.309   8.850
 5395POPC   C1A28827  27.593  39.269   8.550
 5395POPC   D2A28828  27.550  39.221   8.250
 5395POPC   C3A28829  27.565  39.217   7.950
 5395POPC   C4A28830  27.622  39.255   7.650
 5395POPC   C1B28831  27.733  39.416   8.550
 5395POPC   C2B28832  27.767  39.412   8.250
 5395POPC   C3B28833  27.802  39.406   7.950
 5395POPC   C4B28834  27.795  39.446   7.650
 5396POPC   NC328835  14.388  12.876   9.450
 5396POPC   PO428836  14.379  12.851   9.150
 5396POPC   GL128837  14.394  12.870   8.850
 5396POPC   GL228838  14.367  12.724   8.850
 5396POPC   C1A28839  14.446  12.891   8.550
 5396POPC   D2A28840  14.359  12.848   8.250
 5396POPC   C3A28841  14.361  12.821   7.950
 5396POPC   C4A28842  14.361  12.893   7.650
 5396POPC   C1B28843  14.294  12.680   8.550
 5396POPC   C2B28844  14.256  12.665   8.250
 5396POPC   C3B28845  14.239  12.582   7.950
 5396POPC   C4B28846  14.332  12.676   7.650
 5397POPC   NC328847   4.268  28.342   9.450
 5397POPC   PO428848   4.309  28.388   9.150
 5397POPC   GL128849   4.270  28.412   8.850
 5397POPC   GL228850   4.237  28.244   8.850
 5397POPC   C1A28851   4.322  28.323   8.550
 5397POPC   D2A28852   4.336  28.398   8.250
 5397POPC   C3A28853   4.314  28.379   7.950
 5397POPC   C4A28854   4.283  28.393   7.650
 5397POPC   C1B28855   4.155  28.213   8.550
 5397POPC   C2B28856   4.137  28.229   8.250
 5397POPC   C3B28857   4.144  28.200   7.950
 5397POPC   C4B28858   4.142  28.222   7.650
 5398POPC   NC328859  14.451  25.231   9.450
 5398POPC   PO428860  14.384  25.228   9.150
 5398POPC   GL128861  14.360  25.240   8.850
 5398POPC   GL228862  14.263  25.227   8.850
 5398POPC   C1A28863  14.394  25.271   8.550
 5398POPC   D2A28864  14.408  25.232   8.250
 5398POPC   C3A28865  14.405  25.246   7.950
 5398POPC   C4A28866  14.420  25.284   7.650
 5398POPC   C1B28867  14.217  25.164   8.550
 5398POPC   C2B28868  14.140  25.184   8.250
 5398POPC   C3B28869  14.202  25.194   7.950
 5398POPC   C4B28870  14.138  25.213   7.650
 5399POPC   NC328871   1.966  40.783   9.450
 5399POPC   PO428872   1.957  40.739   9.150
 5399POPC   GL128873   2.019  40.805   8.850
 5399POPC   GL228874   2.045  40.930   8.850
 5399POPC   C1A28875   2.017  40.822   8.550
 5399POPC   D2A28876   2.017  40.737   8.250
 5399POPC   C3A28877   2.012  40.734   7.950
 5399POPC   C4A28878   1.967  40.767   7.650
 5399POPC   C1B28879   2.087  40.971   8.550
 5399POPC   C2B28880   2.129  41.015   8.250
 5399POPC   C3B28881   2.124  40.980   7.950
 5399POPC   C4B28882   2.139  40.992   7.650
 5400POPC   NC328883  23.712  41.546   9.450
 5400POPC   PO428884  23.728  41.532   9.150
 5400POPC   GL128885  23.726  41.526   8.850
 5400POPC   GL228886  23.666  41.723   8.850
 5400POPC   C1A28887  23.725  41.591   8.550
 5400POPC   D2A28888  23.746  41.533   8.250
 5400POPC   C3A28889  23.761  41.587   7.950
 5400POPC   C4A28890  23.743  41.607   7.650
 5400POPC   C1B28891  23.680  41.802   8.550
 5400POPC   C2B28892  23.673  41.799   8.250
 5400POPC   C3B28893  23.698  41.798   7.950
 5400POPC   C4B28894  23.713  41.767   7.650
 5401POPC   NC328895  39.960  29.179   9.450
 5401POPC   PO428896  40.009  29.100   9.150
 5401POPC   GL128897  39.983  29.182   8.850
 5401POPC   GL228898  40.093  29.124   8.850
 5401POPC   C1A28899  40.041  29.169   8.550
 5401POPC   D2A28900  39.979  29.148   8.250
 5401POPC   C3A28901  40.003  29.118   7.950
 5401POPC   C4A28902  40.040  29.168   7.650
 5401POPC   C1B28903  40.249  29.091   8.550
 5401POPC   C2B28904  40.276  29.046   8.250
 5401POPC   C3B28905  40.243  29.117   7.950
 5401POPC   C4B28906  40.200  29.062   7.650
 5402POPC   NC328907  15.986  22.907   9.450
 5402POPC   PO428908  15.943  22.928   9.150
 5402POPC   GL128909  15.950  22.971   8.850
 5402POPC   GL228910  15.947  22.824   8.850
 5402POPC   C1A28911  15.941  22.930   8.550
 5402POPC   D2A28912  15.941  22.949   8.250
 5402POPC   C3A28913  15.932  22.910   7.950
 5402POPC   C4A28914  15.966  22.915   7.650
 5402POPC   C1B28915  15.912  22.722   8.550
 5402POPC   C2B28916  15.907  22.725   8.250
 5402POPC   C3B28917  15.916  22.725   7.950
 5402POPC   C4B28918  15.922  22.727   7.650
 5403POPC   NC328919  22.208  20.634   9.450
 5403POPC   PO428920  22.119  20.646   9.150
 5403POPC   GL128921  22.180  20.566   8.850
 5403POPC   GL228922  22.253  20.716   8.850
 5403POPC   C1A28923  22.146  20.658   8.550
 5403POPC   D2A28924  22.205  20.629   8.250
 5403POPC   C3A28925  22.151  20.568   7.950
 5403POPC   C4A28926  22.210  20.627   7.650
 5403POPC   C1B28927  22.365  20.690   8.550
 5403POPC   C2B28928  22.382  20.758   8.250
 5403POPC   C3B28929  22.356  20.766   7.950
 5403POPC   C4B28930  22.383  20.777   7.650
 5404POPC   NC328931   9.752   8.949   9.450
 5404POPC   PO428932   9.782   8.934   9.150
 5404POPC   GL128933   9.786   8.985   8.850
 5404POPC   GL228934   9.654   9.099   8.850
 5404POPC   C1A28935   9.789   9.009   8.550
 5404POPC   D2A28936   9.749   9.011   8.250
 5404POPC   C3A28937   9.786   9.003   7.950
 5404POPC   C4A28938   9.786   8.933   7.650
 5404POPC   C1B28939   9.599   9.175   8.550
 5404POPC   C2B28940   9.593   9.135   8.250
 5404POPC   C3B28941   9.652   9.223   7.950
 5404POPC   C4B28942   9.593   9.188   7.650
 5405POPC   NC328943  22.977  42.379   9.450
 5405POPC   PO428944  22.979  42.302   9.150
 5405POPC   GL128945  22.941  42.325   8.850
 5405POPC   GL228946  23.057  42.424   8.850
 5405POPC   C1A28947  22.929  42.323   8.550
 5405POPC   D2A28948  22.894  42.319   8.250
 5405POPC   C3A28949  22.947  42.338   7.950
 5405POPC   C4A28950  22.924  42.342   7.650
 5405POPC   C1B28951  23.159  42.473   8.550
 5405POPC   C2B28952  23.151  42.515   8.250
 5405POPC   C3B28953  23.089  42.499   7.950
 5405POPC   C4B28954  23.159  42.485   7.650
 5406POPC   NC328955  32.211  19.870   9.450
 5406POPC   PO428956  32.269  19.847   9.150
 5406POPC   GL128957  32.281  19.798   8.850
 5406POPC   GL228958  32.300  19.737   8.850
 5406POPC   C1A28959  32.238  19.820   8.550
 5406POPC   D2A28960  32.234  19.857   8.250
 5406POPC   C3A28961  32.280  19.852   7.950
 5406POPC   C4A28962  32.221  19.847   7.650
 5406POPC   C1B28963  32.371  19.649   8.550
 5406POPC   C2B28964  32.308  19.655   8.250
 5406POPC   C3B28965  32.368  19.631   7.950
 5406POPC   C4B28966  32.373  19.613   7.650
 5407POPC   NC328967   7.386  30.726   9.450
 5407POPC   PO428968   7.455  30.660   9.150
 5407POPC   GL128969   7.404  30.740   8.850
 5407POPC   GL228970   7.384  30.591   8.850
 5407POPC   C1A28971   7.388  30.668   8.550
 5407POPC   D2A28972   7.462  30.675   8.250
 5407POPC   C3A28973   7.405  30.744   7.950
 5407POPC   C4A28974   7.412  30.687   7.650
 5407POPC   C1B28975   7.377  30.430   8.550
 5407POPC   C2B28976   7.411  30.455   8.250
 5407POPC   C3B28977   7.371  30.420   7.950
 5407POPC   C4B28978   7.403  30.404   7.650
 5408POPC   NC328979  16.780  30.670   9.450
 5408POPC   PO428980  16.686  30.659   9.150
 5408POPC   GL128981  16.698  30.669   8.850
 5408POPC   GL228982  16.643  30.568   8.850
 5408POPC   C1A28983  16.733  30.707   8.550
 5408POPC   D2A28984  16.758  30.679   8.250
 5408POPC   C3A28985  16.740  30.661   7.950
 5408POPC   C4A28986  16.771  30.729   7.650
 5408POPC   C1B28987  16.619  30.448   8.550
 5408POPC   C2B28988  16.582  30.449   8.250
 5408POPC   C3B28989  16.630  30.472   7.950
 5408POPC   C4B28990  16.567  30.497   7.650
 5409POPC   NC328991   7.438  43.069   9.450
 5409POPC   PO428992   7.395  43.100   9.150
 5409POPC   GL128993   7.407  43.096   8.850
 5409POPC   GL228994   7.526  43.168   8.850
 5409POPC   C1A28995   7.400  43.148   8.550
 5409POPC   D2A28996   7.450  43.079   8.250
 5409POPC   C3A28997   7.441  43.132   7.950
 5409POPC   C4A28998   7.420  43.068   7.650
 5409POPC   C1B28999   7.628  43.341   8.550
 5409POPC   C2B29000   7.568  43.250   8.250
 5409POPC   C3B29001   7.543  43.310   7.950
 5409POPC   C4B29002   7.565  43.330   7.650
 5410POPC   NC329003  38.487  19.855   9.450
 5410POPC   PO429004  38.477  19.800   9.150
 5410POPC   GL129005  38.425  19.825   8.850
 5410POPC   GL229006  38.454  19.741   8.850
 5410POPC   C1A29007  38.422  19.801   8.550
 5410POPC   D2A29008  38.482  19.810   8.250
 5410POPC   C3A29009  38.414  19.800   7.950
 5410POPC   C4A29010  38.438  19.812   7.650
 5410POPC   C1B29011  38.377  19.548   8.550
 5410POPC   C2B29012  38.376  19.610   8.250
 5410POPC   C3B29013  38.374  19.550   7.950
 5410POPC   C4B29014  38.380  19.583   7.650
 5411POPC   NC329015  40.760  19.797   9.450
 5411POPC   PO429016  40.792  19.805   9.150
 5411POPC   GL129017  40.745  19.837   8.850
 5411POPC   GL229018  40.871  19.825   8.850
 5411POPC   C1A29019  40.785  19.790   8.550
 5411POPC   D2A29020  40.746  19.813   8.250
 5411POPC   C3A29021  40.794  19.785   7.950
 5411POPC   C4A29022  40.777  19.814   7.650
 5411POPC   C1B29023  41.004  19.809   8.550
 5411POPC   C2B29024  41.062  19.822   8.250
 5411POPC   C3B29025  41.029  19.791   7.950
 5411POPC   C4B29026  41.011  19.863   7.650
 5412POPC   NC329027  32.987  32.243   9.450
 5412POPC   PO429028  32.979  32.276   9.150
 5412POPC   GL129029  33.002  32.289   8.850
 5412POPC   GL229030  33.064  32.324   8.850
 5412POPC   C1A29031  33.018  32.295   8.550
 5412POPC   D2A29032  33.040  32.204   8.250
 5412POPC   C3A29033  32.975  32.290   7.950
 5412POPC   C4A29034  33.027  32.218   7.650
 5412POPC   C1B29035  32.960  32.453   8.550
 5412POPC   C2B29036  33.000  32.489   8.250
 5412POPC   C3B29037  33.009  32.494   7.950
 5412POPC   C4B29038  32.994  32.456   7.650
 5413POPC   NC329039   8.994  23.740   9.450
 5413POPC   PO429040   8.963  23.690   9.150
 5413POPC   GL129041   8.954  23.679   8.850
 5413POPC   GL229042   9.054  23.722   8.850
 5413POPC   C1A29043   8.994  23.692   8.550
 5413POPC   D2A29044   8.994  23.698   8.250
 5413POPC   C3A29045   8.979  23.687   7.950
 5413POPC   C4A29046   8.947  23.686   7.650
 5413POPC   C1B29047   9.243  23.664   8.550
 5413POPC   C2B29048   9.165  23.607   8.250
 5413POPC   C3B29049   9.203  23.662   7.950
 5413POPC   C4B29050   9.205  23.684   7.650
 5414POPC   NC329051  40.773  42.320   9.450
 5414POPC   PO429052  40.810  42.381   9.150
 5414POPC   GL129053  40.773  42.307   8.850
 5414POPC   GL229054  40.665  42.236   8.850
 5414POPC   C1A29055  40.821  42.302   8.550
 5414POPC   D2A29056  40.811  42.323   8.250
 5414POPC   C3A29057  40.820  42.329   7.950
 5414POPC   C4A29058  40.772  42.298   7.650
 5414POPC   C1B29059  40.548  42.211   8.550
 5414POPC   C2B29060  40.590  42.185   8.250
 5414POPC   C3B29061  40.511  42.208   7.950
 5414POPC   C4B29062  40.595  42.263   7.650
 5415POPC   NC329063  11.266  36.081   9.450
 5415POPC   PO429064  11.324  36.095   9.150
 5415POPC   GL129065  11.311  36.083   8.850
 5415POPC   GL229066  11.375  36.245   8.850
 5415POPC   C1A29067  11.313  36.170   8.550
 5415POPC   D2A29068  11.257  36.174   8.250
 5415POPC   C3A29069  11.278  36.163   7.950
 5415POPC   C4A29070  11.276  36.094   7.650
 5415POPC   C1B29071  11.508  36.299   8.550
 5415POPC   C2B29072  11.528  36.257   8.250
 5415POPC   C3B29073  11.475  36.343   7.950
 5415POPC   C4B29074  11.471  36.333   7.650
 5416POPC   NC329075  35.369   2.786   9.450
 5416POPC   PO429076  35.326   2.729   9.150
 5416POPC   GL129077  35.389   2.808   8.850
 5416POPC   GL229078  35.317   2.846   8.850
 5416POPC   C1A29079  35.361   2.716   8.550
 5416POPC   D2A29080  35.355   2.789   8.250
 5416POPC   C3A29081  35.358   2.803   7.950
 5416POPC   C4A29082  35.348   2.802   7.650
 5416POPC   C1B29083  35.256   3.053   8.550
 5416POPC   C2B29084  35.350   3.041   8.250
 5416POPC   C3B29085  35.257   3.020   7.950
 5416POPC   C4B29086  35.285   2.966   7.650
 5417POPC   NC329087  12.086  30.721   9.450
 5417POPC   PO429088  12.124  30.686   9.150
 5417POPC   GL129089  12.054  30.731   8.850
 5417POPC   GL229090  12.154  30.839   8.850
 5417POPC   C1A29091  12.071  30.688   8.550
 5417POPC   D2A29092  12.113  30.738   8.250
 5417POPC   C3A29093  12.027  30.708   7.950
 5417POPC   C4A29094  12.074  30.730   7.650
 5417POPC   C1B29095  12.157  30.937   8.550
 5417POPC   C2B29096  12.128  30.943   8.250
 5417POPC   C3B29097  12.092  30.947   7.950
 5417POPC   C4B29098  12.132  30.943   7.650
 5418POPC   NC329099  42.297  23.673   9.450
 5418POPC   PO429100  42.364  23.708   9.150
 5418POPC   GL129101  42.311  23.738   8.850
 5418POPC   GL229102  42.401  23.794   8.850
 5418POPC   C1A29103  42.365  23.684   8.550
 5418POPC   D2A29104  42.337  23.665   8.250
 5418POPC   C3A29105  42.370  23.685   7.950
 5418POPC   C4A29106  42.326  23.672   7.650
 5418POPC   C1B29107  42.517  23.885   8.550
 5418POPC   C2B29108  42.475  23.903   8.250
 5418POPC   C3B29109  42.551  23.866   7.950
 5418POPC   C4B29110  42.525  23.872   7.650
 5419POPC   NC329111   7.438  14.427   9.450
 5419POPC   PO429112   7.428  14.446   9.150
 5419POPC   GL129113   7.461  14.423   8.850
 5419POPC   GL229114   7.502  14.267   8.850
 5419POPC   C1A29115   7.400  14.428   8.550
 5419POPC   D2A29116   7.420  14.438   8.250
 5419POPC   C3A29117   7.410  14.362   7.950
 5419POPC   C4A29118   7.443  14.416   7.650
 5419POPC   C1B29119   7.603  14.251   8.550
 5419POPC   C2B29120   7.563  14.181   8.250
 5419POPC   C3B29121   7.612  14.212   7.950
 5419POPC   C4B29122   7.609  14.230   7.650
 5420POPC   NC329123   5.064  31.497   9.450
 5420POPC   PO429124   5.100  31.424   9.150
 5420POPC   GL129125   5.088  31.501   8.850
 5420POPC   GL229126   5.161  31.548   8.850
 5420POPC   C1A29127   5.064  31.507   8.550
 5420POPC   D2A29128   5.087  31.432   8.250
 5420POPC   C3A29129   5.044  31.514   7.950
 5420POPC   C4A29130   5.114  31.439   7.650
 5420POPC   C1B29131   5.191  31.690   8.550
 5420POPC   C2B29132   5.129  31.721   8.250
 5420POPC   C3B29133   5.151  31.679   7.950
 5420POPC   C4B29134   5.193  31.744   7.650
 5421POPC   NC329135  19.062  15.997   9.450
 5421POPC   PO429136  19.018  15.909   9.150
 5421POPC   GL129137  19.021  15.920   8.850
 5421POPC   GL229138  18.954  15.874   8.850
 5421POPC   C1A29139  19.083  15.922   8.550
 5421POPC   D2A29140  19.010  15.983   8.250
 5421POPC   C3A29141  19.069  15.933   7.950
 5421POPC   C4A29142  19.049  15.978   7.650
 5421POPC   C1B29143  18.841  15.851   8.550
 5421POPC   C2B29144  18.860  15.887   8.250
 5421POPC   C3B29145  18.841  15.859   7.950
 5421POPC   C4B29146  18.864  15.815   7.650
 5422POPC   NC329147  44.660  24.489   9.450
 5422POPC   PO429148  44.612  24.531   9.150
 5422POPC   GL129149  44.678  24.448   8.850
 5422POPC   GL229150  44.661  24.571   8.850
 5422POPC   C1A29151  44.643  24.492   8.550
 5422POPC   D2A29152  44.672  24.500   8.250
 5422POPC   C3A29153  44.630  24.528   7.950
 5422POPC   C4A29154  44.651  24.491   7.650
 5422POPC   C1B29155  44.662  24.728   8.550
 5422POPC   C2B29156  44.584  24.766   8.250
 5422POPC   C3B29157  44.600  24.733   7.950
 5422POPC   C4B29158  44.654  24.774   7.650
 5423POPC   NC329159   6.633  20.604   9.450
 5423POPC   PO429160   6.603  20.588   9.150
 5423POPC   GL129161   6.666  20.600   8.850
 5423POPC   GL229162   6.672  20.733   8.850
 5423POPC   C1A29163   6.595  20.576   8.550
 5423POPC   D2A29164   6.668  20.571   8.250
 5423POPC   C3A29165   6.632  20.610   7.950
 5423POPC   C4A29166   6.655  20.634   7.650
 5423POPC   C1B29167   6.694  20.845   8.550
 5423POPC   C2B29168   6.715  20.841   8.250
 5423POPC   C3B29169   6.758  20.814   7.950
 5423POPC   C4B29170   6.716  20.875   7.650
 5424POPC   NC329171  32.228  32.242   9.450
 5424POPC   PO429172  32.286  32.273   9.150
 5424POPC   GL129173  32.258  32.269   8.850
 5424POPC   GL229174  32.316  32.322   8.850
 5424POPC   C1A29175  32.278  32.253   8.550
 5424POPC   D2A29176  32.253  32.208   8.250
 5424POPC   C3A29177  32.222  32.216   7.950
 5424POPC   C4A29178  32.278  32.280   7.650
 5424POPC   C1B29179  32.498  32.359   8.550
 5424POPC   C2B29180  32.526  32.362   8.250
 5424POPC   C3B29181  32.526  32.332   7.950
 5424POPC   C4B29182  32.450  32.296   7.650
 5425POPC   NC329183  24.534  26.811   9.450
 5425POPC   PO429184  24.486  26.829   9.150
 5425POPC   GL129185  24.461  26.811   8.850
 5425POPC   GL229186  24.504  26.907   8.850
 5425POPC   C1A29187  24.445  26.823   8.550
 5425POPC   D2A29188  24.487  26.768   8.250
 5425POPC   C3A29189  24.517  26.801   7.950
 5425POPC   C4A29190  24.522  26.775   7.650
 5425POPC   C1B29191  24.471  27.044   8.550
 5425POPC   C2B29192  24.456  27.061   8.250
 5425POPC   C3B29193  24.516  27.060   7.950
 5425POPC   C4B29194  24.465  27.085   7.650
 5426POPC   NC329195   4.289   5.840   9.450
 5426POPC   PO429196   4.299   5.825   9.150
 5426POPC   GL129197   4.302   5.879   8.850
 5426POPC   GL229198   4.248   5.948   8.850
 5426POPC   C1A29199   4.276   5.918   8.550
 5426POPC   D2A29200   4.305   5.847   8.250
 5426POPC   C3A29201   4.298   5.902   7.950
 5426POPC   C4A29202   4.341   5.874   7.650
 5426POPC   C1B29203   4.122   5.915   8.550
 5426POPC   C2B29204   4.035   5.983   8.250
 5426POPC   C3B29205   4.115   5.910   7.950
 5426POPC   C4B29206   4.100   5.922   7.650
 5427POPC   NC329207  28.381  35.313   9.450
 5427POPC   PO429208  28.394  35.398   9.150
 5427POPC   GL129209  28.388  35.334   8.850
 5427POPC   GL229210  28.475  35.244   8.850
 5427POPC   C1A29211  28.357  35.384   8.550
 5427POPC   D2A29212  28.385  35.321   8.250
 5427POPC   C3A29213  28.391  35.361   7.950
 5427POPC   C4A29214  28.403  35.398   7.650
 5427POPC   C1B29215  28.549  35.223   8.550
 5427POPC   C2B29216  28.557  35.172   8.250
 5427POPC   C3B29217  28.568  35.148   7.950
 5427POPC   C4B29218  28.567  35.186   7.650
 5428POPC   NC329219  44.621  28.408   9.450
 5428POPC   PO429220  44.709  28.369   9.150
 5428POPC   GL129221  44.685  28.335   8.850
 5428POPC   GL229222  44.539  28.327   8.850
 5428POPC   C1A29223  44.675  28.384   8.550
 5428POPC   D2A29224  44.664  28.341   8.250
 5428POPC   C3A29225  44.663  28.369   7.950
 5428POPC   C4A29226  44.667  28.346   7.650
 5428POPC   C1B29227  44.482  28.238   8.550
 5428POPC   C2B29228  44.435  28.272   8.250
 5428POPC   C3B29229  44.477  28.187   7.950
 5428POPC   C4B29230  44.459  28.240   7.650
 5429POPC   NC329231  20.580  15.173   9.450
 5429POPC   PO429232  20.598  15.224   9.150
 5429POPC   GL129233  20.641  15.213   8.850
 5429POPC   GL229234  20.486  15.241   8.850
 5429POPC   C1A29235  20.582  15.223   8.550
 5429POPC   D2A29236  20.569  15.131   8.250
 5429POPC   C3A29237  20.598  15.226   7.950
 5429POPC   C4A29238  20.573  15.156   7.650
 5429POPC   C1B29239  20.393  15.295   8.550
 5429POPC   C2B29240  20.385  15.298   8.250
 5429POPC   C3B29241  20.446  15.336   7.950
 5429POPC   C4B29242  20.417  15.339   7.650
 5430POPC   NC329243  29.133  41.510   9.450
 5430POPC   PO429244  29.161  41.564   9.150
 5430POPC   GL129245  29.161  41.545   8.850
 5430POPC   GL229246  29.213  41.517   8.850
 5430POPC   C1A29247  29.125  41.543   8.550
 5430POPC   D2A29248  29.146  41.605   8.250
 5430POPC   C3A29249  29.177  41.603   7.950
 5430POPC   C4A29250  29.143  41.597   7.650
 5430POPC   C1B29251  29.359  41.394   8.550
 5430POPC   C2B29252  29.326  41.373   8.250
 5430POPC   C3B29253  29.394  41.406   7.950
 5430POPC   C4B29254  29.367  41.379   7.650
 5431POPC   NC329255   1.179  21.344   9.450
 5431POPC   PO429256   1.240  21.388   9.150
 5431POPC   GL129257   1.212  21.367   8.850
 5431POPC   GL229258   1.361  21.330   8.850
 5431POPC   C1A29259   1.214  21.425   8.550
 5431POPC   D2A29260   1.186  21.355   8.250
 5431POPC   C3A29261   1.196  21.370   7.950
 5431POPC   C4A29262   1.201  21.407   7.650
 5431POPC   C1B29263   1.474  21.253   8.550
 5431POPC   C2B29264   1.416  21.307   8.250
 5431POPC   C3B29265   1.394  21.265   7.950
 5431POPC   C4B29266   1.487  21.292   7.650
 5432POPC   NC329267  36.103   1.954   9.450
 5432POPC   PO429268  36.097   2.032   9.150
 5432POPC   GL129269  36.091   1.990   8.850
 5432POPC   GL229270  36.193   2.091   8.850
 5432POPC   C1A29271  36.167   1.960   8.550
 5432POPC   D2A29272  36.130   2.022   8.250
 5432POPC   C3A29273  36.124   1.955   7.950
 5432POPC   C4A29274  36.176   2.016   7.650
 5432POPC   C1B29275  36.247   2.258   8.550
 5432POPC   C2B29276  36.257   2.234   8.250
 5432POPC   C3B29277  36.250   2.236   7.950
 5432POPC   C4B29278  36.261   2.230   7.650
 5433POPC   NC329279  27.616  34.540   9.450
 5433POPC   PO429280  27.619  34.587   9.150
 5433POPC   GL129281  27.636  34.608   8.850
 5433POPC   GL229282  27.662  34.624   8.850
 5433POPC   C1A29283  27.548  34.623   8.550
 5433POPC   D2A29284  27.625  34.596   8.250
 5433POPC   C3A29285  27.555  34.530   7.950
 5433POPC   C4A29286  27.557  34.568   7.650
 5433POPC   C1B29287  27.799  34.803   8.550
 5433POPC   C2B29288  27.770  34.714   8.250
 5433POPC   C3B29289  27.798  34.734   7.950
 5433POPC   C4B29290  27.724  34.812   7.650
 5434POPC   NC329291  24.451  14.381   9.450
 5434POPC   PO429292  24.492  14.361   9.150
 5434POPC   GL129293  24.532  14.430   8.850
 5434POPC   GL229294  24.547  14.523   8.850
 5434POPC   C1A29295  24.538  14.452   8.550
 5434POPC   D2A29296  24.499  14.379   8.250
 5434POPC   C3A29297  24.491  14.438   7.950
 5434POPC   C4A29298  24.453  14.369   7.650
 5434POPC   C1B29299  24.668  14.598   8.550
 5434POPC   C2B29300  24.650  14.588   8.250
 5434POPC   C3B29301  24.664  14.567   7.950
 5434POPC   C4B29302  24.698  14.632   7.650
 5435POPC   NC329303  32.278  25.219   9.450
 5435POPC   PO429304  32.202  25.311   9.150
 5435POPC   GL129305  32.274  25.224   8.850
 5435POPC   GL229306  32.237  25.434   8.850
 5435POPC   C1A29307  32.273  25.271   8.550
 5435POPC   D2A29308  32.216  25.238   8.250
 5435POPC   C3A29309  32.288  25.311   7.950
 5435POPC   C4A29310  32.220  25.280   7.650
 5435POPC   C1B29311  32.171  25.534   8.550
 5435POPC   C2B29312  32.139  25.509   8.250
 5435POPC   C3B29313  32.209  25.470   7.950
 5435POPC   C4B29314  32.182  25.485   7.650
 5436POPC   NC329315  17.507  17.533   9.450
 5436POPC   PO429316  17.493  17.476   9.150
 5436POPC   GL129317  17.521  17.512   8.850
 5436POPC   GL229318  17.632  17.550   8.850
 5436POPC   C1A29319  17.552  17.555   8.550
 5436POPC   D2A29320  17.462  17.544   8.250
 5436POPC   C3A29321  17.464  17.479   7.950
 5436POPC   C4A29322  17.492  17.477   7.650
 5436POPC   C1B29323  17.753  17.649   8.550
 5436POPC   C2B29324  17.742  17.589   8.250
 5436POPC   C3B29325  17.764  17.649   7.950
 5436POPC   C4B29326  17.720  17.610   7.650
 5437POPC   NC329327   8.205  14.374   9.450
 5437POPC   PO429328   8.192  14.391   9.150
 5437POPC   GL129329   8.179  14.364   8.850
 5437POPC   GL229330   8.308  14.483   8.850
 5437POPC   C1A29331   8.178  14.359   8.550
 5437POPC   D2A29332   8.150  14.372   8.250
 5437POPC   C3A29333   8.241  14.401   7.950
 5437POPC   C4A29334   8.236  14.355   7.650
 5437POPC   C1B29335   8.362  14.529   8.550
 5437POPC   C2B29336   8.345  14.580   8.250
 5437POPC   C3B29337   8.390  14.561   7.950
 5437POPC   C4B29338   8.366  14.531   7.650
 5438POPC   NC329339   7.454  12.889   9.450
 5438POPC   PO429340   7.468  12.884   9.150
 5438POPC   GL129341   7.415  12.854   8.850
 5438POPC   GL229342   7.530  12.728   8.850
 5438POPC   C1A29343   7.396  12.835   8.550
 5438POPC   D2A29344   7.460  12.848   8.250
 5438POPC   C3A29345   7.402  12.809   7.950
 5438POPC   C4A29346   7.449  12.888   7.650
 5438POPC   C1B29347   7.621  12.697   8.550
 5438POPC   C2B29348   7.591  12.676   8.250
 5438POPC   C3B29349   7.559  12.661   7.950
 5438POPC   C4B29350   7.622  12.709   7.650
 5439POPC   NC329351  19.828  38.441   9.450
 5439POPC   PO429352  19.785  38.488   9.150
 5439POPC   GL129353  19.805  38.436   8.850
 5439POPC   GL229354  19.893  38.383   8.850
 5439POPC   C1A29355  19.797  38.428   8.550
 5439POPC   D2A29356  19.842  38.444   8.250
 5439POPC   C3A29357  19.823  38.448   7.950
 5439POPC   C4A29358  19.794  38.482   7.650
 5439POPC   C1B29359  20.028  38.253   8.550
 5439POPC   C2B29360  20.010  38.249   8.250
 5439POPC   C3B29361  20.022  38.215   7.950
 5439POPC   C4B29362  20.005  38.214   7.650
 5440POPC   NC329363  14.384  16.688   9.450
 5440POPC   PO429364  14.413  16.739   9.150
 5440POPC   GL129365  14.427  16.775   8.850
 5440POPC   GL229366  14.476  16.655   8.850
 5440POPC   C1A29367  14.417  16.743   8.550
 5440POPC   D2A29368  14.398  16.774   8.250
 5440POPC   C3A29369  14.439  16.770   7.950
 5440POPC   C4A29370  14.382  16.763   7.650
 5440POPC   C1B29371  14.477  16.524   8.550
 5440POPC   C2B29372  14.483  16.533   8.250
 5440POPC   C3B29373  14.493  16.515   7.950
 5440POPC   C4B29374  14.498  16.473   7.650
 5441POPC   NC329375  43.909   3.589   9.450
 5441POPC   PO429376  43.874   3.566   9.150
 5441POPC   GL129377  43.908   3.499   8.850
 5441POPC   GL229378  44.013   3.613   8.850
 5441POPC   C1A29379  43.924   3.563   8.550
 5441POPC   D2A29380  43.845   3.505   8.250
 5441POPC   C3A29381  43.892   3.526   7.950
 5441POPC   C4A29382  43.901   3.552   7.650
 5441POPC   C1B29383  44.084   3.647   8.550
 5441POPC   C2B29384  44.152   3.598   8.250
 5441POPC   C3B29385  44.105   3.633   7.950
 5441POPC   C4B29386  44.093   3.619   7.650
 5442POPC   NC329387  28.327   8.939   9.450
 5442POPC   PO429388  28.366   8.983   9.150
 5442POPC   GL129389  28.324   8.948   8.850
 5442POPC   GL229390  28.260   8.942   8.850
 5442POPC   C1A29391  28.356   8.942   8.550
 5442POPC   D2A29392  28.336   9.019   8.250
 5442POPC   C3A29393  28.398   8.938   7.950
 5442POPC   C4A29394  28.412   8.945   7.650
 5442POPC   C1B29395  28.178   8.781   8.550
 5442POPC   C2B29396  28.139   8.787   8.250
 5442POPC   C3B29397  28.146   8.779   7.950
 5442POPC   C4B29398  28.174   8.870   7.650
 5443POPC   NC329399  10.535  32.245   9.450
 5443POPC   PO429400  10.536  32.294   9.150
 5443POPC   GL129401  10.523  32.253   8.850
 5443POPC   GL229402  10.535  32.157   8.850
 5443POPC   C1A29403  10.549  32.236   8.550
 5443POPC   D2A29404  10.523  32.202   8.250
 5443POPC   C3A29405  10.539  32.297   7.950
 5443POPC   C4A29406  10.533  32.252   7.650
 5443POPC   C1B29407  10.544  31.980   8.550
 5443POPC   C2B29408  10.501  31.990   8.250
 5443POPC   C3B29409  10.536  31.986   7.950
 5443POPC   C4B29410  10.503  32.045   7.650
 5444POPC   NC329411  12.119  22.204   9.450
 5444POPC   PO429412  12.098  22.205   9.150
 5444POPC   GL129413  12.105  22.134   8.850
 5444POPC   GL229414  12.091  22.307   8.850
 5444POPC   C1A29415  12.116  22.205   8.550
 5444POPC   D2A29416  12.045  22.155   8.250
 5444POPC   C3A29417  12.117  22.123   7.950
 5444POPC   C4A29418  12.123  22.165   7.650
 5444POPC   C1B29419  12.123  22.351   8.550
 5444POPC   C2B29420  12.160  22.401   8.250
 5444POPC   C3B29421  12.120  22.444   7.950
 5444POPC   C4B29422  12.167  22.393   7.650
 5445POPC   NC329423  20.570  28.396   9.450
 5445POPC   PO429424  20.592  28.392   9.150
 5445POPC   GL129425  20.621  28.383   8.850
 5445POPC   GL229426  20.485  28.430   8.850
 5445POPC   C1A29427  20.651  28.400   8.550
 5445POPC   D2A29428  20.624  28.384   8.250
 5445POPC   C3A29429  20.645  28.390   7.950
 5445POPC   C4A29430  20.606  28.331   7.650
 5445POPC   C1B29431  20.439  28.568   8.550
 5445POPC   C2B29432  20.477  28.565   8.250
 5445POPC   C3B29433  20.410  28.563   7.950
 5445POPC   C4B29434  20.409  28.552   7.650
 5446POPC   NC329435  19.101  33.047   9.450
 5446POPC   PO429436  19.056  33.054   9.150
 5446POPC   GL129437  19.035  33.062   8.850
 5446POPC   GL229438  19.155  32.883   8.850
 5446POPC   C1A29439  19.030  33.033   8.550
 5446POPC   D2A29440  19.073  32.995   8.250
 5446POPC   C3A29441  19.053  33.038   7.950
 5446POPC   C4A29442  19.074  33.058   7.650
 5446POPC   C1B29443  19.246  32.770   8.550
 5446POPC   C2B29444  19.205  32.795   8.250
 5446POPC   C3B29445  19.237  32.837   7.950
 5446POPC   C4B29446  19.225  32.807   7.650
 5447POPC   NC329447  41.540  37.673   9.450
 5447POPC   PO429448  41.557  37.650   9.150
 5447POPC   GL129449  41.517  37.725   8.850
 5447POPC   GL229450  41.633  37.570   8.850
 5447POPC   C1A29451  41.552  37.646   8.550
 5447POPC   D2A29452  41.579  37.668   8.250
 5447POPC   C3A29453  41.553  37.672   7.950
 5447POPC   C4A29454  41.582  37.643   7.650
 5447POPC   C1B29455  41.669  37.452   8.550
 5447POPC   C2B29456  41.608  37.459   8.250
 5447POPC   C3B29457  41.669  37.447   7.950
 5447POPC   C4B29458  41.697  37.470   7.650
 5448POPC   NC329459  16.690   5.858   9.450
 5448POPC   PO429460  16.757   5.889   9.150
 5448POPC   GL129461  16.772   5.827   8.850
 5448POPC   GL229462  16.637   5.995   8.850
 5448POPC   C1A29463  16.712   5.901   8.550
 5448POPC   D2A29464  16.724   5.829   8.250
 5448POPC   C3A29465  16.694   5.826   7.950
 5448POPC   C4A29466  16.682   5.909   7.650
 5448POPC   C1B29467  16.568   6.126   8.550
 5448POPC   C2B29468  16.588   6.103   8.250
 5448POPC   C3B29469  16.625   6.061   7.950
 5448POPC   C4B29470  16.559   6.109   7.650
 5449POPC   NC329471   4.352  40.040   9.450
 5449POPC   PO429472   4.296  40.022   9.150
 5449POPC   GL129473   4.320  40.032   8.850
 5449POPC   GL229474   4.392  40.108   8.850
 5449POPC   C1A29475   4.288  40.020   8.550
 5449POPC   D2A29476   4.342  39.984   8.250
 5449POPC   C3A29477   4.340  40.026   7.950
 5449POPC   C4A29478   4.316  40.037   7.650
 5449POPC   C1B29479   4.442  40.211   8.550
 5449POPC   C2B29480   4.484  40.240   8.250
 5449POPC   C3B29481   4.436  40.207   7.950
 5449POPC   C4B29482   4.427  40.183   7.650
 5450POPC   NC329483   2.716  28.382   9.450
 5450POPC   PO429484   2.752  28.323   9.150
 5450POPC   GL129485   2.798  28.377   8.850
 5450POPC   GL229486   2.818  28.222   8.850
 5450POPC   C1A29487   2.721  28.346   8.550
 5450POPC   D2A29488   2.740  28.346   8.250
 5450POPC   C3A29489   2.790  28.345   7.950
 5450POPC   C4A29490   2.771  28.382   7.650
 5450POPC   C1B29491   2.818  28.130   8.550
 5450POPC   C2B29492   2.848  28.133   8.250
 5450POPC   C3B29493   2.846  28.136   7.950
 5450POPC   C4B29494   2.851  28.139   7.650
 5451POPC   NC329495  32.267   5.063   9.450
 5451POPC   PO429496  32.218   5.141   9.150
 5451POPC   GL129497  32.296   5.092   8.850
 5451POPC   GL229498  32.281   5.241   8.850
 5451POPC   C1A29499  32.267   5.050   8.550
 5451POPC   D2A29500  32.234   5.091   8.250
 5451POPC   C3A29501  32.269   5.123   7.950
 5451POPC   C4A29502  32.242   5.060   7.650
 5451POPC   C1B29503  32.266   5.365   8.550
 5451POPC   C2B29504  32.255   5.292   8.250
 5451POPC   C3B29505  32.285   5.310   7.950
 5451POPC   C4B29506  32.330   5.319   7.650
 5452POPC   NC329507  33.836  15.993   9.450
 5452POPC   PO429508  33.808  15.915   9.150
 5452POPC   GL129509  33.807  15.982   8.850
 5452POPC   GL229510  33.874  15.790   8.850
 5452POPC   C1A29511  33.788  15.974   8.550
 5452POPC   D2A29512  33.802  15.953   8.250
 5452POPC   C3A29513  33.766  15.916   7.950
 5452POPC   C4A29514  33.794  15.991   7.650
 5452POPC   C1B29515  33.838  15.723   8.550
 5452POPC   C2B29516  33.933  15.770   8.250
 5452POPC   C3B29517  33.856  15.754   7.950
 5452POPC   C4B29518  33.841  15.694   7.650
 5453POPC   NC329519  26.776  15.206   9.450
 5453POPC   PO429520  26.805  15.201   9.150
 5453POPC   GL129521  26.808  15.202   8.850
 5453POPC   GL229522  26.971  15.131   8.850
 5453POPC   C1A29523  26.795  15.218   8.550
 5453POPC   D2A29524  26.825  15.185   8.250
 5453POPC   C3A29525  26.829  15.133   7.950
 5453POPC   C4A29526  26.854  15.221   7.650
 5453POPC   C1B29527  27.017  15.125   8.550
 5453POPC   C2B29528  27.101  15.088   8.250
 5453POPC   C3B29529  27.083  15.095   7.950
 5453POPC   C4B29530  27.034  15.141   7.650
 5454POPC   NC329531  28.383  28.397   9.450
 5454POPC   PO429532  28.393  28.335   9.150
 5454POPC   GL129533  28.320  28.413   8.850
 5454POPC   GL229534  28.488  28.377   8.850
 5454POPC   C1A29535  28.321  28.391   8.550
 5454POPC   D2A29536  28.416  28.338   8.250
 5454POPC   C3A29537  28.350  28.351   7.950
 5454POPC   C4A29538  28.400  28.402   7.650
 5454POPC   C1B29539  28.641  28.368   8.550
 5454POPC   C2B29540  28.579  28.352   8.250
 5454POPC   C3B29541  28.622  28.366   7.950
 5454POPC   C4B29542  28.610  28.312   7.650
 5455POPC   NC329543  35.386   3.528   9.450
 5455POPC   PO429544  35.374   3.517   9.150
 5455POPC   GL129545  35.343   3.505   8.850
 5455POPC   GL229546  35.213   3.525   8.850
 5455POPC   C1A29547  35.316   3.508   8.550
 5455POPC   D2A29548  35.325   3.591   8.250
 5455POPC   C3A29549  35.316   3.518   7.950
 5455POPC   C4A29550  35.329   3.538   7.650
 5455POPC   C1B29551  35.118   3.609   8.550
 5455POPC   C2B29552  35.104   3.601   8.250
 5455POPC   C3B29553  35.146   3.547   7.950
 5455POPC   C4B29554  35.115   3.580   7.650
 5456POPC   NC329555  29.195  13.648   9.450
 5456POPC   PO429556  29.127  13.643   9.150
 5456POPC   GL129557  29.194  13.661   8.850
 5456POPC   GL229558  29.276  13.625   8.850
 5456POPC   C1A29559  29.119  13.658   8.550
 5456POPC   D2A29560  29.183  13.644   8.250
 5456POPC   C3A29561  29.138  13.650   7.950
 5456POPC   C4A29562  29.127  13.598   7.650
 5456POPC   C1B29563  29.412  13.544   8.550
 5456POPC   C2B29564  29.352  13.515   8.250
 5456POPC   C3B29565  29.409  13.500   7.950
 5456POPC   C4B29566  29.415  13.526   7.650
 5457POPC   NC329567   2.011  18.300   9.450
 5457POPC   PO429568   1.998  18.302   9.150
 5457POPC   GL129569   2.032  18.307   8.850
 5457POPC   GL229570   2.080  18.403   8.850
 5457POPC   C1A29571   2.023  18.317   8.550
 5457POPC   D2A29572   2.015  18.293   8.250
 5457POPC   C3A29573   1.995  18.262   7.950
 5457POPC   C4A29574   2.034  18.288   7.650
 5457POPC   C1B29575   2.074  18.529   8.550
 5457POPC   C2B29576   2.072  18.556   8.250
 5457POPC   C3B29577   2.117  18.508   7.950
 5457POPC   C4B29578   2.114  18.483   7.650
 5458POPC   NC329579  19.855  12.108   9.450
 5458POPC   PO429580  19.861  12.083   9.150
 5458POPC   GL129581  19.841  12.041   8.850
 5458POPC   GL229582  19.722  12.025   8.850
 5458POPC   C1A29583  19.805  12.071   8.550
 5458POPC   D2A29584  19.846  12.039   8.250
 5458POPC   C3A29585  19.830  12.097   7.950
 5458POPC   C4A29586  19.841  12.040   7.650
 5458POPC   C1B29587  19.690  11.896   8.550
 5458POPC   C2B29588  19.641  11.928   8.250
 5458POPC   C3B29589  19.684  11.901   7.950
 5458POPC   C4B29590  19.645  11.926   7.650
 5459POPC   NC329591  42.323  20.637   9.450
 5459POPC   PO429592  42.355  20.654   9.150
 5459POPC   GL129593  42.313  20.592   8.850
 5459POPC   GL229594  42.438  20.653   8.850
 5459POPC   C1A29595  42.341  20.597   8.550
 5459POPC   D2A29596  42.302  20.561   8.250
 5459POPC   C3A29597  42.315  20.595   7.950
 5459POPC   C4A29598  42.288  20.646   7.650
 5459POPC   C1B29599  42.563  20.721   8.550
 5459POPC   C2B29600  42.612  20.715   8.250
 5459POPC   C3B29601  42.613  20.744   7.950
 5459POPC   C4B29602  42.533  20.681   7.650
 5460POPC   NC329603   4.339   9.763   9.450
 5460POPC   PO429604   4.281   9.721   9.150
 5460POPC   GL129605   4.324   9.724   8.850
 5460POPC   GL229606   4.230   9.850   8.850
 5460POPC   C1A29607   4.301   9.727   8.550
 5460POPC   D2A29608   4.345   9.747   8.250
 5460POPC   C3A29609   4.313   9.742   7.950
 5460POPC   C4A29610   4.344   9.788   7.650
 5460POPC   C1B29611   4.113   9.840   8.550
 5460POPC   C2B29612   4.074   9.910   8.250
 5460POPC   C3B29613   4.088   9.881   7.950
 5460POPC   C4B29614   4.081   9.849   7.650
 5461POPC   NC329615   9.701  42.374   9.450
 5461POPC   PO429616   9.770  42.329   9.150
 5461POPC   GL129617   9.748  42.376   8.850
 5461POPC   GL229618   9.681  42.275   8.850
 5461POPC   C1A29619   9.751  42.347   8.550
 5461POPC   D2A29620   9.778  42.359   8.250
 5461POPC   C3A29621   9.716  42.341   7.950
 5461POPC   C4A29622   9.753  42.310   7.650
 5461POPC   C1B29623   9.624  42.131   8.550
 5461POPC   C2B29624   9.625  42.098   8.250
 5461POPC   C3B29625   9.550  42.161   7.950
 5461POPC   C4B29626   9.543  42.164   7.650
 5462POPC   NC329627  31.447  37.671   9.450
 5462POPC   PO429628  31.483  37.699   9.150
 5462POPC   GL129629  31.504  37.726   8.850
 5462POPC   GL229630  31.551  37.759   8.850
 5462POPC   C1A29631  31.487  37.709   8.550
 5462POPC   D2A29632  31.511  37.662   8.250
 5462POPC   C3A29633  31.450  37.642   7.950
 5462POPC   C4A29634  31.505  37.638   7.650
 5462POPC   C1B29635  31.574  37.936   8.550
 5462POPC   C2B29636  31.628  37.924   8.250
 5462POPC   C3B29637  31.545  37.925   7.950
 5462POPC   C4B29638  31.614  37.915   7.650
 5463POPC   NC329639  37.681   4.363   9.450
 5463POPC   PO429640  37.637   4.305   9.150
 5463POPC   GL129641  37.722   4.271   8.850
 5463POPC   GL229642  37.777   4.411   8.850
 5463POPC   C1A29643  37.676   4.294   8.550
 5463POPC   D2A29644  37.707   4.348   8.250
 5463POPC   C3A29645  37.713   4.350   7.950
 5463POPC   C4A29646  37.647   4.346   7.650
 5463POPC   C1B29647  37.792   4.499   8.550
 5463POPC   C2B29648  37.842   4.553   8.250
 5463POPC   C3B29649  37.797   4.562   7.950
 5463POPC   C4B29650  37.793   4.577   7.650
 5464POPC   NC329651  15.228   2.803   9.450
 5464POPC   PO429652  15.160   2.750   9.150
 5464POPC   GL129653  15.160   2.762   8.850
 5464POPC   GL229654  15.113   2.856   8.850
 5464POPC   C1A29655  15.226   2.727   8.550
 5464POPC   D2A29656  15.155   2.762   8.250
 5464POPC   C3A29657  15.161   2.755   7.950
 5464POPC   C4A29658  15.140   2.737   7.650
 5464POPC   C1B29659  15.008   2.911   8.550
 5464POPC   C2B29660  14.935   2.881   8.250
 5464POPC   C3B29661  15.009   2.933   7.950
 5464POPC   C4B29662  14.997   2.948   7.650
 5465POPC   NC329663  16.726  25.269   9.450
 5465POPC   PO429664  16.744  25.217   9.150
 5465POPC   GL129665  16.696  25.279   8.850
 5465POPC   GL229666  16.660  25.426   8.850
 5465POPC   C1A29667  16.713  25.297   8.550
 5465POPC   D2A29668  16.706  25.249   8.250
 5465POPC   C3A29669  16.742  25.247   7.950
 5465POPC   C4A29670  16.723  25.309   7.650
 5465POPC   C1B29671  16.574  25.443   8.550
 5465POPC   C2B29672  16.580  25.447   8.250
 5465POPC   C3B29673  16.618  25.513   7.950
 5465POPC   C4B29674  16.594  25.535   7.650
 5466POPC   NC329675  26.828  43.916   9.450
 5466POPC   PO429676  26.802  43.851   9.150
 5466POPC   GL129677  26.820  43.893   8.850
 5466POPC   GL229678  26.894  43.793   8.850
 5466POPC   C1A29679  26.773  43.924   8.550
 5466POPC   D2A29680  26.793  43.874   8.250
 5466POPC   C3A29681  26.807  43.923   7.950
 5466POPC   C4A29682  26.795  43.840   7.650
 5466POPC   C1B29683  26.951  43.655   8.550
 5466POPC   C2B29684  26.890  43.627   8.250
 5466POPC   C3B29685  26.858  43.686   7.950
 5466POPC   C4B29686  26.918  43.631   7.650
 5467POPC   NC329687  19.870  39.986   9.450
 5467POPC   PO429688  19.838  40.051   9.150
 5467POPC   GL129689  19.826  40.040   8.850
 5467POPC   GL229690  19.787  39.913   8.850
 5467POPC   C1A29691  19.866  39.983   8.550
 5467POPC   D2A29692  19.791  39.978   8.250
 5467POPC   C3A29693  19.876  39.978   7.950
 5467POPC   C4A29694  19.878  39.986   7.650
 5467POPC   C1B29695  19.676  39.883   8.550
 5467POPC   C2B29696  19.636  39.821   8.250
 5467POPC   C3B29697  19.662  39.860   7.950
 5467POPC   C4B29698  19.616  39.845   7.650
 5468POPC   NC329699   5.895  36.926   9.450
 5468POPC   PO429700   5.847  36.886   9.150
 5468POPC   GL129701   5.887  36.890   8.850
 5468POPC   GL229702   5.888  36.784   8.850
 5468POPC   C1A29703   5.883  36.861   8.550
 5468POPC   D2A29704   5.856  36.943   8.250
 5468POPC   C3A29705   5.837  36.916   7.950
 5468POPC   C4A29706   5.860  36.892   7.650
 5468POPC   C1B29707   5.995  36.672   8.550
 5468POPC   C2B29708   5.965  36.673   8.250
 5468POPC   C3B29709   5.956  36.644   7.950
 5468POPC   C4B29710   5.982  36.660   7.650
 5469POPC   NC329711  26.777  24.499   9.450
 5469POPC   PO429712  26.840  24.499   9.150
 5469POPC   GL129713  26.783  24.521   8.850
 5469POPC   GL229714  26.758  24.400   8.850
 5469POPC   C1A29715  26.851  24.524   8.550
 5469POPC   D2A29716  26.785  24.521   8.250
 5469POPC   C3A29717  26.812  24.480   7.950
 5469POPC   C4A29718  26.854  24.531   7.650
 5469POPC   C1B29719  26.577  24.328   8.550
 5469POPC   C2B29720  26.588  24.348   8.250
 5469POPC   C3B29721  26.587  24.302   7.950
 5469POPC   C4B29722  26.581  24.333   7.650
 5470POPC   NC329723  12.834  36.087   9.450
 5470POPC   PO429724  12.806  36.082   9.150
 5470POPC   GL129725  12.843  36.093   8.850
 5470POPC   GL229726  12.975  36.052   8.850
 5470POPC   C1A29727  12.861  36.110   8.550
 5470POPC   D2A29728  12.866  36.165   8.250
 5470POPC   C3A29729  12.889  36.120   7.950
 5470POPC   C4A29730  12.894  36.162   7.650
 5470POPC   C1B29731  13.066  36.039   8.550
 5470POPC   C2B29732  13.081  36.032   8.250
 5470POPC   C3B29733  13.065  36.039   7.950
 5470POPC   C4B29734  13.118  35.988   7.650
 5471POPC   NC329735  18.283  25.274   9.450
 5471POPC   PO429736  18.326  25.261   9.150
 5471POPC   GL129737  18.330  25.307   8.850
 5471POPC   GL229738  18.208  25.340   8.850
 5471POPC   C1A29739  18.282  25.286   8.550
 5471POPC   D2A29740  18.271  25.263   8.250
 5471POPC   C3A29741  18.319  25.226   7.950
 5471POPC   C4A29742  18.309  25.285   7.650
 5471POPC   C1B29743  18.165  25.440   8.550
 5471POPC   C2B29744  18.164  25.484   8.250
 5471POPC   C3B29745  18.123  25.450   7.950
 5471POPC   C4B29746  18.184  25.461   7.650
 5472POPC   NC329747  36.129  26.855   9.450
 5472POPC   PO429748  36.134  26.811   9.150
 5472POPC   GL129749  36.170  26.863   8.850
 5472POPC   GL229750  36.273  26.730   8.850
 5472POPC   C1A29751  36.118  26.810   8.550
 5472POPC   D2A29752  36.093  26.792   8.250
 5472POPC   C3A29753  36.078  26.797   7.950
 5472POPC   C4A29754  36.171  26.854   7.650
 5472POPC   C1B29755  36.347  26.674   8.550
 5472POPC   C2B29756  36.307  26.685   8.250
 5472POPC   C3B29757  36.319  26.681   7.950
 5472POPC   C4B29758  36.375  26.678   7.650
 5473POPC   NC329759  22.908   7.461   9.450
 5473POPC   PO429760  22.970   7.382   9.150
 5473POPC   GL129761  22.953   7.468   8.850
 5473POPC   GL229762  22.857   7.486   8.850
 5473POPC   C1A29763  22.982   7.453   8.550
 5473POPC   D2A29764  22.957   7.425   8.250
 5473POPC   C3A29765  22.972   7.396   7.950
 5473POPC   C4A29766  22.901   7.439   7.650
 5473POPC   C1B29767  22.809   7.567   8.550
 5473POPC   C2B29768  22.793   7.557   8.250
 5473POPC   C3B29769  22.731   7.613   7.950
 5473POPC   C4B29770  22.793   7.638   7.650
 5474POPC   NC329771  29.141   6.674   9.450
 5474POPC   PO429772  29.141   6.676   9.150
 5474POPC   GL129773  29.149   6.604   8.850
 5474POPC   GL229774  29.043   6.694   8.850
 5474POPC   C1A29775  29.113   6.686   8.550
 5474POPC   D2A29776  29.177   6.626   8.250
 5474POPC   C3A29777  29.151   6.688   7.950
 5474POPC   C4A29778  29.189   6.668   7.650
 5474POPC   C1B29779  28.978   6.830   8.550
 5474POPC   C2B29780  28.955   6.863   8.250
 5474POPC   C3B29781  28.989   6.830   7.950
 5474POPC   C4B29782  28.994   6.863   7.650
 5475POPC   NC329783  16.778   7.432   9.450
 5475POPC   PO429784  16.771   7.433   9.150
 5475POPC   GL129785  16.730   7.371   8.850
 5475POPC   GL229786  16.850   7.304   8.850
 5475POPC   C1A29787  16.773   7.424   8.550
 5475POPC   D2A29788  16.747   7.382   8.250
 5475POPC   C3A29789  16.747   7.393   7.950
 5475POPC   C4A29790  16.745   7.397   7.650
 5475POPC   C1B29791  16.831   7.257   8.550
 5475POPC   C2B29792  16.881   7.238   8.250
 5475POPC   C3B29793  16.878   7.255   7.950
 5475POPC   C4B29794  16.834   7.210   7.650
 5476POPC   NC329795  41.563  26.015   9.450
 5476POPC   PO429796  41.584  26.024   9.150
 5476POPC   GL129797  41.529  26.090   8.850
 5476POPC   GL229798  41.493  25.952   8.850
 5476POPC   C1A29799  41.555  26.043   8.550
 5476POPC   D2A29800  41.575  26.070   8.250
 5476POPC   C3A29801  41.597  26.057   7.950
 5476POPC   C4A29802  41.602  26.086   7.650
 5476POPC   C1B29803  41.411  25.858   8.550
 5476POPC   C2B29804  41.408  25.868   8.250
 5476POPC   C3B29805  41.470  25.876   7.950
 5476POPC   C4B29806  41.382  25.788   7.650
 5477POPC   NC329807  28.329  23.741   9.450
 5477POPC   PO429808  28.397  23.686   9.150
 5477POPC   GL129809  28.372  23.718   8.850
 5477POPC   GL229810  28.395  23.554   8.850
 5477POPC   C1A29811  28.365  23.687   8.550
 5477POPC   D2A29812  28.396  23.664   8.250
 5477POPC   C3A29813  28.354  23.756   7.950
 5477POPC   C4A29814  28.391  23.679   7.650
 5477POPC   C1B29815  28.387  23.448   8.550
 5477POPC   C2B29816  28.378  23.447   8.250
 5477POPC   C3B29817  28.400  23.427   7.950
 5477POPC   C4B29818  28.360  23.450   7.650
 5478POPC   NC329819  30.722  33.032   9.450
 5478POPC   PO429820  30.733  33.052   9.150
 5478POPC   GL129821  30.733  33.035   8.850
 5478POPC   GL229822  30.620  33.027   8.850
 5478POPC   C1A29823  30.701  33.012   8.550
 5478POPC   D2A29824  30.717  33.040   8.250
 5478POPC   C3A29825  30.656  33.059   7.950
 5478POPC   C4A29826  30.718  33.001   7.650
 5478POPC   C1B29827  30.416  32.947   8.550
 5478POPC   C2B29828  30.465  32.970   8.250
 5478POPC   C3B29829  30.438  32.945   7.950
 5478POPC   C4B29830  30.472  32.901   7.650
 5479POPC   NC329831  31.431  26.005   9.450
 5479POPC   PO429832  31.447  25.996   9.150
 5479POPC   GL129833  31.474  26.089   8.850
 5479POPC   GL229834  31.465  26.114   8.850
 5479POPC   C1A29835  31.509  26.043   8.550
 5479POPC   D2A29836  31.429  26.062   8.250
 5479POPC   C3A29837  31.463  26.021   7.950
 5479POPC   C4A29838  31.452  26.021   7.650
 5479POPC   C1B29839  31.371  26.249   8.550
 5479POPC   C2B29840  31.358  26.272   8.250
 5479POPC   C3B29841  31.414  26.248   7.950
 5479POPC   C4B29842  31.396  26.307   7.650
 5480POPC   NC329843   5.862  38.414   9.450
 5480POPC   PO429844   5.896  38.472   9.150
 5480POPC   GL129845   5.891  38.425   8.850
 5480POPC   GL229846   5.849  38.305   8.850
 5480POPC   C1A29847   5.858  38.451   8.550
 5480POPC   D2A29848   5.830  38.444   8.250
 5480POPC   C3A29849   5.905  38.467   7.950
 5480POPC   C4A29850   5.881  38.484   7.650
 5480POPC   C1B29851   5.936  38.210   8.550
 5480POPC   C2B29852   5.884  38.214   8.250
 5480POPC   C3B29853   5.953  38.220   7.950
 5480POPC   C4B29854   5.951  38.199   7.650
 5481POPC   NC329855  40.829  12.114   9.450
 5481POPC   PO429856  40.761  12.081   9.150
 5481POPC   GL129857  40.758  12.067   8.850
 5481POPC   GL229858  40.659  12.133   8.850
 5481POPC   C1A29859  40.787  12.091   8.550
 5481POPC   D2A29860  40.735  12.057   8.250
 5481POPC   C3A29861  40.743  12.070   7.950
 5481POPC   C4A29862  40.807  12.108   7.650
 5481POPC   C1B29863  40.532  12.190   8.550
 5481POPC   C2B29864  40.573  12.197   8.250
 5481POPC   C3B29865  40.550  12.153   7.950
 5481POPC   C4B29866  40.531  12.179   7.650
 5482POPC   NC329867  33.060  24.515   9.450
 5482POPC   PO429868  33.013  24.457   9.150
 5482POPC   GL129869  33.027  24.453   8.850
 5482POPC   GL229870  33.113  24.579   8.850
 5482POPC   C1A29871  32.988  24.517   8.550
 5482POPC   D2A29872  33.031  24.488   8.250
 5482POPC   C3A29873  33.058  24.521   7.950
 5482POPC   C4A29874  33.014  24.503   7.650
 5482POPC   C1B29875  33.268  24.594   8.550
 5482POPC   C2B29876  33.297  24.560   8.250
 5482POPC   C3B29877  33.226  24.610   7.950
 5482POPC   C4B29878  33.275  24.587   7.650
 5483POPC   NC329879  41.568  36.088   9.450
 5483POPC   PO429880  41.603  36.100   9.150
 5483POPC   GL129881  41.510  36.178   8.850
 5483POPC   GL229882  41.639  36.250   8.850
 5483POPC   C1A29883  41.606  36.173   8.550
 5483POPC   D2A29884  41.558  36.087   8.250
 5483POPC   C3A29885  41.542  36.162   7.950
 5483POPC   C4A29886  41.512  36.138   7.650
 5483POPC   C1B29887  41.686  36.349   8.550
 5483POPC   C2B29888  41.670  36.323   8.250
 5483POPC   C3B29889  41.727  36.324   7.950
 5483POPC   C4B29890  41.728  36.397   7.650
 5484POPC   NC329891  17.487  26.027   9.450
 5484POPC   PO429892  17.473  26.042   9.150
 5484POPC   GL129893  17.535  26.034   8.850
 5484POPC   GL229894  17.675  26.034   8.850
 5484POPC   C1A29895  17.491  26.070   8.550
 5484POPC   D2A29896  17.547  26.085   8.250
 5484POPC   C3A29897  17.547  26.043   7.950
 5484POPC   C4A29898  17.468  26.091   7.650
 5484POPC   C1B29899  17.796  26.039   8.550
 5484POPC   C2B29900  17.724  26.023   8.250
 5484POPC   C3B29901  17.794  26.009   7.950
 5484POPC   C4B29902  17.794  25.966   7.650
 5485POPC   NC329903   0.417  35.352   9.450
 5485POPC   PO429904   0.484  35.385   9.150
 5485POPC   GL129905   0.424  35.324   8.850
 5485POPC   GL229906   0.507  35.416   8.850
 5485POPC   C1A29907   0.487  35.304   8.550
 5485POPC   D2A29908   0.478  35.315   8.250
 5485POPC   C3A29909   0.455  35.374   7.950
 5485POPC   C4A29910   0.458  35.376   7.650
 5485POPC   C1B29911   0.588  35.505   8.550
 5485POPC   C2B29912   0.560  35.497   8.250
 5485POPC   C3B29913   0.649  35.558   7.950
 5485POPC   C4B29914   0.568  35.582   7.650
 5486POPC   NC329915  19.094  14.355   9.450
 5486POPC   PO429916  19.025  14.411   9.150
 5486POPC   GL129917  19.013  14.417   8.850
 5486POPC   GL229918  19.017  14.491   8.850
 5486POPC   C1A29919  19.074  14.379   8.550
 5486POPC   D2A29920  19.086  14.401   8.250
 5486POPC   C3A29921  19.050  14.430   7.950
 5486POPC   C4A29922  19.026  14.415   7.650
 5486POPC   C1B29923  19.089  14.668   8.550
 5486POPC   C2B29924  19.083  14.672   8.250
 5486POPC   C3B29925  19.055  14.610   7.950
 5486POPC   C4B29926  19.003  14.610   7.650
 5487POPC   NC329927  43.111  35.392   9.450
 5487POPC   PO429928  43.129  35.302   9.150
 5487POPC   GL129929  43.113  35.314   8.850
 5487POPC   GL229930  43.029  35.310   8.850
 5487POPC   C1A29931  43.110  35.342   8.550
 5487POPC   D2A29932  43.089  35.342   8.250
 5487POPC   C3A29933  43.148  35.384   7.950
 5487POPC   C4A29934  43.082  35.371   7.650
 5487POPC   C1B29935  42.911  35.140   8.550
 5487POPC   C2B29936  42.928  35.224   8.250
 5487POPC   C3B29937  42.958  35.158   7.950
 5487POPC   C4B29938  42.949  35.183   7.650
 5488POPC   NC329939  22.889  26.039   9.450
 5488POPC   PO429940  22.905  26.015   9.150
 5488POPC   GL129941  22.927  26.046   8.850
 5488POPC   GL229942  22.804  26.014   8.850
 5488POPC   C1A29943  22.913  26.075   8.550
 5488POPC   D2A29944  22.897  26.027   8.250
 5488POPC   C3A29945  22.938  26.027   7.950
 5488POPC   C4A29946  22.903  26.054   7.650
 5488POPC   C1B29947  22.711  25.979   8.550
 5488POPC   C2B29948  22.672  25.950   8.250
 5488POPC   C3B29949  22.750  25.976   7.950
 5488POPC   C4B29950  22.666  25.971   7.650
 5489POPC   NC329951  43.144  30.727   9.450
 5489POPC   PO429952  43.111  30.713   9.150
 5489POPC   GL129953  43.140  30.742   8.850
 5489POPC   GL229954  43.001  30.609   8.850
 5489POPC   C1A29955  43.126  30.689   8.550
 5489POPC   D2A29956  43.130  30.701   8.250
 5489POPC   C3A29957  43.075  30.724   7.950
 5489POPC   C4A29958  43.119  30.727   7.650
 5489POPC   C1B29959  42.884  30.535   8.550
 5489POPC   C2B29960  42.913  30.527   8.250
 5489POPC   C3B29961  42.939  30.542   7.950
 5489POPC   C4B29962  42.876  30.542   7.650
 5490POPC   NC329963  37.662  24.538   9.450
 5490POPC   PO429964  37.719  24.529   9.150
 5490POPC   GL129965  37.655  24.516   8.850
 5490POPC   GL229966  37.549  24.535   8.850
 5490POPC   C1A29967  37.635  24.496   8.550
 5490POPC   D2A29968  37.723  24.440   8.250
 5490POPC   C3A29969  37.677  24.506   7.950
 5490POPC   C4A29970  37.672  24.468   7.650
 5490POPC   C1B29971  37.482  24.652   8.550
 5490POPC   C2B29972  37.431  24.662   8.250
 5490POPC   C3B29973  37.435  24.662   7.950
 5490POPC   C4B29974  37.504  24.604   7.650
 5491POPC   NC329975   8.178  12.830   9.450
 5491POPC   PO429976   8.176  12.844   9.150
 5491POPC   GL129977   8.222  12.887   8.850
 5491POPC   GL229978   8.251  12.938   8.850
 5491POPC   C1A29979   8.148  12.838   8.550
 5491POPC   D2A29980   8.163  12.815   8.250
 5491POPC   C3A29981   8.189  12.881   7.950
 5491POPC   C4A29982   8.207  12.853   7.650
 5491POPC   C1B29983   8.198  13.075   8.550
 5491POPC   C2B29984   8.214  13.063   8.250
 5491POPC   C3B29985   8.219  13.118   7.950
 5491POPC   C4B29986   8.258  13.091   7.650
 5492POPC   NC329987  29.884  15.947   9.450
 5492POPC   PO429988  29.880  15.961   9.150
 5492POPC   GL129989  29.967  15.913   8.850
 5492POPC   GL229990  30.003  15.911   8.850
 5492POPC   C1A29991  29.901  15.932   8.550
 5492POPC   D2A29992  29.926  15.984   8.250
 5492POPC   C3A29993  29.963  15.953   7.950
 5492POPC   C4A29994  29.946  15.940   7.650
 5492POPC   C1B29995  30.138  15.789   8.550
 5492POPC   C2B29996  30.152  15.833   8.250
 5492POPC   C3B29997  30.110  15.781   7.950
 5492POPC   C4B29998  30.096  15.766   7.650
 5493POPC   NC329999  26.052  33.766   9.450
 5493POPC   PO430000  26.052  33.783   9.150
 5493POPC   GL130001  26.044  33.827   8.850
 5493POPC   GL230002  26.057  33.953   8.850
 5493POPC   C1A30003  26.011  33.807   8.550
 5493POPC   D2A30004  26.052  33.807   8.250
 5493POPC   C3A30005  26.004  33.775   7.950
 5493POPC   C4A30006  26.045  33.807   7.650
 5493POPC   C1B30007  26.000  34.020   8.550
 5493POPC   C2B30008  25.999  34.046   8.250
 5493POPC   C3B30009  26.065  34.056   7.950
 5493POPC   C4B30010  26.082  34.066   7.650
 5494POPC   NC330011   0.455   5.902   9.450
 5494POPC   PO430012   0.438   5.854   9.150
 5494POPC   GL130013   0.443   5.831   8.850
 5494POPC   GL230014   0.329   5.878   8.850
 5494POPC   C1A30015   0.409   5.839   8.550
 5494POPC   D2A30016   0.392   5.915   8.250
 5494POPC   C3A30017   0.398   5.866   7.950
 5494POPC   C4A30018   0.475   5.820   7.650
 5494POPC   C1B30019   0.230   5.891   8.550
 5494POPC   C2B30020   0.191   5.871   8.250
 5494POPC   C3B30021   0.199   5.904   7.950
 5494POPC   C4B30022   0.177   5.899   7.650
 5495POPC   NC330023  42.348  43.152   9.450
 5495POPC   PO430024  42.288  43.144   9.150
 5495POPC   GL130025  42.343  43.104   8.850
 5495POPC   GL230026  42.414  43.031   8.850
 5495POPC   C1A30027  42.303  43.145   8.550
 5495POPC   D2A30028  42.347  43.064   8.250
 5495POPC   C3A30029  42.296  43.096   7.950
 5495POPC   C4A30030  42.361  43.123   7.650
 5495POPC   C1B30031  42.461  42.874   8.550
 5495POPC   C2B30032  42.529  42.880   8.250
 5495POPC   C3B30033  42.438  42.936   7.950
 5495POPC   C4B30034  42.448  42.953   7.650
 5496POPC   NC330035  33.044  20.569   9.450
 5496POPC   PO430036  33.061  20.613   9.150
 5496POPC   GL130037  33.058  20.587   8.850
 5496POPC   GL230038  33.069  20.690   8.850
 5496POPC   C1A30039  32.988  20.630   8.550
 5496POPC   D2A30040  33.048  20.642   8.250
 5496POPC   C3A30041  33.022  20.584   7.950
 5496POPC   C4A30042  33.062  20.644   7.650
 5496POPC   C1B30043  33.132  20.846   8.550
 5496POPC   C2B30044  33.129  20.834   8.250
 5496POPC   C3B30045  33.101  20.812   7.950
 5496POPC   C4B30046  33.137  20.846   7.650
 5497POPC   NC330047  19.032  43.142   9.450
 5497POPC   PO430048  19.098  43.079   9.150
 5497POPC   GL130049  19.014  43.101   8.850
 5497POPC   GL230050  19.122  43.254   8.850
 5497POPC   C1A30051  19.067  43.098   8.550
 5497POPC   D2A30052  19.049  43.125   8.250
 5497POPC   C3A30053  19.047  43.101   7.950
 5497POPC   C4A30054  19.097  43.134   7.650
 5497POPC   C1B30055  19.139  43.360   8.550
 5497POPC   C2B30056  19.099  43.380   8.250
 5497POPC   C3B30057  19.157  43.392   7.950
 5497POPC   C4B30058  19.175  43.342   7.650
 5498POPC   NC330059   5.863  29.184   9.450
 5498POPC   PO430060   5.859  29.142   9.150
 5498POPC   GL130061   5.874  29.118   8.850
 5498POPC   GL230062   5.766  29.073   8.850
 5498POPC   C1A30063   5.899  29.112   8.550
 5498POPC   D2A30064   5.882  29.106   8.250
 5498POPC   C3A30065   5.891  29.170   7.950
 5498POPC   C4A30066   5.838  29.182   7.650
 5498POPC   C1B30067   5.670  29.041   8.550
 5498POPC   C2B30068   5.640  29.024   8.250
 5498POPC   C3B30069   5.649  29.084   7.950
 5498POPC   C4B30070   5.662  29.037   7.650
 5499POPC   NC330071  15.954  39.228   9.450
 5499POPC   PO430072  15.979  39.227   9.150
 5499POPC   GL130073  15.992  39.234   8.850
 5499POPC   GL230074  16.000  39.151   8.850
 5499POPC   C1A30075  15.961  39.225   8.550
 5499POPC   D2A30076  15.930  39.236   8.250
 5499POPC   C3A30077  15.977  39.229   7.950
 5499POPC   C4A30078  15.988  39.279   7.650
 5499POPC   C1B30079  16.099  39.040   8.550
 5499POPC   C2B30080  16.082  39.053   8.250
 5499POPC   C3B30081  16.098  39.000   7.950
 5499POPC   C4B30082  16.109  39.025   7.650
 5500POPC   NC330083  30.681  15.997   9.450
 5500POPC   PO430084  30.713  15.997   9.150
 5500POPC   GL130085  30.651  15.971   8.850
 5500POPC   GL230086  30.563  15.907   8.850
 5500POPC   C1A30087  30.735  15.945   8.550
 5500POPC   D2A30088  30.723  16.005   8.250
 5500POPC   C3A30089  30.659  15.967   7.950
 5500POPC   C4A30090  30.721  15.995   7.650
 5500POPC   C1B30091  30.422  15.960   8.550
 5500POPC   C2B30092  30.415  15.949   8.250
 5500POPC   C3B30093  30.466  15.994   7.950
 5500POPC   C4B30094  30.456  15.943   7.650
 5501POPC   NC330095  29.188  15.132   9.450
 5501POPC   PO430096  29.163  15.226   9.150
 5501POPC   GL130097  29.118  15.218   8.850
 5501POPC   GL230098  29.050  15.110   8.850
 5501POPC   C1A30099  29.181  15.206   8.550
 5501POPC   D2A30100  29.149  15.218   8.250
 5501POPC   C3A30101  29.186  15.219   7.950
 5501POPC   C4A30102  29.192  15.142   7.650
 5501POPC   C1B30103  28.921  14.998   8.550
 5501POPC   C2B30104  28.890  15.045   8.250
 5501POPC   C3B30105  28.981  15.027   7.950
 5501POPC   C4B30106  28.916  15.043   7.650
 5502POPC   NC330107  34.530  44.662   9.450
 5502POPC   PO430108  34.534  44.643   9.150
 5502POPC   GL130109  34.536  44.662   8.850
 5502POPC   GL230110  34.620  44.793   8.850
 5502POPC   C1A30111  34.544  44.683   8.550
 5502POPC   D2A30112  34.559  44.612   8.250
 5502POPC   C3A30113  34.544  44.637   7.950
 5502POPC   C4A30114  34.594  44.640   7.650
 5502POPC   C1B30115  34.602  44.884   8.550
 5502POPC   C2B30116  34.654  44.880   8.250
 5502POPC   C3B30117  34.652  44.924   7.950
 5502POPC   C4B30118  34.628  44.953   7.650
 5503POPC   NC330119  35.333   8.999   9.450
 5503POPC   PO430120  35.338   9.014   9.150
 5503POPC   GL130121  35.322   8.987   8.850
 5503POPC   GL230122  35.417   8.831   8.850
 5503POPC   C1A30123  35.372   8.961   8.550
 5503POPC   D2A30124  35.336   8.991   8.250
 5503POPC   C3A30125  35.346   8.973   7.950
 5503POPC   C4A30126  35.386   8.974   7.650
 5503POPC   C1B30127  35.378   8.693   8.550
 5503POPC   C2B30128  35.396   8.702   8.250
 5503POPC   C3B30129  35.432   8.751   7.950
 5503POPC   C4B30130  35.441   8.702   7.650
 5504POPC   NC330131   2.012  17.460   9.450
 5504POPC   PO430132   1.957  17.464   9.150
 5504POPC   GL130133   2.014  17.520   8.850
 5504POPC   GL230134   2.038  17.628   8.850
 5504POPC   C1A30135   2.010  17.546   8.550
 5504POPC   D2A30136   2.011  17.524   8.250
 5504POPC   C3A30137   1.997  17.474   7.950
 5504POPC   C4A30138   1.958  17.468   7.650
 5504POPC   C1B30139   2.004  17.720   8.550
 5504POPC   C2B30140   2.068  17.754   8.250
 5504POPC   C3B30141   2.042  17.746   7.950
 5504POPC   C4B30142   2.003  17.754   7.650
 5505POPC   NC330143  19.105  29.096   9.450
 5505POPC   PO430144  19.034  29.148   9.150
 5505POPC   GL130145  19.090  29.187   8.850
 5505POPC   GL230146  19.147  29.225   8.850
 5505POPC   C1A30147  19.105  29.156   8.550
 5505POPC   D2A30148  19.049  29.132   8.250
 5505POPC   C3A30149  19.013  29.188   7.950
 5505POPC   C4A30150  19.056  29.127   7.650
 5505POPC   C1B30151  19.168  29.410   8.550
 5505POPC   C2B30152  19.226  29.385   8.250
 5505POPC   C3B30153  19.142  29.379   7.950
 5505POPC   C4B30154  19.133  29.384   7.650
 5506POPC   NC330155  33.811  17.464   9.450
 5506POPC   PO430156  33.816  17.537   9.150
 5506POPC   GL130157  33.806  17.504   8.850
 5506POPC   GL230158  33.843  17.570   8.850
 5506POPC   C1A30159  33.792  17.539   8.550
 5506POPC   D2A30160  33.768  17.467   8.250
 5506POPC   C3A30161  33.770  17.556   7.950
 5506POPC   C4A30162  33.785  17.538   7.650
 5506POPC   C1B30163  33.947  17.732   8.550
 5506POPC   C2B30164  34.007  17.670   8.250
 5506POPC   C3B30165  33.978  17.641   7.950
 5506POPC   C4B30166  33.964  17.719   7.650
 5507POPC   NC330167  11.295  10.518   9.450
 5507POPC   PO430168  11.347  10.519   9.150
 5507POPC   GL130169  11.335  10.515   8.850
 5507POPC   GL230170  11.260  10.412   8.850
 5507POPC   C1A30171  11.301  10.552   8.550
 5507POPC   D2A30172  11.254  10.509   8.250
 5507POPC   C3A30173  11.312  10.526   7.950
 5507POPC   C4A30174  11.272  10.495   7.650
 5507POPC   C1B30175  11.104  10.389   8.550
 5507POPC   C2B30176  11.089  10.341   8.250
 5507POPC   C3B30177  11.171  10.300   7.950
 5507POPC   C4B30178  11.136  10.301   7.650
 5508POPC   NC330179  10.518  30.668   9.450
 5508POPC   PO430180  10.493  30.678   9.150
 5508POPC   GL130181  10.506  30.695   8.850
 5508POPC   GL230182  10.630  30.739   8.850
 5508POPC   C1A30183  10.541  30.650   8.550
 5508POPC   D2A30184  10.552  30.681   8.250
 5508POPC   C3A30185  10.503  30.696   7.950
 5508POPC   C4A30186  10.480  30.679   7.650
 5508POPC   C1B30187  10.761  30.768   8.550
 5508POPC   C2B30188  10.735  30.699   8.250
 5508POPC   C3B30189  10.805  30.764   7.950
 5508POPC   C4B30190  10.779  30.740   7.650
 5509POPC   NC330191  40.753  33.069   9.450
 5509POPC   PO430192  40.790  33.002   9.150
 5509POPC   GL130193  40.815  32.994   8.850
 5509POPC   GL230194  40.882  32.969   8.850
 5509POPC   C1A30195  40.810  32.991   8.550
 5509POPC   D2A30196  40.825  33.025   8.250
 5509POPC   C3A30197  40.830  32.990   7.950
 5509POPC   C4A30198  40.765  32.976   7.650
 5509POPC   C1B30199  41.054  32.973   8.550
 5509POPC   C2B30200  41.045  32.926   8.250
 5509POPC   C3B30201  41.042  33.008   7.950
 5509POPC   C4B30202  40.995  32.927   7.650
 5510POPC   NC330203   4.292  29.935   9.450
 5510POPC   PO430204   4.282  29.939   9.150
 5510POPC   GL130205   4.286  29.882   8.850
 5510POPC   GL230206   4.433  29.861   8.850
 5510POPC   C1A30207   4.271  29.873   8.550
 5510POPC   D2A30208   4.283  29.875   8.250
 5510POPC   C3A30209   4.279  29.958   7.950
 5510POPC   C4A30210   4.319  29.948   7.650
 5510POPC   C1B30211   4.560  29.890   8.550
 5510POPC   C2B30212   4.526  29.854   8.250
 5510POPC   C3B30213   4.572  29.892   7.950
 5510POPC   C4B30214   4.550  29.851   7.650
 5511POPC   NC330215  30.702   8.205   9.450
 5511POPC   PO430216  30.713   8.215   9.150
 5511POPC   GL130217  30.675   8.184   8.850
 5511POPC   GL230218  30.764   8.105   8.850
 5511POPC   C1A30219  30.732   8.242   8.550
 5511POPC   D2A30220  30.656   8.224   8.250
 5511POPC   C3A30221  30.685   8.224   7.950
 5511POPC   C4A30222  30.738   8.241   7.650
 5511POPC   C1B30223  30.798   7.990   8.550
 5511POPC   C2B30224  30.781   7.975   8.250
 5511POPC   C3B30225  30.761   8.003   7.950
 5511POPC   C4B30226  30.791   8.009   7.650
 5512POPC   NC330227  21.346  33.070   9.450
 5512POPC   PO430228  21.370  33.059   9.150
 5512POPC   GL130229  21.426  33.016   8.850
 5512POPC   GL230230  21.429  33.145   8.850
 5512POPC   C1A30231  21.404  33.010   8.550
 5512POPC   D2A30232  21.361  33.018   8.250
 5512POPC   C3A30233  21.365  33.014   7.950
 5512POPC   C4A30234  21.341  33.027   7.650
 5512POPC   C1B30235  21.451  33.279   8.550
 5512POPC   C2B30236  21.510  33.214   8.250
 5512POPC   C3B30237  21.456  33.255   7.950
 5512POPC   C4B30238  21.494  33.287   7.650
 5513POPC   NC330239   9.739   8.164   9.450
 5513POPC   PO430240   9.707   8.171   9.150
 5513POPC   GL130241   9.733   8.183   8.850
 5513POPC   GL230242   9.790   8.102   8.850
 5513POPC   C1A30243   9.751   8.223   8.550
 5513POPC   D2A30244   9.703   8.230   8.250
 5513POPC   C3A30245   9.707   8.206   7.950
 5513POPC   C4A30246   9.721   8.221   7.650
 5513POPC   C1B30247   9.807   7.982   8.550
 5513POPC   C2B30248   9.744   7.959   8.250
 5513POPC   C3B30249   9.724   7.974   7.950
 5513POPC   C4B30250   9.722   7.900   7.650
 5514POPC   NC330251  30.700  18.269   9.450
 5514POPC   PO430252  30.665  18.245   9.150
 5514POPC   GL130253  30.705  18.301   8.850
 5514POPC   GL230254  30.603  18.215   8.850
 5514POPC   C1A30255  30.687  18.250   8.550
 5514POPC   D2A30256  30.648  18.262   8.250
 5514POPC   C3A30257  30.736  18.330   7.950
 5514POPC   C4A30258  30.690  18.326   7.650
 5514POPC   C1B30259  30.408  18.208   8.550
 5514POPC   C2B30260  30.428  18.249   8.250
 5514POPC   C3B30261  30.464  18.266   7.950
 5514POPC   C4B30262  30.420  18.230   7.650
 5515POPC   NC330263   3.564  29.943   9.450
 5515POPC   PO430264   3.543  29.899   9.150
 5515POPC   GL130265   3.539  29.913   8.850
 5515POPC   GL230266   3.503  30.004   8.850
 5515POPC   C1A30267   3.502  29.874   8.550
 5515POPC   D2A30268   3.572  29.910   8.250
 5515POPC   C3A30269   3.578  29.934   7.950
 5515POPC   C4A30270   3.584  29.897   7.650
 5515POPC   C1B30271   3.349  30.100   8.550
 5515POPC   C2B30272   3.395  30.100   8.250
 5515POPC   C3B30273   3.401  30.089   7.950
 5515POPC   C4B30274   3.353  30.065   7.650
 5516POPC   NC330275   3.528  23.740   9.450
 5516POPC   PO430276   3.495  23.738   9.150
 5516POPC   GL130277   3.534  23.672   8.850
 5516POPC   GL230278   3.406  23.735   8.850
 5516POPC   C1A30279   3.505  23.702   8.550
 5516POPC   D2A30280   3.575  23.734   8.250
 5516POPC   C3A30281   3.501  23.726   7.950
 5516POPC   C4A30282   3.576  23.680   7.650
 5516POPC   C1B30283   3.291  23.791   8.550
 5516POPC   C2B30284   3.345  23.772   8.250
 5516POPC   C3B30285   3.304  23.838   7.950
 5516POPC   C4B30286   3.337  23.791   7.650
 5517POPC   NC330287   8.240  18.312   9.450
 5517POPC   PO430288   8.218  18.328   9.150
 5517POPC   GL130289   8.167  18.293   8.850
 5517POPC   GL230290   8.108  18.200   8.850
 5517POPC   C1A30291   8.240  18.300   8.550
 5517POPC   D2A30292   8.203  18.307   8.250
 5517POPC   C3A30293   8.241  18.320   7.950
 5517POPC   C4A30294   8.161  18.260   7.650
 5517POPC   C1B30295   7.919  18.174   8.550
 5517POPC   C2B30296   7.920  18.249   8.250
 5517POPC   C3B30297   7.941  18.210   7.950
 5517POPC   C4B30298   8.006  18.178   7.650
 5518POPC   NC330299  25.262   2.736   9.450
 5518POPC   PO430300  25.277   2.774   9.150
 5518POPC   GL130301  25.228   2.716   8.850
 5518POPC   GL230302  25.121   2.783   8.850
 5518POPC   C1A30303  25.238   2.765   8.550
 5518POPC   D2A30304  25.259   2.758   8.250
 5518POPC   C3A30305  25.251   2.760   7.950
 5518POPC   C4A30306  25.310   2.729   7.650
 5518POPC   C1B30307  25.065   2.863   8.550
 5518POPC   C2B30308  25.056   2.875   8.250
 5518POPC   C3B30309  25.030   2.857   7.950
 5518POPC   C4B30310  25.060   2.910   7.650
 5519POPC   NC330311   1.198  28.348   9.450
 5519POPC   PO430312   1.257  28.358   9.150
 5519POPC   GL130313   1.176  28.377   8.850
 5519POPC   GL230314   1.218  28.534   8.850
 5519POPC   C1A30315   1.203  28.371   8.550
 5519POPC   D2A30316   1.223  28.376   8.250
 5519POPC   C3A30317   1.193  28.384   7.950
 5519POPC   C4A30318   1.205  28.418   7.650
 5519POPC   C1B30319   1.282  28.649   8.550
 5519POPC   C2B30320   1.243  28.645   8.250
 5519POPC   C3B30321   1.329  28.565   7.950
 5519POPC   C4B30322   1.265  28.590   7.650
 5520POPC   NC330323   8.181  12.072   9.450
 5520POPC   PO430324   8.237  12.091   9.150
 5520POPC   GL130325   8.185  12.110   8.850
 5520POPC   GL230326   8.139  12.056   8.850
 5520POPC   C1A30327   8.205  12.064   8.550
 5520POPC   D2A30328   8.245  12.086   8.250
 5520POPC   C3A30329   8.162  12.123   7.950
 5520POPC   C4A30330   8.245  12.068   7.650
 5520POPC   C1B30331   7.963  11.946   8.550
 5520POPC   C2B30332   7.975  11.916   8.250
 5520POPC   C3B30333   8.002  11.916   7.950
 5520POPC   C4B30334   8.002  11.947   7.650
 5521POPC   NC330335  44.656  41.590   9.450
 5521POPC   PO430336  44.627  41.551   9.150
 5521POPC   GL130337  44.628  41.571   8.850
 5521POPC   GL230338  44.558  41.449   8.850
 5521POPC   C1A30339  44.646  41.553   8.550
 5521POPC   D2A30340  44.658  41.565   8.250
 5521POPC   C3A30341  44.619  41.573   7.950
 5521POPC   C4A30342  44.687  41.556   7.650
 5521POPC   C1B30343  44.440  41.378   8.550
 5521POPC   C2B30344  44.444  41.430   8.250
 5521POPC   C3B30345  44.482  41.359   7.950
 5521POPC   C4B30346  44.489  41.413   7.650
 5522POPC   NC330347  19.883  30.660   9.450
 5522POPC   PO430348  19.798  30.647   9.150
 5522POPC   GL130349  19.792  30.670   8.850
 5522POPC   GL230350  19.728  30.753   8.850
 5522POPC   C1A30351  19.866  30.701   8.550
 5522POPC   D2A30352  19.837  30.655   8.250
 5522POPC   C3A30353  19.799  30.708   7.950
 5522POPC   C4A30354  19.833  30.699   7.650
 5522POPC   C1B30355  19.599  30.728   8.550
 5522POPC   C2B30356  19.593  30.791   8.250
 5522POPC   C3B30357  19.561  30.750   7.950
 5522POPC   C4B30358  19.570  30.738   7.650
 5523POPC   NC330359  31.453  14.408   9.450
 5523POPC   PO430360  31.471  14.356   9.150
 5523POPC   GL130361  31.468  14.402   8.850
 5523POPC   GL230362  31.581  14.439   8.850
 5523POPC   C1A30363  31.456  14.421   8.550
 5523POPC   D2A30364  31.512  14.404   8.250
 5523POPC   C3A30365  31.478  14.445   7.950
 5523POPC   C4A30366  31.443  14.435   7.650
 5523POPC   C1B30367  31.700  14.479   8.550
 5523POPC   C2B30368  31.655  14.536   8.250
 5523POPC   C3B30369  31.697  14.557   7.950
 5523POPC   C4B30370  31.731  14.546   7.650
 5524POPC   NC330371  19.026  21.426   9.450
 5524POPC   PO430372  19.035  21.347   9.150
 5524POPC   GL130373  19.075  21.353   8.850
 5524POPC   GL230374  18.935  21.373   8.850
 5524POPC   C1A30375  19.028  21.402   8.550
 5524POPC   D2A30376  19.018  21.434   8.250
 5524POPC   C3A30377  19.039  21.349   7.950
 5524POPC   C4A30378  19.074  21.362   7.650
 5524POPC   C1B30379  18.864  21.271   8.550
 5524POPC   C2B30380  18.792  21.333   8.250
 5524POPC   C3B30381  18.827  21.338   7.950
 5524POPC   C4B30382  18.845  21.298   7.650
 5525POPC   NC330383  43.912  26.816   9.450
 5525POPC   PO430384  43.923  26.783   9.150
 5525POPC   GL130385  43.903  26.860   8.850
 5525POPC   GL230386  43.841  26.921   8.850
 5525POPC   C1A30387  43.871  26.843   8.550
 5525POPC   D2A30388  43.912  26.809   8.250
 5525POPC   C3A30389  43.874  26.828   7.950
 5525POPC   C4A30390  43.845  26.804   7.650
 5525POPC   C1B30391  43.830  27.029   8.550
 5525POPC   C2B30392  43.759  27.015   8.250
 5525POPC   C3B30393  43.810  27.026   7.950
 5525POPC   C4B30394  43.850  27.026   7.650
 5526POPC   NC330395  44.690  15.210   9.450
 5526POPC   PO430396  44.629  15.182   9.150
 5526POPC   GL130397  44.664  15.207   8.850
 5526POPC   GL230398  44.658  15.342   8.850
 5526POPC   C1A30399  44.639  15.149   8.550
 5526POPC   D2A30400  44.697  15.172   8.250
 5526POPC   C3A30401  44.676  15.168   7.950
 5526POPC   C4A30402  44.697  15.166   7.650
 5526POPC   C1B30403  44.655  15.414   8.550
 5526POPC   C2B30404  44.672  15.428   8.250
 5526POPC   C3B30405  44.663  15.471   7.950
 5526POPC   C4B30406  44.667  15.378   7.650
 5527POPC   NC330407  23.701  35.381   9.450
 5527POPC   PO430408  23.707  35.331   9.150
 5527POPC   GL130409  23.677  35.352   8.850
 5527POPC   GL230410  23.839  35.339   8.850
 5527POPC   C1A30411  23.708  35.352   8.550
 5527POPC   D2A30412  23.736  35.389   8.250
 5527POPC   C3A30413  23.760  35.353   7.950
 5527POPC   C4A30414  23.709  35.330   7.650
 5527POPC   C1B30415  23.970  35.217   8.550
 5527POPC   C2B30416  23.914  35.262   8.250
 5527POPC   C3B30417  23.946  35.252   7.950
 5527POPC   C4B30418  23.951  35.234   7.650
 5528POPC   NC330419  33.048  40.817   9.450
 5528POPC   PO430420  32.977  40.740   9.150
 5528POPC   GL130421  33.018  40.787   8.850
 5528POPC   GL230422  33.100  40.746   8.850
 5528POPC   C1A30423  33.024  40.820   8.550
 5528POPC   D2A30424  33.067  40.788   8.250
 5528POPC   C3A30425  33.053  40.787   7.950
 5528POPC   C4A30426  33.041  40.784   7.650
 5528POPC   C1B30427  33.255  40.767   8.550
 5528POPC   C2B30428  33.323  40.751   8.250
 5528POPC   C3B30429  33.302  40.761   7.950
 5528POPC   C4B30430  33.277  40.767   7.650
 5529POPC   NC330431   2.004  14.394   9.450
 5529POPC   PO430432   2.027  14.398   9.150
 5529POPC   GL130433   2.011  14.439   8.850
 5529POPC   GL230434   1.935  14.559   8.850
 5529POPC   C1A30435   2.003  14.371   8.550
 5529POPC   D2A30436   1.950  14.432   8.250
 5529POPC   C3A30437   2.000  14.372   7.950
 5529POPC   C4A30438   1.978  14.436   7.650
 5529POPC   C1B30439   1.817  14.594   8.550
 5529POPC   C2B30440   1.867  14.660   8.250
 5529POPC   C3B30441   1.865  14.626   7.950
 5529POPC   C4B30442   1.896  14.587   7.650
 5530POPC   NC330443  18.277   3.541   9.450
 5530POPC   PO430444  18.322   3.502   9.150
 5530POPC   GL130445  18.260   3.533   8.850
 5530POPC   GL230446  18.359   3.557   8.850
 5530POPC   C1A30447  18.288   3.570   8.550
 5530POPC   D2A30448  18.314   3.559   8.250
 5530POPC   C3A30449  18.282   3.509   7.950
 5530POPC   C4A30450  18.314   3.542   7.650
 5530POPC   C1B30451  18.538   3.488   8.550
 5530POPC   C2B30452  18.505   3.512   8.250
 5530POPC   C3B30453  18.519   3.551   7.950
 5530POPC   C4B30454  18.500   3.540   7.650
 5531POPC   NC330455  32.220  40.040   9.450
 5531POPC   PO430456  32.209  40.010   9.150
 5531POPC   GL130457  32.247  39.990   8.850
 5531POPC   GL230458  32.097  40.073   8.850
 5531POPC   C1A30459  32.201  40.003   8.550
 5531POPC   D2A30460  32.261  40.038   8.250
 5531POPC   C3A30461  32.251  39.980   7.950
 5531POPC   C4A30462  32.212  40.035   7.650
 5531POPC   C1B30463  32.070  40.137   8.550
 5531POPC   C2B30464  32.030  40.074   8.250
 5531POPC   C3B30465  32.042  40.150   7.950
 5531POPC   C4B30466  32.016  40.108   7.650
 5532POPC   NC330467  36.165  40.037   9.450
 5532POPC   PO430468  36.107  39.959   9.150
 5532POPC   GL130469  36.112  39.990   8.850
 5532POPC   GL230470  36.047  40.045   8.850
 5532POPC   C1A30471  36.101  40.003   8.550
 5532POPC   D2A30472  36.083  40.040   8.250
 5532POPC   C3A30473  36.162  39.995   7.950
 5532POPC   C4A30474  36.144  40.016   7.650
 5532POPC   C1B30475  35.961  40.128   8.550
 5532POPC   C2B30476  35.892  40.182   8.250
 5532POPC   C3B30477  35.892  40.177   7.950
 5532POPC   C4B30478  35.914  40.088   7.650
 5533POPC   NC330479   3.491  44.638   9.450
 5533POPC   PO430480   3.587  44.652   9.150
 5533POPC   GL130481   3.535  44.652   8.850
 5533POPC   GL230482   3.698  44.679   8.850
 5533POPC   C1A30483   3.553  44.692   8.550
 5533POPC   D2A30484   3.579  44.631   8.250
 5533POPC   C3A30485   3.507  44.632   7.950
 5533POPC   C4A30486   3.570  44.624   7.650
 5533POPC   C1B30487   3.798  44.719   8.550
 5533POPC   C2B30488   3.748  44.654   8.250
 5533POPC   C3B30489   3.752  44.676   7.950
 5533POPC   C4B30490   3.776  44.709   7.650
 5534POPC   NC330491  38.465  33.063   9.450
 5534POPC   PO430492  38.428  33.027   9.150
 5534POPC   GL130493  38.472  33.066   8.850
 5534POPC   GL230494  38.486  33.177   8.850
 5534POPC   C1A30495  38.443  33.009   8.550
 5534POPC   D2A30496  38.436  33.029   8.250
 5534POPC   C3A30497  38.451  32.984   7.950
 5534POPC   C4A30498  38.409  33.058   7.650
 5534POPC   C1B30499  38.506  33.241   8.550
 5534POPC   C2B30500  38.488  33.310   8.250
 5534POPC   C3B30501  38.558  33.282   7.950
 5534POPC   C4B30502  38.499  33.231   7.650
 5535POPC   NC330503  28.398  22.160   9.450
 5535POPC   PO430504  28.367  22.194   9.150
 5535POPC   GL130505  28.416  22.148   8.850
 5535POPC   GL230506  28.537  22.221   8.850
 5535POPC   C1A30507  28.380  22.150   8.550
 5535POPC   D2A30508  28.362  22.123   8.250
 5535POPC   C3A30509  28.408  22.156   7.950
 5535POPC   C4A30510  28.352  22.133   7.650
 5535POPC   C1B30511  28.647  22.158   8.550
 5535POPC   C2B30512  28.603  22.197   8.250
 5535POPC   C3B30513  28.641  22.214   7.950
 5535POPC   C4B30514  28.614  22.213   7.650
 5536POPC   NC330515  21.396  34.571   9.450
 5536POPC   PO430516  21.407  34.594   9.150
 5536POPC   GL130517  21.398  34.566   8.850
 5536POPC   GL230518  21.250  34.652   8.850
 5536POPC   C1A30519  21.430  34.544   8.550
 5536POPC   D2A30520  21.386  34.625   8.250
 5536POPC   C3A30521  21.354  34.604   7.950
 5536POPC   C4A30522  21.364  34.620   7.650
 5536POPC   C1B30523  21.153  34.609   8.550
 5536POPC   C2B30524  21.123  34.674   8.250
 5536POPC   C3B30525  21.174  34.679   7.950
 5536POPC   C4B30526  21.182  34.681   7.650
 5537POPC   NC330527  26.004  29.942   9.450
 5537POPC   PO430528  26.043  29.885   9.150
 5537POPC   GL130529  26.083  29.894   8.850
 5537POPC   GL230530  26.073  30.003   8.850
 5537POPC   C1A30531  26.065  29.924   8.550
 5537POPC   D2A30532  26.076  29.923   8.250
 5537POPC   C3A30533  26.071  29.964   7.950
 5537POPC   C4A30534  26.019  29.969   7.650
 5537POPC   C1B30535  26.166  30.123   8.550
 5537POPC   C2B30536  26.211  30.119   8.250
 5537POPC   C3B30537  26.214  30.099   7.950
 5537POPC   C4B30538  26.149  30.127   7.650
 5538POPC   NC330539  37.661  40.749   9.450
 5538POPC   PO430540  37.664  40.739   9.150
 5538POPC   GL130541  37.683  40.758   8.850
 5538POPC   GL230542  37.712  40.914   8.850
 5538POPC   C1A30543  37.705  40.793   8.550
 5538POPC   D2A30544  37.649  40.740   8.250
 5538POPC   C3A30545  37.633  40.756   7.950
 5538POPC   C4A30546  37.696  40.815   7.650
 5538POPC   C1B30547  37.713  41.054   8.550
 5538POPC   C2B30548  37.758  41.017   8.250
 5538POPC   C3B30549  37.739  40.997   7.950
 5538POPC   C4B30550  37.702  41.079   7.650
 5539POPC   NC330551  32.229   6.687   9.450
 5539POPC   PO430552  32.280   6.656   9.150
 5539POPC   GL130553  32.206   6.648   8.850
 5539POPC   GL230554  32.198   6.509   8.850
 5539POPC   C1A30555  32.232   6.681   8.550
 5539POPC   D2A30556  32.240   6.597   8.250
 5539POPC   C3A30557  32.239   6.680   7.950
 5539POPC   C4A30558  32.203   6.616   7.650
 5539POPC   C1B30559  32.248   6.429   8.550
 5539POPC   C2B30560  32.262   6.398   8.250
 5539POPC   C3B30561  32.227   6.421   7.950
 5539POPC   C4B30562  32.223   6.378   7.650
 5540POPC   NC330563  37.711  42.367   9.450
 5540POPC   PO430564  37.665  42.326   9.150
 5540POPC   GL130565  37.718  42.341   8.850
 5540POPC   GL230566  37.556  42.272   8.850
 5540POPC   C1A30567  37.673  42.384   8.550
 5540POPC   D2A30568  37.682  42.367   8.250
 5540POPC   C3A30569  37.650  42.333   7.950
 5540POPC   C4A30570  37.629  42.346   7.650
 5540POPC   C1B30571  37.387  42.240   8.550
 5540POPC   C2B30572  37.441  42.247   8.250
 5540POPC   C3B30573  37.480  42.304   7.950
 5540POPC   C4B30574  37.407  42.293   7.650
 5541POPC   NC330575   1.233  34.587   9.450
 5541POPC   PO430576   1.212  34.620   9.150
 5541POPC   GL130577   1.210  34.587   8.850
 5541POPC   GL230578   1.326  34.568   8.850
 5541POPC   C1A30579   1.165  34.591   8.550
 5541POPC   D2A30580   1.206  34.559   8.250
 5541POPC   C3A30581   1.220  34.556   7.950
 5541POPC   C4A30582   1.206  34.581   7.650
 5541POPC   C1B30583   1.503  34.511   8.550
 5541POPC   C2B30584   1.419  34.545   8.250
 5541POPC   C3B30585   1.429  34.485   7.950
 5541POPC   C4B30586   1.426  34.559   7.650
 5542POPC   NC330587  30.727  20.640   9.450
 5542POPC   PO430588  30.677  20.578   9.150
 5542POPC   GL130589  30.672  20.590   8.850
 5542POPC   GL230590  30.734  20.477   8.850
 5542POPC   C1A30591  30.662  20.579   8.550
 5542POPC   D2A30592  30.709  20.564   8.250
 5542POPC   C3A30593  30.697  20.642   7.950
 5542POPC   C4A30594  30.726  20.577   7.650
 5542POPC   C1B30595  30.827  20.342   8.550
 5542POPC   C2B30596  30.794  20.340   8.250
 5542POPC   C3B30597  30.768  20.372   7.950
 5542POPC   C4B30598  30.847  20.397   7.650
 5543POPC   NC330599  16.733  12.814   9.450
 5543POPC   PO430600  16.740  12.815   9.150
 5543POPC   GL130601  16.729  12.868   8.850
 5543POPC   GL230602  16.685  12.714   8.850
 5543POPC   C1A30603  16.780  12.868   8.550
 5543POPC   D2A30604  16.715  12.885   8.250
 5543POPC   C3A30605  16.767  12.807   7.950
 5543POPC   C4A30606  16.714  12.817   7.650
 5543POPC   C1B30607  16.543  12.674   8.550
 5543POPC   C2B30608  16.575  12.681   8.250
 5543POPC   C3B30609  16.619  12.617   7.950
 5543POPC   C4B30610  16.591  12.704   7.650
 5544POPC   NC330611  28.325   3.537   9.450
 5544POPC   PO430612  28.380   3.499   9.150
 5544POPC   GL130613  28.415   3.590   8.850
 5544POPC   GL230614  28.456   3.596   8.850
 5544POPC   C1A30615  28.348   3.584   8.550
 5544POPC   D2A30616  28.336   3.563   8.250
 5544POPC   C3A30617  28.363   3.507   7.950
 5544POPC   C4A30618  28.384   3.551   7.650
 5544POPC   C1B30619  28.579   3.688   8.550
 5544POPC   C2B30620  28.548   3.742   8.250
 5544POPC   C3B30621  28.530   3.703   7.950
 5544POPC   C4B30622  28.496   3.714   7.650
 5545POPC   NC330623  29.185  44.639   9.450
 5545POPC   PO430624  29.131  44.625   9.150
 5545POPC   GL130625  29.151  44.683   8.850
 5545POPC   GL230626  29.136  44.586   8.850
 5545POPC   C1A30627  29.106  44.627   8.550
 5545POPC   D2A30628  29.134  44.614   8.250
 5545POPC   C3A30629  29.115  44.628   7.950
 5545POPC   C4A30630  29.110  44.641   7.650
 5545POPC   C1B30631  29.175  44.372   8.550
 5545POPC   C2B30632  29.120  44.428   8.250
 5545POPC   C3B30633  29.177  44.455   7.950
 5545POPC   C4B30634  29.120  44.412   7.650
 5546POPC   NC330635  16.742  34.538   9.450
 5546POPC   PO430636  16.684  34.613   9.150
 5546POPC   GL130637  16.769  34.574   8.850
 5546POPC   GL230638  16.727  34.712   8.850
 5546POPC   C1A30639  16.731  34.543   8.550
 5546POPC   D2A30640  16.772  34.573   8.250
 5546POPC   C3A30641  16.777  34.575   7.950
 5546POPC   C4A30642  16.688  34.590   7.650
 5546POPC   C1B30643  16.755  34.853   8.550
 5546POPC   C2B30644  16.763  34.837   8.250
 5546POPC   C3B30645  16.778  34.795   7.950
 5546POPC   C4B30646  16.786  34.793   7.650
 5547POPC   NC330647  34.604  43.893   9.450
 5547POPC   PO430648  34.547  43.841   9.150
 5547POPC   GL130649  34.551  43.848   8.850
 5547POPC   GL230650  34.486  43.834   8.850
 5547POPC   C1A30651  34.624  43.931   8.550
 5547POPC   D2A30652  34.582  43.844   8.250
 5547POPC   C3A30653  34.538  43.840   7.950
 5547POPC   C4A30654  34.602  43.926   7.650
 5547POPC   C1B30655  34.469  43.647   8.550
 5547POPC   C2B30656  34.437  43.650   8.250
 5547POPC   C3B30657  34.388  43.671   7.950
 5547POPC   C4B30658  34.463  43.659   7.650
 5548POPC   NC330659  25.256   8.174   9.450
 5548POPC   PO430660  25.303   8.178   9.150
 5548POPC   GL130661  25.248   8.197   8.850
 5548POPC   GL230662  25.140   8.143   8.850
 5548POPC   C1A30663  25.226   8.220   8.550
 5548POPC   D2A30664  25.242   8.216   8.250
 5548POPC   C3A30665  25.276   8.218   7.950
 5548POPC   C4A30666  25.273   8.165   7.650
 5548POPC   C1B30667  25.015   8.149   8.550
 5548POPC   C2B30668  24.979   8.213   8.250
 5548POPC   C3B30669  24.973   8.166   7.950
 5548POPC   C4B30670  25.034   8.143   7.650
 5549POPC   NC330671   4.298  30.657   9.450
 5549POPC   PO430672   4.362  30.742   9.150
 5549POPC   GL130673   4.279  30.703   8.850
 5549POPC   GL230674   4.371  30.616   8.850
 5549POPC   C1A30675   4.332  30.734   8.550
 5549POPC   D2A30676   4.292  30.686   8.250
 5549POPC   C3A30677   4.280  30.744   7.950
 5549POPC   C4A30678   4.365  30.736   7.650
 5549POPC   C1B30679   4.495  30.500   8.550
 5549POPC   C2B30680   4.479  30.533   8.250
 5549POPC   C3B30681   4.451  30.520   7.950
 5549POPC   C4B30682   4.499  30.450   7.650
 5550POPC   NC330683  20.657  14.433   9.450
 5550POPC   PO430684  20.571  14.380   9.150
 5550POPC   GL130685  20.631  14.424   8.850
 5550POPC   GL230686  20.543  14.328   8.850
 5550POPC   C1A30687  20.639  14.385   8.550
 5550POPC   D2A30688  20.577  14.359   8.250
 5550POPC   C3A30689  20.615  14.369   7.950
 5550POPC   C4A30690  20.644  14.437   7.650
 5550POPC   C1B30691  20.414  14.287   8.550
 5550POPC   C2B30692  20.443  14.246   8.250
 5550POPC   C3B30693  20.413  14.281   7.950
 5550POPC   C4B30694  20.346  14.265   7.650
 5551POPC   NC330695  31.445   1.186   9.450
 5551POPC   PO430696  31.431   1.245   9.150
 5551POPC   GL130697  31.457   1.238   8.850
 5551POPC   GL230698  31.330   1.150   8.850
 5551POPC   C1A30699  31.447   1.236   8.550
 5551POPC   D2A30700  31.468   1.217   8.250
 5551POPC   C3A30701  31.497   1.262   7.950
 5551POPC   C4A30702  31.471   1.167   7.650
 5551POPC   C1B30703  31.327   1.097   8.550
 5551POPC   C2B30704  31.320   1.028   8.250
 5551POPC   C3B30705  31.264   1.091   7.950
 5551POPC   C4B30706  31.291   1.048   7.650
 5552POPC   NC330707  24.522   2.809   9.450
 5552POPC   PO430708  24.492   2.807   9.150
 5552POPC   GL130709  24.450   2.799   8.850
 5552POPC   GL230710  24.508   2.929   8.850
 5552POPC   C1A30711  24.483   2.799   8.550
 5552POPC   D2A30712  24.461   2.742   8.250
 5552POPC   C3A30713  24.451   2.743   7.950
 5552POPC   C4A30714  24.458   2.771   7.650
 5552POPC   C1B30715  24.504   2.988   8.550
 5552POPC   C2B30716  24.512   2.969   8.250
 5552POPC   C3B30717  24.522   3.020   7.950
 5552POPC   C4B30718  24.524   3.025   7.650
 5553POPC   NC330719  16.728  36.156   9.450
 5553POPC   PO430720  16.688  36.083   9.150
 5553POPC   GL130721  16.745  36.128   8.850
 5553POPC   GL230722  16.610  36.103   8.850
 5553POPC   C1A30723  16.689  36.139   8.550
 5553POPC   D2A30724  16.733  36.095   8.250
 5553POPC   C3A30725  16.719  36.128   7.950
 5553POPC   C4A30726  16.776  36.127   7.650
 5553POPC   C1B30727  16.486  36.061   8.550
 5553POPC   C2B30728  16.453  36.066   8.250
 5553POPC   C3B30729  16.514  36.027   7.950
 5553POPC   C4B30730  16.483  36.066   7.650
 5554POPC   NC330731  13.621  15.192   9.450
 5554POPC   PO430732  13.616  15.133   9.150
 5554POPC   GL130733  13.625  15.149   8.850
 5554POPC   GL230734  13.625  15.321   8.850
 5554POPC   C1A30735  13.635  15.138   8.550
 5554POPC   D2A30736  13.595  15.213   8.250
 5554POPC   C3A30737  13.654  15.222   7.950
 5554POPC   C4A30738  13.665  15.152   7.650
 5554POPC   C1B30739  13.571  15.443   8.550
 5554POPC   C2B30740  13.600  15.452   8.250
 5554POPC   C3B30741  13.606  15.386   7.950
 5554POPC   C4B30742  13.582  15.393   7.650
 5555POPC   NC330743  12.823  38.460   9.450
 5555POPC   PO430744  12.885  38.422   9.150
 5555POPC   GL130745  12.823  38.427   8.850
 5555POPC   GL230746  12.928  38.352   8.850
 5555POPC   C1A30747  12.841  38.498   8.550
 5555POPC   D2A30748  12.880  38.411   8.250
 5555POPC   C3A30749  12.840  38.458   7.950
 5555POPC   C4A30750  12.879  38.460   7.650
 5555POPC   C1B30751  13.016  38.284   8.550
 5555POPC   C2B30752  13.027  38.336   8.250
 5555POPC   C3B30753  13.044  38.269   7.950
 5555POPC   C4B30754  13.050  38.259   7.650
 5556POPC   NC330755  12.826   9.780   9.450
 5556POPC   PO430756  12.901   9.788   9.150
 5556POPC   GL130757  12.829   9.755   8.850
 5556POPC   GL230758  12.885   9.594   8.850
 5556POPC   C1A30759  12.895   9.744   8.550
 5556POPC   D2A30760  12.862   9.750   8.250
 5556POPC   C3A30761  12.865   9.704   7.950
 5556POPC   C4A30762  12.876   9.775   7.650
 5556POPC   C1B30763  12.926   9.537   8.550
 5556POPC   C2B30764  12.942   9.490   8.250
 5556POPC   C3B30765  12.896   9.467   7.950
 5556POPC   C4B30766  12.973   9.517   7.650
 5557POPC   NC330767   4.355   4.295   9.450
 5557POPC   PO430768   4.281   4.323   9.150
 5557POPC   GL130769   4.294   4.313   8.850
 5557POPC   GL230770   4.308   4.153   8.850
 5557POPC   C1A30771   4.277   4.283   8.550
 5557POPC   D2A30772   4.315   4.310   8.250
 5557POPC   C3A30773   4.301   4.353   7.950
 5557POPC   C4A30774   4.286   4.309   7.650
 5557POPC   C1B30775   4.398   4.024   8.550
 5557POPC   C2B30776   4.347   4.117   8.250
 5557POPC   C3B30777   4.341   4.065   7.950
 5557POPC   C4B30778   4.379   4.029   7.650
 5558POPC   NC330779  36.855  23.698   9.450
 5558POPC   PO430780  36.934  23.688   9.150
 5558POPC   GL130781  36.873  23.682   8.850
 5558POPC   GL230782  37.046  23.797   8.850
 5558POPC   C1A30783  36.898  23.690   8.550
 5558POPC   D2A30784  36.912  23.707   8.250
 5558POPC   C3A30785  36.890  23.733   7.950
 5558POPC   C4A30786  36.947  23.702   7.650
 5558POPC   C1B30787  37.113  23.849   8.550
 5558POPC   C2B30788  37.097  23.907   8.250
 5558POPC   C3B30789  37.093  23.827   7.950
 5558POPC   C4B30790  37.101  23.833   7.650
 5559POPC   NC330791   3.514  13.588   9.450
 5559POPC   PO430792   3.543  13.604   9.150
 5559POPC   GL130793   3.580  13.653   8.850
 5559POPC   GL230794   3.367  13.592   8.850
 5559POPC   C1A30795   3.587  13.677   8.550
 5559POPC   D2A30796   3.494  13.645   8.250
 5559POPC   C3A30797   3.521  13.634   7.950
 5559POPC   C4A30798   3.522  13.623   7.650
 5559POPC   C1B30799   3.330  13.596   8.550
 5559POPC   C2B30800   3.259  13.633   8.250
 5559POPC   C3B30801   3.321  13.608   7.950
 5559POPC   C4B30802   3.314  13.570   7.650
 5560POPC   NC330803  43.878  32.200   9.450
 5560POPC   PO430804  43.932  32.219   9.150
 5560POPC   GL130805  43.920  32.297   8.850
 5560POPC   GL230806  43.832  32.109   8.850
 5560POPC   C1A30807  43.868  32.210   8.550
 5560POPC   D2A30808  43.924  32.288   8.250
 5560POPC   C3A30809  43.890  32.218   7.950
 5560POPC   C4A30810  43.873  32.274   7.650
 5560POPC   C1B30811  43.776  32.000   8.550
 5560POPC   C2B30812  43.719  32.026   8.250
 5560POPC   C3B30813  43.758  32.048   7.950
 5560POPC   C4B30814  43.735  32.082   7.650
 5561POPC   NC330815   2.799  36.115   9.450
 5561POPC   PO430816   2.731  36.079   9.150
 5561POPC   GL130817   2.733  36.177   8.850
 5561POPC   GL230818   2.906  36.160   8.850
 5561POPC   C1A30819   2.751  36.121   8.550
 5561POPC   D2A30820   2.734  36.090   8.250
 5561POPC   C3A30821   2.765  36.109   7.950
 5561POPC   C4A30822   2.787  36.130   7.650
 5561POPC   C1B30823   3.006  36.214   8.550
 5561POPC   C2B30824   2.988  36.248   8.250
 5561POPC   C3B30825   2.994  36.160   7.950
 5561POPC   C4B30826   2.972  36.191   7.650
 5562POPC   NC330827  43.127   0.473   9.450
 5562POPC   PO430828  43.151   0.486   9.150
 5562POPC   GL130829  43.102   0.418   8.850
 5562POPC   GL230830  43.181   0.350   8.850
 5562POPC   C1A30831  43.089   0.452   8.550
 5562POPC   D2A30832  43.154   0.477   8.250
 5562POPC   C3A30833  43.063   0.477   7.950
 5562POPC   C4A30834  43.077   0.455   7.650
 5562POPC   C1B30835  43.227   0.228   8.550
 5562POPC   C2B30836  43.208   0.172   8.250
 5562POPC   C3B30837  43.227   0.158   7.950
 5562POPC   C4B30838  43.238   0.227   7.650
 5563POPC   NC330839  25.307  36.170   9.450
 5563POPC   PO430840  25.313  36.114   9.150
 5563POPC   GL130841  25.268  36.086   8.850
 5563POPC   GL230842  25.155  36.272   8.850
 5563POPC   C1A30843  25.246  36.132   8.550
 5563POPC   D2A30844  25.289  36.107   8.250
 5563POPC   C3A30845  25.259  36.106   7.950
 5563POPC   C4A30846  25.246  36.160   7.650
 5563POPC   C1B30847  25.096  36.309   8.550
 5563POPC   C2B30848  25.088  36.354   8.250
 5563POPC   C3B30849  25.099  36.294   7.950
 5563POPC   C4B30850  25.076  36.357   7.650
 5564POPC   NC330851  36.943  15.982   9.450
 5564POPC   PO430852  36.917  15.907   9.150
 5564POPC   GL130853  36.916  16.001   8.850
 5564POPC   GL230854  36.850  16.004   8.850
 5564POPC   C1A30855  36.856  15.917   8.550
 5564POPC   D2A30856  36.868  15.949   8.250
 5564POPC   C3A30857  36.913  15.963   7.950
 5564POPC   C4A30858  36.874  15.924   7.650
 5564POPC   C1B30859  36.786  16.165   8.550
 5564POPC   C2B30860  36.779  16.177   8.250
 5564POPC   C3B30861  36.792  16.102   7.950
 5564POPC   C4B30862  36.764  16.176   7.650
 5565POPC   NC330863  18.323  24.446   9.450
 5565POPC   PO430864  18.309  24.486   9.150
 5565POPC   GL130865  18.277  24.449   8.850
 5565POPC   GL230866  18.226  24.349   8.850
 5565POPC   C1A30867  18.235  24.449   8.550
 5565POPC   D2A30868  18.312  24.457   8.250
 5565POPC   C3A30869  18.243  24.501   7.950
 5565POPC   C4A30870  18.271  24.490   7.650
 5565POPC   C1B30871  18.217  24.218   8.550
 5565POPC   C2B30872  18.298  24.210   8.250
 5565POPC   C3B30873  18.246  24.249   7.950
 5565POPC   C4B30874  18.240  24.193   7.650
 5566POPC   NC330875   9.015  12.096   9.450
 5566POPC   PO430876   8.974  12.074   9.150
 5566POPC   GL130877   9.016  12.120   8.850
 5566POPC   GL230878   9.080  12.113   8.850
 5566POPC   C1A30879   8.923  12.043   8.550
 5566POPC   D2A30880   8.953  12.061   8.250
 5566POPC   C3A30881   8.985  12.123   7.950
 5566POPC   C4A30882   8.951  12.075   7.650
 5566POPC   C1B30883   9.194  12.092   8.550
 5566POPC   C2B30884   9.210  12.132   8.250
 5566POPC   C3B30885   9.245  12.103   7.950
 5566POPC   C4B30886   9.265  12.054   7.650
 5567POPC   NC330887   4.328   3.494   9.450
 5567POPC   PO430888   4.313   3.550   9.150
 5567POPC   GL130889   4.332   3.529   8.850
 5567POPC   GL230890   4.362   3.704   8.850
 5567POPC   C1A30891   4.334   3.568   8.550
 5567POPC   D2A30892   4.365   3.495   8.250
 5567POPC   C3A30893   4.317   3.509   7.950
 5567POPC   C4A30894   4.278   3.570   7.650
 5567POPC   C1B30895   4.396   3.796   8.550
 5567POPC   C2B30896   4.383   3.761   8.250
 5567POPC   C3B30897   4.378   3.768   7.950
 5567POPC   C4B30898   4.453   3.747   7.650
 5568POPC   NC330899  26.049  33.071   9.450
 5568POPC   PO430900  26.033  33.032   9.150
 5568POPC   GL130901  26.042  32.978   8.850
 5568POPC   GL230902  26.036  32.883   8.850
 5568POPC   C1A30903  26.052  33.023   8.550
 5568POPC   D2A30904  25.993  33.039   8.250
 5568POPC   C3A30905  26.050  33.073   7.950
 5568POPC   C4A30906  26.084  33.016   7.650
 5568POPC   C1B30907  26.029  32.790   8.550
 5568POPC   C2B30908  26.020  32.774   8.250
 5568POPC   C3B30909  26.069  32.815   7.950
 5568POPC   C4B30910  26.099  32.743   7.650
 5569POPC   NC330911   8.944   0.458   9.450
 5569POPC   PO430912   8.943   0.457   9.150
 5569POPC   GL130913   8.954   0.443   8.850
 5569POPC   GL230914   9.087   0.383   8.850
 5569POPC   C1A30915   8.964   0.446   8.550
 5569POPC   D2A30916   8.996   0.445   8.250
 5569POPC   C3A30917   8.944   0.434   7.950
 5569POPC   C4A30918   8.947   0.431   7.650
 5569POPC   C1B30919   9.175   0.468   8.550
 5569POPC   C2B30920   9.197   0.410   8.250
 5569POPC   C3B30921   9.248   0.436   7.950
 5569POPC   C4B30922   9.268   0.414   7.650
 5570POPC   NC330923  43.838   2.004   9.450
 5570POPC   PO430924  43.909   1.947   9.150
 5570POPC   GL130925  43.868   1.994   8.850
 5570POPC   GL230926  43.799   2.097   8.850
 5570POPC   C1A30927  43.846   1.989   8.550
 5570POPC   D2A30928  43.867   2.031   8.250
 5570POPC   C3A30929  43.862   1.999   7.950
 5570POPC   C4A30930  43.867   1.976   7.650
 5570POPC   C1B30931  43.741   2.257   8.550
 5570POPC   C2B30932  43.780   2.210   8.250
 5570POPC   C3B30933  43.784   2.195   7.950
 5570POPC   C4B30934  43.724   2.189   7.650
 5571POPC   NC330935  33.017  16.684   9.450
 5571POPC   PO430936  33.054  16.759   9.150
 5571POPC   GL130937  33.064  16.713   8.850
 5571POPC   GL230938  32.890  16.774   8.850
 5571POPC   C1A30939  33.017  16.705   8.550
 5571POPC   D2A30940  33.012  16.713   8.250
 5571POPC   C3A30941  32.993  16.699   7.950
 5571POPC   C4A30942  33.051  16.695   7.650
 5571POPC   C1B30943  32.783  16.799   8.550
 5571POPC   C2B30944  32.837  16.856   8.250
 5571POPC   C3B30945  32.772  16.797   7.950
 5571POPC   C4B30946  32.763  16.822   7.650
 5572POPC   NC330947  33.038  14.437   9.450
 5572POPC   PO430948  33.024  14.396   9.150
 5572POPC   GL130949  33.063  14.405   8.850
 5572POPC   GL230950  33.081  14.482   8.850
 5572POPC   C1A30951  33.024  14.359   8.550
 5572POPC   D2A30952  32.985  14.367   8.250
 5572POPC   C3A30953  32.998  14.398   7.950
 5572POPC   C4A30954  33.053  14.409   7.650
 5572POPC   C1B30955  33.176  14.638   8.550
 5572POPC   C2B30956  33.151  14.637   8.250
 5572POPC   C3B30957  33.169  14.644   7.950
 5572POPC   C4B30958  33.108  14.676   7.650
 5573POPC   NC330959  15.931  14.429   9.450
 5573POPC   PO430960  15.933  14.436   9.150
 5573POPC   GL130961  15.908  14.433   8.850
 5573POPC   GL230962  15.942  14.265   8.850
 5573POPC   C1A30963  15.973  14.442   8.550
 5573POPC   D2A30964  15.979  14.379   8.250
 5573POPC   C3A30965  16.003  14.417   7.950
 5573POPC   C4A30966  16.005  14.437   7.650
 5573POPC   C1B30967  15.940  14.154   8.550
 5573POPC   C2B30968  15.925  14.198   8.250
 5573POPC   C3B30969  15.985  14.110   7.950
 5573POPC   C4B30970  15.940  14.124   7.650
 5574POPC   NC330971  44.637  10.504   9.450
 5574POPC   PO430972  44.664  10.515   9.150
 5574POPC   GL130973  44.690  10.573   8.850
 5574POPC   GL230974  44.509  10.572   8.850
 5574POPC   C1A30975  44.632  10.511   8.550
 5574POPC   D2A30976  44.695  10.518   8.250
 5574POPC   C3A30977  44.675  10.522   7.950
 5574POPC   C4A30978  44.701  10.533   7.650
 5574POPC   C1B30979  44.408  10.562   8.550
 5574POPC   C2B30980  44.447  10.538   8.250
 5574POPC   C3B30981  44.432  10.573   7.950
 5574POPC   C4B30982  44.465  10.596   7.650
 5575POPC   NC330983   5.907  19.792   9.450
 5575POPC   PO430984   5.859  19.846   9.150
 5575POPC   GL130985   5.895  19.792   8.850
 5575POPC   GL230986   5.957  19.682   8.850
 5575POPC   C1A30987   5.902  19.821   8.550
 5575POPC   D2A30988   5.877  19.811   8.250
 5575POPC   C3A30989   5.896  19.868   7.950
 5575POPC   C4A30990   5.906  19.827   7.650
 5575POPC   C1B30991   6.009  19.583   8.550
 5575POPC   C2B30992   6.037  19.622   8.250
 5575POPC   C3B30993   5.955  19.630   7.950
 5575POPC   C4B30994   5.966  19.589   7.650
 5576POPC   NC330995  27.609  12.843   9.450
 5576POPC   PO430996  27.565  12.876   9.150
 5576POPC   GL130997  27.616  12.859   8.850
 5576POPC   GL230998  27.706  12.860   8.850
 5576POPC   C1A30999  27.591  12.844   8.550
 5576POPC   D2A31000  27.606  12.881   8.250
 5576POPC   C3A31001  27.631  12.845   7.950
 5576POPC   C4A31002  27.547  12.869   7.650
 5576POPC   C1B31003  27.872  12.735   8.550
 5576POPC   C2B31004  27.799  12.804   8.250
 5576POPC   C3B31005  27.840  12.817   7.950
 5576POPC   C4B31006  27.843  12.802   7.650
 5577POPC   NC331007   4.286  20.576   9.450
 5577POPC   PO431008   4.333  20.586   9.150
 5577POPC   GL131009   4.308  20.640   8.850
 5577POPC   GL231010   4.251  20.694   8.850
 5577POPC   C1A31011   4.307  20.606   8.550
 5577POPC   D2A31012   4.296  20.629   8.250
 5577POPC   C3A31013   4.359  20.578   7.950
 5577POPC   C4A31014   4.276  20.609   7.650
 5577POPC   C1B31015   4.109  20.820   8.550
 5577POPC   C2B31016   4.105  20.741   8.250
 5577POPC   C3B31017   4.105  20.799   7.950
 5577POPC   C4B31018   4.174  20.734   7.650
 5578POPC   NC331019  29.934  34.591   9.450
 5578POPC   PO431020  29.928  34.607   9.150
 5578POPC   GL131021  29.949  34.564   8.850
 5578POPC   GL231022  29.957  34.475   8.850
 5578POPC   C1A31023  29.876  34.566   8.550
 5578POPC   D2A31024  29.965  34.541   8.250
 5578POPC   C3A31025  29.949  34.625   7.950
 5578POPC   C4A31026  29.905  34.592   7.650
 5578POPC   C1B31027  29.915  34.349   8.550
 5578POPC   C2B31028  29.924  34.350   8.250
 5578POPC   C3B31029  29.883  34.370   7.950
 5578POPC   C4B31030  29.924  34.328   7.650
 5579POPC   NC331031  42.365  21.384   9.450
 5579POPC   PO431032  42.315  21.372   9.150
 5579POPC   GL131033  42.308  21.413   8.850
 5579POPC   GL231034  42.255  21.320   8.850
 5579POPC   C1A31035  42.368  21.426   8.550
 5579POPC   D2A31036  42.290  21.358   8.250
 5579POPC   C3A31037  42.384  21.392   7.950
 5579POPC   C4A31038  42.374  21.406   7.650
 5579POPC   C1B31039  42.072  21.340   8.550
 5579POPC   C2B31040  42.080  21.313   8.250
 5579POPC   C3B31041  42.068  21.309   7.950
 5579POPC   C4B31042  42.060  21.271   7.650
 5580POPC   NC331043  23.739  43.924   9.450
 5580POPC   PO431044  23.727  43.899   9.150
 5580POPC   GL131045  23.706  43.860   8.850
 5580POPC   GL231046  23.785  43.814   8.850
 5580POPC   C1A31047  23.761  43.876   8.550
 5580POPC   D2A31048  23.747  43.899   8.250
 5580POPC   C3A31049  23.756  43.865   7.950
 5580POPC   C4A31050  23.746  43.879   7.650
 5580POPC   C1B31051  23.778  43.636   8.550
 5580POPC   C2B31052  23.792  43.665   8.250
 5580POPC   C3B31053  23.795  43.670   7.950
 5580POPC   C4B31054  23.772  43.678   7.650
 5581POPC   NC331055   2.795   1.238   9.450
 5581POPC   PO431056   2.767   1.196   9.150
 5581POPC   GL131057   2.757   1.192   8.850
 5581POPC   GL231058   2.883   1.284   8.850
 5581POPC   C1A31059   2.760   1.258   8.550
 5581POPC   D2A31060   2.772   1.241   8.250
 5581POPC   C3A31061   2.769   1.167   7.950
 5581POPC   C4A31062   2.763   1.259   7.650
 5581POPC   C1B31063   3.004   1.315   8.550
 5581POPC   C2B31064   3.010   1.249   8.250
 5581POPC   C3B31065   2.980   1.322   7.950
 5581POPC   C4B31066   2.959   1.297   7.650
 5582POPC   NC331067  18.240  23.727   9.450
 5582POPC   PO431068  18.250  23.761   9.150
 5582POPC   GL131069  18.265  23.696   8.850
 5582POPC   GL231070  18.327  23.799   8.850
 5582POPC   C1A31071  18.263  23.744   8.550
 5582POPC   D2A31072  18.303  23.678   8.250
 5582POPC   C3A31073  18.235  23.702   7.950
 5582POPC   C4A31074  18.252  23.710   7.650
 5582POPC   C1B31075  18.393  23.953   8.550
 5582POPC   C2B31076  18.379  23.935   8.250
 5582POPC   C3B31077  18.398  23.986   7.950
 5582POPC   C4B31078  18.416  23.908   7.650
 5583POPC   NC331079  38.420  35.350   9.450
 5583POPC   PO431080  38.464  35.364   9.150
 5583POPC   GL131081  38.444  35.310   8.850
 5583POPC   GL231082  38.540  35.293   8.850
 5583POPC   C1A31083  38.420  35.376   8.550
 5583POPC   D2A31084  38.448  35.373   8.250
 5583POPC   C3A31085  38.419  35.310   7.950
 5583POPC   C4A31086  38.462  35.398   7.650
 5583POPC   C1B31087  38.672  35.245   8.550
 5583POPC   C2B31088  38.680  35.258   8.250
 5583POPC   C3B31089  38.662  35.245   7.950
 5583POPC   C4B31090  38.641  35.206   7.650
 5584POPC   NC331091  12.886  44.648   9.450
 5584POPC   PO431092  12.815  44.616   9.150
 5584POPC   GL131093  12.815  44.673   8.850
 5584POPC   GL231094  12.830  44.742   8.850
 5584POPC   C1A31095  12.844  44.698   8.550
 5584POPC   D2A31096  12.865  44.679   8.250
 5584POPC   C3A31097  12.862  44.636   7.950
 5584POPC   C4A31098  12.828  44.701   7.650
 5584POPC   C1B31099  12.943  44.930   8.550
 5584POPC   C2B31100  12.914  44.859   8.250
 5584POPC   C3B31101  12.929  44.910   7.950
 5584POPC   C4B31102  12.918  44.948   7.650
 5585POPC   NC331103  27.590  30.715   9.450
 5585POPC   PO431104  27.633  30.713   9.150
 5585POPC   GL131105  27.600  30.715   8.850
 5585POPC   GL231106  27.697  30.661   8.850
 5585POPC   C1A31107  27.595  30.673   8.550
 5585POPC   D2A31108  27.586  30.685   8.250
 5585POPC   C3A31109  27.633  30.721   7.950
 5585POPC   C4A31110  27.598  30.733   7.650
 5585POPC   C1B31111  27.848  30.634   8.550
 5585POPC   C2B31112  27.874  30.569   8.250
 5585POPC   C3B31113  27.839  30.578   7.950
 5585POPC   C4B31114  27.792  30.580   7.650
 5586POPC   NC331115  37.649  20.647   9.450
 5586POPC   PO431116  37.664  20.616   9.150
 5586POPC   GL131117  37.684  20.607   8.850
 5586POPC   GL231118  37.792  20.531   8.850
 5586POPC   C1A31119  37.681  20.646   8.550
 5586POPC   D2A31120  37.695  20.628   8.250
 5586POPC   C3A31121  37.674  20.579   7.950
 5586POPC   C4A31122  37.656  20.603   7.650
 5586POPC   C1B31123  37.884  20.489   8.550
 5586POPC   C2B31124  37.865  20.443   8.250
 5586POPC   C3B31125  37.854  20.531   7.950
 5586POPC   C4B31126  37.886  20.436   7.650
 5587POPC   NC331127   4.334  16.687   9.450
 5587POPC   PO431128   4.312  16.778   9.150
 5587POPC   GL131129   4.306  16.696   8.850
 5587POPC   GL231130   4.332  16.822   8.850
 5587POPC   C1A31131   4.276  16.751   8.550
 5587POPC   D2A31132   4.333  16.774   8.250
 5587POPC   C3A31133   4.361  16.762   7.950
 5587POPC   C4A31134   4.281  16.720   7.650
 5587POPC   C1B31135   4.332  16.962   8.550
 5587POPC   C2B31136   4.373  16.973   8.250
 5587POPC   C3B31137   4.357  16.952   7.950
 5587POPC   C4B31138   4.399  16.967   7.650
 5588POPC   NC331139  19.837  32.279   9.450
 5588POPC   PO431140  19.797  32.293   9.150
 5588POPC   GL131141  19.883  32.275   8.850
 5588POPC   GL231142  19.866  32.117   8.850
 5588POPC   C1A31143  19.812  32.253   8.550
 5588POPC   D2A31144  19.793  32.261   8.250
 5588POPC   C3A31145  19.809  32.248   7.950
 5588POPC   C4A31146  19.808  32.268   7.650
 5588POPC   C1B31147  19.948  32.020   8.550
 5588POPC   C2B31148  19.902  31.993   8.250
 5588POPC   C3B31149  19.960  31.980   7.950
 5588POPC   C4B31150  19.919  32.021   7.650
 5589POPC   NC331151   8.954   8.150   9.450
 5589POPC   PO431152   9.005   8.182   9.150
 5589POPC   GL131153   9.011   8.164   8.850
 5589POPC   GL231154   9.138   8.282   8.850
 5589POPC   C1A31155   8.983   8.245   8.550
 5589POPC   D2A31156   8.927   8.150   8.250
 5589POPC   C3A31157   8.934   8.230   7.950
 5589POPC   C4A31158   8.986   8.167   7.650
 5589POPC   C1B31159   9.198   8.268   8.550
 5589POPC   C2B31160   9.209   8.243   8.250
 5589POPC   C3B31161   9.159   8.278   7.950
 5589POPC   C4B31162   9.234   8.320   7.650
 5590POPC   NC331163  10.564  25.993   9.450
 5590POPC   PO431164  10.543  26.046   9.150
 5590POPC   GL131165  10.476  26.017   8.850
 5590POPC   GL231166  10.659  25.948   8.850
 5590POPC   C1A31167  10.558  26.039   8.550
 5590POPC   D2A31168  10.490  26.042   8.250
 5590POPC   C3A31169  10.491  26.029   7.950
 5590POPC   C4A31170  10.516  26.023   7.650
 5590POPC   C1B31171  10.717  25.905   8.550
 5590POPC   C2B31172  10.773  25.994   8.250
 5590POPC   C3B31173  10.804  25.915   7.950
 5590POPC   C4B31174  10.783  25.919   7.650
 5591POPC   NC331175  32.285  30.704   9.450
 5591POPC   PO431176  32.228  30.696   9.150
 5591POPC   GL131177  32.198  30.739   8.850
 5591POPC   GL231178  32.137  30.762   8.850
 5591POPC   C1A31179  32.243  30.655   8.550
 5591POPC   D2A31180  32.289  30.670   8.250
 5591POPC   C3A31181  32.204  30.681   7.950
 5591POPC   C4A31182  32.250  30.729   7.650
 5591POPC   C1B31183  32.103  30.872   8.550
 5591POPC   C2B31184  32.052  30.827   8.250
 5591POPC   C3B31185  32.091  30.863   7.950
 5591POPC   C4B31186  32.052  30.855   7.650
 5592POPC   NC331187  17.488   0.425   9.450
 5592POPC   PO431188  17.503   0.461   9.150
 5592POPC   GL131189  17.552   0.467   8.850
 5592POPC   GL231190  17.521   0.517   8.850
 5592POPC   C1A31191  17.531   0.462   8.550
 5592POPC   D2A31192  17.548   0.434   8.250
 5592POPC   C3A31193  17.472   0.404   7.950
 5592POPC   C4A31194  17.554   0.437   7.650
 5592POPC   C1B31195  17.487   0.699   8.550
 5592POPC   C2B31196  17.457   0.731   8.250
 5592POPC   C3B31197  17.468   0.724   7.950
 5592POPC   C4B31198  17.455   0.684   7.650
 5593POPC   NC331199  41.556  32.210   9.450
 5593POPC   PO431200  41.517  32.248   9.150
 5593POPC   GL131201  41.513  32.257   8.850
 5593POPC   GL231202  41.727  32.244   8.850
 5593POPC   C1A31203  41.567  32.245   8.550
 5593POPC   D2A31204  41.575  32.251   8.250
 5593POPC   C3A31205  41.597  32.225   7.950
 5593POPC   C4A31206  41.592  32.260   7.650
 5593POPC   C1B31207  41.857  32.223   8.550
 5593POPC   C2B31208  41.815  32.271   8.250
 5593POPC   C3B31209  41.814  32.253   7.950
 5593POPC   C4B31210  41.769  32.302   7.650
 5594POPC   NC331211  43.884  11.349   9.450
 5594POPC   PO431212  43.867  11.292   9.150
 5594POPC   GL131213  43.870  11.279   8.850
 5594POPC   GL231214  43.856  11.164   8.850
 5594POPC   C1A31215  43.872  11.333   8.550
 5594POPC   D2A31216  43.933  11.288   8.250
 5594POPC   C3A31217  43.861  11.336   7.950
 5594POPC   C4A31218  43.898  11.317   7.650
 5594POPC   C1B31219  43.831  11.087   8.550
 5594POPC   C2B31220  43.848  11.023   8.250
 5594POPC   C3B31221  43.825  11.043   7.950
 5594POPC   C4B31222  43.844  11.085   7.650
 5595POPC   NC331223  17.517  14.422   9.450
 5595POPC   PO431224  17.489  14.418   9.150
 5595POPC   GL131225  17.512  14.443   8.850
 5595POPC   GL231226  17.423  14.508   8.850
 5595POPC   C1A31227  17.519  14.356   8.550
 5595POPC   D2A31228  17.540  14.387   8.250
 5595POPC   C3A31229  17.480  14.431   7.950
 5595POPC   C4A31230  17.500  14.410   7.650
 5595POPC   C1B31231  17.315  14.557   8.550
 5595POPC   C2B31232  17.331  14.546   8.250
 5595POPC   C3B31233  17.346  14.505   7.950
 5595POPC   C4B31234  17.276  14.508   7.650
 5596POPC   NC331235  39.209  19.102   9.450
 5596POPC   PO431236  39.208  19.049   9.150
 5596POPC   GL131237  39.243  19.020   8.850
 5596POPC   GL231238  39.130  19.162   8.850
 5596POPC   C1A31239  39.204  19.095   8.550
 5596POPC   D2A31240  39.253  19.076   8.250
 5596POPC   C3A31241  39.265  19.086   7.950
 5596POPC   C4A31242  39.208  19.103   7.650
 5596POPC   C1B31243  39.060  19.238   8.550
 5596POPC   C2B31244  39.093  19.232   8.250
 5596POPC   C3B31245  39.065  19.245   7.950
 5596POPC   C4B31246  39.039  19.276   7.650
 5597POPC   NC331247  34.613   6.642   9.450
 5597POPC   PO431248  34.550   6.606   9.150
 5597POPC   GL131249  34.564   6.651   8.850
 5597POPC   GL231250  34.453   6.600   8.850
 5597POPC   C1A31251  34.575   6.621   8.550
 5597POPC   D2A31252  34.563   6.694   8.250
 5597POPC   C3A31253  34.594   6.633   7.950
 5597POPC   C4A31254  34.619   6.655   7.650
 5597POPC   C1B31255  34.362   6.437   8.550
 5597POPC   C2B31256  34.396   6.455   8.250
 5597POPC   C3B31257  34.365   6.469   7.950
 5597POPC   C4B31258  34.385   6.455   7.650
 5598POPC   NC331259  27.573  15.138   9.450
 5598POPC   PO431260  27.635  15.217   9.150
 5598POPC   GL131261  27.618  15.177   8.850
 5598POPC   GL231262  27.467  15.085   8.850
 5598POPC   C1A31263  27.562  15.224   8.550
 5598POPC   D2A31264  27.600  15.146   8.250
 5598POPC   C3A31265  27.606  15.152   7.950
 5598POPC   C4A31266  27.550  15.189   7.650
 5598POPC   C1B31267  27.332  15.037   8.550
 5598POPC   C2B31268  27.400  15.120   8.250
 5598POPC   C3B31269  27.385  15.093   7.950
 5598POPC   C4B31270  27.361  15.041   7.650
 5599POPC   NC331271  12.106  29.932   9.450
 5599POPC   PO431272  12.076  29.899   9.150
 5599POPC   GL131273  12.031  29.937   8.850
 5599POPC   GL231274  11.995  29.845   8.850
 5599POPC   C1A31275  12.079  29.945   8.550
 5599POPC   D2A31276  12.039  29.904   8.250
 5599POPC   C3A31277  12.101  29.941   7.950
 5599POPC   C4A31278  12.049  29.956   7.650
 5599POPC   C1B31279  11.838  29.856   8.550
 5599POPC   C2B31280  11.816  29.862   8.250
 5599POPC   C3B31281  11.794  29.808   7.950
 5599POPC   C4B31282  11.836  29.827   7.650
 5600POPC   NC331283  19.093  42.382   9.450
 5600POPC   PO431284  19.010  42.302   9.150
 5600POPC   GL131285  19.026  42.308   8.850
 5600POPC   GL231286  18.970  42.229   8.850
 5600POPC   C1A31287  19.063  42.345   8.550
 5600POPC   D2A31288  19.092  42.318   8.250
 5600POPC   C3A31289  19.102  42.332   7.950
 5600POPC   C4A31290  19.035  42.378   7.650
 5600POPC   C1B31291  18.851  42.216   8.550
 5600POPC   C2B31292  18.870  42.221   8.250
 5600POPC   C3B31293  18.824  42.188   7.950
 5600POPC   C4B31294  18.843  42.265   7.650
 5601POPC   NC331295  10.549  39.990   9.450
 5601POPC   PO431296  10.555  39.995   9.150
 5601POPC   GL131297  10.554  40.042   8.850
 5601POPC   GL231298  10.584  40.135   8.850
 5601POPC   C1A31299  10.546  40.016   8.550
 5601POPC   D2A31300  10.541  40.033   8.250
 5601POPC   C3A31301  10.495  40.007   7.950
 5601POPC   C4A31302  10.545  39.976   7.650
 5601POPC   C1B31303  10.688  40.175   8.550
 5601POPC   C2B31304  10.685  40.217   8.250
 5601POPC   C3B31305  10.660  40.236   7.950
 5601POPC   C4B31306  10.687  40.223   7.650
 5602POPC   NC331307  20.615  33.016   9.450
 5602POPC   PO431308  20.569  33.068   9.150
 5602POPC   GL131309  20.647  33.021   8.850
 5602POPC   GL231310  20.521  32.920   8.850
 5602POPC   C1A31311  20.660  33.033   8.550
 5602POPC   D2A31312  20.601  33.040   8.250
 5602POPC   C3A31313  20.626  33.005   7.950
 5602POPC   C4A31314  20.632  33.002   7.650
 5602POPC   C1B31315  20.480  32.810   8.550
 5602POPC   C2B31316  20.493  32.806   8.250
 5602POPC   C3B31317  20.578  32.790   7.950
 5602POPC   C4B31318  20.553  32.791   7.650
 5603POPC   NC331319  29.898  40.056   9.450
 5603POPC   PO431320  29.892  40.008   9.150
 5603POPC   GL131321  29.942  39.998   8.850
 5603POPC   GL231322  29.986  40.067   8.850
 5603POPC   C1A31323  29.923  39.970   8.550
 5603POPC   D2A31324  29.903  40.012   8.250
 5603POPC   C3A31325  29.932  40.014   7.950
 5603POPC   C4A31326  29.957  40.037   7.650
 5603POPC   C1B31327  30.090  40.249   8.550
 5603POPC   C2B31328  30.056  40.234   8.250
 5603POPC   C3B31329  30.067  40.247   7.950
 5603POPC   C4B31330  30.079  40.185   7.650
 5604POPC   NC331331  19.810  35.324   9.450
 5604POPC   PO431332  19.791  35.399   9.150
 5604POPC   GL131333  19.861  35.341   8.850
 5604POPC   GL231334  19.697  35.396   8.850
 5604POPC   C1A31335  19.790  35.334   8.550
 5604POPC   D2A31336  19.801  35.332   8.250
 5604POPC   C3A31337  19.813  35.323   7.950
 5604POPC   C4A31338  19.844  35.398   7.650
 5604POPC   C1B31339  19.575  35.434   8.550
 5604POPC   C2B31340  19.570  35.467   8.250
 5604POPC   C3B31341  19.570  35.514   7.950
 5604POPC   C4B31342  19.627  35.467   7.650
 5605POPC   NC331343  26.812  18.316   9.450
 5605POPC   PO431344  26.845  18.237   9.150
 5605POPC   GL131345  26.798  18.239   8.850
 5605POPC   GL231346  26.910  18.225   8.850
 5605POPC   C1A31347  26.769  18.244   8.550
 5605POPC   D2A31348  26.841  18.275   8.250
 5605POPC   C3A31349  26.792  18.281   7.950
 5605POPC   C4A31350  26.801  18.255   7.650
 5605POPC   C1B31351  27.025  18.186   8.550
 5605POPC   C2B31352  27.037  18.160   8.250
 5605POPC   C3B31353  27.069  18.178   7.950
 5605POPC   C4B31354  27.092  18.244   7.650
 5606POPC   NC331355  33.022  42.342   9.450
 5606POPC   PO431356  33.010  42.342   9.150
 5606POPC   GL131357  32.974  42.345   8.850
 5606POPC   GL231358  32.915  42.221   8.850
 5606POPC   C1A31359  33.029  42.346   8.550
 5606POPC   D2A31360  32.981  42.351   8.250
 5606POPC   C3A31361  33.059  42.288   7.950
 5606POPC   C4A31362  32.986  42.295   7.650
 5606POPC   C1B31363  32.884  42.121   8.550
 5606POPC   C2B31364  32.902  42.187   8.250
 5606POPC   C3B31365  32.870  42.178   7.950
 5606POPC   C4B31366  32.819  42.119   7.650
 5607POPC   NC331367   4.271  35.380   9.450
 5607POPC   PO431368   4.339  35.384   9.150
 5607POPC   GL131369   4.356  35.358   8.850
 5607POPC   GL231370   4.485  35.393   8.850
 5607POPC   C1A31371   4.276  35.384   8.550
 5607POPC   D2A31372   4.285  35.320   8.250
 5607POPC   C3A31373   4.272  35.332   7.950
 5607POPC   C4A31374   4.311  35.341   7.650
 5607POPC   C1B31375   4.541  35.353   8.550
 5607POPC   C2B31376   4.607  35.405   8.250
 5607POPC   C3B31377   4.597  35.342   7.950
 5607POPC   C4B31378   4.574  35.385   7.650
 5608POPC   NC331379  29.895   0.446   9.450
 5608POPC   PO431380  29.936   0.407   9.150
 5608POPC   GL131381  29.877   0.484   8.850
 5608POPC   GL231382  29.959   0.527   8.850
 5608POPC   C1A31383  29.896   0.389   8.550
 5608POPC   D2A31384  29.883   0.415   8.250
 5608POPC   C3A31385  29.890   0.435   7.950
 5608POPC   C4A31386  29.913   0.436   7.650
 5608POPC   C1B31387  30.092   0.672   8.550
 5608POPC   C2B31388  30.093   0.604   8.250
 5608POPC   C3B31389  30.043   0.665   7.950
 5608POPC   C4B31390  30.042   0.642   7.650
 5609POPC   NC331391  22.180  29.171   9.450
 5609POPC   PO431392  22.140  29.184   9.150
 5609POPC   GL131393  22.152  29.154   8.850
 5609POPC   GL231394  22.089  29.134   8.850
 5609POPC   C1A31395  22.157  29.190   8.550
 5609POPC   D2A31396  22.121  29.128   8.250
 5609POPC   C3A31397  22.119  29.098   7.950
 5609POPC   C4A31398  22.133  29.104   7.650
 5609POPC   C1B31399  21.879  29.089   8.550
 5609POPC   C2B31400  21.890  29.093   8.250
 5609POPC   C3B31401  21.928  29.086   7.950
 5609POPC   C4B31402  21.939  29.045   7.650
 5610POPC   NC331403  19.788  29.877   9.450
 5610POPC   PO431404  19.819  29.957   9.150
 5610POPC   GL131405  19.855  29.896   8.850
 5610POPC   GL231406  19.781  29.766   8.850
 5610POPC   C1A31407  19.858  29.876   8.550
 5610POPC   D2A31408  19.838  29.892   8.250
 5610POPC   C3A31409  19.870  29.947   7.950
 5610POPC   C4A31410  19.872  29.883   7.650
 5610POPC   C1B31411  19.714  29.748   8.550
 5610POPC   C2B31412  19.706  29.692   8.250
 5610POPC   C3B31413  19.724  29.717   7.950
 5610POPC   C4B31414  19.691  29.720   7.650
 5611POPC   NC331415   1.943  15.179   9.450
 5611POPC   PO431416   2.009  15.132   9.150
 5611POPC   GL131417   1.970  15.191   8.850
 5611POPC   GL231418   1.952  15.341   8.850
 5611POPC   C1A31419   1.953  15.197   8.550
 5611POPC   D2A31420   1.978  15.195   8.250
 5611POPC   C3A31421   1.944  15.184   7.950
 5611POPC   C4A31422   1.998  15.220   7.650
 5611POPC   C1B31423   1.882  15.390   8.550
 5611POPC   C2B31424   1.924  15.399   8.250
 5611POPC   C3B31425   1.889  15.405   7.950
 5611POPC   C4B31426   1.887  15.396   7.650
 5612POPC   NC331427  16.708  41.560   9.450
 5612POPC   PO431428  16.710  41.545   9.150
 5612POPC   GL131429  16.764  41.541   8.850
 5612POPC   GL231430  16.752  41.471   8.850
 5612POPC   C1A31431  16.733  41.513   8.550
 5612POPC   D2A31432  16.773  41.524   8.250
 5612POPC   C3A31433  16.775  41.567   7.950
 5612POPC   C4A31434  16.689  41.550   7.650
 5612POPC   C1B31435  16.804  41.268   8.550
 5612POPC   C2B31436  16.822  41.297   8.250
 5612POPC   C3B31437  16.805  41.309   7.950
 5612POPC   C4B31438  16.792  41.356   7.650
 5613POPC   NC331439   2.746   5.125   9.450
 5613POPC   PO431440   2.814   5.073   9.150
 5613POPC   GL131441   2.729   5.073   8.850
 5613POPC   GL231442   2.832   5.254   8.850
 5613POPC   C1A31443   2.717   5.061   8.550
 5613POPC   D2A31444   2.741   5.107   8.250
 5613POPC   C3A31445   2.759   5.072   7.950
 5613POPC   C4A31446   2.736   5.062   7.650
 5613POPC   C1B31447   2.843   5.348   8.550
 5613POPC   C2B31448   2.825   5.330   8.250
 5613POPC   C3B31449   2.885   5.302   7.950
 5613POPC   C4B31450   2.869   5.323   7.650
 5614POPC   NC331451  38.488  41.515   9.450
 5614POPC   PO431452  38.471  41.602   9.150
 5614POPC   GL131453  38.412  41.525   8.850
 5614POPC   GL231454  38.376  41.450   8.850
 5614POPC   C1A31455  38.474  41.537   8.550
 5614POPC   D2A31456  38.447  41.529   8.250
 5614POPC   C3A31457  38.427  41.516   7.950
 5614POPC   C4A31458  38.440  41.525   7.650
 5614POPC   C1B31459  38.438  41.362   8.550
 5614POPC   C2B31460  38.405  41.363   8.250
 5614POPC   C3B31461  38.363  41.356   7.950
 5614POPC   C4B31462  38.360  41.300   7.650
 5615POPC   NC331463  26.046   1.185   9.450
 5615POPC   PO431464  26.050   1.164   9.150
 5615POPC   GL131465  26.075   1.182   8.850
 5615POPC   GL231466  25.931   1.350   8.850
 5615POPC   C1A31467  26.064   1.212   8.550
 5615POPC   D2A31468  26.061   1.256   8.250
 5615POPC   C3A31469  26.074   1.194   7.950
 5615POPC   C4A31470  26.039   1.224   7.650
 5615POPC   C1B31471  25.885   1.437   8.550
 5615POPC   C2B31472  25.875   1.427   8.250
 5615POPC   C3B31473  25.862   1.378   7.950
 5615POPC   C4B31474  25.832   1.409   7.650
 5616POPC   NC331475   1.961  30.660   9.450
 5616POPC   PO431476   1.948  30.705   9.150
 5616POPC   GL131477   2.003  30.655   8.850
 5616POPC   GL231478   1.837  30.692   8.850
 5616POPC   C1A31479   2.012  30.651   8.550
 5616POPC   D2A31480   1.957  30.719   8.250
 5616POPC   C3A31481   1.945  30.716   7.950
 5616POPC   C4A31482   2.011  30.666   7.650
 5616POPC   C1B31483   1.754  30.750   8.550
 5616POPC   C2B31484   1.715  30.768   8.250
 5616POPC   C3B31485   1.788  30.827   7.950
 5616POPC   C4B31486   1.737  30.767   7.650
 5617POPC   NC331487  11.343   0.430   9.450
 5617POPC   PO431488  11.288   0.430   9.150
 5617POPC   GL131489  11.327   0.437   8.850
 5617POPC   GL231490  11.220   0.508   8.850
 5617POPC   C1A31491  11.254   0.454   8.550
 5617POPC   D2A31492  11.255   0.465   8.250
 5617POPC   C3A31493  11.292   0.441   7.950
 5617POPC   C4A31494  11.337   0.444   7.650
 5617POPC   C1B31495  11.178   0.635   8.550
 5617POPC   C2B31496  11.195   0.685   8.250
 5617POPC   C3B31497  11.239   0.679   7.950
 5617POPC   C4B31498  11.247   0.655   7.650
 5618POPC   NC331499  27.558  20.649   9.450
 5618POPC   PO431500  27.604  20.594   9.150
 5618POPC   GL131501  27.620  20.623   8.850
 5618POPC   GL231502  27.644  20.709   8.850
 5618POPC   C1A31503  27.587  20.620   8.550
 5618POPC   D2A31504  27.596  20.633   8.250
 5618POPC   C3A31505  27.577  20.581   7.950
 5618POPC   C4A31506  27.581  20.646   7.650
 5618POPC   C1B31507  27.750  20.796   8.550
 5618POPC   C2B31508  27.736  20.821   8.250
 5618POPC   C3B31509  27.767  20.755   7.950
 5618POPC   C4B31510  27.757  20.769   7.650
 5619POPC   NC331511   7.439  37.724   9.450
 5619POPC   PO431512   7.423  37.673   9.150
 5619POPC   GL131513   7.415  37.691   8.850
 5619POPC   GL231514   7.319  37.601   8.850
 5619POPC   C1A31515   7.414  37.696   8.550
 5619POPC   D2A31516   7.404  37.694   8.250
 5619POPC   C3A31517   7.388  37.712   7.950
 5619POPC   C4A31518   7.389  37.651   7.650
 5619POPC   C1B31519   7.190  37.589   8.550
 5619POPC   C2B31520   7.201  37.598   8.250
 5619POPC   C3B31521   7.202  37.543   7.950
 5619POPC   C4B31522   7.221  37.585   7.650
 5620POPC   NC331523   2.754  24.453   9.450
 5620POPC   PO431524   2.747  24.519   9.150
 5620POPC   GL131525   2.810  24.468   8.850
 5620POPC   GL231526   2.878  24.570   8.850
 5620POPC   C1A31527   2.728  24.441   8.550
 5620POPC   D2A31528   2.781  24.476   8.250
 5620POPC   C3A31529   2.726  24.470   7.950
 5620POPC   C4A31530   2.788  24.527   7.650
 5620POPC   C1B31531   2.997  24.555   8.550
 5620POPC   C2B31532   3.013  24.549   8.250
 5620POPC   C3B31533   3.025  24.555   7.950
 5620POPC   C4B31534   3.012  24.619   7.650
 5621POPC   NC331535  13.672  13.631   9.450
 5621POPC   PO431536  13.621  13.601   9.150
 5621POPC   GL131537  13.635  13.662   8.850
 5621POPC   GL231538  13.718  13.487   8.850
 5621POPC   C1A31539  13.580  13.625   8.550
 5621POPC   D2A31540  13.647  13.621   8.250
 5621POPC   C3A31541  13.621  13.642   7.950
 5621POPC   C4A31542  13.667  13.670   7.650
 5621POPC   C1B31543  13.763  13.399   8.550
 5621POPC   C2B31544  13.725  13.404   8.250
 5621POPC   C3B31545  13.724  13.383   7.950
 5621POPC   C4B31546  13.783  13.419   7.650
 5622POPC   NC331547  19.094   8.924   9.450
 5622POPC   PO431548  19.024   8.943   9.150
 5622POPC   GL131549  19.033   8.961   8.850
 5622POPC   GL231550  19.071   8.901   8.850
 5622POPC   C1A31551  19.108   9.011   8.550
 5622POPC   D2A31552  19.030   8.942   8.250
 5622POPC   C3A31553  19.070   8.986   7.950
 5622POPC   C4A31554  19.016   8.962   7.650
 5622POPC   C1B31555  19.004   8.734   8.550
 5622POPC   C2B31556  19.026   8.766   8.250
 5622POPC   C3B31557  18.982   8.691   7.950
 5622POPC   C4B31558  18.953   8.777   7.650
 5623POPC   NC331559   5.110   9.705   9.450
 5623POPC   PO431560   5.055   9.719   9.150
 5623POPC   GL131561   5.063   9.705   8.850
 5623POPC   GL231562   5.079   9.603   8.850
 5623POPC   C1A31563   5.071   9.782   8.550
 5623POPC   D2A31564   5.096   9.731   8.250
 5623POPC   C3A31565   5.088   9.787   7.950
 5623POPC   C4A31566   5.066   9.714   7.650
 5623POPC   C1B31567   4.955   9.561   8.550
 5623POPC   C2B31568   4.966   9.550   8.250
 5623POPC   C3B31569   4.986   9.550   7.950
 5623POPC   C4B31570   5.031   9.546   7.650
 5624POPC   NC331571  21.408  14.415   9.450
 5624POPC   PO431572  21.422  14.372   9.150
 5624POPC   GL131573  21.372  14.384   8.850
 5624POPC   GL231574  21.239  14.342   8.850
 5624POPC   C1A31575  21.427  14.441   8.550
 5624POPC   D2A31576  21.358  14.444   8.250
 5624POPC   C3A31577  21.379  14.392   7.950
 5624POPC   C4A31578  21.416  14.415   7.650
 5624POPC   C1B31579  21.120  14.345   8.550
 5624POPC   C2B31580  21.140  14.365   8.250
 5624POPC   C3B31581  21.107  14.327   7.950
 5624POPC   C4B31582  21.155  14.329   7.650
 5625POPC   NC331583  26.025  31.501   9.450
 5625POPC   PO431584  26.021  31.501   9.150
 5625POPC   GL131585  26.036  31.449   8.850
 5625POPC   GL231586  25.889  31.463   8.850
 5625POPC   C1A31587  26.050  31.423   8.550
 5625POPC   D2A31588  26.051  31.432   8.250
 5625POPC   C3A31589  26.053  31.427   7.950
 5625POPC   C4A31590  26.013  31.520   7.650
 5625POPC   C1B31591  25.847  31.433   8.550
 5625POPC   C2B31592  25.828  31.418   8.250
 5625POPC   C3B31593  25.817  31.417   7.950
 5625POPC   C4B31594  25.806  31.438   7.650
 5626POPC   NC331595  35.309  42.324   9.450
 5626POPC   PO431596  35.372  42.308   9.150
 5626POPC   GL131597  35.393  42.297   8.850
 5626POPC   GL231598  35.330  42.472   8.850
 5626POPC   C1A31599  35.319  42.336   8.550
 5626POPC   D2A31600  35.330  42.348   8.250
 5626POPC   C3A31601  35.381  42.317   7.950
 5626POPC   C4A31602  35.305  42.295   7.650
 5626POPC   C1B31603  35.289  42.564   8.550
 5626POPC   C2B31604  35.355  42.546   8.250
 5626POPC   C3B31605  35.333  42.612   7.950
 5626POPC   C4B31606  35.330  42.537   7.650
 5627POPC   NC331607  24.497  29.885   9.450
 5627POPC   PO431608  24.501  29.964   9.150
 5627POPC   GL131609  24.530  29.931   8.850
 5627POPC   GL231610  24.340  29.837   8.850
 5627POPC   C1A31611  24.483  29.926   8.550
 5627POPC   D2A31612  24.518  29.913   8.250
 5627POPC   C3A31613  24.463  29.952   7.950
 5627POPC   C4A31614  24.525  29.886   7.650
 5627POPC   C1B31615  24.289  29.838   8.550
 5627POPC   C2B31616  24.231  29.847   8.250
 5627POPC   C3B31617  24.250  29.827   7.950
 5627POPC   C4B31618  24.291  29.844   7.650
 5628POPC   NC331619  39.982  19.836   9.450
 5628POPC   PO431620  40.023  19.830   9.150
 5628POPC   GL131621  40.011  19.852   8.850
 5628POPC   GL231622  40.040  19.901   8.850
 5628POPC   C1A31623  39.992  19.802   8.550
 5628POPC   D2A31624  39.993  19.799   8.250
 5628POPC   C3A31625  39.998  19.824   7.950
 5628POPC   C4A31626  39.978  19.843   7.650
 5628POPC   C1B31627  40.174  20.024   8.550
 5628POPC   C2B31628  40.204  20.011   8.250
 5628POPC   C3B31629  40.154  20.042   7.950
 5628POPC   C4B31630  40.142  20.043   7.650
 5629POPC   NC331631  22.211   3.514   9.450
 5629POPC   PO431632  22.136   3.571   9.150
 5629POPC   GL131633  22.206   3.559   8.850
 5629POPC   GL231634  22.283   3.469   8.850
 5629POPC   C1A31635  22.175   3.591   8.550
 5629POPC   D2A31636  22.132   3.509   8.250
 5629POPC   C3A31637  22.130   3.531   7.950
 5629POPC   C4A31638  22.178   3.492   7.650
 5629POPC   C1B31639  22.259   3.326   8.550
 5629POPC   C2B31640  22.293   3.297   8.250
 5629POPC   C3B31641  22.341   3.293   7.950
 5629POPC   C4B31642  22.345   3.328   7.650
 5630POPC   NC331643   4.337  15.213   9.450
 5630POPC   PO431644   4.287  15.223   9.150
 5630POPC   GL131645   4.298  15.208   8.850
 5630POPC   GL231646   4.426  15.128   8.850
 5630POPC   C1A31647   4.295  15.153   8.550
 5630POPC   D2A31648   4.270  15.206   8.250
 5630POPC   C3A31649   4.317  15.168   7.950
 5630POPC   C4A31650   4.324  15.211   7.650
 5630POPC   C1B31651   4.429  15.009   8.550
 5630POPC   C2B31652   4.474  14.930   8.250
 5630POPC   C3B31653   4.437  14.980   7.950
 5630POPC   C4B31654   4.447  15.004   7.650
 5631POPC   NC331655  20.568  39.988   9.450
 5631POPC   PO431656  20.622  39.992   9.150
 5631POPC   GL131657  20.590  39.984   8.850
 5631POPC   GL231658  20.610  40.107   8.850
 5631POPC   C1A31659  20.613  40.021   8.550
 5631POPC   D2A31660  20.579  39.999   8.250
 5631POPC   C3A31661  20.621  40.052   7.950
 5631POPC   C4A31662  20.573  39.986   7.650
 5631POPC   C1B31663  20.712  40.255   8.550
 5631POPC   C2B31664  20.694  40.210   8.250
 5631POPC   C3B31665  20.728  40.285   7.950
 5631POPC   C4B31666  20.726  40.199   7.650
 5632POPC   NC331667  14.398   9.786   9.450
 5632POPC   PO431668  14.368   9.793   9.150
 5632POPC   GL131669  14.421   9.782   8.850
 5632POPC   GL231670  14.280   9.634   8.850
 5632POPC   C1A31671  14.387   9.719   8.550
 5632POPC   D2A31672  14.427   9.728   8.250
 5632POPC   C3A31673  14.441   9.742   7.950
 5632POPC   C4A31674  14.422   9.742   7.650
 5632POPC   C1B31675  14.241   9.552   8.550
 5632POPC   C2B31676  14.279   9.596   8.250
 5632POPC   C3B31677  14.227   9.544   7.950
 5632POPC   C4B31678  14.242   9.509   7.650
 5633POPC   NC331679   8.952  14.449   9.450
 5633POPC   PO431680   8.972  14.371   9.150
 5633POPC   GL131681   8.970  14.367   8.850
 5633POPC   GL231682   8.845  14.325   8.850
 5633POPC   C1A31683   8.981  14.392   8.550
 5633POPC   D2A31684   9.010  14.369   8.250
 5633POPC   C3A31685   9.003  14.438   7.950
 5633POPC   C4A31686   9.000  14.383   7.650
 5633POPC   C1B31687   8.765  14.247   8.550
 5633POPC   C2B31688   8.812  14.244   8.250
 5633POPC   C3B31689   8.724  14.269   7.950
 5633POPC   C4B31690   8.792  14.307   7.650
 5634POPC   NC331691   9.726   5.062   9.450
 5634POPC   PO431692   9.739   5.136   9.150
 5634POPC   GL131693   9.751   5.067   8.850
 5634POPC   GL231694   9.787   5.206   8.850
 5634POPC   C1A31695   9.749   5.048   8.550
 5634POPC   D2A31696   9.753   5.133   8.250
 5634POPC   C3A31697   9.760   5.051   7.950
 5634POPC   C4A31698   9.755   5.054   7.650
 5634POPC   C1B31699   9.923   5.330   8.550
 5634POPC   C2B31700   9.905   5.253   8.250
 5634POPC   C3B31701   9.952   5.264   7.950
 5634POPC   C4B31702   9.875   5.266   7.650
 5635POPC   NC331703  37.722  43.916   9.450
 5635POPC   PO431704  37.644  43.863   9.150
 5635POPC   GL131705  37.676  43.889   8.850
 5635POPC   GL231706  37.625  44.021   8.850
 5635POPC   C1A31707  37.647  43.853   8.550
 5635POPC   D2A31708  37.633  43.914   8.250
 5635POPC   C3A31709  37.678  43.904   7.950
 5635POPC   C4A31710  37.712  43.897   7.650
 5635POPC   C1B31711  37.596  44.096   8.550
 5635POPC   C2B31712  37.549  44.084   8.250
 5635POPC   C3B31713  37.522  44.107   7.950
 5635POPC   C4B31714  37.569  44.076   7.650
 5636POPC   NC331715   5.893  43.902   9.450
 5636POPC   PO431716   5.873  43.868   9.150
 5636POPC   GL131717   5.918  43.932   8.850
 5636POPC   GL231718   5.952  43.812   8.850
 5636POPC   C1A31719   5.915  43.874   8.550
 5636POPC   D2A31720   5.822  43.841   8.250
 5636POPC   C3A31721   5.819  43.861   7.950
 5636POPC   C4A31722   5.858  43.911   7.650
 5636POPC   C1B31723   6.051  43.732   8.550
 5636POPC   C2B31724   6.048  43.729   8.250
 5636POPC   C3B31725   6.018  43.748   7.950
 5636POPC   C4B31726   6.057  43.703   7.650
 5637POPC   NC331727  15.229  10.491   9.450
 5637POPC   PO431728  15.136  10.486   9.150
 5637POPC   GL131729  15.183  10.560   8.850
 5637POPC   GL231730  15.333  10.450   8.850
 5637POPC   C1A31731  15.201  10.504   8.550
 5637POPC   D2A31732  15.137  10.548   8.250
 5637POPC   C3A31733  15.203  10.488   7.950
 5637POPC   C4A31734  15.153  10.475   7.650
 5637POPC   C1B31735  15.402  10.439   8.550
 5637POPC   C2B31736  15.380  10.501   8.250
 5637POPC   C3B31737  15.413  10.472   7.950
 5637POPC   C4B31738  15.411  10.489   7.650
 5638POPC   NC331739  34.606  29.175   9.450
 5638POPC   PO431740  34.622  29.123   9.150
 5638POPC   GL131741  34.563  29.095   8.850
 5638POPC   GL231742  34.543  29.030   8.850
 5638POPC   C1A31743  34.600  29.157   8.550
 5638POPC   D2A31744  34.614  29.137   8.250
 5638POPC   C3A31745  34.598  29.163   7.950
 5638POPC   C4A31746  34.622  29.160   7.650
 5638POPC   C1B31747  34.490  28.883   8.550
 5638POPC   C2B31748  34.506  28.877   8.250
 5638POPC   C3B31749  34.497  28.894   7.950
 5638POPC   C4B31750  34.499  28.891   7.650
 5639POPC   NC331751  33.828   9.772   9.450
 5639POPC   PO431752  33.777   9.773   9.150
 5639POPC   GL131753  33.837   9.775   8.850
 5639POPC   GL231754  33.902   9.716   8.850
 5639POPC   C1A31755  33.761   9.782   8.550
 5639POPC   D2A31756  33.803   9.770   8.250
 5639POPC   C3A31757  33.800   9.775   7.950
 5639POPC   C4A31758  33.829   9.797   7.650
 5639POPC   C1B31759  34.000   9.711   8.550
 5639POPC   C2B31760  34.082   9.675   8.250
 5639POPC   C3B31761  34.033   9.684   7.950
 5639POPC   C4B31762  34.032   9.754   7.650
 5640POPC   NC331763  27.576  24.470   9.450
 5640POPC   PO431764  27.605  24.466   9.150
 5640POPC   GL131765  27.564  24.520   8.850
 5640POPC   GL231766  27.631  24.545   8.850
 5640POPC   C1A31767  27.620  24.515   8.550
 5640POPC   D2A31768  27.585  24.450   8.250
 5640POPC   C3A31769  27.638  24.469   7.950
 5640POPC   C4A31770  27.574  24.455   7.650
 5640POPC   C1B31771  27.758  24.642   8.550
 5640POPC   C2B31772  27.754  24.677   8.250
 5640POPC   C3B31773  27.805  24.621   7.950
 5640POPC   C4B31774  27.808  24.656   7.650
 5641POPC   NC331775  20.573  27.634   9.450
 5641POPC   PO431776  20.604  27.564   9.150
 5641POPC   GL131777  20.607  27.615   8.850
 5641POPC   GL231778  20.465  27.506   8.850
 5641POPC   C1A31779  20.605  27.559   8.550
 5641POPC   D2A31780  20.615  27.640   8.250
 5641POPC   C3A31781  20.609  27.565   7.950
 5641POPC   C4A31782  20.602  27.605   7.650
 5641POPC   C1B31783  20.411  27.475   8.550
 5641POPC   C2B31784  20.384  27.410   8.250
 5641POPC   C3B31785  20.410  27.430   7.950
 5641POPC   C4B31786  20.426  27.411   7.650
 5642POPC   NC331787  21.356  29.952   9.450
 5642POPC   PO431788  21.419  29.890   9.150
 5642POPC   GL131789  21.383  29.883   8.850
 5642POPC   GL231790  21.484  29.805   8.850
 5642POPC   C1A31791  21.405  29.874   8.550
 5642POPC   D2A31792  21.390  29.917   8.250
 5642POPC   C3A31793  21.381  29.905   7.950
 5642POPC   C4A31794  21.419  29.910   7.650
 5642POPC   C1B31795  21.624  29.765   8.550
 5642POPC   C2B31796  21.609  29.761   8.250
 5642POPC   C3B31797  21.606  29.781   7.950
 5642POPC   C4B31798  21.582  29.794   7.650
 5643POPC   NC331799  20.655  37.648   9.450
 5643POPC   PO431800  20.633  37.647   9.150
 5643POPC   GL131801  20.638  37.665   8.850
 5643POPC   GL231802  20.636  37.731   8.850
 5643POPC   C1A31803  20.580  37.630   8.550
 5643POPC   D2A31804  20.656  37.665   8.250
 5643POPC   C3A31805  20.641  37.672   7.950
 5643POPC   C4A31806  20.639  37.722   7.650
 5643POPC   C1B31807  20.779  37.894   8.550
 5643POPC   C2B31808  20.804  37.929   8.250
 5643POPC   C3B31809  20.726  37.863   7.950
 5643POPC   C4B31810  20.779  37.878   7.650
 5644POPC   NC331811   5.049   1.199   9.450
 5644POPC   PO431812   5.116   1.194   9.150
 5644POPC   GL131813   5.104   1.173   8.850
 5644POPC   GL231814   5.022   1.296   8.850
 5644POPC   C1A31815   5.085   1.241   8.550
 5644POPC   D2A31816   5.088   1.182   8.250
 5644POPC   C3A31817   5.130   1.231   7.950
 5644POPC   C4A31818   5.051   1.238   7.650
 5644POPC   C1B31819   4.914   1.371   8.550
 5644POPC   C2B31820   4.954   1.392   8.250
 5644POPC   C3B31821   4.906   1.403   7.950
 5644POPC   C4B31822   4.894   1.458   7.650
 5645POPC   NC331823  30.683  41.573   9.450
 5645POPC   PO431824  30.740  41.540   9.150
 5645POPC   GL131825  30.703  41.561   8.850
 5645POPC   GL231826  30.694  41.636   8.850
 5645POPC   C1A31827  30.740  41.576   8.550
 5645POPC   D2A31828  30.660  41.511   8.250
 5645POPC   C3A31829  30.722  41.516   7.950
 5645POPC   C4A31830  30.712  41.561   7.650
 5645POPC   C1B31831  30.710  41.775   8.550
 5645POPC   C2B31832  30.694  41.838   8.250
 5645POPC   C3B31833  30.653  41.783   7.950
 5645POPC   C4B31834  30.735  41.777   7.650
 5646POPC   NC331835   1.989  36.863   9.450
 5646POPC   PO431836   1.944  36.886   9.150
 5646POPC   GL131837   2.001  36.917   8.850
 5646POPC   GL231838   1.931  36.971   8.850
 5646POPC   C1A31839   1.957  36.920   8.550
 5646POPC   D2A31840   1.995  36.865   8.250
 5646POPC   C3A31841   2.021  36.927   7.950
 5646POPC   C4A31842   1.989  36.931   7.650
 5646POPC   C1B31843   1.832  37.111   8.550
 5646POPC   C2B31844   1.845  37.073   8.250
 5646POPC   C3B31845   1.798  37.090   7.950
 5646POPC   C4B31846   1.834  37.110   7.650
 5647POPC   NC331847  32.271  36.079   9.450
 5647POPC   PO431848  32.281  36.169   9.150
 5647POPC   GL131849  32.266  36.127   8.850
 5647POPC   GL231850  32.111  36.107   8.850
 5647POPC   C1A31851  32.213  36.163   8.550
 5647POPC   D2A31852  32.254  36.144   8.250
 5647POPC   C3A31853  32.212  36.156   7.950
 5647POPC   C4A31854  32.275  36.137   7.650
 5647POPC   C1B31855  32.008  35.999   8.550
 5647POPC   C2B31856  32.050  35.978   8.250
 5647POPC   C3B31857  32.064  35.988   7.950
 5647POPC   C4B31858  32.065  36.052   7.650
 5648POPC   NC331859  25.995  28.327   9.450
 5648POPC   PO431860  26.055  28.343   9.150
 5648POPC   GL131861  26.041  28.348   8.850
 5648POPC   GL231862  25.983  28.465   8.850
 5648POPC   C1A31863  26.036  28.360   8.550
 5648POPC   D2A31864  26.041  28.329   8.250
 5648POPC   C3A31865  26.083  28.387   7.950
 5648POPC   C4A31866  26.003  28.332   7.650
 5648POPC   C1B31867  25.961  28.589   8.550
 5648POPC   C2B31868  25.903  28.597   8.250
 5648POPC   C3B31869  25.966  28.643   7.950
 5648POPC   C4B31870  25.951  28.608   7.650
 5649POPC   NC331871   8.156  16.714   9.450
 5649POPC   PO431872   8.166  16.779   9.150
 5649POPC   GL131873   8.170  16.766   8.850
 5649POPC   GL231874   8.287  16.735   8.850
 5649POPC   C1A31875   8.222  16.773   8.550
 5649POPC   D2A31876   8.222  16.744   8.250
 5649POPC   C3A31877   8.204  16.735   7.950
 5649POPC   C4A31878   8.173  16.699   7.650
 5649POPC   C1B31879   8.387  16.867   8.550
 5649POPC   C2B31880   8.442  16.825   8.250
 5649POPC   C3B31881   8.424  16.856   7.950
 5649POPC   C4B31882   8.471  16.771   7.650
 5650POPC   NC331883  31.505  33.828   9.450
 5650POPC   PO431884  31.476  33.827   9.150
 5650POPC   GL131885  31.445  33.786   8.850
 5650POPC   GL231886  31.419  33.941   8.850
 5650POPC   C1A31887  31.474  33.782   8.550
 5650POPC   D2A31888  31.433  33.809   8.250
 5650POPC   C3A31889  31.508  33.799   7.950
 5650POPC   C4A31890  31.459  33.799   7.650
 5650POPC   C1B31891  31.359  34.043   8.550
 5650POPC   C2B31892  31.378  34.000   8.250
 5650POPC   C3B31893  31.312  34.061   7.950
 5650POPC   C4B31894  31.379  34.030   7.650
 5651POPC   NC331895   4.301  22.894   9.450
 5651POPC   PO431896   4.313  22.985   9.150
 5651POPC   GL131897   4.270  22.927   8.850
 5651POPC   GL231898   4.179  22.875   8.850
 5651POPC   C1A31899   4.302  22.961   8.550
 5651POPC   D2A31900   4.272  22.972   8.250
 5651POPC   C3A31901   4.338  22.985   7.950
 5651POPC   C4A31902   4.292  22.958   7.650
 5651POPC   C1B31903   4.062  22.863   8.550
 5651POPC   C2B31904   4.046  22.812   8.250
 5651POPC   C3B31905   4.128  22.827   7.950
 5651POPC   C4B31906   4.052  22.778   7.650
 5652POPC   NC331907  22.155   5.880   9.450
 5652POPC   PO431908  22.181   5.916   9.150
 5652POPC   GL131909  22.124   5.865   8.850
 5652POPC   GL231910  22.093   5.861   8.850
 5652POPC   C1A31911  22.171   5.834   8.550
 5652POPC   D2A31912  22.159   5.892   8.250
 5652POPC   C3A31913  22.151   5.875   7.950
 5652POPC   C4A31914  22.151   5.834   7.650
 5652POPC   C1B31915  21.918   5.839   8.550
 5652POPC   C2B31916  21.878   5.824   8.250
 5652POPC   C3B31917  21.895   5.826   7.950
 5652POPC   C4B31918  21.947   5.781   7.650
 5653POPC   NC331919  14.418  33.776   9.450
 5653POPC   PO431920  14.374  33.774   9.150
 5653POPC   GL131921  14.366  33.787   8.850
 5653POPC   GL231922  14.392  33.965   8.850
 5653POPC   C1A31923  14.386  33.751   8.550
 5653POPC   D2A31924  14.385  33.759   8.250
 5653POPC   C3A31925  14.419  33.830   7.950
 5653POPC   C4A31926  14.404  33.822   7.650
 5653POPC   C1B31927  14.471  34.011   8.550
 5653POPC   C2B31928  14.402  34.022   8.250
 5653POPC   C3B31929  14.428  34.031   7.950
 5653POPC   C4B31930  14.423  34.000   7.650
 5654POPC   NC331931  29.943  10.553   9.450
 5654POPC   PO431932  29.951  10.540   9.150
 5654POPC   GL131933  29.900  10.495   8.850
 5654POPC   GL231934  29.833  10.380   8.850
 5654POPC   C1A31935  29.931  10.561   8.550
 5654POPC   D2A31936  29.960  10.505   8.250
 5654POPC   C3A31937  29.961  10.519   7.950
 5654POPC   C4A31938  29.953  10.523   7.650
 5654POPC   C1B31939  29.862  10.248   8.550
 5654POPC   C2B31940  29.819  10.292   8.250
 5654POPC   C3B31941  29.848  10.291   7.950
 5654POPC   C4B31942  29.875  10.324   7.650
 5655POPC   NC331943   6.617  19.081   9.450
 5655POPC   PO431944   6.626  19.076   9.150
 5655POPC   GL131945   6.679  19.076   8.850
 5655POPC   GL231946   6.543  19.180   8.850
 5655POPC   C1A31947   6.613  19.058   8.550
 5655POPC   D2A31948   6.609  19.078   8.250
 5655POPC   C3A31949   6.645  19.098   7.950
 5655POPC   C4A31950   6.648  19.012   7.650
 5655POPC   C1B31951   6.465  19.190   8.550
 5655POPC   C2B31952   6.491  19.179   8.250
 5655POPC   C3B31953   6.429  19.207   7.950
 5655POPC   C4B31954   6.438  19.167   7.650
 5656POPC   NC331955  17.501  44.685   9.450
 5656POPC   PO431956  17.539  44.655   9.150
 5656POPC   GL131957  17.462  44.698   8.850
 5656POPC   GL231958  17.636  44.616   8.850
 5656POPC   C1A31959  17.487  44.663   8.550
 5656POPC   D2A31960  17.545  44.697   8.250
 5656POPC   C3A31961  17.542  44.637   7.950
 5656POPC   C4A31962  17.475  44.633   7.650
 5656POPC   C1B31963  17.694  44.520   8.550
 5656POPC   C2B31964  17.717  44.491   8.250
 5656POPC   C3B31965  17.708  44.524   7.950
 5656POPC   C4B31966  17.708  44.476   7.650
 5657POPC   NC331967  29.148  33.757   9.450
 5657POPC   PO431968  29.178  33.801   9.150
 5657POPC   GL131969  29.154  33.788   8.850
 5657POPC   GL231970  29.136  33.882   8.850
 5657POPC   C1A31971  29.117  33.817   8.550
 5657POPC   D2A31972  29.159  33.809   8.250
 5657POPC   C3A31973  29.183  33.755   7.950
 5657POPC   C4A31974  29.158  33.800   7.650
 5657POPC   C1B31975  29.126  34.074   8.550
 5657POPC   C2B31976  29.154  34.080   8.250
 5657POPC   C3B31977  29.093  34.072   7.950
 5657POPC   C4B31978  29.092  34.041   7.650
 5658POPC   NC331979   1.987   2.812   9.450
 5658POPC   PO431980   1.969   2.739   9.150
 5658POPC   GL131981   1.973   2.801   8.850
 5658POPC   GL231982   1.892   2.701   8.850
 5658POPC   C1A31983   1.951   2.768   8.550
 5658POPC   D2A31984   1.987   2.771   8.250
 5658POPC   C3A31985   2.010   2.752   7.950
 5658POPC   C4A31986   1.963   2.810   7.650
 5658POPC   C1B31987   1.766   2.563   8.550
 5658POPC   C2B31988   1.770   2.601   8.250
 5658POPC   C3B31989   1.841   2.553   7.950
 5658POPC   C4B31990   1.784   2.567   7.650
 5659POPC   NC331991  20.651   3.504   9.450
 5659POPC   PO431992  20.569   3.525   9.150
 5659POPC   GL131993  20.644   3.533   8.850
 5659POPC   GL231994  20.678   3.694   8.850
 5659POPC   C1A31995  20.620   3.576   8.550
 5659POPC   D2A31996  20.603   3.491   8.250
 5659POPC   C3A31997  20.589   3.505   7.950
 5659POPC   C4A31998  20.562   3.535   7.650
 5659POPC   C1B31999  20.678   3.737   8.550
 5659POPC   C2B32000  20.692   3.732   8.250
 5659POPC   C3B32001  20.667   3.806   7.950
 5659POPC   C4B32002  20.696   3.806   7.650
 5660POPC   NC332003  19.097  22.208   9.450
 5660POPC   PO432004  19.102  22.114   9.150
 5660POPC   GL132005  19.027  22.186   8.850
 5660POPC   GL232006  19.010  22.280   8.850
 5660POPC   C1A32007  19.061  22.166   8.550
 5660POPC   D2A32008  19.056  22.181   8.250
 5660POPC   C3A32009  19.108  22.128   7.950
 5660POPC   C4A32010  19.096  22.125   7.650
 5660POPC   C1B32011  18.863  22.388   8.550
 5660POPC   C2B32012  18.866  22.343   8.250
 5660POPC   C3B32013  18.909  22.335   7.950
 5660POPC   C4B32014  18.857  22.384   7.650
 5661POPC   NC332015  18.237  27.613   9.450
 5661POPC   PO432016  18.250  27.627   9.150
 5661POPC   GL132017  18.273  27.638   8.850
 5661POPC   GL232018  18.357  27.600   8.850
 5661POPC   C1A32019  18.278  27.576   8.550
 5661POPC   D2A32020  18.244  27.620   8.250
 5661POPC   C3A32021  18.236  27.594   7.950
 5661POPC   C4A32022  18.251  27.621   7.650
 5661POPC   C1B32023  18.528  27.661   8.550
 5661POPC   C2B32024  18.546  27.681   8.250
 5661POPC   C3B32025  18.562  27.679   7.950
 5661POPC   C4B32026  18.508  27.629   7.650
 5662POPC   NC332027   5.897  39.218   9.450
 5662POPC   PO432028   5.827  39.196   9.150
 5662POPC   GL132029   5.917  39.208   8.850
 5662POPC   GL232030   5.985  39.216   8.850
 5662POPC   C1A32031   5.844  39.243   8.550
 5662POPC   D2A32032   5.880  39.181   8.250
 5662POPC   C3A32033   5.847  39.261   7.950
 5662POPC   C4A32034   5.879  39.199   7.650
 5662POPC   C1B32035   6.150  39.190   8.550
 5662POPC   C2B32036   6.092  39.185   8.250
 5662POPC   C3B32037   6.139  39.214   7.950
 5662POPC   C4B32038   6.119  39.187   7.650
 5663POPC   NC332039  16.682   8.216   9.450
 5663POPC   PO432040  16.683   8.230   9.150
 5663POPC   GL132041  16.689   8.200   8.850
 5663POPC   GL232042  16.859   8.224   8.850
 5663POPC   C1A32043  16.707   8.197   8.550
 5663POPC   D2A32044  16.751   8.213   8.250
 5663POPC   C3A32045  16.738   8.182   7.950
 5663POPC   C4A32046  16.773   8.229   7.650
 5663POPC   C1B32047  16.906   8.342   8.550
 5663POPC   C2B32048  16.998   8.294   8.250
 5663POPC   C3B32049  16.921   8.292   7.950
 5663POPC   C4B32050  16.951   8.332   7.650
 5664POPC   NC332051   0.439  30.722   9.450
 5664POPC   PO432052   0.485  30.650   9.150
 5664POPC   GL132053   0.485  30.706   8.850
 5664POPC   GL232054   0.533  30.794   8.850
 5664POPC   C1A32055   0.462  30.722   8.550
 5664POPC   D2A32056   0.444  30.655   8.250
 5664POPC   C3A32057   0.428  30.696   7.950
 5664POPC   C4A32058   0.416  30.713   7.650
 5664POPC   C1B32059   0.604  30.916   8.550
 5664POPC   C2B32060   0.584  30.834   8.250
 5664POPC   C3B32061   0.556  30.907   7.950
 5664POPC   C4B32062   0.622  30.844   7.650
 5665POPC   NC332063  12.826  15.131   9.450
 5665POPC   PO432064  12.855  15.211   9.150
 5665POPC   GL132065  12.880  15.206   8.850
 5665POPC   GL232066  12.943  15.332   8.850
 5665POPC   C1A32067  12.890  15.133   8.550
 5665POPC   D2A32068  12.896  15.189   8.250
 5665POPC   C3A32069  12.808  15.190   7.950
 5665POPC   C4A32070  12.884  15.167   7.650
 5665POPC   C1B32071  12.954  15.418   8.550
 5665POPC   C2B32072  12.924  15.437   8.250
 5665POPC   C3B32073  12.930  15.411   7.950
 5665POPC   C4B32074  12.907  15.377   7.650
 5666POPC   NC332075  42.324  37.726   9.450
 5666POPC   PO432076  42.347  37.668   9.150
 5666POPC   GL132077  42.293  37.716   8.850
 5666POPC   GL232078  42.428  37.659   8.850
 5666POPC   C1A32079  42.285  37.658   8.550
 5666POPC   D2A32080  42.348  37.647   8.250
 5666POPC   C3A32081  42.361  37.634   7.950
 5666POPC   C4A32082  42.347  37.724   7.650
 5666POPC   C1B32083  42.578  37.633   8.550
 5666POPC   C2B32084  42.535  37.671   8.250
 5666POPC   C3B32085  42.589  37.699   7.950
 5666POPC   C4B32086  42.597  37.670   7.650
 5667POPC   NC332087   1.221  37.662   9.450
 5667POPC   PO432088   1.229  37.708   9.150
 5667POPC   GL132089   1.246  37.689   8.850
 5667POPC   GL232090   1.099  37.732   8.850
 5667POPC   C1A32091   1.240  37.690   8.550
 5667POPC   D2A32092   1.194  37.649   8.250
 5667POPC   C3A32093   1.254  37.645   7.950
 5667POPC   C4A32094   1.231  37.685   7.650
 5667POPC   C1B32095   1.009  37.717   8.550
 5667POPC   C2B32096   0.974  37.673   8.250
 5667POPC   C3B32097   0.976  37.733   7.950
 5667POPC   C4B32098   0.993  37.733   7.650
 5668POPC   NC332099  28.402  39.972   9.450
 5668POPC   PO432100  28.380  39.963   9.150
 5668POPC   GL132101  28.387  39.977   8.850
 5668POPC   GL232102  28.213  40.000   8.850
 5668POPC   C1A32103  28.322  40.056   8.550
 5668POPC   D2A32104  28.366  40.042   8.250
 5668POPC   C3A32105  28.348  40.009   7.950
 5668POPC   C4A32106  28.349  39.997   7.650
 5668POPC   C1B32107  28.154  40.062   8.550
 5668POPC   C2B32108  28.139  40.060   8.250
 5668POPC   C3B32109  28.131  40.045   7.950
 5668POPC   C4B32110  28.094  40.091   7.650
 5669POPC   NC332111  27.551  33.841   9.450
 5669POPC   PO432112  27.630  33.818   9.150
 5669POPC   GL132113  27.571  33.828   8.850
 5669POPC   GL232114  27.525  33.871   8.850
 5669POPC   C1A32115  27.548  33.768   8.550
 5669POPC   D2A32116  27.547  33.789   8.250
 5669POPC   C3A32117  27.631  33.803   7.950
 5669POPC   C4A32118  27.597  33.837   7.650
 5669POPC   C1B32119  27.476  34.007   8.550
 5669POPC   C2B32120  27.398  33.990   8.250
 5669POPC   C3B32121  27.400  34.044   7.950
 5669POPC   C4B32122  27.398  34.004   7.650
 5670POPC   NC332123  26.041  34.609   9.450
 5670POPC   PO432124  26.029  34.566   9.150
 5670POPC   GL132125  26.049  34.579   8.850
 5670POPC   GL232126  26.038  34.408   8.850
 5670POPC   C1A32127  26.031  34.576   8.550
 5670POPC   D2A32128  26.043  34.559   8.250
 5670POPC   C3A32129  26.011  34.588   7.950
 5670POPC   C4A32130  26.035  34.548   7.650
 5670POPC   C1B32131  26.121  34.311   8.550
 5670POPC   C2B32132  26.135  34.306   8.250
 5670POPC   C3B32133  26.140  34.302   7.950
 5670POPC   C4B32134  26.084  34.308   7.650
 5671POPC   NC332135  33.035  26.034   9.450
 5671POPC   PO432136  32.998  26.009   9.150
 5671POPC   GL132137  32.980  26.073   8.850
 5671POPC   GL232138  32.985  25.938   8.850
 5671POPC   C1A32139  33.065  26.016   8.550
 5671POPC   D2A32140  33.042  26.068   8.250
 5671POPC   C3A32141  33.010  26.053   7.950
 5671POPC   C4A32142  33.018  26.059   7.650
 5671POPC   C1B32143  33.021  25.791   8.550
 5671POPC   C2B32144  33.021  25.756   8.250
 5671POPC   C3B32145  33.025  25.753   7.950
 5671POPC   C4B32146  33.032  25.800   7.650
 5672POPC   NC332147  34.545  30.725   9.450
 5672POPC   PO432148  34.540  30.699   9.150
 5672POPC   GL132149  34.550  30.722   8.850
 5672POPC   GL232150  34.488  30.712   8.850
 5672POPC   C1A32151  34.620  30.685   8.550
 5672POPC   D2A32152  34.572  30.729   8.250
 5672POPC   C3A32153  34.547  30.734   7.950
 5672POPC   C4A32154  34.600  30.653   7.650
 5672POPC   C1B32155  34.285  30.627   8.550
 5672POPC   C2B32156  34.282  30.619   8.250
 5672POPC   C3B32157  34.334  30.668   7.950
 5672POPC   C4B32158  34.315  30.680   7.650
 5673POPC   NC332159  29.929  43.869   9.450
 5673POPC   PO432160  29.888  43.887   9.150
 5673POPC   GL132161  29.915  43.927   8.850
 5673POPC   GL232162  29.814  43.827   8.850
 5673POPC   C1A32163  29.969  43.841   8.550
 5673POPC   D2A32164  29.915  43.930   8.250
 5673POPC   C3A32165  29.936  43.871   7.950
 5673POPC   C4A32166  29.947  43.926   7.650
 5673POPC   C1B32167  29.675  43.841   8.550
 5673POPC   C2B32168  29.690  43.885   8.250
 5673POPC   C3B32169  29.628  43.871   7.950
 5673POPC   C4B32170  29.717  43.821   7.650
 5674POPC   NC332171   0.434   3.520   9.450
 5674POPC   PO432172   0.437   3.587   9.150
 5674POPC   GL132173   0.456   3.529   8.850
 5674POPC   GL232174   0.299   3.597   8.850
 5674POPC   C1A32175   0.416   3.529   8.550
 5674POPC   D2A32176   0.474   3.543   8.250
 5674POPC   C3A32177   0.443   3.527   7.950
 5674POPC   C4A32178   0.467   3.531   7.650
 5674POPC   C1B32179   0.179   3.670   8.550
 5674POPC   C2B32180   0.222   3.680   8.250
 5674POPC   C3B32181   0.220   3.621   7.950
 5674POPC   C4B32182   0.164   3.676   7.650
 5675POPC   NC332183  16.683  26.852   9.450
 5675POPC   PO432184  16.736  26.795   9.150
 5675POPC   GL132185  16.724  26.809   8.850
 5675POPC   GL232186  16.606  26.829   8.850
 5675POPC   C1A32187  16.726  26.840   8.550
 5675POPC   D2A32188  16.757  26.807   8.250
 5675POPC   C3A32189  16.740  26.789   7.950
 5675POPC   C4A32190  16.761  26.820   7.650
 5675POPC   C1B32191  16.455  26.879   8.550
 5675POPC   C2B32192  16.456  26.917   8.250
 5675POPC   C3B32193  16.530  26.889   7.950
 5675POPC   C4B32194  16.450  26.917   7.650
 5676POPC   NC332195  14.396  19.856   9.450
 5676POPC   PO432196  14.374  19.862   9.150
 5676POPC   GL132197  14.449  19.815   8.850
 5676POPC   GL232198  14.461  19.728   8.850
 5676POPC   C1A32199  14.356  19.881   8.550
 5676POPC   D2A32200  14.451  19.840   8.250
 5676POPC   C3A32201  14.388  19.802   7.950
 5676POPC   C4A32202  14.363  19.794   7.650
 5676POPC   C1B32203  14.572  19.629   8.550
 5676POPC   C2B32204  14.540  19.611   8.250
 5676POPC   C3B32205  14.529  19.625   7.950
 5676POPC   C4B32206  14.515  19.590   7.650
 5677POPC   NC332207  24.498  22.895   9.450
 5677POPC   PO432208  24.539  22.979   9.150
 5677POPC   GL132209  24.487  22.983   8.850
 5677POPC   GL232210  24.404  22.929   8.850
 5677POPC   C1A32211  24.538  22.909   8.550
 5677POPC   D2A32212  24.523  22.893   8.250
 5677POPC   C3A32213  24.479  22.943   7.950
 5677POPC   C4A32214  24.471  22.970   7.650
 5677POPC   C1B32215  24.314  22.779   8.550
 5677POPC   C2B32216  24.264  22.812   8.250
 5677POPC   C3B32217  24.299  22.801   7.950
 5677POPC   C4B32218  24.290  22.844   7.650
 5678POPC   NC332219   1.178   1.220   9.450
 5678POPC   PO432220   1.253   1.205   9.150
 5678POPC   GL132221   1.189   1.222   8.850
 5678POPC   GL232222   1.100   1.111   8.850
 5678POPC   C1A32223   1.179   1.236   8.550
 5678POPC   D2A32224   1.251   1.190   8.250
 5678POPC   C3A32225   1.208   1.220   7.950
 5678POPC   C4A32226   1.246   1.247   7.650
 5678POPC   C1B32227   1.004   0.988   8.550
 5678POPC   C2B32228   1.007   0.983   8.250
 5678POPC   C3B32229   1.065   1.008   7.950
 5678POPC   C4B32230   1.082   0.977   7.650
 5679POPC   NC332231  17.536   7.429   9.450
 5679POPC   PO432232  17.551   7.392   9.150
 5679POPC   GL132233  17.532   7.383   8.850
 5679POPC   GL232234  17.385   7.394   8.850
 5679POPC   C1A32235  17.533   7.394   8.550
 5679POPC   D2A32236  17.538   7.427   8.250
 5679POPC   C3A32237  17.540   7.458   7.950
 5679POPC   C4A32238  17.527   7.424   7.650
 5679POPC   C1B32239  17.234   7.412   8.550
 5679POPC   C2B32240  17.250   7.387   8.250
 5679POPC   C3B32241  17.275   7.380   7.950
 5679POPC   C4B32242  17.286   7.377   7.650
 5680POPC   NC332243  39.234  30.710   9.450
 5680POPC   PO432244  39.248  30.673   9.150
 5680POPC   GL132245  39.245  30.693   8.850
 5680POPC   GL232246  39.081  30.608   8.850
 5680POPC   C1A32247  39.187  30.679   8.550
 5680POPC   D2A32248  39.239  30.652   8.250
 5680POPC   C3A32249  39.251  30.664   7.950
 5680POPC   C4A32250  39.275  30.672   7.650
 5680POPC   C1B32251  39.055  30.575   8.550
 5680POPC   C2B32252  39.025  30.552   8.250
 5680POPC   C3B32253  39.014  30.542   7.950
 5680POPC   C4B32254  39.039  30.565   7.650
 5681POPC   NC332255  20.653  11.268   9.450
 5681POPC   PO432256  20.624  11.271   9.150
 5681POPC   GL132257  20.640  11.313   8.850
 5681POPC   GL232258  20.465  11.231   8.850
 5681POPC   C1A32259  20.577  11.296   8.550
 5681POPC   D2A32260  20.594  11.335   8.250
 5681POPC   C3A32261  20.615  11.339   7.950
 5681POPC   C4A32262  20.563  11.261   7.650
 5681POPC   C1B32263  20.334  11.216   8.550
 5681POPC   C2B32264  20.432  11.220   8.250
 5681POPC   C3B32265  20.348  11.190   7.950
 5681POPC   C4B32266  20.415  11.179   7.650
 5682POPC   NC332267   1.262  43.926   9.450
 5682POPC   PO432268   1.201  43.928   9.150
 5682POPC   GL132269   1.225  43.917   8.850
 5682POPC   GL232270   1.334  43.971   8.850
 5682POPC   C1A32271   1.189  43.927   8.550
 5682POPC   D2A32272   1.171  43.913   8.250
 5682POPC   C3A32273   1.172  43.848   7.950
 5682POPC   C4A32274   1.251  43.906   7.650
 5682POPC   C1B32275   1.343  44.083   8.550
 5682POPC   C2B32276   1.405  44.051   8.250
 5682POPC   C3B32277   1.405  44.120   7.950
 5682POPC   C4B32278   1.381  44.120   7.650
 5683POPC   NC332279  37.633  15.197   9.450
 5683POPC   PO432280  37.718  15.132   9.150
 5683POPC   GL132281  37.655  15.164   8.850
 5683POPC   GL232282  37.744  15.266   8.850
 5683POPC   C1A32283  37.674  15.225   8.550
 5683POPC   D2A32284  37.727  15.207   8.250
 5683POPC   C3A32285  37.714  15.185   7.950
 5683POPC   C4A32286  37.641  15.206   7.650
 5683POPC   C1B32287  37.874  15.351   8.550
 5683POPC   C2B32288  37.872  15.327   8.250
 5683POPC   C3B32289  37.790  15.340   7.950
 5683POPC   C4B32290  37.879  15.331   7.650
 5684POPC   NC332291  10.518  13.637   9.450
 5684POPC   PO432292  10.496  13.578   9.150
 5684POPC   GL132293  10.553  13.643   8.850
 5684POPC   GL232294  10.386  13.712   8.850
 5684POPC   C1A32295  10.556  13.645   8.550
 5684POPC   D2A32296  10.529  13.670   8.250
 5684POPC   C3A32297  10.555  13.667   7.950
 5684POPC   C4A32298  10.479  13.647   7.650
 5684POPC   C1B32299  10.334  13.731   8.550
 5684POPC   C2B32300  10.270  13.665   8.250
 5684POPC   C3B32301  10.336  13.684   7.950
 5684POPC   C4B32302  10.307  13.689   7.650
 5685POPC   NC332303  33.066  33.011   9.450
 5685POPC   PO432304  33.014  33.064   9.150
 5685POPC   GL132305  33.029  33.065   8.850
 5685POPC   GL232306  33.123  33.002   8.850
 5685POPC   C1A32307  33.021  32.993   8.550
 5685POPC   D2A32308  33.069  33.024   8.250
 5685POPC   C3A32309  32.988  33.005   7.950
 5685POPC   C4A32310  33.011  32.986   7.650
 5685POPC   C1B32311  33.256  32.983   8.550
 5685POPC   C2B32312  33.233  32.964   8.250
 5685POPC   C3B32313  33.263  32.959   7.950
 5685POPC   C4B32314  33.318  32.951   7.650
 5686POPC   NC332315  34.578  34.535   9.450
 5686POPC   PO432316  34.593  34.534   9.150
 5686POPC   GL132317  34.533  34.576   8.850
 5686POPC   GL232318  34.686  34.705   8.850
 5686POPC   C1A32319  34.530  34.608   8.550
 5686POPC   D2A32320  34.550  34.588   8.250
 5686POPC   C3A32321  34.591  34.588   7.950
 5686POPC   C4A32322  34.566  34.564   7.650
 5686POPC   C1B32323  34.770  34.728   8.550
 5686POPC   C2B32324  34.770  34.774   8.250
 5686POPC   C3B32325  34.760  34.760   7.950
 5686POPC   C4B32326  34.689  34.804   7.650
 5687POPC   NC332327  29.144  36.889   9.450
 5687POPC   PO432328  29.142  36.900   9.150
 5687POPC   GL132329  29.157  36.878   8.850
 5687POPC   GL232330  29.144  36.771   8.850
 5687POPC   C1A32331  29.141  36.855   8.550
 5687POPC   D2A32332  29.101  36.885   8.250
 5687POPC   C3A32333  29.163  36.892   7.950
 5687POPC   C4A32334  29.191  36.921   7.650
 5687POPC   C1B32335  29.126  36.701   8.550
 5687POPC   C2B32336  29.168  36.615   8.250
 5687POPC   C3B32337  29.163  36.628   7.950
 5687POPC   C4B32338  29.091  36.631   7.650
 5688POPC   NC332339  14.417  44.697   9.450
 5688POPC   PO432340  14.385  44.674   9.150
 5688POPC   GL132341  14.362  44.679   8.850
 5688POPC   GL232342  14.535  44.687   8.850
 5688POPC   C1A32343  14.447  44.675   8.550
 5688POPC   D2A32344  14.442  44.622   8.250
 5688POPC   C3A32345  14.400  44.696   7.950
 5688POPC   C4A32346  14.362  44.627   7.650
 5688POPC   C1B32347  14.687  44.629   8.550
 5688POPC   C2B32348  14.694  44.644   8.250
 5688POPC   C3B32349  14.603  44.639   7.950
 5688POPC   C4B32350  14.655  44.634   7.650
 5689POPC   NC332351  36.154  19.109   9.450
 5689POPC   PO432352  36.177  19.031   9.150
 5689POPC   GL132353  36.115  19.015   8.850
 5689POPC   GL232354  36.224  18.990   8.850
 5689POPC   C1A32355  36.151  19.077   8.550
 5689POPC   D2A32356  36.147  19.067   8.250
 5689POPC   C3A32357  36.117  19.074   7.950
 5689POPC   C4A32358  36.084  19.076   7.650
 5689POPC   C1B32359  36.408  19.029   8.550
 5689POPC   C2B32360  36.320  18.980   8.250
 5689POPC   C3B32361  36.375  18.976   7.950
 5689POPC   C4B32362  36.409  18.990   7.650
 5690POPC   NC332363  10.498  43.879   9.450
 5690POPC   PO432364  10.522  43.904   9.150
 5690POPC   GL132365  10.480  43.892   8.850
 5690POPC   GL232366  10.497  43.965   8.850
 5690POPC   C1A32367  10.510  43.869   8.550
 5690POPC   D2A32368  10.514  43.848   8.250
 5690POPC   C3A32369  10.558  43.864   7.950
 5690POPC   C4A32370  10.567  43.854   7.650
 5690POPC   C1B32371  10.356  44.121   8.550
 5690POPC   C2B32372  10.392  44.111   8.250
 5690POPC   C3B32373  10.404  44.073   7.950
 5690POPC   C4B32374  10.430  44.135   7.650
 5691POPC   NC332375  11.321  29.880   9.450
 5691POPC   PO432376  11.253  29.931   9.150
 5691POPC   GL132377  11.348  29.962   8.850
 5691POPC   GL232378  11.164  29.892   8.850
 5691POPC   C1A32379  11.261  29.962   8.550
 5691POPC   D2A32380  11.332  29.882   8.250
 5691POPC   C3A32381  11.282  29.885   7.950
 5691POPC   C4A32382  11.304  29.871   7.650
 5691POPC   C1B32383  11.076  29.975   8.550
 5691POPC   C2B32384  11.059  29.917   8.250
 5691POPC   C3B32385  11.014  29.918   7.950
 5691POPC   C4B32386  11.023  29.959   7.650
 5692POPC   NC332387  18.278  12.077   9.450
 5692POPC   PO432388  18.322  12.100   9.150
 5692POPC   GL132389  18.330  12.125   8.850
 5692POPC   GL232390  18.410  12.008   8.850
 5692POPC   C1A32391  18.283  12.115   8.550
 5692POPC   D2A32392  18.328  12.102   8.250
 5692POPC   C3A32393  18.235  12.063   7.950
 5692POPC   C4A32394  18.253  12.082   7.650
 5692POPC   C1B32395  18.479  11.979   8.550
 5692POPC   C2B32396  18.522  11.981   8.250
 5692POPC   C3B32397  18.472  11.983   7.950
 5692POPC   C4B32398  18.530  11.964   7.650
 5693POPC   NC332399  13.587  27.591   9.450
 5693POPC   PO432400  13.671  27.592   9.150
 5693POPC   GL132401  13.644  27.582   8.850
 5693POPC   GL232402  13.510  27.556   8.850
 5693POPC   C1A32403  13.647  27.558   8.550
 5693POPC   D2A32404  13.596  27.603   8.250
 5693POPC   C3A32405  13.618  27.642   7.950
 5693POPC   C4A32406  13.600  27.574   7.650
 5693POPC   C1B32407  13.341  27.602   8.550
 5693POPC   C2B32408  13.370  27.575   8.250
 5693POPC   C3B32409  13.369  27.577   7.950
 5693POPC   C4B32410  13.354  27.575   7.650
 5694POPC   NC332411  40.798   9.703   9.450
 5694POPC   PO432412  40.831   9.760   9.150
 5694POPC   GL132413  40.807   9.763   8.850
 5694POPC   GL232414  40.864   9.779   8.850
 5694POPC   C1A32415  40.754   9.724   8.550
 5694POPC   D2A32416  40.777   9.726   8.250
 5694POPC   C3A32417  40.761   9.784   7.950
 5694POPC   C4A32418  40.763   9.763   7.650
 5694POPC   C1B32419  41.033   9.807   8.550
 5694POPC   C2B32420  41.004   9.811   8.250
 5694POPC   C3B32421  40.988   9.796   7.950
 5694POPC   C4B32422  40.986   9.783   7.650
 5695POPC   NC332423  40.006   9.021   9.450
 5695POPC   PO432424  39.992   8.969   9.150
 5695POPC   GL132425  39.998   8.974   8.850
 5695POPC   GL232426  40.165   8.972   8.850
 5695POPC   C1A32427  40.026   8.993   8.550
 5695POPC   D2A32428  40.024   8.989   8.250
 5695POPC   C3A32429  39.993   8.940   7.950
 5695POPC   C4A32430  40.028   9.002   7.650
 5695POPC   C1B32431  40.218   8.972   8.550
 5695POPC   C2B32432  40.249   8.955   8.250
 5695POPC   C3B32433  40.225   8.932   7.950
 5695POPC   C4B32434  40.212   8.980   7.650
 5696POPC   NC332435  32.261  43.912   9.450
 5696POPC   PO432436  32.199  43.870   9.150
 5696POPC   GL132437  32.273  43.868   8.850
 5696POPC   GL232438  32.415  43.864   8.850
 5696POPC   C1A32439  32.298  43.930   8.550
 5696POPC   D2A32440  32.240  43.859   8.250
 5696POPC   C3A32441  32.285  43.859   7.950
 5696POPC   C4A32442  32.294  43.932   7.650
 5696POPC   C1B32443  32.517  43.774   8.550
 5696POPC   C2B32444  32.471  43.827   8.250
 5696POPC   C3B32445  32.468  43.827   7.950
 5696POPC   C4B32446  32.471  43.842   7.650
 5697POPC   NC332447  24.452  32.286   9.450
 5697POPC   PO432448  24.482  32.221   9.150
 5697POPC   GL132449  24.461  32.242   8.850
 5697POPC   GL232450  24.625  32.136   8.850
 5697POPC   C1A32451  24.473  32.235   8.550
 5697POPC   D2A32452  24.511  32.227   8.250
 5697POPC   C3A32453  24.470  32.273   7.950
 5697POPC   C4A32454  24.501  32.279   7.650
 5697POPC   C1B32455  24.709  32.108   8.550
 5697POPC   C2B32456  24.745  32.113   8.250
 5697POPC   C3B32457  24.756  32.153   7.950
 5697POPC   C4B32458  24.690  32.094   7.650
 5698POPC   NC332459  17.513  35.347   9.450
 5698POPC   PO432460  17.511  35.307   9.150
 5698POPC   GL132461  17.464  35.392   8.850
 5698POPC   GL232462  17.480  35.513   8.850
 5698POPC   C1A32463  17.504  35.375   8.550
 5698POPC   D2A32464  17.518  35.382   8.250
 5698POPC   C3A32465  17.477  35.381   7.950
 5698POPC   C4A32466  17.493  35.351   7.650
 5698POPC   C1B32467  17.534  35.579   8.550
 5698POPC   C2B32468  17.538  35.607   8.250
 5698POPC   C3B32469  17.526  35.651   7.950
 5698POPC   C4B32470  17.481  35.594   7.650
 5699POPC   NC332471  38.409  13.640   9.450
 5699POPC   PO432472  38.421  13.651   9.150
 5699POPC   GL132473  38.451  13.612   8.850
 5699POPC   GL232474  38.597  13.557   8.850
 5699POPC   C1A32475  38.439  13.587   8.550
 5699POPC   D2A32476  38.498  13.611   8.250
 5699POPC   C3A32477  38.424  13.664   7.950
 5699POPC   C4A32478  38.496  13.675   7.650
 5699POPC   C1B32479  38.663  13.473   8.550
 5699POPC   C2B32480  38.643  13.543   8.250
 5699POPC   C3B32481  38.644  13.498   7.950
 5699POPC   C4B32482  38.692  13.465   7.650
 5700POPC   NC332483  36.859   2.748   9.450
 5700POPC   PO432484  36.939   2.720   9.150
 5700POPC   GL132485  36.904   2.776   8.850
 5700POPC   GL232486  37.006   2.841   8.850
 5700POPC   C1A32487  36.899   2.791   8.550
 5700POPC   D2A32488  36.930   2.769   8.250
 5700POPC   C3A32489  36.862   2.793   7.950
 5700POPC   C4A32490  36.888   2.747   7.650
 5700POPC   C1B32491  37.154   2.855   8.550
 5700POPC   C2B32492  37.195   2.860   8.250
 5700POPC   C3B32493  37.099   2.782   7.950
 5700POPC   C4B32494  37.185   2.878   7.650
 5701POPC   NC332495  15.207  13.606   9.450
 5701POPC   PO432496  15.197  13.673   9.150
 5701POPC   GL132497  15.156  13.670   8.850
 5701POPC   GL232498  15.033  13.654   8.850
 5701POPC   C1A32499  15.197  13.626   8.550
 5701POPC   D2A32500  15.229  13.676   8.250
 5701POPC   C3A32501  15.222  13.585   7.950
 5701POPC   C4A32502  15.174  13.670   7.650
 5701POPC   C1B32503  14.962  13.704   8.550
 5701POPC   C2B32504  14.921  13.701   8.250
 5701POPC   C3B32505  14.958  13.642   7.950
 5701POPC   C4B32506  14.916  13.704   7.650
 5702POPC   NC332507  39.973  26.826   9.450
 5702POPC   PO432508  39.974  26.774   9.150
 5702POPC   GL132509  39.968  26.814   8.850
 5702POPC   GL232510  39.939  26.727   8.850
 5702POPC   C1A32511  40.035  26.815   8.550
 5702POPC   D2A32512  39.957  26.788   8.250
 5702POPC   C3A32513  39.982  26.818   7.950
 5702POPC   C4A32514  40.047  26.859   7.650
 5702POPC   C1B32515  39.918  26.611   8.550
 5702POPC   C2B32516  39.872  26.585   8.250
 5702POPC   C3B32517  39.934  26.648   7.950
 5702POPC   C4B32518  39.875  26.571   7.650
 5703POPC   NC332519  12.837  42.319   9.450
 5703POPC   PO432520  12.878  42.354   9.150
 5703POPC   GL132521  12.853  42.380   8.850
 5703POPC   GL232522  12.810  42.483   8.850
 5703POPC   C1A32523  12.864  42.306   8.550
 5703POPC   D2A32524  12.835  42.321   8.250
 5703POPC   C3A32525  12.808  42.290   7.950
 5703POPC   C4A32526  12.862  42.374   7.650
 5703POPC   C1B32527  12.789  42.544   8.550
 5703POPC   C2B32528  12.746  42.586   8.250
 5703POPC   C3B32529  12.762  42.531   7.950
 5703POPC   C4B32530  12.789  42.574   7.650
 5704POPC   NC332531   3.533  31.505   9.450
 5704POPC   PO432532   3.538  31.438   9.150
 5704POPC   GL132533   3.492  31.501   8.850
 5704POPC   GL232534   3.468  31.420   8.850
 5704POPC   C1A32535   3.513  31.449   8.550
 5704POPC   D2A32536   3.557  31.461   8.250
 5704POPC   C3A32537   3.569  31.521   7.950
 5704POPC   C4A32538   3.521  31.453   7.650
 5704POPC   C1B32539   3.396  31.237   8.550
 5704POPC   C2B32540   3.423  31.255   8.250
 5704POPC   C3B32541   3.361  31.254   7.950
 5704POPC   C4B32542   3.381  31.309   7.650
 5705POPC   NC332543  20.570   2.736   9.450
 5705POPC   PO432544  20.563   2.785   9.150
 5705POPC   GL132545  20.649   2.762   8.850
 5705POPC   GL232546  20.542   2.639   8.850
 5705POPC   C1A32547  20.648   2.724   8.550
 5705POPC   D2A32548  20.655   2.738   8.250
 5705POPC   C3A32549  20.641   2.760   7.950
 5705POPC   C4A32550  20.584   2.793   7.650
 5705POPC   C1B32551  20.484   2.589   8.550
 5705POPC   C2B32552  20.474   2.508   8.250
 5705POPC   C3B32553  20.444   2.533   7.950
 5705POPC   C4B32554  20.454   2.535   7.650
 5706POPC   NC332555  11.350  38.474   9.450
 5706POPC   PO432556  11.309  38.417   9.150
 5706POPC   GL132557  11.281  38.467   8.850
 5706POPC   GL232558  11.354  38.363   8.850
 5706POPC   C1A32559  11.259  38.453   8.550
 5706POPC   D2A32560  11.276  38.451   8.250
 5706POPC   C3A32561  11.334  38.407   7.950
 5706POPC   C4A32562  11.348  38.424   7.650
 5706POPC   C1B32563  11.444  38.220   8.550
 5706POPC   C2B32564  11.401  38.291   8.250
 5706POPC   C3B32565  11.417  38.274   7.950
 5706POPC   C4B32566  11.405  38.225   7.650
 5707POPC   NC332567  20.611  19.051   9.450
 5707POPC   PO432568  20.648  19.074   9.150
 5707POPC   GL132569  20.566  19.083   8.850
 5707POPC   GL232570  20.660  18.899   8.850
 5707POPC   C1A32571  20.576  19.016   8.550
 5707POPC   D2A32572  20.659  19.016   8.250
 5707POPC   C3A32573  20.582  19.021   7.950
 5707POPC   C4A32574  20.591  19.093   7.650
 5707POPC   C1B32575  20.732  18.854   8.550
 5707POPC   C2B32576  20.687  18.847   8.250
 5707POPC   C3B32577  20.741  18.853   7.950
 5707POPC   C4B32578  20.647  18.785   7.650
 5708POPC   NC332579  43.912  37.701   9.450
 5708POPC   PO432580  43.932  37.695   9.150
 5708POPC   GL132581  43.849  37.713   8.850
 5708POPC   GL232582  43.945  37.612   8.850
 5708POPC   C1A32583  43.884  37.663   8.550
 5708POPC   D2A32584  43.861  37.706   8.250
 5708POPC   C3A32585  43.905  37.650   7.950
 5708POPC   C4A32586  43.853  37.711   7.650
 5708POPC   C1B32587  44.062  37.533   8.550
 5708POPC   C2B32588  44.131  37.565   8.250
 5708POPC   C3B32589  44.060  37.547   7.950
 5708POPC   C4B32590  44.146  37.553   7.650
 5709POPC   NC332591  34.589  12.861   9.450
 5709POPC   PO432592  34.575  12.848   9.150
 5709POPC   GL132593  34.597  12.810   8.850
 5709POPC   GL232594  34.721  12.791   8.850
 5709POPC   C1A32595  34.545  12.826   8.550
 5709POPC   D2A32596  34.613  12.810   8.250
 5709POPC   C3A32597  34.599  12.807   7.950
 5709POPC   C4A32598  34.617  12.819   7.650
 5709POPC   C1B32599  34.798  12.813   8.550
 5709POPC   C2B32600  34.821  12.792   8.250
 5709POPC   C3B32601  34.835  12.776   7.950
 5709POPC   C4B32602  34.777  12.760   7.650
 5710POPC   NC332603  43.904  19.802   9.450
 5710POPC   PO432604  43.844  19.884   9.150
 5710POPC   GL132605  43.864  19.824   8.850
 5710POPC   GL232606  43.795  19.866   8.850
 5710POPC   C1A32607  43.919  19.836   8.550
 5710POPC   D2A32608  43.901  19.853   8.250
 5710POPC   C3A32609  43.917  19.869   7.950
 5710POPC   C4A32610  43.873  19.828   7.650
 5710POPC   C1B32611  43.609  19.839   8.550
 5710POPC   C2B32612  43.642  19.812   8.250
 5710POPC   C3B32613  43.677  19.901   7.950
 5710POPC   C4B32614  43.627  19.835   7.650
 5711POPC   NC332615  35.340  40.806   9.450
 5711POPC   PO432616  35.366  40.776   9.150
 5711POPC   GL132617  35.359  40.820   8.850
 5711POPC   GL232618  35.333  40.958   8.850
 5711POPC   C1A32619  35.352  40.813   8.550
 5711POPC   D2A32620  35.319  40.795   8.250
 5711POPC   C3A32621  35.368  40.750   7.950
 5711POPC   C4A32622  35.360  40.815   7.650
 5711POPC   C1B32623  35.361  41.037   8.550
 5711POPC   C2B32624  35.372  41.063   8.250
 5711POPC   C3B32625  35.409  40.998   7.950
 5711POPC   C4B32626  35.395  41.013   7.650
 5712POPC   NC332627   8.925   1.245   9.450
 5712POPC   PO432628   9.011   1.174   9.150
 5712POPC   GL132629   9.010   1.182   8.850
 5712POPC   GL232630   8.812   1.143   8.850
 5712POPC   C1A32631   8.956   1.202   8.550
 5712POPC   D2A32632   8.975   1.231   8.250
 5712POPC   C3A32633   9.008   1.231   7.950
 5712POPC   C4A32634   8.959   1.243   7.650
 5712POPC   C1B32635   8.730   1.078   8.550
 5712POPC   C2B32636   8.784   1.118   8.250
 5712POPC   C3B32637   8.725   1.152   7.950
 5712POPC   C4B32638   8.701   1.086   7.650
 5713POPC   NC332639  12.816   5.855   9.450
 5713POPC   PO432640  12.835   5.829   9.150
 5713POPC   GL132641  12.828   5.881   8.850
 5713POPC   GL232642  12.990   5.865   8.850
 5713POPC   C1A32643  12.890   5.890   8.550
 5713POPC   D2A32644  12.871   5.821   8.250
 5713POPC   C3A32645  12.827   5.915   7.950
 5713POPC   C4A32646  12.855   5.911   7.650
 5713POPC   C1B32647  13.110   5.857   8.550
 5713POPC   C2B32648  13.071   5.919   8.250
 5713POPC   C3B32649  13.107   5.885   7.950
 5713POPC   C4B32650  13.112   5.883   7.650
 5714POPC   NC332651   3.587   3.573   9.450
 5714POPC   PO432652   3.543   3.558   9.150
 5714POPC   GL132653   3.550   3.566   8.850
 5714POPC   GL232654   3.687   3.636   8.850
 5714POPC   C1A32655   3.543   3.522   8.550
 5714POPC   D2A32656   3.560   3.529   8.250
 5714POPC   C3A32657   3.518   3.545   7.950
 5714POPC   C4A32658   3.574   3.571   7.650
 5714POPC   C1B32659   3.743   3.707   8.550
 5714POPC   C2B32660   3.734   3.736   8.250
 5714POPC   C3B32661   3.785   3.716   7.950
 5714POPC   C4B32662   3.746   3.694   7.650
 5715POPC   NC332663  39.208  14.410   9.450
 5715POPC   PO432664  39.231  14.405   9.150
 5715POPC   GL132665  39.188  14.396   8.850
 5715POPC   GL232666  39.107  14.330   8.850
 5715POPC   C1A32667  39.279  14.420   8.550
 5715POPC   D2A32668  39.184  14.439   8.250
 5715POPC   C3A32669  39.181  14.376   7.950
 5715POPC   C4A32670  39.218  14.424   7.650
 5715POPC   C1B32671  38.986  14.248   8.550
 5715POPC   C2B32672  39.033  14.250   8.250
 5715POPC   C3B32673  39.026  14.316   7.950
 5715POPC   C4B32674  39.054  14.252   7.650
 5716POPC   NC332675  19.805  42.384   9.450
 5716POPC   PO432676  19.877  42.306   9.150
 5716POPC   GL132677  19.801  42.319   8.850
 5716POPC   GL232678  19.990  42.403   8.850
 5716POPC   C1A32679  19.785  42.331   8.550
 5716POPC   D2A32680  19.840  42.321   8.250
 5716POPC   C3A32681  19.881  42.318   7.950
 5716POPC   C4A32682  19.840  42.341   7.650
 5716POPC   C1B32683  20.108  42.445   8.550
 5716POPC   C2B32684  20.105  42.393   8.250
 5716POPC   C3B32685  20.044  42.398   7.950
 5716POPC   C4B32686  20.069  42.399   7.650
 5717POPC   NC332687   0.471  33.014   9.450
 5717POPC   PO432688   0.467  32.986   9.150
 5717POPC   GL132689   0.425  33.036   8.850
 5717POPC   GL232690   0.295  33.059   8.850
 5717POPC   C1A32691   0.415  33.018   8.550
 5717POPC   D2A32692   0.472  32.977   8.250
 5717POPC   C3A32693   0.434  33.004   7.950
 5717POPC   C4A32694   0.431  32.986   7.650
 5717POPC   C1B32695   0.209  33.143   8.550
 5717POPC   C2B32696   0.200  33.187   8.250
 5717POPC   C3B32697   0.276  33.115   7.950
 5717POPC   C4B32698   0.213  33.131   7.650
 5718POPC   NC332699  38.500   2.787   9.450
 5718POPC   PO432700  38.436   2.781   9.150
 5718POPC   GL132701  38.420   2.787   8.850
 5718POPC   GL232702  38.468   2.675   8.850
 5718POPC   C1A32703  38.429   2.762   8.550
 5718POPC   D2A32704  38.430   2.764   8.250
 5718POPC   C3A32705  38.427   2.786   7.950
 5718POPC   C4A32706  38.505   2.735   7.650
 5718POPC   C1B32707  38.447   2.545   8.550
 5718POPC   C2B32708  38.392   2.542   8.250
 5718POPC   C3B32709  38.395   2.469   7.950
 5718POPC   C4B32710  38.476   2.518   7.650
 5719POPC   NC332711  10.553  31.513   9.450
 5719POPC   PO432712  10.528  31.476   9.150
 5719POPC   GL132713  10.565  31.463   8.850
 5719POPC   GL232714  10.454  31.359   8.850
 5719POPC   C1A32715  10.528  31.460   8.550
 5719POPC   D2A32716  10.530  31.445   8.250
 5719POPC   C3A32717  10.524  31.450   7.950
 5719POPC   C4A32718  10.525  31.432   7.650
 5719POPC   C1B32719  10.415  31.201   8.550
 5719POPC   C2B32720  10.465  31.280   8.250
 5719POPC   C3B32721  10.415  31.262   7.950
 5719POPC   C4B32722  10.438  31.285   7.650
 5720POPC   NC332723  22.950  22.941   9.450
 5720POPC   PO432724  22.941  22.919   9.150
 5720POPC   GL132725  22.921  22.953   8.850
 5720POPC   GL232726  22.926  23.098   8.850
 5720POPC   C1A32727  22.909  22.987   8.550
 5720POPC   D2A32728  22.935  22.917   8.250
 5720POPC   C3A32729  22.942  22.911   7.950
 5720POPC   C4A32730  22.952  22.959   7.650
 5720POPC   C1B32731  22.952  23.233   8.550
 5720POPC   C2B32732  22.899  23.161   8.250
 5720POPC   C3B32733  22.964  23.173   7.950
 5720POPC   C4B32734  22.947  23.145   7.650
 5721POPC   NC332735   0.430  29.101   9.450
 5721POPC   PO432736   0.441  29.118   9.150
 5721POPC   GL132737   0.411  29.123   8.850
 5721POPC   GL232738   0.345  29.108   8.850
 5721POPC   C1A32739   0.484  29.117   8.550
 5721POPC   D2A32740   0.475  29.134   8.250
 5721POPC   C3A32741   0.479  29.151   7.950
 5721POPC   C4A32742   0.399  29.134   7.650
 5721POPC   C1B32743   0.248  29.020   8.550
 5721POPC   C2B32744   0.249  28.993   8.250
 5721POPC   C3B32745   0.249  28.985   7.950
 5721POPC   C4B32746   0.199  29.007   7.650
 5722POPC   NC332747  28.344  17.529   9.450
 5722POPC   PO432748  28.391  17.553   9.150
 5722POPC   GL132749  28.334  17.543   8.850
 5722POPC   GL232750  28.429  17.392   8.850
 5722POPC   C1A32751  28.322  17.500   8.550
 5722POPC   D2A32752  28.338  17.482   8.250
 5722POPC   C3A32753  28.357  17.484   7.950
 5722POPC   C4A32754  28.413  17.523   7.650
 5722POPC   C1B32755  28.532  17.371   8.550
 5722POPC   C2B32756  28.528  17.356   8.250
 5722POPC   C3B32757  28.528  17.316   7.950
 5722POPC   C4B32758  28.554  17.315   7.650
 5723POPC   NC332759  22.935  21.364   9.450
 5723POPC   PO432760  22.910  21.391   9.150
 5723POPC   GL132761  22.984  21.354   8.850
 5723POPC   GL232762  22.894  21.446   8.850
 5723POPC   C1A32763  22.970  21.416   8.550
 5723POPC   D2A32764  22.917  21.343   8.250
 5723POPC   C3A32765  22.954  21.428   7.950
 5723POPC   C4A32766  22.935  21.359   7.650
 5723POPC   C1B32767  22.769  21.565   8.550
 5723POPC   C2B32768  22.769  21.604   8.250
 5723POPC   C3B32769  22.825  21.623   7.950
 5723POPC   C4B32770  22.792  21.529   7.650
 5724POPC   NC332771   2.789   8.219   9.450
 5724POPC   PO432772   2.805   8.170   9.150
 5724POPC   GL132773   2.719   8.154   8.850
 5724POPC   GL232774   2.689   8.103   8.850
 5724POPC   C1A32775   2.794   8.222   8.550
 5724POPC   D2A32776   2.778   8.181   8.250
 5724POPC   C3A32777   2.756   8.159   7.950
 5724POPC   C4A32778   2.751   8.162   7.650
 5724POPC   C1B32779   2.611   7.987   8.550
 5724POPC   C2B32780   2.623   7.932   8.250
 5724POPC   C3B32781   2.612   8.021   7.950
 5724POPC   C4B32782   2.694   8.011   7.650
 5725POPC   NC332783  14.415  18.241   9.450
 5725POPC   PO432784  14.432  18.326   9.150
 5725POPC   GL132785  14.382  18.309   8.850
 5725POPC   GL232786  14.494  18.410   8.850
 5725POPC   C1A32787  14.431  18.268   8.550
 5725POPC   D2A32788  14.442  18.241   8.250
 5725POPC   C3A32789  14.376  18.305   7.950
 5725POPC   C4A32790  14.361  18.317   7.650
 5725POPC   C1B32791  14.593  18.508   8.550
 5725POPC   C2B32792  14.513  18.513   8.250
 5725POPC   C3B32793  14.520  18.520   7.950
 5725POPC   C4B32794  14.515  18.516   7.650
 5726POPC   NC332795   6.686  10.538   9.450
 5726POPC   PO432796   6.671  10.487   9.150
 5726POPC   GL132797   6.687  10.489   8.850
 5726POPC   GL232798   6.753  10.497   8.850
 5726POPC   C1A32799   6.678  10.501   8.550
 5726POPC   D2A32800   6.691  10.486   8.250
 5726POPC   C3A32801   6.663  10.553   7.950
 5726POPC   C4A32802   6.690  10.533   7.650
 5726POPC   C1B32803   6.902  10.441   8.550
 5726POPC   C2B32804   6.865  10.504   8.250
 5726POPC   C3B32805   6.896  10.498   7.950
 5726POPC   C4B32806   6.871  10.438   7.650
 5727POPC   NC332807  41.512  38.468   9.450
 5727POPC   PO432808  41.555  38.464   9.150
 5727POPC   GL132809  41.538  38.425   8.850
 5727POPC   GL232810  41.464  38.468   8.850
 5727POPC   C1A32811  41.574  38.415   8.550
 5727POPC   D2A32812  41.595  38.414   8.250
 5727POPC   C3A32813  41.565  38.441   7.950
 5727POPC   C4A32814  41.510  38.436   7.650
 5727POPC   C1B32815  41.322  38.498   8.550
 5727POPC   C2B32816  41.358  38.443   8.250
 5727POPC   C3B32817  41.350  38.431   7.950
 5727POPC   C4B32818  41.314  38.430   7.650
 5728POPC   NC332819  27.639  16.712   9.450
 5728POPC   PO432820  27.632  16.716   9.150
 5728POPC   GL132821  27.603  16.684   8.850
 5728POPC   GL232822  27.496  16.811   8.850
 5728POPC   C1A32823  27.625  16.753   8.550
 5728POPC   D2A32824  27.574  16.755   8.250
 5728POPC   C3A32825  27.633  16.769   7.950
 5728POPC   C4A32826  27.590  16.765   7.650
 5728POPC   C1B32827  27.398  16.831   8.550
 5728POPC   C2B32828  27.323  16.788   8.250
 5728POPC   C3B32829  27.321  16.845   7.950
 5728POPC   C4B32830  27.311  16.829   7.650
 5729POPC   NC332831  38.454  22.174   9.450
 5729POPC   PO432832  38.416  22.206   9.150
 5729POPC   GL132833  38.422  22.133   8.850
 5729POPC   GL232834  38.349  22.081   8.850
 5729POPC   C1A32835  38.463  22.132   8.550
 5729POPC   D2A32836  38.473  22.152   8.250
 5729POPC   C3A32837  38.451  22.155   7.950
 5729POPC   C4A32838  38.465  22.185   7.650
 5729POPC   C1B32839  38.336  21.971   8.550
 5729POPC   C2B32840  38.355  21.927   8.250
 5729POPC   C3B32841  38.388  21.919   7.950
 5729POPC   C4B32842  38.336  21.980   7.650
 5730POPC   NC332843   9.721   7.404   9.450
 5730POPC   PO432844   9.708   7.374   9.150
 5730POPC   GL132845   9.720   7.373   8.850
 5730POPC   GL232846   9.727   7.519   8.850
 5730POPC   C1A32847   9.717   7.416   8.550
 5730POPC   D2A32848   9.714   7.376   8.250
 5730POPC   C3A32849   9.795   7.418   7.950
 5730POPC   C4A32850   9.761   7.410   7.650
 5730POPC   C1B32851   9.689   7.650   8.550
 5730POPC   C2B32852   9.635   7.616   8.250
 5730POPC   C3B32853   9.713   7.644   7.950
 5730POPC   C4B32854   9.679   7.644   7.650
 5731POPC   NC332855   4.309  32.990   9.450
 5731POPC   PO432856   4.319  33.061   9.150
 5731POPC   GL132857   4.329  33.010   8.850
 5731POPC   GL232858   4.267  32.875   8.850
 5731POPC   C1A32859   4.295  33.000   8.550
 5731POPC   D2A32860   4.276  33.050   8.250
 5731POPC   C3A32861   4.339  33.013   7.950
 5731POPC   C4A32862   4.294  32.988   7.650
 5731POPC   C1B32863   4.200  32.796   8.550
 5731POPC   C2B32864   4.223  32.798   8.250
 5731POPC   C3B32865   4.211  32.763   7.950
 5731POPC   C4B32866   4.241  32.756   7.650
 5732POPC   NC332867  15.986  16.778   9.450
 5732POPC   PO432868  15.967  16.716   9.150
 5732POPC   GL132869  15.993  16.721   8.850
 5732POPC   GL232870  16.049  16.657   8.850
 5732POPC   C1A32871  15.990  16.723   8.550
 5732POPC   D2A32872  15.960  16.702   8.250
 5732POPC   C3A32873  15.921  16.721   7.950
 5732POPC   C4A32874  15.969  16.690   7.650
 5732POPC   C1B32875  16.145  16.556   8.550
 5732POPC   C2B32876  16.178  16.547   8.250
 5732POPC   C3B32877  16.114  16.514   7.950
 5732POPC   C4B32878  16.090  16.577   7.650
 5733POPC   NC332879  36.152  43.888   9.450
 5733POPC   PO432880  36.175  43.924   9.150
 5733POPC   GL132881  36.111  43.857   8.850
 5733POPC   GL232882  36.169  44.055   8.850
 5733POPC   C1A32883  36.170  43.898   8.550
 5733POPC   D2A32884  36.121  43.895   8.250
 5733POPC   C3A32885  36.079  43.933   7.950
 5733POPC   C4A32886  36.123  43.875   7.650
 5733POPC   C1B32887  36.084  44.172   8.550
 5733POPC   C2B32888  36.151  44.160   8.250
 5733POPC   C3B32889  36.160  44.115   7.950
 5733POPC   C4B32890  36.168  44.135   7.650
 5734POPC   NC332891  30.698  22.963   9.450
 5734POPC   PO432892  30.708  22.960   9.150
 5734POPC   GL132893  30.698  22.921   8.850
 5734POPC   GL232894  30.782  22.866   8.850
 5734POPC   C1A32895  30.703  22.951   8.550
 5734POPC   D2A32896  30.725  22.962   8.250
 5734POPC   C3A32897  30.727  22.979   7.950
 5734POPC   C4A32898  30.652  22.956   7.650
 5734POPC   C1B32899  30.923  22.782   8.550
 5734POPC   C2B32900  30.925  22.855   8.250
 5734POPC   C3B32901  30.939  22.791   7.950
 5734POPC   C4B32902  30.966  22.807   7.650
 5735POPC   NC332903  33.022  37.686   9.450
 5735POPC   PO432904  33.069  37.655   9.150
 5735POPC   GL132905  33.067  37.647   8.850
 5735POPC   GL232906  32.896  37.658   8.850
 5735POPC   C1A32907  33.010  37.696   8.550
 5735POPC   D2A32908  33.050  37.668   8.250
 5735POPC   C3A32909  33.038  37.721   7.950
 5735POPC   C4A32910  32.981  37.713   7.650
 5735POPC   C1B32911  32.823  37.552   8.550
 5735POPC   C2B32912  32.775  37.599   8.250
 5735POPC   C3B32913  32.793  37.537   7.950
 5735POPC   C4B32914  32.851  37.592   7.650
 5736POPC   NC332915  41.554  28.395   9.450
 5736POPC   PO432916  41.543  28.357   9.150
 5736POPC   GL132917  41.554  28.386   8.850
 5736POPC   GL232918  41.448  28.374   8.850
 5736POPC   C1A32919  41.581  28.331   8.550
 5736POPC   D2A32920  41.566  28.339   8.250
 5736POPC   C3A32921  41.566  28.382   7.950
 5736POPC   C4A32922  41.558  28.373   7.650
 5736POPC   C1B32923  41.279  28.321   8.550
 5736POPC   C2B32924  41.302  28.318   8.250
 5736POPC   C3B32925  41.358  28.300   7.950
 5736POPC   C4B32926  41.345  28.284   7.650
 5737POPC   NC332927   1.996  43.114   9.450
 5737POPC   PO432928   1.966  43.116   9.150
 5737POPC   GL132929   2.035  43.088   8.850
 5737POPC   GL232930   2.088  42.960   8.850
 5737POPC   C1A32931   1.945  43.077   8.550
 5737POPC   D2A32932   1.986  43.087   8.250
 5737POPC   C3A32933   1.973  43.073   7.950
 5737POPC   C4A32934   1.945  43.106   7.650
 5737POPC   C1B32935   2.142  42.945   8.550
 5737POPC   C2B32936   2.080  42.891   8.250
 5737POPC   C3B32937   2.098  42.875   7.950
 5737POPC   C4B32938   2.160  42.952   7.650
 5738POPC   NC332939  23.674  32.236   9.450
 5738POPC   PO432940  23.756  32.295   9.150
 5738POPC   GL132941  23.724  32.219   8.850
 5738POPC   GL232942  23.834  32.130   8.850
 5738POPC   C1A32943  23.665  32.262   8.550
 5738POPC   D2A32944  23.681  32.207   8.250
 5738POPC   C3A32945  23.695  32.297   7.950
 5738POPC   C4A32946  23.746  32.217   7.650
 5738POPC   C1B32947  23.874  32.140   8.550
 5738POPC   C2B32948  23.897  32.140   8.250
 5738POPC   C3B32949  23.884  32.148   7.950
 5738POPC   C4B32950  23.881  32.099   7.650
 5739POPC   NC332951   8.189  33.775   9.450
 5739POPC   PO432952   8.151  33.849   9.150
 5739POPC   GL132953   8.195  33.794   8.850
 5739POPC   GL232954   8.322  33.778   8.850
 5739POPC   C1A32955   8.236  33.796   8.550
 5739POPC   D2A32956   8.199  33.795   8.250
 5739POPC   C3A32957   8.233  33.813   7.950
 5739POPC   C4A32958   8.181  33.789   7.650
 5739POPC   C1B32959   8.445  33.757   8.550
 5739POPC   C2B32960   8.447  33.758   8.250
 5739POPC   C3B32961   8.438  33.748   7.950
 5739POPC   C4B32962   8.454  33.674   7.650
 5740POPC   NC332963  36.119  12.106   9.450
 5740POPC   PO432964  36.097  12.031   9.150
 5740POPC   GL132965  36.144  12.071   8.850
 5740POPC   GL232966  36.209  12.003   8.850
 5740POPC   C1A32967  36.115  12.046   8.550
 5740POPC   D2A32968  36.161  12.079   8.250
 5740POPC   C3A32969  36.129  12.034   7.950
 5740POPC   C4A32970  36.133  12.090   7.650
 5740POPC   C1B32971  36.187  11.899   8.550
 5740POPC   C2B32972  36.247  11.869   8.250
 5740POPC   C3B32973  36.224  11.882   7.950
 5740POPC   C4B32974  36.231  11.884   7.650
 5741POPC   NC332975  41.549  22.896   9.450
 5741POPC   PO432976  41.583  22.973   9.150
 5741POPC   GL132977  41.556  22.953   8.850
 5741POPC   GL232978  41.656  22.880   8.850
 5741POPC   C1A32979  41.545  22.982   8.550
 5741POPC   D2A32980  41.521  22.944   8.250
 5741POPC   C3A32981  41.562  22.909   7.950
 5741POPC   C4A32982  41.509  22.967   7.650
 5741POPC   C1B32983  41.769  22.794   8.550
 5741POPC   C2B32984  41.748  22.714   8.250
 5741POPC   C3B32985  41.761  22.754   7.950
 5741POPC   C4B32986  41.743  22.734   7.650
 5742POPC   NC332987  39.268  34.578   9.450
 5742POPC   PO432988  39.233  34.561   9.150
 5742POPC   GL132989  39.207  34.534   8.850
 5742POPC   GL232990  39.374  34.537   8.850
 5742POPC   C1A32991  39.276  34.612   8.550
 5742POPC   D2A32992  39.195  34.606   8.250
 5742POPC   C3A32993  39.272  34.527   7.950
 5742POPC   C4A32994  39.193  34.551   7.650
 5742POPC   C1B32995  39.441  34.484   8.550
 5742POPC   C2B32996  39.460  34.449   8.250
 5742POPC   C3B32997  39.487  34.434   7.950
 5742POPC   C4B32998  39.391  34.391   7.650
 5743POPC   NC332999  24.512   1.179   9.450
 5743POPC   PO433000  24.466   1.260   9.150
 5743POPC   GL133001  24.514   1.249   8.850
 5743POPC   GL233002  24.458   1.316   8.850
 5743POPC   C1A33003  24.533   1.252   8.550
 5743POPC   D2A33004  24.466   1.244   8.250
 5743POPC   C3A33005  24.486   1.245   7.950
 5743POPC   C4A33006  24.476   1.222   7.650
 5743POPC   C1B33007  24.436   1.457   8.550
 5743POPC   C2B33008  24.484   1.447   8.250
 5743POPC   C3B33009  24.497   1.417   7.950
 5743POPC   C4B33010  24.459   1.485   7.650
 5744POPC   NC333011  30.650   9.016   9.450
 5744POPC   PO433012  30.735   8.975   9.150
 5744POPC   GL133013  30.740   9.008   8.850
 5744POPC   GL233014  30.684   8.859   8.850
 5744POPC   C1A33015  30.709   8.940   8.550
 5744POPC   D2A33016  30.734   8.955   8.250
 5744POPC   C3A33017  30.743   9.016   7.950
 5744POPC   C4A33018  30.716   8.929   7.650
 5744POPC   C1B33019  30.644   8.778   8.550
 5744POPC   C2B33020  30.614   8.728   8.250
 5744POPC   C3B33021  30.579   8.696   7.950
 5744POPC   C4B33022  30.623   8.753   7.650
 5745POPC   NC333023  34.554  33.835   9.450
 5745POPC   PO433024  34.594  33.794   9.150
 5745POPC   GL133025  34.617  33.801   8.850
 5745POPC   GL233026  34.489  33.749   8.850
 5745POPC   C1A33027  34.622  33.788   8.550
 5745POPC   D2A33028  34.613  33.790   8.250
 5745POPC   C3A33029  34.618  33.808   7.950
 5745POPC   C4A33030  34.586  33.808   7.650
 5745POPC   C1B33031  34.351  33.772   8.550
 5745POPC   C2B33032  34.344  33.806   8.250
 5745POPC   C3B33033  34.301  33.821   7.950
 5745POPC   C4B33034  34.334  33.786   7.650
 5746POPC   NC333035  12.059  44.671   9.450
 5746POPC   PO433036  12.119  44.675   9.150
 5746POPC   GL133037  12.033  44.689   8.850
 5746POPC   GL233038  12.160  44.624   8.850
 5746POPC   C1A33039  12.094  44.661   8.550
 5746POPC   D2A33040  12.032  44.663   8.250
 5746POPC   C3A33041  12.064  44.685   7.950
 5746POPC   C4A33042  12.058  44.706   7.650
 5746POPC   C1B33043  12.332  44.603   8.550
 5746POPC   C2B33044  12.324  44.624   8.250
 5746POPC   C3B33045  12.317  44.588   7.950
 5746POPC   C4B33046  12.292  44.637   7.650
 5747POPC   NC333047   4.353   6.680   9.450
 5747POPC   PO433048   4.290   6.627   9.150
 5747POPC   GL133049   4.283   6.673   8.850
 5747POPC   GL233050   4.367   6.731   8.850
 5747POPC   C1A33051   4.338   6.653   8.550
 5747POPC   D2A33052   4.321   6.662   8.250
 5747POPC   C3A33053   4.325   6.662   7.950
 5747POPC   C4A33054   4.284   6.669   7.650
 5747POPC   C1B33055   4.460   6.843   8.550
 5747POPC   C2B33056   4.473   6.833   8.250
 5747POPC   C3B33057   4.436   6.861   7.950
 5747POPC   C4B33058   4.430   6.849   7.650
 5748POPC   NC333059  29.191  22.955   9.450
 5748POPC   PO433060  29.145  22.965   9.150
 5748POPC   GL133061  29.163  22.899   8.850
 5748POPC   GL233062  29.050  22.953   8.850
 5748POPC   C1A33063  29.149  22.960   8.550
 5748POPC   D2A33064  29.123  22.927   8.250
 5748POPC   C3A33065  29.174  22.979   7.950
 5748POPC   C4A33066  29.169  22.900   7.650
 5748POPC   C1B33067  28.914  23.052   8.550
 5748POPC   C2B33068  28.857  23.041   8.250
 5748POPC   C3B33069  28.880  22.997   7.950
 5748POPC   C4B33070  28.920  23.032   7.650
 5749POPC   NC333071  38.483  24.469   9.450
 5749POPC   PO433072  38.456  24.489   9.150
 5749POPC   GL133073  38.442  24.530   8.850
 5749POPC   GL233074  38.482  24.548   8.850
 5749POPC   C1A33075  38.477  24.448   8.550
 5749POPC   D2A33076  38.437  24.497   8.250
 5749POPC   C3A33077  38.494  24.467   7.950
 5749POPC   C4A33078  38.455  24.525   7.650
 5749POPC   C1B33079  38.616  24.738   8.550
 5749POPC   C2B33080  38.621  24.653   8.250
 5749POPC   C3B33081  38.586  24.736   7.950
 5749POPC   C4B33082  38.643  24.686   7.650
 5750POPC   NC333083  24.482  31.453   9.450
 5750POPC   PO433084  24.487  31.431   9.150
 5750POPC   GL133085  24.480  31.490   8.850
 5750POPC   GL233086  24.374  31.416   8.850
 5750POPC   C1A33087  24.509  31.431   8.550
 5750POPC   D2A33088  24.484  31.469   8.250
 5750POPC   C3A33089  24.522  31.431   7.950
 5750POPC   C4A33090  24.511  31.471   7.650
 5750POPC   C1B33091  24.287  31.305   8.550
 5750POPC   C2B33092  24.297  31.311   8.250
 5750POPC   C3B33093  24.348  31.317   7.950
 5750POPC   C4B33094  24.356  31.318   7.650
 5751POPC   NC333095  29.964   7.406   9.450
 5751POPC   PO433096  29.963   7.440   9.150
 5751POPC   GL133097  29.910   7.406   8.850
 5751POPC   GL233098  29.796   7.392   8.850
 5751POPC   C1A33099  29.890   7.414   8.550
 5751POPC   D2A33100  29.944   7.374   8.250
 5751POPC   C3A33101  29.970   7.383   7.950
 5751POPC   C4A33102  29.957   7.399   7.650
 5751POPC   C1B33103  29.660   7.452   8.550
 5751POPC   C2B33104  29.671   7.505   8.250
 5751POPC   C3B33105  29.689   7.482   7.950
 5751POPC   C4B33106  29.686   7.460   7.650
 5752POPC   NC333107   3.529  34.593   9.450
 5752POPC   PO433108   3.514  34.543   9.150
 5752POPC   GL133109   3.515  34.534   8.850
 5752POPC   GL233110   3.436  34.603   8.850
 5752POPC   C1A33111   3.498  34.570   8.550
 5752POPC   D2A33112   3.570  34.555   8.250
 5752POPC   C3A33113   3.528  34.579   7.950
 5752POPC   C4A33114   3.518  34.540   7.650
 5752POPC   C1B33115   3.333  34.616   8.550
 5752POPC   C2B33116   3.288  34.586   8.250
 5752POPC   C3B33117   3.328  34.625   7.950
 5752POPC   C4B33118   3.254  34.657   7.650
 5753POPC   NC333119  28.338   8.180   9.450
 5753POPC   PO433120  28.355   8.225   9.150
 5753POPC   GL133121  28.374   8.163   8.850
 5753POPC   GL233122  28.481   8.170   8.850
 5753POPC   C1A33123  28.344   8.175   8.550
 5753POPC   D2A33124  28.352   8.199   8.250
 5753POPC   C3A33125  28.388   8.150   7.950
 5753POPC   C4A33126  28.356   8.209   7.650
 5753POPC   C1B33127  28.612   8.188   8.550
 5753POPC   C2B33128  28.589   8.160   8.250
 5753POPC   C3B33129  28.652   8.166   7.950
 5753POPC   C4B33130  28.649   8.236   7.650
 5754POPC   NC333131  25.995  20.643   9.450
 5754POPC   PO433132  26.014  20.659   9.150
 5754POPC   GL133133  26.028  20.639   8.850
 5754POPC   GL233134  25.937  20.615   8.850
 5754POPC   C1A33135  26.007  20.641   8.550
 5754POPC   D2A33136  26.017  20.630   8.250
 5754POPC   C3A33137  26.011  20.649   7.950
 5754POPC   C4A33138  26.063  20.583   7.650
 5754POPC   C1B33139  25.832  20.646   8.550
 5754POPC   C2B33140  25.799  20.640   8.250
 5754POPC   C3B33141  25.836  20.699   7.950
 5754POPC   C4B33142  25.836  20.712   7.650
 5755POPC   NC333143  16.687   4.301   9.450
 5755POPC   PO433144  16.729   4.274   9.150
 5755POPC   GL133145  16.701   4.310   8.850
 5755POPC   GL233146  16.670   4.228   8.850
 5755POPC   C1A33147  16.697   4.365   8.550
 5755POPC   D2A33148  16.729   4.353   8.250
 5755POPC   C3A33149  16.719   4.326   7.950
 5755POPC   C4A33150  16.700   4.354   7.650
 5755POPC   C1B33151  16.633   4.049   8.550
 5755POPC   C2B33152  16.616   4.049   8.250
 5755POPC   C3B33153  16.656   4.060   7.950
 5755POPC   C4B33154  16.638   4.116   7.650
 5756POPC   NC333155  19.857   9.711   9.450
 5756POPC   PO433156  19.855   9.766   9.150
 5756POPC   GL133157  19.828   9.762   8.850
 5756POPC   GL233158  19.929   9.756   8.850
 5756POPC   C1A33159  19.874   9.754   8.550
 5756POPC   D2A33160  19.826   9.798   8.250
 5756POPC   C3A33161  19.786   9.772   7.950
 5756POPC   C4A33162  19.864   9.705   7.650
 5756POPC   C1B33163  20.085   9.687   8.550
 5756POPC   C2B33164  20.081   9.699   8.250
 5756POPC   C3B33165  20.107   9.724   7.950
 5756POPC   C4B33166  20.105   9.731   7.650
 5757POPC   NC333167  36.150  15.228   9.450
 5757POPC   PO433168  36.137  15.133   9.150
 5757POPC   GL133169  36.117  15.189   8.850
 5757POPC   GL233170  36.142  15.052   8.850
 5757POPC   C1A33171  36.165  15.145   8.550
 5757POPC   D2A33172  36.177  15.151   8.250
 5757POPC   C3A33173  36.128  15.178   7.950
 5757POPC   C4A33174  36.079  15.177   7.650
 5757POPC   C1B33175  36.086  14.961   8.550
 5757POPC   C2B33176  36.048  14.966   8.250
 5757POPC   C3B33177  36.058  14.950   7.950
 5757POPC   C4B33178  36.138  14.969   7.650
 5758POPC   NC333179   7.399  42.307   9.450
 5758POPC   PO433180   7.439  42.344   9.150
 5758POPC   GL133181   7.384  42.285   8.850
 5758POPC   GL233182   7.529  42.403   8.850
 5758POPC   C1A33183   7.442  42.370   8.550
 5758POPC   D2A33184   7.467  42.286   8.250
 5758POPC   C3A33185   7.381  42.361   7.950
 5758POPC   C4A33186   7.395  42.382   7.650
 5758POPC   C1B33187   7.600  42.419   8.550
 5758POPC   C2B33188   7.629  42.490   8.250
 5758POPC   C3B33189   7.585  42.442   7.950
 5758POPC   C4B33190   7.630  42.433   7.650
 5759POPC   NC333191  26.828   4.340   9.450
 5759POPC   PO433192  26.784   4.355   9.150
 5759POPC   GL133193  26.830   4.354   8.850
 5759POPC   GL233194  26.680   4.360   8.850
 5759POPC   C1A33195  26.842   4.295   8.550
 5759POPC   D2A33196  26.785   4.316   8.250
 5759POPC   C3A33197  26.771   4.328   7.950
 5759POPC   C4A33198  26.775   4.365   7.650
 5759POPC   C1B33199  26.545   4.350   8.550
 5759POPC   C2B33200  26.547   4.343   8.250
 5759POPC   C3B33201  26.556   4.384   7.950
 5759POPC   C4B33202  26.557   4.328   7.650
 5760POPC   NC333203   2.801   5.833   9.450
 5760POPC   PO433204   2.811   5.820   9.150
 5760POPC   GL133205   2.728   5.863   8.850
 5760POPC   GL233206   2.804   5.955   8.850
 5760POPC   C1A33207   2.747   5.884   8.550
 5760POPC   D2A33208   2.785   5.834   8.250
 5760POPC   C3A33209   2.795   5.872   7.950
 5760POPC   C4A33210   2.735   5.879   7.650
 5760POPC   C1B33211   2.800   6.159   8.550
 5760POPC   C2B33212   2.769   6.155   8.250
 5760POPC   C3B33213   2.763   6.128   7.950
 5760POPC   C4B33214   2.780   6.083   7.650
 5761POPC   NC333215  37.673   1.948   9.450
 5761POPC   PO433216  37.724   1.973   9.150
 5761POPC   GL133217  37.661   1.994   8.850
 5761POPC   GL233218  37.756   2.039   8.850
 5761POPC   C1A33219  37.683   2.016   8.550
 5761POPC   D2A33220  37.690   1.968   8.250
 5761POPC   C3A33221  37.636   1.947   7.950
 5761POPC   C4A33222  37.693   1.941   7.650
 5761POPC   C1B33223  37.891   2.097   8.550
 5761POPC   C2B33224  37.923   2.068   8.250
 5761POPC   C3B33225  37.893   2.047   7.950
 5761POPC   C4B33226  37.897   2.113   7.650
 5762POPC   NC333227  31.475  25.261   9.450
 5762POPC   PO433228  31.456  25.242   9.150
 5762POPC   GL133229  31.457  25.284   8.850
 5762POPC   GL233230  31.389  25.191   8.850
 5762POPC   C1A33231  31.459  25.251   8.550
 5762POPC   D2A33232  31.519  25.298   8.250
 5762POPC   C3A33233  31.454  25.239   7.950
 5762POPC   C4A33234  31.489  25.216   7.650
 5762POPC   C1B33235  31.391  25.035   8.550
 5762POPC   C2B33236  31.338  25.075   8.250
 5762POPC   C3B33237  31.332  25.024   7.950
 5762POPC   C4B33238  31.321  25.075   7.650
 5763POPC   NC333239  12.849  25.252   9.450
 5763POPC   PO433240  12.844  25.233   9.150
 5763POPC   GL133241  12.887  25.235   8.850
 5763POPC   GL233242  12.919  25.169   8.850
 5763POPC   C1A33243  12.896  25.314   8.550
 5763POPC   D2A33244  12.894  25.231   8.250
 5763POPC   C3A33245  12.884  25.231   7.950
 5763POPC   C4A33246  12.860  25.292   7.650
 5763POPC   C1B33247  12.903  25.056   8.550
 5763POPC   C2B33248  12.929  25.008   8.250
 5763POPC   C3B33249  12.917  25.038   7.950
 5763POPC   C4B33250  12.879  24.974   7.650
 5764POPC   NC333251  26.029  22.182   9.450
 5764POPC   PO433252  26.007  22.189   9.150
 5764POPC   GL133253  26.060  22.200   8.850
 5764POPC   GL233254  25.989  22.050   8.850
 5764POPC   C1A33255  26.065  22.136   8.550
 5764POPC   D2A33256  26.039  22.154   8.250
 5764POPC   C3A33257  26.048  22.212   7.950
 5764POPC   C4A33258  25.994  22.151   7.650
 5764POPC   C1B33259  25.899  21.963   8.550
 5764POPC   C2B33260  25.911  21.968   8.250
 5764POPC   C3B33261  25.879  21.923   7.950
 5764POPC   C4B33262  25.849  21.948   7.650
 5765POPC   NC333263  21.396   9.760   9.450
 5765POPC   PO433264  21.360   9.699   9.150
 5765POPC   GL133265  21.339   9.785   8.850
 5765POPC   GL233266  21.254   9.845   8.850
 5765POPC   C1A33267  21.365   9.725   8.550
 5765POPC   D2A33268  21.422   9.751   8.250
 5765POPC   C3A33269  21.379   9.787   7.950
 5765POPC   C4A33270  21.341   9.755   7.650
 5765POPC   C1B33271  21.188   9.894   8.550
 5765POPC   C2B33272  21.152   9.905   8.250
 5765POPC   C3B33273  21.199   9.899   7.950
 5765POPC   C4B33274  21.170   9.897   7.650
 5766POPC   NC333275   4.308   1.231   9.450
 5766POPC   PO433276   4.327   1.224   9.150
 5766POPC   GL133277   4.328   1.228   8.850
 5766POPC   GL233278   4.239   1.258   8.850
 5766POPC   C1A33279   4.302   1.183   8.550
 5766POPC   D2A33280   4.340   1.207   8.250
 5766POPC   C3A33281   4.298   1.235   7.950
 5766POPC   C4A33282   4.325   1.201   7.650
 5766POPC   C1B33283   4.048   1.191   8.550
 5766POPC   C2B33284   4.043   1.211   8.250
 5766POPC   C3B33285   4.043   1.270   7.950
 5766POPC   C4B33286   4.105   1.230   7.650
 5767POPC   NC333287  39.204  20.590   9.450
 5767POPC   PO433288  39.260  20.605   9.150
 5767POPC   GL133289  39.234  20.628   8.850
 5767POPC   GL233290  39.242  20.693   8.850
 5767POPC   C1A33291  39.208  20.594   8.550
 5767POPC   D2A33292  39.280  20.576   8.250
 5767POPC   C3A33293  39.265  20.634   7.950
 5767POPC   C4A33294  39.199  20.622   7.650
 5767POPC   C1B33295  39.166  20.843   8.550
 5767POPC   C2B33296  39.209  20.900   8.250
 5767POPC   C3B33297  39.120  20.826   7.950
 5767POPC   C4B33298  39.132  20.880   7.650
 5768POPC   NC333299  39.998  26.076   9.450
 5768POPC   PO433300  39.972  26.090   9.150
 5768POPC   GL133301  40.001  26.023   8.850
 5768POPC   GL233302  40.064  25.949   8.850
 5768POPC   C1A33303  40.040  26.012   8.550
 5768POPC   D2A33304  39.980  26.060   8.250
 5768POPC   C3A33305  39.987  25.992   7.950
 5768POPC   C4A33306  40.049  26.021   7.650
 5768POPC   C1B33307  40.120  25.814   8.550
 5768POPC   C2B33308  40.103  25.822   8.250
 5768POPC   C3B33309  40.140  25.857   7.950
 5768POPC   C4B33310  40.097  25.826   7.650
 5769POPC   NC333311  15.999  26.062   9.450
 5769POPC   PO433312  15.928  26.062   9.150
 5769POPC   GL133313  15.938  26.070   8.850
 5769POPC   GL233314  16.005  26.126   8.850
 5769POPC   C1A33315  15.921  26.010   8.550
 5769POPC   D2A33316  15.938  26.008   8.250
 5769POPC   C3A33317  15.965  26.033   7.950
 5769POPC   C4A33318  15.926  26.027   7.650
 5769POPC   C1B33319  16.153  26.158   8.550
 5769POPC   C2B33320  16.137  26.197   8.250
 5769POPC   C3B33321  16.181  26.173   7.950
 5769POPC   C4B33322  16.126  26.172   7.650
 5770POPC   NC333323  27.600  26.036   9.450
 5770POPC   PO433324  27.569  26.082   9.150
 5770POPC   GL133325  27.573  26.067   8.850
 5770POPC   GL233326  27.701  26.161   8.850
 5770POPC   C1A33327  27.589  26.070   8.550
 5770POPC   D2A33328  27.560  26.001   8.250
 5770POPC   C3A33329  27.622  26.052   7.950
 5770POPC   C4A33330  27.585  26.062   7.650
 5770POPC   C1B33331  27.811  26.227   8.550
 5770POPC   C2B33332  27.754  26.244   8.250
 5770POPC   C3B33333  27.792  26.174   7.950
 5770POPC   C4B33334  27.812  26.247   7.650
 5771POPC   NC333335  22.925  39.197   9.450
 5771POPC   PO433336  22.896  39.202   9.150
 5771POPC   GL133337  22.933  39.279   8.850
 5771POPC   GL233338  22.886  39.162   8.850
 5771POPC   C1A33339  22.889  39.202   8.550
 5771POPC   D2A33340  22.942  39.271   8.250
 5771POPC   C3A33341  22.897  39.279   7.950
 5771POPC   C4A33342  22.902  39.253   7.650
 5771POPC   C1B33343  22.813  39.003   8.550
 5771POPC   C2B33344  22.779  39.012   8.250
 5771POPC   C3B33345  22.832  38.958   7.950
 5771POPC   C4B33346  22.791  39.053   7.650
 5772POPC   NC333347  21.368  38.478   9.450
 5772POPC   PO433348  21.375  38.487   9.150
 5772POPC   GL133349  21.415  38.420   8.850
 5772POPC   GL233350  21.349  38.379   8.850
 5772POPC   C1A33351  21.394  38.455   8.550
 5772POPC   D2A33352  21.400  38.465   8.250
 5772POPC   C3A33353  21.406  38.433   7.950
 5772POPC   C4A33354  21.345  38.458   7.650
 5772POPC   C1B33355  21.293  38.231   8.550
 5772POPC   C2B33356  21.288  38.288   8.250
 5772POPC   C3B33357  21.254  38.288   7.950
 5772POPC   C4B33358  21.288  38.277   7.650
 5773POPC   NC333359  26.012  24.480   9.450
 5773POPC   PO433360  26.000  24.533   9.150
 5773POPC   GL133361  26.029  24.478   8.850
 5773POPC   GL233362  25.964  24.394   8.850
 5773POPC   C1A33363  26.057  24.490   8.550
 5773POPC   D2A33364  26.002  24.480   8.250
 5773POPC   C3A33365  26.074  24.449   7.950
 5773POPC   C4A33366  26.015  24.504   7.650
 5773POPC   C1B33367  25.850  24.326   8.550
 5773POPC   C2B33368  25.889  24.295   8.250
 5773POPC   C3B33369  25.912  24.273   7.950
 5773POPC   C4B33370  25.859  24.304   7.650
 5774POPC   NC333371  42.306   6.677   9.450
 5774POPC   PO433372  42.372   6.604   9.150
 5774POPC   GL133373  42.362   6.692   8.850
 5774POPC   GL233374  42.165   6.633   8.850
 5774POPC   C1A33375  42.370   6.601   8.550
 5774POPC   D2A33376  42.328   6.597   8.250
 5774POPC   C3A33377  42.375   6.597   7.950
 5774POPC   C4A33378  42.307   6.620   7.650
 5774POPC   C1B33379  42.044   6.664   8.550
 5774POPC   C2B33380  42.116   6.585   8.250
 5774POPC   C3B33381  42.043   6.595   7.950
 5774POPC   C4B33382  42.051   6.592   7.650
 5775POPC   NC333383  15.197  17.548   9.450
 5775POPC   PO433384  15.147  17.513   9.150
 5775POPC   GL133385  15.138  17.518   8.850
 5775POPC   GL233386  15.157  17.353   8.850
 5775POPC   C1A33387  15.157  17.473   8.550
 5775POPC   D2A33388  15.185  17.543   8.250
 5775POPC   C3A33389  15.192  17.490   7.950
 5775POPC   C4A33390  15.129  17.518   7.650
 5775POPC   C1B33391  15.045  17.245   8.550
 5775POPC   C2B33392  15.091  17.320   8.250
 5775POPC   C3B33393  15.075  17.310   7.950
 5775POPC   C4B33394  15.022  17.309   7.650
 5776POPC   NC333395  41.543  11.277   9.450
 5776POPC   PO433396  41.592  11.323   9.150
 5776POPC   GL133397  41.607  11.262   8.850
 5776POPC   GL233398  41.552  11.378   8.850
 5776POPC   C1A33399  41.522  11.277   8.550
 5776POPC   D2A33400  41.542  11.337   8.250
 5776POPC   C3A33401  41.588  11.333   7.950
 5776POPC   C4A33402  41.544  11.255   7.650
 5776POPC   C1B33403  41.562  11.518   8.550
 5776POPC   C2B33404  41.594  11.527   8.250
 5776POPC   C3B33405  41.633  11.583   7.950
 5776POPC   C4B33406  41.616  11.548   7.650
 5777POPC   NC333407  29.912   5.119   9.450
 5777POPC   PO433408  29.906   5.078   9.150
 5777POPC   GL133409  29.953   5.106   8.850
 5777POPC   GL233410  30.003   5.203   8.850
 5777POPC   C1A33411  29.948   5.067   8.550
 5777POPC   D2A33412  29.875   5.048   8.250
 5777POPC   C3A33413  29.875   5.102   7.950
 5777POPC   C4A33414  29.897   5.101   7.650
 5777POPC   C1B33415  30.170   5.224   8.550
 5777POPC   C2B33416  30.083   5.211   8.250
 5777POPC   C3B33417  30.145   5.271   7.950
 5777POPC   C4B33418  30.112   5.284   7.650
 5778POPC   NC333419  33.032  34.573   9.450
 5778POPC   PO433420  33.070  34.542   9.150
 5778POPC   GL133421  33.036  34.561   8.850
 5778POPC   GL233422  33.098  34.549   8.850
 5778POPC   C1A33423  32.980  34.588   8.550
 5778POPC   D2A33424  32.983  34.607   8.250
 5778POPC   C3A33425  33.050  34.610   7.950
 5778POPC   C4A33426  33.048  34.579   7.650
 5778POPC   C1B33427  33.201  34.451   8.550
 5778POPC   C2B33428  33.252  34.421   8.250
 5778POPC   C3B33429  33.203  34.496   7.950
 5778POPC   C4B33430  33.225  34.449   7.650
 5779POPC   NC333431  37.659  39.245   9.450
 5779POPC   PO433432  37.636  39.220   9.150
 5779POPC   GL133433  37.706  39.206   8.850
 5779POPC   GL233434  37.528  39.221   8.850
 5779POPC   C1A33435  37.680  39.241   8.550
 5779POPC   D2A33436  37.662  39.263   8.250
 5779POPC   C3A33437  37.709  39.268   7.950
 5779POPC   C4A33438  37.713  39.258   7.650
 5779POPC   C1B33439  37.480  39.232   8.550
 5779POPC   C2B33440  37.467  39.245   8.250
 5779POPC   C3B33441  37.455  39.255   7.950
 5779POPC   C4B33442  37.411  39.225   7.650
 5780POPC   NC333443  36.931  34.623   9.450
 5780POPC   PO433444  36.892  34.547   9.150
 5780POPC   GL133445  36.913  34.615   8.850
 5780POPC   GL233446  36.887  34.657   8.850
 5780POPC   C1A33447  36.934  34.581   8.550
 5780POPC   D2A33448  36.912  34.572   8.250
 5780POPC   C3A33449  36.948  34.550   7.950
 5780POPC   C4A33450  36.945  34.572   7.650
 5780POPC   C1B33451  36.908  34.778   8.550
 5780POPC   C2B33452  36.871  34.859   8.250
 5780POPC   C3B33453  36.843  34.780   7.950
 5780POPC   C4B33454  36.872  34.816   7.650
 5781POPC   NC333455  19.102  12.089   9.450
 5781POPC   PO433456  19.084  12.049   9.150
 5781POPC   GL133457  19.049  12.122   8.850
 5781POPC   GL233458  19.101  11.948   8.850
 5781POPC   C1A33459  19.035  12.067   8.550
 5781POPC   D2A33460  19.047  12.030   8.250
 5781POPC   C3A33461  19.014  12.125   7.950
 5781POPC   C4A33462  19.083  12.119   7.650
 5781POPC   C1B33463  19.064  11.850   8.550
 5781POPC   C2B33464  19.091  11.801   8.250
 5781POPC   C3B33465  19.036  11.813   7.950
 5781POPC   C4B33466  19.061  11.848   7.650
 5782POPC   NC333467   7.398   5.059   9.450
 5782POPC   PO433468   7.400   5.060   9.150
 5782POPC   GL133469   7.426   5.059   8.850
 5782POPC   GL233470   7.313   5.188   8.850
 5782POPC   C1A33471   7.444   5.097   8.550
 5782POPC   D2A33472   7.453   5.113   8.250
 5782POPC   C3A33473   7.378   5.107   7.950
 5782POPC   C4A33474   7.463   5.110   7.650
 5782POPC   C1B33475   7.147   5.208   8.550
 5782POPC   C2B33476   7.230   5.240   8.250
 5782POPC   C3B33477   7.223   5.172   7.950
 5782POPC   C4B33478   7.150   5.164   7.650
 5783POPC   NC333479  18.275   1.225   9.450
 5783POPC   PO433480  18.260   1.187   9.150
 5783POPC   GL133481  18.247   1.174   8.850
 5783POPC   GL233482  18.371   1.301   8.850
 5783POPC   C1A33483  18.246   1.253   8.550
 5783POPC   D2A33484  18.306   1.167   8.250
 5783POPC   C3A33485  18.297   1.211   7.950
 5783POPC   C4A33486  18.286   1.252   7.650
 5783POPC   C1B33487  18.549   1.294   8.550
 5783POPC   C2B33488  18.548   1.322   8.250
 5783POPC   C3B33489  18.551   1.268   7.950
 5783POPC   C4B33490  18.490   1.351   7.650
 5784POPC   NC333491  10.489  33.830   9.450
 5784POPC   PO433492  10.548  33.841   9.150
 5784POPC   GL133493  10.552  33.834   8.850
 5784POPC   GL233494  10.529  33.640   8.850
 5784POPC   C1A33495  10.526  33.782   8.550
 5784POPC   D2A33496  10.534  33.827   8.250
 5784POPC   C3A33497  10.519  33.831   7.950
 5784POPC   C4A33498  10.478  33.848   7.650
 5784POPC   C1B33499  10.397  33.588   8.550
 5784POPC   C2B33500  10.423  33.534   8.250
 5784POPC   C3B33501  10.442  33.543   7.950
 5784POPC   C4B33502  10.437  33.568   7.650
 5785POPC   NC333503  29.967  26.079   9.450
 5785POPC   PO433504  29.886  25.997   9.150
 5785POPC   GL133505  29.970  26.046   8.850
 5785POPC   GL233506  29.819  25.941   8.850
 5785POPC   C1A33507  29.875  26.025   8.550
 5785POPC   D2A33508  29.899  26.073   8.250
 5785POPC   C3A33509  29.883  26.064   7.950
 5785POPC   C4A33510  29.899  26.043   7.650
 5785POPC   C1B33511  29.782  25.795   8.550
 5785POPC   C2B33512  29.765  25.863   8.250
 5785POPC   C3B33513  29.749  25.822   7.950
 5785POPC   C4B33514  29.784  25.794   7.650
 5786POPC   NC333515   5.061  40.041   9.450
 5786POPC   PO433516   5.128  40.008   9.150
 5786POPC   GL133517   5.077  39.981   8.850
 5786POPC   GL233518   5.159  39.894   8.850
 5786POPC   C1A33519   5.080  39.977   8.550
 5786POPC   D2A33520   5.121  39.987   8.250
 5786POPC   C3A33521   5.069  39.972   7.950
 5786POPC   C4A33522   5.065  40.013   7.650
 5786POPC   C1B33523   5.338  39.857   8.550
 5786POPC   C2B33524   5.336  39.906   8.250
 5786POPC   C3B33525   5.346  39.889   7.950
 5786POPC   C4B33526   5.344  39.901   7.650
 5787POPC   NC333527  27.606  39.999   9.450
 5787POPC   PO433528  27.567  39.974   9.150
 5787POPC   GL133529  27.606  40.022   8.850
 5787POPC   GL233530  27.656  40.097   8.850
 5787POPC   C1A33531  27.575  40.007   8.550
 5787POPC   D2A33532  27.594  39.963   8.250
 5787POPC   C3A33533  27.593  39.995   7.950
 5787POPC   C4A33534  27.606  40.006   7.650
 5787POPC   C1B33535  27.778  40.104   8.550
 5787POPC   C2B33536  27.805  40.195   8.250
 5787POPC   C3B33537  27.806  40.169   7.950
 5787POPC   C4B33538  27.761  40.154   7.650
 5788POPC   NC333539  22.141  27.618   9.450
 5788POPC   PO433540  22.128  27.546   9.150
 5788POPC   GL133541  22.211  27.625   8.850
 5788POPC   GL233542  22.235  27.606   8.850
 5788POPC   C1A33543  22.198  27.629   8.550
 5788POPC   D2A33544  22.115  27.548   8.250
 5788POPC   C3A33545  22.127  27.620   7.950
 5788POPC   C4A33546  22.158  27.562   7.650
 5788POPC   C1B33547  22.399  27.558   8.550
 5788POPC   C2B33548  22.387  27.555   8.250
 5788POPC   C3B33549  22.416  27.494   7.950
 5788POPC   C4B33550  22.448  27.537   7.650
 5789POPC   NC333551  13.583   9.729   9.450
 5789POPC   PO433552  13.675   9.701   9.150
 5789POPC   GL133553  13.653   9.752   8.850
 5789POPC   GL233554  13.571   9.872   8.850
 5789POPC   C1A33555  13.668   9.731   8.550
 5789POPC   D2A33556  13.668   9.746   8.250
 5789POPC   C3A33557  13.620   9.726   7.950
 5789POPC   C4A33558  13.632   9.792   7.650
 5789POPC   C1B33559  13.466   9.858   8.550
 5789POPC   C2B33560  13.392   9.882   8.250
 5789POPC   C3B33561  13.443   9.906   7.950
 5789POPC   C4B33562  13.409   9.860   7.650
 5790POPC   NC333563  38.439  12.804   9.450
 5790POPC   PO433564  38.445  12.823   9.150
 5790POPC   GL133565  38.505  12.882   8.850
 5790POPC   GL233566  38.304  12.877   8.850
 5790POPC   C1A33567  38.419  12.860   8.550
 5790POPC   D2A33568  38.505  12.901   8.250
 5790POPC   C3A33569  38.488  12.883   7.950
 5790POPC   C4A33570  38.433  12.803   7.650
 5790POPC   C1B33571  38.254  12.849   8.550
 5790POPC   C2B33572  38.256  12.900   8.250
 5790POPC   C3B33573  38.259  12.883   7.950
 5790POPC   C4B33574  38.238  12.887   7.650
 5791POPC   NC333575  42.298   0.467   9.450
 5791POPC   PO433576  42.313   0.473   9.150
 5791POPC   GL133577  42.362   0.409   8.850
 5791POPC   GL233578  42.499   0.371   8.850
 5791POPC   C1A33579  42.321   0.405   8.550
 5791POPC   D2A33580  42.368   0.440   8.250
 5791POPC   C3A33581  42.384   0.436   7.950
 5791POPC   C4A33582  42.336   0.462   7.650
 5791POPC   C1B33583  42.535   0.404   8.550
 5791POPC   C2B33584  42.533   0.324   8.250
 5791POPC   C3B33585  42.617   0.339   7.950
 5791POPC   C4B33586  42.565   0.338   7.650
 5792POPC   NC333587  15.949  36.091   9.450
 5792POPC   PO433588  15.934  36.082   9.150
 5792POPC   GL133589  15.927  36.080   8.850
 5792POPC   GL233590  16.064  36.135   8.850
 5792POPC   C1A33591  15.927  36.141   8.550
 5792POPC   D2A33592  15.954  36.115   8.250
 5792POPC   C3A33593  15.999  36.112   7.950
 5792POPC   C4A33594  15.985  36.174   7.650
 5792POPC   C1B33595  16.179  36.271   8.550
 5792POPC   C2B33596  16.150  36.234   8.250
 5792POPC   C3B33597  16.226  36.286   7.950
 5792POPC   C4B33598  16.159  36.282   7.650
 5793POPC   NC333599  19.092  23.666   9.450
 5793POPC   PO433600  19.069  23.702   9.150
 5793POPC   GL133601  19.030  23.737   8.850
 5793POPC   GL233602  19.098  23.648   8.850
 5793POPC   C1A33603  19.016  23.695   8.550
 5793POPC   D2A33604  19.073  23.681   8.250
 5793POPC   C3A33605  19.077  23.690   7.950
 5793POPC   C4A33606  19.096  23.670   7.650
 5793POPC   C1B33607  19.253  23.562   8.550
 5793POPC   C2B33608  19.222  23.551   8.250
 5793POPC   C3B33609  19.250  23.585   7.950
 5793POPC   C4B33610  19.250  23.559   7.650
 5794POPC   NC333611   9.733  16.684   9.450
 5794POPC   PO433612   9.754  16.748   9.150
 5794POPC   GL133613   9.792  16.714   8.850
 5794POPC   GL233614   9.875  16.728   8.850
 5794POPC   C1A33615   9.780  16.697   8.550
 5794POPC   D2A33616   9.729  16.749   8.250
 5794POPC   C3A33617   9.709  16.697   7.950
 5794POPC   C4A33618   9.763  16.764   7.650
 5794POPC   C1B33619  10.000  16.688   8.550
 5794POPC   C2B33620   9.948  16.655   8.250
 5794POPC   C3B33621   9.988  16.689   7.950
 5794POPC   C4B33622  10.016  16.655   7.650
 5795POPC   NC333623  26.844  43.152   9.450
 5795POPC   PO433624  26.785  43.108   9.150
 5795POPC   GL133625  26.828  43.066   8.850
 5795POPC   GL233626  26.749  43.242   8.850
 5795POPC   C1A33627  26.792  43.142   8.550
 5795POPC   D2A33628  26.864  43.120   8.250
 5795POPC   C3A33629  26.788  43.153   7.950
 5795POPC   C4A33630  26.847  43.136   7.650
 5795POPC   C1B33631  26.644  43.313   8.550
 5795POPC   C2B33632  26.602  43.277   8.250
 5795POPC   C3B33633  26.603  43.278   7.950
 5795POPC   C4B33634  26.660  43.244   7.650
 5796POPC   NC333635  11.280   2.783   9.450
 5796POPC   PO433636  11.282   2.719   9.150
 5796POPC   GL133637  11.285   2.794   8.850
 5796POPC   GL233638  11.199   2.834   8.850
 5796POPC   C1A33639  11.268   2.725   8.550
 5796POPC   D2A33640  11.253   2.733   8.250
 5796POPC   C3A33641  11.281   2.735   7.950
 5796POPC   C4A33642  11.332   2.781   7.650
 5796POPC   C1B33643  11.141   3.014   8.550
 5796POPC   C2B33644  11.177   3.028   8.250
 5796POPC   C3B33645  11.204   3.027   7.950
 5796POPC   C4B33646  11.214   3.001   7.650
 5797POPC   NC333647  30.669  35.308   9.450
 5797POPC   PO433648  30.697  35.375   9.150
 5797POPC   GL133649  30.739  35.351   8.850
 5797POPC   GL233650  30.808  35.493   8.850
 5797POPC   C1A33651  30.702  35.346   8.550
 5797POPC   D2A33652  30.670  35.401   8.250
 5797POPC   C3A33653  30.722  35.332   7.950
 5797POPC   C4A33654  30.658  35.319   7.650
 5797POPC   C1B33655  30.827  35.589   8.550
 5797POPC   C2B33656  30.852  35.561   8.250
 5797POPC   C3B33657  30.840  35.593   7.950
 5797POPC   C4B33658  30.815  35.548   7.650
 5798POPC   NC333659  15.136  40.831   9.450
 5798POPC   PO433660  15.143  40.801   9.150
 5798POPC   GL133661  15.208  40.802   8.850
 5798POPC   GL233662  15.170  40.899   8.850
 5798POPC   C1A33663  15.182  40.765   8.550
 5798POPC   D2A33664  15.135  40.767   8.250
 5798POPC   C3A33665  15.171  40.819   7.950
 5798POPC   C4A33666  15.171  40.831   7.650
 5798POPC   C1B33667  15.088  41.036   8.550
 5798POPC   C2B33668  15.111  41.018   8.250
 5798POPC   C3B33669  15.119  41.023   7.950
 5798POPC   C4B33670  15.130  41.013   7.650
 5799POPC   NC333671  34.537   1.240   9.450
 5799POPC   PO433672  34.534   1.181   9.150
 5799POPC   GL133673  34.587   1.263   8.850
 5799POPC   GL233674  34.697   1.258   8.850
 5799POPC   C1A33675  34.602   1.166   8.550
 5799POPC   D2A33676  34.537   1.213   8.250
 5799POPC   C3A33677  34.533   1.189   7.950
 5799POPC   C4A33678  34.573   1.240   7.650
 5799POPC   C1B33679  34.778   1.376   8.550
 5799POPC   C2B33680  34.775   1.429   8.250
 5799POPC   C3B33681  34.721   1.379   7.950
 5799POPC   C4B33682  34.707   1.348   7.650
 5800POPC   NC333683  33.064  19.879   9.450
 5800POPC   PO433684  33.072  19.788   9.150
 5800POPC   GL133685  33.019  19.846   8.850
 5800POPC   GL233686  32.930  19.967   8.850
 5800POPC   C1A33687  33.022  19.798   8.550
 5800POPC   D2A33688  33.035  19.822   8.250
 5800POPC   C3A33689  33.057  19.822   7.950
 5800POPC   C4A33690  33.014  19.879   7.650
 5800POPC   C1B33691  32.932  20.080   8.550
 5800POPC   C2B33692  32.975  20.060   8.250
 5800POPC   C3B33693  32.953  20.035   7.950
 5800POPC   C4B33694  32.936  20.021   7.650
 5801POPC   NC333695  33.778  13.676   9.450
 5801POPC   PO433696  33.766  13.608   9.150
 5801POPC   GL133697  33.805  13.658   8.850
 5801POPC   GL233698  33.721  13.717   8.850
 5801POPC   C1A33699  33.829  13.622   8.550
 5801POPC   D2A33700  33.790  13.637   8.250
 5801POPC   C3A33701  33.847  13.677   7.950
 5801POPC   C4A33702  33.825  13.594   7.650
 5801POPC   C1B33703  33.586  13.765   8.550
 5801POPC   C2B33704  33.577  13.767   8.250
 5801POPC   C3B33705  33.595  13.727   7.950
 5801POPC   C4B33706  33.566  13.705   7.650
 5802POPC   NC333707  39.182  36.859   9.450
 5802POPC   PO433708  39.205  36.900   9.150
 5802POPC   GL133709  39.221  36.865   8.850
 5802POPC   GL233710  39.183  36.780   8.850
 5802POPC   C1A33711  39.214  36.928   8.550
 5802POPC   D2A33712  39.203  36.901   8.250
 5802POPC   C3A33713  39.220  36.906   7.950
 5802POPC   C4A33714  39.198  36.928   7.650
 5802POPC   C1B33715  39.174  36.667   8.550
 5802POPC   C2B33716  39.112  36.688   8.250
 5802POPC   C3B33717  39.184  36.712   7.950
 5802POPC   C4B33718  39.117  36.644   7.650
 5803POPC   NC333719   8.974  32.997   9.450
 5803POPC   PO433720   8.949  33.014   9.150
 5803POPC   GL133721   8.923  33.051   8.850
 5803POPC   GL233722   9.077  33.013   8.850
 5803POPC   C1A33723   8.950  33.024   8.550
 5803POPC   D2A33724   8.923  33.038   8.250
 5803POPC   C3A33725   8.963  33.004   7.950
 5803POPC   C4A33726   8.962  33.064   7.650
 5803POPC   C1B33727   9.208  32.922   8.550
 5803POPC   C2B33728   9.249  32.954   8.250
 5803POPC   C3B33729   9.207  32.895   7.950
 5803POPC   C4B33730   9.251  32.955   7.650
 5804POPC   NC333731   7.409  25.260   9.450
 5804POPC   PO433732   7.411  25.217   9.150
 5804POPC   GL133733   7.447  25.271   8.850
 5804POPC   GL233734   7.428  25.357   8.850
 5804POPC   C1A33735   7.457  25.247   8.550
 5804POPC   D2A33736   7.428  25.240   8.250
 5804POPC   C3A33737   7.389  25.295   7.950
 5804POPC   C4A33738   7.394  25.232   7.650
 5804POPC   C1B33739   7.506  25.546   8.550
 5804POPC   C2B33740   7.452  25.462   8.250
 5804POPC   C3B33741   7.482  25.466   7.950
 5804POPC   C4B33742   7.458  25.492   7.650
 5805POPC   NC333743  27.582  40.826   9.450
 5805POPC   PO433744  27.629  40.808   9.150
 5805POPC   GL133745  27.567  40.830   8.850
 5805POPC   GL233746  27.453  40.675   8.850
 5805POPC   C1A33747  27.574  40.792   8.550
 5805POPC   D2A33748  27.563  40.734   8.250
 5805POPC   C3A33749  27.584  40.815   7.950
 5805POPC   C4A33750  27.618  40.744   7.650
 5805POPC   C1B33751  27.440  40.607   8.550
 5805POPC   C2B33752  27.407  40.595   8.250
 5805POPC   C3B33753  27.385  40.649   7.950
 5805POPC   C4B33754  27.426  40.673   7.650
 5806POPC   NC333755  38.419   3.518   9.450
 5806POPC   PO433756  38.464   3.500   9.150
 5806POPC   GL133757  38.426   3.494   8.850
 5806POPC   GL233758  38.457   3.624   8.850
 5806POPC   C1A33759  38.408   3.578   8.550
 5806POPC   D2A33760  38.491   3.576   8.250
 5806POPC   C3A33761  38.466   3.504   7.950
 5806POPC   C4A33762  38.463   3.495   7.650
 5806POPC   C1B33763  38.451   3.747   8.550
 5806POPC   C2B33764  38.489   3.775   8.250
 5806POPC   C3B33765  38.455   3.790   7.950
 5806POPC   C4B33766  38.427   3.748   7.650
 5807POPC   NC333767  34.580  39.197   9.450
 5807POPC   PO433768  34.596  39.239   9.150
 5807POPC   GL133769  34.597  39.241   8.850
 5807POPC   GL233770  34.534  39.315   8.850
 5807POPC   C1A33771  34.580  39.212   8.550
 5807POPC   D2A33772  34.622  39.277   8.250
 5807POPC   C3A33773  34.562  39.251   7.950
 5807POPC   C4A33774  34.608  39.222   7.650
 5807POPC   C1B33775  34.503  39.519   8.550
 5807POPC   C2B33776  34.565  39.497   8.250
 5807POPC   C3B33777  34.567  39.434   7.950
 5807POPC   C4B33778  34.506  39.460   7.650
 5808POPC   NC333779   6.645  38.452   9.450
 5808POPC   PO433780   6.605  38.498   9.150
 5808POPC   GL133781   6.685  38.498   8.850
 5808POPC   GL233782   6.676  38.319   8.850
 5808POPC   C1A33783   6.685  38.459   8.550
 5808POPC   D2A33784   6.676  38.496   8.250
 5808POPC   C3A33785   6.603  38.456   7.950
 5808POPC   C4A33786   6.645  38.436   7.650
 5808POPC   C1B33787   6.668  38.220   8.550
 5808POPC   C2B33788   6.667  38.182   8.250
 5808POPC   C3B33789   6.673  38.231   7.950
 5808POPC   C4B33790   6.647  38.184   7.650
 5809POPC   NC333791  19.052   2.767   9.450
 5809POPC   PO433792  19.066   2.765   9.150
 5809POPC   GL133793  19.049   2.803   8.850
 5809POPC   GL233794  19.169   2.679   8.850
 5809POPC   C1A33795  19.060   2.724   8.550
 5809POPC   D2A33796  19.022   2.748   8.250
 5809POPC   C3A33797  19.017   2.733   7.950
 5809POPC   C4A33798  19.056   2.781   7.650
 5809POPC   C1B33799  19.241   2.606   8.550
 5809POPC   C2B33800  19.246   2.548   8.250
 5809POPC   C3B33801  19.241   2.593   7.950
 5809POPC   C4B33802  19.225   2.612   7.650
 5810POPC   NC333803  15.163  30.678   9.450
 5810POPC   PO433804  15.167  30.687   9.150
 5810POPC   GL133805  15.154  30.677   8.850
 5810POPC   GL233806  15.074  30.813   8.850
 5810POPC   C1A33807  15.157  30.651   8.550
 5810POPC   D2A33808  15.199  30.730   8.250
 5810POPC   C3A33809  15.129  30.684   7.950
 5810POPC   C4A33810  15.199  30.744   7.650
 5810POPC   C1B33811  15.105  30.950   8.550
 5810POPC   C2B33812  15.069  30.933   8.250
 5810POPC   C3B33813  15.074  30.923   7.950
 5810POPC   C4B33814  15.089  30.926   7.650
 5811POPC   NC333815  33.048   1.952   9.450
 5811POPC   PO433816  33.044   2.011   9.150
 5811POPC   GL133817  33.038   1.953   8.850
 5811POPC   GL233818  33.135   2.028   8.850
 5811POPC   C1A33819  32.976   1.963   8.550
 5811POPC   D2A33820  33.058   1.970   8.250
 5811POPC   C3A33821  33.007   1.956   7.950
 5811POPC   C4A33822  32.992   2.028   7.650
 5811POPC   C1B33823  33.241   2.078   8.550
 5811POPC   C2B33824  33.243   2.082   8.250
 5811POPC   C3B33825  33.233   2.160   7.950
 5811POPC   C4B33826  33.204   2.154   7.650
 5812POPC   NC333827   5.092  32.265   9.450
 5812POPC   PO433828   5.125  32.238   9.150
 5812POPC   GL133829   5.050  32.254   8.850
 5812POPC   GL233830   5.178  32.121   8.850
 5812POPC   C1A33831   5.116  32.257   8.550
 5812POPC   D2A33832   5.055  32.210   8.250
 5812POPC   C3A33833   5.093  32.286   7.950
 5812POPC   C4A33834   5.081  32.285   7.650
 5812POPC   C1B33835   5.238  32.054   8.550
 5812POPC   C2B33836   5.214  32.067   8.250
 5812POPC   C3B33837   5.162  31.976   7.950
 5812POPC   C4B33838   5.188  32.062   7.650
 5813POPC   NC333839  29.110  12.854   9.450
 5813POPC   PO433840  29.189  12.858   9.150
 5813POPC   GL133841  29.183  12.811   8.850
 5813POPC   GL233842  29.088  12.745   8.850
 5813POPC   C1A33843  29.172  12.813   8.550
 5813POPC   D2A33844  29.104  12.872   8.250
 5813POPC   C3A33845  29.130  12.896   7.950
 5813POPC   C4A33846  29.178  12.849   7.650
 5813POPC   C1B33847  28.981  12.620   8.550
 5813POPC   C2B33848  29.007  12.636   8.250
 5813POPC   C3B33849  29.031  12.665   7.950
 5813POPC   C4B33850  28.979  12.658   7.650
 5814POPC   NC333851  37.729  36.136   9.450
 5814POPC   PO433852  37.641  36.132   9.150
 5814POPC   GL133853  37.635  36.084   8.850
 5814POPC   GL233854  37.686  35.963   8.850
 5814POPC   C1A33855  37.699  36.083   8.550
 5814POPC   D2A33856  37.660  36.126   8.250
 5814POPC   C3A33857  37.631  36.080   7.950
 5814POPC   C4A33858  37.641  36.104   7.650
 5814POPC   C1B33859  37.690  35.838   8.550
 5814POPC   C2B33860  37.748  35.867   8.250
 5814POPC   C3B33861  37.744  35.927   7.950
 5814POPC   C4B33862  37.710  35.901   7.650
 5815POPC   NC333863  22.129  41.514   9.450
 5815POPC   PO433864  22.117  41.536   9.150
 5815POPC   GL133865  22.166  41.575   8.850
 5815POPC   GL233866  22.019  41.517   8.850
 5815POPC   C1A33867  22.143  41.607   8.550
 5815POPC   D2A33868  22.114  41.568   8.250
 5815POPC   C3A33869  22.195  41.577   7.950
 5815POPC   C4A33870  22.149  41.561   7.650
 5815POPC   C1B33871  21.953  41.557   8.550
 5815POPC   C2B33872  21.929  41.544   8.250
 5815POPC   C3B33873  21.925  41.557   7.950
 5815POPC   C4B33874  21.951  41.542   7.650
 5816POPC   NC333875  22.205  34.591   9.450
 5816POPC   PO433876  22.190  34.573   9.150
 5816POPC   GL133877  22.147  34.557   8.850
 5816POPC   GL233878  22.199  34.718   8.850
 5816POPC   C1A33879  22.131  34.567   8.550
 5816POPC   D2A33880  22.183  34.551   8.250
 5816POPC   C3A33881  22.121  34.555   7.950
 5816POPC   C4A33882  22.140  34.564   7.650
 5816POPC   C1B33883  22.295  34.794   8.550
 5816POPC   C2B33884  22.281  34.778   8.250
 5816POPC   C3B33885  22.348  34.779   7.950
 5816POPC   C4B33886  22.355  34.817   7.650
 5817POPC   NC333887  19.852  17.531   9.450
 5817POPC   PO433888  19.844  17.476   9.150
 5817POPC   GL133889  19.812  17.457   8.850
 5817POPC   GL233890  19.949  17.532   8.850
 5817POPC   C1A33891  19.850  17.485   8.550
 5817POPC   D2A33892  19.820  17.516   8.250
 5817POPC   C3A33893  19.865  17.519   7.950
 5817POPC   C4A33894  19.785  17.529   7.650
 5817POPC   C1B33895  20.101  17.568   8.550
 5817POPC   C2B33896  20.046  17.621   8.250
 5817POPC   C3B33897  20.069  17.600   7.950
 5817POPC   C4B33898  20.088  17.581   7.650
 5818POPC   NC333899  40.039  43.909   9.450
 5818POPC   PO433900  40.018  43.898   9.150
 5818POPC   GL133901  40.003  43.901   8.850
 5818POPC   GL233902  40.035  43.779   8.850
 5818POPC   C1A33903  40.014  43.877   8.550
 5818POPC   D2A33904  40.029  43.860   8.250
 5818POPC   C3A33905  40.027  43.892   7.950
 5818POPC   C4A33906  40.021  43.855   7.650
 5818POPC   C1B33907  40.033  43.665   8.550
 5818POPC   C2B33908  39.991  43.670   8.250
 5818POPC   C3B33909  40.033  43.618   7.950
 5818POPC   C4B33910  40.008  43.645   7.650
 5819POPC   NC333911  26.030  25.263   9.450
 5819POPC   PO433912  26.002  25.280   9.150
 5819POPC   GL133913  26.015  25.303   8.850
 5819POPC   GL233914  26.011  25.380   8.850
 5819POPC   C1A33915  26.091  25.260   8.550
 5819POPC   D2A33916  25.999  25.302   8.250
 5819POPC   C3A33917  26.060  25.299   7.950
 5819POPC   C4A33918  26.031  25.296   7.650
 5819POPC   C1B33919  26.045  25.524   8.550
 5819POPC   C2B33920  26.101  25.524   8.250
 5819POPC   C3B33921  26.074  25.475   7.950
 5819POPC   C4B33922  26.062  25.500   7.650
 5820POPC   NC333923  27.597   8.206   9.450
 5820POPC   PO433924  27.594   8.225   9.150
 5820POPC   GL133925  27.573   8.220   8.850
 5820POPC   GL233926  27.594   8.105   8.850
 5820POPC   C1A33927  27.546   8.234   8.550
 5820POPC   D2A33928  27.558   8.157   8.250
 5820POPC   C3A33929  27.641   8.193   7.950
 5820POPC   C4A33930  27.573   8.218   7.650
 5820POPC   C1B33931  27.576   7.956   8.550
 5820POPC   C2B33932  27.549   7.935   8.250
 5820POPC   C3B33933  27.537   7.909   7.950
 5820POPC   C4B33934  27.511   7.960   7.650
 5821POPC   NC333935  33.815  15.148   9.450
 5821POPC   PO433936  33.806  15.202   9.150
 5821POPC   GL133937  33.842  15.219   8.850
 5821POPC   GL233938  33.649  15.126   8.850
 5821POPC   C1A33939  33.762  15.222   8.550
 5821POPC   D2A33940  33.818  15.174   8.250
 5821POPC   C3A33941  33.776  15.219   7.950
 5821POPC   C4A33942  33.821  15.207   7.650
 5821POPC   C1B33943  33.537  15.161   8.550
 5821POPC   C2B33944  33.532  15.182   8.250
 5821POPC   C3B33945  33.590  15.161   7.950
 5821POPC   C4B33946  33.550  15.126   7.650
 5822POPC   NC333947  22.136  25.285   9.450
 5822POPC   PO433948  22.152  25.311   9.150
 5822POPC   GL133949  22.175  25.299   8.850
 5822POPC   GL233950  22.331  25.312   8.850
 5822POPC   C1A33951  22.167  25.244   8.550
 5822POPC   D2A33952  22.122  25.295   8.250
 5822POPC   C3A33953  22.210  25.256   7.950
 5822POPC   C4A33954  22.135  25.218   7.650
 5822POPC   C1B33955  22.429  25.301   8.550
 5822POPC   C2B33956  22.402  25.357   8.250
 5822POPC   C3B33957  22.395  25.340   7.950
 5822POPC   C4B33958  22.451  25.363   7.650
 5823POPC   NC333959  25.285  41.573   9.450
 5823POPC   PO433960  25.303  41.529   9.150
 5823POPC   GL133961  25.313  41.552   8.850
 5823POPC   GL233962  25.349  41.677   8.850
 5823POPC   C1A33963  25.249  41.524   8.550
 5823POPC   D2A33964  25.308  41.590   8.250
 5823POPC   C3A33965  25.242  41.574   7.950
 5823POPC   C4A33966  25.267  41.549   7.650
 5823POPC   C1B33967  25.424  41.770   8.550
 5823POPC   C2B33968  25.381  41.798   8.250
 5823POPC   C3B33969  25.434  41.750   7.950
 5823POPC   C4B33970  25.360  41.801   7.650
 5824POPC   NC333971  18.296  36.866   9.450
 5824POPC   PO433972  18.280  36.913   9.150
 5824POPC   GL133973  18.256  36.919   8.850
 5824POPC   GL233974  18.196  37.029   8.850
 5824POPC   C1A33975  18.273  36.876   8.550
 5824POPC   D2A33976  18.265  36.883   8.250
 5824POPC   C3A33977  18.274  36.945   7.950
 5824POPC   C4A33978  18.286  36.907   7.650
 5824POPC   C1B33979  18.107  37.089   8.550
 5824POPC   C2B33980  18.115  37.114   8.250
 5824POPC   C3B33981  18.117  37.088   7.950
 5824POPC   C4B33982  18.100  37.144   7.650
 5825POPC   NC333983  12.077  29.111   9.450
 5825POPC   PO433984  12.093  29.173   9.150
 5825POPC   GL133985  12.030  29.116   8.850
 5825POPC   GL233986  11.983  29.129   8.850
 5825POPC   C1A33987  12.111  29.185   8.550
 5825POPC   D2A33988  12.106  29.151   8.250
 5825POPC   C3A33989  12.104  29.125   7.950
 5825POPC   C4A33990  12.126  29.194   7.650
 5825POPC   C1B33991  11.830  29.009   8.550
 5825POPC   C2B33992  11.814  29.030   8.250
 5825POPC   C3B33993  11.813  29.017   7.950
 5825POPC   C4B33994  11.870  29.027   7.650
 5826POPC   NC333995  28.350  42.372   9.450
 5826POPC   PO433996  28.376  42.380   9.150
 5826POPC   GL133997  28.323  42.295   8.850
 5826POPC   GL233998  28.473  42.432   8.850
 5826POPC   C1A33999  28.354  42.384   8.550
 5826POPC   D2A34000  28.399  42.343   8.250
 5826POPC   C3A34001  28.405  42.338   7.950
 5826POPC   C4A34002  28.374  42.336   7.650
 5826POPC   C1B34003  28.532  42.520   8.550
 5826POPC   C2B34004  28.546  42.468   8.250
 5826POPC   C3B34005  28.563  42.471   7.950
 5826POPC   C4B34006  28.580  42.442   7.650
 5827POPC   NC334007  26.059   2.756   9.450
 5827POPC   PO434008  26.005   2.784   9.150
 5827POPC   GL134009  26.058   2.744   8.850
 5827POPC   GL234010  26.149   2.640   8.850
 5827POPC   C1A34011  26.083   2.774   8.550
 5827POPC   D2A34012  26.059   2.800   8.250
 5827POPC   C3A34013  26.042   2.749   7.950
 5827POPC   C4A34014  26.044   2.793   7.650
 5827POPC   C1B34015  26.217   2.547   8.550
 5827POPC   C2B34016  26.193   2.559   8.250
 5827POPC   C3B34017  26.194   2.589   7.950
 5827POPC   C4B34018  26.199   2.583   7.650
 5828POPC   NC334019   2.722  27.589   9.450
 5828POPC   PO434020   2.784  27.571   9.150
 5828POPC   GL134021   2.764  27.544   8.850
 5828POPC   GL234022   2.666  27.657   8.850
 5828POPC   C1A34023   2.744  27.625   8.550
 5828POPC   D2A34024   2.787  27.595   8.250
 5828POPC   C3A34025   2.721  27.557   7.950
 5828POPC   C4A34026   2.727  27.634   7.650
 5828POPC   C1B34027   2.580  27.814   8.550
 5828POPC   C2B34028   2.633  27.838   8.250
 5828POPC   C3B34029   2.608  27.816   7.950
 5828POPC   C4B34030   2.650  27.772   7.650
 5829POPC   NC334031  33.764  28.323   9.450
 5829POPC   PO434032  33.789  28.373   9.150
 5829POPC   GL134033  33.824  28.351   8.850
 5829POPC   GL234034  33.872  28.228   8.850
 5829POPC   C1A34035  33.849  28.324   8.550
 5829POPC   D2A34036  33.807  28.382   8.250
 5829POPC   C3A34037  33.788  28.393   7.950
 5829POPC   C4A34038  33.780  28.339   7.650
 5829POPC   C1B34039  33.953  28.150   8.550
 5829POPC   C2B34040  33.939  28.144   8.250
 5829POPC   C3B34041  33.885  28.154   7.950
 5829POPC   C4B34042  33.961  28.164   7.650
 5830POPC   NC334043   0.457  31.446   9.450
 5830POPC   PO434044   0.447  31.446   9.150
 5830POPC   GL134045   0.467  31.440   8.850
 5830POPC   GL234046   0.534  31.361   8.850
 5830POPC   C1A34047   0.468  31.455   8.550
 5830POPC   D2A34048   0.462  31.478   8.250
 5830POPC   C3A34049   0.391  31.483   7.950
 5830POPC   C4A34050   0.453  31.431   7.650
 5830POPC   C1B34051   0.516  31.294   8.550
 5830POPC   C2B34052   0.559  31.303   8.250
 5830POPC   C3B34053   0.601  31.218   7.950
 5830POPC   C4B34054   0.549  31.220   7.650
 5831POPC   NC334055   2.743  33.049   9.450
 5831POPC   PO434056   2.748  33.064   9.150
 5831POPC   GL134057   2.777  33.067   8.850
 5831POPC   GL234058   2.823  32.889   8.850
 5831POPC   C1A34059   2.776  32.988   8.550
 5831POPC   D2A34060   2.810  32.991   8.250
 5831POPC   C3A34061   2.795  33.017   7.950
 5831POPC   C4A34062   2.763  33.069   7.650
 5831POPC   C1B34063   2.889  32.779   8.550
 5831POPC   C2B34064   2.837  32.775   8.250
 5831POPC   C3B34065   2.843  32.837   7.950
 5831POPC   C4B34066   2.820  32.800   7.650
 5832POPC   NC334067  43.106   2.719   9.450
 5832POPC   PO434068  43.069   2.767   9.150
 5832POPC   GL134069  43.089   2.810   8.850
 5832POPC   GL234070  43.185   2.669   8.850
 5832POPC   C1A34071  43.145   2.727   8.550
 5832POPC   D2A34072  43.141   2.724   8.250
 5832POPC   C3A34073  43.103   2.730   7.950
 5832POPC   C4A34074  43.117   2.796   7.650
 5832POPC   C1B34075  43.238   2.546   8.550
 5832POPC   C2B34076  43.220   2.517   8.250
 5832POPC   C3B34077  43.189   2.536   7.950
 5832POPC   C4B34078  43.206   2.542   7.650
 5833POPC   NC334079  26.087  26.811   9.450
 5833POPC   PO434080  26.018  26.778   9.150
 5833POPC   GL134081  26.022  26.774   8.850
 5833POPC   GL234082  26.160  26.809   8.850
 5833POPC   C1A34083  25.996  26.845   8.550
 5833POPC   D2A34084  26.020  26.852   8.250
 5833POPC   C3A34085  26.033  26.841   7.950
 5833POPC   C4A34086  26.047  26.823   7.650
 5833POPC   C1B34087  26.319  26.904   8.550
 5833POPC   C2B34088  26.293  26.891   8.250
 5833POPC   C3B34089  26.268  26.900   7.950
 5833POPC   C4B34090  26.327  26.857   7.650
 5834POPC   NC334091  41.536  29.146   9.450
 5834POPC   PO434092  41.559  29.127   9.150
 5834POPC   GL134093  41.600  29.175   8.850
 5834POPC   GL234094  41.601  29.200   8.850
 5834POPC   C1A34095  41.540  29.107   8.550
 5834POPC   D2A34096  41.543  29.135   8.250
 5834POPC   C3A34097  41.553  29.117   7.950
 5834POPC   C4A34098  41.603  29.161   7.650
 5834POPC   C1B34099  41.690  29.321   8.550
 5834POPC   C2B34100  41.708  29.303   8.250
 5834POPC   C3B34101  41.718  29.388   7.950
 5834POPC   C4B34102  41.733  29.336   7.650
 5835POPC   NC334103   0.404   7.433   9.450
 5835POPC   PO434104   0.461   7.380   9.150
 5835POPC   GL134105   0.409   7.378   8.850
 5835POPC   GL234106   0.319   7.413   8.850
 5835POPC   C1A34107   0.428   7.376   8.550
 5835POPC   D2A34108   0.468   7.422   8.250
 5835POPC   C3A34109   0.458   7.423   7.950
 5835POPC   C4A34110   0.432   7.444   7.650
 5835POPC   C1B34111   0.164   7.354   8.550
 5835POPC   C2B34112   0.206   7.363   8.250
 5835POPC   C3B34113   0.204   7.344   7.950
 5835POPC   C4B34114   0.209   7.374   7.650
 5836POPC   NC334115  34.557  26.074   9.450
 5836POPC   PO434116  34.546  26.076   9.150
 5836POPC   GL134117  34.603  26.079   8.850
 5836POPC   GL234118  34.633  26.139   8.850
 5836POPC   C1A34119  34.570  25.996   8.550
 5836POPC   D2A34120  34.588  25.994   8.250
 5836POPC   C3A34121  34.546  26.019   7.950
 5836POPC   C4A34122  34.527  25.997   7.650
 5836POPC   C1B34123  34.694  26.219   8.550
 5836POPC   C2B34124  34.716  26.273   8.250
 5836POPC   C3B34125  34.776  26.238   7.950
 5836POPC   C4B34126  34.690  26.249   7.650
 5837POPC   NC334127  32.215  41.545   9.450
 5837POPC   PO434128  32.210  41.571   9.150
 5837POPC   GL134129  32.293  41.549   8.850
 5837POPC   GL234130  32.349  41.517   8.850
 5837POPC   C1A34131  32.292  41.604   8.550
 5837POPC   D2A34132  32.256  41.583   8.250
 5837POPC   C3A34133  32.289  41.587   7.950
 5837POPC   C4A34134  32.287  41.516   7.650
 5837POPC   C1B34135  32.535  41.584   8.550
 5837POPC   C2B34136  32.449  41.531   8.250
 5837POPC   C3B34137  32.461  41.539   7.950
 5837POPC   C4B34138  32.498  41.515   7.650
 5838POPC   NC334139  29.923  13.654   9.450
 5838POPC   PO434140  29.904  13.647   9.150
 5838POPC   GL134141  29.889  13.669   8.850
 5838POPC   GL234142  29.992  13.706   8.850
 5838POPC   C1A34143  29.902  13.582   8.550
 5838POPC   D2A34144  29.873  13.662   8.250
 5838POPC   C3A34145  29.881  13.659   7.950
 5838POPC   C4A34146  29.883  13.637   7.650
 5838POPC   C1B34147  30.045  13.815   8.550
 5838POPC   C2B34148  30.112  13.822   8.250
 5838POPC   C3B34149  30.080  13.839   7.950
 5838POPC   C4B34150  30.105  13.817   7.650
 5839POPC   NC334151  40.032  37.726   9.450
 5839POPC   PO434152  39.961  37.640   9.150
 5839POPC   GL134153  39.964  37.678   8.850
 5839POPC   GL234154  39.841  37.717   8.850
 5839POPC   C1A34155  40.055  37.702   8.550
 5839POPC   D2A34156  40.025  37.632   8.250
 5839POPC   C3A34157  40.033  37.725   7.950
 5839POPC   C4A34158  40.041  37.712   7.650
 5839POPC   C1B34159  39.728  37.671   8.550
 5839POPC   C2B34160  39.805  37.665   8.250
 5839POPC   C3B34161  39.739  37.688   7.950
 5839POPC   C4B34162  39.753  37.752   7.650
 5840POPC   NC334163  33.825  26.070   9.450
 5840POPC   PO434164  33.813  26.005   9.150
 5840POPC   GL134165  33.816  26.066   8.850
 5840POPC   GL234166  33.703  25.933   8.850
 5840POPC   C1A34167  33.816  26.019   8.550
 5840POPC   D2A34168  33.837  26.009   8.250
 5840POPC   C3A34169  33.792  26.078   7.950
 5840POPC   C4A34170  33.781  26.049   7.650
 5840POPC   C1B34171  33.627  25.938   8.550
 5840POPC   C2B34172  33.583  25.894   8.250
 5840POPC   C3B34173  33.594  25.923   7.950
 5840POPC   C4B34174  33.622  25.941   7.650
 5841POPC   NC334175  18.288   0.433   9.450
 5841POPC   PO434176  18.313   0.441   9.150
 5841POPC   GL134177  18.280   0.437   8.850
 5841POPC   GL234178  18.200   0.495   8.850
 5841POPC   C1A34179  18.263   0.457   8.550
 5841POPC   D2A34180  18.236   0.443   8.250
 5841POPC   C3A34181  18.258   0.407   7.950
 5841POPC   C4A34182  18.258   0.454   7.650
 5841POPC   C1B34183  18.148   0.670   8.550
 5841POPC   C2B34184  18.185   0.669   8.250
 5841POPC   C3B34185  18.146   0.670   7.950
 5841POPC   C4B34186  18.197   0.657   7.650
 5842POPC   NC334187   6.663  28.377   9.450
 5842POPC   PO434188   6.649  28.397   9.150
 5842POPC   GL134189   6.632  28.410   8.850
 5842POPC   GL234190   6.637  28.230   8.850
 5842POPC   C1A34191   6.612  28.399   8.550
 5842POPC   D2A34192   6.649  28.349   8.250
 5842POPC   C3A34193   6.601  28.388   7.950
 5842POPC   C4A34194   6.634  28.371   7.650
 5842POPC   C1B34195   6.578  28.146   8.550
 5842POPC   C2B34196   6.598  28.177   8.250
 5842POPC   C3B34197   6.554  28.115   7.950
 5842POPC   C4B34198   6.546  28.180   7.650
 5843POPC   NC334199  33.057  36.087   9.450
 5843POPC   PO434200  33.004  36.155   9.150
 5843POPC   GL134201  33.059  36.082   8.850
 5843POPC   GL234202  32.933  36.154   8.850
 5843POPC   C1A34203  33.045  36.159   8.550
 5843POPC   D2A34204  33.051  36.100   8.250
 5843POPC   C3A34205  32.983  36.149   7.950
 5843POPC   C4A34206  33.043  36.139   7.650
 5843POPC   C1B34207  32.788  36.210   8.550
 5843POPC   C2B34208  32.758  36.241   8.250
 5843POPC   C3B34209  32.773  36.250   7.950
 5843POPC   C4B34210  32.783  36.233   7.650
 5844POPC   NC334211   4.274  42.316   9.450
 5844POPC   PO434212   4.320  42.301   9.150
 5844POPC   GL134213   4.342  42.302   8.850
 5844POPC   GL234214   4.477  42.357   8.850
 5844POPC   C1A34215   4.270  42.340   8.550
 5844POPC   D2A34216   4.317  42.300   8.250
 5844POPC   C3A34217   4.285  42.369   7.950
 5844POPC   C4A34218   4.287  42.382   7.650
 5844POPC   C1B34219   4.568  42.388   8.550
 5844POPC   C2B34220   4.595  42.398   8.250
 5844POPC   C3B34221   4.545  42.367   7.950
 5844POPC   C4B34222   4.571  42.449   7.650
 5845POPC   NC334223   7.438   4.364   9.450
 5845POPC   PO434224   7.396   4.328   9.150
 5845POPC   GL134225   7.445   4.340   8.850
 5845POPC   GL234226   7.432   4.229   8.850
 5845POPC   C1A34227   7.418   4.335   8.550
 5845POPC   D2A34228   7.426   4.326   8.250
 5845POPC   C3A34229   7.393   4.355   7.950
 5845POPC   C4A34230   7.393   4.341   7.650
 5845POPC   C1B34231   7.518   4.105   8.550
 5845POPC   C2B34232   7.506   4.092   8.250
 5845POPC   C3B34233   7.446   4.083   7.950
 5845POPC   C4B34234   7.475   4.048   7.650
 5846POPC   NC334235   8.196   0.476   9.450
 5846POPC   PO434236   8.156   0.483   9.150
 5846POPC   GL134237   8.195   0.434   8.850
 5846POPC   GL234238   8.262   0.352   8.850
 5846POPC   C1A34239   8.241   0.436   8.550
 5846POPC   D2A34240   8.157   0.488   8.250
 5846POPC   C3A34241   8.224   0.478   7.950
 5846POPC   C4A34242   8.228   0.431   7.650
 5846POPC   C1B34243   8.256   0.236   8.550
 5846POPC   C2B34244   8.243   0.171   8.250
 5846POPC   C3B34245   8.271   0.182   7.950
 5846POPC   C4B34246   8.261   0.215   7.650
 5847POPC   NC334247   5.828   3.545   9.450
 5847POPC   PO434248   5.874   3.551   9.150
 5847POPC   GL134249   5.841   3.515   8.850
 5847POPC   GL234250   5.750   3.532   8.850
 5847POPC   C1A34251   5.914   3.514   8.550
 5847POPC   D2A34252   5.852   3.572   8.250
 5847POPC   C3A34253   5.864   3.549   7.950
 5847POPC   C4A34254   5.890   3.581   7.650
 5847POPC   C1B34255   5.605   3.476   8.550
 5847POPC   C2B34256   5.670   3.465   8.250
 5847POPC   C3B34257   5.623   3.468   7.950
 5847POPC   C4B34258   5.573   3.463   7.650
 5848POPC   NC334259  44.682  37.647   9.450
 5848POPC   PO434260  44.652  37.704   9.150
 5848POPC   GL134261  44.679  37.674   8.850
 5848POPC   GL234262  44.710  37.721   8.850
 5848POPC   C1A34263  44.702  37.704   8.550
 5848POPC   D2A34264  44.694  37.699   8.250
 5848POPC   C3A34265  44.673  37.631   7.950
 5848POPC   C4A34266  44.641  37.728   7.650
 5848POPC   C1B34267  44.872  37.828   8.550
 5848POPC   C2B34268  44.869  37.817   8.250
 5848POPC   C3B34269  44.807  37.887   7.950
 5848POPC   C4B34270  44.808  37.855   7.650
 5849POPC   NC334271   9.706  26.831   9.450
 5849POPC   PO434272   9.788  26.821   9.150
 5849POPC   GL134273   9.723  26.785   8.850
 5849POPC   GL234274   9.613  26.814   8.850
 5849POPC   C1A34275   9.718  26.844   8.550
 5849POPC   D2A34276   9.717  26.858   8.250
 5849POPC   C3A34277   9.797  26.791   7.950
 5849POPC   C4A34278   9.720  26.857   7.650
 5849POPC   C1B34279   9.464  26.856   8.550
 5849POPC   C2B34280   9.537  26.879   8.250
 5849POPC   C3B34281   9.515  26.825   7.950
 5849POPC   C4B34282   9.533  26.826   7.650
 5850POPC   NC334283  15.934  19.014   9.450
 5850POPC   PO434284  15.989  19.075   9.150
 5850POPC   GL134285  15.933  19.009   8.850
 5850POPC   GL234286  15.841  19.006   8.850
 5850POPC   C1A34287  15.973  19.012   8.550
 5850POPC   D2A34288  15.958  19.071   8.250
 5850POPC   C3A34289  15.960  19.058   7.950
 5850POPC   C4A34290  15.956  19.069   7.650
 5850POPC   C1B34291  15.824  18.873   8.550
 5850POPC   C2B34292  15.775  18.843   8.250
 5850POPC   C3B34293  15.812  18.863   7.950
 5850POPC   C4B34294  15.811  18.821   7.650
 5851POPC   NC334295  40.005  18.270   9.450
 5851POPC   PO434296  40.020  18.258   9.150
 5851POPC   GL134297  39.972  18.253   8.850
 5851POPC   GL234298  40.136  18.372   8.850
 5851POPC   C1A34299  39.982  18.303   8.550
 5851POPC   D2A34300  39.958  18.315   8.250
 5851POPC   C3A34301  40.043  18.248   7.950
 5851POPC   C4A34302  39.987  18.287   7.650
 5851POPC   C1B34303  40.196  18.398   8.550
 5851POPC   C2B34304  40.249  18.427   8.250
 5851POPC   C3B34305  40.167  18.446   7.950
 5851POPC   C4B34306  40.175  18.415   7.650
 5852POPC   NC334307  15.939  12.887   9.450
 5852POPC   PO434308  15.913  12.812   9.150
 5852POPC   GL134309  15.976  12.879   8.850
 5852POPC   GL234310  15.813  12.743   8.850
 5852POPC   C1A34311  15.982  12.868   8.550
 5852POPC   D2A34312  15.986  12.851   8.250
 5852POPC   C3A34313  15.961  12.821   7.950
 5852POPC   C4A34314  15.954  12.826   7.650
 5852POPC   C1B34315  15.756  12.710   8.550
 5852POPC   C2B34316  15.771  12.661   8.250
 5852POPC   C3B34317  15.799  12.666   7.950
 5852POPC   C4B34318  15.797  12.696   7.650
 5853POPC   NC334319  43.125  36.107   9.450
 5853POPC   PO434320  43.083  36.174   9.150
 5853POPC   GL134321  43.143  36.156   8.850
 5853POPC   GL234322  42.945  36.060   8.850
 5853POPC   C1A34323  43.157  36.159   8.550
 5853POPC   D2A34324  43.129  36.151   8.250
 5853POPC   C3A34325  43.133  36.151   7.950
 5853POPC   C4A34326  43.123  36.165   7.650
 5853POPC   C1B34327  42.885  36.089   8.550
 5853POPC   C2B34328  42.887  36.118   8.250
 5853POPC   C3B34329  42.877  36.041   7.950
 5853POPC   C4B34330  42.861  36.041   7.650
 5854POPC   NC334331  21.421  19.785   9.450
 5854POPC   PO434332  21.408  19.790   9.150
 5854POPC   GL134333  21.386  19.847   8.850
 5854POPC   GL234334  21.422  19.691   8.850
 5854POPC   C1A34335  21.385  19.839   8.550
 5854POPC   D2A34336  21.384  19.835   8.250
 5854POPC   C3A34337  21.434  19.857   7.950
 5854POPC   C4A34338  21.431  19.877   7.650
 5854POPC   C1B34339  21.547  19.577   8.550
 5854POPC   C2B34340  21.499  19.634   8.250
 5854POPC   C3B34341  21.478  19.634   7.950
 5854POPC   C4B34342  21.559  19.633   7.650
 5855POPC   NC334343   1.182  44.664   9.450
 5855POPC   PO434344   1.186  44.673   9.150
 5855POPC   GL134345   1.168  44.632   8.850
 5855POPC   GL234346   1.264  44.610   8.850
 5855POPC   C1A34347   1.191  44.708   8.550
 5855POPC   D2A34348   1.166  44.705   8.250
 5855POPC   C3A34349   1.169  44.657   7.950
 5855POPC   C4A34350   1.244  44.688   7.650
 5855POPC   C1B34351   1.378  44.459   8.550
 5855POPC   C2B34352   1.341  44.489   8.250
 5855POPC   C3B34353   1.432  44.522   7.950
 5855POPC   C4B34354   1.349  44.523   7.650
 5856POPC   NC334355  43.842   7.431   9.450
 5856POPC   PO434356  43.917   7.467   9.150
 5856POPC   GL134357  43.838   7.427   8.850
 5856POPC   GL234358  43.802   7.438   8.850
 5856POPC   C1A34359  43.900   7.443   8.550
 5856POPC   D2A34360  43.859   7.471   8.250
 5856POPC   C3A34361  43.904   7.413   7.950
 5856POPC   C4A34362  43.896   7.382   7.650
 5856POPC   C1B34363  43.631   7.480   8.550
 5856POPC   C2B34364  43.610   7.477   8.250
 5856POPC   C3B34365  43.624   7.455   7.950
 5856POPC   C4B34366  43.642   7.452   7.650
 5857POPC   NC334367  13.610  43.136   9.450
 5857POPC   PO434368  13.653  43.122   9.150
 5857POPC   GL134369  13.601  43.128   8.850
 5857POPC   GL234370  13.536  43.086   8.850
 5857POPC   C1A34371  13.621  43.145   8.550
 5857POPC   D2A34372  13.581  43.154   8.250
 5857POPC   C3A34373  13.669  43.144   7.950
 5857POPC   C4A34374  13.584  43.120   7.650
 5857POPC   C1B34375  13.397  43.026   8.550
 5857POPC   C2B34376  13.441  42.934   8.250
 5857POPC   C3B34377  13.411  42.972   7.950
 5857POPC   C4B34378  13.370  43.026   7.650
 5858POPC   NC334379   1.965  23.762   9.450
 5858POPC   PO434380   1.971  23.698   9.150
 5858POPC   GL134381   1.955  23.730   8.850
 5858POPC   GL234382   1.912  23.662   8.850
 5858POPC   C1A34383   2.004  23.681   8.550
 5858POPC   D2A34384   2.001  23.712   8.250
 5858POPC   C3A34385   2.003  23.709   7.950
 5858POPC   C4A34386   2.034  23.683   7.650
 5858POPC   C1B34387   1.824  23.547   8.550
 5858POPC   C2B34388   1.863  23.511   8.250
 5858POPC   C3B34389   1.800  23.473   7.950
 5858POPC   C4B34390   1.865  23.505   7.650
 5859POPC   NC334391  39.993  36.091   9.450
 5859POPC   PO434392  39.973  36.098   9.150
 5859POPC   GL134393  40.007  36.153   8.850
 5859POPC   GL234394  39.955  36.288   8.850
 5859POPC   C1A34395  39.961  36.145   8.550
 5859POPC   D2A34396  39.989  36.115   8.250
 5859POPC   C3A34397  40.013  36.106   7.950
 5859POPC   C4A34398  39.981  36.152   7.650
 5859POPC   C1B34399  39.914  36.351   8.550
 5859POPC   C2B34400  39.917  36.379   8.250
 5859POPC   C3B34401  39.921  36.352   7.950
 5859POPC   C4B34402  39.982  36.385   7.650
 5860POPC   NC334403   9.004  44.624   9.450
 5860POPC   PO434404   8.925  44.669   9.150
 5860POPC   GL134405   8.995  44.692   8.850
 5860POPC   GL234406   8.829  44.656   8.850
 5860POPC   C1A34407   8.947  44.683   8.550
 5860POPC   D2A34408   9.009  44.652   8.250
 5860POPC   C3A34409   8.925  44.631   7.950
 5860POPC   C4A34410   8.951  44.687   7.650
 5860POPC   C1B34411   8.738  44.636   8.550
 5860POPC   C2B34412   8.709  44.639   8.250
 5860POPC   C3B34413   8.696  44.650   7.950
 5860POPC   C4B34414   8.753  44.611   7.650
 5861POPC   NC334415  44.709   1.181   9.450
 5861POPC   PO434416  44.685   1.232   9.150
 5861POPC   GL134417  44.636   1.208   8.850
 5861POPC   GL234418  44.725   1.130   8.850
 5861POPC   C1A34419  44.649   1.168   8.550
 5861POPC   D2A34420  44.700   1.257   8.250
 5861POPC   C3A34421  44.676   1.246   7.950
 5861POPC   C4A34422  44.639   1.204   7.650
 5861POPC   C1B34423  44.714   1.004   8.550
 5861POPC   C2B34424  44.776   1.014   8.250
 5861POPC   C3B34425  44.795   0.994   7.950
 5861POPC   C4B34426  44.738   0.944   7.650
 5862POPC   NC334427  13.601  19.856   9.450
 5862POPC   PO434428  13.651  19.792   9.150
 5862POPC   GL134429  13.637  19.837   8.850
 5862POPC   GL234430  13.735  19.706   8.850
 5862POPC   C1A34431  13.585  19.859   8.550
 5862POPC   D2A34432  13.609  19.883   8.250
 5862POPC   C3A34433  13.604  19.808   7.950
 5862POPC   C4A34434  13.672  19.791   7.650
 5862POPC   C1B34435  13.850  19.686   8.550
 5862POPC   C2B34436  13.799  19.663   8.250
 5862POPC   C3B34437  13.790  19.611   7.950
 5862POPC   C4B34438  13.827  19.664   7.650
 5863POPC   NC334439  40.006  19.093   9.450
 5863POPC   PO434440  40.037  19.073   9.150
 5863POPC   GL134441  39.982  19.051   8.850
 5863POPC   GL234442  40.094  19.093   8.850
 5863POPC   C1A34443  39.970  19.041   8.550
 5863POPC   D2A34444  40.016  19.066   8.250
 5863POPC   C3A34445  40.041  19.074   7.950
 5863POPC   C4A34446  39.974  19.039   7.650
 5863POPC   C1B34447  40.252  19.248   8.550
 5863POPC   C2B34448  40.200  19.161   8.250
 5863POPC   C3B34449  40.226  19.193   7.950
 5863POPC   C4B34450  40.179  19.166   7.650
 5864POPC   NC334451  12.900  33.819   9.450
 5864POPC   PO434452  12.810  33.834   9.150
 5864POPC   GL134453  12.833  33.817   8.850
 5864POPC   GL234454  12.750  33.722   8.850
 5864POPC   C1A34455  12.859  33.795   8.550
 5864POPC   D2A34456  12.836  33.798   8.250
 5864POPC   C3A34457  12.876  33.817   7.950
 5864POPC   C4A34458  12.882  33.807   7.650
 5864POPC   C1B34459  12.742  33.635   8.550
 5864POPC   C2B34460  12.735  33.639   8.250
 5864POPC   C3B34461  12.677  33.617   7.950
 5864POPC   C4B34462  12.753  33.631   7.650
 5865POPC   NC334463  24.468  22.193   9.450
 5865POPC   PO434464  24.485  22.162   9.150
 5865POPC   GL134465  24.488  22.170   8.850
 5865POPC   GL234466  24.472  22.011   8.850
 5865POPC   C1A34467  24.474  22.150   8.550
 5865POPC   D2A34468  24.468  22.205   8.250
 5865POPC   C3A34469  24.443  22.167   7.950
 5865POPC   C4A34470  24.455  22.164   7.650
 5865POPC   C1B34471  24.515  21.863   8.550
 5865POPC   C2B34472  24.504  21.932   8.250
 5865POPC   C3B34473  24.478  21.897   7.950
 5865POPC   C4B34474  24.499  21.955   7.650
 5866POPC   NC334475  44.641  30.729   9.450
 5866POPC   PO434476  44.648  30.745   9.150
 5866POPC   GL134477  44.631  30.722   8.850
 5866POPC   GL234478  44.790  30.651   8.850
 5866POPC   C1A34479  44.676  30.709   8.550
 5866POPC   D2A34480  44.660  30.651   8.250
 5866POPC   C3A34481  44.703  30.663   7.950
 5866POPC   C4A34482  44.636  30.693   7.650
 5866POPC   C1B34483  44.946  30.670   8.550
 5866POPC   C2B34484  44.924  30.738   8.250
 5866POPC   C3B34485  44.870  30.744   7.950
 5866POPC   C4B34486  44.903  30.732   7.650
 5867POPC   NC334487  19.846  21.364   9.450
 5867POPC   PO434488  19.815  21.345   9.150
 5867POPC   GL134489  19.803  21.413   8.850
 5867POPC   GL234490  19.678  21.370   8.850
 5867POPC   C1A34491  19.785  21.376   8.550
 5867POPC   D2A34492  19.845  21.358   8.250
 5867POPC   C3A34493  19.838  21.431   7.950
 5867POPC   C4A34494  19.808  21.435   7.650
 5867POPC   C1B34495  19.550  21.377   8.550
 5867POPC   C2B34496  19.542  21.377   8.250
 5867POPC   C3B34497  19.587  21.337   7.950
 5867POPC   C4B34498  19.570  21.375   7.650
 5868POPC   NC334499  19.848  11.313   9.450
 5868POPC   PO434500  19.846  11.320   9.150
 5868POPC   GL134501  19.801  11.297   8.850
 5868POPC   GL234502  19.981  11.280   8.850
 5868POPC   C1A34503  19.875  11.293   8.550
 5868POPC   D2A34504  19.807  11.269   8.250
 5868POPC   C3A34505  19.880  11.343   7.950
 5868POPC   C4A34506  19.884  11.261   7.650
 5868POPC   C1B34507  20.131  11.348   8.550
 5868POPC   C2B34508  20.044  11.375   8.250
 5868POPC   C3B34509  20.038  11.302   7.950
 5868POPC   C4B34510  20.052  11.303   7.650
 5869POPC   NC334511  35.373  12.881   9.450
 5869POPC   PO434512  35.397  12.866   9.150
 5869POPC   GL134513  35.391  12.858   8.850
 5869POPC   GL234514  35.383  12.978   8.850
 5869POPC   C1A34515  35.363  12.841   8.550
 5869POPC   D2A34516  35.358  12.828   8.250
 5869POPC   C3A34517  35.381  12.803   7.950
 5869POPC   C4A34518  35.316  12.808   7.650
 5869POPC   C1B34519  35.518  13.048   8.550
 5869POPC   C2B34520  35.470  13.089   8.250
 5869POPC   C3B34521  35.549  13.041   7.950
 5869POPC   C4B34522  35.482  13.080   7.650
 5870POPC   NC334523  15.963  30.685   9.450
 5870POPC   PO434524  15.956  30.661   9.150
 5870POPC   GL134525  15.958  30.649   8.850
 5870POPC   GL234526  15.917  30.609   8.850
 5870POPC   C1A34527  15.938  30.705   8.550
 5870POPC   D2A34528  15.964  30.738   8.250
 5870POPC   C3A34529  15.942  30.700   7.950
 5870POPC   C4A34530  16.002  30.674   7.650
 5870POPC   C1B34531  15.886  30.421   8.550
 5870POPC   C2B34532  15.896  30.496   8.250
 5870POPC   C3B34533  15.931  30.431   7.950
 5870POPC   C4B34534  15.900  30.452   7.650
 5871POPC   NC334535   8.193   1.976   9.450
 5871POPC   PO434536   8.222   2.023   9.150
 5871POPC   GL134537   8.193   2.038   8.850
 5871POPC   GL234538   8.154   2.113   8.850
 5871POPC   C1A34539   8.185   2.010   8.550
 5871POPC   D2A34540   8.203   1.988   8.250
 5871POPC   C3A34541   8.154   2.010   7.950
 5871POPC   C4A34542   8.170   2.034   7.650
 5871POPC   C1B34543   8.006   2.175   8.550
 5871POPC   C2B34544   8.004   2.205   8.250
 5871POPC   C3B34545   8.031   2.116   7.950
 5871POPC   C4B34546   8.009   2.116   7.650
 5872POPC   NC334547   8.239   6.621   9.450
 5872POPC   PO434548   8.187   6.665   9.150
 5872POPC   GL134549   8.191   6.601   8.850
 5872POPC   GL234550   8.138   6.807   8.850
 5872POPC   C1A34551   8.221   6.599   8.550
 5872POPC   D2A34552   8.168   6.648   8.250
 5872POPC   C3A34553   8.174   6.632   7.950
 5872POPC   C4A34554   8.155   6.685   7.650
 5872POPC   C1B34555   8.077   6.829   8.550
 5872POPC   C2B34556   8.059   6.896   8.250
 5872POPC   C3B34557   8.123   6.834   7.950
 5872POPC   C4B34558   8.045   6.913   7.650
 5873POPC   NC334559  33.786  10.571   9.450
 5873POPC   PO434560  33.844  10.491   9.150
 5873POPC   GL134561  33.822  10.557   8.850
 5873POPC   GL234562  33.767  10.674   8.850
 5873POPC   C1A34563  33.831  10.551   8.550
 5873POPC   D2A34564  33.790  10.571   8.250
 5873POPC   C3A34565  33.759  10.503   7.950
 5873POPC   C4A34566  33.768  10.501   7.650
 5873POPC   C1B34567  33.727  10.760   8.550
 5873POPC   C2B34568  33.700  10.800   8.250
 5873POPC   C3B34569  33.741  10.764   7.950
 5873POPC   C4B34570  33.757  10.808   7.650
 5874POPC   NC334571  38.419  20.618   9.450
 5874POPC   PO434572  38.476  20.583   9.150
 5874POPC   GL134573  38.452  20.622   8.850
 5874POPC   GL234574  38.446  20.494   8.850
 5874POPC   C1A34575  38.408  20.569   8.550
 5874POPC   D2A34576  38.493  20.570   8.250
 5874POPC   C3A34577  38.477  20.631   7.950
 5874POPC   C4A34578  38.489  20.648   7.650
 5874POPC   C1B34579  38.487  20.374   8.550
 5874POPC   C2B34580  38.478  20.371   8.250
 5874POPC   C3B34581  38.474  20.411   7.950
 5874POPC   C4B34582  38.463  20.370   7.650
 5875POPC   NC334583  15.134   6.691   9.450
 5875POPC   PO434584  15.218   6.658   9.150
 5875POPC   GL134585  15.227   6.659   8.850
 5875POPC   GL234586  15.273   6.549   8.850
 5875POPC   C1A34587  15.172   6.640   8.550
 5875POPC   D2A34588  15.140   6.611   8.250
 5875POPC   C3A34589  15.213   6.655   7.950
 5875POPC   C4A34590  15.142   6.643   7.650
 5875POPC   C1B34591  15.408   6.585   8.550
 5875POPC   C2B34592  15.400   6.537   8.250
 5875POPC   C3B34593  15.365   6.503   7.950
 5875POPC   C4B34594  15.453   6.511   7.650
 5876POPC   NC334595  19.812   1.257   9.450
 5876POPC   PO434596  19.799   1.193   9.150
 5876POPC   GL134597  19.884   1.224   8.850
 5876POPC   GL234598  19.888   1.341   8.850
 5876POPC   C1A34599  19.880   1.177   8.550
 5876POPC   D2A34600  19.843   1.203   8.250
 5876POPC   C3A34601  19.850   1.254   7.950
 5876POPC   C4A34602  19.788   1.171   7.650
 5876POPC   C1B34603  19.923   1.467   8.550
 5876POPC   C2B34604  19.851   1.492   8.250
 5876POPC   C3B34605  19.903   1.452   7.950
 5876POPC   C4B34606  19.889   1.499   7.650
 5877POPC   NC334607  26.799  17.524   9.450
 5877POPC   PO434608  26.776  17.557   9.150
 5877POPC   GL134609  26.771  17.503   8.850
 5877POPC   GL234610  26.893  17.416   8.850
 5877POPC   C1A34611  26.850  17.474   8.550
 5877POPC   D2A34612  26.832  17.460   8.250
 5877POPC   C3A34613  26.820  17.517   7.950
 5877POPC   C4A34614  26.792  17.528   7.650
 5877POPC   C1B34615  26.991  17.366   8.550
 5877POPC   C2B34616  27.013  17.309   8.250
 5877POPC   C3B34617  27.044  17.406   7.950
 5877POPC   C4B34618  27.062  17.342   7.650
 5878POPC   NC334619  10.510   1.973   9.450
 5878POPC   PO434620  10.511   1.952   9.150
 5878POPC   GL134621  10.527   1.962   8.850
 5878POPC   GL234622  10.639   1.890   8.850
 5878POPC   C1A34623  10.516   1.999   8.550
 5878POPC   D2A34624  10.502   2.033   8.250
 5878POPC   C3A34625  10.507   1.941   7.950
 5878POPC   C4A34626  10.533   2.000   7.650
 5878POPC   C1B34627  10.675   1.805   8.550
 5878POPC   C2B34628  10.637   1.828   8.250
 5878POPC   C3B34629  10.731   1.813   7.950
 5878POPC   C4B34630  10.729   1.813   7.650
 5879POPC   NC334631  17.477   8.177   9.450
 5879POPC   PO434632  17.520   8.205   9.150
 5879POPC   GL134633  17.547   8.187   8.850
 5879POPC   GL234634  17.486   8.072   8.850
 5879POPC   C1A34635  17.529   8.209   8.550
 5879POPC   D2A34636  17.473   8.165   8.250
 5879POPC   C3A34637  17.541   8.176   7.950
 5879POPC   C4A34638  17.481   8.186   7.650
 5879POPC   C1B34639  17.535   7.934   8.550
 5879POPC   C2B34640  17.476   7.898   8.250
 5879POPC   C3B34641  17.496   7.939   7.950
 5879POPC   C4B34642  17.548   7.969   7.650
 5880POPC   NC334643   1.965  33.069   9.450
 5880POPC   PO434644   1.987  32.975   9.150
 5880POPC   GL134645   2.014  32.981   8.850
 5880POPC   GL234646   2.075  33.118   8.850
 5880POPC   C1A34647   1.943  33.037   8.550
 5880POPC   D2A34648   1.955  33.040   8.250
 5880POPC   C3A34649   1.956  33.021   7.950
 5880POPC   C4A34650   1.971  32.983   7.650
 5880POPC   C1B34651   2.223  33.157   8.550
 5880POPC   C2B34652   2.132  33.208   8.250
 5880POPC   C3B34653   2.192  33.163   7.950
 5880POPC   C4B34654   2.215  33.173   7.650
 5881POPC   NC334655  24.479   3.527   9.450
 5881POPC   PO434656  24.456   3.548   9.150
 5881POPC   GL134657  24.512   3.550   8.850
 5881POPC   GL234658  24.542   3.426   8.850
 5881POPC   C1A34659  24.477   3.574   8.550
 5881POPC   D2A34660  24.535   3.525   8.250
 5881POPC   C3A34661  24.476   3.500   7.950
 5881POPC   C4A34662  24.522   3.521   7.650
 5881POPC   C1B34663  24.604   3.303   8.550
 5881POPC   C2B34664  24.617   3.340   8.250
 5881POPC   C3B34665  24.553   3.274   7.950
 5881POPC   C4B34666  24.607   3.340   7.650
 5882POPC   NC334667   1.224  19.063   9.450
 5882POPC   PO434668   1.259  19.039   9.150
 5882POPC   GL134669   1.263  19.068   8.850
 5882POPC   GL234670   1.105  19.040   8.850
 5882POPC   C1A34671   1.206  19.036   8.550
 5882POPC   D2A34672   1.190  19.051   8.250
 5882POPC   C3A34673   1.207  19.049   7.950
 5882POPC   C4A34674   1.178  19.033   7.650
 5882POPC   C1B34675   0.982  18.995   8.550
 5882POPC   C2B34676   0.993  19.007   8.250
 5882POPC   C3B34677   1.012  19.063   7.950
 5882POPC   C4B34678   0.917  19.029   7.650
 5883POPC   NC334679  14.440  10.479   9.450
 5883POPC   PO434680  14.367  10.509   9.150
 5883POPC   GL134681  14.442  10.511   8.850
 5883POPC   GL234682  14.280  10.640   8.850
 5883POPC   C1A34683  14.418  10.520   8.550
 5883POPC   D2A34684  14.364  10.482   8.250
 5883POPC   C3A34685  14.416  10.532   7.950
 5883POPC   C4A34686  14.408  10.545   7.650
 5883POPC   C1B34687  14.228  10.677   8.550
 5883POPC   C2B34688  14.238  10.737   8.250
 5883POPC   C3B34689  14.241  10.750   7.950
 5883POPC   C4B34690  14.275  10.679   7.650
 5884POPC   NC334691   2.009  26.826   9.450
 5884POPC   PO434692   1.960  26.772   9.150
 5884POPC   GL134693   2.004  26.857   8.850
 5884POPC   GL234694   2.029  26.683   8.850
 5884POPC   C1A34695   2.025  26.828   8.550
 5884POPC   D2A34696   2.024  26.834   8.250
 5884POPC   C3A34697   2.013  26.793   7.950
 5884POPC   C4A34698   1.985  26.816   7.650
 5884POPC   C1B34699   2.015  26.583   8.550
 5884POPC   C2B34700   2.061  26.565   8.250
 5884POPC   C3B34701   2.073  26.559   7.950
 5884POPC   C4B34702   2.064  26.559   7.650
 5885POPC   NC334703  35.326  39.200   9.450
 5885POPC   PO434704  35.344  39.237   9.150
 5885POPC   GL134705  35.362  39.228   8.850
 5885POPC   GL234706  35.396  39.165   8.850
 5885POPC   C1A34707  35.304  39.190   8.550
 5885POPC   D2A34708  35.382  39.249   8.250
 5885POPC   C3A34709  35.382  39.262   7.950
 5885POPC   C4A34710  35.351  39.222   7.650
 5885POPC   C1B34711  35.572  39.038   8.550
 5885POPC   C2B34712  35.558  39.025   8.250
 5885POPC   C3B34713  35.476  39.074   7.950
 5885POPC   C4B34714  35.553  39.092   7.650
 5886POPC   NC334715  14.363  22.142   9.450
 5886POPC   PO434716  14.428  22.173   9.150
 5886POPC   GL134717  14.383  22.127   8.850
 5886POPC   GL234718  14.389  22.029   8.850
 5886POPC   C1A34719  14.436  22.194   8.550
 5886POPC   D2A34720  14.437  22.150   8.250
 5886POPC   C3A34721  14.379  22.178   7.950
 5886POPC   C4A34722  14.414  22.150   7.650
 5886POPC   C1B34723  14.411  21.900   8.550
 5886POPC   C2B34724  14.354  21.917   8.250
 5886POPC   C3B34725  14.331  21.914   7.950
 5886POPC   C4B34726  14.358  21.911   7.650
 5887POPC   NC334727  43.149   9.728   9.450
 5887POPC   PO434728  43.091   9.795   9.150
 5887POPC   GL134729  43.149   9.736   8.850
 5887POPC   GL234730  43.196   9.659   8.850
 5887POPC   C1A34731  43.119   9.730   8.550
 5887POPC   D2A34732  43.094   9.731   8.250
 5887POPC   C3A34733  43.060   9.760   7.950
 5887POPC   C4A34734  43.070   9.751   7.650
 5887POPC   C1B34735  43.228   9.524   8.550
 5887POPC   C2B34736  43.288   9.583   8.250
 5887POPC   C3B34737  43.243   9.542   7.950
 5887POPC   C4B34738  43.224   9.560   7.650
 5888POPC   NC334739  22.179  26.047   9.450
 5888POPC   PO434740  22.155  26.054   9.150
 5888POPC   GL134741  22.169  26.017   8.850
 5888POPC   GL234742  22.258  26.044   8.850
 5888POPC   C1A34743  22.141  26.035   8.550
 5888POPC   D2A34744  22.150  26.039   8.250
 5888POPC   C3A34745  22.139  26.018   7.950
 5888POPC   C4A34746  22.198  26.036   7.650
 5888POPC   C1B34747  22.394  26.010   8.550
 5888POPC   C2B34748  22.389  25.980   8.250
 5888POPC   C3B34749  22.375  25.998   7.950
 5888POPC   C4B34750  22.418  25.964   7.650
 5889POPC   NC334751  17.480  26.824   9.450
 5889POPC   PO434752  17.539  26.822   9.150
 5889POPC   GL134753  17.500  26.813   8.850
 5889POPC   GL234754  17.596  26.736   8.850
 5889POPC   C1A34755  17.522  26.772   8.550
 5889POPC   D2A34756  17.510  26.773   8.250
 5889POPC   C3A34757  17.500  26.768   7.950
 5889POPC   C4A34758  17.524  26.800   7.650
 5889POPC   C1B34759  17.604  26.553   8.550
 5889POPC   C2B34760  17.609  26.579   8.250
 5889POPC   C3B34761  17.542  26.554   7.950
 5889POPC   C4B34762  17.579  26.612   7.650
 5890POPC   NC334763  25.222  30.735   9.450
 5890POPC   PO434764  25.240  30.734   9.150
 5890POPC   GL134765  25.262  30.654   8.850
 5890POPC   GL234766  25.204  30.827   8.850
 5890POPC   C1A34767  25.227  30.684   8.550
 5890POPC   D2A34768  25.279  30.663   8.250
 5890POPC   C3A34769  25.275  30.710   7.950
 5890POPC   C4A34770  25.305  30.663   7.650
 5890POPC   C1B34771  25.259  30.974   8.550
 5890POPC   C2B34772  25.243  30.969   8.250
 5890POPC   C3B34773  25.236  30.907   7.950
 5890POPC   C4B34774  25.250  30.988   7.650
 5891POPC   NC334775   8.975  19.066   9.450
 5891POPC   PO434776   8.938  19.036   9.150
 5891POPC   GL134777   8.923  19.038   8.850
 5891POPC   GL234778   8.975  19.189   8.850
 5891POPC   C1A34779   9.014  19.027   8.550
 5891POPC   D2A34780   8.967  19.079   8.250
 5891POPC   C3A34781   8.962  19.097   7.950
 5891POPC   C4A34782   8.972  19.051   7.650
 5891POPC   C1B34783   8.991  19.276   8.550
 5891POPC   C2B34784   8.969  19.282   8.250
 5891POPC   C3B34785   8.930  19.282   7.950
 5891POPC   C4B34786   8.935  19.269   7.650
 5892POPC   NC334787  28.415   1.989   9.450
 5892POPC   PO434788  28.381   2.031   9.150
 5892POPC   GL134789  28.322   1.971   8.850
 5892POPC   GL234790  28.485   1.932   8.850
 5892POPC   C1A34791  28.397   1.945   8.550
 5892POPC   D2A34792  28.320   1.976   8.250
 5892POPC   C3A34793  28.375   1.988   7.950
 5892POPC   C4A34794  28.380   2.026   7.650
 5892POPC   C1B34795  28.495   1.818   8.550
 5892POPC   C2B34796  28.487   1.757   8.250
 5892POPC   C3B34797  28.553   1.774   7.950
 5892POPC   C4B34798  28.533   1.816   7.650
 5893POPC   NC334799  22.169  13.666   9.450
 5893POPC   PO434800  22.206  13.665   9.150
 5893POPC   GL134801  22.211  13.607   8.850
 5893POPC   GL234802  22.161  13.542   8.850
 5893POPC   C1A34803  22.179  13.669   8.550
 5893POPC   D2A34804  22.180  13.634   8.250
 5893POPC   C3A34805  22.168  13.649   7.950
 5893POPC   C4A34806  22.138  13.636   7.650
 5893POPC   C1B34807  22.154  13.416   8.550
 5893POPC   C2B34808  22.108  13.390   8.250
 5893POPC   C3B34809  22.124  13.338   7.950
 5893POPC   C4B34810  22.192  13.396   7.650
 5894POPC   NC334811   7.420  15.190   9.450
 5894POPC   PO434812   7.401  15.174   9.150
 5894POPC   GL134813   7.441  15.206   8.850
 5894POPC   GL234814   7.534  15.162   8.850
 5894POPC   C1A34815   7.465  15.218   8.550
 5894POPC   D2A34816   7.399  15.177   8.250
 5894POPC   C3A34817   7.404  15.213   7.950
 5894POPC   C4A34818   7.466  15.210   7.650
 5894POPC   C1B34819   7.603  15.032   8.550
 5894POPC   C2B34820   7.606  15.087   8.250
 5894POPC   C3B34821   7.659  15.051   7.950
 5894POPC   C4B34822   7.670  15.040   7.650
 5895POPC   NC334823  23.692  29.954   9.450
 5895POPC   PO434824  23.682  29.896   9.150
 5895POPC   GL134825  23.674  29.943   8.850
 5895POPC   GL234826  23.774  29.788   8.850
 5895POPC   C1A34827  23.759  29.873   8.550
 5895POPC   D2A34828  23.667  29.908   8.250
 5895POPC   C3A34829  23.682  29.957   7.950
 5895POPC   C4A34830  23.711  29.919   7.650
 5895POPC   C1B34831  23.836  29.728   8.550
 5895POPC   C2B34832  23.823  29.735   8.250
 5895POPC   C3B34833  23.863  29.678   7.950
 5895POPC   C4B34834  23.840  29.686   7.650
 5896POPC   NC334835  23.666  10.484   9.450
 5896POPC   PO434836  23.712  10.551   9.150
 5896POPC   GL134837  23.719  10.487   8.850
 5896POPC   GL234838  23.689  10.420   8.850
 5896POPC   C1A34839  23.728  10.533   8.550
 5896POPC   D2A34840  23.721  10.525   8.250
 5896POPC   C3A34841  23.669  10.548   7.950
 5896POPC   C4A34842  23.737  10.526   7.650
 5896POPC   C1B34843  23.682  10.309   8.550
 5896POPC   C2B34844  23.639  10.251   8.250
 5896POPC   C3B34845  23.642  10.289   7.950
 5896POPC   C4B34846  23.640  10.247   7.650
 5897POPC   NC334847  22.903  38.462   9.450
 5897POPC   PO434848  22.894  38.457   9.150
 5897POPC   GL134849  22.928  38.455   8.850
 5897POPC   GL234850  23.050  38.577   8.850
 5897POPC   C1A34851  22.962  38.468   8.550
 5897POPC   D2A34852  22.910  38.467   8.250
 5897POPC   C3A34853  22.944  38.438   7.950
 5897POPC   C4A34854  22.972  38.463   7.650
 5897POPC   C1B34855  23.079  38.677   8.550
 5897POPC   C2B34856  23.068  38.596   8.250
 5897POPC   C3B34857  23.110  38.640   7.950
 5897POPC   C4B34858  23.088  38.623   7.650
 5898POPC   NC334859  42.345  36.161   9.450
 5898POPC   PO434860  42.366  36.137   9.150
 5898POPC   GL134861  42.357  36.176   8.850
 5898POPC   GL234862  42.399  36.119   8.850
 5898POPC   C1A34863  42.374  36.081   8.550
 5898POPC   D2A34864  42.308  36.111   8.250
 5898POPC   C3A34865  42.321  36.113   7.950
 5898POPC   C4A34866  42.356  36.120   7.650
 5898POPC   C1B34867  42.573  36.043   8.550
 5898POPC   C2B34868  42.576  35.980   8.250
 5898POPC   C3B34869  42.542  36.049   7.950
 5898POPC   C4B34870  42.547  35.988   7.650
 5899POPC   NC334871  26.792  42.306   9.450
 5899POPC   PO434872  26.862  42.363   9.150
 5899POPC   GL134873  26.785  42.343   8.850
 5899POPC   GL234874  26.924  42.277   8.850
 5899POPC   C1A34875  26.770  42.347   8.550
 5899POPC   D2A34876  26.796  42.311   8.250
 5899POPC   C3A34877  26.846  42.293   7.950
 5899POPC   C4A34878  26.856  42.335   7.650
 5899POPC   C1B34879  26.973  42.158   8.550
 5899POPC   C2B34880  27.020  42.116   8.250
 5899POPC   C3B34881  27.007  42.172   7.950
 5899POPC   C4B34882  27.015  42.098   7.650
 5900POPC   NC334883   8.184   5.063   9.450
 5900POPC   PO434884   8.170   5.043   9.150
 5900POPC   GL134885   8.154   5.114   8.850
 5900POPC   GL234886   8.237   4.929   8.850
 5900POPC   C1A34887   8.220   5.075   8.550
 5900POPC   D2A34888   8.164   5.096   8.250
 5900POPC   C3A34889   8.152   5.043   7.950
 5900POPC   C4A34890   8.208   5.097   7.650
 5900POPC   C1B34891   8.301   4.852   8.550
 5900POPC   C2B34892   8.283   4.825   8.250
 5900POPC   C3B34893   8.253   4.874   7.950
 5900POPC   C4B34894   8.242   4.888   7.650
 5901POPC   NC334895   4.332  18.307   9.450
 5901POPC   PO434896   4.300  18.257   9.150
 5901POPC   GL134897   4.345  18.290   8.850
 5901POPC   GL234898   4.376  18.402   8.850
 5901POPC   C1A34899   4.301  18.315   8.550
 5901POPC   D2A34900   4.291  18.329   8.250
 5901POPC   C3A34901   4.279  18.312   7.950
 5901POPC   C4A34902   4.275  18.278   7.650
 5901POPC   C1B34903   4.436  18.519   8.550
 5901POPC   C2B34904   4.389  18.533   8.250
 5901POPC   C3B34905   4.386  18.480   7.950
 5901POPC   C4B34906   4.465  18.521   7.650
 5902POPC   NC334907  14.387  37.658   9.450
 5902POPC   PO434908  14.415  37.655   9.150
 5902POPC   GL134909  14.363  37.631   8.850
 5902POPC   GL234910  14.366  37.784   8.850
 5902POPC   C1A34911  14.445  37.670   8.550
 5902POPC   D2A34912  14.362  37.647   8.250
 5902POPC   C3A34913  14.371  37.713   7.950
 5902POPC   C4A34914  14.436  37.663   7.650
 5902POPC   C1B34915  14.430  37.940   8.550
 5902POPC   C2B34916  14.400  37.958   8.250
 5902POPC   C3B34917  14.448  37.937   7.950
 5902POPC   C4B34918  14.460  37.935   7.650
 5903POPC   NC334919  27.582  25.261   9.450
 5903POPC   PO434920  27.633  25.271   9.150
 5903POPC   GL134921  27.545  25.309   8.850
 5903POPC   GL234922  27.620  25.179   8.850
 5903POPC   C1A34923  27.544  25.239   8.550
 5903POPC   D2A34924  27.547  25.281   8.250
 5903POPC   C3A34925  27.624  25.241   7.950
 5903POPC   C4A34926  27.585  25.251   7.650
 5903POPC   C1B34927  27.723  25.033   8.550
 5903POPC   C2B34928  27.706  25.059   8.250
 5903POPC   C3B34929  27.723  25.019   7.950
 5903POPC   C4B34930  27.693  25.036   7.650
 5904POPC   NC334931  36.900  35.347   9.450
 5904POPC   PO434932  36.928  35.332   9.150
 5904POPC   GL134933  36.925  35.358   8.850
 5904POPC   GL234934  36.873  35.436   8.850
 5904POPC   C1A34935  36.892  35.309   8.550
 5904POPC   D2A34936  36.938  35.320   8.250
 5904POPC   C3A34937  36.942  35.310   7.950
 5904POPC   C4A34938  36.947  35.317   7.650
 5904POPC   C1B34939  36.783  35.561   8.550
 5904POPC   C2B34940  36.757  35.599   8.250
 5904POPC   C3B34941  36.785  35.525   7.950
 5904POPC   C4B34942  36.792  35.598   7.650
 5905POPC   NC334943  44.685  31.487   9.450
 5905POPC   PO434944  44.673  31.433   9.150
 5905POPC   GL134945  44.626  31.476   8.850
 5905POPC   GL234946  44.655  31.586   8.850
 5905POPC   C1A34947  44.661  31.436   8.550
 5905POPC   D2A34948  44.617  31.520   8.250
 5905POPC   C3A34949  44.698  31.474   7.950
 5905POPC   C4A34950  44.645  31.432   7.650
 5905POPC   C1B34951  44.688  31.759   8.550
 5905POPC   C2B34952  44.734  31.702   8.250
 5905POPC   C3B34953  44.758  31.742   7.950
 5905POPC   C4B34954  44.728  31.765   7.650
 5906POPC   NC334955  11.270  12.082   9.450
 5906POPC   PO434956  11.349  12.080   9.150
 5906POPC   GL134957  11.296  12.091   8.850
 5906POPC   GL234958  11.376  12.158   8.850
 5906POPC   C1A34959  11.304  12.054   8.550
 5906POPC   D2A34960  11.310  12.109   8.250
 5906POPC   C3A34961  11.262  12.086   7.950
 5906POPC   C4A34962  11.312  12.074   7.650
 5906POPC   C1B34963  11.332  12.293   8.550
 5906POPC   C2B34964  11.356  12.321   8.250
 5906POPC   C3B34965  11.314  12.315   7.950
 5906POPC   C4B34966  11.373  12.293   7.650
 5907POPC   NC334967  42.315  29.172   9.450
 5907POPC   PO434968  42.363  29.191   9.150
 5907POPC   GL134969  42.289  29.113   8.850
 5907POPC   GL234970  42.258  29.200   8.850
 5907POPC   C1A34971  42.319  29.190   8.550
 5907POPC   D2A34972  42.322  29.162   8.250
 5907POPC   C3A34973  42.378  29.114   7.950
 5907POPC   C4A34974  42.376  29.152   7.650
 5907POPC   C1B34975  42.100  29.184   8.550
 5907POPC   C2B34976  42.092  29.211   8.250
 5907POPC   C3B34977  42.075  29.223   7.950
 5907POPC   C4B34978  42.108  29.235   7.650
 5908POPC   NC334979  26.831  44.658   9.450
 5908POPC   PO434980  26.784  44.646   9.150
 5908POPC   GL134981  26.837  44.677   8.850
 5908POPC   GL234982  26.880  44.809   8.850
 5908POPC   C1A34983  26.787  44.686   8.550
 5908POPC   D2A34984  26.839  44.701   8.250
 5908POPC   C3A34985  26.769  44.660   7.950
 5908POPC   C4A34986  26.815  44.647   7.650
 5908POPC   C1B34987  26.906  44.949   8.550
 5908POPC   C2B34988  26.821  44.870   8.250
 5908POPC   C3B34989  26.847  44.940   7.950
 5908POPC   C4B34990  26.896  44.949   7.650
 5909POPC   NC334991  25.258  26.034   9.450
 5909POPC   PO434992  25.249  26.057   9.150
 5909POPC   GL134993  25.279  26.040   8.850
 5909POPC   GL234994  25.383  26.110   8.850
 5909POPC   C1A34995  25.261  26.018   8.550
 5909POPC   D2A34996  25.279  26.027   8.250
 5909POPC   C3A34997  25.288  26.079   7.950
 5909POPC   C4A34998  25.281  26.069   7.650
 5909POPC   C1B34999  25.459  26.185   8.550
 5909POPC   C2B35000  25.479  26.123   8.250
 5909POPC   C3B35001  25.448  26.143   7.950
 5909POPC   C4B35002  25.515  26.173   7.650
 5910POPC   NC335003  22.934  12.105   9.450
 5910POPC   PO435004  22.960  12.048   9.150
 5910POPC   GL135005  22.942  12.027   8.850
 5910POPC   GL235006  22.799  12.018   8.850
 5910POPC   C1A35007  22.982  12.035   8.550
 5910POPC   D2A35008  22.930  12.029   8.250
 5910POPC   C3A35009  22.979  12.029   7.950
 5910POPC   C4A35010  22.967  12.051   7.650
 5910POPC   C1B35011  22.736  11.910   8.550
 5910POPC   C2B35012  22.715  11.897   8.250
 5910POPC   C3B35013  22.686  11.939   7.950
 5910POPC   C4B35014  22.763  11.907   7.650
 5911POPC   NC335015  31.439  18.276   9.450
 5911POPC   PO435016  31.474  18.288   9.150
 5911POPC   GL135017  31.522  18.301   8.850
 5911POPC   GL235018  31.417  18.172   8.850
 5911POPC   C1A35019  31.451  18.244   8.550
 5911POPC   D2A35020  31.483  18.234   8.250
 5911POPC   C3A35021  31.439  18.310   7.950
 5911POPC   C4A35022  31.507  18.259   7.650
 5911POPC   C1B35023  31.388  18.054   8.550
 5911POPC   C2B35024  31.310  18.106   8.250
 5911POPC   C3B35025  31.345  18.039   7.950
 5911POPC   C4B35026  31.350  18.052   7.650
 5912POPC   NC335027  14.374  35.351   9.450
 5912POPC   PO435028  14.406  35.327   9.150
 5912POPC   GL135029  14.378  35.312   8.850
 5912POPC   GL235030  14.355  35.459   8.850
 5912POPC   C1A35031  14.445  35.377   8.550
 5912POPC   D2A35032  14.396  35.382   8.250
 5912POPC   C3A35033  14.440  35.366   7.950
 5912POPC   C4A35034  14.371  35.310   7.650
 5912POPC   C1B35035  14.299  35.550   8.550
 5912POPC   C2B35036  14.306  35.536   8.250
 5912POPC   C3B35037  14.353  35.581   7.950
 5912POPC   C4B35038  14.295  35.555   7.650
 5913POPC   NC335039  23.745   1.953   9.450
 5913POPC   PO435040  23.712   2.010   9.150
 5913POPC   GL135041  23.735   1.947   8.850
 5913POPC   GL235042  23.746   1.857   8.850
 5913POPC   C1A35043  23.670   2.005   8.550
 5913POPC   D2A35044  23.687   1.956   8.250
 5913POPC   C3A35045  23.728   2.034   7.950
 5913POPC   C4A35046  23.707   1.966   7.650
 5913POPC   C1B35047  23.863   1.826   8.550
 5913POPC   C2B35048  23.846   1.767   8.250
 5913POPC   C3B35049  23.825   1.734   7.950
 5913POPC   C4B35050  23.882   1.831   7.650
 5914POPC   NC335051  14.386  42.303   9.450
 5914POPC   PO435052  14.390  42.345   9.150
 5914POPC   GL135053  14.408  42.291   8.850
 5914POPC   GL235054  14.325  42.223   8.850
 5914POPC   C1A35055  14.354  42.291   8.550
 5914POPC   D2A35056  14.382  42.334   8.250
 5914POPC   C3A35057  14.403  42.334   7.950
 5914POPC   C4A35058  14.362  42.300   7.650
 5914POPC   C1B35059  14.308  42.091   8.550
 5914POPC   C2B35060  14.338  42.094   8.250
 5914POPC   C3B35061  14.307  42.074   7.950
 5914POPC   C4B35062  14.333  42.131   7.650
 5915POPC   NC335063  41.563  18.286   9.450
 5915POPC   PO435064  41.528  18.269   9.150
 5915POPC   GL135065  41.569  18.321   8.850
 5915POPC   GL235066  41.550  18.403   8.850
 5915POPC   C1A35067  41.566  18.250   8.550
 5915POPC   D2A35068  41.515  18.244   8.250
 5915POPC   C3A35069  41.522  18.278   7.950
 5915POPC   C4A35070  41.546  18.318   7.650
 5915POPC   C1B35071  41.482  18.565   8.550
 5915POPC   C2B35072  41.526  18.524   8.250
 5915POPC   C3B35073  41.504  18.549   7.950
 5915POPC   C4B35074  41.501  18.517   7.650
 5916POPC   NC335075  11.330   3.547   9.450
 5916POPC   PO435076  11.287   3.506   9.150
 5916POPC   GL135077  11.265   3.565   8.850
 5916POPC   GL235078  11.418   3.620   8.850
 5916POPC   C1A35079  11.285   3.499   8.550
 5916POPC   D2A35080  11.250   3.568   8.250
 5916POPC   C3A35081  11.323   3.525   7.950
 5916POPC   C4A35082  11.315   3.582   7.650
 5916POPC   C1B35083  11.511   3.687   8.550
 5916POPC   C2B35084  11.486   3.686   8.250
 5916POPC   C3B35085  11.462   3.712   7.950
 5916POPC   C4B35086  11.474   3.680   7.650
 5917POPC   NC335087  34.531  36.940   9.450
 5917POPC   PO435088  34.560  36.861   9.150
 5917POPC   GL135089  34.556  36.918   8.850
 5917POPC   GL235090  34.560  37.056   8.850
 5917POPC   C1A35091  34.566  36.943   8.550
 5917POPC   D2A35092  34.553  36.934   8.250
 5917POPC   C3A35093  34.536  36.926   7.950
 5917POPC   C4A35094  34.535  36.880   7.650
 5917POPC   C1B35095  34.511  37.133   8.550
 5917POPC   C2B35096  34.495  37.172   8.250
 5917POPC   C3B35097  34.498  37.111   7.950
 5917POPC   C4B35098  34.434  37.120   7.650
 5918POPC   NC335099  22.899   2.740   9.450
 5918POPC   PO435100  22.915   2.719   9.150
 5918POPC   GL135101  22.933   2.773   8.850
 5918POPC   GL235102  22.810   2.772   8.850
 5918POPC   C1A35103  22.891   2.773   8.550
 5918POPC   D2A35104  22.895   2.723   8.250
 5918POPC   C3A35105  22.909   2.751   7.950
 5918POPC   C4A35106  22.934   2.770   7.650
 5918POPC   C1B35107  22.705   2.786   8.550
 5918POPC   C2B35108  22.709   2.825   8.250
 5918POPC   C3B35109  22.670   2.806   7.950
 5918POPC   C4B35110  22.648   2.765   7.650
 5919POPC   NC335111   3.531  32.236   9.450
 5919POPC   PO435112   3.503  32.270   9.150
 5919POPC   GL135113   3.565  32.200   8.850
 5919POPC   GL235114   3.637  32.364   8.850
 5919POPC   C1A35115   3.524  32.273   8.550
 5919POPC   D2A35116   3.533  32.221   8.250
 5919POPC   C3A35117   3.569  32.272   7.950
 5919POPC   C4A35118   3.571  32.253   7.650
 5919POPC   C1B35119   3.736  32.442   8.550
 5919POPC   C2B35120   3.747  32.376   8.250
 5919POPC   C3B35121   3.713  32.382   7.950
 5919POPC   C4B35122   3.686  32.387   7.650
 5920POPC   NC335123  33.807  11.258   9.450
 5920POPC   PO435124  33.752  11.307   9.150
 5920POPC   GL135125  33.841  11.291   8.850
 5920POPC   GL235126  33.694  11.375   8.850
 5920POPC   C1A35127  33.842  11.294   8.550
 5920POPC   D2A35128  33.811  11.331   8.250
 5920POPC   C3A35129  33.782  11.267   7.950
 5920POPC   C4A35130  33.772  11.275   7.650
 5920POPC   C1B35131  33.551  11.409   8.550
 5920POPC   C2B35132  33.575  11.396   8.250
 5920POPC   C3B35133  33.525  11.371   7.950
 5920POPC   C4B35134  33.577  11.399   7.650
 5921POPC   NC335135  19.054  29.955   9.450
 5921POPC   PO435136  19.063  29.914   9.150
 5921POPC   GL135137  19.089  29.959   8.850
 5921POPC   GL235138  19.107  30.062   8.850
 5921POPC   C1A35139  19.074  29.936   8.550
 5921POPC   D2A35140  19.047  29.941   8.250
 5921POPC   C3A35141  19.102  29.952   7.950
 5921POPC   C4A35142  19.073  29.920   7.650
 5921POPC   C1B35143  19.193  30.160   8.550
 5921POPC   C2B35144  19.195  30.156   8.250
 5921POPC   C3B35145  19.113  30.157   7.950
 5921POPC   C4B35146  19.114  30.170   7.650
 5922POPC   NC335147  25.258  29.960   9.450
 5922POPC   PO435148  25.244  29.899   9.150
 5922POPC   GL135149  25.290  29.902   8.850
 5922POPC   GL235150  25.380  29.888   8.850
 5922POPC   C1A35151  25.301  29.927   8.550
 5922POPC   D2A35152  25.249  29.898   8.250
 5922POPC   C3A35153  25.299  29.873   7.950
 5922POPC   C4A35154  25.223  29.911   7.650
 5922POPC   C1B35155  25.529  29.835   8.550
 5922POPC   C2B35156  25.507  29.844   8.250
 5922POPC   C3B35157  25.482  29.889   7.950
 5922POPC   C4B35158  25.528  29.857   7.650
 5923POPC   NC335159  42.368   3.502   9.450
 5923POPC   PO435160  42.349   3.497   9.150
 5923POPC   GL135161  42.364   3.547   8.850
 5923POPC   GL235162  42.268   3.513   8.850
 5923POPC   C1A35163  42.292   3.538   8.550
 5923POPC   D2A35164  42.331   3.497   8.250
 5923POPC   C3A35165  42.370   3.531   7.950
 5923POPC   C4A35166  42.306   3.549   7.650
 5923POPC   C1B35167  42.059   3.424   8.550
 5923POPC   C2B35168  42.065   3.437   8.250
 5923POPC   C3B35169  42.083   3.466   7.950
 5923POPC   C4B35170  42.112   3.450   7.650
 5924POPC   NC335171  43.892  15.196   9.450
 5924POPC   PO435172  43.930  15.160   9.150
 5924POPC   GL135173  43.913  15.160   8.850
 5924POPC   GL235174  43.768  15.217   8.850
 5924POPC   C1A35175  43.867  15.191   8.550
 5924POPC   D2A35176  43.861  15.135   8.250
 5924POPC   C3A35177  43.867  15.188   7.950
 5924POPC   C4A35178  43.878  15.214   7.650
 5924POPC   C1B35179  43.675  15.387   8.550
 5924POPC   C2B35180  43.713  15.353   8.250
 5924POPC   C3B35181  43.656  15.344   7.950
 5924POPC   C4B35182  43.741  15.305   7.650
 5925POPC   NC335183  22.966   1.944   9.450
 5925POPC   PO435184  22.915   1.984   9.150
 5925POPC   GL135185  22.918   1.976   8.850
 5925POPC   GL235186  22.875   2.050   8.850
 5925POPC   C1A35187  22.979   1.974   8.550
 5925POPC   D2A35188  22.892   1.982   8.250
 5925POPC   C3A35189  22.899   1.984   7.950
 5925POPC   C4A35190  22.972   1.979   7.650
 5925POPC   C1B35191  22.766   2.144   8.550
 5925POPC   C2B35192  22.788   2.192   8.250
 5925POPC   C3B35193  22.769   2.202   7.950
 5925POPC   C4B35194  22.763   2.153   7.650
 5926POPC   NC335195  41.588  19.023   9.450
 5926POPC   PO435196  41.561  19.029   9.150
 5926POPC   GL135197  41.573  19.069   8.850
 5926POPC   GL235198  41.408  19.015   8.850
 5926POPC   C1A35199  41.537  19.087   8.550
 5926POPC   D2A35200  41.560  19.099   8.250
 5926POPC   C3A35201  41.512  19.037   7.950
 5926POPC   C4A35202  41.562  19.025   7.650
 5926POPC   C1B35203  41.329  18.982   8.550
 5926POPC   C2B35204  41.336  19.015   8.250
 5926POPC   C3B35205  41.339  19.033   7.950
 5926POPC   C4B35206  41.299  19.028   7.650
 5927POPC   NC335207  43.070   3.550   9.450
 5927POPC   PO435208  43.130   3.541   9.150
 5927POPC   GL135209  43.098   3.588   8.850
 5927POPC   GL235210  43.154   3.370   8.850
 5927POPC   C1A35211  43.120   3.555   8.550
 5927POPC   D2A35212  43.130   3.522   8.250
 5927POPC   C3A35213  43.140   3.507   7.950
 5927POPC   C4A35214  43.150   3.495   7.650
 5927POPC   C1B35215  43.080   3.303   8.550
 5927POPC   C2B35216  43.118   3.300   8.250
 5927POPC   C3B35217  43.137   3.325   7.950
 5927POPC   C4B35218  43.056   3.326   7.650
 5928POPC   NC335219  34.544  43.135   9.450
 5928POPC   PO435220  34.618  43.108   9.150
 5928POPC   GL135221  34.558  43.103   8.850
 5928POPC   GL235222  34.521  43.189   8.850
 5928POPC   C1A35223  34.534  43.110   8.550
 5928POPC   D2A35224  34.605  43.094   8.250
 5928POPC   C3A35225  34.545  43.147   7.950
 5928POPC   C4A35226  34.582  43.124   7.650
 5928POPC   C1B35227  34.464  43.361   8.550
 5928POPC   C2B35228  34.493  43.341   8.250
 5928POPC   C3B35229  34.414  43.341   7.950
 5928POPC   C4B35230  34.506  43.347   7.650
 5929POPC   NC335231   7.375  35.330   9.450
 5929POPC   PO435232   7.447  35.399   9.150
 5929POPC   GL135233   7.393  35.320   8.850
 5929POPC   GL235234   7.320  35.479   8.850
 5929POPC   C1A35235   7.452  35.360   8.550
 5929POPC   D2A35236   7.459  35.396   8.250
 5929POPC   C3A35237   7.391  35.327   7.950
 5929POPC   C4A35238   7.399  35.381   7.650
 5929POPC   C1B35239   7.250  35.514   8.550
 5929POPC   C2B35240   7.258  35.520   8.250
 5929POPC   C3B35241   7.269  35.588   7.950
 5929POPC   C4B35242   7.274  35.591   7.650
 5930POPC   NC335243   7.424  23.707   9.450
 5930POPC   PO435244   7.437  23.735   9.150
 5930POPC   GL135245   7.460  23.755   8.850
 5930POPC   GL235246   7.351  23.606   8.850
 5930POPC   C1A35247   7.445  23.686   8.550
 5930POPC   D2A35248   7.464  23.746   8.250
 5930POPC   C3A35249   7.458  23.735   7.950
 5930POPC   C4A35250   7.436  23.750   7.650
 5930POPC   C1B35251   7.228  23.573   8.550
 5930POPC   C2B35252   7.235  23.516   8.250
 5930POPC   C3B35253   7.229  23.571   7.950
 5930POPC   C4B35254   7.232  23.529   7.650
 5931POPC   NC335255  32.990   2.767   9.450
 5931POPC   PO435256  32.998   2.729   9.150
 5931POPC   GL135257  32.975   2.742   8.850
 5931POPC   GL235258  33.102   2.832   8.850
 5931POPC   C1A35259  33.007   2.734   8.550
 5931POPC   D2A35260  32.982   2.749   8.250
 5931POPC   C3A35261  33.055   2.755   7.950
 5931POPC   C4A35262  33.070   2.799   7.650
 5931POPC   C1B35263  33.185   2.915   8.550
 5931POPC   C2B35264  33.219   2.947   8.250
 5931POPC   C3B35265  33.237   2.891   7.950
 5931POPC   C4B35266  33.255   2.895   7.650
 5932POPC   NC335267  40.767  17.550   9.450
 5932POPC   PO435268  40.817  17.469   9.150
 5932POPC   GL135269  40.786  17.471   8.850
 5932POPC   GL235270  40.882  17.406   8.850
 5932POPC   C1A35271  40.767  17.484   8.550
 5932POPC   D2A35272  40.823  17.527   8.250
 5932POPC   C3A35273  40.744  17.494   7.950
 5932POPC   C4A35274  40.825  17.503   7.650
 5932POPC   C1B35275  41.007  17.415   8.550
 5932POPC   C2B35276  41.007  17.389   8.250
 5932POPC   C3B35277  41.023  17.429   7.950
 5932POPC   C4B35278  41.029  17.391   7.650
 5933POPC   NC335279   6.671  35.317   9.450
 5933POPC   PO435280   6.689  35.357   9.150
 5933POPC   GL135281   6.624  35.322   8.850
 5933POPC   GL235282   6.697  35.484   8.850
 5933POPC   C1A35283   6.680  35.304   8.550
 5933POPC   D2A35284   6.690  35.302   8.250
 5933POPC   C3A35285   6.598  35.362   7.950
 5933POPC   C4A35286   6.605  35.348   7.650
 5933POPC   C1B35287   6.788  35.562   8.550
 5933POPC   C2B35288   6.812  35.525   8.250
 5933POPC   C3B35289   6.825  35.593   7.950
 5933POPC   C4B35290   6.842  35.512   7.650
 5934POPC   NC335291  41.601  12.085   9.450
 5934POPC   PO435292  41.550  12.086   9.150
 5934POPC   GL135293  41.602  12.110   8.850
 5934POPC   GL235294  41.493  12.122   8.850
 5934POPC   C1A35295  41.588  12.046   8.550
 5934POPC   D2A35296  41.564  12.098   8.250
 5934POPC   C3A35297  41.601  12.045   7.950
 5934POPC   C4A35298  41.591  12.121   7.650
 5934POPC   C1B35299  41.331  12.201   8.550
 5934POPC   C2B35300  41.365  12.160   8.250
 5934POPC   C3B35301  41.283  12.140   7.950
 5934POPC   C4B35302  41.358  12.197   7.650
 5935POPC   NC335303  18.268  29.942   9.450
 5935POPC   PO435304  18.242  29.927   9.150
 5935POPC   GL135305  18.261  29.901   8.850
 5935POPC   GL235306  18.178  29.909   8.850
 5935POPC   C1A35307  18.247  29.882   8.550
 5935POPC   D2A35308  18.282  29.941   8.250
 5935POPC   C3A35309  18.317  29.961   7.950
 5935POPC   C4A35310  18.243  29.941   7.650
 5935POPC   C1B35311  18.017  29.898   8.550
 5935POPC   C2B35312  18.074  29.934   8.250
 5935POPC   C3B35313  18.018  29.845   7.950
 5935POPC   C4B35314  18.075  29.889   7.650
 5936POPC   NC335315  13.676   6.628   9.450
 5936POPC   PO435316  13.660   6.681   9.150
 5936POPC   GL135317  13.645   6.634   8.850
 5936POPC   GL235318  13.643   6.768   8.850
 5936POPC   C1A35319  13.655   6.677   8.550
 5936POPC   D2A35320  13.639   6.657   8.250
 5936POPC   C3A35321  13.601   6.686   7.950
 5936POPC   C4A35322  13.648   6.658   7.650
 5936POPC   C1B35323  13.696   6.903   8.550
 5936POPC   C2B35324  13.739   6.880   8.250
 5936POPC   C3B35325  13.768   6.879   7.950
 5936POPC   C4B35326  13.716   6.879   7.650
 5937POPC   NC335327  19.053   0.440   9.450
 5937POPC   PO435328  19.092   0.397   9.150
 5937POPC   GL135329  19.012   0.430   8.850
 5937POPC   GL235330  19.130   0.577   8.850
 5937POPC   C1A35331  19.064   0.441   8.550
 5937POPC   D2A35332  19.078   0.390   8.250
 5937POPC   C3A35333  19.060   0.396   7.950
 5937POPC   C4A35334  19.097   0.420   7.650
 5937POPC   C1B35335  19.220   0.663   8.550
 5937POPC   C2B35336  19.246   0.673   8.250
 5937POPC   C3B35337  19.219   0.635   7.950
 5937POPC   C4B35338  19.248   0.594   7.650
 5938POPC   NC335339  19.074  36.173   9.450
 5938POPC   PO435340  19.047  36.137   9.150
 5938POPC   GL135341  19.015  36.122   8.850
 5938POPC   GL235342  19.040  36.236   8.850
 5938POPC   C1A35343  19.069  36.163   8.550
 5938POPC   D2A35344  19.025  36.089   8.250
 5938POPC   C3A35345  19.031  36.081   7.950
 5938POPC   C4A35346  19.044  36.099   7.650
 5938POPC   C1B35347  18.912  36.357   8.550
 5938POPC   C2B35348  18.881  36.345   8.250
 5938POPC   C3B35349  18.929  36.387   7.950
 5938POPC   C4B35350  18.881  36.314   7.650
 5939POPC   NC335351  12.898  34.607   9.450
 5939POPC   PO435352  12.869  34.539   9.150
 5939POPC   GL135353  12.859  34.614   8.850
 5939POPC   GL235354  12.937  34.535   8.850
 5939POPC   C1A35355  12.840  34.538   8.550
 5939POPC   D2A35356  12.855  34.607   8.250
 5939POPC   C3A35357  12.862  34.581   7.950
 5939POPC   C4A35358  12.841  34.551   7.650
 5939POPC   C1B35359  13.033  34.415   8.550
 5939POPC   C2B35360  13.107  34.486   8.250
 5939POPC   C3B35361  13.021  34.444   7.950
 5939POPC   C4B35362  13.099  34.437   7.650
 5940POPC   NC335363  41.530  20.576   9.450
 5940POPC   PO435364  41.598  20.594   9.150
 5940POPC   GL135365  41.530  20.580   8.850
 5940POPC   GL235366  41.595  20.437   8.850
 5940POPC   C1A35367  41.571  20.571   8.550
 5940POPC   D2A35368  41.575  20.629   8.250
 5940POPC   C3A35369  41.596  20.629   7.950
 5940POPC   C4A35370  41.606  20.634   7.650
 5940POPC   C1B35371  41.564  20.358   8.550
 5940POPC   C2B35372  41.545  20.368   8.250
 5940POPC   C3B35373  41.508  20.318   7.950
 5940POPC   C4B35374  41.564  20.311   7.650
 5941POPC   NC335375   9.729  43.106   9.450
 5941POPC   PO435376   9.706  43.082   9.150
 5941POPC   GL135377   9.792  43.099   8.850
 5941POPC   GL235378   9.717  42.994   8.850
 5941POPC   C1A35379   9.721  43.081   8.550
 5941POPC   D2A35380   9.780  43.095   8.250
 5941POPC   C3A35381   9.763  43.083   7.950
 5941POPC   C4A35382   9.716  43.150   7.650
 5941POPC   C1B35383   9.632  42.886   8.550
 5941POPC   C2B35384   9.547  42.874   8.250
 5941POPC   C3B35385   9.575  42.899   7.950
 5941POPC   C4B35386   9.635  42.935   7.650
 5942POPC   NC335387   5.132  23.699   9.450
 5942POPC   PO435388   5.073  23.685   9.150
 5942POPC   GL135389   5.060  23.761   8.850
 5942POPC   GL235390   5.046  23.629   8.850
 5942POPC   C1A35391   5.121  23.758   8.550
 5942POPC   D2A35392   5.088  23.678   8.250
 5942POPC   C3A35393   5.113  23.683   7.950
 5942POPC   C4A35394   5.128  23.756   7.650
 5942POPC   C1B35395   4.964  23.536   8.550
 5942POPC   C2B35396   4.957  23.537   8.250
 5942POPC   C3B35397   4.917  23.525   7.950
 5942POPC   C4B35398   4.964  23.469   7.650
 5943POPC   NC335399  23.671   3.581   9.450
 5943POPC   PO435400  23.676   3.538   9.150
 5943POPC   GL135401  23.758   3.493   8.850
 5943POPC   GL235402  23.856   3.454   8.850
 5943POPC   C1A35403  23.667   3.543   8.550
 5943POPC   D2A35404  23.741   3.559   8.250
 5943POPC   C3A35405  23.716   3.574   7.950
 5943POPC   C4A35406  23.721   3.529   7.650
 5943POPC   C1B35407  23.937   3.401   8.550
 5943POPC   C2B35408  23.974   3.427   8.250
 5943POPC   C3B35409  23.921   3.403   7.950
 5943POPC   C4B35410  23.943   3.439   7.650
 5944POPC   NC335411  33.056  13.654   9.450
 5944POPC   PO435412  33.025  13.666   9.150
 5944POPC   GL135413  32.996  13.620   8.850
 5944POPC   GL235414  33.089  13.488   8.850
 5944POPC   C1A35415  33.074  13.657   8.550
 5944POPC   D2A35416  33.003  13.639   8.250
 5944POPC   C3A35417  33.066  13.647   7.950
 5944POPC   C4A35418  32.997  13.629   7.650
 5944POPC   C1B35419  33.097  13.419   8.550
 5944POPC   C2B35420  33.074  13.418   8.250
 5944POPC   C3B35421  33.125  13.342   7.950
 5944POPC   C4B35422  33.049  13.336   7.650
 5945POPC   NC335423  15.219  43.913   9.450
 5945POPC   PO435424  15.224  43.915   9.150
 5945POPC   GL135425  15.143  43.853   8.850
 5945POPC   GL235426  15.157  44.035   8.850
 5945POPC   C1A35427  15.139  43.928   8.550
 5945POPC   D2A35428  15.188  43.925   8.250
 5945POPC   C3A35429  15.169  43.890   7.950
 5945POPC   C4A35430  15.148  43.931   7.650
 5945POPC   C1B35431  15.180  44.126   8.550
 5945POPC   C2B35432  15.229  44.174   8.250
 5945POPC   C3B35433  15.173  44.155   7.950
 5945POPC   C4B35434  15.210  44.166   7.650
 5946POPC   NC335435  15.995   8.989   9.450
 5946POPC   PO435436  15.990   8.946   9.150
 5946POPC   GL135437  15.951   8.993   8.850
 5946POPC   GL235438  16.061   8.968   8.850
 5946POPC   C1A35439  15.967   9.001   8.550
 5946POPC   D2A35440  16.005   9.012   8.250
 5946POPC   C3A35441  15.946   8.964   7.950
 5946POPC   C4A35442  15.943   8.999   7.650
 5946POPC   C1B35443  16.164   8.965   8.550
 5946POPC   C2B35444  16.250   9.014   8.250
 5946POPC   C3B35445  16.186   8.977   7.950
 5946POPC   C4B35446  16.216   9.017   7.650
 5947POPC   NC335447  10.547  11.289   9.450
 5947POPC   PO435448  10.526  11.279   9.150
 5947POPC   GL135449  10.517  11.287   8.850
 5947POPC   GL235450  10.447  11.191   8.850
 5947POPC   C1A35451  10.500  11.269   8.550
 5947POPC   D2A35452  10.558  11.316   8.250
 5947POPC   C3A35453  10.502  11.306   7.950
 5947POPC   C4A35454  10.570  11.313   7.650
 5947POPC   C1B35455  10.336  11.119   8.550
 5947POPC   C2B35456  10.331  11.103   8.250
 5947POPC   C3B35457  10.349  11.130   7.950
 5947POPC   C4B35458  10.398  11.088   7.650
 5948POPC   NC335459  24.493  33.828   9.450
 5948POPC   PO435460  24.497  33.761   9.150
 5948POPC   GL135461  24.443  33.777   8.850
 5948POPC   GL235462  24.457  33.952   8.850
 5948POPC   C1A35463  24.521  33.779   8.550
 5948POPC   D2A35464  24.539  33.819   8.250
 5948POPC   C3A35465  24.537  33.777   7.950
 5948POPC   C4A35466  24.441  33.789   7.650
 5948POPC   C1B35467  24.486  34.054   8.550
 5948POPC   C2B35468  24.487  34.036   8.250
 5948POPC   C3B35469  24.484  34.066   7.950
 5948POPC   C4B35470  24.488  34.080   7.650
 5949POPC   NC335471  41.521  30.683   9.450
 5949POPC   PO435472  41.589  30.684   9.150
 5949POPC   GL135473  41.569  30.745   8.850
 5949POPC   GL235474  41.488  30.572   8.850
 5949POPC   C1A35475  41.555  30.722   8.550
 5949POPC   D2A35476  41.582  30.718   8.250
 5949POPC   C3A35477  41.531  30.725   7.950
 5949POPC   C4A35478  41.526  30.691   7.650
 5949POPC   C1B35479  41.409  30.470   8.550
 5949POPC   C2B35480  41.466  30.462   8.250
 5949POPC   C3B35481  41.399  30.520   7.950
 5949POPC   C4B35482  41.467  30.515   7.650
 5950POPC   NC335483  28.345   1.190   9.450
 5950POPC   PO435484  28.331   1.194   9.150
 5950POPC   GL135485  28.347   1.216   8.850
 5950POPC   GL235486  28.203   1.187   8.850
 5950POPC   C1A35487  28.390   1.196   8.550
 5950POPC   D2A35488  28.416   1.254   8.250
 5950POPC   C3A35489  28.378   1.188   7.950
 5950POPC   C4A35490  28.324   1.222   7.650
 5950POPC   C1B35491  28.113   1.167   8.550
 5950POPC   C2B35492  28.105   1.138   8.250
 5950POPC   C3B35493  28.119   1.116   7.950
 5950POPC   C4B35494  28.138   1.105   7.650
 5951POPC   NC335495   5.067   6.608   9.450
 5951POPC   PO435496   5.059   6.658   9.150
 5951POPC   GL135497   5.069   6.678   8.850
 5951POPC   GL235498   5.046   6.733   8.850
 5951POPC   C1A35499   5.139   6.602   8.550
 5951POPC   D2A35500   5.053   6.662   8.250
 5951POPC   C3A35501   5.073   6.652   7.950
 5951POPC   C4A35502   5.126   6.648   7.650
 5951POPC   C1B35503   5.012   6.870   8.550
 5951POPC   C2B35504   4.944   6.833   8.250
 5951POPC   C3B35505   4.962   6.828   7.950
 5951POPC   C4B35506   4.927   6.824   7.650
 5952POPC   NC335507  26.009   8.989   9.450
 5952POPC   PO435508  26.066   9.013   9.150
 5952POPC   GL135509  26.027   8.982   8.850
 5952POPC   GL235510  26.063   9.135   8.850
 5952POPC   C1A35511  26.031   8.926   8.550
 5952POPC   D2A35512  26.086   8.978   8.250
 5952POPC   C3A35513  26.087   8.977   7.950
 5952POPC   C4A35514  26.001   8.976   7.650
 5952POPC   C1B35515  26.061   9.255   8.550
 5952POPC   C2B35516  26.015   9.264   8.250
 5952POPC   C3B35517  25.998   9.249   7.950
 5952POPC   C4B35518  25.984   9.215   7.650
 5953POPC   NC335519  40.056   5.086   9.450
 5953POPC   PO435520  40.055   5.115   9.150
 5953POPC   GL135521  39.996   5.047   8.850
 5953POPC   GL235522  40.134   5.177   8.850
 5953POPC   C1A35523  40.056   5.090   8.550
 5953POPC   D2A35524  39.976   5.135   8.250
 5953POPC   C3A35525  40.002   5.080   7.950
 5953POPC   C4A35526  39.999   5.141   7.650
 5953POPC   C1B35527  40.166   5.239   8.550
 5953POPC   C2B35528  40.132   5.236   8.250
 5953POPC   C3B35529  40.138   5.309   7.950
 5953POPC   C4B35530  40.162   5.284   7.650
 5954POPC   NC335531  22.205  30.650   9.450
 5954POPC   PO435532  22.114  30.660   9.150
 5954POPC   GL135533  22.169  30.711   8.850
 5954POPC   GL235534  22.275  30.766   8.850
 5954POPC   C1A35535  22.146  30.698   8.550
 5954POPC   D2A35536  22.116  30.716   8.250
 5954POPC   C3A35537  22.121  30.678   7.950
 5954POPC   C4A35538  22.200  30.745   7.650
 5954POPC   C1B35539  22.295  30.915   8.550
 5954POPC   C2B35540  22.292  30.847   8.250
 5954POPC   C3B35541  22.332  30.916   7.950
 5954POPC   C4B35542  22.330  30.876   7.650
 5955POPC   NC335543  19.836  22.946   9.450
 5955POPC   PO435544  19.826  22.904   9.150
 5955POPC   GL135545  19.844  22.978   8.850
 5955POPC   GL235546  19.965  22.925   8.850
 5955POPC   C1A35547  19.818  22.973   8.550
 5955POPC   D2A35548  19.806  22.945   8.250
 5955POPC   C3A35549  19.840  22.915   7.950
 5955POPC   C4A35550  19.841  22.968   7.650
 5955POPC   C1B35551  20.009  22.804   8.550
 5955POPC   C2B35552  20.029  22.830   8.250
 5955POPC   C3B35553  20.009  22.786   7.950
 5955POPC   C4B35554  20.031  22.829   7.650
 5956POPC   NC335555   2.015  38.482   9.450
 5956POPC   PO435556   1.979  38.475   9.150
 5956POPC   GL135557   1.990  38.469   8.850
 5956POPC   GL235558   1.862  38.515   8.850
 5956POPC   C1A35559   1.979  38.463   8.550
 5956POPC   D2A35560   2.003  38.487   8.250
 5956POPC   C3A35561   1.952  38.417   7.950
 5956POPC   C4A35562   1.980  38.426   7.650
 5956POPC   C1B35563   1.794  38.655   8.550
 5956POPC   C2B35564   1.792  38.636   8.250
 5956POPC   C3B35565   1.797  38.573   7.950
 5956POPC   C4B35566   1.768  38.624   7.650
 5957POPC   NC335567  21.409   5.879   9.450
 5957POPC   PO435568  21.370   5.879   9.150
 5957POPC   GL135569  21.348   5.846   8.850
 5957POPC   GL235570  21.536   5.900   8.850
 5957POPC   C1A35571  21.381   5.874   8.550
 5957POPC   D2A35572  21.386   5.853   8.250
 5957POPC   C3A35573  21.430   5.911   7.950
 5957POPC   C4A35574  21.368   5.879   7.650
 5957POPC   C1B35575  21.590   5.801   8.550
 5957POPC   C2B35576  21.658   5.823   8.250
 5957POPC   C3B35577  21.641   5.822   7.950
 5957POPC   C4B35578  21.627   5.820   7.650
 5958POPC   NC335579  24.469  44.685   9.450
 5958POPC   PO435580  24.461  44.667   9.150
 5958POPC   GL135581  24.480  44.641   8.850
 5958POPC   GL235582  24.551  44.550   8.850
 5958POPC   C1A35583  24.504  44.653   8.550
 5958POPC   D2A35584  24.447  44.672   8.250
 5958POPC   C3A35585  24.448  44.654   7.950
 5958POPC   C4A35586  24.525  44.636   7.650
 5958POPC   C1B35587  24.725  44.513   8.550
 5958POPC   C2B35588  24.728  44.515   8.250
 5958POPC   C3B35589  24.723  44.521   7.950
 5958POPC   C4B35590  24.752  44.541   7.650
 5959POPC   NC335591  36.917  22.951   9.450
 5959POPC   PO435592  36.869  22.917   9.150
 5959POPC   GL135593  36.868  22.986   8.850
 5959POPC   GL235594  37.003  22.905   8.850
 5959POPC   C1A35595  36.882  22.971   8.550
 5959POPC   D2A35596  36.857  22.914   8.250
 5959POPC   C3A35597  36.877  22.949   7.950
 5959POPC   C4A35598  36.869  22.957   7.650
 5959POPC   C1B35599  37.148  22.881   8.550
 5959POPC   C2B35600  37.117  22.865   8.250
 5959POPC   C3B35601  37.183  22.924   7.950
 5959POPC   C4B35602  37.169  22.888   7.650
 5960POPC   NC335603  20.588  22.197   9.450
 5960POPC   PO435604  20.646  22.149   9.150
 5960POPC   GL135605  20.640  22.169   8.850
 5960POPC   GL235606  20.582  22.018   8.850
 5960POPC   C1A35607  20.619  22.138   8.550
 5960POPC   D2A35608  20.606  22.201   8.250
 5960POPC   C3A35609  20.572  22.126   7.950
 5960POPC   C4A35610  20.632  22.204   7.650
 5960POPC   C1B35611  20.501  22.003   8.550
 5960POPC   C2B35612  20.465  21.946   8.250
 5960POPC   C3B35613  20.463  21.954   7.950
 5960POPC   C4B35614  20.455  22.010   7.650
 5961POPC   NC335615  15.994  43.899   9.450
 5961POPC   PO435616  15.995  43.896   9.150
 5961POPC   GL135617  15.992  43.850   8.850
 5961POPC   GL235618  16.051  44.024   8.850
 5961POPC   C1A35619  15.930  43.855   8.550
 5961POPC   D2A35620  15.957  43.849   8.250
 5961POPC   C3A35621  15.957  43.867   7.950
 5961POPC   C4A35622  16.000  43.894   7.650
 5961POPC   C1B35623  16.099  44.084   8.550
 5961POPC   C2B35624  16.139  44.118   8.250
 5961POPC   C3B35625  16.149  44.072   7.950
 5961POPC   C4B35626  16.114  44.061   7.650
 5962POPC   NC335627  35.340   7.440   9.450
 5962POPC   PO435628  35.360   7.430   9.150
 5962POPC   GL135629  35.388   7.398   8.850
 5962POPC   GL235630  35.368   7.514   8.850
 5962POPC   C1A35631  35.337   7.404   8.550
 5962POPC   D2A35632  35.369   7.456   8.250
 5962POPC   C3A35633  35.376   7.407   7.950
 5962POPC   C4A35634  35.385   7.387   7.650
 5962POPC   C1B35635  35.355   7.704   8.550
 5962POPC   C2B35636  35.380   7.658   8.250
 5962POPC   C3B35637  35.384   7.640   7.950
 5962POPC   C4B35638  35.370   7.702   7.650
 5963POPC   NC335639  23.703  28.332   9.450
 5963POPC   PO435640  23.693  28.368   9.150
 5963POPC   GL135641  23.741  28.371   8.850
 5963POPC   GL235642  23.804  28.338   8.850
 5963POPC   C1A35643  23.689  28.389   8.550
 5963POPC   D2A35644  23.693  28.418   8.250
 5963POPC   C3A35645  23.753  28.383   7.950
 5963POPC   C4A35646  23.734  28.340   7.650
 5963POPC   C1B35647  23.952  28.258   8.550
 5963POPC   C2B35648  23.979  28.290   8.250
 5963POPC   C3B35649  23.946  28.267   7.950
 5963POPC   C4B35650  23.949  28.318   7.650
 5964POPC   NC335651  25.230  28.411   9.450
 5964POPC   PO435652  25.223  28.332   9.150
 5964POPC   GL135653  25.286  28.387   8.850
 5964POPC   GL235654  25.352  28.211   8.850
 5964POPC   C1A35655  25.222  28.360   8.550
 5964POPC   D2A35656  25.282  28.333   8.250
 5964POPC   C3A35657  25.288  28.414   7.950
 5964POPC   C4A35658  25.302  28.367   7.650
 5964POPC   C1B35659  25.424  28.193   8.550
 5964POPC   C2B35660  25.374  28.113   8.250
 5964POPC   C3B35661  25.399  28.133   7.950
 5964POPC   C4B35662  25.423  28.145   7.650
 5965POPC   NC335663  43.146  33.779   9.450
 5965POPC   PO435664  43.097  33.767   9.150
 5965POPC   GL135665  43.083  33.810   8.850
 5965POPC   GL235666  43.044  33.721   8.850
 5965POPC   C1A35667  43.112  33.809   8.550
 5965POPC   D2A35668  43.136  33.807   8.250
 5965POPC   C3A35669  43.072  33.763   7.950
 5965POPC   C4A35670  43.080  33.785   7.650
 5965POPC   C1B35671  42.980  33.611   8.550
 5965POPC   C2B35672  43.037  33.535   8.250
 5965POPC   C3B35673  43.031  33.611   7.950
 5965POPC   C4B35674  43.056  33.524   7.650
 5966POPC   NC335675   2.718  21.435   9.450
 5966POPC   PO435676   2.732  21.358   9.150
 5966POPC   GL135677   2.798  21.368   8.850
 5966POPC   GL235678   2.828  21.352   8.850
 5966POPC   C1A35679   2.785  21.420   8.550
 5966POPC   D2A35680   2.792  21.371   8.250
 5966POPC   C3A35681   2.772  21.424   7.950
 5966POPC   C4A35682   2.803  21.393   7.650
 5966POPC   C1B35683   3.001  21.310   8.550
 5966POPC   C2B35684   2.958  21.288   8.250
 5966POPC   C3B35685   2.973  21.298   7.950
 5966POPC   C4B35686   3.028  21.239   7.650
 5967POPC   NC335687   4.335  41.549   9.450
 5967POPC   PO435688   4.311  41.576   9.150
 5967POPC   GL135689   4.330  41.597   8.850
 5967POPC   GL235690   4.333  41.449   8.850
 5967POPC   C1A35691   4.357  41.539   8.550
 5967POPC   D2A35692   4.350  41.598   8.250
 5967POPC   C3A35693   4.352  41.553   7.950
 5967POPC   C4A35694   4.345  41.517   7.650
 5967POPC   C1B35695   4.420  41.377   8.550
 5967POPC   C2B35696   4.403  41.332   8.250
 5967POPC   C3B35697   4.452  41.366   7.950
 5967POPC   C4B35698   4.459  41.340   7.650
 5968POPC   NC335699   8.976  10.514   9.450
 5968POPC   PO435700   8.962  10.574   9.150
 5968POPC   GL135701   8.969  10.554   8.850
 5968POPC   GL235702   9.064  10.367   8.850
 5968POPC   C1A35703   8.997  10.510   8.550
 5968POPC   D2A35704   8.941  10.533   8.250
 5968POPC   C3A35705   8.923  10.523   7.950
 5968POPC   C4A35706   8.996  10.493   7.650
 5968POPC   C1B35707   9.094  10.305   8.550
 5968POPC   C2B35708   9.068  10.301   8.250
 5968POPC   C3B35709   9.106  10.295   7.950
 5968POPC   C4B35710   9.078  10.340   7.650
 5969POPC   NC335711  34.609  41.531   9.450
 5969POPC   PO435712  34.563  41.537   9.150
 5969POPC   GL135713  34.612  41.538   8.850
 5969POPC   GL235714  34.576  41.467   8.850
 5969POPC   C1A35715  34.610  41.589   8.550
 5969POPC   D2A35716  34.593  41.554   8.250
 5969POPC   C3A35717  34.620  41.533   7.950
 5969POPC   C4A35718  34.588  41.592   7.650
 5969POPC   C1B35719  34.572  41.327   8.550
 5969POPC   C2B35720  34.602  41.348   8.250
 5969POPC   C3B35721  34.601  41.302   7.950
 5969POPC   C4B35722  34.565  41.327   7.650
 5970POPC   NC335723  23.757  36.131   9.450
 5970POPC   PO435724  23.733  36.086   9.150
 5970POPC   GL135725  23.666  36.099   8.850
 5970POPC   GL235726  23.780  35.982   8.850
 5970POPC   C1A35727  23.754  36.163   8.550
 5970POPC   D2A35728  23.666  36.177   8.250
 5970POPC   C3A35729  23.728  36.135   7.950
 5970POPC   C4A35730  23.739  36.176   7.650
 5970POPC   C1B35731  23.769  35.859   8.550
 5970POPC   C2B35732  23.731  35.879   8.250
 5970POPC   C3B35733  23.795  35.908   7.950
 5970POPC   C4B35734  23.742  35.844   7.650
 5971POPC   NC335735   1.979  39.247   9.450
 5971POPC   PO435736   1.978  39.214   9.150
 5971POPC   GL135737   2.021  39.220   8.850
 5971POPC   GL235738   2.058  39.369   8.850
 5971POPC   C1A35739   1.948  39.223   8.550
 5971POPC   D2A35740   1.950  39.234   8.250
 5971POPC   C3A35741   2.026  39.218   7.950
 5971POPC   C4A35742   1.988  39.191   7.650
 5971POPC   C1B35743   2.081  39.501   8.550
 5971POPC   C2B35744   2.063  39.480   8.250
 5971POPC   C3B35745   2.010  39.502   7.950
 5971POPC   C4B35746   2.055  39.505   7.650
 5972POPC   NC335747  20.628  29.112   9.450
 5972POPC   PO435748  20.576  29.158   9.150
 5972POPC   GL135749  20.584  29.147   8.850
 5972POPC   GL235750  20.541  29.264   8.850
 5972POPC   C1A35751  20.619  29.189   8.550
 5972POPC   D2A35752  20.592  29.152   8.250
 5972POPC   C3A35753  20.628  29.155   7.950
 5972POPC   C4A35754  20.608  29.104   7.650
 5972POPC   C1B35755  20.510  29.329   8.550
 5972POPC   C2B35756  20.532  29.408   8.250
 5972POPC   C3B35757  20.452  29.411   7.950
 5972POPC   C4B35758  20.516  29.396   7.650
 5973POPC   NC335759  29.901   3.508   9.450
 5973POPC   PO435760  29.913   3.541   9.150
 5973POPC   GL135761  29.946   3.535   8.850
 5973POPC   GL235762  29.848   3.688   8.850
 5973POPC   C1A35763  29.888   3.502   8.550
 5973POPC   D2A35764  29.944   3.586   8.250
 5973POPC   C3A35765  29.889   3.561   7.950
 5973POPC   C4A35766  29.943   3.568   7.650
 5973POPC   C1B35767  29.809   3.738   8.550
 5973POPC   C2B35768  29.772   3.727   8.250
 5973POPC   C3B35769  29.808   3.736   7.950
 5973POPC   C4B35770  29.774   3.777   7.650
 5974POPC   NC335771   2.737  10.519   9.450
 5974POPC   PO435772   2.724  10.521   9.150
 5974POPC   GL135773   2.784  10.476   8.850
 5974POPC   GL235774   2.650  10.555   8.850
 5974POPC   C1A35775   2.782  10.539   8.550
 5974POPC   D2A35776   2.718  10.511   8.250
 5974POPC   C3A35777   2.810  10.476   7.950
 5974POPC   C4A35778   2.734  10.509   7.650
 5974POPC   C1B35779   2.561  10.544   8.550
 5974POPC   C2B35780   2.562  10.528   8.250
 5974POPC   C3B35781   2.559  10.520   7.950
 5974POPC   C4B35782   2.498  10.574   7.650
 5975POPC   NC335783  11.284   8.171   9.450
 5975POPC   PO435784  11.297   8.204   9.150
 5975POPC   GL135785  11.349   8.175   8.850
 5975POPC   GL235786  11.458   8.207   8.850
 5975POPC   C1A35787  11.301   8.175   8.550
 5975POPC   D2A35788  11.292   8.179   8.250
 5975POPC   C3A35789  11.292   8.167   7.950
 5975POPC   C4A35790  11.256   8.184   7.650
 5975POPC   C1B35791  11.523   8.227   8.550
 5975POPC   C2B35792  11.597   8.191   8.250
 5975POPC   C3B35793  11.580   8.272   7.950
 5975POPC   C4B35794  11.517   8.261   7.650
 5976POPC   NC335795  36.087  13.619   9.450
 5976POPC   PO435796  36.161  13.591   9.150
 5976POPC   GL135797  36.155  13.643   8.850
 5976POPC   GL235798  36.078  13.488   8.850
 5976POPC   C1A35799  36.090  13.615   8.550
 5976POPC   D2A35800  36.132  13.671   8.250
 5976POPC   C3A35801  36.131  13.578   7.950
 5976POPC   C4A35802  36.158  13.671   7.650
 5976POPC   C1B35803  36.006  13.345   8.550
 5976POPC   C2B35804  36.054  13.381   8.250
 5976POPC   C3B35805  36.044  13.419   7.950
 5976POPC   C4B35806  36.084  13.413   7.650
 5977POPC   NC335807  32.219   9.778   9.450
 5977POPC   PO435808  32.244   9.718   9.150
 5977POPC   GL135809  32.285   9.776   8.850
 5977POPC   GL235810  32.342   9.866   8.850
 5977POPC   C1A35811  32.242   9.702   8.550
 5977POPC   D2A35812  32.230   9.736   8.250
 5977POPC   C3A35813  32.241   9.796   7.950
 5977POPC   C4A35814  32.241   9.737   7.650
 5977POPC   C1B35815  32.398   9.951   8.550
 5977POPC   C2B35816  32.334   9.958   8.250
 5977POPC   C3B35817  32.311   9.946   7.950
 5977POPC   C4B35818  32.311   9.934   7.650
 5978POPC   NC335819  38.498  12.082   9.450
 5978POPC   PO435820  38.439  12.099   9.150
 5978POPC   GL135821  38.459  12.121   8.850
 5978POPC   GL235822  38.576  12.006   8.850
 5978POPC   C1A35823  38.490  12.049   8.550
 5978POPC   D2A35824  38.501  12.102   8.250
 5978POPC   C3A35825  38.494  12.121   7.950
 5978POPC   C4A35826  38.501  12.095   7.650
 5978POPC   C1B35827  38.598  11.883   8.550
 5978POPC   C2B35828  38.636  11.941   8.250
 5978POPC   C3B35829  38.619  11.903   7.950
 5978POPC   C4B35830  38.634  11.931   7.650
 5979POPC   NC335831  20.591   5.082   9.450
 5979POPC   PO435832  20.629   5.071   9.150
 5979POPC   GL135833  20.577   5.051   8.850
 5979POPC   GL235834  20.722   5.049   8.850
 5979POPC   C1A35835  20.606   5.124   8.550
 5979POPC   D2A35836  20.582   5.083   8.250
 5979POPC   C3A35837  20.569   5.095   7.950
 5979POPC   C4A35838  20.586   5.090   7.650
 5979POPC   C1B35839  20.816   4.986   8.550
 5979POPC   C2B35840  20.856   5.004   8.250
 5979POPC   C3B35841  20.881   5.076   7.950
 5979POPC   C4B35842  20.815   5.017   7.650
 5980POPC   NC335843  24.499   6.651   9.450
 5980POPC   PO435844  24.536   6.689   9.150
 5980POPC   GL135845  24.480   6.616   8.850
 5980POPC   GL235846  24.523   6.504   8.850
 5980POPC   C1A35847  24.504   6.644   8.550
 5980POPC   D2A35848  24.446   6.692   8.250
 5980POPC   C3A35849  24.495   6.645   7.950
 5980POPC   C4A35850  24.516   6.628   7.650
 5980POPC   C1B35851  24.513   6.392   8.550
 5980POPC   C2B35852  24.541   6.411   8.250
 5980POPC   C3B35853  24.554   6.374   7.950
 5980POPC   C4B35854  24.523   6.417   7.650
 5981POPC   NC335855  22.161   1.238   9.450
 5981POPC   PO435856  22.175   1.197   9.150
 5981POPC   GL135857  22.163   1.192   8.850
 5981POPC   GL235858  22.327   1.240   8.850
 5981POPC   C1A35859  22.154   1.167   8.550
 5981POPC   D2A35860  22.171   1.241   8.250
 5981POPC   C3A35861  22.141   1.170   7.950
 5981POPC   C4A35862  22.128   1.255   7.650
 5981POPC   C1B35863  22.408   1.298   8.550
 5981POPC   C2B35864  22.379   1.284   8.250
 5981POPC   C3B35865  22.424   1.322   7.950
 5981POPC   C4B35866  22.370   1.252   7.650
 5982POPC   NC335867   3.562  37.684   9.450
 5982POPC   PO435868   3.530  37.671   9.150
 5982POPC   GL135869   3.504  37.637   8.850
 5982POPC   GL235870   3.715  37.648   8.850
 5982POPC   C1A35871   3.529  37.639   8.550
 5982POPC   D2A35872   3.586  37.643   8.250
 5982POPC   C3A35873   3.530  37.664   7.950
 5982POPC   C4A35874   3.561  37.721   7.650
 5982POPC   C1B35875   3.746  37.665   8.550
 5982POPC   C2B35876   3.834  37.704   8.250
 5982POPC   C3B35877   3.758  37.615   7.950
 5982POPC   C4B35878   3.781  37.701   7.650
 5983POPC   NC335879  33.845  44.694   9.450
 5983POPC   PO435880  33.832  44.651   9.150
 5983POPC   GL135881  33.820  44.660   8.850
 5983POPC   GL235882  33.881  44.709   8.850
 5983POPC   C1A35883  33.840  44.662   8.550
 5983POPC   D2A35884  33.780  44.667   8.250
 5983POPC   C3A35885  33.840  44.676   7.950
 5983POPC   C4A35886  33.796  44.673   7.650
 5983POPC   C1B35887  34.087  44.772   8.550
 5983POPC   C2B35888  34.081  44.766   8.250
 5983POPC   C3B35889  34.071  44.709   7.950
 5983POPC   C4B35890  34.003  44.711   7.650
 5984POPC   NC335891  14.383  29.916   9.450
 5984POPC   PO435892  14.429  29.889   9.150
 5984POPC   GL135893  14.445  29.908   8.850
 5984POPC   GL235894  14.406  29.788   8.850
 5984POPC   C1A35895  14.410  29.923   8.550
 5984POPC   D2A35896  14.386  29.951   8.250
 5984POPC   C3A35897  14.411  29.909   7.950
 5984POPC   C4A35898  14.418  29.914   7.650
 5984POPC   C1B35899  14.403  29.642   8.550
 5984POPC   C2B35900  14.395  29.679   8.250
 5984POPC   C3B35901  14.392  29.677   7.950
 5984POPC   C4B35902  14.434  29.645   7.650
 5985POPC   NC335903  12.111   9.778   9.450
 5985POPC   PO435904  12.119   9.785   9.150
 5985POPC   GL135905  12.076   9.713   8.850
 5985POPC   GL235906  11.979   9.833   8.850
 5985POPC   C1A35907  12.094   9.730   8.550
 5985POPC   D2A35908  12.090   9.752   8.250
 5985POPC   C3A35909  12.094   9.707   7.950
 5985POPC   C4A35910  12.080   9.761   7.650
 5985POPC   C1B35911  11.898   9.936   8.550
 5985POPC   C2B35912  11.844   9.916   8.250
 5985POPC   C3B35913  11.849   9.884   7.950
 5985POPC   C4B35914  11.844   9.886   7.650
 5986POPC   NC335915  15.976  13.601   9.450
 5986POPC   PO435916  15.984  13.629   9.150
 5986POPC   GL135917  15.951  13.624   8.850
 5986POPC   GL235918  16.036  13.676   8.850
 5986POPC   C1A35919  15.911  13.671   8.550
 5986POPC   D2A35920  15.950  13.633   8.250
 5986POPC   C3A35921  16.000  13.652   7.950
 5986POPC   C4A35922  15.951  13.662   7.650
 5986POPC   C1B35923  16.119  13.773   8.550
 5986POPC   C2B35924  16.089  13.811   8.250
 5986POPC   C3B35925  16.120  13.779   7.950
 5986POPC   C4B35926  16.112  13.806   7.650
 5987POPC   NC335927   3.567  16.683   9.450
 5987POPC   PO435928   3.518  16.710   9.150
 5987POPC   GL135929   3.531  16.692   8.850
 5987POPC   GL235930   3.656  16.583   8.850
 5987POPC   C1A35931   3.504  16.690   8.550
 5987POPC   D2A35932   3.514  16.707   8.250
 5987POPC   C3A35933   3.492  16.717   7.950
 5987POPC   C4A35934   3.571  16.760   7.650
 5987POPC   C1B35935   3.700  16.537   8.550
 5987POPC   C2B35936   3.695  16.535   8.250
 5987POPC   C3B35937   3.681  16.548   7.950
 5987POPC   C4B35938   3.634  16.550   7.650
 5988POPC   NC335939  36.929   5.110   9.450
 5988POPC   PO435940  36.905   5.112   9.150
 5988POPC   GL135941  36.876   5.141   8.850
 5988POPC   GL235942  36.779   4.997   8.850
 5988POPC   C1A35943  36.859   5.066   8.550
 5988POPC   D2A35944  36.868   5.110   8.250
 5988POPC   C3A35945  36.870   5.114   7.950
 5988POPC   C4A35946  36.872   5.096   7.650
 5988POPC   C1B35947  36.691   4.985   8.550
 5988POPC   C2B35948  36.690   4.990   8.250
 5988POPC   C3B35949  36.659   4.968   7.950
 5988POPC   C4B35950  36.717   4.938   7.650
 5989POPC   NC335951  38.498  43.909   9.450
 5989POPC   PO435952  38.413  43.930   9.150
 5989POPC   GL135953  38.466  43.918   8.850
 5989POPC   GL235954  38.618  43.894   8.850
 5989POPC   C1A35955  38.488  43.894   8.550
 5989POPC   D2A35956  38.428  43.885   8.250
 5989POPC   C3A35957  38.496  43.889   7.950
 5989POPC   C4A35958  38.462  43.874   7.650
 5989POPC   C1B35959  38.659  43.874   8.550
 5989POPC   C2B35960  38.739  43.882   8.250
 5989POPC   C3B35961  38.728  43.884   7.950
 5989POPC   C4B35962  38.707  43.870   7.650
 5990POPC   NC335963  22.943  36.933   9.450
 5990POPC   PO435964  22.924  36.865   9.150
 5990POPC   GL135965  22.963  36.864   8.850
 5990POPC   GL235966  22.819  36.895   8.850
 5990POPC   C1A35967  22.915  36.919   8.550
 5990POPC   D2A35968  22.979  36.936   8.250
 5990POPC   C3A35969  22.955  36.875   7.950
 5990POPC   C4A35970  22.937  36.952   7.650
 5990POPC   C1B35971  22.744  36.757   8.550
 5990POPC   C2B35972  22.695  36.809   8.250
 5990POPC   C3B35973  22.719  36.837   7.950
 5990POPC   C4B35974  22.727  36.830   7.650
 5991POPC   NC335975  14.365  14.377   9.450
 5991POPC   PO435976  14.381  14.453   9.150
 5991POPC   GL135977  14.368  14.422   8.850
 5991POPC   GL235978  14.249  14.463   8.850
 5991POPC   C1A35979  14.401  14.380   8.550
 5991POPC   D2A35980  14.435  14.434   8.250
 5991POPC   C3A35981  14.424  14.362   7.950
 5991POPC   C4A35982  14.426  14.399   7.650
 5991POPC   C1B35983  14.157  14.471   8.550
 5991POPC   C2B35984  14.183  14.423   8.250
 5991POPC   C3B35985  14.192  14.409   7.950
 5991POPC   C4B35986  14.178  14.419   7.650
 5992POPC   NC335987   8.177  20.605   9.450
 5992POPC   PO435988   8.224  20.566   9.150
 5992POPC   GL135989   8.185  20.627   8.850
 5992POPC   GL235990   8.110  20.729   8.850
 5992POPC   C1A35991   8.240  20.643   8.550
 5992POPC   D2A35992   8.239  20.588   8.250
 5992POPC   C3A35993   8.185  20.588   7.950
 5992POPC   C4A35994   8.162  20.623   7.650
 5992POPC   C1B35995   8.015  20.729   8.550
 5992POPC   C2B35996   7.954  20.797   8.250
 5992POPC   C3B35997   8.027  20.792   7.950
 5992POPC   C4B35998   8.007  20.817   7.650
 5993POPC   NC335999  29.144   8.985   9.450
 5993POPC   PO436000  29.101   9.016   9.150
 5993POPC   GL136001  29.101   9.004   8.850
 5993POPC   GL236002  29.274   8.950   8.850
 5993POPC   C1A36003  29.166   8.975   8.550
 5993POPC   D2A36004  29.194   8.961   8.250
 5993POPC   C3A36005  29.122   8.999   7.950
 5993POPC   C4A36006  29.176   8.953   7.650
 5993POPC   C1B36007  29.415   8.974   8.550
 5993POPC   C2B36008  29.380   8.976   8.250
 5993POPC   C3B36009  29.358   8.949   7.950
 5993POPC   C4B36010  29.408   8.936   7.650
 5994POPC   NC336011  34.582   5.839   9.450
 5994POPC   PO436012  34.579   5.837   9.150
 5994POPC   GL136013  34.614   5.910   8.850
 5994POPC   GL236014  34.568   5.786   8.850
 5994POPC   C1A36015  34.545   5.830   8.550
 5994POPC   D2A36016  34.614   5.893   8.250
 5994POPC   C3A36017  34.566   5.873   7.950
 5994POPC   C4A36018  34.527   5.897   7.650
 5994POPC   C1B36019  34.447   5.645   8.550
 5994POPC   C2B36020  34.501   5.612   8.250
 5994POPC   C3B36021  34.419   5.598   7.950
 5994POPC   C4B36022  34.504   5.621   7.650
 5995POPC   NC336023  26.829  35.312   9.450
 5995POPC   PO436024  26.785  35.359   9.150
 5995POPC   GL136025  26.770  35.318   8.850
 5995POPC   GL236026  26.701  35.388   8.850
 5995POPC   C1A36027  26.862  35.343   8.550
 5995POPC   D2A36028  26.798  35.367   8.250
 5995POPC   C3A36029  26.791  35.355   7.950
 5995POPC   C4A36030  26.771  35.340   7.650
 5995POPC   C1B36031  26.566  35.462   8.550
 5995POPC   C2B36032  26.631  35.414   8.250
 5995POPC   C3B36033  26.627  35.463   7.950
 5995POPC   C4B36034  26.574  35.390   7.650
 5996POPC   NC336035  13.587   1.200   9.450
 5996POPC   PO436036  13.616   1.178   9.150
 5996POPC   GL136037  13.585   1.185   8.850
 5996POPC   GL236038  13.559   1.333   8.850
 5996POPC   C1A36039  13.583   1.172   8.550
 5996POPC   D2A36040  13.670   1.203   8.250
 5996POPC   C3A36041  13.644   1.258   7.950
 5996POPC   C4A36042  13.604   1.208   7.650
 5996POPC   C1B36043  13.516   1.432   8.550
 5996POPC   C2B36044  13.503   1.405   8.250
 5996POPC   C3B36045  13.464   1.395   7.950
 5996POPC   C4B36046  13.513   1.420   7.650
 5997POPC   NC336047   5.111  15.193   9.450
 5997POPC   PO436048   5.114  15.229   9.150
 5997POPC   GL136049   5.099  15.215   8.850
 5997POPC   GL236050   5.157  15.064   8.850
 5997POPC   C1A36051   5.129  15.183   8.550
 5997POPC   D2A36052   5.135  15.184   8.250
 5997POPC   C3A36053   5.072  15.130   7.950
 5997POPC   C4A36054   5.066  15.178   7.650
 5997POPC   C1B36055   5.141  14.936   8.550
 5997POPC   C2B36056   5.210  14.938   8.250
 5997POPC   C3B36057   5.210  14.920   7.950
 5997POPC   C4B36058   5.222  14.953   7.650
 5998POPC   NC336059  38.414  27.584   9.450
 5998POPC   PO436060  38.467  27.583   9.150
 5998POPC   GL136061  38.449  27.607   8.850
 5998POPC   GL236062  38.400  27.646   8.850
 5998POPC   C1A36063  38.491  27.606   8.550
 5998POPC   D2A36064  38.432  27.596   8.250
 5998POPC   C3A36065  38.415  27.613   7.950
 5998POPC   C4A36066  38.477  27.559   7.650
 5998POPC   C1B36067  38.277  27.744   8.550
 5998POPC   C2B36068  38.254  27.795   8.250
 5998POPC   C3B36069  38.328  27.821   7.950
 5998POPC   C4B36070  38.262  27.760   7.650
 5999POPC   NC336071  11.317  24.519   9.450
 5999POPC   PO436072  11.299  24.506   9.150
 5999POPC   GL136073  11.284  24.485   8.850
 5999POPC   GL236074  11.401  24.517   8.850
 5999POPC   C1A36075  11.350  24.516   8.550
 5999POPC   D2A36076  11.300  24.509   8.250
 5999POPC   C3A36077  11.266  24.484   7.950
 5999POPC   C4A36078  11.297  24.457   7.650
 5999POPC   C1B36079  11.530  24.587   8.550
 5999POPC   C2B36080  11.507  24.637   8.250
 5999POPC   C3B36081  11.563  24.641   7.950
 5999POPC   C4B36082  11.520  24.635   7.650
 6000POPC   NC336083  24.453  30.735   9.450
 6000POPC   PO436084  24.487  30.675   9.150
 6000POPC   GL136085  24.511  30.720   8.850
 6000POPC   GL236086  24.477  30.553   8.850
 6000POPC   C1A36087  24.534  30.721   8.550
 6000POPC   D2A36088  24.518  30.718   8.250
 6000POPC   C3A36089  24.447  30.657   7.950
 6000POPC   C4A36090  24.527  30.741   7.650
 6000POPC   C1B36091  24.456  30.488   8.550
 6000POPC   C2B36092  24.452  30.439   8.250
 6000POPC   C3B36093  24.418  30.453   7.950
 6000POPC   C4B36094  24.509  30.406   7.650
 6001POPC   NC336095  29.904  21.339   9.450
 6001POPC   PO436096  29.916  21.371   9.150
 6001POPC   GL136097  29.960  21.352   8.850
 6001POPC   GL236098  29.956  21.294   8.850
 6001POPC   C1A36099  29.928  21.362   8.550
 6001POPC   D2A36100  29.965  21.369   8.250
 6001POPC   C3A36101  29.932  21.337   7.950
 6001POPC   C4A36102  29.917  21.412   7.650
 6001POPC   C1B36103  29.857  21.172   8.550
 6001POPC   C2B36104  29.871  21.094   8.250
 6001POPC   C3B36105  29.943  21.185   7.950
 6001POPC   C4B36106  29.855  21.111   7.650
 6002POPC   NC336107  10.550  29.958   9.450
 6002POPC   PO436108  10.549  29.934   9.150
 6002POPC   GL136109  10.488  29.908   8.850
 6002POPC   GL236110  10.466  29.826   8.850
 6002POPC   C1A36111  10.571  29.967   8.550
 6002POPC   D2A36112  10.533  29.896   8.250
 6002POPC   C3A36113  10.498  29.942   7.950
 6002POPC   C4A36114  10.554  29.964   7.650
 6002POPC   C1B36115  10.423  29.678   8.550
 6002POPC   C2B36116  10.367  29.687   8.250
 6002POPC   C3B36117  10.428  29.722   7.950
 6002POPC   C4B36118  10.410  29.759   7.650
 6003POPC   NC336119  22.964  31.459   9.450
 6003POPC   PO436120  22.974  31.460   9.150
 6003POPC   GL136121  22.893  31.503   8.850
 6003POPC   GL236122  22.845  31.488   8.850
 6003POPC   C1A36123  22.930  31.501   8.550
 6003POPC   D2A36124  22.893  31.465   8.250
 6003POPC   C3A36125  22.927  31.431   7.950
 6003POPC   C4A36126  22.926  31.522   7.650
 6003POPC   C1B36127  22.678  31.469   8.550
 6003POPC   C2B36128  22.725  31.438   8.250
 6003POPC   C3B36129  22.660  31.384   7.950
 6003POPC   C4B36130  22.698  31.442   7.650
 6004POPC   NC336131  33.024  29.905   9.450
 6004POPC   PO436132  33.030  29.918   9.150
 6004POPC   GL136133  33.027  29.882   8.850
 6004POPC   GL236134  33.087  29.805   8.850
 6004POPC   C1A36135  33.026  29.875   8.550
 6004POPC   D2A36136  33.057  29.910   8.250
 6004POPC   C3A36137  33.060  29.943   7.950
 6004POPC   C4A36138  32.976  29.899   7.650
 6004POPC   C1B36139  33.206  29.705   8.550
 6004POPC   C2B36140  33.172  29.750   8.250
 6004POPC   C3B36141  33.154  29.730   7.950
 6004POPC   C4B36142  33.199  29.682   7.650
 6005POPC   NC336143  44.637  19.093   9.450
 6005POPC   PO436144  44.664  19.062   9.150
 6005POPC   GL136145  44.661  19.013   8.850
 6005POPC   GL236146  44.579  19.045   8.850
 6005POPC   C1A36147  44.658  19.079   8.550
 6005POPC   D2A36148  44.627  19.060   8.250
 6005POPC   C3A36149  44.616  19.071   7.950
 6005POPC   C4A36150  44.687  19.046   7.650
 6005POPC   C1B36151  44.459  19.051   8.550
 6005POPC   C2B36152  44.455  19.054   8.250
 6005POPC   C3B36153  44.459  19.089   7.950
 6005POPC   C4B36154  44.446  19.033   7.650
 6006POPC   NC336155  12.882   8.933   9.450
 6006POPC   PO436156  12.826   8.955   9.150
 6006POPC   GL136157  12.822   8.996   8.850
 6006POPC   GL236158  12.918   8.899   8.850
 6006POPC   C1A36159  12.859   8.949   8.550
 6006POPC   D2A36160  12.822   8.942   8.250
 6006POPC   C3A36161  12.843   8.999   7.950
 6006POPC   C4A36162  12.845   8.971   7.650
 6006POPC   C1B36163  13.096   8.865   8.550
 6006POPC   C2B36164  13.128   8.845   8.250
 6006POPC   C3B36165  13.114   8.840   7.950
 6006POPC   C4B36166  13.051   8.878   7.650
 6007POPC   NC336167  18.234  19.097   9.450
 6007POPC   PO436168  18.318  19.024   9.150
 6007POPC   GL136169  18.301  19.108   8.850
 6007POPC   GL236170  18.348  19.147   8.850
 6007POPC   C1A36171  18.252  19.092   8.550
 6007POPC   D2A36172  18.240  19.100   8.250
 6007POPC   C3A36173  18.268  19.015   7.950
 6007POPC   C4A36174  18.253  19.083   7.650
 6007POPC   C1B36175  18.528  19.250   8.550
 6007POPC   C2B36176  18.512  19.152   8.250
 6007POPC   C3B36177  18.532  19.168   7.950
 6007POPC   C4B36178  18.495  19.151   7.650
 6008POPC   NC336179  39.191  12.811   9.450
 6008POPC   PO436180  39.277  12.881   9.150
 6008POPC   GL136181  39.274  12.846   8.850
 6008POPC   GL236182  39.215  12.722   8.850
 6008POPC   C1A36183  39.266  12.824   8.550
 6008POPC   D2A36184  39.197  12.822   8.250
 6008POPC   C3A36185  39.250  12.863   7.950
 6008POPC   C4A36186  39.199  12.896   7.650
 6008POPC   C1B36187  39.216  12.620   8.550
 6008POPC   C2B36188  39.232  12.614   8.250
 6008POPC   C3B36189  39.255  12.610   7.950
 6008POPC   C4B36190  39.204  12.627   7.650
 6009POPC   NC336191  41.524  19.804   9.450
 6009POPC   PO436192  41.593  19.812   9.150
 6009POPC   GL136193  41.561  19.826   8.850
 6009POPC   GL236194  41.521  19.974   8.850
 6009POPC   C1A36195  41.601  19.871   8.550
 6009POPC   D2A36196  41.601  19.800   8.250
 6009POPC   C3A36197  41.515  19.826   7.950
 6009POPC   C4A36198  41.528  19.847   7.650
 6009POPC   C1B36199  41.484  20.074   8.550
 6009POPC   C2B36200  41.421  20.033   8.250
 6009POPC   C3B36201  41.493  20.081   7.950
 6009POPC   C4B36202  41.494  20.062   7.650
 6010POPC   NC336203  38.413   5.130   9.450
 6010POPC   PO436204  38.408   5.097   9.150
 6010POPC   GL136205  38.449   5.085   8.850
 6010POPC   GL236206  38.393   4.955   8.850
 6010POPC   C1A36207  38.409   5.123   8.550
 6010POPC   D2A36208  38.462   5.048   8.250
 6010POPC   C3A36209  38.458   5.050   7.950
 6010POPC   C4A36210  38.420   5.117   7.650
 6010POPC   C1B36211  38.385   4.876   8.550
 6010POPC   C2B36212  38.385   4.834   8.250
 6010POPC   C3B36213  38.294   4.820   7.950
 6010POPC   C4B36214  38.386   4.820   7.650
 6011POPC   NC336215   2.785  29.103   9.450
 6011POPC   PO436216   2.760  29.187   9.150
 6011POPC   GL136217   2.811  29.134   8.850
 6011POPC   GL236218   2.736  28.996   8.850
 6011POPC   C1A36219   2.724  29.101   8.550
 6011POPC   D2A36220   2.812  29.157   8.250
 6011POPC   C3A36221   2.755  29.123   7.950
 6011POPC   C4A36222   2.729  29.138   7.650
 6011POPC   C1B36223   2.737  28.899   8.550
 6011POPC   C2B36224   2.798  28.928   8.250
 6011POPC   C3B36225   2.783  28.942   7.950
 6011POPC   C4B36226   2.763  28.942   7.650
 6012POPC   NC336227  38.432  40.033   9.450
 6012POPC   PO436228  38.427  40.017   9.150
 6012POPC   GL136229  38.476  40.013   8.850
 6012POPC   GL236230  38.385  40.159   8.850
 6012POPC   C1A36231  38.419  40.043   8.550
 6012POPC   D2A36232  38.414  40.009   8.250
 6012POPC   C3A36233  38.476  39.998   7.950
 6012POPC   C4A36234  38.435  39.967   7.650
 6012POPC   C1B36235  38.382  40.248   8.550
 6012POPC   C2B36236  38.418  40.260   8.250
 6012POPC   C3B36237  38.377  40.296   7.950
 6012POPC   C4B36238  38.397  40.225   7.650
 6013POPC   NC336239  13.615   7.374   9.450
 6013POPC   PO436240  13.605   7.373   9.150
 6013POPC   GL136241  13.644   7.435   8.850
 6013POPC   GL236242  13.598   7.313   8.850
 6013POPC   C1A36243  13.646   7.385   8.550
 6013POPC   D2A36244  13.585   7.410   8.250
 6013POPC   C3A36245  13.677   7.451   7.950
 6013POPC   C4A36246  13.591   7.453   7.650
 6013POPC   C1B36247  13.434   7.212   8.550
 6013POPC   C2B36248  13.452   7.211   8.250
 6013POPC   C3B36249  13.510   7.244   7.950
 6013POPC   C4B36250  13.480   7.256   7.650
 6014POPC   NC336251  29.157  12.044   9.450
 6014POPC   PO436252  29.180  12.031   9.150
 6014POPC   GL136253  29.172  12.091   8.850
 6014POPC   GL236254  29.036  12.161   8.850
 6014POPC   C1A36255  29.123  12.099   8.550
 6014POPC   D2A36256  29.152  12.108   8.250
 6014POPC   C3A36257  29.119  12.104   7.950
 6014POPC   C4A36258  29.108  12.095   7.650
 6014POPC   C1B36259  28.944  12.253   8.550
 6014POPC   C2B36260  28.975  12.276   8.250
 6014POPC   C3B36261  28.920  12.258   7.950
 6014POPC   C4B36262  28.915  12.207   7.650
 6015POPC   NC336263  26.017  18.246   9.450
 6015POPC   PO436264  26.066  18.287   9.150
 6015POPC   GL136265  26.067  18.305   8.850
 6015POPC   GL236266  26.157  18.243   8.850
 6015POPC   C1A36267  26.065  18.290   8.550
 6015POPC   D2A36268  26.026  18.238   8.250
 6015POPC   C3A36269  26.052  18.300   7.950
 6015POPC   C4A36270  26.000  18.293   7.650
 6015POPC   C1B36271  26.253  18.137   8.550
 6015POPC   C2B36272  26.298  18.103   8.250
 6015POPC   C3B36273  26.279  18.117   7.950
 6015POPC   C4B36274  26.256  18.187   7.650
 6016POPC   NC336275   5.868  32.254   9.450
 6016POPC   PO436276   5.863  32.256   9.150
 6016POPC   GL136277   5.830  32.292   8.850
 6016POPC   GL236278   5.926  32.167   8.850
 6016POPC   C1A36279   5.893  32.286   8.550
 6016POPC   D2A36280   5.913  32.202   8.250
 6016POPC   C3A36281   5.904  32.237   7.950
 6016POPC   C4A36282   5.918  32.282   7.650
 6016POPC   C1B36283   6.004  32.032   8.550
 6016POPC   C2B36284   6.010  32.025   8.250
 6016POPC   C3B36285   5.954  32.045   7.950
 6016POPC   C4B36286   6.009  32.025   7.650
 6017POPC   NC336287  28.418  26.783   9.450
 6017POPC   PO436288  28.384  26.782   9.150
 6017POPC   GL136289  28.396  26.799   8.850
 6017POPC   GL236290  28.400  26.672   8.850
 6017POPC   C1A36291  28.359  26.810   8.550
 6017POPC   D2A36292  28.386  26.799   8.250
 6017POPC   C3A36293  28.331  26.853   7.950
 6017POPC   C4A36294  28.351  26.827   7.650
 6017POPC   C1B36295  28.489  26.599   8.550
 6017POPC   C2B36296  28.572  26.570   8.250
 6017POPC   C3B36297  28.511  26.596   7.950
 6017POPC   C4B36298  28.500  26.604   7.650
 6018POPC   NC336299  29.127  32.997   9.450
 6018POPC   PO436300  29.157  33.015   9.150
 6018POPC   GL136301  29.138  33.014   8.850
 6018POPC   GL236302  29.310  33.067   8.850
 6018POPC   C1A36303  29.107  32.975   8.550
 6018POPC   D2A36304  29.192  33.016   8.250
 6018POPC   C3A36305  29.117  33.068   7.950
 6018POPC   C4A36306  29.171  32.979   7.650
 6018POPC   C1B36307  29.354  33.056   8.550
 6018POPC   C2B36308  29.424  33.073   8.250
 6018POPC   C3B36309  29.424  33.014   7.950
 6018POPC   C4B36310  29.429  32.988   7.650
 6019POPC   NC336311  39.256  12.096   9.450
 6019POPC   PO436312  39.243  12.039   9.150
 6019POPC   GL136313  39.201  12.110   8.850
 6019POPC   GL236314  39.118  12.064   8.850
 6019POPC   C1A36315  39.212  12.091   8.550
 6019POPC   D2A36316  39.270  12.047   8.250
 6019POPC   C3A36317  39.216  12.051   7.950
 6019POPC   C4A36318  39.228  12.080   7.650
 6019POPC   C1B36319  38.965  12.019   8.550
 6019POPC   C2B36320  39.013  12.056   8.250
 6019POPC   C3B36321  39.016  11.989   7.950
 6019POPC   C4B36322  38.982  11.981   7.650
 6020POPC   NC336323  37.675  35.351   9.450
 6020POPC   PO436324  37.644  35.365   9.150
 6020POPC   GL136325  37.677  35.354   8.850
 6020POPC   GL236326  37.719  35.456   8.850
 6020POPC   C1A36327  37.700  35.313   8.550
 6020POPC   D2A36328  37.666  35.322   8.250
 6020POPC   C3A36329  37.687  35.376   7.950
 6020POPC   C4A36330  37.685  35.347   7.650
 6020POPC   C1B36331  37.710  35.619   8.550
 6020POPC   C2B36332  37.742  35.583   8.250
 6020POPC   C3B36333  37.681  35.604   7.950
 6020POPC   C4B36334  37.715  35.618   7.650
 6021POPC   NC336335  35.342  22.199   9.450
 6021POPC   PO436336  35.382  22.210   9.150
 6021POPC   GL136337  35.335  22.195   8.850
 6021POPC   GL236338  35.365  22.050   8.850
 6021POPC   C1A36339  35.369  22.141   8.550
 6021POPC   D2A36340  35.380  22.147   8.250
 6021POPC   C3A36341  35.335  22.116   7.950
 6021POPC   C4A36342  35.369  22.122   7.650
 6021POPC   C1B36343  35.384  21.970   8.550
 6021POPC   C2B36344  35.391  21.876   8.250
 6021POPC   C3B36345  35.407  21.925   7.950
 6021POPC   C4B36346  35.425  21.959   7.650
 6022POPC   NC336347   6.662  37.698   9.450
 6022POPC   PO436348   6.677  37.632   9.150
 6022POPC   GL136349   6.641  37.659   8.850
 6022POPC   GL236350   6.647  37.786   8.850
 6022POPC   C1A36351   6.605  37.688   8.550
 6022POPC   D2A36352   6.645  37.643   8.250
 6022POPC   C3A36353   6.672  37.720   7.950
 6022POPC   C4A36354   6.676  37.665   7.650
 6022POPC   C1B36355   6.658  37.878   8.550
 6022POPC   C2B36356   6.637  37.970   8.250
 6022POPC   C3B36357   6.699  37.897   7.950
 6022POPC   C4B36358   6.682  37.947   7.650
 6023POPC   NC336359  15.175  21.433   9.450
 6023POPC   PO436360  15.224  21.343   9.150
 6023POPC   GL136361  15.203  21.340   8.850
 6023POPC   GL236362  15.086  21.332   8.850
 6023POPC   C1A36363  15.147  21.404   8.550
 6023POPC   D2A36364  15.130  21.434   8.250
 6023POPC   C3A36365  15.217  21.429   7.950
 6023POPC   C4A36366  15.224  21.340   7.650
 6023POPC   C1B36367  14.957  21.296   8.550
 6023POPC   C2B36368  15.000  21.303   8.250
 6023POPC   C3B36369  14.994  21.264   7.950
 6023POPC   C4B36370  15.009  21.261   7.650
 6024POPC   NC336371  32.254   3.589   9.450
 6024POPC   PO436372  32.239   3.527   9.150
 6024POPC   GL136373  32.241   3.550   8.850
 6024POPC   GL236374  32.106   3.554   8.850
 6024POPC   C1A36375  32.265   3.510   8.550
 6024POPC   D2A36376  32.227   3.562   8.250
 6024POPC   C3A36377  32.245   3.509   7.950
 6024POPC   C4A36378  32.281   3.543   7.650
 6024POPC   C1B36379  32.069   3.692   8.550
 6024POPC   C2B36380  32.038   3.650   8.250
 6024POPC   C3B36381  32.036   3.694   7.950
 6024POPC   C4B36382  32.035   3.688   7.650
 6025POPC   NC336383  44.614   2.037   9.450
 6025POPC   PO436384  44.684   2.026   9.150
 6025POPC   GL136385  44.704   2.021   8.850
 6025POPC   GL236386  44.602   2.088   8.850
 6025POPC   C1A36387  44.629   2.004   8.550
 6025POPC   D2A36388  44.668   1.972   8.250
 6025POPC   C3A36389  44.645   1.970   7.950
 6025POPC   C4A36390  44.653   1.940   7.650
 6025POPC   C1B36391  44.498   2.187   8.550
 6025POPC   C2B36392  44.487   2.237   8.250
 6025POPC   C3B36393  44.471   2.220   7.950
 6025POPC   C4B36394  44.474   2.154   7.650
 6026POPC   NC336395  22.143  38.505   9.450
 6026POPC   PO436396  22.167  38.407   9.150
 6026POPC   GL136397  22.186  38.433   8.850
 6026POPC   GL236398  22.234  38.434   8.850
 6026POPC   C1A36399  22.123  38.434   8.550
 6026POPC   D2A36400  22.133  38.417   8.250
 6026POPC   C3A36401  22.203  38.492   7.950
 6026POPC   C4A36402  22.119  38.419   7.650
 6026POPC   C1B36403  22.375  38.562   8.550
 6026POPC   C2B36404  22.429  38.477   8.250
 6026POPC   C3B36405  22.378  38.489   7.950
 6026POPC   C4B36406  22.394  38.482   7.650
 6027POPC   NC336407  31.457  30.730   9.450
 6027POPC   PO436408  31.460  30.678   9.150
 6027POPC   GL136409  31.520  30.663   8.850
 6027POPC   GL236410  31.431  30.546   8.850
 6027POPC   C1A36411  31.446  30.699   8.550
 6027POPC   D2A36412  31.483  30.724   8.250
 6027POPC   C3A36413  31.451  30.692   7.950
 6027POPC   C4A36414  31.455  30.685   7.650
 6027POPC   C1B36415  31.431  30.464   8.550
 6027POPC   C2B36416  31.428  30.425   8.250
 6027POPC   C3B36417  31.465  30.417   7.950
 6027POPC   C4B36418  31.398  30.477   7.650
 6028POPC   NC336419  22.907  33.034   9.450
 6028POPC   PO436420  22.955  33.008   9.150
 6028POPC   GL136421  22.896  33.014   8.850
 6028POPC   GL236422  22.814  32.981   8.850
 6028POPC   C1A36423  22.904  33.026   8.550
 6028POPC   D2A36424  22.939  33.040   8.250
 6028POPC   C3A36425  22.963  33.062   7.950
 6028POPC   C4A36426  22.891  32.993   7.650
 6028POPC   C1B36427  22.722  32.854   8.550
 6028POPC   C2B36428  22.765  32.927   8.250
 6028POPC   C3B36429  22.775  32.910   7.950
 6028POPC   C4B36430  22.759  32.911   7.650
 6029POPC   NC336431   7.425  15.940   9.450
 6029POPC   PO436432   7.423  15.958   9.150
 6029POPC   GL136433   7.408  15.922   8.850
 6029POPC   GL236434   7.381  16.049   8.850
 6029POPC   C1A36435   7.432  15.938   8.550
 6029POPC   D2A36436   7.371  15.977   8.250
 6029POPC   C3A36437   7.465  15.970   7.950
 6029POPC   C4A36438   7.415  15.992   7.650
 6029POPC   C1B36439   7.397  16.232   8.550
 6029POPC   C2B36440   7.428  16.161   8.250
 6029POPC   C3B36441   7.422  16.242   7.950
 6029POPC   C4B36442   7.434  16.183   7.650
 6030POPC   NC336443   7.380  16.781   9.450
 6030POPC   PO436444   7.452  16.759   9.150
 6030POPC   GL136445   7.375  16.745   8.850
 6030POPC   GL236446   7.403  16.793   8.850
 6030POPC   C1A36447   7.376  16.685   8.550
 6030POPC   D2A36448   7.470  16.758   8.250
 6030POPC   C3A36449   7.388  16.723   7.950
 6030POPC   C4A36450   7.411  16.728   7.650
 6030POPC   C1B36451   7.266  16.937   8.550
 6030POPC   C2B36452   7.316  16.984   8.250
 6030POPC   C3B36453   7.248  16.948   7.950
 6030POPC   C4B36454   7.253  16.915   7.650
 6031POPC   NC336455  22.191  26.785   9.450
 6031POPC   PO436456  22.183  26.797   9.150
 6031POPC   GL136457  22.134  26.814   8.850
 6031POPC   GL236458  22.185  26.905   8.850
 6031POPC   C1A36459  22.153  26.843   8.550
 6031POPC   D2A36460  22.116  26.781   8.250
 6031POPC   C3A36461  22.144  26.785   7.950
 6031POPC   C4A36462  22.114  26.786   7.650
 6031POPC   C1B36463  22.150  27.106   8.550
 6031POPC   C2B36464  22.198  27.091   8.250
 6031POPC   C3B36465  22.231  27.113   7.950
 6031POPC   C4B36466  22.228  27.067   7.650
 6032POPC   NC336467  19.056  12.823   9.450
 6032POPC   PO436468  19.018  12.845   9.150
 6032POPC   GL136469  19.080  12.862   8.850
 6032POPC   GL236470  19.066  12.940   8.850
 6032POPC   C1A36471  19.024  12.888   8.550
 6032POPC   D2A36472  19.097  12.812   8.250
 6032POPC   C3A36473  19.081  12.891   7.950
 6032POPC   C4A36474  19.011  12.838   7.650
 6032POPC   C1B36475  19.041  13.050   8.550
 6032POPC   C2B36476  18.977  13.129   8.250
 6032POPC   C3B36477  19.041  13.119   7.950
 6032POPC   C4B36478  19.017  13.083   7.650
 6033POPC   NC336479  13.597  37.701   9.450
 6033POPC   PO436480  13.671  37.696   9.150
 6033POPC   GL136481  13.599  37.661   8.850
 6033POPC   GL236482  13.694  37.539   8.850
 6033POPC   C1A36483  13.648  37.679   8.550
 6033POPC   D2A36484  13.622  37.703   8.250
 6033POPC   C3A36485  13.595  37.631   7.950
 6033POPC   C4A36486  13.668  37.643   7.650
 6033POPC   C1B36487  13.763  37.471   8.550
 6033POPC   C2B36488  13.775  37.510   8.250
 6033POPC   C3B36489  13.743  37.426   7.950
 6033POPC   C4B36490  13.793  37.518   7.650
 6034POPC   NC336491  42.326  35.306   9.450
 6034POPC   PO436492  42.303  35.335   9.150
 6034POPC   GL136493  42.372  35.401   8.850
 6034POPC   GL236494  42.210  35.363   8.850
 6034POPC   C1A36495  42.372  35.312   8.550
 6034POPC   D2A36496  42.326  35.368   8.250
 6034POPC   C3A36497  42.294  35.396   7.950
 6034POPC   C4A36498  42.316  35.399   7.650
 6034POPC   C1B36499  42.101  35.376   8.550
 6034POPC   C2B36500  42.067  35.461   8.250
 6034POPC   C3B36501  42.130  35.386   7.950
 6034POPC   C4B36502  42.110  35.441   7.650
 6035POPC   NC336503   1.249   8.946   9.450
 6035POPC   PO436504   1.168   8.925   9.150
 6035POPC   GL136505   1.230   9.012   8.850
 6035POPC   GL236506   1.157   9.019   8.850
 6035POPC   C1A36507   1.221   8.964   8.550
 6035POPC   D2A36508   1.193   8.944   8.250
 6035POPC   C3A36509   1.179   9.007   7.950
 6035POPC   C4A36510   1.201   8.997   7.650
 6035POPC   C1B36511   1.065   9.104   8.550
 6035POPC   C2B36512   0.985   9.164   8.250
 6035POPC   C3B36513   0.977   9.082   7.950
 6035POPC   C4B36514   1.047   9.120   7.650
 6036POPC   NC336515  31.499  40.020   9.450
 6036POPC   PO436516  31.449  40.036   9.150
 6036POPC   GL136517  31.463  40.021   8.850
 6036POPC   GL236518  31.361  39.950   8.850
 6036POPC   C1A36519  31.427  40.033   8.550
 6036POPC   D2A36520  31.493  40.030   8.250
 6036POPC   C3A36521  31.501  39.958   7.950
 6036POPC   C4A36522  31.447  40.010   7.650
 6036POPC   C1B36523  31.288  39.914   8.550
 6036POPC   C2B36524  31.266  39.882   8.250
 6036POPC   C3B36525  31.203  39.881   7.950
 6036POPC   C4B36526  31.253  39.923   7.650
 6037POPC   NC336527  34.545  40.830   9.450
 6037POPC   PO436528  34.560  40.801   9.150
 6037POPC   GL136529  34.606  40.748   8.850
 6037POPC   GL236530  34.696  40.732   8.850
 6037POPC   C1A36531  34.535  40.768   8.550
 6037POPC   D2A36532  34.533  40.737   8.250
 6037POPC   C3A36533  34.591  40.747   7.950
 6037POPC   C4A36534  34.601  40.813   7.650
 6037POPC   C1B36535  34.798  40.629   8.550
 6037POPC   C2B36536  34.822  40.649   8.250
 6037POPC   C3B36537  34.825  40.675   7.950
 6037POPC   C4B36538  34.802  40.611   7.650
 6038POPC   NC336539  36.902  27.620   9.450
 6038POPC   PO436540  36.916  27.571   9.150
 6038POPC   GL136541  36.933  27.593   8.850
 6038POPC   GL236542  36.917  27.463   8.850
 6038POPC   C1A36543  36.916  27.605   8.550
 6038POPC   D2A36544  36.866  27.569   8.250
 6038POPC   C3A36545  36.878  27.638   7.950
 6038POPC   C4A36546  36.876  27.563   7.650
 6038POPC   C1B36547  36.984  27.390   8.550
 6038POPC   C2B36548  36.972  27.390   8.250
 6038POPC   C3B36549  36.986  27.302   7.950
 6038POPC   C4B36550  36.923  27.375   7.650
 6039POPC   NC336551  22.921  13.639   9.450
 6039POPC   PO436552  22.913  13.627   9.150
 6039POPC   GL136553  22.902  13.636   8.850
 6039POPC   GL236554  22.831  13.624   8.850
 6039POPC   C1A36555  22.933  13.647   8.550
 6039POPC   D2A36556  22.914  13.645   8.250
 6039POPC   C3A36557  22.956  13.603   7.950
 6039POPC   C4A36558  22.951  13.621   7.650
 6039POPC   C1B36559  22.693  13.571   8.550
 6039POPC   C2B36560  22.700  13.534   8.250
 6039POPC   C3B36561  22.727  13.553   7.950
 6039POPC   C4B36562  22.691  13.612   7.650
 6040POPC   NC336563  21.417  33.832   9.450
 6040POPC   PO436564  21.349  33.827   9.150
 6040POPC   GL136565  21.391  33.768   8.850
 6040POPC   GL236566  21.284  33.892   8.850
 6040POPC   C1A36567  21.411  33.754   8.550
 6040POPC   D2A36568  21.365  33.842   8.250
 6040POPC   C3A36569  21.348  33.811   7.950
 6040POPC   C4A36570  21.410  33.802   7.650
 6040POPC   C1B36571  21.198  33.915   8.550
 6040POPC   C2B36572  21.127  33.961   8.250
 6040POPC   C3B36573  21.146  33.947   7.950
 6040POPC   C4B36574  21.157  33.906   7.650
 6041POPC   NC336575   8.218   3.544   9.450
 6041POPC   PO436576   8.168   3.499   9.150
 6041POPC   GL136577   8.181   3.548   8.850
 6041POPC   GL236578   8.309   3.611   8.850
 6041POPC   C1A36579   8.214   3.501   8.550
 6041POPC   D2A36580   8.198   3.542   8.250
 6041POPC   C3A36581   8.181   3.562   7.950
 6041POPC   C4A36582   8.203   3.544   7.650
 6041POPC   C1B36583   8.451   3.605   8.550
 6041POPC   C2B36584   8.430   3.656   8.250
 6041POPC   C3B36585   8.458   3.631   7.950
 6041POPC   C4B36586   8.477   3.624   7.650
 6042POPC   NC336587  12.862  32.283   9.450
 6042POPC   PO436588  12.871  32.235   9.150
 6042POPC   GL136589  12.863  32.201   8.850
 6042POPC   GL236590  12.998  32.337   8.850
 6042POPC   C1A36591  12.812  32.259   8.550
 6042POPC   D2A36592  12.883  32.290   8.250
 6042POPC   C3A36593  12.870  32.264   7.950
 6042POPC   C4A36594  12.866  32.233   7.650
 6042POPC   C1B36595  13.055  32.423   8.550
 6042POPC   C2B36596  13.036  32.431   8.250
 6042POPC   C3B36597  13.055  32.371   7.950
 6042POPC   C4B36598  13.023  32.371   7.650
 6043POPC   NC336599  29.122   0.476   9.450
 6043POPC   PO436600  29.130   0.414   9.150
 6043POPC   GL136601  29.129   0.466   8.850
 6043POPC   GL236602  29.292   0.423   8.850
 6043POPC   C1A36603  29.112   0.481   8.550
 6043POPC   D2A36604  29.178   0.443   8.250
 6043POPC   C3A36605  29.175   0.406   7.950
 6043POPC   C4A36606  29.131   0.435   7.650
 6043POPC   C1B36607  29.410   0.332   8.550
 6043POPC   C2B36608  29.417   0.356   8.250
 6043POPC   C3B36609  29.335   0.397   7.950
 6043POPC   C4B36610  29.419   0.316   7.650
 6044POPC   NC336611  40.741  24.458   9.450
 6044POPC   PO436612  40.788  24.537   9.150
 6044POPC   GL136613  40.804  24.496   8.850
 6044POPC   GL236614  40.703  24.381   8.850
 6044POPC   C1A36615  40.810  24.444   8.550
 6044POPC   D2A36616  40.793  24.537   8.250
 6044POPC   C3A36617  40.787  24.483   7.950
 6044POPC   C4A36618  40.777  24.529   7.650
 6044POPC   C1B36619  40.655  24.315   8.550
 6044POPC   C2B36620  40.582  24.258   8.250
 6044POPC   C3B36621  40.657  24.264   7.950
 6044POPC   C4B36622  40.610  24.284   7.650
 6045POPC   NC336623  13.622  16.706   9.450
 6045POPC   PO436624  13.641  16.703   9.150
 6045POPC   GL136625  13.649  16.750   8.850
 6045POPC   GL236626  13.661  16.669   8.850
 6045POPC   C1A36627  13.601  16.700   8.550
 6045POPC   D2A36628  13.661  16.683   8.250
 6045POPC   C3A36629  13.677  16.752   7.950
 6045POPC   C4A36630  13.667  16.772   7.650
 6045POPC   C1B36631  13.787  16.559   8.550
 6045POPC   C2B36632  13.793  16.507   8.250
 6045POPC   C3B36633  13.758  16.540   7.950
 6045POPC   C4B36634  13.760  16.478   7.650
 6046POPC   NC336635  43.901  36.097   9.450
 6046POPC   PO436636  43.906  36.080   9.150
 6046POPC   GL136637  43.931  36.136   8.850
 6046POPC   GL236638  44.016  36.035   8.850
 6046POPC   C1A36639  43.917  36.105   8.550
 6046POPC   D2A36640  43.895  36.126   8.250
 6046POPC   C3A36641  43.885  36.146   7.950
 6046POPC   C4A36642  43.904  36.143   7.650
 6046POPC   C1B36643  44.064  35.992   8.550
 6046POPC   C2B36644  44.116  36.008   8.250
 6046POPC   C3B36645  44.121  36.040   7.950
 6046POPC   C4B36646  44.143  36.024   7.650
 6047POPC   NC336647  29.900  32.219   9.450
 6047POPC   PO436648  29.925  32.241   9.150
 6047POPC   GL136649  29.878  32.237   8.850
 6047POPC   GL236650  30.010  32.313   8.850
 6047POPC   C1A36651  29.913  32.281   8.550
 6047POPC   D2A36652  29.910  32.255   8.250
 6047POPC   C3A36653  29.904  32.293   7.950
 6047POPC   C4A36654  29.911  32.291   7.650
 6047POPC   C1B36655  30.167  32.399   8.550
 6047POPC   C2B36656  30.154  32.398   8.250
 6047POPC   C3B36657  30.088  32.378   7.950
 6047POPC   C4B36658  30.108  32.422   7.650
 6048POPC   NC336659  17.501  34.572   9.450
 6048POPC   PO436660  17.506  34.557   9.150
 6048POPC   GL136661  17.488  34.573   8.850
 6048POPC   GL236662  17.352  34.582   8.850
 6048POPC   C1A36663  17.482  34.536   8.550
 6048POPC   D2A36664  17.552  34.614   8.250
 6048POPC   C3A36665  17.510  34.617   7.950
 6048POPC   C4A36666  17.520  34.582   7.650
 6048POPC   C1B36667  17.232  34.556   8.550
 6048POPC   C2B36668  17.241  34.600   8.250
 6048POPC   C3B36669  17.298  34.598   7.950
 6048POPC   C4B36670  17.221  34.560   7.650
 6049POPC   NC336671   4.313  38.491   9.450
 6049POPC   PO436672   4.360  38.504   9.150
 6049POPC   GL136673   4.364  38.423   8.850
 6049POPC   GL236674   4.327  38.555   8.850
 6049POPC   C1A36675   4.324  38.444   8.550
 6049POPC   D2A36676   4.273  38.447   8.250
 6049POPC   C3A36677   4.314  38.493   7.950
 6049POPC   C4A36678   4.297  38.484   7.650
 6049POPC   C1B36679   4.257  38.649   8.550
 6049POPC   C2B36680   4.270  38.683   8.250
 6049POPC   C3B36681   4.205  38.647   7.950
 6049POPC   C4B36682   4.241  38.703   7.650
 6050POPC   NC336683  39.200  43.921   9.450
 6050POPC   PO436684  39.222  43.919   9.150
 6050POPC   GL136685  39.210  43.867   8.850
 6050POPC   GL236686  39.297  43.772   8.850
 6050POPC   C1A36687  39.249  43.891   8.550
 6050POPC   D2A36688  39.220  43.903   8.250
 6050POPC   C3A36689  39.260  43.935   7.950
 6050POPC   C4A36690  39.221  43.934   7.650
 6050POPC   C1B36691  39.395  43.712   8.550
 6050POPC   C2B36692  39.383  43.643   8.250
 6050POPC   C3B36693  39.362  43.666   7.950
 6050POPC   C4B36694  39.409  43.653   7.650
 6051POPC   NC336695  43.132  20.641   9.450
 6051POPC   PO436696  43.127  20.636   9.150
 6051POPC   GL136697  43.084  20.630   8.850
 6051POPC   GL236698  43.237  20.550   8.850
 6051POPC   C1A36699  43.099  20.580   8.550
 6051POPC   D2A36700  43.071  20.654   8.250
 6051POPC   C3A36701  43.141  20.638   7.950
 6051POPC   C4A36702  43.087  20.608   7.650
 6051POPC   C1B36703  43.342  20.542   8.550
 6051POPC   C2B36704  43.370  20.539   8.250
 6051POPC   C3B36705  43.351  20.482   7.950
 6051POPC   C4B36706  43.297  20.487   7.650
 6052POPC   NC336707   8.968  25.299   9.450
 6052POPC   PO436708   8.997  25.238   9.150
 6052POPC   GL136709   8.940  25.221   8.850
 6052POPC   GL236710   8.894  25.272   8.850
 6052POPC   C1A36711   8.936  25.227   8.550
 6052POPC   D2A36712   9.016  25.299   8.250
 6052POPC   C3A36713   8.955  25.241   7.950
 6052POPC   C4A36714   8.952  25.270   7.650
 6052POPC   C1B36715   8.769  25.227   8.550
 6052POPC   C2B36716   8.770  25.248   8.250
 6052POPC   C3B36717   8.753  25.201   7.950
 6052POPC   C4B36718   8.755  25.230   7.650
 6053POPC   NC336719   1.257  17.528   9.450
 6053POPC   PO436720   1.243  17.537   9.150
 6053POPC   GL136721   1.220  17.479   8.850
 6053POPC   GL236722   1.145  17.630   8.850
 6053POPC   C1A36723   1.244  17.535   8.550
 6053POPC   D2A36724   1.212  17.539   8.250
 6053POPC   C3A36725   1.224  17.525   7.950
 6053POPC   C4A36726   1.217  17.500   7.650
 6053POPC   C1B36727   1.097  17.684   8.550
 6053POPC   C2B36728   1.055  17.698   8.250
 6053POPC   C3B36729   1.107  17.728   7.950
 6053POPC   C4B36730   1.065  17.701   7.650
 6054POPC   NC336731   5.838  40.829   9.450
 6054POPC   PO436732   5.863  40.811   9.150
 6054POPC   GL136733   5.899  40.803   8.850
 6054POPC   GL236734   5.820  40.674   8.850
 6054POPC   C1A36735   5.848  40.832   8.550
 6054POPC   D2A36736   5.829  40.752   8.250
 6054POPC   C3A36737   5.892  40.802   7.950
 6054POPC   C4A36738   5.900  40.773   7.650
 6054POPC   C1B36739   5.758  40.586   8.550
 6054POPC   C2B36740   5.767  40.506   8.250
 6054POPC   C3B36741   5.787  40.594   7.950
 6054POPC   C4B36742   5.742  40.573   7.650
 6055POPC   NC336743  13.611  40.748   9.450
 6055POPC   PO436744  13.580  40.759   9.150
 6055POPC   GL136745  13.627  40.791   8.850
 6055POPC   GL236746  13.578  40.708   8.850
 6055POPC   C1A36747  13.662  40.757   8.550
 6055POPC   D2A36748  13.593  40.788   8.250
 6055POPC   C3A36749  13.631  40.832   7.950
 6055POPC   C4A36750  13.652  40.738   7.650
 6055POPC   C1B36751  13.554  40.584   8.550
 6055POPC   C2B36752  13.490  40.553   8.250
 6055POPC   C3B36753  13.486  40.521   7.950
 6055POPC   C4B36754  13.523  40.591   7.650
 6056POPC   NC336755  23.672  34.565   9.450
 6056POPC   PO436756  23.686  34.620   9.150
 6056POPC   GL136757  23.719  34.596   8.850
 6056POPC   GL236758  23.643  34.683   8.850
 6056POPC   C1A36759  23.698  34.595   8.550
 6056POPC   D2A36760  23.730  34.557   8.250
 6056POPC   C3A36761  23.758  34.558   7.950
 6056POPC   C4A36762  23.672  34.604   7.650
 6056POPC   C1B36763  23.626  34.779   8.550
 6056POPC   C2B36764  23.645  34.797   8.250
 6056POPC   C3B36765  23.647  34.810   7.950
 6056POPC   C4B36766  23.652  34.854   7.650
 6057POPC   NC336767   2.716  13.659   9.450
 6057POPC   PO436768   2.728  13.579   9.150
 6057POPC   GL136769   2.720  13.617   8.850
 6057POPC   GL236770   2.617  13.711   8.850
 6057POPC   C1A36771   2.763  13.585   8.550
 6057POPC   D2A36772   2.785  13.618   8.250
 6057POPC   C3A36773   2.752  13.618   7.950
 6057POPC   C4A36774   2.754  13.606   7.650
 6057POPC   C1B36775   2.582  13.760   8.550
 6057POPC   C2B36776   2.518  13.766   8.250
 6057POPC   C3B36777   2.593  13.729   7.950
 6057POPC   C4B36778   2.558  13.732   7.650
 6058POPC   NC336779   9.786  12.803   9.450
 6058POPC   PO436780   9.707  12.848   9.150
 6058POPC   GL136781   9.780  12.864   8.850
 6058POPC   GL236782   9.592  12.828   8.850
 6058POPC   C1A36783   9.787  12.831   8.550
 6058POPC   D2A36784   9.741  12.837   8.250
 6058POPC   C3A36785   9.741  12.844   7.950
 6058POPC   C4A36786   9.729  12.858   7.650
 6058POPC   C1B36787   9.538  12.785   8.550
 6058POPC   C2B36788   9.501  12.697   8.250
 6058POPC   C3B36789   9.525  12.740   7.950
 6058POPC   C4B36790   9.566  12.775   7.650
 6059POPC   NC336791  15.149  29.131   9.450
 6059POPC   PO436792  15.154  29.124   9.150
 6059POPC   GL136793  15.158  29.149   8.850
 6059POPC   GL236794  15.213  29.242   8.850
 6059POPC   C1A36795  15.225  29.141   8.550
 6059POPC   D2A36796  15.227  29.176   8.250
 6059POPC   C3A36797  15.194  29.141   7.950
 6059POPC   C4A36798  15.224  29.161   7.650
 6059POPC   C1B36799  15.305  29.342   8.550
 6059POPC   C2B36800  15.294  29.363   8.250
 6059POPC   C3B36801  15.289  29.374   7.950
 6059POPC   C4B36802  15.300  29.371   7.650
 6060POPC   NC336803  11.253   5.845   9.450
 6060POPC   PO436804  11.269   5.856   9.150
 6060POPC   GL136805  11.299   5.843   8.850
 6060POPC   GL236806  11.336   6.030   8.850
 6060POPC   C1A36807  11.283   5.821   8.550
 6060POPC   D2A36808  11.328   5.886   8.250
 6060POPC   C3A36809  11.307   5.890   7.950
 6060POPC   C4A36810  11.342   5.890   7.650
 6060POPC   C1B36811  11.325   6.115   8.550
 6060POPC   C2B36812  11.325   6.083   8.250
 6060POPC   C3B36813  11.288   6.078   7.950
 6060POPC   C4B36814  11.301   6.120   7.650
 6061POPC   NC336815  15.158  41.600   9.450
 6061POPC   PO436816  15.185  41.576   9.150
 6061POPC   GL136817  15.143  41.544   8.850
 6061POPC   GL236818  15.176  41.472   8.850
 6061POPC   C1A36819  15.173  41.527   8.550
 6061POPC   D2A36820  15.162  41.515   8.250
 6061POPC   C3A36821  15.182  41.539   7.950
 6061POPC   C4A36822  15.175  41.600   7.650
 6061POPC   C1B36823  15.211  41.309   8.550
 6061POPC   C2B36824  15.200  41.326   8.250
 6061POPC   C3B36825  15.219  41.348   7.950
 6061POPC   C4B36826  15.219  41.292   7.650
 6062POPC   NC336827  42.337  18.305   9.450
 6062POPC   PO436828  42.286  18.246   9.150
 6062POPC   GL136829  42.375  18.285   8.850
 6062POPC   GL236830  42.226  18.139   8.850
 6062POPC   C1A36831  42.348  18.275   8.550
 6062POPC   D2A36832  42.382  18.278   8.250
 6062POPC   C3A36833  42.345  18.278   7.950
 6062POPC   C4A36834  42.318  18.242   7.650
 6062POPC   C1B36835  42.192  18.056   8.550
 6062POPC   C2B36836  42.194  18.106   8.250
 6062POPC   C3B36837  42.199  18.102   7.950
 6062POPC   C4B36838  42.149  18.087   7.650
 6063POPC   NC336839  31.461  15.132   9.450
 6063POPC   PO436840  31.483  15.161   9.150
 6063POPC   GL136841  31.509  15.197   8.850
 6063POPC   GL236842  31.562  15.030   8.850
 6063POPC   C1A36843  31.432  15.150   8.550
 6063POPC   D2A36844  31.513  15.198   8.250
 6063POPC   C3A36845  31.494  15.209   7.950
 6063POPC   C4A36846  31.474  15.206   7.650
 6063POPC   C1B36847  31.588  14.927   8.550
 6063POPC   C2B36848  31.579  14.992   8.250
 6063POPC   C3B36849  31.569  14.923   7.950
 6063POPC   C4B36850  31.554  14.943   7.650
 6064POPC   NC336851  35.371   1.247   9.450
 6064POPC   PO436852  35.328   1.236   9.150
 6064POPC   GL136853  35.317   1.229   8.850
 6064POPC   GL236854  35.505   1.200   8.850
 6064POPC   C1A36855  35.341   1.214   8.550
 6064POPC   D2A36856  35.332   1.192   8.250
 6064POPC   C3A36857  35.319   1.194   7.950
 6064POPC   C4A36858  35.314   1.185   7.650
 6064POPC   C1B36859  35.600   1.068   8.550
 6064POPC   C2B36860  35.565   1.115   8.250
 6064POPC   C3B36861  35.582   1.103   7.950
 6064POPC   C4B36862  35.610   1.146   7.650
 6065POPC   NC336863  17.550  33.823   9.450
 6065POPC   PO436864  17.531  33.783   9.150
 6065POPC   GL136865  17.473  33.820   8.850
 6065POPC   GL236866  17.590  33.797   8.850
 6065POPC   C1A36867  17.521  33.833   8.550
 6065POPC   D2A36868  17.462  33.767   8.250
 6065POPC   C3A36869  17.492  33.760   7.950
 6065POPC   C4A36870  17.486  33.751   7.650
 6065POPC   C1B36871  17.740  33.834   8.550
 6065POPC   C2B36872  17.735  33.849   8.250
 6065POPC   C3B36873  17.725  33.894   7.950
 6065POPC   C4B36874  17.705  33.834   7.650
 6066POPC   NC336875  26.786  33.814   9.450
 6066POPC   PO436876  26.767  33.752   9.150
 6066POPC   GL136877  26.864  33.849   8.850
 6066POPC   GL236878  26.858  33.721   8.850
 6066POPC   C1A36879  26.865  33.832   8.550
 6066POPC   D2A36880  26.831  33.821   8.250
 6066POPC   C3A36881  26.864  33.779   7.950
 6066POPC   C4A36882  26.826  33.801   7.650
 6066POPC   C1B36883  26.838  33.565   8.550
 6066POPC   C2B36884  26.873  33.564   8.250
 6066POPC   C3B36885  26.829  33.563   7.950
 6066POPC   C4B36886  26.871  33.598   7.650
 6067POPC   NC336887   4.315  12.842   9.450
 6067POPC   PO436888   4.276  12.850   9.150
 6067POPC   GL136889   4.268  12.896   8.850
 6067POPC   GL236890   4.231  12.876   8.850
 6067POPC   C1A36891   4.316  12.879   8.550
 6067POPC   D2A36892   4.357  12.885   8.250
 6067POPC   C3A36893   4.309  12.851   7.950
 6067POPC   C4A36894   4.325  12.830   7.650
 6067POPC   C1B36895   4.079  12.870   8.550
 6067POPC   C2B36896   4.080  12.865   8.250
 6067POPC   C3B36897   4.044  12.865   7.950
 6067POPC   C4B36898   4.094  12.903   7.650
 6068POPC   NC336899  42.364  19.825   9.450
 6068POPC   PO436900  42.369  19.858   9.150
 6068POPC   GL136901  42.326  19.876   8.850
 6068POPC   GL236902  42.240  19.705   8.850
 6068POPC   C1A36903  42.304  19.850   8.550
 6068POPC   D2A36904  42.329  19.796   8.250
 6068POPC   C3A36905  42.338  19.797   7.950
 6068POPC   C4A36906  42.345  19.796   7.650
 6068POPC   C1B36907  42.160  19.647   8.550
 6068POPC   C2B36908  42.168  19.689   8.250
 6068POPC   C3B36909  42.169  19.605   7.950
 6068POPC   C4B36910  42.184  19.692   7.650
 6069POPC   NC336911   1.223   2.803   9.450
 6069POPC   PO436912   1.213   2.747   9.150
 6069POPC   GL136913   1.223   2.755   8.850
 6069POPC   GL236914   1.105   2.846   8.850
 6069POPC   C1A36915   1.211   2.810   8.550
 6069POPC   D2A36916   1.210   2.813   8.250
 6069POPC   C3A36917   1.198   2.746   7.950
 6069POPC   C4A36918   1.226   2.775   7.650
 6069POPC   C1B36919   0.965   2.924   8.550
 6069POPC   C2B36920   0.977   2.919   8.250
 6069POPC   C3B36921   1.040   2.923   7.950
 6069POPC   C4B36922   1.037   2.831   7.650
 6070POPC   NC336923  34.557  22.953   9.450
 6070POPC   PO436924  34.598  22.962   9.150
 6070POPC   GL136925  34.547  22.987   8.850
 6070POPC   GL236926  34.705  22.887   8.850
 6070POPC   C1A36927  34.548  22.897   8.550
 6070POPC   D2A36928  34.569  22.957   8.250
 6070POPC   C3A36929  34.537  22.958   7.950
 6070POPC   C4A36930  34.567  22.976   7.650
 6070POPC   C1B36931  34.812  22.832   8.550
 6070POPC   C2B36932  34.765  22.829   8.250
 6070POPC   C3B36933  34.817  22.883   7.950
 6070POPC   C4B36934  34.804  22.879   7.650
 6071POPC   NC336935  40.017  32.227   9.450
 6071POPC   PO436936  39.973  32.241   9.150
 6071POPC   GL136937  39.960  32.232   8.850
 6071POPC   GL236938  40.147  32.364   8.850
 6071POPC   C1A36939  39.984  32.290   8.550
 6071POPC   D2A36940  40.057  32.205   8.250
 6071POPC   C3A36941  39.980  32.202   7.950
 6071POPC   C4A36942  40.039  32.281   7.650
 6071POPC   C1B36943  40.200  32.433   8.550
 6071POPC   C2B36944  40.198  32.427   8.250
 6071POPC   C3B36945  40.254  32.388   7.950
 6071POPC   C4B36946  40.259  32.351   7.650
 6072POPC   NC336947  32.231  42.290   9.450
 6072POPC   PO436948  32.237  42.355   9.150
 6072POPC   GL136949  32.234  42.318   8.850
 6072POPC   GL236950  32.290  42.475   8.850
 6072POPC   C1A36951  32.295  42.341   8.550
 6072POPC   D2A36952  32.256  42.367   8.250
 6072POPC   C3A36953  32.210  42.378   7.950
 6072POPC   C4A36954  32.280  42.354   7.650
 6072POPC   C1B36955  32.348  42.534   8.550
 6072POPC   C2B36956  32.402  42.509   8.250
 6072POPC   C3B36957  32.396  42.499   7.950
 6072POPC   C4B36958  32.398  42.509   7.650
 6073POPC   NC336959  29.938  29.904   9.450
 6073POPC   PO436960  29.881  29.964   9.150
 6073POPC   GL136961  29.965  29.884   8.850
 6073POPC   GL236962  30.049  29.991   8.850
 6073POPC   C1A36963  29.907  29.962   8.550
 6073POPC   D2A36964  29.961  29.944   8.250
 6073POPC   C3A36965  29.965  29.910   7.950
 6073POPC   C4A36966  29.918  29.927   7.650
 6073POPC   C1B36967  30.158  29.995   8.550
 6073POPC   C2B36968  30.211  29.967   8.250
 6073POPC   C3B36969  30.119  29.947   7.950
 6073POPC   C4B36970  30.164  29.947   7.650
 6074POPC   NC336971   5.099  22.941   9.450
 6074POPC   PO436972   5.138  22.902   9.150
 6074POPC   GL136973   5.098  22.945   8.850
 6074POPC   GL236974   5.232  22.980   8.850
 6074POPC   C1A36975   5.058  22.961   8.550
 6074POPC   D2A36976   5.063  22.986   8.250
 6074POPC   C3A36977   5.054  22.920   7.950
 6074POPC   C4A36978   5.053  22.983   7.650
 6074POPC   C1B36979   5.321  22.980   8.550
 6074POPC   C2B36980   5.341  22.948   8.250
 6074POPC   C3B36981   5.344  22.979   7.950
 6074POPC   C4B36982   5.323  23.022   7.650
 6075POPC   NC336983  16.730  38.437   9.450
 6075POPC   PO436984  16.757  38.441   9.150
 6075POPC   GL136985  16.775  38.435   8.850
 6075POPC   GL236986  16.851  38.467   8.850
 6075POPC   C1A36987  16.686  38.473   8.550
 6075POPC   D2A36988  16.739  38.498   8.250
 6075POPC   C3A36989  16.714  38.468   7.950
 6075POPC   C4A36990  16.712  38.432   7.650
 6075POPC   C1B36991  16.921  38.531   8.550
 6075POPC   C2B36992  16.928  38.531   8.250
 6075POPC   C3B36993  16.982  38.543   7.950
 6075POPC   C4B36994  16.936  38.612   7.650
 6076POPC   NC336995  17.544   3.540   9.450
 6076POPC   PO436996  17.543   3.511   9.150
 6076POPC   GL136997  17.458   3.498   8.850
 6076POPC   GL236998  17.527   3.694   8.850
 6076POPC   C1A36999  17.502   3.505   8.550
 6076POPC   D2A37000  17.458   3.565   8.250
 6076POPC   C3A37001  17.529   3.505   7.950
 6076POPC   C4A37002  17.489   3.517   7.650
 6076POPC   C1B37003  17.542   3.756   8.550
 6076POPC   C2B37004  17.570   3.761   8.250
 6076POPC   C3B37005  17.540   3.743   7.950
 6076POPC   C4B37006  17.604   3.767   7.650
 6077POPC   NC337007  15.166  44.688   9.450
 6077POPC   PO437008  15.188  44.635   9.150
 6077POPC   GL137009  15.200  44.664   8.850
 6077POPC   GL237010  15.129  44.530   8.850
 6077POPC   C1A37011  15.197  44.661   8.550
 6077POPC   D2A37012  15.171  44.655   8.250
 6077POPC   C3A37013  15.152  44.619   7.950
 6077POPC   C4A37014  15.187  44.622   7.650
 6077POPC   C1B37015  14.965  44.481   8.550
 6077POPC   C2B37016  15.004  44.497   8.250
 6077POPC   C3B37017  15.030  44.469   7.950
 6077POPC   C4B37018  14.982  44.515   7.650
 6078POPC   NC337019   0.482  25.992   9.450
 6078POPC   PO437020   0.457  25.994   9.150
 6078POPC   GL137021   0.425  26.078   8.850
 6078POPC   GL237022   0.508  25.981   8.850
 6078POPC   C1A37023   0.397  26.068   8.550
 6078POPC   D2A37024   0.445  26.019   8.250
 6078POPC   C3A37025   0.428  26.002   7.950
 6078POPC   C4A37026   0.442  26.033   7.650
 6078POPC   C1B37027   0.722  25.950   8.550
 6078POPC   C2B37028   0.651  25.961   8.250
 6078POPC   C3B37029   0.705  25.914   7.950
 6078POPC   C4B37030   0.648  25.978   7.650
 6079POPC   NC337031  27.597  31.489   9.450
 6079POPC   PO437032  27.611  31.505   9.150
 6079POPC   GL137033  27.615  31.515   8.850
 6079POPC   GL237034  27.666  31.546   8.850
 6079POPC   C1A37035  27.605  31.490   8.550
 6079POPC   D2A37036  27.555  31.445   8.250
 6079POPC   C3A37037  27.595  31.493   7.950
 6079POPC   C4A37038  27.624  31.491   7.650
 6079POPC   C1B37039  27.630  31.713   8.550
 6079POPC   C2B37040  27.659  31.750   8.250
 6079POPC   C3B37041  27.639  31.741   7.950
 6079POPC   C4B37042  27.643  31.753   7.650
 6080POPC   NC337043  13.639   8.195   9.450
 6080POPC   PO437044  13.650   8.231   9.150
 6080POPC   GL137045  13.629   8.223   8.850
 6080POPC   GL237046  13.729   8.235   8.850
 6080POPC   C1A37047  13.658   8.158   8.550
 6080POPC   D2A37048  13.658   8.214   8.250
 6080POPC   C3A37049  13.621   8.182   7.950
 6080POPC   C4A37050  13.626   8.182   7.650
 6080POPC   C1B37051  13.916   8.142   8.550
 6080POPC   C2B37052  13.839   8.203   8.250
 6080POPC   C3B37053  13.896   8.217   7.950
 6080POPC   C4B37054  13.838   8.164   7.650
 6081POPC   NC337055  32.212  11.324   9.450
 6081POPC   PO437056  32.243  11.301   9.150
 6081POPC   GL137057  32.258  11.291   8.850
 6081POPC   GL237058  32.170  11.192   8.850
 6081POPC   C1A37059  32.203  11.299   8.550
 6081POPC   D2A37060  32.278  11.340   8.250
 6081POPC   C3A37061  32.257  11.320   7.950
 6081POPC   C4A37062  32.203  11.259   7.650
 6081POPC   C1B37063  32.120  11.076   8.550
 6081POPC   C2B37064  32.139  11.065   8.250
 6081POPC   C3B37065  32.183  11.029   7.950
 6081POPC   C4B37066  32.116  11.068   7.650
 6082POPC   NC337067  19.067  39.201   9.450
 6082POPC   PO437068  19.031  39.253   9.150
 6082POPC   GL137069  19.105  39.262   8.850
 6082POPC   GL237070  19.119  39.291   8.850
 6082POPC   C1A37071  19.009  39.236   8.550
 6082POPC   D2A37072  19.094  39.250   8.250
 6082POPC   C3A37073  19.046  39.226   7.950
 6082POPC   C4A37074  19.059  39.231   7.650
 6082POPC   C1B37075  19.246  39.399   8.550
 6082POPC   C2B37076  19.286  39.314   8.250
 6082POPC   C3B37077  19.293  39.365   7.950
 6082POPC   C4B37078  19.299  39.392   7.650
 6083POPC   NC337079  41.527  24.457   9.450
 6083POPC   PO437080  41.553  24.524   9.150
 6083POPC   GL137081  41.524  24.527   8.850
 6083POPC   GL237082  41.614  24.325   8.850
 6083POPC   C1A37083  41.527  24.468   8.550
 6083POPC   D2A37084  41.555  24.460   8.250
 6083POPC   C3A37085  41.578  24.497   7.950
 6083POPC   C4A37086  41.525  24.467   7.650
 6083POPC   C1B37087  41.629  24.244   8.550
 6083POPC   C2B37088  41.674  24.282   8.250
 6083POPC   C3B37089  41.596  24.268   7.950
 6083POPC   C4B37090  41.614  24.280   7.650
 6084POPC   NC337091  31.463  15.955   9.450
 6084POPC   PO437092  31.444  15.974   9.150
 6084POPC   GL137093  31.522  15.913   8.850
 6084POPC   GL237094  31.444  16.036   8.850
 6084POPC   C1A37095  31.506  15.983   8.550
 6084POPC   D2A37096  31.453  15.946   8.250
 6084POPC   C3A37097  31.511  15.970   7.950
 6084POPC   C4A37098  31.465  15.987   7.650
 6084POPC   C1B37099  31.320  16.129   8.550
 6084POPC   C2B37100  31.343  16.186   8.250
 6084POPC   C3B37101  31.324  16.168   7.950
 6084POPC   C4B37102  31.384  16.151   7.650
 6085POPC   NC337103  11.346   1.947   9.450
 6085POPC   PO437104  11.300   2.023   9.150
 6085POPC   GL137105  11.288   1.944   8.850
 6085POPC   GL237106  11.232   2.102   8.850
 6085POPC   C1A37107  11.332   2.001   8.550
 6085POPC   D2A37108  11.316   1.955   8.250
 6085POPC   C3A37109  11.276   1.990   7.950
 6085POPC   C4A37110  11.334   2.034   7.650
 6085POPC   C1B37111  11.147   2.129   8.550
 6085POPC   C2B37112  11.165   2.195   8.250
 6085POPC   C3B37113  11.137   2.171   7.950
 6085POPC   C4B37114  11.184   2.218   7.650
 6086POPC   NC337115   9.765   2.771   9.450
 6086POPC   PO437116   9.778   2.777   9.150
 6086POPC   GL137117   9.724   2.784   8.850
 6086POPC   GL237118   9.851   2.677   8.850
 6086POPC   C1A37119   9.783   2.792   8.550
 6086POPC   D2A37120   9.786   2.811   8.250
 6086POPC   C3A37121   9.721   2.742   7.950
 6086POPC   C4A37122   9.721   2.799   7.650
 6086POPC   C1B37123   9.904   2.601   8.550
 6086POPC   C2B37124   9.905   2.635   8.250
 6086POPC   C3B37125   9.948   2.580   7.950
 6086POPC   C4B37126   9.937   2.649   7.650
 6087POPC   NC337127  43.861   6.629   9.450
 6087POPC   PO437128  43.931   6.630   9.150
 6087POPC   GL137129  43.930   6.612   8.850
 6087POPC   GL237130  43.776   6.624   8.850
 6087POPC   C1A37131  43.862   6.603   8.550
 6087POPC   D2A37132  43.839   6.660   8.250
 6087POPC   C3A37133  43.909   6.621   7.950
 6087POPC   C4A37134  43.845   6.679   7.650
 6087POPC   C1B37135  43.685   6.552   8.550
 6087POPC   C2B37136  43.627   6.525   8.250
 6087POPC   C3B37137  43.622   6.588   7.950
 6087POPC   C4B37138  43.622   6.526   7.650
 6088POPC   NC337139  12.102  22.958   9.450
 6088POPC   PO437140  12.090  22.975   9.150
 6088POPC   GL137141  12.046  22.922   8.850
 6088POPC   GL237142  12.005  23.042   8.850
 6088POPC   C1A37143  12.038  22.957   8.550
 6088POPC   D2A37144  12.062  22.976   8.250
 6088POPC   C3A37145  12.108  22.907   7.950
 6088POPC   C4A37146  12.036  22.896   7.650
 6088POPC   C1B37147  11.988  23.140   8.550
 6088POPC   C2B37148  11.979  23.162   8.250
 6088POPC   C3B37149  11.954  23.184   7.950
 6088POPC   C4B37150  11.957  23.164   7.650
 6089POPC   NC337151   9.706  12.107   9.450
 6089POPC   PO437152   9.792  12.051   9.150
 6089POPC   GL137153   9.785  12.031   8.850
 6089POPC   GL237154   9.705  12.211   8.850
 6089POPC   C1A37155   9.754  12.068   8.550
 6089POPC   D2A37156   9.731  12.074   8.250
 6089POPC   C3A37157   9.727  12.063   7.950
 6089POPC   C4A37158   9.728  12.048   7.650
 6089POPC   C1B37159   9.626  12.331   8.550
 6089POPC   C2B37160   9.638  12.352   8.250
 6089POPC   C3B37161   9.682  12.331   7.950
 6089POPC   C4B37162   9.627  12.276   7.650
 6090POPC   NC337163  24.499  25.222   9.450
 6090POPC   PO437164  24.522  25.231   9.150
 6090POPC   GL137165  24.478  25.278   8.850
 6090POPC   GL237166  24.505  25.174   8.850
 6090POPC   C1A37167  24.491  25.294   8.550
 6090POPC   D2A37168  24.514  25.286   8.250
 6090POPC   C3A37169  24.494  25.222   7.950
 6090POPC   C4A37170  24.503  25.315   7.650
 6090POPC   C1B37171  24.534  24.975   8.550
 6090POPC   C2B37172  24.538  25.046   8.250
 6090POPC   C3B37173  24.573  25.032   7.950
 6090POPC   C4B37174  24.484  25.044   7.650
 6091POPC   NC337175  25.240   0.424   9.450
 6091POPC   PO437176  25.223   0.401   9.150
 6091POPC   GL137177  25.220   0.431   8.850
 6091POPC   GL237178  25.201   0.531   8.850
 6091POPC   C1A37179  25.302   0.481   8.550
 6091POPC   D2A37180  25.280   0.396   8.250
 6091POPC   C3A37181  25.244   0.394   7.950
 6091POPC   C4A37182  25.268   0.433   7.650
 6091POPC   C1B37183  25.200   0.649   8.550
 6091POPC   C2B37184  25.211   0.659   8.250
 6091POPC   C3B37185  25.128   0.651   7.950
 6091POPC   C4B37186  25.205   0.640   7.650
 6092POPC   NC337187  17.508  40.812   9.450
 6092POPC   PO437188  17.555  40.770   9.150
 6092POPC   GL137189  17.509  40.770   8.850
 6092POPC   GL237190  17.378  40.757   8.850
 6092POPC   C1A37191  17.506  40.793   8.550
 6092POPC   D2A37192  17.546  40.758   8.250
 6092POPC   C3A37193  17.496  40.745   7.950
 6092POPC   C4A37194  17.482  40.830   7.650
 6092POPC   C1B37195  17.291  40.742   8.550
 6092POPC   C2B37196  17.292  40.731   8.250
 6092POPC   C3B37197  17.301  40.689   7.950
 6092POPC   C4B37198  17.294  40.776   7.650
 6093POPC   NC337199  36.912  43.922   9.450
 6093POPC   PO437200  36.885  43.895   9.150
 6093POPC   GL137201  36.897  43.847   8.850
 6093POPC   GL237202  36.766  43.870   8.850
 6093POPC   C1A37203  36.950  43.912   8.550
 6093POPC   D2A37204  36.917  43.859   8.250
 6093POPC   C3A37205  36.953  43.934   7.950
 6093POPC   C4A37206  36.902  43.924   7.650
 6093POPC   C1B37207  36.631  43.815   8.550
 6093POPC   C2B37208  36.629  43.808   8.250
 6093POPC   C3B37209  36.657  43.780   7.950
 6093POPC   C4B37210  36.676  43.818   7.650
 6094POPC   NC337211  39.233  16.755   9.450
 6094POPC   PO437212  39.250  16.764   9.150
 6094POPC   GL137213  39.184  16.724   8.850
 6094POPC   GL237214  39.303  16.849   8.850
 6094POPC   C1A37215  39.249  16.759   8.550
 6094POPC   D2A37216  39.275  16.742   8.250
 6094POPC   C3A37217  39.269  16.767   7.950
 6094POPC   C4A37218  39.241  16.755   7.650
 6094POPC   C1B37219  39.303  16.995   8.550
 6094POPC   C2B37220  39.334  16.973   8.250
 6094POPC   C3B37221  39.388  17.001   7.950
 6094POPC   C4B37222  39.342  16.958   7.650
 6095POPC   NC337223  15.157  40.008   9.450
 6095POPC   PO437224  15.156  39.960   9.150
 6095POPC   GL137225  15.222  39.957   8.850
 6095POPC   GL237226  15.173  39.874   8.850
 6095POPC   C1A37227  15.219  39.982   8.550
 6095POPC   D2A37228  15.173  39.982   8.250
 6095POPC   C3A37229  15.170  40.002   7.950
 6095POPC   C4A37230  15.168  39.983   7.650
 6095POPC   C1B37231  15.219  39.769   8.550
 6095POPC   C2B37232  15.169  39.786   8.250
 6095POPC   C3B37233  15.195  39.783   7.950
 6095POPC   C4B37234  15.207  39.782   7.650
 6096POPC   NC337235  27.635   6.687   9.450
 6096POPC   PO437236  27.591   6.613   9.150
 6096POPC   GL137237  27.577   6.671   8.850
 6096POPC   GL237238  27.729   6.689   8.850
 6096POPC   C1A37239  27.590   6.686   8.550
 6096POPC   D2A37240  27.632   6.630   8.250
 6096POPC   C3A37241  27.635   6.671   7.950
 6096POPC   C4A37242  27.597   6.614   7.650
 6096POPC   C1B37243  27.868   6.719   8.550
 6096POPC   C2B37244  27.812   6.757   8.250
 6096POPC   C3B37245  27.801   6.746   7.950
 6096POPC   C4B37246  27.828   6.681   7.650
 6097POPC   NC337247   8.164  30.693   9.450
 6097POPC   PO437248   8.148  30.736   9.150
 6097POPC   GL137249   8.208  30.664   8.850
 6097POPC   GL237250   8.272  30.640   8.850
 6097POPC   C1A37251   8.178  30.664   8.550
 6097POPC   D2A37252   8.182  30.675   8.250
 6097POPC   C3A37253   8.164  30.649   7.950
 6097POPC   C4A37254   8.161  30.695   7.650
 6097POPC   C1B37255   8.467  30.679   8.550
 6097POPC   C2B37256   8.395  30.664   8.250
 6097POPC   C3B37257   8.455  30.657   7.950
 6097POPC   C4B37258   8.444  30.592   7.650
 6098POPC   NC337259   3.578  41.536   9.450
 6098POPC   PO437260   3.503  41.584   9.150
 6098POPC   GL137261   3.543  41.510   8.850
 6098POPC   GL237262   3.442  41.506   8.850
 6098POPC   C1A37263   3.500  41.527   8.550
 6098POPC   D2A37264   3.538  41.600   8.250
 6098POPC   C3A37265   3.496  41.601   7.950
 6098POPC   C4A37266   3.540  41.597   7.650
 6098POPC   C1B37267   3.321  41.402   8.550
 6098POPC   C2B37268   3.393  41.411   8.250
 6098POPC   C3B37269   3.401  41.442   7.950
 6098POPC   C4B37270   3.355  41.407   7.650
 6099POPC   NC337271  31.437  11.255   9.450
 6099POPC   PO437272  31.515  11.263   9.150
 6099POPC   GL137273  31.469  11.266   8.850
 6099POPC   GL237274  31.639  11.288   8.850
 6099POPC   C1A37275  31.505  11.265   8.550
 6099POPC   D2A37276  31.470  11.290   8.250
 6099POPC   C3A37277  31.508  11.326   7.950
 6099POPC   C4A37278  31.462  11.261   7.650
 6099POPC   C1B37279  31.729  11.208   8.550
 6099POPC   C2B37280  31.726  11.221   8.250
 6099POPC   C3B37281  31.712  11.209   7.950
 6099POPC   C4B37282  31.664  11.177   7.650
 6100POPC   NC337283  19.014  31.435   9.450
 6100POPC   PO437284  19.052  31.435   9.150
 6100POPC   GL137285  19.025  31.517   8.850
 6100POPC   GL237286  18.949  31.377   8.850
 6100POPC   C1A37287  19.076  31.514   8.550
 6100POPC   D2A37288  19.042  31.423   8.250
 6100POPC   C3A37289  19.041  31.462   7.950
 6100POPC   C4A37290  19.053  31.457   7.650
 6100POPC   C1B37291  18.891  31.299   8.550
 6100POPC   C2B37292  18.818  31.331   8.250
 6100POPC   C3B37293  18.899  31.300   7.950
 6100POPC   C4B37294  18.896  31.370   7.650
 6101POPC   NC337295  14.444  12.110   9.450
 6101POPC   PO437296  14.443  12.074   9.150
 6101POPC   GL137297  14.355  12.066   8.850
 6101POPC   GL237298  14.474  12.145   8.850
 6101POPC   C1A37299  14.443  12.114   8.550
 6101POPC   D2A37300  14.359  12.053   8.250
 6101POPC   C3A37301  14.370  12.117   7.950
 6101POPC   C4A37302  14.423  12.110   7.650
 6101POPC   C1B37303  14.619  12.228   8.550
 6101POPC   C2B37304  14.623  12.278   8.250
 6101POPC   C3B37305  14.633  12.242   7.950
 6101POPC   C4B37306  14.623  12.209   7.650
 6102POPC   NC337307   7.437  28.400   9.450
 6102POPC   PO437308   7.390  28.368   9.150
 6102POPC   GL137309   7.445  28.341   8.850
 6102POPC   GL237310   7.514  28.442   8.850
 6102POPC   C1A37311   7.405  28.356   8.550
 6102POPC   D2A37312   7.462  28.406   8.250
 6102POPC   C3A37313   7.433  28.405   7.950
 6102POPC   C4A37314   7.378  28.339   7.650
 6102POPC   C1B37315   7.588  28.522   8.550
 6102POPC   C2B37316   7.611  28.522   8.250
 6102POPC   C3B37317   7.594  28.541   7.950
 6102POPC   C4B37318   7.649  28.518   7.650
 6103POPC   NC337319   6.679   1.975   9.450
 6103POPC   PO437320   6.608   2.037   9.150
 6103POPC   GL137321   6.675   2.020   8.850
 6103POPC   GL237322   6.743   1.876   8.850
 6103POPC   C1A37323   6.641   2.012   8.550
 6103POPC   D2A37324   6.652   2.025   8.250
 6103POPC   C3A37325   6.666   2.035   7.950
 6103POPC   C4A37326   6.601   2.032   7.650
 6103POPC   C1B37327   6.860   1.872   8.550
 6103POPC   C2B37328   6.810   1.814   8.250
 6103POPC   C3B37329   6.850   1.816   7.950
 6103POPC   C4B37330   6.842   1.833   7.650
 6104POPC   NC337331   1.966  25.251   9.450
 6104POPC   PO437332   1.955  25.279   9.150
 6104POPC   GL137333   1.941  25.233   8.850
 6104POPC   GL237334   2.003  25.155   8.850
 6104POPC   C1A37335   2.020  25.240   8.550
 6104POPC   D2A37336   1.963  25.252   8.250
 6104POPC   C3A37337   1.995  25.225   7.950
 6104POPC   C4A37338   2.001  25.242   7.650
 6104POPC   C1B37339   2.065  25.075   8.550
 6104POPC   C2B37340   2.108  25.059   8.250
 6104POPC   C3B37341   2.068  25.023   7.950
 6104POPC   C4B37342   2.091  25.060   7.650
 6105POPC   NC337343  22.889   0.415   9.450
 6105POPC   PO437344  22.943   0.425   9.150
 6105POPC   GL137345  22.908   0.396   8.850
 6105POPC   GL237346  23.047   0.375   8.850
 6105POPC   C1A37347  22.924   0.473   8.550
 6105POPC   D2A37348  22.926   0.392   8.250
 6105POPC   C3A37349  22.909   0.391   7.950
 6105POPC   C4A37350  22.958   0.443   7.650
 6105POPC   C1B37351  23.159   0.259   8.550
 6105POPC   C2B37352  23.131   0.219   8.250
 6105POPC   C3B37353  23.149   0.303   7.950
 6105POPC   C4B37354  23.116   0.265   7.650
 6106POPC   NC337355  36.886  28.391   9.450
 6106POPC   PO437356  36.930  28.368   9.150
 6106POPC   GL137357  36.934  28.333   8.850
 6106POPC   GL237358  36.804  28.322   8.850
 6106POPC   C1A37359  36.953  28.320   8.550
 6106POPC   D2A37360  36.896  28.365   8.250
 6106POPC   C3A37361  36.865  28.414   7.950
 6106POPC   C4A37362  36.915  28.328   7.650
 6106POPC   C1B37363  36.681  28.215   8.550
 6106POPC   C2B37364  36.722  28.213   8.250
 6106POPC   C3B37365  36.704  28.246   7.950
 6106POPC   C4B37366  36.678  28.227   7.650
 6107POPC   NC337367   4.350  29.176   9.450
 6107POPC   PO437368   4.271  29.162   9.150
 6107POPC   GL137369   4.321  29.135   8.850
 6107POPC   GL237370   4.236  29.175   8.850
 6107POPC   C1A37371   4.280  29.126   8.550
 6107POPC   D2A37372   4.361  29.108   8.250
 6107POPC   C3A37373   4.299  29.136   7.950
 6107POPC   C4A37374   4.351  29.173   7.650
 6107POPC   C1B37375   4.065  29.326   8.550
 6107POPC   C2B37376   4.068  29.296   8.250
 6107POPC   C3B37377   4.113  29.287   7.950
 6107POPC   C4B37378   4.071  29.308   7.650
 6108POPC   NC337379  11.265  32.213   9.450
 6108POPC   PO437380  11.313  32.252   9.150
 6108POPC   GL137381  11.337  32.237   8.850
 6108POPC   GL237382  11.201  32.155   8.850
 6108POPC   C1A37383  11.339  32.279   8.550
 6108POPC   D2A37384  11.345  32.213   8.250
 6108POPC   C3A37385  11.253  32.268   7.950
 6108POPC   C4A37386  11.306  32.274   7.650
 6108POPC   C1B37387  11.197  32.038   8.550
 6108POPC   C2B37388  11.160  32.039   8.250
 6108POPC   C3B37389  11.233  31.996   7.950
 6108POPC   C4B37390  11.162  32.048   7.650
 6109POPC   NC337391  37.689  25.242   9.450
 6109POPC   PO437392  37.715  25.224   9.150
 6109POPC   GL137393  37.653  25.265   8.850
 6109POPC   GL237394  37.709  25.161   8.850
 6109POPC   C1A37395  37.662  25.236   8.550
 6109POPC   D2A37396  37.675  25.272   8.250
 6109POPC   C3A37397  37.709  25.310   7.950
 6109POPC   C4A37398  37.719  25.244   7.650
 6109POPC   C1B37399  37.716  24.979   8.550
 6109POPC   C2B37400  37.637  25.021   8.250
 6109POPC   C3B37401  37.701  25.065   7.950
 6109POPC   C4B37402  37.732  24.968   7.650
 6110POPC   NC337403   5.869  25.288   9.450
 6110POPC   PO437404   5.828  25.253   9.150
 6110POPC   GL137405   5.916  25.301   8.850
 6110POPC   GL237406   5.799  25.144   8.850
 6110POPC   C1A37407   5.851  25.284   8.550
 6110POPC   D2A37408   5.878  25.297   8.250
 6110POPC   C3A37409   5.868  25.228   7.950
 6110POPC   C4A37410   5.876  25.258   7.650
 6110POPC   C1B37411   5.751  25.099   8.550
 6110POPC   C2B37412   5.765  25.034   8.250
 6110POPC   C3B37413   5.716  25.106   7.950
 6110POPC   C4B37414   5.764  25.074   7.650
 6111POPC   NC337415  35.354  30.718   9.450
 6111POPC   PO437416  35.344  30.669   9.150
 6111POPC   GL137417  35.386  30.680   8.850
 6111POPC   GL237418  35.435  30.534   8.850
 6111POPC   C1A37419  35.329  30.686   8.550
 6111POPC   D2A37420  35.378  30.656   8.250
 6111POPC   C3A37421  35.381  30.696   7.950
 6111POPC   C4A37422  35.346  30.680   7.650
 6111POPC   C1B37423  35.403  30.484   8.550
 6111POPC   C2B37424  35.408  30.483   8.250
 6111POPC   C3B37425  35.473  30.495   7.950
 6111POPC   C4B37426  35.460  30.472   7.650
 6112POPC   NC337427  33.013  31.435   9.450
 6112POPC   PO437428  33.039  31.522   9.150
 6112POPC   GL137429  33.022  31.438   8.850
 6112POPC   GL237430  32.999  31.631   8.850
 6112POPC   C1A37431  33.015  31.516   8.550
 6112POPC   D2A37432  33.043  31.448   8.250
 6112POPC   C3A37433  33.005  31.507   7.950
 6112POPC   C4A37434  33.005  31.510   7.650
 6112POPC   C1B37435  32.972  31.697   8.550
 6112POPC   C2B37436  33.015  31.693   8.250
 6112POPC   C3B37437  33.044  31.752   7.950
 6112POPC   C4B37438  33.025  31.728   7.650
 6113POPC   NC337439  34.595  36.097   9.450
 6113POPC   PO437440  34.615  36.126   9.150
 6113POPC   GL137441  34.543  36.152   8.850
 6113POPC   GL237442  34.738  36.094   8.850
 6113POPC   C1A37443  34.530  36.150   8.550
 6113POPC   D2A37444  34.546  36.120   8.250
 6113POPC   C3A37445  34.579  36.162   7.950
 6113POPC   C4A37446  34.596  36.088   7.650
 6113POPC   C1B37447  34.820  36.106   8.550
 6113POPC   C2B37448  34.797  36.134   8.250
 6113POPC   C3B37449  34.848  36.087   7.950
 6113POPC   C4B37450  34.849  36.087   7.650
 6114POPC   NC337451  32.988  17.459   9.450
 6114POPC   PO437452  32.981  17.469   9.150
 6114POPC   GL137453  33.037  17.527   8.850
 6114POPC   GL237454  32.912  17.570   8.850
 6114POPC   C1A37455  33.064  17.459   8.550
 6114POPC   D2A37456  33.002  17.517   8.250
 6114POPC   C3A37457  32.975  17.515   7.950
 6114POPC   C4A37458  32.978  17.547   7.650
 6114POPC   C1B37459  32.844  17.707   8.550
 6114POPC   C2B37460  32.828  17.649   8.250
 6114POPC   C3B37461  32.872  17.656   7.950
 6114POPC   C4B37462  32.858  17.712   7.650
 6115POPC   NC337463   6.601  12.065   9.450
 6115POPC   PO437464   6.634  12.073   9.150
 6115POPC   GL137465   6.658  12.120   8.850
 6115POPC   GL237466   6.736  12.178   8.850
 6115POPC   C1A37467   6.672  12.028   8.550
 6115POPC   D2A37468   6.682  12.042   8.250
 6115POPC   C3A37469   6.660  12.076   7.950
 6115POPC   C4A37470   6.683  12.105   7.650
 6115POPC   C1B37471   6.766  12.301   8.550
 6115POPC   C2B37472   6.739  12.256   8.250
 6115POPC   C3B37473   6.744  12.257   7.950
 6115POPC   C4B37474   6.803  12.335   7.650
 6116POPC   NC337475  16.689  36.896   9.450
 6116POPC   PO437476  16.760  36.943   9.150
 6116POPC   GL137477  16.776  36.887   8.850
 6116POPC   GL237478  16.850  36.950   8.850
 6116POPC   C1A37479  16.764  36.876   8.550
 6116POPC   D2A37480  16.695  36.926   8.250
 6116POPC   C3A37481  16.692  36.932   7.950
 6116POPC   C4A37482  16.739  36.907   7.650
 6116POPC   C1B37483  16.942  37.052   8.550
 6116POPC   C2B37484  16.915  37.069   8.250
 6116POPC   C3B37485  16.911  37.122   7.950
 6116POPC   C4B37486  16.919  37.070   7.650
 6117POPC   NC337487  15.165   9.752   9.450
 6117POPC   PO437488  15.214   9.742   9.150
 6117POPC   GL137489  15.192   9.709   8.850
 6117POPC   GL237490  15.249   9.650   8.850
 6117POPC   C1A37491  15.167   9.712   8.550
 6117POPC   D2A37492  15.215   9.701   8.250
 6117POPC   C3A37493  15.181   9.748   7.950
 6117POPC   C4A37494  15.226   9.699   7.650
 6117POPC   C1B37495  15.241   9.538   8.550
 6117POPC   C2B37496  15.238   9.490   8.250
 6117POPC   C3B37497  15.259   9.506   7.950
 6117POPC   C4B37498  15.256   9.527   7.650
 6118POPC   NC337499  29.913  39.234   9.450
 6118POPC   PO437500  29.953  39.230   9.150
 6118POPC   GL137501  29.892  39.254   8.850
 6118POPC   GL237502  29.797  39.152   8.850
 6118POPC   C1A37503  29.919  39.212   8.550
 6118POPC   D2A37504  29.951  39.190   8.250
 6118POPC   C3A37505  29.968  39.269   7.950
 6118POPC   C4A37506  29.884  39.184   7.650
 6118POPC   C1B37507  29.741  39.068   8.550
 6118POPC   C2B37508  29.784  39.072   8.250
 6118POPC   C3B37509  29.735  39.041   7.950
 6118POPC   C4B37510  29.774  39.012   7.650
 6119POPC   NC337511  31.458  19.075   9.450
 6119POPC   PO437512  31.518  19.027   9.150
 6119POPC   GL137513  31.484  19.102   8.850
 6119POPC   GL237514  31.389  19.024   8.850
 6119POPC   C1A37515  31.471  19.051   8.550
 6119POPC   D2A37516  31.470  19.101   8.250
 6119POPC   C3A37517  31.468  19.017   7.950
 6119POPC   C4A37518  31.451  19.058   7.650
 6119POPC   C1B37519  31.200  19.074   8.550
 6119POPC   C2B37520  31.185  19.080   8.250
 6119POPC   C3B37521  31.269  19.042   7.950
 6119POPC   C4B37522  31.243  19.006   7.650
 6120POPC   NC337523  42.371  36.872   9.450
 6120POPC   PO437524  42.325  36.920   9.150
 6120POPC   GL137525  42.322  36.913   8.850
 6120POPC   GL237526  42.334  36.739   8.850
 6120POPC   C1A37527  42.309  36.932   8.550
 6120POPC   D2A37528  42.291  36.858   8.250
 6120POPC   C3A37529  42.328  36.886   7.950
 6120POPC   C4A37530  42.348  36.945   7.650
 6120POPC   C1B37531  42.301  36.632   8.550
 6120POPC   C2B37532  42.304  36.662   8.250
 6120POPC   C3B37533  42.334  36.656   7.950
 6120POPC   C4B37534  42.378  36.663   7.650
 6121POPC   NC337535   7.446  24.477   9.450
 6121POPC   PO437536   7.454  24.473   9.150
 6121POPC   GL137537   7.412  24.523   8.850
 6121POPC   GL237538   7.570  24.438   8.850
 6121POPC   C1A37539   7.437  24.455   8.550
 6121POPC   D2A37540   7.383  24.451   8.250
 6121POPC   C3A37541   7.424  24.482   7.950
 6121POPC   C4A37542   7.456  24.539   7.650
 6121POPC   C1B37543   7.714  24.451   8.550
 6121POPC   C2B37544   7.713  24.407   8.250
 6121POPC   C3B37545   7.646  24.483   7.950
 6121POPC   C4B37546   7.619  24.506   7.650
 6122POPC   NC337547  29.931  33.773   9.450
 6122POPC   PO437548  29.874  33.754   9.150
 6122POPC   GL137549  29.895  33.838   8.850
 6122POPC   GL237550  30.079  33.767   8.850
 6122POPC   C1A37551  29.955  33.782   8.550
 6122POPC   D2A37552  29.940  33.823   8.250
 6122POPC   C3A37553  29.901  33.767   7.950
 6122POPC   C4A37554  29.931  33.813   7.650
 6122POPC   C1B37555  30.184  33.703   8.550
 6122POPC   C2B37556  30.187  33.743   8.250
 6122POPC   C3B37557  30.134  33.722   7.950
 6122POPC   C4B37558  30.162  33.660   7.650
 6123POPC   NC337559   8.189  11.259   9.450
 6123POPC   PO437560   8.223  11.328   9.150
 6123POPC   GL137561   8.177  11.289   8.850
 6123POPC   GL237562   8.106  11.248   8.850
 6123POPC   C1A37563   8.203  11.310   8.550
 6123POPC   D2A37564   8.190  11.344   8.250
 6123POPC   C3A37565   8.201  11.283   7.950
 6123POPC   C4A37566   8.215  11.342   7.650
 6123POPC   C1B37567   7.944  11.193   8.550
 6123POPC   C2B37568   7.968  11.258   8.250
 6123POPC   C3B37569   7.950  11.197   7.950
 6123POPC   C4B37570   7.953  11.179   7.650
 6124POPC   NC337571  25.290   1.984   9.450
 6124POPC   PO437572  25.217   1.969   9.150
 6124POPC   GL137573  25.281   2.035   8.850
 6124POPC   GL237574  25.198   2.095   8.850
 6124POPC   C1A37575  25.274   1.999   8.550
 6124POPC   D2A37576  25.297   1.974   8.250
 6124POPC   C3A37577  25.290   1.973   7.950
 6124POPC   C4A37578  25.305   1.996   7.650
 6124POPC   C1B37579  25.173   2.236   8.550
 6124POPC   C2B37580  25.170   2.264   8.250
 6124POPC   C3B37581  25.156   2.272   7.950
 6124POPC   C4B37582  25.137   2.257   7.650
 6125POPC   NC337583  26.809  14.381   9.450
 6125POPC   PO437584  26.808  14.446   9.150
 6125POPC   GL137585  26.797  14.356   8.850
 6125POPC   GL237586  26.877  14.344   8.850
 6125POPC   C1A37587  26.852  14.387   8.550
 6125POPC   D2A37588  26.768  14.384   8.250
 6125POPC   C3A37589  26.822  14.381   7.950
 6125POPC   C4A37590  26.808  14.367   7.650
 6125POPC   C1B37591  26.992  14.228   8.550
 6125POPC   C2B37592  26.986  14.198   8.250
 6125POPC   C3B37593  27.016  14.164   7.950
 6125POPC   C4B37594  26.963  14.234   7.650
 6126POPC   NC337595  32.991  12.058   9.450
 6126POPC   PO437596  33.014  12.099   9.150
 6126POPC   GL137597  33.046  12.082   8.850
 6126POPC   GL237598  33.059  12.206   8.850
 6126POPC   C1A37599  33.064  12.124   8.550
 6126POPC   D2A37600  33.056  12.037   8.250
 6126POPC   C3A37601  33.050  12.045   7.950
 6126POPC   C4A37602  33.029  12.045   7.650
 6126POPC   C1B37603  33.092  12.323   8.550
 6126POPC   C2B37604  33.037  12.307   8.250
 6126POPC   C3B37605  33.052  12.360   7.950
 6126POPC   C4B37606  33.106  12.310   7.650
 6127POPC   NC337607  42.341  40.744   9.450
 6127POPC   PO437608  42.317  40.767   9.150
 6127POPC   GL137609  42.308  40.773   8.850
 6127POPC   GL237610  42.282  40.730   8.850
 6127POPC   C1A37611  42.375  40.793   8.550
 6127POPC   D2A37612  42.344  40.810   8.250
 6127POPC   C3A37613  42.302  40.784   7.950
 6127POPC   C4A37614  42.315  40.763   7.650
 6127POPC   C1B37615  42.167  40.582   8.550
 6127POPC   C2B37616  42.126  40.627   8.250
 6127POPC   C3B37617  42.172  40.557   7.950
 6127POPC   C4B37618  42.179  40.593   7.650
 6128POPC   NC337619  20.599  26.784   9.450
 6128POPC   PO437620  20.648  26.864   9.150
 6128POPC   GL137621  20.637  26.849   8.850
 6128POPC   GL237622  20.734  26.707   8.850
 6128POPC   C1A37623  20.606  26.827   8.550
 6128POPC   D2A37624  20.612  26.781   8.250
 6128POPC   C3A37625  20.644  26.777   7.950
 6128POPC   C4A37626  20.574  26.848   7.650
 6128POPC   C1B37627  20.817  26.633   8.550
 6128POPC   C2B37628  20.866  26.653   8.250
 6128POPC   C3B37629  20.792  26.643   7.950
 6128POPC   C4B37630  20.778  26.676   7.650
 6129POPC   NC337631  37.698  17.476   9.450
 6129POPC   PO437632  37.699  17.480   9.150
 6129POPC   GL137633  37.667  17.464   8.850
 6129POPC   GL237634  37.598  17.454   8.850
 6129POPC   C1A37635  37.725  17.524   8.550
 6129POPC   D2A37636  37.665  17.545   8.250
 6129POPC   C3A37637  37.631  17.522   7.950
 6129POPC   C4A37638  37.684  17.469   7.650
 6129POPC   C1B37639  37.436  17.517   8.550
 6129POPC   C2B37640  37.412  17.484   8.250
 6129POPC   C3B37641  37.417  17.461   7.950
 6129POPC   C4B37642  37.426  17.430   7.650
 6130POPC   NC337643  36.147  17.529   9.450
 6130POPC   PO437644  36.133  17.464   9.150
 6130POPC   GL137645  36.175  17.523   8.850
 6130POPC   GL237646  36.281  17.425   8.850
 6130POPC   C1A37647  36.173  17.511   8.550
 6130POPC   D2A37648  36.078  17.553   8.250
 6130POPC   C3A37649  36.176  17.526   7.950
 6130POPC   C4A37650  36.111  17.556   7.650
 6130POPC   C1B37651  36.395  17.400   8.550
 6130POPC   C2B37652  36.348  17.424   8.250
 6130POPC   C3B37653  36.301  17.393   7.950
 6130POPC   C4B37654  36.311  17.339   7.650
 6131POPC   NC337655   5.105  13.646   9.450
 6131POPC   PO437656   5.054  13.676   9.150
 6131POPC   GL137657   5.045  13.668   8.850
 6131POPC   GL237658   5.053  13.699   8.850
 6131POPC   C1A37659   5.044  13.598   8.550
 6131POPC   D2A37660   5.076  13.623   8.250
 6131POPC   C3A37661   5.060  13.642   7.950
 6131POPC   C4A37662   5.076  13.595   7.650
 6131POPC   C1B37663   4.912  13.837   8.550
 6131POPC   C2B37664   4.965  13.811   8.250
 6131POPC   C3B37665   4.939  13.826   7.950
 6131POPC   C4B37666   4.980  13.846   7.650
 6132POPC   NC337667  35.398  37.654   9.450
 6132POPC   PO437668  35.311  37.638   9.150
 6132POPC   GL137669  35.323  37.655   8.850
 6132POPC   GL237670  35.385  37.599   8.850
 6132POPC   C1A37671  35.381  37.664   8.550
 6132POPC   D2A37672  35.388  37.710   8.250
 6132POPC   C3A37673  35.322  37.648   7.950
 6132POPC   C4A37674  35.322  37.667   7.650
 6132POPC   C1B37675  35.438  37.482   8.550
 6132POPC   C2B37676  35.508  37.474   8.250
 6132POPC   C3B37677  35.499  37.408   7.950
 6132POPC   C4B37678  35.443  37.502   7.650
 6133POPC   NC337679   7.447   6.692   9.450
 6133POPC   PO437680   7.386   6.600   9.150
 6133POPC   GL137681   7.426   6.662   8.850
 6133POPC   GL237682   7.436   6.768   8.850
 6133POPC   C1A37683   7.400   6.688   8.550
 6133POPC   D2A37684   7.460   6.628   8.250
 6133POPC   C3A37685   7.443   6.695   7.950
 6133POPC   C4A37686   7.430   6.651   7.650
 6133POPC   C1B37687   7.440   6.883   8.550
 6133POPC   C2B37688   7.406   6.937   8.250
 6133POPC   C3B37689   7.425   6.882   7.950
 6133POPC   C4B37690   7.385   6.898   7.650
 6134POPC   NC337691  34.542   8.204   9.450
 6134POPC   PO437692  34.625   8.162   9.150
 6134POPC   GL137693  34.587   8.207   8.850
 6134POPC   GL237694  34.656   8.338   8.850
 6134POPC   C1A37695  34.610   8.199   8.550
 6134POPC   D2A37696  34.546   8.202   8.250
 6134POPC   C3A37697  34.585   8.193   7.950
 6134POPC   C4A37698  34.559   8.167   7.650
 6134POPC   C1B37699  34.701   8.424   8.550
 6134POPC   C2B37700  34.734   8.352   8.250
 6134POPC   C3B37701  34.771   8.433   7.950
 6134POPC   C4B37702  34.761   8.387   7.650
 6135POPC   NC337703  29.871  18.330   9.450
 6135POPC   PO437704  29.898  18.249   9.150
 6135POPC   GL137705  29.928  18.276   8.850
 6135POPC   GL237706  30.003  18.232   8.850
 6135POPC   C1A37707  29.887  18.281   8.550
 6135POPC   D2A37708  29.941  18.331   8.250
 6135POPC   C3A37709  29.910  18.269   7.950
 6135POPC   C4A37710  29.962  18.267   7.650
 6135POPC   C1B37711  30.107  18.174   8.550
 6135POPC   C2B37712  30.126  18.172   8.250
 6135POPC   C3B37713  30.099  18.123   7.950
 6135POPC   C4B37714  30.147  18.200   7.650
 6136POPC   NC337715  21.375  16.769   9.450
 6136POPC   PO437716  21.383  16.736   9.150
 6136POPC   GL137717  21.339  16.762   8.850
 6136POPC   GL237718  21.486  16.785   8.850
 6136POPC   C1A37719  21.356  16.777   8.550
 6136POPC   D2A37720  21.412  16.766   8.250
 6136POPC   C3A37721  21.344  16.741   7.950
 6136POPC   C4A37722  21.373  16.755   7.650
 6136POPC   C1B37723  21.589  16.807   8.550
 6136POPC   C2B37724  21.566  16.813   8.250
 6136POPC   C3B37725  21.592  16.834   7.950
 6136POPC   C4B37726  21.598  16.805   7.650
 6137POPC   NC337727  33.024   0.436   9.450
 6137POPC   PO437728  33.066   0.404   9.150
 6137POPC   GL137729  33.056   0.448   8.850
 6137POPC   GL237730  32.953   0.357   8.850
 6137POPC   C1A37731  33.046   0.410   8.550
 6137POPC   D2A37732  32.977   0.429   8.250
 6137POPC   C3A37733  32.999   0.418   7.950
 6137POPC   C4A37734  33.016   0.473   7.650
 6137POPC   C1B37735  32.780   0.326   8.550
 6137POPC   C2B37736  32.735   0.334   8.250
 6137POPC   C3B37737  32.771   0.387   7.950
 6137POPC   C4B37738  32.764   0.363   7.650
 6138POPC   NC337739  15.933   7.436   9.450
 6138POPC   PO437740  15.982   7.421   9.150
 6138POPC   GL137741  15.954   7.380   8.850
 6138POPC   GL237742  15.846   7.350   8.850
 6138POPC   C1A37743  15.915   7.433   8.550
 6138POPC   D2A37744  15.997   7.397   8.250
 6138POPC   C3A37745  15.920   7.379   7.950
 6138POPC   C4A37746  15.961   7.392   7.650
 6138POPC   C1B37747  15.776   7.203   8.550
 6138POPC   C2B37748  15.803   7.204   8.250
 6138POPC   C3B37749  15.791   7.195   7.950
 6138POPC   C4B37750  15.790   7.192   7.650
 6139POPC   NC337751  18.277  26.772   9.450
 6139POPC   PO437752  18.291  26.849   9.150
 6139POPC   GL137753  18.268  26.784   8.850
 6139POPC   GL237754  18.246  26.960   8.850
 6139POPC   C1A37755  18.286  26.836   8.550
 6139POPC   D2A37756  18.287  26.831   8.250
 6139POPC   C3A37757  18.263  26.866   7.950
 6139POPC   C4A37758  18.245  26.847   7.650
 6139POPC   C1B37759  18.205  27.096   8.550
 6139POPC   C2B37760  18.238  27.033   8.250
 6139POPC   C3B37761  18.188  27.045   7.950
 6139POPC   C4B37762  18.209  27.096   7.650
 6140POPC   NC337763  35.382  26.792   9.450
 6140POPC   PO437764  35.318  26.778   9.150
 6140POPC   GL137765  35.347  26.771   8.850
 6140POPC   GL237766  35.329  26.687   8.850
 6140POPC   C1A37767  35.369  26.823   8.550
 6140POPC   D2A37768  35.325  26.862   8.250
 6140POPC   C3A37769  35.398  26.823   7.950
 6140POPC   C4A37770  35.342  26.858   7.650
 6140POPC   C1B37771  35.237  26.623   8.550
 6140POPC   C2B37772  35.220  26.582   8.250
 6140POPC   C3B37773  35.258  26.605   7.950
 6140POPC   C4B37774  35.261  26.590   7.650
 6141POPC   NC337775  28.405  14.436   9.450
 6141POPC   PO437776  28.327  14.411   9.150
 6141POPC   GL137777  28.358  14.405   8.850
 6141POPC   GL237778  28.465  14.467   8.850
 6141POPC   C1A37779  28.391  14.358   8.550
 6141POPC   D2A37780  28.372  14.450   8.250
 6141POPC   C3A37781  28.390  14.449   7.950
 6141POPC   C4A37782  28.404  14.426   7.650
 6141POPC   C1B37783  28.585  14.468   8.550
 6141POPC   C2B37784  28.594  14.480   8.250
 6141POPC   C3B37785  28.614  14.550   7.950
 6141POPC   C4B37786  28.573  14.532   7.650
 6142POPC   NC337787   6.649   9.702   9.450
 6142POPC   PO437788   6.658   9.710   9.150
 6142POPC   GL137789   6.651   9.778   8.850
 6142POPC   GL237790   6.745   9.738   8.850
 6142POPC   C1A37791   6.643   9.789   8.550
 6142POPC   D2A37792   6.653   9.766   8.250
 6142POPC   C3A37793   6.615   9.775   7.950
 6142POPC   C4A37794   6.691   9.731   7.650
 6142POPC   C1B37795   6.899   9.728   8.550
 6142POPC   C2B37796   6.938   9.767   8.250
 6142POPC   C3B37797   6.897   9.817   7.950
 6142POPC   C4B37798   6.867   9.816   7.650
 6143POPC   NC337799  18.257  10.490   9.450
 6143POPC   PO437800  18.257  10.499   9.150
 6143POPC   GL137801  18.268  10.477   8.850
 6143POPC   GL237802  18.396  10.500   8.850
 6143POPC   C1A37803  18.246  10.524   8.550
 6143POPC   D2A37804  18.258  10.486   8.250
 6143POPC   C3A37805  18.316  10.517   7.950
 6143POPC   C4A37806  18.320  10.523   7.650
 6143POPC   C1B37807  18.502  10.395   8.550
 6143POPC   C2B37808  18.521  10.386   8.250
 6143POPC   C3B37809  18.449  10.423   7.950
 6143POPC   C4B37810  18.541  10.358   7.650
 6144POPC   NC337811  34.554  14.375   9.450
 6144POPC   PO437812  34.564  14.408   9.150
 6144POPC   GL137813  34.535  14.419   8.850
 6144POPC   GL237814  34.588  14.479   8.850
 6144POPC   C1A37815  34.568  14.374   8.550
 6144POPC   D2A37816  34.556  14.384   8.250
 6144POPC   C3A37817  34.587  14.403   7.950
 6144POPC   C4A37818  34.576  14.373   7.650
 6144POPC   C1B37819  34.633  14.656   8.550
 6144POPC   C2B37820  34.583  14.613   8.250
 6144POPC   C3B37821  34.658  14.665   7.950
 6144POPC   C4B37822  34.606  14.679   7.650
 6145POPC   NC337823   6.601   8.968   9.450
 6145POPC   PO437824   6.620   8.956   9.150
 6145POPC   GL137825   6.694   8.939   8.850
 6145POPC   GL237826   6.588   8.910   8.850
 6145POPC   C1A37827   6.624   8.990   8.550
 6145POPC   D2A37828   6.667   8.940   8.250
 6145POPC   C3A37829   6.661   8.979   7.950
 6145POPC   C4A37830   6.596   8.982   7.650
 6145POPC   C1B37831   6.464   8.836   8.550
 6145POPC   C2B37832   6.387   8.868   8.250
 6145POPC   C3B37833   6.409   8.795   7.950
 6145POPC   C4B37834   6.424   8.885   7.650
 6146POPC   NC337835   8.980  13.619   9.450
 6146POPC   PO437836   8.955  13.647   9.150
 6146POPC   GL137837   8.949  13.627   8.850
 6146POPC   GL237838   9.010  13.562   8.850
 6146POPC   C1A37839   8.982  13.639   8.550
 6146POPC   D2A37840   9.015  13.581   8.250
 6146POPC   C3A37841   8.973  13.673   7.950
 6146POPC   C4A37842   8.923  13.656   7.650
 6146POPC   C1B37843   9.163  13.439   8.550
 6146POPC   C2B37844   9.155  13.450   8.250
 6146POPC   C3B37845   9.190  13.473   7.950
 6146POPC   C4B37846   9.144  13.483   7.650
 6147POPC   NC337847   4.317  19.098   9.450
 6147POPC   PO437848   4.321  19.100   9.150
 6147POPC   GL137849   4.323  19.033   8.850
 6147POPC   GL237850   4.391  19.157   8.850
 6147POPC   C1A37851   4.314  19.016   8.550
 6147POPC   D2A37852   4.269  19.009   8.250
 6147POPC   C3A37853   4.312  19.018   7.950
 6147POPC   C4A37854   4.313  19.094   7.650
 6147POPC   C1B37855   4.455  19.307   8.550
 6147POPC   C2B37856   4.406  19.240   8.250
 6147POPC   C3B37857   4.446  19.247   7.950
 6147POPC   C4B37858   4.430  19.291   7.650
 6148POPC   NC337859  40.776  32.198   9.450
 6148POPC   PO437860  40.776  32.205   9.150
 6148POPC   GL137861  40.809  32.234   8.850
 6148POPC   GL237862  40.742  32.110   8.850
 6148POPC   C1A37863  40.755  32.284   8.550
 6148POPC   D2A37864  40.768  32.289   8.250
 6148POPC   C3A37865  40.809  32.237   7.950
 6148POPC   C4A37866  40.819  32.251   7.650
 6148POPC   C1B37867  40.660  32.029   8.550
 6148POPC   C2B37868  40.667  32.076   8.250
 6148POPC   C3B37869  40.645  32.024   7.950
 6148POPC   C4B37870  40.667  32.045   7.650
 6149POPC   NC337871  23.710  14.447   9.450
 6149POPC   PO437872  23.754  14.407   9.150
 6149POPC   GL137873  23.722  14.412   8.850
 6149POPC   GL237874  23.738  14.267   8.850
 6149POPC   C1A37875  23.677  14.355   8.550
 6149POPC   D2A37876  23.735  14.402   8.250
 6149POPC   C3A37877  23.731  14.369   7.950
 6149POPC   C4A37878  23.688  14.447   7.650
 6149POPC   C1B37879  23.812  14.144   8.550
 6149POPC   C2B37880  23.795  14.144   8.250
 6149POPC   C3B37881  23.820  14.136   7.950
 6149POPC   C4B37882  23.839  14.193   7.650
 6150POPC   NC337883  43.914   1.210   9.450
 6150POPC   PO437884  43.935   1.165   9.150
 6150POPC   GL137885  43.842   1.224   8.850
 6150POPC   GL237886  43.816   1.145   8.850
 6150POPC   C1A37887  43.864   1.193   8.550
 6150POPC   D2A37888  43.897   1.176   8.250
 6150POPC   C3A37889  43.920   1.175   7.950
 6150POPC   C4A37890  43.926   1.243   7.650
 6150POPC   C1B37891  43.834   0.980   8.550
 6150POPC   C2B37892  43.755   0.937   8.250
 6150POPC   C3B37893  43.780   0.954   7.950
 6150POPC   C4B37894  43.746   0.968   7.650
 6151POPC   NC337895  40.034  25.236   9.450
 6151POPC   PO437896  40.023  25.303   9.150
 6151POPC   GL137897  39.972  25.262   8.850
 6151POPC   GL237898  40.107  25.179   8.850
 6151POPC   C1A37899  40.033  25.306   8.550
 6151POPC   D2A37900  39.979  25.312   8.250
 6151POPC   C3A37901  40.020  25.251   7.950
 6151POPC   C4A37902  40.015  25.277   7.650
 6151POPC   C1B37903  40.261  25.157   8.550
 6151POPC   C2B37904  40.229  25.142   8.250
 6151POPC   C3B37905  40.261  25.125   7.950
 6151POPC   C4B37906  40.250  25.158   7.650
 6152POPC   NC337907  40.819   5.853   9.450
 6152POPC   PO437908  40.753   5.863   9.150
 6152POPC   GL137909  40.803   5.900   8.850
 6152POPC   GL237910  40.860   5.741   8.850
 6152POPC   C1A37911  40.739   5.908   8.550
 6152POPC   D2A37912  40.735   5.837   8.250
 6152POPC   C3A37913  40.756   5.830   7.950
 6152POPC   C4A37914  40.825   5.904   7.650
 6152POPC   C1B37915  40.988   5.715   8.550
 6152POPC   C2B37916  41.004   5.665   8.250
 6152POPC   C3B37917  40.971   5.671   7.950
 6152POPC   C4B37918  40.964   5.661   7.650
 6153POPC   NC337919  29.101  39.226   9.450
 6153POPC   PO437920  29.107  39.221   9.150
 6153POPC   GL137921  29.182  39.229   8.850
 6153POPC   GL237922  29.112  39.072   8.850
 6153POPC   C1A37923  29.146  39.275   8.550
 6153POPC   D2A37924  29.174  39.237   8.250
 6153POPC   C3A37925  29.118  39.231   7.950
 6153POPC   C4A37926  29.153  39.242   7.650
 6153POPC   C1B37927  29.137  38.976   8.550
 6153POPC   C2B37928  29.069  38.970   8.250
 6153POPC   C3B37929  29.074  38.968   7.950
 6153POPC   C4B37930  29.084  38.962   7.650
 6154POPC   NC337931  27.590  18.265   9.450
 6154POPC   PO437932  27.634  18.285   9.150
 6154POPC   GL137933  27.591  18.245   8.850
 6154POPC   GL237934  27.683  18.196   8.850
 6154POPC   C1A37935  27.547  18.328   8.550
 6154POPC   D2A37936  27.573  18.245   8.250
 6154POPC   C3A37937  27.566  18.282   7.950
 6154POPC   C4A37938  27.595  18.271   7.650
 6154POPC   C1B37939  27.762  18.068   8.550
 6154POPC   C2B37940  27.772  18.106   8.250
 6154POPC   C3B37941  27.747  18.113   7.950
 6154POPC   C4B37942  27.743  18.089   7.650
 6155POPC   NC337943  25.248   4.303   9.450
 6155POPC   PO437944  25.245   4.334   9.150
 6155POPC   GL137945  25.260   4.302   8.850
 6155POPC   GL237946  25.353   4.386   8.850
 6155POPC   C1A37947  25.311   4.314   8.550
 6155POPC   D2A37948  25.301   4.328   8.250
 6155POPC   C3A37949  25.292   4.355   7.950
 6155POPC   C4A37950  25.303   4.336   7.650
 6155POPC   C1B37951  25.500   4.435   8.550
 6155POPC   C2B37952  25.518   4.443   8.250
 6155POPC   C3B37953  25.455   4.497   7.950
 6155POPC   C4B37954  25.526   4.469   7.650
 6156POPC   NC337955  26.832  16.758   9.450
 6156POPC   PO437956  26.799  16.753   9.150
 6156POPC   GL137957  26.773  16.692   8.850
 6156POPC   GL237958  26.708  16.794   8.850
 6156POPC   C1A37959  26.804  16.734   8.550
 6156POPC   D2A37960  26.819  16.772   8.250
 6156POPC   C3A37961  26.865  16.743   7.950
 6156POPC   C4A37962  26.847  16.747   7.650
 6156POPC   C1B37963  26.580  16.890   8.550
 6156POPC   C2B37964  26.565  16.850   8.250
 6156POPC   C3B37965  26.573  16.852   7.950
 6156POPC   C4B37966  26.592  16.842   7.650
 6157POPC   NC337967  28.342  39.278   9.450
 6157POPC   PO437968  28.368  39.253   9.150
 6157POPC   GL137969  28.328  39.208   8.850
 6157POPC   GL237970  28.458  39.374   8.850
 6157POPC   C1A37971  28.373  39.226   8.550
 6157POPC   D2A37972  28.363  39.258   8.250
 6157POPC   C3A37973  28.401  39.276   7.950
 6157POPC   C4A37974  28.358  39.200   7.650
 6157POPC   C1B37975  28.575  39.394   8.550
 6157POPC   C2B37976  28.513  39.415   8.250
 6157POPC   C3B37977  28.484  39.439   7.950
 6157POPC   C4B37978  28.545  39.448   7.650
 6158POPC   NC337979   5.142  26.784   9.450
 6158POPC   PO437980   5.048  26.851   9.150
 6158POPC   GL137981   5.094  26.780   8.850
 6158POPC   GL237982   4.987  26.742   8.850
 6158POPC   C1A37983   5.134  26.825   8.550
 6158POPC   D2A37984   5.122  26.809   8.250
 6158POPC   C3A37985   5.143  26.803   7.950
 6158POPC   C4A37986   5.129  26.854   7.650
 6158POPC   C1B37987   4.900  26.750   8.550
 6158POPC   C2B37988   4.865  26.736   8.250
 6158POPC   C3B37989   4.822  26.755   7.950
 6158POPC   C4B37990   4.820  26.759   7.650
 6159POPC   NC337991  30.731  39.270   9.450
 6159POPC   PO437992  30.714  39.278   9.150
 6159POPC   GL137993  30.681  39.183   8.850
 6159POPC   GL237994  30.618  39.167   8.850
 6159POPC   C1A37995  30.711  39.256   8.550
 6159POPC   D2A37996  30.720  39.253   8.250
 6159POPC   C3A37997  30.737  39.220   7.950
 6159POPC   C4A37998  30.661  39.185   7.650
 6159POPC   C1B37999  30.503  39.018   8.550
 6159POPC   C2B38000  30.529  39.043   8.250
 6159POPC   C3B38001  30.550  39.056   7.950
 6159POPC   C4B38002  30.498  39.047   7.650
 6160POPC   NC338003   5.844  14.429   9.450
 6160POPC   PO438004   5.852  14.388   9.150
 6160POPC   GL138005   5.853  14.363   8.850
 6160POPC   GL238006   5.934  14.513   8.850
 6160POPC   C1A38007   5.877  14.420   8.550
 6160POPC   D2A38008   5.893  14.450   8.250
 6160POPC   C3A38009   5.848  14.367   7.950
 6160POPC   C4A38010   5.898  14.394   7.650
 6160POPC   C1B38011   6.007  14.619   8.550
 6160POPC   C2B38012   6.069  14.626   8.250
 6160POPC   C3B38013   6.055  14.587   7.950
 6160POPC   C4B38014   6.022  14.563   7.650
 6161POPC   NC338015  32.980  44.633   9.450
 6161POPC   PO438016  33.037  44.615   9.150
 6161POPC   GL138017  33.016  44.685   8.850
 6161POPC   GL238018  32.923  44.563   8.850
 6161POPC   C1A38019  33.042  44.683   8.550
 6161POPC   D2A38020  33.044  44.646   8.250
 6161POPC   C3A38021  33.058  44.648   7.950
 6161POPC   C4A38022  33.061  44.689   7.650
 6161POPC   C1B38023  32.844  44.483   8.550
 6161POPC   C2B38024  32.831  44.489   8.250
 6161POPC   C3B38025  32.810  44.474   7.950
 6161POPC   C4B38026  32.828  44.550   7.650
 6162POPC   NC338027   7.397  29.185   9.450
 6162POPC   PO438028   7.438  29.156   9.150
 6162POPC   GL138029   7.422  29.175   8.850
 6162POPC   GL238030   7.512  29.008   8.850
 6162POPC   C1A38031   7.385  29.099   8.550
 6162POPC   D2A38032   7.424  29.144   8.250
 6162POPC   C3A38033   7.445  29.115   7.950
 6162POPC   C4A38034   7.414  29.177   7.650
 6162POPC   C1B38035   7.514  28.943   8.550
 6162POPC   C2B38036   7.541  28.881   8.250
 6162POPC   C3B38037   7.494  28.957   7.950
 6162POPC   C4B38038   7.511  28.899   7.650
 6163POPC   NC338039   8.203  15.943   9.450
 6163POPC   PO438040   8.212  15.989   9.150
 6163POPC   GL138041   8.195  15.964   8.850
 6163POPC   GL238042   8.270  15.930   8.850
 6163POPC   C1A38043   8.192  15.961   8.550
 6163POPC   D2A38044   8.164  15.961   8.250
 6163POPC   C3A38045   8.206  15.959   7.950
 6163POPC   C4A38046   8.158  15.929   7.650
 6163POPC   C1B38047   8.438  15.882   8.550
 6163POPC   C2B38048   8.444  15.887   8.250
 6163POPC   C3B38049   8.444  15.924   7.950
 6163POPC   C4B38050   8.412  15.873   7.650
 6164POPC   NC338051   2.747   8.989   9.450
 6164POPC   PO438052   2.760   8.978   9.150
 6164POPC   GL138053   2.803   8.974   8.850
 6164POPC   GL238054   2.795   9.037   8.850
 6164POPC   C1A38055   2.716   8.978   8.550
 6164POPC   D2A38056   2.805   8.981   8.250
 6164POPC   C3A38057   2.806   9.005   7.950
 6164POPC   C4A38058   2.793   9.003   7.650
 6164POPC   C1B38059   2.865   9.181   8.550
 6164POPC   C2B38060   2.936   9.167   8.250
 6164POPC   C3B38061   2.886   9.188   7.950
 6164POPC   C4B38062   2.847   9.153   7.650
 6165POPC   NC338063  25.257  19.801   9.450
 6165POPC   PO438064  25.292  19.826   9.150
 6165POPC   GL138065  25.234  19.842   8.850
 6165POPC   GL238066  25.189  19.943   8.850
 6165POPC   C1A38067  25.242  19.879   8.550
 6165POPC   D2A38068  25.313  19.848   8.250
 6165POPC   C3A38069  25.287  19.844   7.950
 6165POPC   C4A38070  25.305  19.818   7.650
 6165POPC   C1B38071  25.074  19.959   8.550
 6165POPC   C2B38072  25.009  19.931   8.250
 6165POPC   C3B38073  25.042  19.989   7.950
 6165POPC   C4B38074  25.014  19.920   7.650
 6166POPC   NC338075  37.704  37.654   9.450
 6166POPC   PO438076  37.671  37.686   9.150
 6166POPC   GL138077  37.658  37.635   8.850
 6166POPC   GL238078  37.714  37.592   8.850
 6166POPC   C1A38079  37.643  37.703   8.550
 6166POPC   D2A38080  37.715  37.636   8.250
 6166POPC   C3A38081  37.706  37.630   7.950
 6166POPC   C4A38082  37.644  37.721   7.650
 6166POPC   C1B38083  37.796  37.451   8.550
 6166POPC   C2B38084  37.733  37.474   8.250
 6166POPC   C3B38085  37.728  37.414   7.950
 6166POPC   C4B38086  37.792  37.406   7.650
 6167POPC   NC338087  44.671   5.070   9.450
 6167POPC   PO438088  44.671   5.143   9.150
 6167POPC   GL138089  44.644   5.135   8.850
 6167POPC   GL238090  44.611   5.235   8.850
 6167POPC   C1A38091  44.636   5.086   8.550
 6167POPC   D2A38092  44.625   5.129   8.250
 6167POPC   C3A38093  44.622   5.099   7.950
 6167POPC   C4A38094  44.629   5.087   7.650
 6167POPC   C1B38095  44.604   5.378   8.550
 6167POPC   C2B38096  44.674   5.293   8.250
 6167POPC   C3B38097  44.677   5.345   7.950
 6167POPC   C4B38098  44.658   5.363   7.650
 6168POPC   NC338099  41.579  12.856   9.450
 6168POPC   PO438100  41.581  12.874   9.150
 6168POPC   GL138101  41.545  12.802   8.850
 6168POPC   GL238102  41.611  12.766   8.850
 6168POPC   C1A38103  41.534  12.876   8.550
 6168POPC   D2A38104  41.576  12.884   8.250
 6168POPC   C3A38105  41.572  12.892   7.950
 6168POPC   C4A38106  41.515  12.818   7.650
 6168POPC   C1B38107  41.685  12.664   8.550
 6168POPC   C2B38108  41.666  12.607   8.250
 6168POPC   C3B38109  41.656  12.598   7.950
 6168POPC   C4B38110  41.718  12.615   7.650
 6169POPC   NC338111  44.686  39.183   9.450
 6169POPC   PO438112  44.616  39.264   9.150
 6169POPC   GL138113  44.672  39.239   8.850
 6169POPC   GL238114  44.507  39.171   8.850
 6169POPC   C1A38115  44.696  39.198   8.550
 6169POPC   D2A38116  44.677  39.251   8.250
 6169POPC   C3A38117  44.650  39.257   7.950
 6169POPC   C4A38118  44.658  39.265   7.650
 6169POPC   C1B38119  44.396  39.090   8.550
 6169POPC   C2B38120  44.480  39.151   8.250
 6169POPC   C3B38121  44.447  39.160   7.950
 6169POPC   C4B38122  44.466  39.147   7.650
 6170POPC   NC338123   5.115  20.577   9.450
 6170POPC   PO438124   5.067  20.621   9.150
 6170POPC   GL138125   5.109  20.647   8.850
 6170POPC   GL238126   4.975  20.677   8.850
 6170POPC   C1A38127   5.047  20.614   8.550
 6170POPC   D2A38128   5.087  20.591   8.250
 6170POPC   C3A38129   5.062  20.632   7.950
 6170POPC   C4A38130   5.049  20.654   7.650
 6170POPC   C1B38131   4.813  20.665   8.550
 6170POPC   C2B38132   4.837  20.680   8.250
 6170POPC   C3B38133   4.906  20.723   7.950
 6170POPC   C4B38134   4.875  20.722   7.650
 6171POPC   NC338135  10.476  33.023   9.450
 6171POPC   PO438136  10.496  33.069   9.150
 6171POPC   GL138137  10.528  33.052   8.850
 6171POPC   GL238138  10.598  33.018   8.850
 6171POPC   C1A38139  10.501  33.009   8.550
 6171POPC   D2A38140  10.572  32.985   8.250
 6171POPC   C3A38141  10.490  33.002   7.950
 6171POPC   C4A38142  10.500  33.067   7.650
 6171POPC   C1B38143  10.754  32.963   8.550
 6171POPC   C2B38144  10.818  32.939   8.250
 6171POPC   C3B38145  10.781  33.016   7.950
 6171POPC   C4B38146  10.758  32.978   7.650
 6172POPC   NC338147  36.125   6.694   9.450
 6172POPC   PO438148  36.139   6.625   9.150
 6172POPC   GL138149  36.126   6.634   8.850
 6172POPC   GL238150  36.201   6.722   8.850
 6172POPC   C1A38151  36.117   6.619   8.550
 6172POPC   D2A38152  36.139   6.623   8.250
 6172POPC   C3A38153  36.144   6.606   7.950
 6172POPC   C4A38154  36.170   6.623   7.650
 6172POPC   C1B38155  36.374   6.780   8.550
 6172POPC   C2B38156  36.387   6.730   8.250
 6172POPC   C3B38157  36.380   6.829   7.950
 6172POPC   C4B38158  36.377   6.790   7.650
 6173POPC   NC338159  23.729  20.624   9.450
 6173POPC   PO438160  23.674  20.625   9.150
 6173POPC   GL138161  23.712  20.620   8.850
 6173POPC   GL238162  23.854  20.704   8.850
 6173POPC   C1A38163  23.756  20.592   8.550
 6173POPC   D2A38164  23.736  20.590   8.250
 6173POPC   C3A38165  23.752  20.614   7.950
 6173POPC   C4A38166  23.726  20.585   7.650
 6173POPC   C1B38167  23.952  20.759   8.550
 6173POPC   C2B38168  23.973  20.679   8.250
 6173POPC   C3B38169  23.914  20.729   7.950
 6173POPC   C4B38170  23.938  20.680   7.650
 6174POPC   NC338171  43.864  28.397   9.450
 6174POPC   PO438172  43.926  28.388   9.150
 6174POPC   GL138173  43.892  28.382   8.850
 6174POPC   GL238174  43.988  28.318   8.850
 6174POPC   C1A38175  43.871  28.398   8.550
 6174POPC   D2A38176  43.908  28.404   8.250
 6174POPC   C3A38177  43.931  28.402   7.950
 6174POPC   C4A38178  43.920  28.391   7.650
 6174POPC   C1B38179  44.093  28.236   8.550
 6174POPC   C2B38180  44.017  28.219   8.250
 6174POPC   C3B38181  44.080  28.190   7.950
 6174POPC   C4B38182  44.085  28.149   7.650
 6175POPC   NC338183   0.429  20.598   9.450
 6175POPC   PO438184   0.474  20.599   9.150
 6175POPC   GL138185   0.414  20.623   8.850
 6175POPC   GL238186   0.382  20.549   8.850
 6175POPC   C1A38187   0.405  20.568   8.550
 6175POPC   D2A38188   0.444  20.588   8.250
 6175POPC   C3A38189   0.389  20.573   7.950
 6175POPC   C4A38190   0.392  20.647   7.650
 6175POPC   C1B38191   0.223  20.446   8.550
 6175POPC   C2B38192   0.275  20.446   8.250
 6175POPC   C3B38193   0.281  20.479   7.950
 6175POPC   C4B38194   0.221  20.494   7.650
 6176POPC   NC338195  23.763  33.832   9.450
 6176POPC   PO438196  23.703  33.782   9.150
 6176POPC   GL138197  23.762  33.768   8.850
 6176POPC   GL238198  23.612  33.931   8.850
 6176POPC   C1A38199  23.691  33.785   8.550
 6176POPC   D2A38200  23.682  33.761   8.250
 6176POPC   C3A38201  23.711  33.801   7.950
 6176POPC   C4A38202  23.739  33.796   7.650
 6176POPC   C1B38203  23.563  34.007   8.550
 6176POPC   C2B38204  23.571  33.953   8.250
 6176POPC   C3B38205  23.558  33.991   7.950
 6176POPC   C4B38206  23.521  33.992   7.650
 6177POPC   NC338207  16.755  44.658   9.450
 6177POPC   PO438208  16.729  44.630   9.150
 6177POPC   GL138209  16.706  44.696   8.850
 6177POPC   GL238210  16.871  44.687   8.850
 6177POPC   C1A38211  16.737  44.699   8.550
 6177POPC   D2A38212  16.776  44.636   8.250
 6177POPC   C3A38213  16.706  44.635   7.950
 6177POPC   C4A38214  16.695  44.646   7.650
 6177POPC   C1B38215  17.001  44.694   8.550
 6177POPC   C2B38216  17.008  44.674   8.250
 6177POPC   C3B38217  16.999  44.729   7.950
 6177POPC   C4B38218  16.940  44.750   7.650
 6178POPC   NC338219   4.354   2.020   9.450
 6178POPC   PO438220   4.346   1.945   9.150
 6178POPC   GL138221   4.357   2.009   8.850
 6178POPC   GL238222   4.442   1.907   8.850
 6178POPC   C1A38223   4.352   2.002   8.550
 6178POPC   D2A38224   4.268   1.944   8.250
 6178POPC   C3A38225   4.358   2.034   7.950
 6178POPC   C4A38226   4.275   2.018   7.650
 6178POPC   C1B38227   4.577   1.827   8.550
 6178POPC   C2B38228   4.578   1.847   8.250
 6178POPC   C3B38229   4.553   1.823   7.950
 6178POPC   C4B38230   4.569   1.907   7.650
 6179POPC   NC338231  30.738  19.057   9.450
 6179POPC   PO438232  30.721  19.069   9.150
 6179POPC   GL138233  30.678  19.013   8.850
 6179POPC   GL238234  30.691  19.224   8.850
 6179POPC   C1A38235  30.676  19.063   8.550
 6179POPC   D2A38236  30.669  19.034   8.250
 6179POPC   C3A38237  30.705  19.022   7.950
 6179POPC   C4A38238  30.689  19.053   7.650
 6179POPC   C1B38239  30.798  19.287   8.550
 6179POPC   C2B38240  30.777  19.318   8.250
 6179POPC   C3B38241  30.748  19.320   7.950
 6179POPC   C4B38242  30.820  19.298   7.650
 6180POPC   NC338243   8.997  36.941   9.450
 6180POPC   PO438244   9.003  36.951   9.150
 6180POPC   GL138245   8.966  36.856   8.850
 6180POPC   GL238246   8.826  36.951   8.850
 6180POPC   C1A38247   8.990  36.871   8.550
 6180POPC   D2A38248   8.970  36.923   8.250
 6180POPC   C3A38249   8.981  36.943   7.950
 6180POPC   C4A38250   8.971  36.882   7.650
 6180POPC   C1B38251   8.741  36.912   8.550
 6180POPC   C2B38252   8.750  36.938   8.250
 6180POPC   C3B38253   8.728  36.955   7.950
 6180POPC   C4B38254   8.759  36.949   7.650
 6181POPC   NC338255  21.358  13.638   9.450
 6181POPC   PO438256  21.426  13.592   9.150
 6181POPC   GL138257  21.337  13.584   8.850
 6181POPC   GL238258  21.283  13.546   8.850
 6181POPC   C1A38259  21.410  13.636   8.550
 6181POPC   D2A38260  21.389  13.614   8.250
 6181POPC   C3A38261  21.345  13.649   7.950
 6181POPC   C4A38262  21.433  13.582   7.650
 6181POPC   C1B38263  21.203  13.462   8.550
 6181POPC   C2B38264  21.136  13.476   8.250
 6181POPC   C3B38265  21.164  13.516   7.950
 6181POPC   C4B38266  21.182  13.518   7.650
 6182POPC   NC338267  15.169   0.416   9.450
 6182POPC   PO438268  15.157   0.422   9.150
 6182POPC   GL138269  15.166   0.471   8.850
 6182POPC   GL238270  15.324   0.432   8.850
 6182POPC   C1A38271  15.211   0.407   8.550
 6182POPC   D2A38272  15.213   0.484   8.250
 6182POPC   C3A38273  15.225   0.485   7.950
 6182POPC   C4A38274  15.200   0.477   7.650
 6182POPC   C1B38275  15.429   0.493   8.550
 6182POPC   C2B38276  15.456   0.477   8.250
 6182POPC   C3B38277  15.426   0.476   7.950
 6182POPC   C4B38278  15.439   0.432   7.650
 6183POPC   NC338279  15.927  38.483   9.450
 6183POPC   PO438280  16.002  38.460   9.150
 6183POPC   GL138281  15.960  38.440   8.850
 6183POPC   GL238282  16.023  38.296   8.850
 6183POPC   C1A38283  15.975  38.481   8.550
 6183POPC   D2A38284  15.922  38.463   8.250
 6183POPC   C3A38285  15.972  38.429   7.950
 6183POPC   C4A38286  15.914  38.466   7.650
 6183POPC   C1B38287  16.063  38.217   8.550
 6183POPC   C2B38288  16.019  38.243   8.250
 6183POPC   C3B38289  16.002  38.236   7.950
 6183POPC   C4B38290  16.017  38.198   7.650
 6184POPC   NC338291  33.050  27.630   9.450
 6184POPC   PO438292  33.072  27.560   9.150
 6184POPC   GL138293  32.986  27.560   8.850
 6184POPC   GL238294  32.916  27.542   8.850
 6184POPC   C1A38295  33.006  27.617   8.550
 6184POPC   D2A38296  33.035  27.633   8.250
 6184POPC   C3A38297  33.008  27.586   7.950
 6184POPC   C4A38298  33.070  27.622   7.650
 6184POPC   C1B38299  32.795  27.462   8.550
 6184POPC   C2B38300  32.850  27.466   8.250
 6184POPC   C3B38301  32.804  27.418   7.950
 6184POPC   C4B38302  32.840  27.425   7.650
 6185POPC   NC338303  31.465  41.572   9.450
 6185POPC   PO438304  31.501  41.591   9.150
 6185POPC   GL138305  31.505  41.539   8.850
 6185POPC   GL238306  31.589  41.680   8.850
 6185POPC   C1A38307  31.452  41.605   8.550
 6185POPC   D2A38308  31.483  41.570   8.250
 6185POPC   C3A38309  31.476  41.598   7.950
 6185POPC   C4A38310  31.509  41.598   7.650
 6185POPC   C1B38311  31.705  41.759   8.550
 6185POPC   C2B38312  31.701  41.717   8.250
 6185POPC   C3B38313  31.692  41.717   7.950
 6185POPC   C4B38314  31.635  41.681   7.650
 6186POPC   NC338315  30.713  29.911   9.450
 6186POPC   PO438316  30.672  29.891   9.150
 6186POPC   GL138317  30.671  29.886   8.850
 6186POPC   GL238318  30.816  29.976   8.850
 6186POPC   C1A38319  30.692  29.902   8.550
 6186POPC   D2A38320  30.651  29.878   8.250
 6186POPC   C3A38321  30.680  29.918   7.950
 6186POPC   C4A38322  30.706  29.882   7.650
 6186POPC   C1B38323  30.884  30.123   8.550
 6186POPC   C2B38324  30.938  30.068   8.250
 6186POPC   C3B38325  30.921  30.062   7.950
 6186POPC   C4B38326  30.856  30.118   7.650
 6187POPC   NC338327  15.168   1.231   9.450
 6187POPC   PO438328  15.194   1.225   9.150
 6187POPC   GL138329  15.158   1.208   8.850
 6187POPC   GL238330  15.331   1.209   8.850
 6187POPC   C1A38331  15.204   1.204   8.550
 6187POPC   D2A38332  15.173   1.181   8.250
 6187POPC   C3A38333  15.163   1.257   7.950
 6187POPC   C4A38334  15.201   1.218   7.650
 6187POPC   C1B38335  15.449   1.313   8.550
 6187POPC   C2B38336  15.433   1.321   8.250
 6187POPC   C3B38337  15.441   1.281   7.950
 6187POPC   C4B38338  15.412   1.323   7.650
 6188POPC   NC338339  20.658  34.540   9.450
 6188POPC   PO438340  20.660  34.600   9.150
 6188POPC   GL138341  20.611  34.540   8.850
 6188POPC   GL238342  20.515  34.729   8.850
 6188POPC   C1A38343  20.613  34.600   8.550
 6188POPC   D2A38344  20.650  34.618   8.250
 6188POPC   C3A38345  20.634  34.530   7.950
 6188POPC   C4A38346  20.606  34.600   7.650
 6188POPC   C1B38347  20.463  34.767   8.550
 6188POPC   C2B38348  20.467  34.815   8.250
 6188POPC   C3B38349  20.463  34.824   7.950
 6188POPC   C4B38350  20.456  34.773   7.650
 6189POPC   NC338351   8.200  27.605   9.450
 6189POPC   PO438352   8.229  27.613   9.150
 6189POPC   GL138353   8.153  27.550   8.850
 6189POPC   GL238354   8.072  27.483   8.850
 6189POPC   C1A38355   8.184  27.576   8.550
 6189POPC   D2A38356   8.237  27.553   8.250
 6189POPC   C3A38357   8.221  27.625   7.950
 6189POPC   C4A38358   8.223  27.595   7.650
 6189POPC   C1B38359   8.030  27.472   8.550
 6189POPC   C2B38360   7.986  27.481   8.250
 6189POPC   C3B38361   8.002  27.421   7.950
 6189POPC   C4B38362   7.974  27.505   7.650
 6190POPC   NC338363   0.410  17.525   9.450
 6190POPC   PO438364   0.487  17.544   9.150
 6190POPC   GL138365   0.422  17.503   8.850
 6190POPC   GL238366   0.326  17.421   8.850
 6190POPC   C1A38367   0.462  17.493   8.550
 6190POPC   D2A38368   0.408  17.477   8.250
 6190POPC   C3A38369   0.397  17.521   7.950
 6190POPC   C4A38370   0.390  17.459   7.650
 6190POPC   C1B38371   0.165  17.402   8.550
 6190POPC   C2B38372   0.207  17.466   8.250
 6190POPC   C3B38373   0.194  17.430   7.950
 6190POPC   C4B38374   0.250  17.452   7.650
 6191POPC   NC338375  43.867  12.121   9.450
 6191POPC   PO438376  43.866  12.045   9.150
 6191POPC   GL138377  43.867  12.076   8.850
 6191POPC   GL238378  43.822  12.179   8.850
 6191POPC   C1A38379  43.916  12.066   8.550
 6191POPC   D2A38380  43.848  12.083   8.250
 6191POPC   C3A38381  43.873  12.026   7.950
 6191POPC   C4A38382  43.900  12.101   7.650
 6191POPC   C1B38383  43.702  12.294   8.550
 6191POPC   C2B38384  43.676  12.248   8.250
 6191POPC   C3B38385  43.704  12.257   7.950
 6191POPC   C4B38386  43.717  12.286   7.650
 6192POPC   NC338387  41.545  17.459   9.450
 6192POPC   PO438388  41.571  17.507   9.150
 6192POPC   GL138389  41.555  17.536   8.850
 6192POPC   GL238390  41.484  17.609   8.850
 6192POPC   C1A38391  41.574  17.506   8.550
 6192POPC   D2A38392  41.510  17.512   8.250
 6192POPC   C3A38393  41.575  17.538   7.950
 6192POPC   C4A38394  41.583  17.528   7.650
 6192POPC   C1B38395  41.444  17.741   8.550
 6192POPC   C2B38396  41.452  17.728   8.250
 6192POPC   C3B38397  41.412  17.748   7.950
 6192POPC   C4B38398  41.426  17.696   7.650
 6193POPC   NC338399  20.596  40.735   9.450
 6193POPC   PO438400  20.606  40.796   9.150
 6193POPC   GL138401  20.578  40.793   8.850
 6193POPC   GL238402  20.555  40.825   8.850
 6193POPC   C1A38403  20.608  40.807   8.550
 6193POPC   D2A38404  20.644  40.758   8.250
 6193POPC   C3A38405  20.601  40.808   7.950
 6193POPC   C4A38406  20.564  40.741   7.650
 6193POPC   C1B38407  20.393  40.922   8.550
 6193POPC   C2B38408  20.473  40.976   8.250
 6193POPC   C3B38409  20.481  40.967   7.950
 6193POPC   C4B38410  20.406  40.929   7.650
 6194POPC   NC338411  21.391  36.145   9.450
 6194POPC   PO438412  21.395  36.078   9.150
 6194POPC   GL138413  21.337  36.123   8.850
 6194POPC   GL238414  21.213  36.109   8.850
 6194POPC   C1A38415  21.407  36.131   8.550
 6194POPC   D2A38416  21.387  36.107   8.250
 6194POPC   C3A38417  21.430  36.121   7.950
 6194POPC   C4A38418  21.400  36.150   7.650
 6194POPC   C1B38419  21.095  36.104   8.550
 6194POPC   C2B38420  21.104  36.129   8.250
 6194POPC   C3B38421  21.176  36.106   7.950
 6194POPC   C4B38422  21.120  36.155   7.650
 6195POPC   NC338423   8.172  26.791   9.450
 6195POPC   PO438424   8.225  26.826   9.150
 6195POPC   GL138425   8.233  26.865   8.850
 6195POPC   GL238426   8.268  26.928   8.850
 6195POPC   C1A38427   8.224  26.800   8.550
 6195POPC   D2A38428   8.241  26.854   8.250
 6195POPC   C3A38429   8.194  26.849   7.950
 6195POPC   C4A38430   8.199  26.829   7.650
 6195POPC   C1B38431   8.340  26.996   8.550
 6195POPC   C2B38432   8.398  26.975   8.250
 6195POPC   C3B38433   8.402  26.966   7.950
 6195POPC   C4B38434   8.361  26.993   7.650
 6196POPC   NC338435  23.699  31.485   9.450
 6196POPC   PO438436  23.731  31.471   9.150
 6196POPC   GL138437  23.742  31.471   8.850
 6196POPC   GL238438  23.682  31.408   8.850
 6196POPC   C1A38439  23.721  31.514   8.550
 6196POPC   D2A38440  23.740  31.463   8.250
 6196POPC   C3A38441  23.737  31.494   7.950
 6196POPC   C4A38442  23.727  31.512   7.650
 6196POPC   C1B38443  23.596  31.249   8.550
 6196POPC   C2B38444  23.546  31.298   8.250
 6196POPC   C3B38445  23.541  31.262   7.950
 6196POPC   C4B38446  23.581  31.307   7.650
 6197POPC   NC338447  37.679   5.044   9.450
 6197POPC   PO438448  37.706   5.052   9.150
 6197POPC   GL138449  37.638   5.092   8.850
 6197POPC   GL238450  37.686   5.004   8.850
 6197POPC   C1A38451  37.630   5.107   8.550
 6197POPC   D2A38452  37.697   5.069   8.250
 6197POPC   C3A38453  37.708   5.081   7.950
 6197POPC   C4A38454  37.671   5.105   7.650
 6197POPC   C1B38455  37.641   4.840   8.550
 6197POPC   C2B38456  37.634   4.807   8.250
 6197POPC   C3B38457  37.668   4.878   7.950
 6197POPC   C4B38458  37.645   4.796   7.650
 6198POPC   NC338459  44.644  40.036   9.450
 6198POPC   PO438460  44.701  40.018   9.150
 6198POPC   GL138461  44.673  39.961   8.850
 6198POPC   GL238462  44.755  40.069   8.850
 6198POPC   C1A38463  44.709  39.990   8.550
 6198POPC   D2A38464  44.682  39.980   8.250
 6198POPC   C3A38465  44.666  40.031   7.950
 6198POPC   C4A38466  44.632  39.995   7.650
 6198POPC   C1B38467  44.755  40.259   8.550
 6198POPC   C2B38468  44.842  40.192   8.250
 6198POPC   C3B38469  44.766  40.200   7.950
 6198POPC   C4B38470  44.797  40.188   7.650
 6199POPC   NC338471  15.949  27.563   9.450
 6199POPC   PO438472  15.907  27.578   9.150
 6199POPC   GL138473  15.924  27.606   8.850
 6199POPC   GL238474  16.074  27.577   8.850
 6199POPC   C1A38475  15.905  27.551   8.550
 6199POPC   D2A38476  15.963  27.603   8.250
 6199POPC   C3A38477  15.990  27.546   7.950
 6199POPC   C4A38478  15.962  27.597   7.650
 6199POPC   C1B38479  16.217  27.658   8.550
 6199POPC   C2B38480  16.181  27.611   8.250
 6199POPC   C3B38481  16.244  27.642   7.950
 6199POPC   C4B38482  16.227  27.668   7.650
 6200POPC   NC338483   2.764  39.228   9.450
 6200POPC   PO438484   2.777  39.266   9.150
 6200POPC   GL138485   2.767  39.219   8.850
 6200POPC   GL238486   2.620  39.130   8.850
 6200POPC   C1A38487   2.719  39.260   8.550
 6200POPC   D2A38488   2.754  39.270   8.250
 6200POPC   C3A38489   2.760  39.230   7.950
 6200POPC   C4A38490   2.723  39.271   7.650
 6200POPC   C1B38491   2.591  39.109   8.550
 6200POPC   C2B38492   2.585  39.108   8.250
 6200POPC   C3B38493   2.585  39.104   7.950
 6200POPC   C4B38494   2.580  39.111   7.650
 6201POPC   NC338495  10.562   8.943   9.450
 6201POPC   PO438496  10.565   9.010   9.150
 6201POPC   GL138497  10.514   8.952   8.850
 6201POPC   GL238498  10.602   8.957   8.850
 6201POPC   C1A38499  10.522   9.009   8.550
 6201POPC   D2A38500  10.569   9.005   8.250
 6201POPC   C3A38501  10.505   8.938   7.950
 6201POPC   C4A38502  10.573   8.979   7.650
 6201POPC   C1B38503  10.760   8.870   8.550
 6201POPC   C2B38504  10.745   8.866   8.250
 6201POPC   C3B38505  10.731   8.899   7.950
 6201POPC   C4B38506  10.797   8.890   7.650
 6202POPC   NC338507  12.893  26.843   9.450
 6202POPC   PO438508  12.868  26.866   9.150
 6202POPC   GL138509  12.809  26.861   8.850
 6202POPC   GL238510  12.807  26.712   8.850
 6202POPC   C1A38511  12.881  26.775   8.550
 6202POPC   D2A38512  12.823  26.854   8.250
 6202POPC   C3A38513  12.831  26.781   7.950
 6202POPC   C4A38514  12.830  26.864   7.650
 6202POPC   C1B38515  12.762  26.568   8.550
 6202POPC   C2B38516  12.760  26.565   8.250
 6202POPC   C3B38517  12.719  26.582   7.950
 6202POPC   C4B38518  12.746  26.547   7.650
 6203POPC   NC338519   6.692   3.513   9.450
 6203POPC   PO438520   6.642   3.534   9.150
 6203POPC   GL138521   6.603   3.582   8.850
 6203POPC   GL238522   6.713   3.375   8.850
 6203POPC   C1A38523   6.628   3.515   8.550
 6203POPC   D2A38524   6.616   3.556   8.250
 6203POPC   C3A38525   6.686   3.527   7.950
 6203POPC   C4A38526   6.683   3.531   7.650
 6203POPC   C1B38527   6.679   3.284   8.550
 6203POPC   C2B38528   6.720   3.266   8.250
 6203POPC   C3B38529   6.663   3.328   7.950
 6203POPC   C4B38530   6.735   3.310   7.650
 6204POPC   NC338531  34.532   3.539   9.450
 6204POPC   PO438532  34.555   3.501   9.150
 6204POPC   GL138533  34.588   3.562   8.850
 6204POPC   GL238534  34.643   3.465   8.850
 6204POPC   C1A38535  34.612   3.514   8.550
 6204POPC   D2A38536  34.553   3.569   8.250
 6204POPC   C3A38537  34.539   3.538   7.950
 6204POPC   C4A38538  34.549   3.502   7.650
 6204POPC   C1B38539  34.786   3.426   8.550
 6204POPC   C2B38540  34.770   3.425   8.250
 6204POPC   C3B38541  34.801   3.365   7.950
 6204POPC   C4B38542  34.778   3.370   7.650
 6205POPC   NC338543  18.259  14.393   9.450
 6205POPC   PO438544  18.319  14.421   9.150
 6205POPC   GL138545  18.257  14.439   8.850
 6205POPC   GL238546  18.165  14.368   8.850
 6205POPC   C1A38547  18.295  14.372   8.550
 6205POPC   D2A38548  18.254  14.415   8.250
 6205POPC   C3A38549  18.297  14.386   7.950
 6205POPC   C4A38550  18.274  14.358   7.650
 6205POPC   C1B38551  18.114  14.295   8.550
 6205POPC   C2B38552  18.043  14.261   8.250
 6205POPC   C3B38553  18.060  14.263   7.950
 6205POPC   C4B38554  18.082  14.239   7.650
 6206POPC   NC338555  35.345  11.299   9.450
 6206POPC   PO438556  35.337  11.291   9.150
 6206POPC   GL138557  35.306  11.282   8.850
 6206POPC   GL238558  35.384  11.172   8.850
 6206POPC   C1A38559  35.320  11.266   8.550
 6206POPC   D2A38560  35.335  11.332   8.250
 6206POPC   C3A38561  35.319  11.333   7.950
 6206POPC   C4A38562  35.362  11.311   7.650
 6206POPC   C1B38563  35.331  11.033   8.550
 6206POPC   C2B38564  35.313  11.089   8.250
 6206POPC   C3B38565  35.322  11.025   7.950
 6206POPC   C4B38566  35.339  11.072   7.650
 6207POPC   NC338567  34.591  22.138   9.450
 6207POPC   PO438568  34.619  22.174   9.150
 6207POPC   GL138569  34.576  22.183   8.850
 6207POPC   GL238570  34.646  22.261   8.850
 6207POPC   C1A38571  34.581  22.179   8.550
 6207POPC   D2A38572  34.597  22.210   8.250
 6207POPC   C3A38573  34.533  22.189   7.950
 6207POPC   C4A38574  34.570  22.141   7.650
 6207POPC   C1B38575  34.734  22.324   8.550
 6207POPC   C2B38576  34.726  22.316   8.250
 6207POPC   C3B38577  34.771  22.407   7.950
 6207POPC   C4B38578  34.709  22.403   7.650
 6208POPC   NC338579  24.524   8.996   9.450
 6208POPC   PO438580  24.533   8.957   9.150
 6208POPC   GL138581  24.443   9.001   8.850
 6208POPC   GL238582  24.508   8.830   8.850
 6208POPC   C1A38583  24.535   8.993   8.550
 6208POPC   D2A38584  24.482   8.993   8.250
 6208POPC   C3A38585  24.500   8.937   7.950
 6208POPC   C4A38586  24.467   8.998   7.650
 6208POPC   C1B38587  24.495   8.754   8.550
 6208POPC   C2B38588  24.416   8.725   8.250
 6208POPC   C3B38589  24.494   8.764   7.950
 6208POPC   C4B38590  24.447   8.748   7.650
 6209POPC   NC338591  38.412  26.866   9.450
 6209POPC   PO438592  38.480  26.829   9.150
 6209POPC   GL138593  38.419  26.803   8.850
 6209POPC   GL238594  38.526  26.932   8.850
 6209POPC   C1A38595  38.408  26.782   8.550
 6209POPC   D2A38596  38.463  26.851   8.250
 6209POPC   C3A38597  38.463  26.816   7.950
 6209POPC   C4A38598  38.458  26.777   7.650
 6209POPC   C1B38599  38.601  26.990   8.550
 6209POPC   C2B38600  38.638  26.972   8.250
 6209POPC   C3B38601  38.658  27.005   7.950
 6209POPC   C4B38602  38.597  26.987   7.650
 6210POPC   NC338603  15.950  44.655   9.450
 6210POPC   PO438604  15.954  44.638   9.150
 6210POPC   GL138605  15.957  44.655   8.850
 6210POPC   GL238606  15.942  44.785   8.850
 6210POPC   C1A38607  15.927  44.712   8.550
 6210POPC   D2A38608  15.943  44.622   8.250
 6210POPC   C3A38609  15.917  44.629   7.950
 6210POPC   C4A38610  15.935  44.620   7.650
 6210POPC   C1B38611  15.821  44.881   8.550
 6210POPC   C2B38612  15.821  44.920   8.250
 6210POPC   C3B38613  15.885  44.931   7.950
 6210POPC   C4B38614  15.865  44.925   7.650
 6211POPC   NC338615   2.755  26.081   9.450
 6211POPC   PO438616   2.804  26.023   9.150
 6211POPC   GL138617   2.797  26.081   8.850
 6211POPC   GL238618   2.717  25.960   8.850
 6211POPC   C1A38619   2.745  26.053   8.550
 6211POPC   D2A38620   2.770  26.088   8.250
 6211POPC   C3A38621   2.722  26.032   7.950
 6211POPC   C4A38622   2.797  26.083   7.650
 6211POPC   C1B38623   2.630  25.822   8.550
 6211POPC   C2B38624   2.587  25.838   8.250
 6211POPC   C3B38625   2.606  25.880   7.950
 6211POPC   C4B38626   2.593  25.865   7.650
 6212POPC   NC338627  10.530  26.855   9.450
 6212POPC   PO438628  10.486  26.828   9.150
 6212POPC   GL138629  10.483  26.849   8.850
 6212POPC   GL238630  10.431  26.825   8.850
 6212POPC   C1A38631  10.477  26.805   8.550
 6212POPC   D2A38632  10.569  26.831   8.250
 6212POPC   C3A38633  10.520  26.814   7.950
 6212POPC   C4A38634  10.542  26.814   7.650
 6212POPC   C1B38635  10.293  26.941   8.550
 6212POPC   C2B38636  10.270  26.927   8.250
 6212POPC   C3B38637  10.259  26.882   7.950
 6212POPC   C4B38638  10.276  26.912   7.650
 6213POPC   NC338639  29.917   8.222   9.450
 6213POPC   PO438640  29.932   8.177   9.150
 6213POPC   GL138641  29.872   8.163   8.850
 6213POPC   GL238642  30.043   8.126   8.850
 6213POPC   C1A38643  29.873   8.213   8.550
 6213POPC   D2A38644  29.956   8.203   8.250
 6213POPC   C3A38645  29.965   8.196   7.950
 6213POPC   C4A38646  29.940   8.240   7.650
 6213POPC   C1B38647  30.163   8.104   8.550
 6213POPC   C2B38648  30.201   8.113   8.250
 6213POPC   C3B38649  30.198   8.147   7.950
 6213POPC   C4B38650  30.138   8.107   7.650
 6214POPC   NC338651  10.517   4.356   9.450
 6214POPC   PO438652  10.482   4.311   9.150
 6214POPC   GL138653  10.516   4.267   8.850
 6214POPC   GL238654  10.500   4.393   8.850
 6214POPC   C1A38655  10.573   4.324   8.550
 6214POPC   D2A38656  10.531   4.268   8.250
 6214POPC   C3A38657  10.508   4.280   7.950
 6214POPC   C4A38658  10.555   4.280   7.650
 6214POPC   C1B38659  10.571   4.529   8.550
 6214POPC   C2B38660  10.579   4.573   8.250
 6214POPC   C3B38661  10.487   4.542   7.950
 6214POPC   C4B38662  10.515   4.531   7.650
 6215POPC   NC338663  40.760  43.889   9.450
 6215POPC   PO438664  40.756  43.929   9.150
 6215POPC   GL138665  40.756  43.852   8.850
 6215POPC   GL238666  40.719  43.763   8.850
 6215POPC   C1A38667  40.771  43.895   8.550
 6215POPC   D2A38668  40.772  43.936   8.250
 6215POPC   C3A38669  40.741  43.855   7.950
 6215POPC   C4A38670  40.751  43.890   7.650
 6215POPC   C1B38671  40.646  43.697   8.550
 6215POPC   C2B38672  40.676  43.637   8.250
 6215POPC   C3B38673  40.728  43.694   7.950
 6215POPC   C4B38674  40.740  43.683   7.650
 6216POPC   NC338675  15.982  20.633   9.450
 6216POPC   PO438676  15.933  20.610   9.150
 6216POPC   GL138677  15.977  20.638   8.850
 6216POPC   GL238678  15.816  20.652   8.850
 6216POPC   C1A38679  15.927  20.569   8.550
 6216POPC   D2A38680  15.961  20.645   8.250
 6216POPC   C3A38681  15.975  20.610   7.950
 6216POPC   C4A38682  15.976  20.575   7.650
 6216POPC   C1B38683  15.808  20.789   8.550
 6216POPC   C2B38684  15.716  20.776   8.250
 6216POPC   C3B38685  15.759  20.778   7.950
 6216POPC   C4B38686  15.801  20.766   7.650
 6217POPC   NC338687  23.746  43.097   9.450
 6217POPC   PO438688  23.680  43.104   9.150
 6217POPC   GL138689  23.685  43.108   8.850
 6217POPC   GL238690  23.793  43.273   8.850
 6217POPC   C1A38691  23.723  43.095   8.550
 6217POPC   D2A38692  23.705  43.095   8.250
 6217POPC   C3A38693  23.692  43.108   7.950
 6217POPC   C4A38694  23.680  43.080   7.650
 6217POPC   C1B38695  23.834  43.382   8.550
 6217POPC   C2B38696  23.813  43.321   8.250
 6217POPC   C3B38697  23.808  43.318   7.950
 6217POPC   C4B38698  23.795  43.355   7.650
 6218POPC   NC338699  23.729   0.433   9.450
 6218POPC   PO438700  23.729   0.438   9.150
 6218POPC   GL138701  23.738   0.446   8.850
 6218POPC   GL238702  23.822   0.431   8.850
 6218POPC   C1A38703  23.716   0.482   8.550
 6218POPC   D2A38704  23.736   0.397   8.250
 6218POPC   C3A38705  23.716   0.488   7.950
 6218POPC   C4A38706  23.742   0.441   7.650
 6218POPC   C1B38707  23.986   0.382   8.550
 6218POPC   C2B38708  23.987   0.445   8.250
 6218POPC   C3B38709  24.005   0.392   7.950
 6218POPC   C4B38710  23.926   0.451   7.650
 6219POPC   NC338711   8.208  10.516   9.450
 6219POPC   PO438712   8.220  10.511   9.150
 6219POPC   GL138713   8.175  10.551   8.850
 6219POPC   GL238714   8.127  10.427   8.850
 6219POPC   C1A38715   8.213  10.544   8.550
 6219POPC   D2A38716   8.179  10.481   8.250
 6219POPC   C3A38717   8.214  10.561   7.950
 6219POPC   C4A38718   8.174  10.523   7.650
 6219POPC   C1B38719   7.987  10.422   8.550
 6219POPC   C2B38720   8.017  10.396   8.250
 6219POPC   C3B38721   8.000  10.391   7.950
 6219POPC   C4B38722   7.994  10.400   7.650
 6220POPC   NC338723  39.224  25.242   9.450
 6220POPC   PO438724  39.244  25.303   9.150
 6220POPC   GL138725  39.211  25.284   8.850
 6220POPC   GL238726  39.201  25.161   8.850
 6220POPC   C1A38727  39.237  25.257   8.550
 6220POPC   D2A38728  39.276  25.294   8.250
 6220POPC   C3A38729  39.201  25.276   7.950
 6220POPC   C4A38730  39.224  25.315   7.650
 6220POPC   C1B38731  39.055  25.080   8.550
 6220POPC   C2B38732  39.057  25.059   8.250
 6220POPC   C3B38733  39.101  25.101   7.950
 6220POPC   C4B38734  39.102  25.039   7.650
 6221POPC   NC338735  36.168  23.670   9.450
 6221POPC   PO438736  36.108  23.727   9.150
 6221POPC   GL138737  36.104  23.741   8.850
 6221POPC   GL238738  36.140  23.785   8.850
 6221POPC   C1A38739  36.128  23.722   8.550
 6221POPC   D2A38740  36.095  23.721   8.250
 6221POPC   C3A38741  36.157  23.716   7.950
 6221POPC   C4A38742  36.145  23.702   7.650
 6221POPC   C1B38743  36.258  23.987   8.550
 6221POPC   C2B38744  36.180  23.990   8.250
 6221POPC   C3B38745  36.248  23.980   7.950
 6221POPC   C4B38746  36.262  23.917   7.650
 6222POPC   NC338747  36.095  36.921   9.450
 6222POPC   PO438748  36.152  36.938   9.150
 6222POPC   GL138749  36.150  36.946   8.850
 6222POPC   GL238750  36.233  36.804   8.850
 6222POPC   C1A38751  36.110  36.915   8.550
 6222POPC   D2A38752  36.113  36.870   8.250
 6222POPC   C3A38753  36.121  36.949   7.950
 6222POPC   C4A38754  36.095  36.857   7.650
 6222POPC   C1B38755  36.295  36.742   8.550
 6222POPC   C2B38756  36.263  36.748   8.250
 6222POPC   C3B38757  36.262  36.758   7.950
 6222POPC   C4B38758  36.295  36.772   7.650
 6223POPC   NC338759  14.430  29.106   9.450
 6223POPC   PO438760  14.378  29.185   9.150
 6223POPC   GL138761  14.407  29.166   8.850
 6223POPC   GL238762  14.550  29.169   8.850
 6223POPC   C1A38763  14.383  29.168   8.550
 6223POPC   D2A38764  14.446  29.127   8.250
 6223POPC   C3A38765  14.396  29.193   7.950
 6223POPC   C4A38766  14.410  29.141   7.650
 6223POPC   C1B38767  14.629  29.165   8.550
 6223POPC   C2B38768  14.685  29.169   8.250
 6223POPC   C3B38769  14.658  29.185   7.950
 6223POPC   C4B38770  14.622  29.144   7.650
 6224POPC   NC338771  33.823   2.811   9.450
 6224POPC   PO438772  33.784   2.737   9.150
 6224POPC   GL138773  33.754   2.742   8.850
 6224POPC   GL238774  33.649   2.700   8.850
 6224POPC   C1A38775  33.848   2.769   8.550
 6224POPC   D2A38776  33.770   2.764   8.250
 6224POPC   C3A38777  33.792   2.794   7.950
 6224POPC   C4A38778  33.843   2.803   7.650
 6224POPC   C1B38779  33.602   2.684   8.550
 6224POPC   C2B38780  33.529   2.643   8.250
 6224POPC   C3B38781  33.618   2.694   7.950
 6224POPC   C4B38782  33.626   2.679   7.650
 6225POPC   NC338783  12.888  30.683   9.450
 6225POPC   PO438784  12.885  30.719   9.150
 6225POPC   GL138785  12.857  30.654   8.850
 6225POPC   GL238786  12.708  30.736   8.850
 6225POPC   C1A38787  12.837  30.714   8.550
 6225POPC   D2A38788  12.868  30.690   8.250
 6225POPC   C3A38789  12.821  30.743   7.950
 6225POPC   C4A38790  12.854  30.692   7.650
 6225POPC   C1B38791  12.678  30.875   8.550
 6225POPC   C2B38792  12.669  30.822   8.250
 6225POPC   C3B38793  12.664  30.816   7.950
 6225POPC   C4B38794  12.682  30.872   7.650
 6226POPC   NC338795  16.698  12.072   9.450
 6226POPC   PO438796  16.686  12.121   9.150
 6226POPC   GL138797  16.691  12.086   8.850
 6226POPC   GL238798  16.592  12.172   8.850
 6226POPC   C1A38799  16.770  12.086   8.550
 6226POPC   D2A38800  16.747  12.088   8.250
 6226POPC   C3A38801  16.772  12.045   7.950
 6226POPC   C4A38802  16.697  12.092   7.650
 6226POPC   C1B38803  16.503  12.181   8.550
 6226POPC   C2B38804  16.542  12.154   8.250
 6226POPC   C3B38805  16.535  12.151   7.950
 6226POPC   C4B38806  16.483  12.215   7.650
 6227POPC   NC338807  20.616   2.013   9.450
 6227POPC   PO438808  20.588   1.942   9.150
 6227POPC   GL138809  20.593   1.951   8.850
 6227POPC   GL238810  20.677   1.969   8.850
 6227POPC   C1A38811  20.628   1.968   8.550
 6227POPC   D2A38812  20.565   2.028   8.250
 6227POPC   C3A38813  20.624   1.989   7.950
 6227POPC   C4A38814  20.635   1.960   7.650
 6227POPC   C1B38815  20.811   1.858   8.550
 6227POPC   C2B38816  20.855   1.931   8.250
 6227POPC   C3B38817  20.825   1.891   7.950
 6227POPC   C4B38818  20.888   1.887   7.650
 6228POPC   NC338819  28.396  22.913   9.450
 6228POPC   PO438820  28.375  22.950   9.150
 6228POPC   GL138821  28.331  22.927   8.850
 6228POPC   GL238822  28.414  23.073   8.850
 6228POPC   C1A38823  28.366  22.935   8.550
 6228POPC   D2A38824  28.362  22.954   8.250
 6228POPC   C3A38825  28.413  22.890   7.950
 6228POPC   C4A38826  28.343  22.900   7.650
 6228POPC   C1B38827  28.459  23.168   8.550
 6228POPC   C2B38828  28.490  23.169   8.250
 6228POPC   C3B38829  28.505  23.148   7.950
 6228POPC   C4B38830  28.467  23.148   7.650
 6229POPC   NC338831   8.968  29.915   9.450
 6229POPC   PO438832   8.969  29.877   9.150
 6229POPC   GL138833   8.962  29.962   8.850
 6229POPC   GL238834   9.099  29.847   8.850
 6229POPC   C1A38835   8.944  29.970   8.550
 6229POPC   D2A38836   8.976  29.882   8.250
 6229POPC   C3A38837   8.981  29.913   7.950
 6229POPC   C4A38838   9.004  29.887   7.650
 6229POPC   C1B38839   9.190  29.774   8.550
 6229POPC   C2B38840   9.208  29.799   8.250
 6229POPC   C3B38841   9.233  29.857   7.950
 6229POPC   C4B38842   9.175  29.836   7.650
 6230POPC   NC338843  38.430  34.587   9.450
 6230POPC   PO438844  38.433  34.591   9.150
 6230POPC   GL138845  38.504  34.545   8.850
 6230POPC   GL238846  38.447  34.511   8.850
 6230POPC   C1A38847  38.480  34.574   8.550
 6230POPC   D2A38848  38.444  34.554   8.250
 6230POPC   C3A38849  38.454  34.528   7.950
 6230POPC   C4A38850  38.503  34.534   7.650
 6230POPC   C1B38851  38.395  34.368   8.550
 6230POPC   C2B38852  38.317  34.367   8.250
 6230POPC   C3B38853  38.366  34.385   7.950
 6230POPC   C4B38854  38.378  34.365   7.650
 6231POPC   NC338855  24.474  10.491   9.450
 6231POPC   PO438856  24.538  10.540   9.150
 6231POPC   GL138857  24.469  10.525   8.850
 6231POPC   GL238858  24.387  10.429   8.850
 6231POPC   C1A38859  24.498  10.505   8.550
 6231POPC   D2A38860  24.465  10.483   8.250
 6231POPC   C3A38861  24.499  10.567   7.950
 6231POPC   C4A38862  24.499  10.539   7.650
 6231POPC   C1B38863  24.287  10.321   8.550
 6231POPC   C2B38864  24.278  10.313   8.250
 6231POPC   C3B38865  24.308  10.328   7.950
 6231POPC   C4B38866  24.374  10.317   7.650
 6232POPC   NC338867  29.886  12.090   9.450
 6232POPC   PO438868  29.900  12.122   9.150
 6232POPC   GL138869  29.895  12.052   8.850
 6232POPC   GL238870  29.850  12.010   8.850
 6232POPC   C1A38871  29.880  12.066   8.550
 6232POPC   D2A38872  29.933  12.091   8.250
 6232POPC   C3A38873  29.949  12.107   7.950
 6232POPC   C4A38874  29.923  12.109   7.650
 6232POPC   C1B38875  29.797  11.839   8.550
 6232POPC   C2B38876  29.751  11.903   8.250
 6232POPC   C3B38877  29.793  11.857   7.950
 6232POPC   C4B38878  29.802  11.897   7.650
 6233POPC   NC338879   2.031  10.479   9.450
 6233POPC   PO438880   2.005  10.499   9.150
 6233POPC   GL138881   1.972  10.491   8.850
 6233POPC   GL238882   2.055  10.604   8.850
 6233POPC   C1A38883   1.978  10.488   8.550
 6233POPC   D2A38884   1.957  10.519   8.250
 6233POPC   C3A38885   1.969  10.517   7.950
 6233POPC   C4A38886   2.010  10.567   7.650
 6233POPC   C1B38887   2.027  10.805   8.550
 6233POPC   C2B38888   2.053  10.770   8.250
 6233POPC   C3B38889   2.092  10.795   7.950
 6233POPC   C4B38890   2.045  10.808   7.650
 6234POPC   NC338891  28.321  19.828   9.450
 6234POPC   PO438892  28.326  19.821   9.150
 6234POPC   GL138893  28.369  19.853   8.850
 6234POPC   GL238894  28.245  19.894   8.850
 6234POPC   C1A38895  28.389  19.862   8.550
 6234POPC   D2A38896  28.341  19.879   8.250
 6234POPC   C3A38897  28.401  19.786   7.950
 6234POPC   C4A38898  28.395  19.830   7.650
 6234POPC   C1B38899  28.169  19.967   8.550
 6234POPC   C2B38900  28.168  19.921   8.250
 6234POPC   C3B38901  28.122  19.901   7.950
 6234POPC   C4B38902  28.100  19.969   7.650
 6235POPC   NC338903  43.846  24.495   9.450
 6235POPC   PO438904  43.863  24.459   9.150
 6235POPC   GL138905  43.924  24.520   8.850
 6235POPC   GL238906  43.938  24.417   8.850
 6235POPC   C1A38907  43.846  24.512   8.550
 6235POPC   D2A38908  43.851  24.531   8.250
 6235POPC   C3A38909  43.913  24.512   7.950
 6235POPC   C4A38910  43.883  24.446   7.650
 6235POPC   C1B38911  43.910  24.246   8.550
 6235POPC   C2B38912  43.970  24.297   8.250
 6235POPC   C3B38913  43.992  24.224   7.950
 6235POPC   C4B38914  43.967  24.299   7.650
 6236POPC   NC338915  31.450  36.165   9.450
 6236POPC   PO438916  31.442  36.118   9.150
 6236POPC   GL138917  31.446  36.157   8.850
 6236POPC   GL238918  31.582  36.188   8.850
 6236POPC   C1A38919  31.434  36.157   8.550
 6236POPC   D2A38920  31.427  36.144   8.250
 6236POPC   C3A38921  31.501  36.164   7.950
 6236POPC   C4A38922  31.467  36.098   7.650
 6236POPC   C1B38923  31.694  36.296   8.550
 6236POPC   C2B38924  31.670  36.301   8.250
 6236POPC   C3B38925  31.685  36.258   7.950
 6236POPC   C4B38926  31.638  36.255   7.650
 6237POPC   NC338927  32.980  28.379   9.450
 6237POPC   PO438928  33.012  28.370   9.150
 6237POPC   GL138929  33.052  28.378   8.850
 6237POPC   GL238930  33.009  28.271   8.850
 6237POPC   C1A38931  32.995  28.328   8.550
 6237POPC   D2A38932  32.987  28.359   8.250
 6237POPC   C3A38933  33.048  28.357   7.950
 6237POPC   C4A38934  33.039  28.343   7.650
 6237POPC   C1B38935  32.873  28.136   8.550
 6237POPC   C2B38936  32.878  28.135   8.250
 6237POPC   C3B38937  32.861  28.143   7.950
 6237POPC   C4B38938  32.886  28.113   7.650
 6238POPC   NC338939  37.665  33.757   9.450
 6238POPC   PO438940  37.687  33.784   9.150
 6238POPC   GL138941  37.692  33.792   8.850
 6238POPC   GL238942  37.781  33.844   8.850
 6238POPC   C1A38943  37.649  33.796   8.550
 6238POPC   D2A38944  37.637  33.764   8.250
 6238POPC   C3A38945  37.719  33.811   7.950
 6238POPC   C4A38946  37.689  33.841   7.650
 6238POPC   C1B38947  37.899  33.829   8.550
 6238POPC   C2B38948  37.934  33.840   8.250
 6238POPC   C3B38949  37.931  33.828   7.950
 6238POPC   C4B38950  37.887  33.835   7.650
 6239POPC   NC338951   5.138  19.812   9.450
 6239POPC   PO438952   5.116  19.869   9.150
 6239POPC   GL138953   5.050  19.873   8.850
 6239POPC   GL238954   5.139  19.969   8.850
 6239POPC   C1A38955   5.084  19.809   8.550
 6239POPC   D2A38956   5.070  19.847   8.250
 6239POPC   C3A38957   5.120  19.882   7.950
 6239POPC   C4A38958   5.086  19.881   7.650
 6239POPC   C1B38959   5.074  20.093   8.550
 6239POPC   C2B38960   5.121  20.043   8.250
 6239POPC   C3B38961   5.122  20.105   7.950
 6239POPC   C4B38962   5.132  20.080   7.650
 6240POPC   NC338963  29.109  21.384   9.450
 6240POPC   PO438964  29.194  21.420   9.150
 6240POPC   GL138965  29.110  21.384   8.850
 6240POPC   GL238966  29.049  21.470   8.850
 6240POPC   C1A38967  29.109  21.433   8.550
 6240POPC   D2A38968  29.146  21.406   8.250
 6240POPC   C3A38969  29.146  21.373   7.950
 6240POPC   C4A38970  29.170  21.420   7.650
 6240POPC   C1B38971  28.954  21.517   8.550
 6240POPC   C2B38972  28.910  21.546   8.250
 6240POPC   C3B38973  28.924  21.516   7.950
 6240POPC   C4B38974  28.993  21.591   7.650
 6241POPC   NC338975  43.088  19.093   9.450
 6241POPC   PO438976  43.153  19.060   9.150
 6241POPC   GL138977  43.128  19.063   8.850
 6241POPC   GL238978  43.206  19.112   8.850
 6241POPC   C1A38979  43.084  19.035   8.550
 6241POPC   D2A38980  43.113  19.077   8.250
 6241POPC   C3A38981  43.089  19.037   7.950
 6241POPC   C4A38982  43.064  19.058   7.650
 6241POPC   C1B38983  43.318  19.218   8.550
 6241POPC   C2B38984  43.363  19.173   8.250
 6241POPC   C3B38985  43.298  19.159   7.950
 6241POPC   C4B38986  43.327  19.141   7.650
 6242POPC   NC338987  40.776  10.553   9.450
 6242POPC   PO438988  40.790  10.564   9.150
 6242POPC   GL138989  40.832  10.480   8.850
 6242POPC   GL238990  40.686  10.520   8.850
 6242POPC   C1A38991  40.776  10.556   8.550
 6242POPC   D2A38992  40.734  10.548   8.250
 6242POPC   C3A38993  40.811  10.518   7.950
 6242POPC   C4A38994  40.756  10.565   7.650
 6242POPC   C1B38995  40.564  10.396   8.550
 6242POPC   C2B38996  40.594  10.425   8.250
 6242POPC   C3B38997  40.499  10.451   7.950
 6242POPC   C4B38998  40.583  10.423   7.650
 6243POPC   NC338999  11.274  40.742   9.450
 6243POPC   PO439000  11.332  40.753   9.150
 6243POPC   GL139001  11.321  40.807   8.850
 6243POPC   GL239002  11.401  40.781   8.850
 6243POPC   C1A39003  11.273  40.780   8.550
 6243POPC   D2A39004  11.285  40.826   8.250
 6243POPC   C3A39005  11.278  40.744   7.950
 6243POPC   C4A39006  11.297  40.735   7.650
 6243POPC   C1B39007  11.567  40.650   8.550
 6243POPC   C2B39008  11.558  40.748   8.250
 6243POPC   C3B39009  11.489  40.665   7.950
 6243POPC   C4B39010  11.524  40.724   7.650
 6244POPC   NC339011  37.648  26.067   9.450
 6244POPC   PO439012  37.636  25.996   9.150
 6244POPC   GL139013  37.649  26.019   8.850
 6244POPC   GL239014  37.760  26.053   8.850
 6244POPC   C1A39015  37.674  26.058   8.550
 6244POPC   D2A39016  37.679  26.047   8.250
 6244POPC   C3A39017  37.666  26.009   7.950
 6244POPC   C4A39018  37.653  25.999   7.650
 6244POPC   C1B39019  37.887  26.029   8.550
 6244POPC   C2B39020  37.950  26.068   8.250
 6244POPC   C3B39021  37.895  26.012   7.950
 6244POPC   C4B39022  37.922  26.067   7.650
 6245POPC   NC339023  40.815  30.689   9.450
 6245POPC   PO439024  40.799  30.655   9.150
 6245POPC   GL139025  40.755  30.723   8.850
 6245POPC   GL239026  40.817  30.630   8.850
 6245POPC   C1A39027  40.738  30.700   8.550
 6245POPC   D2A39028  40.803  30.693   8.250
 6245POPC   C3A39029  40.761  30.722   7.950
 6245POPC   C4A39030  40.777  30.686   7.650
 6245POPC   C1B39031  40.859  30.437   8.550
 6245POPC   C2B39032  40.897  30.504   8.250
 6245POPC   C3B39033  40.887  30.505   7.950
 6245POPC   C4B39034  40.890  30.514   7.650
 6246POPC   NC339035   4.273  25.236   9.450
 6246POPC   PO439036   4.367  25.292   9.150
 6246POPC   GL139037   4.282  25.266   8.850
 6246POPC   GL239038   4.283  25.316   8.850
 6246POPC   C1A39039   4.339  25.274   8.550
 6246POPC   D2A39040   4.306  25.311   8.250
 6246POPC   C3A39041   4.320  25.244   7.950
 6246POPC   C4A39042   4.331  25.239   7.650
 6246POPC   C1B39043   4.135  25.477   8.550
 6246POPC   C2B39044   4.135  25.491   8.250
 6246POPC   C3B39045   4.152  25.449   7.950
 6246POPC   C4B39046   4.159  25.488   7.650
 6247POPC   NC339047  26.852   5.897   9.450
 6247POPC   PO439048  26.817   5.910   9.150
 6247POPC   GL139049  26.828   5.880   8.850
 6247POPC   GL239050  26.928   5.865   8.850
 6247POPC   C1A39051  26.819   5.823   8.550
 6247POPC   D2A39052  26.854   5.834   8.250
 6247POPC   C3A39053  26.787   5.911   7.950
 6247POPC   C4A39054  26.844   5.823   7.650
 6247POPC   C1B39055  27.092   5.882   8.550
 6247POPC   C2B39056  27.064   5.895   8.250
 6247POPC   C3B39057  27.030   5.863   7.950
 6247POPC   C4B39058  27.101   5.886   7.650
 6248POPC   NC339059  22.174   8.238   9.450
 6248POPC   PO439060  22.170   8.147   9.150
 6248POPC   GL139061  22.185   8.192   8.850
 6248POPC   GL239062  22.135   8.026   8.850
 6248POPC   C1A39063  22.175   8.215   8.550
 6248POPC   D2A39064  22.154   8.174   8.250
 6248POPC   C3A39065  22.177   8.214   7.950
 6248POPC   C4A39066  22.200   8.243   7.650
 6248POPC   C1B39067  22.174   7.900   8.550
 6248POPC   C2B39068  22.183   7.952   8.250
 6248POPC   C3B39069  22.135   7.944   7.950
 6248POPC   C4B39070  22.182   7.907   7.650
 6249POPC   NC339071   2.787   9.797   9.450
 6249POPC   PO439072   2.779   9.751   9.150
 6249POPC   GL139073   2.811   9.704   8.850
 6249POPC   GL239074   2.624   9.811   8.850
 6249POPC   C1A39075   2.726   9.706   8.550
 6249POPC   D2A39076   2.738   9.763   8.250
 6249POPC   C3A39077   2.764   9.714   7.950
 6249POPC   C4A39078   2.807   9.732   7.650
 6249POPC   C1B39079   2.529   9.816   8.550
 6249POPC   C2B39080   2.553   9.794   8.250
 6249POPC   C3B39081   2.520   9.727   7.950
 6249POPC   C4B39082   2.501   9.732   7.650
 6250POPC   NC339083  39.253  27.613   9.450
 6250POPC   PO439084  39.232  27.583   9.150
 6250POPC   GL139085  39.182  27.620   8.850
 6250POPC   GL239086  39.324  27.719   8.850
 6250POPC   C1A39087  39.215  27.549   8.550
 6250POPC   D2A39088  39.236  27.610   8.250
 6250POPC   C3A39089  39.260  27.589   7.950
 6250POPC   C4A39090  39.252  27.628   7.650
 6250POPC   C1B39091  39.354  27.756   8.550
 6250POPC   C2B39092  39.409  27.800   8.250
 6250POPC   C3B39093  39.332  27.767   7.950
 6250POPC   C4B39094  39.334  27.767   7.650
 6251POPC   NC339095   2.772  44.620   9.450
 6251POPC   PO439096   2.727  44.633   9.150
 6251POPC   GL139097   2.779  44.639   8.850
 6251POPC   GL239098   2.920  44.663   8.850
 6251POPC   C1A39099   2.739  44.624   8.550
 6251POPC   D2A39100   2.788  44.667   8.250
 6251POPC   C3A39101   2.811  44.630   7.950
 6251POPC   C4A39102   2.721  44.684   7.650
 6251POPC   C1B39103   2.991  44.605   8.550
 6251POPC   C2B39104   3.053  44.625   8.250
 6251POPC   C3B39105   3.040  44.619   7.950
 6251POPC   C4B39106   2.972  44.630   7.650
 6252POPC   NC339107   6.629  26.048   9.450
 6252POPC   PO439108   6.651  26.018   9.150
 6252POPC   GL139109   6.655  26.040   8.850
 6252POPC   GL239110   6.659  26.133   8.850
 6252POPC   C1A39111   6.607  26.019   8.550
 6252POPC   D2A39112   6.604  26.036   8.250
 6252POPC   C3A39113   6.673  26.014   7.950
 6252POPC   C4A39114   6.609  26.000   7.650
 6252POPC   C1B39115   6.681  26.314   8.550
 6252POPC   C2B39116   6.649  26.267   8.250
 6252POPC   C3B39117   6.646  26.274   7.950
 6252POPC   C4B39118   6.638  26.312   7.650
 6253POPC   NC339119   7.450  10.525   9.450
 6253POPC   PO439120   7.435  10.478   9.150
 6253POPC   GL139121   7.433  10.495   8.850
 6253POPC   GL239122   7.480  10.359   8.850
 6253POPC   C1A39123   7.393  10.562   8.550
 6253POPC   D2A39124   7.457  10.490   8.250
 6253POPC   C3A39125   7.380  10.554   7.950
 6253POPC   C4A39126   7.412  10.507   7.650
 6253POPC   C1B39127   7.523  10.322   8.550
 6253POPC   C2B39128   7.530  10.301   8.250
 6253POPC   C3B39129   7.568  10.280   7.950
 6253POPC   C4B39130   7.493  10.273   7.650
 6254POPC   NC339131  43.862   5.127   9.450
 6254POPC   PO439132  43.865   5.126   9.150
 6254POPC   GL139133  43.925   5.140   8.850
 6254POPC   GL239134  43.876   5.168   8.850
 6254POPC   C1A39135  43.844   5.063   8.550
 6254POPC   D2A39136  43.856   5.128   8.250
 6254POPC   C3A39137  43.848   5.119   7.950
 6254POPC   C4A39138  43.872   5.088   7.650
 6254POPC   C1B39139  43.791   5.338   8.550
 6254POPC   C2B39140  43.759   5.280   8.250
 6254POPC   C3B39141  43.766   5.313   7.950
 6254POPC   C4B39142  43.815   5.321   7.650
 6255POPC   NC339143   5.084   9.020   9.450
 6255POPC   PO439144   5.074   8.976   9.150
 6255POPC   GL139145   5.065   8.944   8.850
 6255POPC   GL239146   5.205   8.888   8.850
 6255POPC   C1A39147   5.122   9.005   8.550
 6255POPC   D2A39148   5.105   8.941   8.250
 6255POPC   C3A39149   5.134   8.965   7.950
 6255POPC   C4A39150   5.065   8.970   7.650
 6255POPC   C1B39151   5.359   8.848   8.550
 6255POPC   C2B39152   5.310   8.838   8.250
 6255POPC   C3B39153   5.351   8.931   7.950
 6255POPC   C4B39154   5.347   8.866   7.650
 6256POPC   NC339155  35.380  39.984   9.450
 6256POPC   PO439156  35.394  39.996   9.150
 6256POPC   GL139157  35.349  39.970   8.850
 6256POPC   GL239158  35.413  39.928   8.850
 6256POPC   C1A39159  35.361  39.981   8.550
 6256POPC   D2A39160  35.401  40.024   8.250
 6256POPC   C3A39161  35.313  39.961   7.950
 6256POPC   C4A39162  35.312  39.976   7.650
 6256POPC   C1B39163  35.586  39.900   8.550
 6256POPC   C2B39164  35.538  39.905   8.250
 6256POPC   C3B39165  35.609  39.873   7.950
 6256POPC   C4B39166  35.535  39.874   7.650
 6257POPC   NC339167   1.166  27.553   9.450
 6257POPC   PO439168   1.198  27.583   9.150
 6257POPC   GL139169   1.171  27.564   8.850
 6257POPC   GL239170   1.186  27.700   8.850
 6257POPC   C1A39171   1.229  27.586   8.550
 6257POPC   D2A39172   1.260  27.611   8.250
 6257POPC   C3A39173   1.208  27.591   7.950
 6257POPC   C4A39174   1.229  27.559   7.650
 6257POPC   C1B39175   1.287  27.847   8.550
 6257POPC   C2B39176   1.298  27.805   8.250
 6257POPC   C3B39177   1.272  27.811   7.950
 6257POPC   C4B39178   1.278  27.887   7.650
 6258POPC   NC339179   6.616  43.090   9.450
 6258POPC   PO439180   6.642  43.072   9.150
 6258POPC   GL139181   6.676  43.097   8.850
 6258POPC   GL239182   6.654  43.218   8.850
 6258POPC   C1A39183   6.645  43.114   8.550
 6258POPC   D2A39184   6.675  43.103   8.250
 6258POPC   C3A39185   6.667  43.153   7.950
 6258POPC   C4A39186   6.619  43.129   7.650
 6258POPC   C1B39187   6.554  43.335   8.550
 6258POPC   C2B39188   6.564  43.325   8.250
 6258POPC   C3B39189   6.585  43.389   7.950
 6258POPC   C4B39190   6.546  43.335   7.650
 6259POPC   NC339191  13.671  15.998   9.450
 6259POPC   PO439192  13.593  15.969   9.150
 6259POPC   GL139193  13.621  15.916   8.850
 6259POPC   GL239194  13.486  15.922   8.850
 6259POPC   C1A39195  13.665  15.932   8.550
 6259POPC   D2A39196  13.622  15.988   8.250
 6259POPC   C3A39197  13.625  15.971   7.950
 6259POPC   C4A39198  13.588  15.919   7.650
 6259POPC   C1B39199  13.380  15.970   8.550
 6259POPC   C2B39200  13.378  15.969   8.250
 6259POPC   C3B39201  13.357  15.971   7.950
 6259POPC   C4B39202  13.407  15.936   7.650
 6260POPC   NC339203  15.151   8.168   9.450
 6260POPC   PO439204  15.213   8.151   9.150
 6260POPC   GL139205  15.222   8.205   8.850
 6260POPC   GL239206  15.061   8.245   8.850
 6260POPC   C1A39207  15.191   8.185   8.550
 6260POPC   D2A39208  15.181   8.200   8.250
 6260POPC   C3A39209  15.151   8.244   7.950
 6260POPC   C4A39210  15.188   8.169   7.650
 6260POPC   C1B39211  14.965   8.316   8.550
 6260POPC   C2B39212  14.947   8.285   8.250
 6260POPC   C3B39213  14.966   8.311   7.950
 6260POPC   C4B39214  14.902   8.303   7.650
 6261POPC   NC339215  12.027  10.574   9.450
 6261POPC   PO439216  12.097  10.510   9.150
 6261POPC   GL139217  12.077  10.506   8.850
 6261POPC   GL239218  12.157  10.617   8.850
 6261POPC   C1A39219  12.033  10.485   8.550
 6261POPC   D2A39220  12.053  10.489   8.250
 6261POPC   C3A39221  12.123  10.558   7.950
 6261POPC   C4A39222  12.044  10.538   7.650
 6261POPC   C1B39223  12.290  10.624   8.550
 6261POPC   C2B39224  12.295  10.635   8.250
 6261POPC   C3B39225  12.282  10.696   7.950
 6261POPC   C4B39226  12.326  10.675   7.650
 6262POPC   NC339227  32.237  12.889   9.450
 6262POPC   PO439228  32.287  12.831   9.150
 6262POPC   GL139229  32.241  12.823   8.850
 6262POPC   GL239230  32.323  12.953   8.850
 6262POPC   C1A39231  32.280  12.837   8.550
 6262POPC   D2A39232  32.203  12.891   8.250
 6262POPC   C3A39233  32.221  12.817   7.950
 6262POPC   C4A39234  32.224  12.839   7.650
 6262POPC   C1B39235  32.406  12.979   8.550
 6262POPC   C2B39236  32.462  13.023   8.250
 6262POPC   C3B39237  32.424  13.039   7.950
 6262POPC   C4B39238  32.476  12.990   7.650
 6263POPC   NC339239  16.708  33.790   9.450
 6263POPC   PO439240  16.710  33.790   9.150
 6263POPC   GL139241  16.714  33.808   8.850
 6263POPC   GL239242  16.721  33.686   8.850
 6263POPC   C1A39243  16.726  33.835   8.550
 6263POPC   D2A39244  16.727  33.758   8.250
 6263POPC   C3A39245  16.688  33.785   7.950
 6263POPC   C4A39246  16.696  33.764   7.650
 6263POPC   C1B39247  16.638  33.551   8.550
 6263POPC   C2B39248  16.633  33.575   8.250
 6263POPC   C3B39249  16.633  33.628   7.950
 6263POPC   C4B39250  16.621  33.622   7.650
 6264POPC   NC339251  29.184  23.673   9.450
 6264POPC   PO439252  29.156  23.732   9.150
 6264POPC   GL139253  29.126  23.754   8.850
 6264POPC   GL239254  29.080  23.855   8.850
 6264POPC   C1A39255  29.192  23.671   8.550
 6264POPC   D2A39256  29.157  23.666   8.250
 6264POPC   C3A39257  29.167  23.665   7.950
 6264POPC   C4A39258  29.176  23.757   7.650
 6264POPC   C1B39259  29.069  23.930   8.550
 6264POPC   C2B39260  29.005  23.977   8.250
 6264POPC   C3B39261  29.018  23.992   7.950
 6264POPC   C4B39262  29.024  23.921   7.650
 6265POPC   NC339263  35.362  21.377   9.450
 6265POPC   PO439264  35.327  21.342   9.150
 6265POPC   GL139265  35.373  21.428   8.850
 6265POPC   GL239266  35.358  21.522   8.850
 6265POPC   C1A39267  35.373  21.412   8.550
 6265POPC   D2A39268  35.348  21.374   8.250
 6265POPC   C3A39269  35.345  21.434   7.950
 6265POPC   C4A39270  35.370  21.423   7.650
 6265POPC   C1B39271  35.427  21.670   8.550
 6265POPC   C2B39272  35.427  21.654   8.250
 6265POPC   C3B39273  35.421  21.653   7.950
 6265POPC   C4B39274  35.403  21.650   7.650
 6266POPC   NC339275   4.365  34.533   9.450
 6266POPC   PO439276   4.309  34.562   9.150
 6266POPC   GL139277   4.358  34.533   8.850
 6266POPC   GL239278   4.198  34.639   8.850
 6266POPC   C1A39279   4.300  34.586   8.550
 6266POPC   D2A39280   4.319  34.565   8.250
 6266POPC   C3A39281   4.365  34.572   7.950
 6266POPC   C4A39282   4.272  34.575   7.650
 6266POPC   C1B39283   4.060  34.615   8.550
 6266POPC   C2B39284   4.080  34.640   8.250
 6266POPC   C3B39285   4.122  34.651   7.950
 6266POPC   C4B39286   4.042  34.597   7.650
 6267POPC   NC339287  21.418   5.098   9.450
 6267POPC   PO439288  21.403   5.062   9.150
 6267POPC   GL139289  21.403   5.090   8.850
 6267POPC   GL239290  21.402   5.262   8.850
 6267POPC   C1A39291  21.411   5.133   8.550
 6267POPC   D2A39292  21.399   5.079   8.250
 6267POPC   C3A39293  21.381   5.140   7.950
 6267POPC   C4A39294  21.399   5.047   7.650
 6267POPC   C1B39295  21.375   5.319   8.550
 6267POPC   C2B39296  21.375   5.304   8.250
 6267POPC   C3B39297  21.385   5.338   7.950
 6267POPC   C4B39298  21.373   5.392   7.650
 6268POPC   NC339299  34.598  40.030   9.450
 6268POPC   PO439300  34.527  39.984   9.150
 6268POPC   GL139301  34.605  39.983   8.850
 6268POPC   GL239302  34.422  40.041   8.850
 6268POPC   C1A39303  34.554  40.041   8.550
 6268POPC   D2A39304  34.574  40.035   8.250
 6268POPC   C3A39305  34.579  40.012   7.950
 6268POPC   C4A39306  34.554  40.013   7.650
 6268POPC   C1B39307  34.343  40.055   8.550
 6268POPC   C2B39308  34.317  40.034   8.250
 6268POPC   C3B39309  34.351  40.017   7.950
 6268POPC   C4B39310  34.364  40.011   7.650
 6269POPC   NC339311  29.136  19.064   9.450
 6269POPC   PO439312  29.127  19.051   9.150
 6269POPC   GL139313  29.192  19.058   8.850
 6269POPC   GL239314  29.188  18.950   8.850
 6269POPC   C1A39315  29.119  19.053   8.550
 6269POPC   D2A39316  29.138  19.031   8.250
 6269POPC   C3A39317  29.161  19.108   7.950
 6269POPC   C4A39318  29.149  19.064   7.650
 6269POPC   C1B39319  29.226  18.784   8.550
 6269POPC   C2B39320  29.207  18.856   8.250
 6269POPC   C3B39321  29.182  18.767   7.950
 6269POPC   C4B39322  29.187  18.842   7.650
 6270POPC   NC339323  22.204  12.811   9.450
 6270POPC   PO439324  22.183  12.857   9.150
 6270POPC   GL139325  22.165  12.860   8.850
 6270POPC   GL239326  22.146  12.685   8.850
 6270POPC   C1A39327  22.200  12.884   8.550
 6270POPC   D2A39328  22.164  12.813   8.250
 6270POPC   C3A39329  22.208  12.885   7.950
 6270POPC   C4A39330  22.150  12.849   7.650
 6270POPC   C1B39331  22.196  12.605   8.550
 6270POPC   C2B39332  22.220  12.572   8.250
 6270POPC   C3B39333  22.193  12.566   7.950
 6270POPC   C4B39334  22.171  12.609   7.650
 6271POPC   NC339335  12.802  40.003   9.450
 6271POPC   PO439336  12.885  39.995   9.150
 6271POPC   GL139337  12.852  40.047   8.850
 6271POPC   GL239338  12.760  39.954   8.850
 6271POPC   C1A39339  12.839  40.042   8.550
 6271POPC   D2A39340  12.813  40.001   8.250
 6271POPC   C3A39341  12.860  39.971   7.950
 6271POPC   C4A39342  12.898  39.965   7.650
 6271POPC   C1B39343  12.642  39.926   8.550
 6271POPC   C2B39344  12.653  39.861   8.250
 6271POPC   C3B39345  12.670  39.924   7.950
 6271POPC   C4B39346  12.672  39.907   7.650
 6272POPC   NC339347  12.809  11.280   9.450
 6272POPC   PO439348  12.851  11.326   9.150
 6272POPC   GL139349  12.837  11.324   8.850
 6272POPC   GL239350  12.687  11.234   8.850
 6272POPC   C1A39351  12.874  11.285   8.550
 6272POPC   D2A39352  12.873  11.323   8.250
 6272POPC   C3A39353  12.863  11.264   7.950
 6272POPC   C4A39354  12.881  11.265   7.650
 6272POPC   C1B39355  12.659  11.175   8.550
 6272POPC   C2B39356  12.601  11.251   8.250
 6272POPC   C3B39357  12.610  11.179   7.950
 6272POPC   C4B39358  12.623  11.168   7.650
 6273POPC   NC339359  31.472  22.205   9.450
 6273POPC   PO439360  31.470  22.162   9.150
 6273POPC   GL139361  31.456  22.210   8.850
 6273POPC   GL239362  31.506  22.071   8.850
 6273POPC   C1A39363  31.456  22.121   8.550
 6273POPC   D2A39364  31.488  22.206   8.250
 6273POPC   C3A39365  31.482  22.192   7.950
 6273POPC   C4A39366  31.471  22.161   7.650
 6273POPC   C1B39367  31.578  21.883   8.550
 6273POPC   C2B39368  31.519  21.947   8.250
 6273POPC   C3B39369  31.513  21.946   7.950
 6273POPC   C4B39370  31.523  21.878   7.650
 6274POPC   NC339371  39.965  23.718   9.450
 6274POPC   PO439372  39.969  23.699   9.150
 6274POPC   GL139373  40.012  23.752   8.850
 6274POPC   GL239374  40.094  23.812   8.850
 6274POPC   C1A39375  40.011  23.739   8.550
 6274POPC   D2A39376  40.013  23.762   8.250
 6274POPC   C3A39377  39.998  23.671   7.950
 6274POPC   C4A39378  39.966  23.680   7.650
 6274POPC   C1B39379  40.168  23.898   8.550
 6274POPC   C2B39380  40.218  23.880   8.250
 6274POPC   C3B39381  40.180  23.910   7.950
 6274POPC   C4B39382  40.137  23.886   7.650
 6275POPC   NC339383  26.772  30.727   9.450
 6275POPC   PO439384  26.771  30.686   9.150
 6275POPC   GL139385  26.803  30.680   8.850
 6275POPC   GL239386  26.901  30.673   8.850
 6275POPC   C1A39387  26.843  30.656   8.550
 6275POPC   D2A39388  26.855  30.746   8.250
 6275POPC   C3A39389  26.815  30.726   7.950
 6275POPC   C4A39390  26.822  30.653   7.650
 6275POPC   C1B39391  27.041  30.649   8.550
 6275POPC   C2B39392  27.040  30.573   8.250
 6275POPC   C3B39393  27.040  30.559   7.950
 6275POPC   C4B39394  27.035  30.589   7.650
 6276POPC   NC339395  38.422  36.174   9.450
 6276POPC   PO439396  38.501  36.108   9.150
 6276POPC   GL139397  38.443  36.101   8.850
 6276POPC   GL239398  38.588  36.126   8.850
 6276POPC   C1A39399  38.504  36.137   8.550
 6276POPC   D2A39400  38.407  36.091   8.250
 6276POPC   C3A39401  38.428  36.136   7.950
 6276POPC   C4A39402  38.501  36.078   7.650
 6276POPC   C1B39403  38.661  36.188   8.550
 6276POPC   C2B39404  38.659  36.199   8.250
 6276POPC   C3B39405  38.738  36.171   7.950
 6276POPC   C4B39406  38.691  36.174   7.650
 6277POPC   NC339407  26.020   7.403   9.450
 6277POPC   PO439408  26.060   7.411   9.150
 6277POPC   GL139409  25.998   7.454   8.850
 6277POPC   GL239410  25.987   7.329   8.850
 6277POPC   C1A39411  26.054   7.464   8.550
 6277POPC   D2A39412  26.017   7.450   8.250
 6277POPC   C3A39413  26.054   7.437   7.950
 6277POPC   C4A39414  26.066   7.428   7.650
 6277POPC   C1B39415  25.842   7.264   8.550
 6277POPC   C2B39416  25.801   7.276   8.250
 6277POPC   C3B39417  25.827   7.221   7.950
 6277POPC   C4B39418  25.889   7.213   7.650
 6278POPC   NC339419  22.915  43.876   9.450
 6278POPC   PO439420  22.897  43.877   9.150
 6278POPC   GL139421  22.908  43.879   8.850
 6278POPC   GL239422  22.852  43.978   8.850
 6278POPC   C1A39423  22.945  43.863   8.550
 6278POPC   D2A39424  22.914  43.843   8.250
 6278POPC   C3A39425  22.891  43.902   7.950
 6278POPC   C4A39426  22.941  43.924   7.650
 6278POPC   C1B39427  22.659  43.976   8.550
 6278POPC   C2B39428  22.731  43.997   8.250
 6278POPC   C3B39429  22.696  43.935   7.950
 6278POPC   C4B39430  22.669  44.015   7.650
 6279POPC   NC339431   1.976  24.534   9.450
 6279POPC   PO439432   1.991  24.454   9.150
 6279POPC   GL139433   1.962  24.514   8.850
 6279POPC   GL239434   2.115  24.476   8.850
 6279POPC   C1A39435   2.012  24.535   8.550
 6279POPC   D2A39436   1.950  24.526   8.250
 6279POPC   C3A39437   1.975  24.523   7.950
 6279POPC   C4A39438   1.953  24.511   7.650
 6279POPC   C1B39439   2.244  24.399   8.550
 6279POPC   C2B39440   2.237  24.425   8.250
 6279POPC   C3B39441   2.235  24.451   7.950
 6279POPC   C4B39442   2.251  24.395   7.650
 6280POPC   NC339443   5.871  33.025   9.450
 6280POPC   PO439444   5.871  33.010   9.150
 6280POPC   GL139445   5.907  33.028   8.850
 6280POPC   GL239446   5.723  33.148   8.850
 6280POPC   C1A39447   5.830  32.975   8.550
 6280POPC   D2A39448   5.857  33.056   8.250
 6280POPC   C3A39449   5.910  33.063   7.950
 6280POPC   C4A39450   5.913  33.026   7.650
 6280POPC   C1B39451   5.705  33.192   8.550
 6280POPC   C2B39452   5.674  33.172   8.250
 6280POPC   C3B39453   5.647  33.200   7.950
 6280POPC   C4B39454   5.714  33.180   7.650
 6281POPC   NC339455   5.833   8.191   9.450
 6281POPC   PO439456   5.903   8.184   9.150
 6281POPC   GL139457   5.874   8.155   8.850
 6281POPC   GL239458   5.778   8.199   8.850
 6281POPC   C1A39459   5.877   8.243   8.550
 6281POPC   D2A39460   5.903   8.203   8.250
 6281POPC   C3A39461   5.899   8.232   7.950
 6281POPC   C4A39462   5.904   8.181   7.650
 6281POPC   C1B39463   5.592   8.201   8.550
 6281POPC   C2B39464   5.639   8.141   8.250
 6281POPC   C3B39465   5.636   8.216   7.950
 6281POPC   C4B39466   5.619   8.200   7.650
 6282POPC   NC339467  19.076   5.126   9.450
 6282POPC   PO439468  19.029   5.079   9.150
 6282POPC   GL139469  19.029   5.053   8.850
 6282POPC   GL239470  18.967   4.951   8.850
 6282POPC   C1A39471  19.107   5.103   8.550
 6282POPC   D2A39472  19.076   5.132   8.250
 6282POPC   C3A39473  19.026   5.050   7.950
 6282POPC   C4A39474  19.010   5.123   7.650
 6282POPC   C1B39475  18.980   4.837   8.550
 6282POPC   C2B39476  18.998   4.817   8.250
 6282POPC   C3B39477  18.945   4.860   7.950
 6282POPC   C4B39478  18.954   4.861   7.650
 6283POPC   NC339479  43.919  34.560   9.450
 6283POPC   PO439480  43.929  34.543   9.150
 6283POPC   GL139481  43.917  34.574   8.850
 6283POPC   GL239482  44.054  34.636   8.850
 6283POPC   C1A39483  43.925  34.546   8.550
 6283POPC   D2A39484  43.859  34.598   8.250
 6283POPC   C3A39485  43.904  34.595   7.950
 6283POPC   C4A39486  43.860  34.535   7.650
 6283POPC   C1B39487  44.158  34.646   8.550
 6283POPC   C2B39488  44.158  34.653   8.250
 6283POPC   C3B39489  44.167  34.632   7.950
 6283POPC   C4B39490  44.101  34.644   7.650
 6284POPC   NC339491  19.835  27.625   9.450
 6284POPC   PO439492  19.883  27.618   9.150
 6284POPC   GL139493  19.790  27.584   8.850
 6284POPC   GL239494  19.800  27.438   8.850
 6284POPC   C1A39495  19.812  27.597   8.550
 6284POPC   D2A39496  19.800  27.566   8.250
 6284POPC   C3A39497  19.786  27.604   7.950
 6284POPC   C4A39498  19.862  27.590   7.650
 6284POPC   C1B39499  19.815  27.382   8.550
 6284POPC   C2B39500  19.800  27.306   8.250
 6284POPC   C3B39501  19.755  27.355   7.950
 6284POPC   C4B39502  19.772  27.371   7.650
 6285POPC   NC339503  40.792  25.259   9.450
 6285POPC   PO439504  40.826  25.285   9.150
 6285POPC   GL139505  40.741  25.276   8.850
 6285POPC   GL239506  40.710  25.221   8.850
 6285POPC   C1A39507  40.744  25.297   8.550
 6285POPC   D2A39508  40.766  25.314   8.250
 6285POPC   C3A39509  40.772  25.217   7.950
 6285POPC   C4A39510  40.801  25.285   7.650
 6285POPC   C1B39511  40.550  25.133   8.550
 6285POPC   C2B39512  40.506  25.199   8.250
 6285POPC   C3B39513  40.530  25.185   7.950
 6285POPC   C4B39514  40.521  25.203   7.650
 6286POPC   NC339515   3.515  12.870   9.450
 6286POPC   PO439516   3.533  12.859   9.150
 6286POPC   GL139517   3.522  12.809   8.850
 6286POPC   GL239518   3.505  12.933   8.850
 6286POPC   C1A39519   3.568  12.887   8.550
 6286POPC   D2A39520   3.551  12.802   8.250
 6286POPC   C3A39521   3.492  12.809   7.950
 6286POPC   C4A39522   3.494  12.889   7.650
 6286POPC   C1B39523   3.582  13.052   8.550
 6286POPC   C2B39524   3.602  13.073   8.250
 6286POPC   C3B39525   3.516  13.133   7.950
 6286POPC   C4B39526   3.521  13.074   7.650
 6287POPC   NC339527  36.873  36.870   9.450
 6287POPC   PO439528  36.865  36.943   9.150
 6287POPC   GL139529  36.858  36.871   8.850
 6287POPC   GL239530  36.914  36.771   8.850
 6287POPC   C1A39531  36.875  36.856   8.550
 6287POPC   D2A39532  36.895  36.921   8.250
 6287POPC   C3A39533  36.937  36.934   7.950
 6287POPC   C4A39534  36.924  36.902   7.650
 6287POPC   C1B39535  36.788  36.676   8.550
 6287POPC   C2B39536  36.831  36.624   8.250
 6287POPC   C3B39537  36.806  36.712   7.950
 6287POPC   C4B39538  36.867  36.698   7.650
 6288POPC   NC339539  44.625  12.854   9.450
 6288POPC   PO439540  44.640  12.818   9.150
 6288POPC   GL139541  44.710  12.872   8.850
 6288POPC   GL239542  44.739  12.998   8.850
 6288POPC   C1A39543  44.643  12.852   8.550
 6288POPC   D2A39544  44.644  12.865   8.250
 6288POPC   C3A39545  44.658  12.853   7.950
 6288POPC   C4A39546  44.666  12.857   7.650
 6288POPC   C1B39547  44.818  13.050   8.550
 6288POPC   C2B39548  44.804  13.106   8.250
 6288POPC   C3B39549  44.847  13.063   7.950
 6288POPC   C4B39550  44.797  13.011   7.650
 6289POPC   NC339551  35.382  22.920   9.450
 6289POPC   PO439552  35.302  22.951   9.150
 6289POPC   GL139553  35.340  22.938   8.850
 6289POPC   GL239554  35.518  22.987   8.850
 6289POPC   C1A39555  35.320  22.912   8.550
 6289POPC   D2A39556  35.359  22.941   8.250
 6289POPC   C3A39557  35.302  22.975   7.950
 6289POPC   C4A39558  35.318  22.890   7.650
 6289POPC   C1B39559  35.559  23.028   8.550
 6289POPC   C2B39560  35.612  23.015   8.250
 6289POPC   C3B39561  35.588  22.999   7.950
 6289POPC   C4B39562  35.580  23.065   7.650
 6290POPC   NC339563  39.252  29.107   9.450
 6290POPC   PO439564  39.276  29.168   9.150
 6290POPC   GL139565  39.205  29.189   8.850
 6290POPC   GL239566  39.285  29.049   8.850
 6290POPC   C1A39567  39.186  29.164   8.550
 6290POPC   D2A39568  39.269  29.099   8.250
 6290POPC   C3A39569  39.246  29.144   7.950
 6290POPC   C4A39570  39.228  29.176   7.650
 6290POPC   C1B39571  39.422  28.931   8.550
 6290POPC   C2B39572  39.357  28.979   8.250
 6290POPC   C3B39573  39.375  28.995   7.950
 6290POPC   C4B39574  39.379  28.979   7.650
 6291POPC   NC339575  44.700   4.270   9.450
 6291POPC   PO439576  44.639   4.350   9.150
 6291POPC   GL139577  44.627   4.336   8.850
 6291POPC   GL239578  44.615   4.147   8.850
 6291POPC   C1A39579  44.669   4.356   8.550
 6291POPC   D2A39580  44.709   4.338   8.250
 6291POPC   C3A39581  44.642   4.291   7.950
 6291POPC   C4A39582  44.641   4.365   7.650
 6291POPC   C1B39583  44.646   4.078   8.550
 6291POPC   C2B39584  44.660   4.101   8.250
 6291POPC   C3B39585  44.654   4.114   7.950
 6291POPC   C4B39586  44.661   4.103   7.650
 6292POPC   NC339587  30.720  36.940   9.450
 6292POPC   PO439588  30.743  36.860   9.150
 6292POPC   GL139589  30.722  36.895   8.850
 6292POPC   GL239590  30.856  36.911   8.850
 6292POPC   C1A39591  30.725  36.948   8.550
 6292POPC   D2A39592  30.654  36.893   8.250
 6292POPC   C3A39593  30.742  36.914   7.950
 6292POPC   C4A39594  30.722  36.909   7.650
 6292POPC   C1B39595  30.906  36.845   8.550
 6292POPC   C2B39596  30.925  36.893   8.250
 6292POPC   C3B39597  30.987  36.842   7.950
 6292POPC   C4B39598  30.974  36.823   7.650
 6293POPC   NC339599  27.589   5.065   9.450
 6293POPC   PO439600  27.619   5.104   9.150
 6293POPC   GL139601  27.557   5.065   8.850
 6293POPC   GL239602  27.680   5.111   8.850
 6293POPC   C1A39603  27.559   5.066   8.550
 6293POPC   D2A39604  27.622   5.062   8.250
 6293POPC   C3A39605  27.574   5.075   7.950
 6293POPC   C4A39606  27.553   5.064   7.650
 6293POPC   C1B39607  27.787   5.141   8.550
 6293POPC   C2B39608  27.806   5.143   8.250
 6293POPC   C3B39609  27.841   5.195   7.950
 6293POPC   C4B39610  27.850   5.177   7.650
 6294POPC   NC339611  32.205  13.641   9.450
 6294POPC   PO439612  32.230  13.595   9.150
 6294POPC   GL139613  32.282  13.639   8.850
 6294POPC   GL239614  32.352  13.682   8.850
 6294POPC   C1A39615  32.201  13.646   8.550
 6294POPC   D2A39616  32.240  13.601   8.250
 6294POPC   C3A39617  32.248  13.592   7.950
 6294POPC   C4A39618  32.246  13.612   7.650
 6294POPC   C1B39619  32.450  13.776   8.550
 6294POPC   C2B39620  32.486  13.774   8.250
 6294POPC   C3B39621  32.413  13.777   7.950
 6294POPC   C4B39622  32.410  13.804   7.650
 6295POPC   NC339623  40.009  12.110   9.450
 6295POPC   PO439624  39.987  12.113   9.150
 6295POPC   GL139625  39.964  12.107   8.850
 6295POPC   GL239626  40.132  12.023   8.850
 6295POPC   C1A39627  40.037  12.121   8.550
 6295POPC   D2A39628  39.959  12.034   8.250
 6295POPC   C3A39629  39.962  12.049   7.950
 6295POPC   C4A39630  40.017  12.089   7.650
 6295POPC   C1B39631  40.217  11.959   8.550
 6295POPC   C2B39632  40.264  11.966   8.250
 6295POPC   C3B39633  40.222  11.933   7.950
 6295POPC   C4B39634  40.232  11.965   7.650
 6296POPC   NC339635  34.560  27.544   9.450
 6296POPC   PO439636  34.534  27.623   9.150
 6296POPC   GL139637  34.565  27.577   8.850
 6296POPC   GL239638  34.716  27.526   8.850
 6296POPC   C1A39639  34.542  27.619   8.550
 6296POPC   D2A39640  34.599  27.636   8.250
 6296POPC   C3A39641  34.541  27.631   7.950
 6296POPC   C4A39642  34.601  27.553   7.650
 6296POPC   C1B39643  34.849  27.538   8.550
 6296POPC   C2B39644  34.853  27.542   8.250
 6296POPC   C3B39645  34.852  27.557   7.950
 6296POPC   C4B39646  34.860  27.505   7.650
 6297POPC   NC339647  12.901   8.189   9.450
 6297POPC   PO439648  12.860   8.199   9.150
 6297POPC   GL139649  12.845   8.224   8.850
 6297POPC   GL239650  12.887   8.078   8.850
 6297POPC   C1A39651  12.827   8.229   8.550
 6297POPC   D2A39652  12.826   8.183   8.250
 6297POPC   C3A39653  12.822   8.157   7.950
 6297POPC   C4A39654  12.809   8.186   7.650
 6297POPC   C1B39655  12.973   7.968   8.550
 6297POPC   C2B39656  13.015   8.004   8.250
 6297POPC   C3B39657  12.971   8.011   7.950
 6297POPC   C4B39658  13.039   8.044   7.650
 6298POPC   NC339659  21.411   2.004   9.450
 6298POPC   PO439660  21.343   1.950   9.150
 6298POPC   GL139661  21.406   2.022   8.850
 6298POPC   GL239662  21.444   1.894   8.850
 6298POPC   C1A39663  21.340   1.951   8.550
 6298POPC   D2A39664  21.431   1.953   8.250
 6298POPC   C3A39665  21.398   2.036   7.950
 6298POPC   C4A39666  21.395   1.965   7.650
 6298POPC   C1B39667  21.451   1.778   8.550
 6298POPC   C2B39668  21.436   1.704   8.250
 6298POPC   C3B39669  21.447   1.767   7.950
 6298POPC   C4B39670  21.420   1.786   7.650
 6299POPC   NC339671  15.909  12.084   9.450
 6299POPC   PO439672  16.002  12.110   9.150
 6299POPC   GL139673  15.914  12.026   8.850
 6299POPC   GL239674  15.862  12.201   8.850
 6299POPC   C1A39675  15.906  12.038   8.550
 6299POPC   D2A39676  15.969  12.105   8.250
 6299POPC   C3A39677  16.003  12.058   7.950
 6299POPC   C4A39678  15.969  12.070   7.650
 6299POPC   C1B39679  15.795  12.303   8.550
 6299POPC   C2B39680  15.838  12.256   8.250
 6299POPC   C3B39681  15.825  12.266   7.950
 6299POPC   C4B39682  15.854  12.282   7.650
 6300POPC   NC339683   1.941   1.995   9.450
 6300POPC   PO439684   1.961   2.002   9.150
 6300POPC   GL139685   1.978   2.010   8.850
 6300POPC   GL239686   1.842   2.010   8.850
 6300POPC   C1A39687   1.979   1.972   8.550
 6300POPC   D2A39688   1.987   2.010   8.250
 6300POPC   C3A39689   1.955   2.010   7.950
 6300POPC   C4A39690   1.972   1.943   7.650
 6300POPC   C1B39691   1.757   2.009   8.550
 6300POPC   C2B39692   1.774   1.999   8.250
 6300POPC   C3B39693   1.747   2.026   7.950
 6300POPC   C4B39694   1.758   1.953   7.650
 6301POPC   NC339695  36.861  40.018   9.450
 6301POPC   PO439696  36.929  40.013   9.150
 6301POPC   GL139697  36.948  40.052   8.850
 6301POPC   GL239698  36.816  39.937   8.850
 6301POPC   C1A39699  36.873  39.973   8.550
 6301POPC   D2A39700  36.933  39.962   8.250
 6301POPC   C3A39701  36.882  39.973   7.950
 6301POPC   C4A39702  36.894  39.986   7.650
 6301POPC   C1B39703  36.745  39.777   8.550
 6301POPC   C2B39704  36.715  39.850   8.250
 6301POPC   C3B39705  36.698  39.770   7.950
 6301POPC   C4B39706  36.695  39.822   7.650
 6302POPC   NC339707  42.362  17.548   9.450
 6302POPC   PO439708  42.312  17.500   9.150
 6302POPC   GL139709  42.349  17.503   8.850
 6302POPC   GL239710  42.488  17.468   8.850
 6302POPC   C1A39711  42.355  17.484   8.550
 6302POPC   D2A39712  42.341  17.477   8.250
 6302POPC   C3A39713  42.302  17.533   7.950
 6302POPC   C4A39714  42.296  17.502   7.650
 6302POPC   C1B39715  42.616  17.445   8.550
 6302POPC   C2B39716  42.624  17.465   8.250
 6302POPC   C3B39717  42.576  17.519   7.950
 6302POPC   C4B39718  42.616  17.441   7.650
 6303POPC   NC339719  43.915  15.982   9.450
 6303POPC   PO439720  43.903  15.927   9.150
 6303POPC   GL139721  43.882  15.996   8.850
 6303POPC   GL239722  43.748  16.045   8.850
 6303POPC   C1A39723  43.839  15.989   8.550
 6303POPC   D2A39724  43.862  15.931   8.250
 6303POPC   C3A39725  43.917  15.939   7.950
 6303POPC   C4A39726  43.838  16.003   7.650
 6303POPC   C1B39727  43.657  16.144   8.550
 6303POPC   C2B39728  43.708  16.086   8.250
 6303POPC   C3B39729  43.660  16.071   7.950
 6303POPC   C4B39730  43.650  16.062   7.650
 6304POPC   NC339731   0.472  18.291   9.450
 6304POPC   PO439732   0.442  18.305   9.150
 6304POPC   GL139733   0.408  18.247   8.850
 6304POPC   GL239734   0.368  18.303   8.850
 6304POPC   C1A39735   0.425  18.307   8.550
 6304POPC   D2A39736   0.404  18.241   8.250
 6304POPC   C3A39737   0.389  18.244   7.950
 6304POPC   C4A39738   0.401  18.242   7.650
 6304POPC   C1B39739   0.245  18.391   8.550
 6304POPC   C2B39740   0.220  18.347   8.250
 6304POPC   C3B39741   0.261  18.418   7.950
 6304POPC   C4B39742   0.221  18.399   7.650
 6305POPC   NC339743  43.854  36.953   9.450
 6305POPC   PO439744  43.903  36.875   9.150
 6305POPC   GL139745  43.917  36.900   8.850
 6305POPC   GL239746  43.720  36.936   8.850
 6305POPC   C1A39747  43.928  36.858   8.550
 6305POPC   D2A39748  43.886  36.906   8.250
 6305POPC   C3A39749  43.864  36.862   7.950
 6305POPC   C4A39750  43.860  36.892   7.650
 6305POPC   C1B39751  43.661  36.954   8.550
 6305POPC   C2B39752  43.609  37.008   8.250
 6305POPC   C3B39753  43.670  36.996   7.950
 6305POPC   C4B39754  43.653  36.957   7.650
 6306POPC   NC339755  43.085  18.259   9.450
 6306POPC   PO439756  43.135  18.325   9.150
 6306POPC   GL139757  43.061  18.263   8.850
 6306POPC   GL239758  42.960  18.348   8.850
 6306POPC   C1A39759  43.130  18.238   8.550
 6306POPC   D2A39760  43.113  18.267   8.250
 6306POPC   C3A39761  43.147  18.279   7.950
 6306POPC   C4A39762  43.114  18.235   7.650
 6306POPC   C1B39763  42.849  18.327   8.550
 6306POPC   C2B39764  42.837  18.329   8.250
 6306POPC   C3B39765  42.900  18.395   7.950
 6306POPC   C4B39766  42.850  18.347   7.650
 6307POPC   NC339767   0.419  39.987   9.450
 6307POPC   PO439768   0.457  40.007   9.150
 6307POPC   GL139769   0.421  39.962   8.850
 6307POPC   GL239770   0.399  39.914   8.850
 6307POPC   C1A39771   0.454  40.008   8.550
 6307POPC   D2A39772   0.478  40.027   8.250
 6307POPC   C3A39773   0.408  39.992   7.950
 6307POPC   C4A39774   0.409  40.015   7.650
 6307POPC   C1B39775   0.345  39.821   8.550
 6307POPC   C2B39776   0.309  39.743   8.250
 6307POPC   C3B39777   0.314  39.803   7.950
 6307POPC   C4B39778   0.313  39.806   7.650
 6308POPC   NC339779  13.590  11.302   9.450
 6308POPC   PO439780  13.622  11.327   9.150
 6308POPC   GL139781  13.657  11.288   8.850
 6308POPC   GL239782  13.479  11.208   8.850
 6308POPC   C1A39783  13.578  11.291   8.550
 6308POPC   D2A39784  13.625  11.270   8.250
 6308POPC   C3A39785  13.663  11.255   7.950
 6308POPC   C4A39786  13.609  11.330   7.650
 6308POPC   C1B39787  13.414  11.157   8.550
 6308POPC   C2B39788  13.396  11.216   8.250
 6308POPC   C3B39789  13.407  11.154   7.950
 6308POPC   C4B39790  13.404  11.230   7.650
 6309POPC   NC339791  14.404   2.039   9.450
 6309POPC   PO439792  14.450   1.955   9.150
 6309POPC   GL139793  14.429   1.995   8.850
 6309POPC   GL239794  14.367   2.149   8.850
 6309POPC   C1A39795  14.430   1.950   8.550
 6309POPC   D2A39796  14.446   2.037   8.250
 6309POPC   C3A39797  14.365   1.959   7.950
 6309POPC   C4A39798  14.413   2.022   7.650
 6309POPC   C1B39799  14.257   2.228   8.550
 6309POPC   C2B39800  14.325   2.245   8.250
 6309POPC   C3B39801  14.298   2.226   7.950
 6309POPC   C4B39802  14.252   2.244   7.650
 6310POPC   NC339803  23.751  30.689   9.450
 6310POPC   PO439804  23.707  30.675   9.150
 6310POPC   GL139805  23.701  30.736   8.850
 6310POPC   GL239806  23.579  30.572   8.850
 6310POPC   C1A39807  23.695  30.728   8.550
 6310POPC   D2A39808  23.752  30.671   8.250
 6310POPC   C3A39809  23.741  30.738   7.950
 6310POPC   C4A39810  23.741  30.673   7.650
 6310POPC   C1B39811  23.491  30.584   8.550
 6310POPC   C2B39812  23.501  30.547   8.250
 6310POPC   C3B39813  23.489  30.569   7.950
 6310POPC   C4B39814  23.544  30.568   7.650
 6311POPC   NC339815   9.000  34.610   9.450
 6311POPC   PO439816   8.981  34.567   9.150
 6311POPC   GL139817   9.005  34.620   8.850
 6311POPC   GL239818   8.895  34.466   8.850
 6311POPC   C1A39819   9.014  34.526   8.550
 6311POPC   D2A39820   8.989  34.584   8.250
 6311POPC   C3A39821   8.951  34.623   7.950
 6311POPC   C4A39822   8.999  34.584   7.650
 6311POPC   C1B39823   8.804  34.408   8.550
 6311POPC   C2B39824   8.783  34.399   8.250
 6311POPC   C3B39825   8.877  34.402   7.950
 6311POPC   C4B39826   8.786  34.358   7.650
 6312POPC   NC339827  24.523  40.740   9.450
 6312POPC   PO439828  24.501  40.782   9.150
 6312POPC   GL139829  24.453  40.797   8.850
 6312POPC   GL239830  24.660  40.725   8.850
 6312POPC   C1A39831  24.482  40.740   8.550
 6312POPC   D2A39832  24.472  40.790   8.250
 6312POPC   C3A39833  24.526  40.754   7.950
 6312POPC   C4A39834  24.501  40.786   7.650
 6312POPC   C1B39835  24.777  40.742   8.550
 6312POPC   C2B39836  24.753  40.729   8.250
 6312POPC   C3B39837  24.706  40.678   7.950
 6312POPC   C4B39838  24.719  40.703   7.650
 6313POPC   NC339839  18.247  38.463   9.450
 6313POPC   PO439840  18.327  38.455   9.150
 6313POPC   GL139841  18.249  38.504   8.850
 6313POPC   GL239842  18.270  38.375   8.850
 6313POPC   C1A39843  18.312  38.427   8.550
 6313POPC   D2A39844  18.314  38.478   8.250
 6313POPC   C3A39845  18.282  38.408   7.950
 6313POPC   C4A39846  18.306  38.444   7.650
 6313POPC   C1B39847  18.217  38.212   8.550
 6313POPC   C2B39848  18.228  38.213   8.250
 6313POPC   C3B39849  18.200  38.182   7.950
 6313POPC   C4B39850  18.221  38.257   7.650
 6314POPC   NC339851   9.752  26.071   9.450
 6314POPC   PO439852   9.761  26.035   9.150
 6314POPC   GL139853   9.789  26.024   8.850
 6314POPC   GL239854   9.685  26.129   8.850
 6314POPC   C1A39855   9.793  26.007   8.550
 6314POPC   D2A39856   9.725  26.043   8.250
 6314POPC   C3A39857   9.769  26.076   7.950
 6314POPC   C4A39858   9.719  26.062   7.650
 6314POPC   C1B39859   9.565  26.225   8.550
 6314POPC   C2B39860   9.606  26.224   8.250
 6314POPC   C3B39861   9.543  26.184   7.950
 6314POPC   C4B39862   9.525  26.208   7.650
 6315POPC   NC339863  15.138  27.568   9.450
 6315POPC   PO439864  15.161  27.546   9.150
 6315POPC   GL139865  15.227  27.561   8.850
 6315POPC   GL239866  15.051  27.525   8.850
 6315POPC   C1A39867  15.201  27.600   8.550
 6315POPC   D2A39868  15.195  27.593   8.250
 6315POPC   C3A39869  15.146  27.553   7.950
 6315POPC   C4A39870  15.219  27.618   7.650
 6315POPC   C1B39871  14.961  27.517   8.550
 6315POPC   C2B39872  14.975  27.491   8.250
 6315POPC   C3B39873  14.953  27.556   7.950
 6315POPC   C4B39874  14.980  27.496   7.650
 6316POPC   NC339875   2.740  14.399   9.450
 6316POPC   PO439876   2.766  14.370   9.150
 6316POPC   GL139877   2.721  14.429   8.850
 6316POPC   GL239878   2.696  14.522   8.850
 6316POPC   C1A39879   2.729  14.379   8.550
 6316POPC   D2A39880   2.796  14.448   8.250
 6316POPC   C3A39881   2.790  14.362   7.950
 6316POPC   C4A39882   2.716  14.389   7.650
 6316POPC   C1B39883   2.593  14.639   8.550
 6316POPC   C2B39884   2.596  14.598   8.250
 6316POPC   C3B39885   2.567  14.586   7.950
 6316POPC   C4B39886   2.603  14.577   7.650
 6317POPC   NC339887   9.717  21.420   9.450
 6317POPC   PO439888   9.746  21.356   9.150
 6317POPC   GL139889   9.706  21.418   8.850
 6317POPC   GL239890   9.668  21.434   8.850
 6317POPC   C1A39891   9.728  21.376   8.550
 6317POPC   D2A39892   9.764  21.367   8.250
 6317POPC   C3A39893   9.732  21.403   7.950
 6317POPC   C4A39894   9.788  21.365   7.650
 6317POPC   C1B39895   9.464  21.418   8.550
 6317POPC   C2B39896   9.457  21.465   8.250
 6317POPC   C3B39897   9.508  21.439   7.950
 6317POPC   C4B39898   9.490  21.458   7.650
 6318POPC   NC339899   5.136  37.648   9.450
 6318POPC   PO439900   5.049  37.641   9.150
 6318POPC   GL139901   5.132  37.687   8.850
 6318POPC   GL239902   5.123  37.838   8.850
 6318POPC   C1A39903   5.130  37.682   8.550
 6318POPC   D2A39904   5.082  37.719   8.250
 6318POPC   C3A39905   5.065  37.693   7.950
 6318POPC   C4A39906   5.130  37.647   7.650
 6318POPC   C1B39907   5.197  37.897   8.550
 6318POPC   C2B39908   5.180  37.912   8.250
 6318POPC   C3B39909   5.188  37.942   7.950
 6318POPC   C4B39910   5.150  37.928   7.650
 6319POPC   NC339911  22.187  15.209   9.450
 6319POPC   PO439912  22.148  15.196   9.150
 6319POPC   GL139913  22.136  15.167   8.850
 6319POPC   GL239914  22.036  15.266   8.850
 6319POPC   C1A39915  22.139  15.143   8.550
 6319POPC   D2A39916  22.186  15.219   8.250
 6319POPC   C3A39917  22.131  15.168   7.950
 6319POPC   C4A39918  22.195  15.205   7.650
 6319POPC   C1B39919  21.976  15.293   8.550
 6319POPC   C2B39920  21.910  15.267   8.250
 6319POPC   C3B39921  21.939  15.254   7.950
 6319POPC   C4B39922  21.903  15.312   7.650
 6320POPC   NC339923  31.483   4.306   9.450
 6320POPC   PO439924  31.460   4.333   9.150
 6320POPC   GL139925  31.505   4.362   8.850
 6320POPC   GL239926  31.605   4.314   8.850
 6320POPC   C1A39927  31.520   4.313   8.550
 6320POPC   D2A39928  31.496   4.299   8.250
 6320POPC   C3A39929  31.519   4.300   7.950
 6320POPC   C4A39930  31.445   4.346   7.650
 6320POPC   C1B39931  31.731   4.193   8.550
 6320POPC   C2B39932  31.737   4.220   8.250
 6320POPC   C3B39933  31.742   4.249   7.950
 6320POPC   C4B39934  31.706   4.243   7.650
 6321POPC   NC339935  19.802  20.584   9.450
 6321POPC   PO439936  19.860  20.660   9.150
 6321POPC   GL139937  19.873  20.589   8.850
 6321POPC   GL239938  19.666  20.673   8.850
 6321POPC   C1A39939  19.869  20.573   8.550
 6321POPC   D2A39940  19.872  20.646   8.250
 6321POPC   C3A39941  19.830  20.654   7.950
 6321POPC   C4A39942  19.841  20.603   7.650
 6321POPC   C1B39943  19.611  20.649   8.550
 6321POPC   C2B39944  19.564  20.683   8.250
 6321POPC   C3B39945  19.575  20.660   7.950
 6321POPC   C4B39946  19.554  20.703   7.650
 6322POPC   NC339947  37.699  27.546   9.450
 6322POPC   PO439948  37.637  27.623   9.150
 6322POPC   GL139949  37.707  27.568   8.850
 6322POPC   GL239950  37.579  27.736   8.850
 6322POPC   C1A39951  37.726  27.640   8.550
 6322POPC   D2A39952  37.728  27.567   8.250
 6322POPC   C3A39953  37.695  27.639   7.950
 6322POPC   C4A39954  37.722  27.636   7.650
 6322POPC   C1B39955  37.536  27.834   8.550
 6322POPC   C2B39956  37.557  27.795   8.250
 6322POPC   C3B39957  37.481  27.741   7.950
 6322POPC   C4B39958  37.543  27.787   7.650
 6323POPC   NC339959  35.347  13.665   9.450
 6323POPC   PO439960  35.315  13.641   9.150
 6323POPC   GL139961  35.302  13.661   8.850
 6323POPC   GL239962  35.432  13.558   8.850
 6323POPC   C1A39963  35.387  13.650   8.550
 6323POPC   D2A39964  35.348  13.661   8.250
 6323POPC   C3A39965  35.358  13.631   7.950
 6323POPC   C4A39966  35.373  13.624   7.650
 6323POPC   C1B39967  35.551  13.459   8.550
 6323POPC   C2B39968  35.510  13.477   8.250
 6323POPC   C3B39969  35.514  13.429   7.950
 6323POPC   C4B39970  35.460  13.450   7.650
 6324POPC   NC339971   8.944   2.778   9.450
 6324POPC   PO439972   8.990   2.776   9.150
 6324POPC   GL139973   8.985   2.747   8.850
 6324POPC   GL239974   8.912   2.612   8.850
 6324POPC   C1A39975   8.967   2.727   8.550
 6324POPC   D2A39976   9.012   2.786   8.250
 6324POPC   C3A39977   8.929   2.809   7.950
 6324POPC   C4A39978   8.941   2.739   7.650
 6324POPC   C1B39979   8.908   2.545   8.550
 6324POPC   C2B39980   8.833   2.580   8.250
 6324POPC   C3B39981   8.915   2.501   7.950
 6324POPC   C4B39982   8.872   2.497   7.650
 6325POPC   NC339983   4.327   2.724   9.450
 6325POPC   PO439984   4.281   2.809   9.150
 6325POPC   GL139985   4.344   2.757   8.850
 6325POPC   GL239986   4.209   2.734   8.850
 6325POPC   C1A39987   4.268   2.746   8.550
 6325POPC   D2A39988   4.341   2.762   8.250
 6325POPC   C3A39989   4.284   2.804   7.950
 6325POPC   C4A39990   4.287   2.791   7.650
 6325POPC   C1B39991   4.074   2.659   8.550
 6325POPC   C2B39992   4.094   2.613   8.250
 6325POPC   C3B39993   4.120   2.610   7.950
 6325POPC   C4B39994   4.127   2.581   7.650
 6326POPC   NC339995   4.308  22.211   9.450
 6326POPC   PO439996   4.319  22.169   9.150
 6326POPC   GL139997   4.286  22.200   8.850
 6326POPC   GL239998   4.398  22.178   8.850
 6326POPC   C1A39999   4.307  22.159   8.550
 6326POPC   D2A40000   4.318  22.139   8.250
 6326POPC   C3A40001   4.280  22.209   7.950
 6326POPC   C4A40002   4.312  22.124   7.650
 6326POPC   C1B40003   4.601  22.107   8.550
 6326POPC   C2B40004   4.564  22.183   8.250
 6326POPC   C3B40005   4.577  22.181   7.950
 6326POPC   C4B40006   4.540  22.190   7.650
 6327POPC   NC340007  28.392   5.055   9.450
 6327POPC   PO440008  28.360   5.047   9.150
 6327POPC   GL140009  28.363   5.067   8.850
 6327POPC   GL240010  28.373   5.008   8.850
 6327POPC   C1A40011  28.375   5.064   8.550
 6327POPC   D2A40012  28.384   5.064   8.250
 6327POPC   C3A40013  28.388   5.080   7.950
 6327POPC   C4A40014  28.407   5.076   7.650
 6327POPC   C1B40015  28.315   4.817   8.550
 6327POPC   C2B40016  28.360   4.820   8.250
 6327POPC   C3B40017  28.325   4.817   7.950
 6327POPC   C4B40018  28.335   4.847   7.650
 6328POPC   NC340019  15.996   4.316   9.450
 6328POPC   PO440020  15.977   4.330   9.150
 6328POPC   GL140021  15.986   4.341   8.850
 6328POPC   GL240022  15.867   4.395   8.850
 6328POPC   C1A40023  15.952   4.362   8.550
 6328POPC   D2A40024  15.920   4.315   8.250
 6328POPC   C3A40025  15.927   4.329   7.950
 6328POPC   C4A40026  15.991   4.359   7.650
 6328POPC   C1B40027  15.844   4.557   8.550
 6328POPC   C2B40028  15.781   4.554   8.250
 6328POPC   C3B40029  15.791   4.493   7.950
 6328POPC   C4B40030  15.850   4.509   7.650
 6329POPC   NC340031  39.256  42.344   9.450
 6329POPC   PO440032  39.233  42.292   9.150
 6329POPC   GL140033  39.201  42.340   8.850
 6329POPC   GL240034  39.159  42.417   8.850
 6329POPC   C1A40035  39.236  42.291   8.550
 6329POPC   D2A40036  39.219  42.312   8.250
 6329POPC   C3A40037  39.212  42.383   7.950
 6329POPC   C4A40038  39.221  42.307   7.650
 6329POPC   C1B40039  39.068  42.565   8.550
 6329POPC   C2B40040  39.083  42.538   8.250
 6329POPC   C3B40041  39.071  42.503   7.950
 6329POPC   C4B40042  39.113  42.532   7.650
 6330POPC   NC340043  10.480   3.574   9.450
 6330POPC   PO440044  10.543   3.550   9.150
 6330POPC   GL140045  10.525   3.492   8.850
 6330POPC   GL240046  10.452   3.420   8.850
 6330POPC   C1A40047  10.479   3.545   8.550
 6330POPC   D2A40048  10.557   3.517   8.250
 6330POPC   C3A40049  10.565   3.571   7.950
 6330POPC   C4A40050  10.502   3.550   7.650
 6330POPC   C1B40051  10.465   3.256   8.550
 6330POPC   C2B40052  10.509   3.334   8.250
 6330POPC   C3B40053  10.437   3.278   7.950
 6330POPC   C4B40054  10.448   3.318   7.650
 6331POPC   NC340055  43.086  39.979   9.450
 6331POPC   PO440056  43.110  39.969   9.150
 6331POPC   GL140057  43.087  40.013   8.850
 6331POPC   GL240058  42.999  39.900   8.850
 6331POPC   C1A40059  43.068  40.020   8.550
 6331POPC   D2A40060  43.135  40.052   8.250
 6331POPC   C3A40061  43.065  40.034   7.950
 6331POPC   C4A40062  43.146  40.054   7.650
 6331POPC   C1B40063  42.903  39.890   8.550
 6331POPC   C2B40064  42.907  39.875   8.250
 6331POPC   C3B40065  42.880  39.863   7.950
 6331POPC   C4B40066  42.951  39.857   7.650
 6332POPC   NC340067  15.976  28.382   9.450
 6332POPC   PO440068  15.924  28.358   9.150
 6332POPC   GL140069  15.955  28.399   8.850
 6332POPC   GL240070  16.058  28.363   8.850
 6332POPC   C1A40071  16.002  28.411   8.550
 6332POPC   D2A40072  15.949  28.335   8.250
 6332POPC   C3A40073  15.912  28.380   7.950
 6332POPC   C4A40074  15.946  28.343   7.650
 6332POPC   C1B40075  16.183  28.295   8.550
 6332POPC   C2B40076  16.173  28.332   8.250
 6332POPC   C3B40077  16.240  28.351   7.950
 6332POPC   C4B40078  16.187  28.272   7.650
 6333POPC   NC340079  28.325  26.003   9.450
 6333POPC   PO440080  28.402  26.088   9.150
 6333POPC   GL140081  28.371  26.053   8.850
 6333POPC   GL240082  28.396  26.150   8.850
 6333POPC   C1A40083  28.332  26.085   8.550
 6333POPC   D2A40084  28.320  26.035   8.250
 6333POPC   C3A40085  28.372  26.042   7.950
 6333POPC   C4A40086  28.366  26.089   7.650
 6333POPC   C1B40087  28.428  26.223   8.550
 6333POPC   C2B40088  28.485  26.264   8.250
 6333POPC   C3B40089  28.456  26.317   7.950
 6333POPC   C4B40090  28.492  26.286   7.650
 6334POPC   NC340091  18.281  33.813   9.450
 6334POPC   PO440092  18.297  33.810   9.150
 6334POPC   GL140093  18.325  33.843   8.850
 6334POPC   GL240094  18.455  33.801   8.850
 6334POPC   C1A40095  18.240  33.778   8.550
 6334POPC   D2A40096  18.332  33.812   8.250
 6334POPC   C3A40097  18.331  33.774   7.950
 6334POPC   C4A40098  18.304  33.837   7.650
 6334POPC   C1B40099  18.516  33.753   8.550
 6334POPC   C2B40100  18.492  33.815   8.250
 6334POPC   C3B40101  18.578  33.823   7.950
 6334POPC   C4B40102  18.528  33.781   7.650
 6335POPC   NC340103  42.346  43.861   9.450
 6335POPC   PO440104  42.337  43.896   9.150
 6335POPC   GL140105  42.344  43.896   8.850
 6335POPC   GL240106  42.344  43.779   8.850
 6335POPC   C1A40107  42.382  43.863   8.550
 6335POPC   D2A40108  42.313  43.919   8.250
 6335POPC   C3A40109  42.332  43.892   7.950
 6335POPC   C4A40110  42.353  43.887   7.650
 6335POPC   C1B40111  42.362  43.646   8.550
 6335POPC   C2B40112  42.420  43.621   8.250
 6335POPC   C3B40113  42.396  43.642   7.950
 6335POPC   C4B40114  42.323  43.659   7.650
 6336POPC   NC340115  27.547  38.461   9.450
 6336POPC   PO440116  27.570  38.459   9.150
 6336POPC   GL140117  27.598  38.420   8.850
 6336POPC   GL240118  27.489  38.333   8.850
 6336POPC   C1A40119  27.599  38.418   8.550
 6336POPC   D2A40120  27.610  38.447   8.250
 6336POPC   C3A40121  27.563  38.409   7.950
 6336POPC   C4A40122  27.571  38.461   7.650
 6336POPC   C1B40123  27.500  38.278   8.550
 6336POPC   C2B40124  27.438  38.243   8.250
 6336POPC   C3B40125  27.426  38.274   7.950
 6336POPC   C4B40126  27.509  38.283   7.650
 6337POPC   NC340127  26.009  19.842   9.450
 6337POPC   PO440128  26.076  19.838   9.150
 6337POPC   GL140129  26.075  19.813   8.850
 6337POPC   GL240130  25.969  19.778   8.850
 6337POPC   C1A40131  26.011  19.850   8.550
 6337POPC   D2A40132  26.015  19.811   8.250
 6337POPC   C3A40133  26.010  19.839   7.950
 6337POPC   C4A40134  26.062  19.872   7.650
 6337POPC   C1B40135  25.784  19.705   8.550
 6337POPC   C2B40136  25.817  19.764   8.250
 6337POPC   C3B40137  25.806  19.739   7.950
 6337POPC   C4B40138  25.766  19.743   7.650
 6338POPC   NC340139   1.168  33.771   9.450
 6338POPC   PO440140   1.210  33.809   9.150
 6338POPC   GL140141   1.172  33.845   8.850
 6338POPC   GL240142   1.286  33.721   8.850
 6338POPC   C1A40143   1.208  33.836   8.550
 6338POPC   D2A40144   1.205  33.753   8.250
 6338POPC   C3A40145   1.170  33.793   7.950
 6338POPC   C4A40146   1.219  33.761   7.650
 6338POPC   C1B40147   1.408  33.728   8.550
 6338POPC   C2B40148   1.398  33.697   8.250
 6338POPC   C3B40149   1.439  33.710   7.950
 6338POPC   C4B40150   1.476  33.678   7.650
 6339POPC   NC340151  22.136   7.415   9.450
 6339POPC   PO440152  22.188   7.442   9.150
 6339POPC   GL140153  22.170   7.448   8.850
 6339POPC   GL240154  22.132   7.517   8.850
 6339POPC   C1A40155  22.140   7.387   8.550
 6339POPC   D2A40156  22.168   7.434   8.250
 6339POPC   C3A40157  22.186   7.395   7.950
 6339POPC   C4A40158  22.167   7.438   7.650
 6339POPC   C1B40159  22.221   7.626   8.550
 6339POPC   C2B40160  22.167   7.720   8.250
 6339POPC   C3B40161  22.138   7.640   7.950
 6339POPC   C4B40162  22.152   7.719   7.650
 6340POPC   NC340163  42.360  16.741   9.450
 6340POPC   PO440164  42.381  16.691   9.150
 6340POPC   GL140165  42.341  16.727   8.850
 6340POPC   GL240166  42.227  16.701   8.850
 6340POPC   C1A40167  42.372  16.681   8.550
 6340POPC   D2A40168  42.306  16.710   8.250
 6340POPC   C3A40169  42.356  16.714   7.950
 6340POPC   C4A40170  42.334  16.766   7.650
 6340POPC   C1B40171  42.146  16.604   8.550
 6340POPC   C2B40172  42.118  16.615   8.250
 6340POPC   C3B40173  42.098  16.630   7.950
 6340POPC   C4B40174  42.095  16.604   7.650
 6341POPC   NC340175  26.816   7.438   9.450
 6341POPC   PO440176  26.844   7.377   9.150
 6341POPC   GL140177  26.830   7.398   8.850
 6341POPC   GL240178  26.715   7.337   8.850
 6341POPC   C1A40179  26.822   7.406   8.550
 6341POPC   D2A40180  26.786   7.451   8.250
 6341POPC   C3A40181  26.774   7.418   7.950
 6341POPC   C4A40182  26.824   7.456   7.650
 6341POPC   C1B40183  26.629   7.236   8.550
 6341POPC   C2B40184  26.674   7.220   8.250
 6341POPC   C3B40185  26.636   7.260   7.950
 6341POPC   C4B40186  26.690   7.205   7.650
 6342POPC   NC340187  30.698  28.328   9.450
 6342POPC   PO440188  30.710  28.342   9.150
 6342POPC   GL140189  30.676  28.386   8.850
 6342POPC   GL240190  30.864  28.293   8.850
 6342POPC   C1A40191  30.682  28.331   8.550
 6342POPC   D2A40192  30.733  28.327   8.250
 6342POPC   C3A40193  30.688  28.354   7.950
 6342POPC   C4A40194  30.717  28.351   7.650
 6342POPC   C1B40195  30.954  28.262   8.550
 6342POPC   C2B40196  30.886  28.295   8.250
 6342POPC   C3B40197  30.896  28.284   7.950
 6342POPC   C4B40198  30.967  28.245   7.650
 6343POPC   NC340199  37.664   1.254   9.450
 6343POPC   PO440200  37.691   1.214   9.150
 6343POPC   GL140201  37.687   1.230   8.850
 6343POPC   GL240202  37.812   1.225   8.850
 6343POPC   C1A40203  37.669   1.209   8.550
 6343POPC   D2A40204  37.706   1.197   8.250
 6343POPC   C3A40205  37.691   1.206   7.950
 6343POPC   C4A40206  37.725   1.261   7.650
 6343POPC   C1B40207  37.946   1.320   8.550
 6343POPC   C2B40208  37.871   1.307   8.250
 6343POPC   C3B40209  37.942   1.299   7.950
 6343POPC   C4B40210  37.873   1.322   7.650
 6344POPC   NC340211  26.043   8.154   9.450
 6344POPC   PO440212  26.012   8.218   9.150
 6344POPC   GL140213  26.045   8.165   8.850
 6344POPC   GL240214  26.150   8.253   8.850
 6344POPC   C1A40215  25.994   8.243   8.550
 6344POPC   D2A40216  26.054   8.158   8.250
 6344POPC   C3A40217  26.017   8.202   7.950
 6344POPC   C4A40218  26.045   8.220   7.650
 6344POPC   C1B40219  26.252   8.224   8.550
 6344POPC   C2B40220  26.252   8.270   8.250
 6344POPC   C3B40221  26.284   8.262   7.950
 6344POPC   C4B40222  26.337   8.198   7.650
 6345POPC   NC340223  19.877  15.160   9.450
 6345POPC   PO440224  19.813  15.185   9.150
 6345POPC   GL140225  19.804  15.193   8.850
 6345POPC   GL240226  19.882  15.108   8.850
 6345POPC   C1A40227  19.799  15.222   8.550
 6345POPC   D2A40228  19.785  15.149   8.250
 6345POPC   C3A40229  19.852  15.145   7.950
 6345POPC   C4A40230  19.797  15.202   7.650
 6345POPC   C1B40231  19.979  14.950   8.550
 6345POPC   C2B40232  19.983  15.011   8.250
 6345POPC   C3B40233  20.032  15.005   7.950
 6345POPC   C4B40234  19.991  14.975   7.650
 6346POPC   NC340235  43.104  12.098   9.450
 6346POPC   PO440236  43.096  12.065   9.150
 6346POPC   GL140237  43.112  12.042   8.850
 6346POPC   GL240238  43.144  12.003   8.850
 6346POPC   C1A40239  43.089  12.070   8.550
 6346POPC   D2A40240  43.080  12.101   8.250
 6346POPC   C3A40241  43.118  12.053   7.950
 6346POPC   C4A40242  43.063  12.079   7.650
 6346POPC   C1B40243  43.187  11.864   8.550
 6346POPC   C2B40244  43.206  11.880   8.250
 6346POPC   C3B40245  43.229  11.867   7.950
 6346POPC   C4B40246  43.193  11.826   7.650
 6347POPC   NC340247  35.321  17.513   9.450
 6347POPC   PO440248  35.393  17.519   9.150
 6347POPC   GL140249  35.356  17.500   8.850
 6347POPC   GL240250  35.379  17.358   8.850
 6347POPC   C1A40251  35.348  17.538   8.550
 6347POPC   D2A40252  35.328  17.499   8.250
 6347POPC   C3A40253  35.351  17.523   7.950
 6347POPC   C4A40254  35.330  17.502   7.650
 6347POPC   C1B40255  35.402  17.283   8.550
 6347POPC   C2B40256  35.380  17.290   8.250
 6347POPC   C3B40257  35.349  17.245   7.950
 6347POPC   C4B40258  35.328  17.236   7.650
 6348POPC   NC340259  34.618  38.479   9.450
 6348POPC   PO440260  34.620  38.458   9.150
 6348POPC   GL140261  34.580  38.475   8.850
 6348POPC   GL240262  34.436  38.454   8.850
 6348POPC   C1A40263  34.622  38.493   8.550
 6348POPC   D2A40264  34.581  38.411   8.250
 6348POPC   C3A40265  34.584  38.503   7.950
 6348POPC   C4A40266  34.570  38.407   7.650
 6348POPC   C1B40267  34.377  38.385   8.550
 6348POPC   C2B40268  34.324  38.412   8.250
 6348POPC   C3B40269  34.356  38.374   7.950
 6348POPC   C4B40270  34.380  38.338   7.650
 6349POPC   NC340271   5.833  37.709   9.450
 6349POPC   PO440272   5.898  37.669   9.150
 6349POPC   GL140273   5.872  37.681   8.850
 6349POPC   GL240274   5.894  37.538   8.850
 6349POPC   C1A40275   5.869  37.669   8.550
 6349POPC   D2A40276   5.909  37.630   8.250
 6349POPC   C3A40277   5.891  37.697   7.950
 6349POPC   C4A40278   5.869  37.664   7.650
 6349POPC   C1B40279   5.857  37.417   8.550
 6349POPC   C2B40280   5.835  37.467   8.250
 6349POPC   C3B40281   5.837  37.429   7.950
 6349POPC   C4B40282   5.915  37.407   7.650
 6350POPC   NC340283  19.873  26.024   9.450
 6350POPC   PO440284  19.866  25.994   9.150
 6350POPC   GL140285  19.827  26.070   8.850
 6350POPC   GL240286  19.772  25.941   8.850
 6350POPC   C1A40287  19.796  26.031   8.550
 6350POPC   D2A40288  19.795  26.050   8.250
 6350POPC   C3A40289  19.875  26.002   7.950
 6350POPC   C4A40290  19.829  26.024   7.650
 6350POPC   C1B40291  19.795  25.823   8.550
 6350POPC   C2B40292  19.820  25.786   8.250
 6350POPC   C3B40293  19.761  25.773   7.950
 6350POPC   C4B40294  19.787  25.751   7.650
 6351POPC   NC340295  19.054   4.286   9.450
 6351POPC   PO440296  19.057   4.304   9.150
 6351POPC   GL140297  19.070   4.360   8.850
 6351POPC   GL240298  18.932   4.443   8.850
 6351POPC   C1A40299  19.066   4.293   8.550
 6351POPC   D2A40300  19.067   4.326   8.250
 6351POPC   C3A40301  19.015   4.318   7.950
 6351POPC   C4A40302  19.051   4.344   7.650
 6351POPC   C1B40303  18.866   4.538   8.550
 6351POPC   C2B40304  18.893   4.476   8.250
 6351POPC   C3B40305  18.915   4.497   7.950
 6351POPC   C4B40306  18.926   4.489   7.650
 6352POPC   NC340307  22.181  21.377   9.450
 6352POPC   PO440308  22.203  21.400   9.150
 6352POPC   GL140309  22.135  21.364   8.850
 6352POPC   GL240310  22.143  21.281   8.850
 6352POPC   C1A40311  22.192  21.381   8.550
 6352POPC   D2A40312  22.211  21.404   8.250
 6352POPC   C3A40313  22.174  21.359   7.950
 6352POPC   C4A40314  22.161  21.364   7.650
 6352POPC   C1B40315  22.075  21.136   8.550
 6352POPC   C2B40316  22.076  21.170   8.250
 6352POPC   C3B40317  22.020  21.201   7.950
 6352POPC   C4B40318  22.034  21.197   7.650
 6353POPC   NC340319   1.971  34.582   9.450
 6353POPC   PO440320   1.993  34.591   9.150
 6353POPC   GL140321   2.020  34.561   8.850
 6353POPC   GL240322   1.897  34.485   8.850
 6353POPC   C1A40323   1.995  34.534   8.550
 6353POPC   D2A40324   1.999  34.573   8.250
 6353POPC   C3A40325   2.003  34.608   7.950
 6353POPC   C4A40326   1.973  34.556   7.650
 6353POPC   C1B40327   1.750  34.418   8.550
 6353POPC   C2B40328   1.744  34.441   8.250
 6353POPC   C3B40329   1.767  34.451   7.950
 6353POPC   C4B40330   1.721  34.509   7.650
 6354POPC   NC340331  44.696  29.965   9.450
 6354POPC   PO440332  44.687  29.969   9.150
 6354POPC   GL140333  44.699  29.910   8.850
 6354POPC   GL240334  44.763  29.983   8.850
 6354POPC   C1A40335  44.692  29.958   8.550
 6354POPC   D2A40336  44.642  29.966   8.250
 6354POPC   C3A40337  44.712  29.905   7.950
 6354POPC   C4A40338  44.660  29.956   7.650
 6354POPC   C1B40339  44.834  30.109   8.550
 6354POPC   C2B40340  44.758  30.140   8.250
 6354POPC   C3B40341  44.795  30.168   7.950
 6354POPC   C4B40342  44.786  30.076   7.650
 6355POPC   NC340343  33.764  37.701   9.450
 6355POPC   PO440344  33.808  37.641   9.150
 6355POPC   GL140345  33.799  37.718   8.850
 6355POPC   GL240346  33.763  37.837   8.850
 6355POPC   C1A40347  33.803  37.659   8.550
 6355POPC   D2A40348  33.774  37.701   8.250
 6355POPC   C3A40349  33.750  37.671   7.950
 6355POPC   C4A40350  33.809  37.714   7.650
 6355POPC   C1B40351  33.695  37.956   8.550
 6355POPC   C2B40352  33.693  37.938   8.250
 6355POPC   C3B40353  33.754  37.901   7.950
 6355POPC   C4B40354  33.705  37.966   7.650
 6356POPC   NC340355  22.144  12.043   9.450
 6356POPC   PO440356  22.113  12.090   9.150
 6356POPC   GL140357  22.138  12.080   8.850
 6356POPC   GL240358  22.147  11.968   8.850
 6356POPC   C1A40359  22.149  12.092   8.550
 6356POPC   D2A40360  22.184  12.044   8.250
 6356POPC   C3A40361  22.140  12.033   7.950
 6356POPC   C4A40362  22.146  12.100   7.650
 6356POPC   C1B40363  22.221  11.852   8.550
 6356POPC   C2B40364  22.196  11.826   8.250
 6356POPC   C3B40365  22.185  11.796   7.950
 6356POPC   C4B40366  22.218  11.793   7.650
 6357POPC   NC340367  12.893  23.692   9.450
 6357POPC   PO440368  12.880  23.706   9.150
 6357POPC   GL140369  12.841  23.724   8.850
 6357POPC   GL240370  12.992  23.764   8.850
 6357POPC   C1A40371  12.860  23.753   8.550
 6357POPC   D2A40372  12.895  23.715   8.250
 6357POPC   C3A40373  12.870  23.755   7.950
 6357POPC   C4A40374  12.863  23.693   7.650
 6357POPC   C1B40375  13.022  23.830   8.550
 6357POPC   C2B40376  13.041  23.821   8.250
 6357POPC   C3B40377  13.046  23.811   7.950
 6357POPC   C4B40378  13.030  23.854   7.650
 6358POPC   NC340379  42.361   5.829   9.450
 6358POPC   PO440380  42.375   5.839   9.150
 6358POPC   GL140381  42.286   5.823   8.850
 6358POPC   GL240382  42.468   5.992   8.850
 6358POPC   C1A40383  42.328   5.902   8.550
 6358POPC   D2A40384  42.343   5.883   8.250
 6358POPC   C3A40385  42.363   5.877   7.950
 6358POPC   C4A40386  42.310   5.895   7.650
 6358POPC   C1B40387  42.521   5.985   8.550
 6358POPC   C2B40388  42.518   6.033   8.250
 6358POPC   C3B40389  42.492   6.032   7.950
 6358POPC   C4B40390  42.520   5.985   7.650
 6359POPC   NC340391  10.505  12.820   9.450
 6359POPC   PO440392  10.502  12.887   9.150
 6359POPC   GL140393  10.509  12.807   8.850
 6359POPC   GL240394  10.459  12.812   8.850
 6359POPC   C1A40395  10.501  12.835   8.550
 6359POPC   D2A40396  10.498  12.849   8.250
 6359POPC   C3A40397  10.494  12.884   7.950
 6359POPC   C4A40398  10.561  12.864   7.650
 6359POPC   C1B40399  10.371  12.716   8.550
 6359POPC   C2B40400  10.330  12.707   8.250
 6359POPC   C3B40401  10.289  12.713   7.950
 6359POPC   C4B40402  10.349  12.710   7.650
 6360POPC   NC340403   8.984  43.923   9.450
 6360POPC   PO440404   8.970  43.925   9.150
 6360POPC   GL140405   9.021  43.891   8.850
 6360POPC   GL240406   9.036  44.013   8.850
 6360POPC   C1A40407   8.975  43.859   8.550
 6360POPC   D2A40408   8.957  43.897   8.250
 6360POPC   C3A40409   8.955  43.925   7.950
 6360POPC   C4A40410   8.978  43.890   7.650
 6360POPC   C1B40411   9.121  44.058   8.550
 6360POPC   C2B40412   9.149  44.037   8.250
 6360POPC   C3B40413   9.180  44.069   7.950
 6360POPC   C4B40414   9.186  44.124   7.650
 6361POPC   NC340415  12.072  14.374   9.450
 6361POPC   PO440416  12.054  14.430   9.150
 6361POPC   GL140417  12.092  14.375   8.850
 6361POPC   GL240418  12.186  14.293   8.850
 6361POPC   C1A40419  12.055  14.368   8.550
 6361POPC   D2A40420  12.040  14.420   8.250
 6361POPC   C3A40421  12.094  14.401   7.950
 6361POPC   C4A40422  12.090  14.389   7.650
 6361POPC   C1B40423  12.296  14.241   8.550
 6361POPC   C2B40424  12.265  14.234   8.250
 6361POPC   C3B40425  12.254  14.266   7.950
 6361POPC   C4B40426  12.223  14.238   7.650
 6362POPC   NC340427  29.172   2.017   9.450
 6362POPC   PO440428  29.146   2.017   9.150
 6362POPC   GL140429  29.187   1.965   8.850
 6362POPC   GL240430  29.087   2.102   8.850
 6362POPC   C1A40431  29.156   1.953   8.550
 6362POPC   D2A40432  29.190   1.994   8.250
 6362POPC   C3A40433  29.108   1.962   7.950
 6362POPC   C4A40434  29.101   1.958   7.650
 6362POPC   C1B40435  28.942   2.181   8.550
 6362POPC   C2B40436  28.969   2.160   8.250
 6362POPC   C3B40437  28.937   2.122   7.950
 6362POPC   C4B40438  29.011   2.197   7.650
 6363POPC   NC340439  42.313   9.750   9.450
 6363POPC   PO440440  42.297   9.769   9.150
 6363POPC   GL140441  42.332   9.768   8.850
 6363POPC   GL240442  42.371   9.663   8.850
 6363POPC   C1A40443  42.364   9.739   8.550
 6363POPC   D2A40444  42.376   9.717   8.250
 6363POPC   C3A40445  42.352   9.736   7.950
 6363POPC   C4A40446  42.347   9.764   7.650
 6363POPC   C1B40447  42.487   9.566   8.550
 6363POPC   C2B40448  42.511   9.557   8.250
 6363POPC   C3B40449  42.505   9.577   7.950
 6363POPC   C4B40450  42.484   9.560   7.650
 6364POPC   NC340451   7.417   1.940   9.450
 6364POPC   PO440452   7.406   2.029   9.150
 6364POPC   GL140453   7.437   1.975   8.850
 6364POPC   GL240454   7.480   1.834   8.850
 6364POPC   C1A40455   7.435   1.984   8.550
 6364POPC   D2A40456   7.467   2.033   8.250
 6364POPC   C3A40457   7.461   1.961   7.950
 6364POPC   C4A40458   7.420   1.980   7.650
 6364POPC   C1B40459   7.541   1.715   8.550
 6364POPC   C2B40460   7.468   1.780   8.250
 6364POPC   C3B40461   7.467   1.789   7.950
 6364POPC   C4B40462   7.544   1.775   7.650
 6365POPC   NC340463  21.365  26.807   9.450
 6365POPC   PO440464  21.386  26.829   9.150
 6365POPC   GL140465  21.346  26.817   8.850
 6365POPC   GL240466  21.393  26.947   8.850
 6365POPC   C1A40467  21.426  26.860   8.550
 6365POPC   D2A40468  21.409  26.774   8.250
 6365POPC   C3A40469  21.371  26.836   7.950
 6365POPC   C4A40470  21.347  26.845   7.650
 6365POPC   C1B40471  21.319  27.016   8.550
 6365POPC   C2B40472  21.279  27.052   8.250
 6365POPC   C3B40473  21.338  27.005   7.950
 6365POPC   C4B40474  21.261  27.080   7.650
 6366POPC   NC340475  31.423  13.653   9.450
 6366POPC   PO440476  31.479  13.579   9.150
 6366POPC   GL140477  31.432  13.640   8.850
 6366POPC   GL240478  31.411  13.769   8.850
 6366POPC   C1A40479  31.470  13.607   8.550
 6366POPC   D2A40480  31.512  13.608   8.250
 6366POPC   C3A40481  31.498  13.610   7.950
 6366POPC   C4A40482  31.522  13.584   7.650
 6366POPC   C1B40483  31.339  13.869   8.550
 6366POPC   C2B40484  31.301  13.826   8.250
 6366POPC   C3B40485  31.346  13.855   7.950
 6366POPC   C4B40486  31.282  13.782   7.650
 6367POPC   NC340487  44.708  33.053   9.450
 6367POPC   PO440488  44.632  33.042   9.150
 6367POPC   GL140489  44.700  33.007   8.850
 6367POPC   GL240490  44.626  33.103   8.850
 6367POPC   C1A40491  44.619  32.988   8.550
 6367POPC   D2A40492  44.684  33.070   8.250
 6367POPC   C3A40493  44.691  33.020   7.950
 6367POPC   C4A40494  44.627  33.030   7.650
 6367POPC   C1B40495  44.601  33.277   8.550
 6367POPC   C2B40496  44.534  33.300   8.250
 6367POPC   C3B40497  44.575  33.246   7.950
 6367POPC   C4B40498  44.578  33.235   7.650
 6368POPC   NC340499  36.947  38.431   9.450
 6368POPC   PO440500  36.904  38.480   9.150
 6368POPC   GL140501  36.926  38.456   8.850
 6368POPC   GL240502  36.764  38.468   8.850
 6368POPC   C1A40503  36.953  38.444   8.550
 6368POPC   D2A40504  36.919  38.487   8.250
 6368POPC   C3A40505  36.948  38.473   7.950
 6368POPC   C4A40506  36.857  38.454   7.650
 6368POPC   C1B40507  36.627  38.453   8.550
 6368POPC   C2B40508  36.624  38.388   8.250
 6368POPC   C3B40509  36.605  38.441   7.950
 6368POPC   C4B40510  36.704  38.445   7.650
 6369POPC   NC340511  41.559   4.320   9.450
 6369POPC   PO440512  41.578   4.298   9.150
 6369POPC   GL140513  41.560   4.313   8.850
 6369POPC   GL240514  41.468   4.363   8.850
 6369POPC   C1A40515  41.523   4.305   8.550
 6369POPC   D2A40516  41.596   4.313   8.250
 6369POPC   C3A40517  41.554   4.301   7.950
 6369POPC   C4A40518  41.571   4.342   7.650
 6369POPC   C1B40519  41.299   4.379   8.550
 6369POPC   C2B40520  41.293   4.402   8.250
 6369POPC   C3B40521  41.264   4.402   7.950
 6369POPC   C4B40522  41.339   4.349   7.650
 6370POPC   NC340523  33.820  32.977   9.450
 6370POPC   PO440524  33.752  33.029   9.150
 6370POPC   GL140525  33.817  33.000   8.850
 6370POPC   GL240526  33.861  33.128   8.850
 6370POPC   C1A40527  33.849  33.057   8.550
 6370POPC   D2A40528  33.843  33.057   8.250
 6370POPC   C3A40529  33.847  33.063   7.950
 6370POPC   C4A40530  33.822  33.029   7.650
 6370POPC   C1B40531  33.987  33.208   8.550
 6370POPC   C2B40532  34.013  33.192   8.250
 6370POPC   C3B40533  33.999  33.158   7.950
 6370POPC   C4B40534  33.955  33.155   7.650
 6371POPC   NC340535   0.447   5.102   9.450
 6371POPC   PO440536   0.442   5.066   9.150
 6371POPC   GL140537   0.435   5.113   8.850
 6371POPC   GL240538   0.320   4.992   8.850
 6371POPC   C1A40539   0.482   5.046   8.550
 6371POPC   D2A40540   0.392   5.141   8.250
 6371POPC   C3A40541   0.439   5.117   7.950
 6371POPC   C4A40542   0.394   5.115   7.650
 6371POPC   C1B40543   0.255   4.845   8.550
 6371POPC   C2B40544   0.297   4.916   8.250
 6371POPC   C3B40545   0.298   4.878   7.950
 6371POPC   C4B40546   0.294   4.902   7.650
 6372POPC   NC340547   1.224   8.151   9.450
 6372POPC   PO440548   1.187   8.178   9.150
 6372POPC   GL140549   1.236   8.180   8.850
 6372POPC   GL240550   1.099   8.184   8.850
 6372POPC   C1A40551   1.262   8.188   8.550
 6372POPC   D2A40552   1.203   8.151   8.250
 6372POPC   C3A40553   1.170   8.196   7.950
 6372POPC   C4A40554   1.226   8.160   7.650
 6372POPC   C1B40555   0.984   8.189   8.550
 6372POPC   C2B40556   1.012   8.232   8.250
 6372POPC   C3B40557   0.926   8.198   7.950
 6372POPC   C4B40558   0.959   8.232   7.650
 6373POPC   NC340559  23.709   2.807   9.450
 6373POPC   PO440560  23.695   2.791   9.150
 6373POPC   GL140561  23.670   2.789   8.850
 6373POPC   GL240562  23.625   2.852   8.850
 6373POPC   C1A40563  23.731   2.772   8.550
 6373POPC   D2A40564  23.757   2.768   8.250
 6373POPC   C3A40565  23.705   2.803   7.950
 6373POPC   C4A40566  23.706   2.743   7.650
 6373POPC   C1B40567  23.523   2.810   8.550
 6373POPC   C2B40568  23.464   2.859   8.250
 6373POPC   C3B40569  23.430   2.844   7.950
 6373POPC   C4B40570  23.453   2.895   7.650
 6374POPC   NC340571  20.572  33.753   9.450
 6374POPC   PO440572  20.586  33.771   9.150
 6374POPC   GL140573  20.632  33.822   8.850
 6374POPC   GL240574  20.568  33.685   8.850
 6374POPC   C1A40575  20.565  33.799   8.550
 6374POPC   D2A40576  20.613  33.805   8.250
 6374POPC   C3A40577  20.631  33.786   7.950
 6374POPC   C4A40578  20.581  33.840   7.650
 6374POPC   C1B40579  20.489  33.610   8.550
 6374POPC   C2B40580  20.476  33.599   8.250
 6374POPC   C3B40581  20.499  33.601   7.950
 6374POPC   C4B40582  20.448  33.612   7.650
 6375POPC   NC340583  22.942  35.327   9.450
 6375POPC   PO440584  22.968  35.357   9.150
 6375POPC   GL140585  22.978  35.372   8.850
 6375POPC   GL240586  23.085  35.335   8.850
 6375POPC   C1A40587  22.964  35.316   8.550
 6375POPC   D2A40588  22.897  35.314   8.250
 6375POPC   C3A40589  22.931  35.399   7.950
 6375POPC   C4A40590  22.962  35.370   7.650
 6375POPC   C1B40591  23.166  35.291   8.550
 6375POPC   C2B40592  23.190  35.355   8.250
 6375POPC   C3B40593  23.233  35.300   7.950
 6375POPC   C4B40594  23.206  35.313   7.650
 6376POPC   NC340595  22.935  23.745   9.450
 6376POPC   PO440596  22.894  23.760   9.150
 6376POPC   GL140597  22.926  23.763   8.850
 6376POPC   GL240598  23.009  23.781   8.850
 6376POPC   C1A40599  22.982  23.712   8.550
 6376POPC   D2A40600  22.931  23.667   8.250
 6376POPC   C3A40601  22.922  23.708   7.950
 6376POPC   C4A40602  22.889  23.758   7.650
 6376POPC   C1B40603  23.176  23.809   8.550
 6376POPC   C2B40604  23.177  23.788   8.250
 6376POPC   C3B40605  23.188  23.794   7.950
 6376POPC   C4B40606  23.206  23.798   7.650
 6377POPC   NC340607  20.627  18.271   9.450
 6377POPC   PO440608  20.615  18.265   9.150
 6377POPC   GL140609  20.651  18.320   8.850
 6377POPC   GL240610  20.535  18.399   8.850
 6377POPC   C1A40611  20.590  18.246   8.550
 6377POPC   D2A40612  20.620  18.296   8.250
 6377POPC   C3A40613  20.587  18.259   7.950
 6377POPC   C4A40614  20.595  18.309   7.650
 6377POPC   C1B40615  20.534  18.543   8.550
 6377POPC   C2B40616  20.493  18.521   8.250
 6377POPC   C3B40617  20.522  18.539   7.950
 6377POPC   C4B40618  20.477  18.465   7.650
 6378POPC   NC340619  38.490  40.774   9.450
 6378POPC   PO440620  38.500  40.796   9.150
 6378POPC   GL140621  38.452  40.796   8.850
 6378POPC   GL240622  38.418  40.908   8.850
 6378POPC   C1A40623  38.457  40.821   8.550
 6378POPC   D2A40624  38.439  40.817   8.250
 6378POPC   C3A40625  38.424  40.825   7.950
 6378POPC   C4A40626  38.454  40.749   7.650
 6378POPC   C1B40627  38.489  41.046   8.550
 6378POPC   C2B40628  38.412  41.005   8.250
 6378POPC   C3B40629  38.411  41.024   7.950
 6378POPC   C4B40630  38.442  41.028   7.650
 6379POPC   NC340631  24.454  23.695   9.450
 6379POPC   PO440632  24.485  23.727   9.150
 6379POPC   GL140633  24.482  23.716   8.850
 6379POPC   GL240634  24.361  23.721   8.850
 6379POPC   C1A40635  24.447  23.762   8.550
 6379POPC   D2A40636  24.452  23.697   8.250
 6379POPC   C3A40637  24.503  23.741   7.950
 6379POPC   C4A40638  24.473  23.714   7.650
 6379POPC   C1B40639  24.214  23.635   8.550
 6379POPC   C2B40640  24.239  23.627   8.250
 6379POPC   C3B40641  24.248  23.642   7.950
 6379POPC   C4B40642  24.224  23.633   7.650
 6380POPC   NC340643  44.641  19.883   9.450
 6380POPC   PO440644  44.636  19.850   9.150
 6380POPC   GL140645  44.618  19.813   8.850
 6380POPC   GL240646  44.628  19.994   8.850
 6380POPC   C1A40647  44.619  19.849   8.550
 6380POPC   D2A40648  44.622  19.848   8.250
 6380POPC   C3A40649  44.688  19.798   7.950
 6380POPC   C4A40650  44.644  19.878   7.650
 6380POPC   C1B40651  44.696  20.092   8.550
 6380POPC   C2B40652  44.709  20.082   8.250
 6380POPC   C3B40653  44.650  20.115   7.950
 6380POPC   C4B40654  44.664  20.085   7.650
 6381POPC   NC340655  41.538  35.363   9.450
 6381POPC   PO440656  41.563  35.310   9.150
 6381POPC   GL140657  41.548  35.376   8.850
 6381POPC   GL240658  41.642  35.205   8.850
 6381POPC   C1A40659  41.542  35.359   8.550
 6381POPC   D2A40660  41.577  35.362   8.250
 6381POPC   C3A40661  41.514  35.396   7.950
 6381POPC   C4A40662  41.548  35.325   7.650
 6381POPC   C1B40663  41.673  35.147   8.550
 6381POPC   C2B40664  41.730  35.160   8.250
 6381POPC   C3B40665  41.669  35.105   7.950
 6381POPC   C4B40666  41.679  35.138   7.650
 6382POPC   NC340667  43.852   9.779   9.450
 6382POPC   PO440668  43.924   9.764   9.150
 6382POPC   GL140669  43.845   9.773   8.850
 6382POPC   GL240670  43.832   9.630   8.850
 6382POPC   C1A40671  43.931   9.760   8.550
 6382POPC   D2A40672  43.878   9.701   8.250
 6382POPC   C3A40673  43.893   9.741   7.950
 6382POPC   C4A40674  43.925   9.751   7.650
 6382POPC   C1B40675  43.738   9.602   8.550
 6382POPC   C2B40676  43.707   9.557   8.250
 6382POPC   C3B40677  43.733   9.569   7.950
 6382POPC   C4B40678  43.697   9.568   7.650
 6383POPC   NC340679  30.694  23.713   9.450
 6383POPC   PO440680  30.664  23.679   9.150
 6383POPC   GL140681  30.721  23.725   8.850
 6383POPC   GL240682  30.779  23.592   8.850
 6383POPC   C1A40683  30.657  23.694   8.550
 6383POPC   D2A40684  30.746  23.682   8.250
 6383POPC   C3A40685  30.663  23.694   7.950
 6383POPC   C4A40686  30.733  23.688   7.650
 6383POPC   C1B40687  30.786  23.436   8.550
 6383POPC   C2B40688  30.768  23.445   8.250
 6383POPC   C3B40689  30.827  23.500   7.950
 6383POPC   C4B40690  30.828  23.495   7.650
 6384POPC   NC340691   3.560  35.324   9.450
 6384POPC   PO440692   3.505  35.317   9.150
 6384POPC   GL140693   3.495  35.352   8.850
 6384POPC   GL240694   3.391  35.252   8.850
 6384POPC   C1A40695   3.527  35.387   8.550
 6384POPC   D2A40696   3.501  35.401   8.250
 6384POPC   C3A40697   3.582  35.350   7.950
 6384POPC   C4A40698   3.528  35.398   7.650
 6384POPC   C1B40699   3.300  35.245   8.550
 6384POPC   C2B40700   3.326  35.190   8.250
 6384POPC   C3B40701   3.375  35.254   7.950
 6384POPC   C4B40702   3.321  35.207   7.650
 6385POPC   NC340703  14.390  31.457   9.450
 6385POPC   PO440704  14.443  31.483   9.150
 6385POPC   GL140705  14.437  31.455   8.850
 6385POPC   GL240706  14.298  31.498   8.850
 6385POPC   C1A40707  14.388  31.467   8.550
 6385POPC   D2A40708  14.440  31.481   8.250
 6385POPC   C3A40709  14.422  31.451   7.950
 6385POPC   C4A40710  14.445  31.489   7.650
 6385POPC   C1B40711  14.204  31.635   8.550
 6385POPC   C2B40712  14.136  31.543   8.250
 6385POPC   C3B40713  14.181  31.550   7.950
 6385POPC   C4B40714  14.175  31.578   7.650
 6386POPC   NC340715  41.580  34.540   9.450
 6386POPC   PO440716  41.569  34.567   9.150
 6386POPC   GL140717  41.566  34.584   8.850
 6386POPC   GL240718  41.526  34.651   8.850
 6386POPC   C1A40719  41.535  34.584   8.550
 6386POPC   D2A40720  41.596  34.558   8.250
 6386POPC   C3A40721  41.581  34.559   7.950
 6386POPC   C4A40722  41.551  34.577   7.650
 6386POPC   C1B40723  41.487  34.842   8.550
 6386POPC   C2B40724  41.525  34.813   8.250
 6386POPC   C3B40725  41.501  34.782   7.950
 6386POPC   C4B40726  41.435  34.811   7.650
 6387POPC   NC340727  33.758  12.859   9.450
 6387POPC   PO440728  33.775  12.852   9.150
 6387POPC   GL140729  33.785  12.837   8.850
 6387POPC   GL240730  33.872  12.906   8.850
 6387POPC   C1A40731  33.794  12.900   8.550
 6387POPC   D2A40732  33.795  12.843   8.250
 6387POPC   C3A40733  33.845  12.862   7.950
 6387POPC   C4A40734  33.816  12.803   7.650
 6387POPC   C1B40735  34.031  13.025   8.550
 6387POPC   C2B40736  34.033  13.006   8.250
 6387POPC   C3B40737  33.999  13.034   7.950
 6387POPC   C4B40738  34.053  12.992   7.650
 6388POPC   NC340739  14.445  28.365   9.450
 6388POPC   PO440740  14.364  28.351   9.150
 6388POPC   GL140741  14.414  28.340   8.850
 6388POPC   GL240742  14.231  28.423   8.850
 6388POPC   C1A40743  14.388  28.344   8.550
 6388POPC   D2A40744  14.410  28.393   8.250
 6388POPC   C3A40745  14.415  28.407   7.950
 6388POPC   C4A40746  14.355  28.328   7.650
 6388POPC   C1B40747  14.161  28.418   8.550
 6388POPC   C2B40748  14.126  28.409   8.250
 6388POPC   C3B40749  14.148  28.449   7.950
 6388POPC   C4B40750  14.118  28.374   7.650
 6389POPC   NC340751  39.267  33.802   9.450
 6389POPC   PO440752  39.199  33.759   9.150
 6389POPC   GL140753  39.211  33.765   8.850
 6389POPC   GL240754  39.069  33.842   8.850
 6389POPC   C1A40755  39.264  33.763   8.550
 6389POPC   D2A40756  39.208  33.819   8.250
 6389POPC   C3A40757  39.256  33.799   7.950
 6389POPC   C4A40758  39.218  33.791   7.650
 6389POPC   C1B40759  39.036  33.881   8.550
 6389POPC   C2B40760  39.009  33.891   8.250
 6389POPC   C3B40761  38.972  33.819   7.950
 6389POPC   C4B40762  38.953  33.876   7.650
 6390POPC   NC340763  36.872  26.062   9.450
 6390POPC   PO440764  36.896  26.083   9.150
 6390POPC   GL140765  36.926  26.027   8.850
 6390POPC   GL240766  36.980  26.195   8.850
 6390POPC   C1A40767  36.932  25.997   8.550
 6390POPC   D2A40768  36.881  26.067   8.250
 6390POPC   C3A40769  36.887  26.056   7.950
 6390POPC   C4A40770  36.876  26.087   7.650
 6390POPC   C1B40771  36.924  26.247   8.550
 6390POPC   C2B40772  36.993  26.261   8.250
 6390POPC   C3B40773  36.958  26.290   7.950
 6390POPC   C4B40774  37.017  26.311   7.650
 6391POPC   NC340775  43.111   1.260   9.450
 6391POPC   PO440776  43.094   1.218   9.150
 6391POPC   GL140777  43.072   1.237   8.850
 6391POPC   GL240778  43.104   1.370   8.850
 6391POPC   C1A40779  43.124   1.220   8.550
 6391POPC   D2A40780  43.094   1.224   8.250
 6391POPC   C3A40781  43.156   1.240   7.950
 6391POPC   C4A40782  43.147   1.214   7.650
 6391POPC   C1B40783  43.194   1.496   8.550
 6391POPC   C2B40784  43.135   1.408   8.250
 6391POPC   C3B40785  43.216   1.423   7.950
 6391POPC   C4B40786  43.198   1.412   7.650
 6392POPC   NC340787  15.154   2.023   9.450
 6392POPC   PO440788  15.182   2.019   9.150
 6392POPC   GL140789  15.164   2.003   8.850
 6392POPC   GL240790  15.310   2.055   8.850
 6392POPC   C1A40791  15.134   1.944   8.550
 6392POPC   D2A40792  15.138   1.975   8.250
 6392POPC   C3A40793  15.203   1.979   7.950
 6392POPC   C4A40794  15.180   1.969   7.650
 6392POPC   C1B40795  15.373   2.131   8.550
 6392POPC   C2B40796  15.414   2.073   8.250
 6392POPC   C3B40797  15.365   2.162   7.950
 6392POPC   C4B40798  15.396   2.080   7.650
 6393POPC   NC340799   3.502  39.239   9.450
 6393POPC   PO440800   3.514  39.222   9.150
 6393POPC   GL140801   3.495  39.255   8.850
 6393POPC   GL240802   3.476  39.191   8.850
 6393POPC   C1A40803   3.570  39.277   8.550
 6393POPC   D2A40804   3.562  39.240   8.250
 6393POPC   C3A40805   3.499  39.206   7.950
 6393POPC   C4A40806   3.584  39.237   7.650
 6393POPC   C1B40807   3.326  39.135   8.550
 6393POPC   C2B40808   3.363  39.084   8.250
 6393POPC   C3B40809   3.347  39.122   7.950
 6393POPC   C4B40810   3.286  39.081   7.650
 6394POPC   NC340811  39.228  13.601   9.450
 6394POPC   PO440812  39.246  13.597   9.150
 6394POPC   GL140813  39.272  13.640   8.850
 6394POPC   GL240814  39.343  13.655   8.850
 6394POPC   C1A40815  39.257  13.620   8.550
 6394POPC   D2A40816  39.275  13.673   8.250
 6394POPC   C3A40817  39.235  13.667   7.950
 6394POPC   C4A40818  39.223  13.617   7.650
 6394POPC   C1B40819  39.449  13.682   8.550
 6394POPC   C2B40820  39.486  13.700   8.250
 6394POPC   C3B40821  39.454  13.693   7.950
 6394POPC   C4B40822  39.462  13.706   7.650
 6395POPC   NC340823  41.523  27.573   9.450
 6395POPC   PO440824  41.539  27.575   9.150
 6395POPC   GL140825  41.580  27.549   8.850
 6395POPC   GL240826  41.479  27.598   8.850
 6395POPC   C1A40827  41.591  27.563   8.550
 6395POPC   D2A40828  41.592  27.578   8.250
 6395POPC   C3A40829  41.536  27.610   7.950
 6395POPC   C4A40830  41.576  27.593   7.650
 6395POPC   C1B40831  41.344  27.641   8.550
 6395POPC   C2B40832  41.334  27.573   8.250
 6395POPC   C3B40833  41.330  27.547   7.950
 6395POPC   C4B40834  41.321  27.574   7.650
 6396POPC   NC340835  17.492  32.239   9.450
 6396POPC   PO440836  17.530  32.203   9.150
 6396POPC   GL140837  17.520  32.245   8.850
 6396POPC   GL240838  17.350  32.152   8.850
 6396POPC   C1A40839  17.491  32.217   8.550
 6396POPC   D2A40840  17.474  32.231   8.250
 6396POPC   C3A40841  17.550  32.294   7.950
 6396POPC   C4A40842  17.531  32.260   7.650
 6396POPC   C1B40843  17.287  32.173   8.550
 6396POPC   C2B40844  17.323  32.102   8.250
 6396POPC   C3B40845  17.233  32.101   7.950
 6396POPC   C4B40846  17.299  32.108   7.650
 6397POPC   NC340847   7.446  19.059   9.450
 6397POPC   PO440848   7.382  19.054   9.150
 6397POPC   GL140849   7.371  19.056   8.850
 6397POPC   GL240850   7.262  19.126   8.850
 6397POPC   C1A40851   7.409  19.061   8.550
 6397POPC   D2A40852   7.415  19.058   8.250
 6397POPC   C3A40853   7.454  19.089   7.950
 6397POPC   C4A40854   7.386  19.040   7.650
 6397POPC   C1B40855   7.168  19.153   8.550
 6397POPC   C2B40856   7.160  19.166   8.250
 6397POPC   C3B40857   7.203  19.126   7.950
 6397POPC   C4B40858   7.172  19.158   7.650
 6398POPC   NC340859  33.848   8.929   9.450
 6398POPC   PO440860  33.762   8.955   9.150
 6398POPC   GL140861  33.801   8.965   8.850
 6398POPC   GL240862  33.755   9.088   8.850
 6398POPC   C1A40863  33.801   8.941   8.550
 6398POPC   D2A40864  33.815   8.925   8.250
 6398POPC   C3A40865  33.805   8.962   7.950
 6398POPC   C4A40866  33.848   8.996   7.650
 6398POPC   C1B40867  33.706   9.224   8.550
 6398POPC   C2B40868  33.655   9.224   8.250
 6398POPC   C3B40869  33.645   9.229   7.950
 6398POPC   C4B40870  33.617   9.195   7.650
 6399POPC   NC340871  30.669  12.891   9.450
 6399POPC   PO440872  30.692  12.889   9.150
 6399POPC   GL140873  30.693  12.893   8.850
 6399POPC   GL240874  30.626  12.868   8.850
 6399POPC   C1A40875  30.660  12.859   8.550
 6399POPC   D2A40876  30.653  12.886   8.250
 6399POPC   C3A40877  30.744  12.852   7.950
 6399POPC   C4A40878  30.647  12.883   7.650
 6399POPC   C1B40879  30.467  12.913   8.550
 6399POPC   C2B40880  30.448  12.918   8.250
 6399POPC   C3B40881  30.424  12.891   7.950
 6399POPC   C4B40882  30.484  12.956   7.650
 6400POPC   NC340883  12.881   5.085   9.450
 6400POPC   PO440884  12.823   5.063   9.150
 6400POPC   GL140885  12.806   5.069   8.850
 6400POPC   GL240886  13.006   5.105   8.850
 6400POPC   C1A40887  12.847   5.056   8.550
 6400POPC   D2A40888  12.810   5.102   8.250
 6400POPC   C3A40889  12.891   5.089   7.950
 6400POPC   C4A40890  12.848   5.124   7.650
 6400POPC   C1B40891  13.064   5.181   8.550
 6400POPC   C2B40892  13.050   5.172   8.250
 6400POPC   C3B40893  13.071   5.094   7.950
 6400POPC   C4B40894  13.130   5.116   7.650
 6401POPC   NC340895  19.040  16.730   9.450
 6401POPC   PO440896  19.078  16.710   9.150
 6401POPC   GL140897  19.035  16.695   8.850
 6401POPC   GL240898  18.937  16.844   8.850
 6401POPC   C1A40899  19.086  16.714   8.550
 6401POPC   D2A40900  19.062  16.720   8.250
 6401POPC   C3A40901  19.095  16.683   7.950
 6401POPC   C4A40902  19.083  16.743   7.650
 6401POPC   C1B40903  18.865  16.889   8.550
 6401POPC   C2B40904  18.875  16.867   8.250
 6401POPC   C3B40905  18.844  16.917   7.950
 6401POPC   C4B40906  18.908  16.836   7.650
 6402POPC   NC340907   1.215  42.329   9.450
 6402POPC   PO440908   1.260  42.342   9.150
 6402POPC   GL140909   1.195  42.379   8.850
 6402POPC   GL240910   1.123  42.231   8.850
 6402POPC   C1A40911   1.176  42.305   8.550
 6402POPC   D2A40912   1.228  42.324   8.250
 6402POPC   C3A40913   1.169  42.343   7.950
 6402POPC   C4A40914   1.186  42.368   7.650
 6402POPC   C1B40915   1.030  42.094   8.550
 6402POPC   C2B40916   1.097  42.138   8.250
 6402POPC   C3B40917   1.018  42.153   7.950
 6402POPC   C4B40918   1.085  42.185   7.650
 6403POPC   NC340919  39.242  21.405   9.450
 6403POPC   PO440920  39.183  21.375   9.150
 6403POPC   GL140921  39.272  21.435   8.850
 6403POPC   GL240922  39.224  21.293   8.850
 6403POPC   C1A40923  39.221  21.393   8.550
 6403POPC   D2A40924  39.209  21.336   8.250
 6403POPC   C3A40925  39.247  21.341   7.950
 6403POPC   C4A40926  39.229  21.406   7.650
 6403POPC   C1B40927  39.191  21.168   8.550
 6403POPC   C2B40928  39.216  21.094   8.250
 6403POPC   C3B40929  39.168  21.188   7.950
 6403POPC   C4B40930  39.193  21.188   7.650
 6404POPC   NC340931  36.078   5.902   9.450
 6404POPC   PO440932  36.109   5.909   9.150
 6404POPC   GL140933  36.162   5.899   8.850
 6404POPC   GL240934  36.164   5.738   8.850
 6404POPC   C1A40935  36.170   5.882   8.550
 6404POPC   D2A40936  36.102   5.832   8.250
 6404POPC   C3A40937  36.141   5.887   7.950
 6404POPC   C4A40938  36.118   5.855   7.650
 6404POPC   C1B40939  36.113   5.573   8.550
 6404POPC   C2B40940  36.149   5.609   8.250
 6404POPC   C3B40941  36.113   5.576   7.950
 6404POPC   C4B40942  36.145   5.606   7.650
 6405POPC   NC340943  13.611  19.049   9.450
 6405POPC   PO440944  13.637  19.098   9.150
 6405POPC   GL140945  13.659  19.107   8.850
 6405POPC   GL240946  13.524  18.912   8.850
 6405POPC   C1A40947  13.662  19.083   8.550
 6405POPC   D2A40948  13.623  19.086   8.250
 6405POPC   C3A40949  13.635  19.060   7.950
 6405POPC   C4A40950  13.625  19.049   7.650
 6405POPC   C1B40951  13.449  18.900   8.550
 6405POPC   C2B40952  13.485  18.836   8.250
 6405POPC   C3B40953  13.488  18.868   7.950
 6405POPC   C4B40954  13.514  18.808   7.650
 6406POPC   NC340955  19.843  24.472   9.450
 6406POPC   PO440956  19.866  24.446   9.150
 6406POPC   GL140957  19.850  24.536   8.850
 6406POPC   GL240958  19.894  24.614   8.850
 6406POPC   C1A40959  19.874  24.530   8.550
 6406POPC   D2A40960  19.849  24.481   8.250
 6406POPC   C3A40961  19.838  24.538   7.950
 6406POPC   C4A40962  19.810  24.525   7.650
 6406POPC   C1B40963  19.924  24.673   8.550
 6406POPC   C2B40964  19.985  24.723   8.250
 6406POPC   C3B40965  20.000  24.674   7.950
 6406POPC   C4B40966  19.937  24.691   7.650
 6407POPC   NC340967  12.069  39.198   9.450
 6407POPC   PO440968  12.096  39.225   9.150
 6407POPC   GL140969  12.089  39.245   8.850
 6407POPC   GL240970  12.142  39.222   8.850
 6407POPC   C1A40971  12.088  39.269   8.550
 6407POPC   D2A40972  12.087  39.226   8.250
 6407POPC   C3A40973  12.081  39.236   7.950
 6407POPC   C4A40974  12.092  39.208   7.650
 6407POPC   C1B40975  12.312  39.151   8.550
 6407POPC   C2B40976  12.268  39.080   8.250
 6407POPC   C3B40977  12.263  39.083   7.950
 6407POPC   C4B40978  12.295  39.161   7.650
 6408POPC   NC340979  40.809  23.717   9.450
 6408POPC   PO440980  40.817  23.667   9.150
 6408POPC   GL140981  40.795  23.728   8.850
 6408POPC   GL240982  40.892  23.687   8.850
 6408POPC   C1A40983  40.757  23.667   8.550
 6408POPC   D2A40984  40.779  23.681   8.250
 6408POPC   C3A40985  40.795  23.671   7.950
 6408POPC   C4A40986  40.765  23.736   7.650
 6408POPC   C1B40987  40.995  23.576   8.550
 6408POPC   C2B40988  41.002  23.607   8.250
 6408POPC   C3B40989  40.970  23.562   7.950
 6408POPC   C4B40990  41.017  23.611   7.650
 6409POPC   NC340991  44.655   0.435   9.450
 6409POPC   PO440992  44.628   0.444   9.150
 6409POPC   GL140993  44.629   0.423   8.850
 6409POPC   GL240994  44.698   0.389   8.850
 6409POPC   C1A40995  44.667   0.463   8.550
 6409POPC   D2A40996  44.614   0.466   8.250
 6409POPC   C3A40997  44.629   0.430   7.950
 6409POPC   C4A40998  44.667   0.458   7.650
 6409POPC   C1B40999  44.769   0.201   8.550
 6409POPC   C2B41000  44.784   0.240   8.250
 6409POPC   C3B41001  44.842   0.233   7.950
 6409POPC   C4B41002  44.841   0.257   7.650
 6410POPC   NC341003  34.577   2.763   9.450
 6410POPC   PO441004  34.557   2.728   9.150
 6410POPC   GL141005  34.594   2.779   8.850
 6410POPC   GL241006  34.446   2.718   8.850
 6410POPC   C1A41007  34.597   2.804   8.550
 6410POPC   D2A41008  34.582   2.761   8.250
 6410POPC   C3A41009  34.528   2.732   7.950
 6410POPC   C4A41010  34.624   2.807   7.650
 6410POPC   C1B41011  34.382   2.671   8.550
 6410POPC   C2B41012  34.375   2.586   8.250
 6410POPC   C3B41013  34.381   2.609   7.950
 6410POPC   C4B41014  34.349   2.616   7.650
 6411POPC   NC341015  39.963  38.430   9.450
 6411POPC   PO441016  39.971  38.446   9.150
 6411POPC   GL141017  39.957  38.409   8.850
 6411POPC   GL241018  40.066  38.404   8.850
 6411POPC   C1A41019  39.975  38.492   8.550
 6411POPC   D2A41020  40.000  38.497   8.250
 6411POPC   C3A41021  40.033  38.451   7.950
 6411POPC   C4A41022  39.975  38.490   7.650
 6411POPC   C1B41023  40.179  38.257   8.550
 6411POPC   C2B41024  40.211  38.271   8.250
 6411POPC   C3B41025  40.155  38.311   7.950
 6411POPC   C4B41026  40.159  38.320   7.650
 6412POPC   NC341027   1.219  38.421   9.450
 6412POPC   PO441028   1.216  38.465   9.150
 6412POPC   GL141029   1.206  38.465   8.850
 6412POPC   GL241030   1.071  38.454   8.850
 6412POPC   C1A41031   1.231  38.435   8.550
 6412POPC   D2A41032   1.253  38.447   8.250
 6412POPC   C3A41033   1.252  38.449   7.950
 6412POPC   C4A41034   1.201  38.476   7.650
 6412POPC   C1B41035   0.948  38.521   8.550
 6412POPC   C2B41036   0.995  38.533   8.250
 6412POPC   C3B41037   1.009  38.569   7.950
 6412POPC   C4B41038   1.003  38.484   7.650
 6413POPC   NC341039  44.659   6.685   9.450
 6413POPC   PO441040  44.675   6.688   9.150
 6413POPC   GL141041  44.621   6.626   8.850
 6413POPC   GL241042  44.611   6.796   8.850
 6413POPC   C1A41043  44.643   6.606   8.550
 6413POPC   D2A41044  44.676   6.608   8.250
 6413POPC   C3A41045  44.643   6.660   7.950
 6413POPC   C4A41046  44.687   6.655   7.650
 6413POPC   C1B41047  44.583   6.857   8.550
 6413POPC   C2B41048  44.559   6.852   8.250
 6413POPC   C3B41049  44.562   6.916   7.950
 6413POPC   C4B41050  44.579   6.909   7.650
 6414POPC   NC341051  41.512   2.009   9.450
 6414POPC   PO441052  41.512   1.991   9.150
 6414POPC   GL141053  41.518   2.004   8.850
 6414POPC   GL241054  41.579   1.896   8.850
 6414POPC   C1A41055  41.596   1.956   8.550
 6414POPC   D2A41056  41.573   1.953   8.250
 6414POPC   C3A41057  41.542   1.977   7.950
 6414POPC   C4A41058  41.512   2.021   7.650
 6414POPC   C1B41059  41.542   1.762   8.550
 6414POPC   C2B41060  41.598   1.721   8.250
 6414POPC   C3B41061  41.576   1.690   7.950
 6414POPC   C4B41062  41.536   1.702   7.650
 6415POPC   NC341063  36.952  11.328   9.450
 6415POPC   PO441064  36.921  11.287   9.150
 6415POPC   GL141065  36.911  11.344   8.850
 6415POPC   GL241066  36.768  11.325   8.850
 6415POPC   C1A41067  36.929  11.337   8.550
 6415POPC   D2A41068  36.914  11.301   8.250
 6415POPC   C3A41069  36.878  11.323   7.950
 6415POPC   C4A41070  36.908  11.311   7.650
 6415POPC   C1B41071  36.656  11.343   8.550
 6415POPC   C2B41072  36.642  11.412   8.250
 6415POPC   C3B41073  36.629  11.387   7.950
 6415POPC   C4B41074  36.623  11.404   7.650
 6416POPC   NC341075  26.043  32.225   9.450
 6416POPC   PO441076  26.003  32.228   9.150
 6416POPC   GL141077  26.029  32.206   8.850
 6416POPC   GL241078  25.984  32.102   8.850
 6416POPC   C1A41079  26.089  32.234   8.550
 6416POPC   D2A41080  26.034  32.291   8.250
 6416POPC   C3A41081  26.061  32.252   7.950
 6416POPC   C4A41082  26.081  32.203   7.650
 6416POPC   C1B41083  25.882  31.990   8.550
 6416POPC   C2B41084  25.917  32.072   8.250
 6416POPC   C3B41085  25.929  32.075   7.950
 6416POPC   C4B41086  25.911  32.068   7.650
 6417POPC   NC341087  42.364  33.809   9.450
 6417POPC   PO441088  42.357  33.787   9.150
 6417POPC   GL141089  42.323  33.814   8.850
 6417POPC   GL241090  42.374  33.632   8.850
 6417POPC   C1A41091  42.320  33.818   8.550
 6417POPC   D2A41092  42.294  33.797   8.250
 6417POPC   C3A41093  42.331  33.843   7.950
 6417POPC   C4A41094  42.373  33.836   7.650
 6417POPC   C1B41095  42.312  33.599   8.550
 6417POPC   C2B41096  42.297  33.532   8.250
 6417POPC   C3B41097  42.341  33.529   7.950
 6417POPC   C4B41098  42.314  33.525   7.650
 6418POPC   NC341099  17.491  15.204   9.450
 6418POPC   PO441100  17.516  15.149   9.150
 6418POPC   GL141101  17.553  15.172   8.850
 6418POPC   GL241102  17.618  15.237   8.850
 6418POPC   C1A41103  17.469  15.213   8.550
 6418POPC   D2A41104  17.542  15.144   8.250
 6418POPC   C3A41105  17.552  15.166   7.950
 6418POPC   C4A41106  17.514  15.218   7.650
 6418POPC   C1B41107  17.742  15.321   8.550
 6418POPC   C2B41108  17.653  15.342   8.250
 6418POPC   C3B41109  17.685  15.378   7.950
 6418POPC   C4B41110  17.678  15.346   7.650
 6419POPC   NC341111  38.481  29.965   9.450
 6419POPC   PO441112  38.432  29.953   9.150
 6419POPC   GL141113  38.413  29.898   8.850
 6419POPC   GL241114  38.576  29.971   8.850
 6419POPC   C1A41115  38.458  29.922   8.550
 6419POPC   D2A41116  38.445  29.967   8.250
 6419POPC   C3A41117  38.408  29.914   7.950
 6419POPC   C4A41118  38.465  29.944   7.650
 6419POPC   C1B41119  38.703  29.931   8.550
 6419POPC   C2B41120  38.680  30.012   8.250
 6419POPC   C3B41121  38.691  29.951   7.950
 6419POPC   C4B41122  38.728  29.923   7.650
 6420POPC   NC341123  20.659  32.218   9.450
 6420POPC   PO441124  20.561  32.232   9.150
 6420POPC   GL141125  20.580  32.254   8.850
 6420POPC   GL241126  20.470  32.165   8.850
 6420POPC   C1A41127  20.642  32.240   8.550
 6420POPC   D2A41128  20.637  32.238   8.250
 6420POPC   C3A41129  20.582  32.251   7.950
 6420POPC   C4A41130  20.567  32.277   7.650
 6420POPC   C1B41131  20.397  32.168   8.550
 6420POPC   C2B41132  20.389  32.135   8.250
 6420POPC   C3B41133  20.399  32.124   7.950
 6420POPC   C4B41134  20.415  32.195   7.650
 6421POPC   NC341135  31.492   6.613   9.450
 6421POPC   PO441136  31.455   6.624   9.150
 6421POPC   GL141137  31.477   6.609   8.850
 6421POPC   GL241138  31.385   6.719   8.850
 6421POPC   C1A41139  31.466   6.608   8.550
 6421POPC   D2A41140  31.460   6.686   8.250
 6421POPC   C3A41141  31.486   6.694   7.950
 6421POPC   C4A41142  31.427   6.672   7.650
 6421POPC   C1B41143  31.360   6.869   8.550
 6421POPC   C2B41144  31.311   6.854   8.250
 6421POPC   C3B41145  31.281   6.804   7.950
 6421POPC   C4B41146  31.287   6.839   7.650
 6422POPC   NC341147  44.674   3.561   9.450
 6422POPC   PO441148  44.689   3.548   9.150
 6422POPC   GL141149  44.636   3.562   8.850
 6422POPC   GL241150  44.801   3.558   8.850
 6422POPC   C1A41151  44.622   3.536   8.550
 6422POPC   D2A41152  44.666   3.570   8.250
 6422POPC   C3A41153  44.685   3.527   7.950
 6422POPC   C4A41154  44.707   3.505   7.650
 6422POPC   C1B41155  44.860   3.639   8.550
 6422POPC   C2B41156  44.848   3.666   8.250
 6422POPC   C3B41157  44.880   3.678   7.950
 6422POPC   C4B41158  44.848   3.627   7.650
 6423POPC   NC341159   2.004  26.061   9.450
 6423POPC   PO441160   2.001  26.074   9.150
 6423POPC   GL141161   2.015  26.082   8.850
 6423POPC   GL241162   2.102  26.128   8.850
 6423POPC   C1A41163   1.993  26.012   8.550
 6423POPC   D2A41164   1.944  26.020   8.250
 6423POPC   C3A41165   2.001  26.020   7.950
 6423POPC   C4A41166   1.957  26.005   7.650
 6423POPC   C1B41167   2.216  26.189   8.550
 6423POPC   C2B41168   2.234  26.125   8.250
 6423POPC   C3B41169   2.225  26.163   7.950
 6423POPC   C4B41170   2.183  26.194   7.650
 6424POPC   NC341171  27.610  41.595   9.450
 6424POPC   PO441172  27.603  41.573   9.150
 6424POPC   GL141173  27.611  41.573   8.850
 6424POPC   GL241174  27.558  41.650   8.850
 6424POPC   C1A41175  27.568  41.514   8.550
 6424POPC   D2A41176  27.597  41.599   8.250
 6424POPC   C3A41177  27.642  41.511   7.950
 6424POPC   C4A41178  27.564  41.565   7.650
 6424POPC   C1B41179  27.523  41.793   8.550
 6424POPC   C2B41180  27.448  41.819   8.250
 6424POPC   C3B41181  27.487  41.767   7.950
 6424POPC   C4B41182  27.531  41.835   7.650
 6425POPC   NC341183  14.364  23.732   9.450
 6425POPC   PO441184  14.393  23.679   9.150
 6425POPC   GL141185  14.384  23.732   8.850
 6425POPC   GL241186  14.560  23.715   8.850
 6425POPC   C1A41187  14.443  23.687   8.550
 6425POPC   D2A41188  14.371  23.681   8.250
 6425POPC   C3A41189  14.406  23.731   7.950
 6425POPC   C4A41190  14.398  23.687   7.650
 6425POPC   C1B41191  14.619  23.735   8.550
 6425POPC   C2B41192  14.632  23.796   8.250
 6425POPC   C3B41193  14.644  23.745   7.950
 6425POPC   C4B41194  14.606  23.752   7.650
 6426POPC   NC341195   1.947   8.985   9.450
 6426POPC   PO441196   2.007   9.002   9.150
 6426POPC   GL141197   1.962   9.012   8.850
 6426POPC   GL241198   2.123   8.894   8.850
 6426POPC   C1A41199   2.023   8.940   8.550
 6426POPC   D2A41200   1.957   8.966   8.250
 6426POPC   C3A41201   1.951   8.995   7.950
 6426POPC   C4A41202   1.998   8.935   7.650
 6426POPC   C1B41203   2.192   8.917   8.550
 6426POPC   C2B41204   2.188   8.933   8.250
 6426POPC   C3B41205   2.203   8.922   7.950
 6426POPC   C4B41206   2.213   8.869   7.650
 6427POPC   NC341207   5.863  22.182   9.450
 6427POPC   PO441208   5.906  22.157   9.150
 6427POPC   GL141209   5.875  22.188   8.850
 6427POPC   GL241210   5.885  22.000   8.850
 6427POPC   C1A41211   5.889  22.147   8.550
 6427POPC   D2A41212   5.852  22.148   8.250
 6427POPC   C3A41213   5.831  22.143   7.950
 6427POPC   C4A41214   5.864  22.158   7.650
 6427POPC   C1B41215   5.874  21.956   8.550
 6427POPC   C2B41216   5.889  21.918   8.250
 6427POPC   C3B41217   5.885  21.962   7.950
 6427POPC   C4B41218   5.803  21.935   7.650
 6428POPC   NC341219  28.409  32.229   9.450
 6428POPC   PO441220  28.384  32.290   9.150
 6428POPC   GL141221  28.359  32.199   8.850
 6428POPC   GL241222  28.448  32.300   8.850
 6428POPC   C1A41223  28.342  32.211   8.550
 6428POPC   D2A41224  28.410  32.246   8.250
 6428POPC   C3A41225  28.403  32.212   7.950
 6428POPC   C4A41226  28.334  32.294   7.650
 6428POPC   C1B41227  28.611  32.234   8.550
 6428POPC   C2B41228  28.591  32.246   8.250
 6428POPC   C3B41229  28.650  32.318   7.950
 6428POPC   C4B41230  28.625  32.273   7.650
 6429POPC   NC341231  39.187   9.738   9.450
 6429POPC   PO441232  39.231   9.776   9.150
 6429POPC   GL141233  39.260   9.765   8.850
 6429POPC   GL241234  39.332   9.634   8.850
 6429POPC   C1A41235  39.183   9.779   8.550
 6429POPC   D2A41236  39.257   9.736   8.250
 6429POPC   C3A41237  39.263   9.783   7.950
 6429POPC   C4A41238  39.262   9.701   7.650
 6429POPC   C1B41239  39.450   9.571   8.550
 6429POPC   C2B41240  39.401   9.625   8.250
 6429POPC   C3B41241  39.467   9.616   7.950
 6429POPC   C4B41242  39.462   9.635   7.650
 6430POPC   NC341243   6.685  36.866   9.450
 6430POPC   PO441244   6.673  36.860   9.150
 6430POPC   GL141245   6.623  36.937   8.850
 6430POPC   GL241246   6.667  37.053   8.850
 6430POPC   C1A41247   6.619  36.856   8.550
 6430POPC   D2A41248   6.685  36.880   8.250
 6430POPC   C3A41249   6.635  36.868   7.950
 6430POPC   C4A41250   6.676  36.881   7.650
 6430POPC   C1B41251   6.703  37.135   8.550
 6430POPC   C2B41252   6.719  37.163   8.250
 6430POPC   C3B41253   6.749  37.124   7.950
 6430POPC   C4B41254   6.681  37.181   7.650
 6431POPC   NC341255  33.785  39.196   9.450
 6431POPC   PO441256  33.790  39.185   9.150
 6431POPC   GL141257  33.770  39.213   8.850
 6431POPC   GL241258  33.902  39.260   8.850
 6431POPC   C1A41259  33.796  39.244   8.550
 6431POPC   D2A41260  33.781  39.265   8.250
 6431POPC   C3A41261  33.835  39.183   7.950
 6431POPC   C4A41262  33.829  39.192   7.650
 6431POPC   C1B41263  34.013  39.294   8.550
 6431POPC   C2B41264  34.076  39.287   8.250
 6431POPC   C3B41265  34.015  39.330   7.950
 6431POPC   C4B41266  34.035  39.337   7.650
 6432POPC   NC341267  16.704  15.172   9.450
 6432POPC   PO441268  16.703  15.141   9.150
 6432POPC   GL141269  16.734  15.155   8.850
 6432POPC   GL241270  16.611  15.199   8.850
 6432POPC   C1A41271  16.709  15.151   8.550
 6432POPC   D2A41272  16.740  15.154   8.250
 6432POPC   C3A41273  16.729  15.195   7.950
 6432POPC   C4A41274  16.697  15.162   7.650
 6432POPC   C1B41275  16.526  15.192   8.550
 6432POPC   C2B41276  16.469  15.255   8.250
 6432POPC   C3B41277  16.471  15.190   7.950
 6432POPC   C4B41278  16.446  15.231   7.650
 6433POPC   NC341279   5.072  14.407   9.450
 6433POPC   PO441280   5.127  14.374   9.150
 6433POPC   GL141281   5.048  14.395   8.850
 6433POPC   GL241282   5.210  14.457   8.850
 6433POPC   C1A41283   5.102  14.405   8.550
 6433POPC   D2A41284   5.119  14.451   8.250
 6433POPC   C3A41285   5.062  14.442   7.950
 6433POPC   C4A41286   5.103  14.445   7.650
 6433POPC   C1B41287   5.236  14.558   8.550
 6433POPC   C2B41288   5.271  14.553   8.250
 6433POPC   C3B41289   5.307  14.614   7.950
 6433POPC   C4B41290   5.298  14.530   7.650
 6434POPC   NC341291   3.538   1.211   9.450
 6434POPC   PO441292   3.548   1.246   9.150
 6434POPC   GL141293   3.590   1.191   8.850
 6434POPC   GL241294   3.462   1.357   8.850
 6434POPC   C1A41295   3.521   1.186   8.550
 6434POPC   D2A41296   3.533   1.206   8.250
 6434POPC   C3A41297   3.551   1.248   7.950
 6434POPC   C4A41298   3.504   1.209   7.650
 6434POPC   C1B41299   3.506   1.425   8.550
 6434POPC   C2B41300   3.512   1.475   8.250
 6434POPC   C3B41301   3.473   1.483   7.950
 6434POPC   C4B41302   3.506   1.496   7.650
 6435POPC   NC341303  22.905   8.182   9.450
 6435POPC   PO441304  22.968   8.204   9.150
 6435POPC   GL141305  22.935   8.190   8.850
 6435POPC   GL241306  22.918   8.053   8.850
 6435POPC   C1A41307  22.969   8.203   8.550
 6435POPC   D2A41308  22.962   8.188   8.250
 6435POPC   C3A41309  22.889   8.205   7.950
 6435POPC   C4A41310  22.982   8.153   7.650
 6435POPC   C1B41311  22.920   7.922   8.550
 6435POPC   C2B41312  22.944   7.940   8.250
 6435POPC   C3B41313  22.855   7.916   7.950
 6435POPC   C4B41314  22.896   7.908   7.650
 6436POPC   NC341315  28.398  40.747   9.450
 6436POPC   PO441316  28.396  40.758   9.150
 6436POPC   GL141317  28.396  40.826   8.850
 6436POPC   GL241318  28.324  40.863   8.850
 6436POPC   C1A41319  28.365  40.816   8.550
 6436POPC   D2A41320  28.386  40.797   8.250
 6436POPC   C3A41321  28.403  40.777   7.950
 6436POPC   C4A41322  28.356  40.759   7.650
 6436POPC   C1B41323  28.208  40.995   8.550
 6436POPC   C2B41324  28.156  40.934   8.250
 6436POPC   C3B41325  28.224  40.973   7.950
 6436POPC   C4B41326  28.186  40.999   7.650
 6437POPC   NC341327  43.847  40.051   9.450
 6437POPC   PO441328  43.901  40.003   9.150
 6437POPC   GL141329  43.869  40.044   8.850
 6437POPC   GL241330  43.742  40.052   8.850
 6437POPC   C1A41331  43.910  39.987   8.550
 6437POPC   D2A41332  43.843  39.960   8.250
 6437POPC   C3A41333  43.916  39.998   7.950
 6437POPC   C4A41334  43.854  39.998   7.650
 6437POPC   C1B41335  43.684  40.111   8.550
 6437POPC   C2B41336  43.655  40.067   8.250
 6437POPC   C3B41337  43.647  40.016   7.950
 6437POPC   C4B41338  43.683  40.091   7.650
 6438POPC   NC341339  26.019   3.577   9.450
 6438POPC   PO441340  26.029   3.509   9.150
 6438POPC   GL141341  26.034   3.527   8.850
 6438POPC   GL241342  26.038   3.402   8.850
 6438POPC   C1A41343  26.039   3.496   8.550
 6438POPC   D2A41344  25.998   3.561   8.250
 6438POPC   C3A41345  26.069   3.573   7.950
 6438POPC   C4A41346  26.001   3.538   7.650
 6438POPC   C1B41347  26.108   3.317   8.550
 6438POPC   C2B41348  26.070   3.342   8.250
 6438POPC   C3B41349  26.117   3.325   7.950
 6438POPC   C4B41350  26.127   3.304   7.650
 6439POPC   NC341351   0.393   9.021   9.450
 6439POPC   PO441352   0.486   8.967   9.150
 6439POPC   GL141353   0.416   8.990   8.850
 6439POPC   GL241354   0.579   8.934   8.850
 6439POPC   C1A41355   0.437   8.980   8.550
 6439POPC   D2A41356   0.447   8.987   8.250
 6439POPC   C3A41357   0.407   8.976   7.950
 6439POPC   C4A41358   0.486   8.995   7.650
 6439POPC   C1B41359   0.630   8.872   8.550
 6439POPC   C2B41360   0.601   8.815   8.250
 6439POPC   C3B41361   0.608   8.846   7.950
 6439POPC   C4B41362   0.687   8.858   7.650
 6440POPC   NC341363  34.532  17.517   9.450
 6440POPC   PO441364  34.529  17.547   9.150
 6440POPC   GL141365  34.575  17.460   8.850
 6440POPC   GL241366  34.488  17.360   8.850
 6440POPC   C1A41367  34.624  17.489   8.550
 6440POPC   D2A41368  34.576  17.470   8.250
 6440POPC   C3A41369  34.612  17.474   7.950
 6440POPC   C4A41370  34.585  17.518   7.650
 6440POPC   C1B41371  34.405  17.313   8.550
 6440POPC   C2B41372  34.472  17.321   8.250
 6440POPC   C3B41373  34.480  17.328   7.950
 6440POPC   C4B41374  34.453  17.319   7.650
 6441POPC   NC341375  15.201  20.649   9.450
 6441POPC   PO441376  15.193  20.587   9.150
 6441POPC   GL141377  15.160  20.567   8.850
 6441POPC   GL241378  15.263  20.721   8.850
 6441POPC   C1A41379  15.146  20.582   8.550
 6441POPC   D2A41380  15.162  20.585   8.250
 6441POPC   C3A41381  15.165  20.636   7.950
 6441POPC   C4A41382  15.209  20.578   7.650
 6441POPC   C1B41383  15.342  20.802   8.550
 6441POPC   C2B41384  15.411  20.772   8.250
 6441POPC   C3B41385  15.351  20.780   7.950
 6441POPC   C4B41386  15.406  20.731   7.650
 6442POPC   NC341387  42.382  19.045   9.450
 6442POPC   PO441388  42.375  19.088   9.150
 6442POPC   GL141389  42.332  19.059   8.850
 6442POPC   GL241390  42.197  18.937   8.850
 6442POPC   C1A41391  42.285  19.053   8.550
 6442POPC   D2A41392  42.348  19.019   8.250
 6442POPC   C3A41393  42.319  19.076   7.950
 6442POPC   C4A41394  42.343  19.013   7.650
 6442POPC   C1B41395  42.188  18.871   8.550
 6442POPC   C2B41396  42.144  18.858   8.250
 6442POPC   C3B41397  42.160  18.914   7.950
 6442POPC   C4B41398  42.202  18.913   7.650
 6443POPC   NC341399   5.063   5.902   9.450
 6443POPC   PO441400   5.055   5.903   9.150
 6443POPC   GL141401   5.138   5.830   8.850
 6443POPC   GL241402   5.085   5.942   8.850
 6443POPC   C1A41403   5.113   5.892   8.550
 6443POPC   D2A41404   5.127   5.878   8.250
 6443POPC   C3A41405   5.135   5.899   7.950
 6443POPC   C4A41406   5.101   5.829   7.650
 6443POPC   C1B41407   5.187   6.155   8.550
 6443POPC   C2B41408   5.176   6.140   8.250
 6443POPC   C3B41409   5.129   6.073   7.950
 6443POPC   C4B41410   5.189   6.066   7.650
 6444POPC   NC341411  33.812  23.753   5.550
 6444POPC   PO441412  33.814  23.723   5.850
 6444POPC   GL141413  33.818  23.755   6.150
 6444POPC   GL241414  33.843  23.792   6.150
 6444POPC   C1A41415  33.759  23.729   6.450
 6444POPC   D2A41416  33.765  23.687   6.750
 6444POPC   C3A41417  33.822  23.737   7.050
 6444POPC   C4A41418  33.758  23.670   7.350
 6444POPC   C1B41419  33.835  23.958   6.450
 6444POPC   C2B41420  33.821  23.991   6.750
 6444POPC   C3B41421  33.827  23.924   7.050
 6444POPC   C4B41422  33.855  23.933   7.350
 6445POPC   NC341423   7.446  42.377   5.550
 6445POPC   PO441424   7.465  42.360   5.850
 6445POPC   GL141425   7.446  42.345   6.150
 6445POPC   GL241426   7.371  42.450   6.150
 6445POPC   C1A41427   7.416  42.353   6.450
 6445POPC   D2A41428   7.379  42.327   6.750
 6445POPC   C3A41429   7.386  42.374   7.050
 6445POPC   C4A41430   7.376  42.294   7.350
 6445POPC   C1B41431   7.308  42.563   6.450
 6445POPC   C2B41432   7.370  42.530   6.750
 6445POPC   C3B41433   7.330  42.534   7.050
 6445POPC   C4B41434   7.364  42.565   7.350
 6446POPC   NC341435  41.566  40.827   5.550
 6446POPC   PO441436  41.555  40.768   5.850
 6446POPC   GL141437  41.563  40.768   6.150
 6446POPC   GL241438  41.639  40.773   6.150
 6446POPC   C1A41439  41.590  40.819   6.450
 6446POPC   D2A41440  41.601  40.813   6.750
 6446POPC   C3A41441  41.576  40.755   7.050
 6446POPC   C4A41442  41.594  40.776   7.350
 6446POPC   C1B41443  41.821  40.718   6.450
 6446POPC   C2B41444  41.793  40.737   6.750
 6446POPC   C3B41445  41.830  40.750   7.050
 6446POPC   C4B41446  41.763  40.769   7.350
 6447POPC   NC341447  22.913  38.412   5.550
 6447POPC   PO441448  22.898  38.490   5.850
 6447POPC   GL141449  22.936  38.477   6.150
 6447POPC   GL241450  23.063  38.404   6.150
 6447POPC   C1A41451  22.915  38.442   6.450
 6447POPC   D2A41452  22.891  38.436   6.750
 6447POPC   C3A41453  22.922  38.448   7.050
 6447POPC   C4A41454  22.974  38.491   7.350
 6447POPC   C1B41455  23.154  38.239   6.450
 6447POPC   C2B41456  23.126  38.226   6.750
 6447POPC   C3B41457  23.098  38.279   7.050
 6447POPC   C4B41458  23.146  38.235   7.350
 6448POPC   NC341459  14.377  20.572   5.550
 6448POPC   PO441460  14.404  20.631   5.850
 6448POPC   GL141461  14.409  20.611   6.150
 6448POPC   GL241462  14.408  20.774   6.150
 6448POPC   C1A41463  14.356  20.618   6.450
 6448POPC   D2A41464  14.414  20.646   6.750
 6448POPC   C3A41465  14.365  20.580   7.050
 6448POPC   C4A41466  14.423  20.597   7.350
 6448POPC   C1B41467  14.452  20.880   6.450
 6448POPC   C2B41468  14.414  20.828   6.750
 6448POPC   C3B41469  14.393  20.828   7.050
 6448POPC   C4B41470  14.446  20.850   7.350
 6449POPC   NC341471  44.687  29.912   5.550
 6449POPC   PO441472  44.632  29.960   5.850
 6449POPC   GL141473  44.624  29.924   6.150
 6449POPC   GL241474  44.593  29.886   6.150
 6449POPC   C1A41475  44.678  29.877   6.450
 6449POPC   D2A41476  44.704  29.959   6.750
 6449POPC   C3A41477  44.633  29.896   7.050
 6449POPC   C4A41478  44.615  29.938   7.350
 6449POPC   C1B41479  44.435  29.822   6.450
 6449POPC   C2B41480  44.471  29.832   6.750
 6449POPC   C3B41481  44.453  29.828   7.050
 6449POPC   C4B41482  44.480  29.837   7.350
 6450POPC   NC341483  29.919  12.124   5.550
 6450POPC   PO441484  29.949  12.116   5.850
 6450POPC   GL141485  29.917  12.035   6.150
 6450POPC   GL241486  30.083  12.018   6.150
 6450POPC   C1A41487  29.897  12.092   6.450
 6450POPC   D2A41488  29.936  12.103   6.750
 6450POPC   C3A41489  29.938  12.087   7.050
 6450POPC   C4A41490  29.902  12.084   7.350
 6450POPC   C1B41491  30.213  12.052   6.450
 6450POPC   C2B41492  30.180  12.084   6.750
 6450POPC   C3B41493  30.129  11.998   7.050
 6450POPC   C4B41494  30.141  12.026   7.350
 6451POPC   NC341495  10.502  34.618   5.550
 6451POPC   PO441496  10.474  34.545   5.850
 6451POPC   GL141497  10.541  34.541   6.150
 6451POPC   GL241498  10.594  34.720   6.150
 6451POPC   C1A41499  10.511  34.537   6.450
 6451POPC   D2A41500  10.553  34.596   6.750
 6451POPC   C3A41501  10.512  34.557   7.050
 6451POPC   C4A41502  10.526  34.597   7.350
 6451POPC   C1B41503  10.646  34.746   6.450
 6451POPC   C2B41504  10.732  34.768   6.750
 6451POPC   C3B41505  10.706  34.797   7.050
 6451POPC   C4B41506  10.712  34.744   7.350
 6452POPC   NC341507  29.950  19.854   5.550
 6452POPC   PO441508  29.903  19.831   5.850
 6452POPC   GL141509  29.938  19.882   6.150
 6452POPC   GL241510  29.982  19.731   6.150
 6452POPC   C1A41511  29.918  19.854   6.450
 6452POPC   D2A41512  29.871  19.821   6.750
 6452POPC   C3A41513  29.919  19.804   7.050
 6452POPC   C4A41514  29.915  19.833   7.350
 6452POPC   C1B41515  30.053  19.638   6.450
 6452POPC   C2B41516  30.072  19.577   6.750
 6452POPC   C3B41517  30.059  19.655   7.050
 6452POPC   C4B41518  30.076  19.588   7.350
 6453POPC   NC341519  37.684  36.150   5.550
 6453POPC   PO441520  37.651  36.152   5.850
 6453POPC   GL141521  37.653  36.115   6.150
 6453POPC   GL241522  37.758  36.217   6.150
 6453POPC   C1A41523  37.712  36.143   6.450
 6453POPC   D2A41524  37.653  36.094   6.750
 6453POPC   C3A41525  37.702  36.097   7.050
 6453POPC   C4A41526  37.666  36.113   7.350
 6453POPC   C1B41527  37.839  36.287   6.450
 6453POPC   C2B41528  37.806  36.285   6.750
 6453POPC   C3B41529  37.837  36.293   7.050
 6453POPC   C4B41530  37.817  36.283   7.350
 6454POPC   NC341531   3.513  27.602   5.550
 6454POPC   PO441532   3.534  27.643   5.850
 6454POPC   GL141533   3.547  27.549   6.150
 6454POPC   GL241534   3.421  27.686   6.150
 6454POPC   C1A41535   3.493  27.635   6.450
 6454POPC   D2A41536   3.542  27.608   6.750
 6454POPC   C3A41537   3.541  27.592   7.050
 6454POPC   C4A41538   3.548  27.637   7.350
 6454POPC   C1B41539   3.273  27.673   6.450
 6454POPC   C2B41540   3.294  27.669   6.750
 6454POPC   C3B41541   3.344  27.714   7.050
 6454POPC   C4B41542   3.329  27.719   7.350
 6455POPC   NC341543  12.052  19.837   5.550
 6455POPC   PO441544  12.070  19.880   5.850
 6455POPC   GL141545  12.079  19.862   6.150
 6455POPC   GL241546  12.164  19.821   6.150
 6455POPC   C1A41547  12.111  19.868   6.450
 6455POPC   D2A41548  12.051  19.854   6.750
 6455POPC   C3A41549  12.099  19.877   7.050
 6455POPC   C4A41550  12.061  19.884   7.350
 6455POPC   C1B41551  12.334  19.913   6.450
 6455POPC   C2B41552  12.280  19.869   6.750
 6455POPC   C3B41553  12.289  19.935   7.050
 6455POPC   C4B41554  12.319  19.844   7.350
 6456POPC   NC341555  26.046  17.468   5.550
 6456POPC   PO441556  26.022  17.542   5.850
 6456POPC   GL141557  26.089  17.556   6.150
 6456POPC   GL241558  26.044  17.655   6.150
 6456POPC   C1A41559  26.088  17.520   6.450
 6456POPC   D2A41560  26.060  17.472   6.750
 6456POPC   C3A41561  26.067  17.539   7.050
 6456POPC   C4A41562  25.998  17.464   7.350
 6456POPC   C1B41563  26.043  17.729   6.450
 6456POPC   C2B41564  26.007  17.764   6.750
 6456POPC   C3B41565  26.011  17.760   7.050
 6456POPC   C4B41566  25.966  17.792   7.350
 6457POPC   NC341567   6.675   4.354   5.550
 6457POPC   PO441568   6.634   4.331   5.850
 6457POPC   GL141569   6.657   4.298   6.150
 6457POPC   GL241570   6.566   4.256   6.150
 6457POPC   C1A41571   6.641   4.292   6.450
 6457POPC   D2A41572   6.611   4.327   6.750
 6457POPC   C3A41573   6.625   4.280   7.050
 6457POPC   C4A41574   6.627   4.345   7.350
 6457POPC   C1B41575   6.368   4.208   6.450
 6457POPC   C2B41576   6.415   4.291   6.750
 6457POPC   C3B41577   6.444   4.288   7.050
 6457POPC   C4B41578   6.388   4.245   7.350
 6458POPC   NC341579  14.429  44.625   5.550
 6458POPC   PO441580  14.437  44.641   5.850
 6458POPC   GL141581  14.418  44.661   6.150
 6458POPC   GL241582  14.282  44.607   6.150
 6458POPC   C1A41583  14.450  44.675   6.450
 6458POPC   D2A41584  14.423  44.694   6.750
 6458POPC   C3A41585  14.382  44.625   7.050
 6458POPC   C4A41586  14.405  44.628   7.350
 6458POPC   C1B41587  14.204  44.516   6.450
 6458POPC   C2B41588  14.171  44.545   6.750
 6458POPC   C3B41589  14.226  44.489   7.050
 6458POPC   C4B41590  14.255  44.539   7.350
 6459POPC   NC341591  43.863  21.425   5.550
 6459POPC   PO441592  43.935  21.389   5.850
 6459POPC   GL141593  43.841  21.381   6.150
 6459POPC   GL241594  43.963  21.374   6.150
 6459POPC   C1A41595  43.914  21.403   6.450
 6459POPC   D2A41596  43.906  21.407   6.750
 6459POPC   C3A41597  43.881  21.429   7.050
 6459POPC   C4A41598  43.896  21.421   7.350
 6459POPC   C1B41599  44.089  21.389   6.450
 6459POPC   C2B41600  44.186  21.333   6.750
 6459POPC   C3B41601  44.186  21.408   7.050
 6459POPC   C4B41602  44.098  21.351   7.350
 6460POPC   NC341603  15.936   8.188   5.550
 6460POPC   PO441604  15.987   8.166   5.850
 6460POPC   GL141605  15.921   8.164   6.150
 6460POPC   GL241606  16.074   8.063   6.150
 6460POPC   C1A41607  15.941   8.241   6.450
 6460POPC   D2A41608  15.934   8.153   6.750
 6460POPC   C3A41609  15.906   8.186   7.050
 6460POPC   C4A41610  15.977   8.189   7.350
 6460POPC   C1B41611  16.063   7.998   6.450
 6460POPC   C2B41612  16.064   8.008   6.750
 6460POPC   C3B41613  16.154   8.010   7.050
 6460POPC   C4B41614  16.133   7.973   7.350
 6461POPC   NC341615   1.958  27.547   5.550
 6461POPC   PO441616   1.999  27.591   5.850
 6461POPC   GL141617   1.985  27.628   6.150
 6461POPC   GL241618   1.890  27.514   6.150
 6461POPC   C1A41619   2.035  27.551   6.450
 6461POPC   D2A41620   2.021  27.551   6.750
 6461POPC   C3A41621   2.017  27.640   7.050
 6461POPC   C4A41622   1.996  27.621   7.350
 6461POPC   C1B41623   1.906  27.332   6.450
 6461POPC   C2B41624   1.864  27.382   6.750
 6461POPC   C3B41625   1.931  27.396   7.050
 6461POPC   C4B41626   1.924  27.322   7.350
 6462POPC   NC341627  36.170  19.061   5.550
 6462POPC   PO441628  36.109  19.036   5.850
 6462POPC   GL141629  36.153  19.075   6.150
 6462POPC   GL241630  36.074  19.185   6.150
 6462POPC   C1A41631  36.164  19.095   6.450
 6462POPC   D2A41632  36.159  19.020   6.750
 6462POPC   C3A41633  36.116  19.045   7.050
 6462POPC   C4A41634  36.092  19.022   7.350
 6462POPC   C1B41635  35.938  19.281   6.450
 6462POPC   C2B41636  35.970  19.290   6.750
 6462POPC   C3B41637  35.927  19.270   7.050
 6462POPC   C4B41638  35.988  19.238   7.350
 6463POPC   NC341639   4.295  38.429   5.550
 6463POPC   PO441640   4.367  38.494   5.850
 6463POPC   GL141641   4.297  38.469   6.150
 6463POPC   GL241642   4.295  38.588   6.150
 6463POPC   C1A41643   4.280  38.461   6.450
 6463POPC   D2A41644   4.291  38.497   6.750
 6463POPC   C3A41645   4.273  38.429   7.050
 6463POPC   C4A41646   4.325  38.490   7.350
 6463POPC   C1B41647   4.277  38.685   6.450
 6463POPC   C2B41648   4.272  38.656   6.750
 6463POPC   C3B41649   4.318  38.712   7.050
 6463POPC   C4B41650   4.270  38.750   7.350
 6464POPC   NC341651  39.249  32.205   5.550
 6464POPC   PO441652  39.189  32.230   5.850
 6464POPC   GL141653  39.223  32.240   6.150
 6464POPC   GL241654  39.149  32.351   6.150
 6464POPC   C1A41655  39.195  32.225   6.450
 6464POPC   D2A41656  39.221  32.258   6.750
 6464POPC   C3A41657  39.197  32.268   7.050
 6464POPC   C4A41658  39.266  32.216   7.350
 6464POPC   C1B41659  39.163  32.478   6.450
 6464POPC   C2B41660  39.131  32.497   6.750
 6464POPC   C3B41661  39.100  32.481   7.050
 6464POPC   C4B41662  39.163  32.459   7.350
 6465POPC   NC341663   5.067  10.567   5.550
 6465POPC   PO441664   5.044  10.513   5.850
 6465POPC   GL141665   5.075  10.498   6.150
 6465POPC   GL241666   5.180  10.462   6.150
 6465POPC   C1A41667   5.078  10.533   6.450
 6465POPC   D2A41668   5.101  10.508   6.750
 6465POPC   C3A41669   5.095  10.515   7.050
 6465POPC   C4A41670   5.113  10.510   7.350
 6465POPC   C1B41671   5.252  10.348   6.450
 6465POPC   C2B41672   5.241  10.334   6.750
 6465POPC   C3B41673   5.199  10.347   7.050
 6465POPC   C4B41674   5.274  10.355   7.350
 6466POPC   NC341675   4.274  40.020   5.550
 6466POPC   PO441676   4.345  40.054   5.850
 6466POPC   GL141677   4.327  40.036   6.150
 6466POPC   GL241678   4.362  39.899   6.150
 6466POPC   C1A41679   4.284  39.997   6.450
 6466POPC   D2A41680   4.298  39.970   6.750
 6466POPC   C3A41681   4.275  39.994   7.050
 6466POPC   C4A41682   4.269  40.005   7.350
 6466POPC   C1B41683   4.525  39.844   6.450
 6466POPC   C2B41684   4.428  39.846   6.750
 6466POPC   C3B41685   4.523  39.781   7.050
 6466POPC   C4B41686   4.461  39.781   7.350
 6467POPC   NC341687  19.025   1.248   5.550
 6467POPC   PO441688  19.040   1.240   5.850
 6467POPC   GL141689  19.017   1.242   6.150
 6467POPC   GL241690  19.096   1.367   6.150
 6467POPC   C1A41691  19.057   1.245   6.450
 6467POPC   D2A41692  19.096   1.215   6.750
 6467POPC   C3A41693  19.041   1.185   7.050
 6467POPC   C4A41694  19.077   1.240   7.350
 6467POPC   C1B41695  19.154   1.422   6.450
 6467POPC   C2B41696  19.153   1.487   6.750
 6467POPC   C3B41697  19.170   1.431   7.050
 6467POPC   C4B41698  19.187   1.433   7.350
 6468POPC   NC341699   0.451  22.906   5.550
 6468POPC   PO441700   0.473  22.986   5.850
 6468POPC   GL141701   0.481  22.953   6.150
 6468POPC   GL241702   0.319  22.917   6.150
 6468POPC   C1A41703   0.415  22.910   6.450
 6468POPC   D2A41704   0.451  22.987   6.750
 6468POPC   C3A41705   0.415  22.913   7.050
 6468POPC   C4A41706   0.482  22.943   7.350
 6468POPC   C1B41707   0.209  22.931   6.450
 6468POPC   C2B41708   0.154  22.971   6.750
 6468POPC   C3B41709   0.158  22.970   7.050
 6468POPC   C4B41710   0.203  22.986   7.350
 6469POPC   NC341711   0.419  16.699   5.550
 6469POPC   PO441712   0.464  16.769   5.850
 6469POPC   GL141713   0.455  16.766   6.150
 6469POPC   GL241714   0.364  16.858   6.150
 6469POPC   C1A41715   0.421  16.757   6.450
 6469POPC   D2A41716   0.428  16.704   6.750
 6469POPC   C3A41717   0.401  16.771   7.050
 6469POPC   C4A41718   0.485  16.698   7.350
 6469POPC   C1B41719   0.308  16.915   6.450
 6469POPC   C2B41720   0.226  16.920   6.750
 6469POPC   C3B41721   0.224  16.883   7.050
 6469POPC   C4B41722   0.259  16.913   7.350
 6470POPC   NC341723  41.551   8.997   5.550
 6470POPC   PO441724  41.541   9.022   5.850
 6470POPC   GL141725  41.546   8.933   6.150
 6470POPC   GL241726  41.492   9.096   6.150
 6470POPC   C1A41727  41.559   9.018   6.450
 6470POPC   D2A41728  41.512   8.993   6.750
 6470POPC   C3A41729  41.518   8.947   7.050
 6470POPC   C4A41730  41.562   8.940   7.350
 6470POPC   C1B41731  41.424   9.242   6.450
 6470POPC   C2B41732  41.433   9.172   6.750
 6470POPC   C3B41733  41.480   9.167   7.050
 6470POPC   C4B41734  41.444   9.187   7.350
 6471POPC   NC341735  33.063  15.141   5.550
 6471POPC   PO441736  33.010  15.151   5.850
 6471POPC   GL141737  32.986  15.181   6.150
 6471POPC   GL241738  33.098  15.206   6.150
 6471POPC   C1A41739  33.064  15.160   6.450
 6471POPC   D2A41740  33.057  15.208   6.750
 6471POPC   C3A41741  32.977  15.216   7.050
 6471POPC   C4A41742  33.021  15.215   7.350
 6471POPC   C1B41743  33.240  15.260   6.450
 6471POPC   C2B41744  33.264  15.278   6.750
 6471POPC   C3B41745  33.224  15.243   7.050
 6471POPC   C4B41746  33.226  15.292   7.350
 6472POPC   NC341747  26.062   1.223   5.550
 6472POPC   PO441748  26.022   1.254   5.850
 6472POPC   GL141749  25.996   1.198   6.150
 6472POPC   GL241750  25.937   1.259   6.150
 6472POPC   C1A41751  25.993   1.236   6.450
 6472POPC   D2A41752  26.087   1.260   6.750
 6472POPC   C3A41753  25.996   1.195   7.050
 6472POPC   C4A41754  26.089   1.202   7.350
 6472POPC   C1B41755  25.783   1.392   6.450
 6472POPC   C2B41756  25.869   1.381   6.750
 6472POPC   C3B41757  25.824   1.371   7.050
 6472POPC   C4B41758  25.876   1.310   7.350
 6473POPC   NC341759  43.846   3.564   5.550
 6473POPC   PO441760  43.856   3.556   5.850
 6473POPC   GL141761  43.867   3.560   6.150
 6473POPC   GL241762  43.893   3.695   6.150
 6473POPC   C1A41763  43.848   3.493   6.450
 6473POPC   D2A41764  43.925   3.562   6.750
 6473POPC   C3A41765  43.883   3.556   7.050
 6473POPC   C4A41766  43.886   3.544   7.350
 6473POPC   C1B41767  43.966   3.810   6.450
 6473POPC   C2B41768  43.945   3.832   6.750
 6473POPC   C3B41769  43.936   3.818   7.050
 6473POPC   C4B41770  43.972   3.802   7.350
 6474POPC   NC341771  33.814  24.509   5.550
 6474POPC   PO441772  33.783  24.453   5.850
 6474POPC   GL141773  33.796  24.486   6.150
 6474POPC   GL241774  33.844  24.382   6.150
 6474POPC   C1A41775  33.754  24.497   6.450
 6474POPC   D2A41776  33.815  24.458   6.750
 6474POPC   C3A41777  33.804  24.455   7.050
 6474POPC   C4A41778  33.784  24.493   7.350
 6474POPC   C1B41779  33.771  24.208   6.450
 6474POPC   C2B41780  33.822  24.279   6.750
 6474POPC   C3B41781  33.828  24.197   7.050
 6474POPC   C4B41782  33.766  24.269   7.350
 6475POPC   NC341783  21.400  39.205   5.550
 6475POPC   PO441784  21.390  39.260   5.850
 6475POPC   GL141785  21.418  39.278   6.150
 6475POPC   GL241786  21.471  39.194   6.150
 6475POPC   C1A41787  21.410  39.213   6.450
 6475POPC   D2A41788  21.347  39.188   6.750
 6475POPC   C3A41789  21.429  39.274   7.050
 6475POPC   C4A41790  21.368  39.183   7.350
 6475POPC   C1B41791  21.624  39.244   6.450
 6475POPC   C2B41792  21.603  39.267   6.750
 6475POPC   C3B41793  21.679  39.240   7.050
 6475POPC   C4B41794  21.631  39.269   7.350
 6476POPC   NC341795  14.448   5.825   5.550
 6476POPC   PO441796  14.412   5.911   5.850
 6476POPC   GL141797  14.388   5.870   6.150
 6476POPC   GL241798  14.380   5.957   6.150
 6476POPC   C1A41799  14.362   5.870   6.450
 6476POPC   D2A41800  14.402   5.882   6.750
 6476POPC   C3A41801  14.354   5.884   7.050
 6476POPC   C4A41802  14.416   5.872   7.350
 6476POPC   C1B41803  14.321   6.149   6.450
 6476POPC   C2B41804  14.319   6.125   6.750
 6476POPC   C3B41805  14.320   6.123   7.050
 6476POPC   C4B41806  14.349   6.133   7.350
 6477POPC   NC341807  38.435  16.776   5.550
 6477POPC   PO441808  38.439  16.735   5.850
 6477POPC   GL141809  38.432  16.694   6.150
 6477POPC   GL241810  38.301  16.665   6.150
 6477POPC   C1A41811  38.482  16.747   6.450
 6477POPC   D2A41812  38.498  16.767   6.750
 6477POPC   C3A41813  38.443  16.697   7.050
 6477POPC   C4A41814  38.407  16.703   7.350
 6477POPC   C1B41815  38.282  16.622   6.450
 6477POPC   C2B41816  38.262  16.551   6.750
 6477POPC   C3B41817  38.241  16.628   7.050
 6477POPC   C4B41818  38.289  16.630   7.350
 6478POPC   NC341819  10.511  31.477   5.550
 6478POPC   PO441820  10.516  31.472   5.850
 6478POPC   GL141821  10.538  31.513   6.150
 6478POPC   GL241822  10.686  31.535   6.150
 6478POPC   C1A41823  10.571  31.423   6.450
 6478POPC   D2A41824  10.491  31.484   6.750
 6478POPC   C3A41825  10.544  31.490   7.050
 6478POPC   C4A41826  10.552  31.464   7.350
 6478POPC   C1B41827  10.779  31.559   6.450
 6478POPC   C2B41828  10.764  31.586   6.750
 6478POPC   C3B41829  10.746  31.594   7.050
 6478POPC   C4B41830  10.767  31.608   7.350
 6479POPC   NC341831  34.615   2.723   5.550
 6479POPC   PO441832  34.561   2.794   5.850
 6479POPC   GL141833  34.586   2.814   6.150
 6479POPC   GL241834  34.677   2.885   6.150
 6479POPC   C1A41835  34.549   2.813   6.450
 6479POPC   D2A41836  34.553   2.765   6.750
 6479POPC   C3A41837  34.564   2.733   7.050
 6479POPC   C4A41838  34.614   2.805   7.350
 6479POPC   C1B41839  34.761   3.008   6.450
 6479POPC   C2B41840  34.749   2.930   6.750
 6479POPC   C3B41841  34.678   2.997   7.050
 6479POPC   C4B41842  34.674   2.947   7.350
 6480POPC   NC341843   5.085  11.271   5.550
 6480POPC   PO441844   5.056  11.349   5.850
 6480POPC   GL141845   5.108  11.266   6.150
 6480POPC   GL241846   5.165  11.395   6.150
 6480POPC   C1A41847   5.130  11.290   6.450
 6480POPC   D2A41848   5.095  11.331   6.750
 6480POPC   C3A41849   5.088  11.277   7.050
 6480POPC   C4A41850   5.071  11.300   7.350
 6480POPC   C1B41851   5.279  11.408   6.450
 6480POPC   C2B41852   5.293  11.426   6.750
 6480POPC   C3B41853   5.297  11.447   7.050
 6480POPC   C4B41854   5.316  11.428   7.350
 6481POPC   NC341855  24.470  30.720   5.550
 6481POPC   PO441856  24.536  30.695   5.850
 6481POPC   GL141857  24.508  30.732   6.150
 6481POPC   GL241858  24.414  30.789   6.150
 6481POPC   C1A41859  24.449  30.671   6.450
 6481POPC   D2A41860  24.446  30.680   6.750
 6481POPC   C3A41861  24.500  30.678   7.050
 6481POPC   C4A41862  24.531  30.696   7.350
 6481POPC   C1B41863  24.257  30.889   6.450
 6481POPC   C2B41864  24.249  30.837   6.750
 6481POPC   C3B41865  24.322  30.867   7.050
 6481POPC   C4B41866  24.324  30.838   7.350
 6482POPC   NC341867  27.585   1.201   5.550
 6482POPC   PO441868  27.577   1.244   5.850
 6482POPC   GL141869  27.635   1.176   6.150
 6482POPC   GL241870  27.695   1.350   6.150
 6482POPC   C1A41871  27.635   1.231   6.450
 6482POPC   D2A41872  27.544   1.171   6.750
 6482POPC   C3A41873  27.585   1.169   7.050
 6482POPC   C4A41874  27.570   1.209   7.350
 6482POPC   C1B41875  27.799   1.373   6.450
 6482POPC   C2B41876  27.767   1.382   6.750
 6482POPC   C3B41877  27.737   1.405   7.050
 6482POPC   C4B41878  27.820   1.394   7.350
 6483POPC   NC341879  34.606   1.164   5.550
 6483POPC   PO441880  34.556   1.193   5.850
 6483POPC   GL141881  34.596   1.201   6.150
 6483POPC   GL241882  34.712   1.337   6.150
 6483POPC   C1A41883  34.595   1.252   6.450
 6483POPC   D2A41884  34.533   1.242   6.750
 6483POPC   C3A41885  34.556   1.214   7.050
 6483POPC   C4A41886  34.598   1.243   7.350
 6483POPC   C1B41887  34.763   1.365   6.450
 6483POPC   C2B41888  34.814   1.353   6.750
 6483POPC   C3B41889  34.740   1.400   7.050
 6483POPC   C4B41890  34.805   1.419   7.350
 6484POPC   NC341891   8.931   7.398   5.550
 6484POPC   PO441892   8.989   7.432   5.850
 6484POPC   GL141893   8.940   7.385   6.150
 6484POPC   GL241894   8.862   7.354   6.150
 6484POPC   C1A41895   8.929   7.404   6.450
 6484POPC   D2A41896   9.021   7.395   6.750
 6484POPC   C3A41897   8.996   7.471   7.050
 6484POPC   C4A41898   8.930   7.420   7.350
 6484POPC   C1B41899   8.732   7.271   6.450
 6484POPC   C2B41900   8.745   7.252   6.750
 6484POPC   C3B41901   8.727   7.336   7.050
 6484POPC   C4B41902   8.763   7.267   7.350
 6485POPC   NC341903  33.783   5.877   5.550
 6485POPC   PO441904  33.794   5.865   5.850
 6485POPC   GL141905  33.773   5.829   6.150
 6485POPC   GL241906  33.933   5.957   6.150
 6485POPC   C1A41907  33.816   5.829   6.450
 6485POPC   D2A41908  33.753   5.841   6.750
 6485POPC   C3A41909  33.805   5.894   7.050
 6485POPC   C4A41910  33.810   5.915   7.350
 6485POPC   C1B41911  33.999   6.024   6.450
 6485POPC   C2B41912  33.974   6.041   6.750
 6485POPC   C3B41913  34.003   5.998   7.050
 6485POPC   C4B41914  33.944   6.070   7.350
 6486POPC   NC341915  15.963   5.880   5.550
 6486POPC   PO441916  15.969   5.847   5.850
 6486POPC   GL141917  16.001   5.869   6.150
 6486POPC   GL241918  15.953   5.732   6.150
 6486POPC   C1A41919  15.950   5.823   6.450
 6486POPC   D2A41920  15.941   5.834   6.750
 6486POPC   C3A41921  16.001   5.888   7.050
 6486POPC   C4A41922  15.917   5.819   7.350
 6486POPC   C1B41923  16.038   5.625   6.450
 6486POPC   C2B41924  16.054   5.584   6.750
 6486POPC   C3B41925  15.975   5.624   7.050
 6486POPC   C4B41926  15.983   5.584   7.350
 6487POPC   NC341927   4.361  27.589   5.550
 6487POPC   PO441928   4.285  27.591   5.850
 6487POPC   GL141929   4.296  27.625   6.150
 6487POPC   GL241930   4.274  27.536   6.150
 6487POPC   C1A41931   4.275  27.612   6.450
 6487POPC   D2A41932   4.290  27.610   6.750
 6487POPC   C3A41933   4.352  27.631   7.050
 6487POPC   C4A41934   4.304  27.590   7.350
 6487POPC   C1B41935   4.133  27.389   6.450
 6487POPC   C2B41936   4.143  27.339   6.750
 6487POPC   C3B41937   4.218  27.341   7.050
 6487POPC   C4B41938   4.158  27.404   7.350
 6488POPC   NC341939  16.740  22.159   5.550
 6488POPC   PO441940  16.728  22.122   5.850
 6488POPC   GL141941  16.682  22.195   6.150
 6488POPC   GL241942  16.853  22.120   6.150
 6488POPC   C1A41943  16.721  22.152   6.450
 6488POPC   D2A41944  16.734  22.184   6.750
 6488POPC   C3A41945  16.728  22.140   7.050
 6488POPC   C4A41946  16.743  22.116   7.350
 6488POPC   C1B41947  17.023  22.176   6.450
 6488POPC   C2B41948  16.951  22.138   6.750
 6488POPC   C3B41949  17.018  22.175   7.050
 6488POPC   C4B41950  16.982  22.092   7.350
 6489POPC   NC341951   3.533   9.002   5.550
 6489POPC   PO441952   3.504   8.975   5.850
 6489POPC   GL141953   3.498   8.947   6.150
 6489POPC   GL241954   3.523   8.853   6.150
 6489POPC   C1A41955   3.559   8.971   6.450
 6489POPC   D2A41956   3.518   8.937   6.750
 6489POPC   C3A41957   3.496   8.955   7.050
 6489POPC   C4A41958   3.545   8.973   7.350
 6489POPC   C1B41959   3.427   8.737   6.450
 6489POPC   C2B41960   3.413   8.754   6.750
 6489POPC   C3B41961   3.385   8.724   7.050
 6489POPC   C4B41962   3.434   8.771   7.350
 6490POPC   NC341963  24.525  33.059   5.550
 6490POPC   PO441964  24.477  33.040   5.850
 6490POPC   GL141965  24.474  33.044   6.150
 6490POPC   GL241966  24.642  33.037   6.150
 6490POPC   C1A41967  24.449  33.034   6.450
 6490POPC   D2A41968  24.451  33.055   6.750
 6490POPC   C3A41969  24.457  33.044   7.050
 6490POPC   C4A41970  24.454  33.054   7.350
 6490POPC   C1B41971  24.779  33.111   6.450
 6490POPC   C2B41972  24.751  33.085   6.750
 6490POPC   C3B41973  24.682  33.045   7.050
 6490POPC   C4B41974  24.708  33.046   7.350
 6491POPC   NC341975  18.316  20.640   5.550
 6491POPC   PO441976  18.244  20.652   5.850
 6491POPC   GL141977  18.263  20.620   6.150
 6491POPC   GL241978  18.166  20.657   6.150
 6491POPC   C1A41979  18.295  20.634   6.450
 6491POPC   D2A41980  18.298  20.565   6.750
 6491POPC   C3A41981  18.234  20.584   7.050
 6491POPC   C4A41982  18.320  20.569   7.350
 6491POPC   C1B41983  18.018  20.661   6.450
 6491POPC   C2B41984  18.045  20.674   6.750
 6491POPC   C3B41985  18.034  20.639   7.050
 6491POPC   C4B41986  18.030  20.697   7.350
 6492POPC   NC341987   2.731  14.372   5.550
 6492POPC   PO441988   2.724  14.415   5.850
 6492POPC   GL141989   2.784  14.414   6.150
 6492POPC   GL241990   2.693  14.301   6.150
 6492POPC   C1A41991   2.738  14.451   6.450
 6492POPC   D2A41992   2.805  14.427   6.750
 6492POPC   C3A41993   2.812  14.432   7.050
 6492POPC   C4A41994   2.734  14.397   7.350
 6492POPC   C1B41995   2.574  14.269   6.450
 6492POPC   C2B41996   2.529  14.222   6.750
 6492POPC   C3B41997   2.620  14.214   7.050
 6492POPC   C4B41998   2.616  14.243   7.350
 6493POPC   NC341999  13.601  22.963   5.550
 6493POPC   PO442000  13.677  22.971   5.850
 6493POPC   GL142001  13.591  22.945   6.150
 6493POPC   GL242002  13.595  22.771   6.150
 6493POPC   C1A42003  13.645  22.967   6.450
 6493POPC   D2A42004  13.619  22.986   6.750
 6493POPC   C3A42005  13.670  22.971   7.050
 6493POPC   C4A42006  13.592  22.943   7.350
 6493POPC   C1B42007  13.632  22.723   6.450
 6493POPC   C2B42008  13.630  22.728   6.750
 6493POPC   C3B42009  13.636  22.638   7.050
 6493POPC   C4B42010  13.678  22.715   7.350
 6494POPC   NC342011  17.539  19.020   5.550
 6494POPC   PO442012  17.511  19.093   5.850
 6494POPC   GL142013  17.517  19.059   6.150
 6494POPC   GL242014  17.548  19.160   6.150
 6494POPC   C1A42015  17.551  19.090   6.450
 6494POPC   D2A42016  17.483  19.011   6.750
 6494POPC   C3A42017  17.499  19.048   7.050
 6494POPC   C4A42018  17.475  19.053   7.350
 6494POPC   C1B42019  17.531  19.351   6.450
 6494POPC   C2B42020  17.515  19.291   6.750
 6494POPC   C3B42021  17.506  19.283   7.050
 6494POPC   C4B42022  17.589  19.340   7.350
 6495POPC   NC342023  22.917  40.786   5.550
 6495POPC   PO442024  22.938  40.733   5.850
 6495POPC   GL142025  22.898  40.736   6.150
 6495POPC   GL242026  22.854  40.805   6.150
 6495POPC   C1A42027  22.950  40.831   6.450
 6495POPC   D2A42028  22.955  40.800   6.750
 6495POPC   C3A42029  22.937  40.778   7.050
 6495POPC   C4A42030  22.977  40.771   7.350
 6495POPC   C1B42031  22.754  40.958   6.450
 6495POPC   C2B42032  22.745  40.890   6.750
 6495POPC   C3B42033  22.710  40.888   7.050
 6495POPC   C4B42034  22.728  40.891   7.350
 6496POPC   NC342035  40.746  40.738   5.550
 6496POPC   PO442036  40.773  40.791   5.850
 6496POPC   GL142037  40.736  40.782   6.150
 6496POPC   GL242038  40.685  40.717   6.150
 6496POPC   C1A42039  40.763  40.749   6.450
 6496POPC   D2A42040  40.818  40.735   6.750
 6496POPC   C3A42041  40.768  40.763   7.050
 6496POPC   C4A42042  40.751  40.793   7.350
 6496POPC   C1B42043  40.667  40.619   6.450
 6496POPC   C2B42044  40.595  40.593   6.750
 6496POPC   C3B42045  40.646  40.573   7.050
 6496POPC   C4B42046  40.597  40.566   7.350
 6497POPC   NC342047  36.947  10.479   5.550
 6497POPC   PO442048  36.942  10.556   5.850
 6497POPC   GL142049  36.904  10.567   6.150
 6497POPC   GL242050  36.990  10.470   6.150
 6497POPC   C1A42051  36.926  10.534   6.450
 6497POPC   D2A42052  36.894  10.479   6.750
 6497POPC   C3A42053  36.862  10.560   7.050
 6497POPC   C4A42054  36.937  10.514   7.350
 6497POPC   C1B42055  37.115  10.466   6.450
 6497POPC   C2B42056  37.097  10.375   6.750
 6497POPC   C3B42057  37.094  10.421   7.050
 6497POPC   C4B42058  37.127  10.378   7.350
 6498POPC   NC342059  30.656  16.762   5.550
 6498POPC   PO442060  30.685  16.750   5.850
 6498POPC   GL142061  30.669  16.708   6.150
 6498POPC   GL242062  30.776  16.581   6.150
 6498POPC   C1A42063  30.680  16.749   6.450
 6498POPC   D2A42064  30.728  16.738   6.750
 6498POPC   C3A42065  30.698  16.778   7.050
 6498POPC   C4A42066  30.726  16.695   7.350
 6498POPC   C1B42067  30.796  16.491   6.450
 6498POPC   C2B42068  30.853  16.482   6.750
 6498POPC   C3B42069  30.800  16.551   7.050
 6498POPC   C4B42070  30.781  16.544   7.350
 6499POPC   NC342071  25.262  19.080   5.550
 6499POPC   PO442072  25.261  19.059   5.850
 6499POPC   GL142073  25.254  19.090   6.150
 6499POPC   GL242074  25.300  19.169   6.150
 6499POPC   C1A42075  25.229  19.080   6.450
 6499POPC   D2A42076  25.220  19.055   6.750
 6499POPC   C3A42077  25.216  19.055   7.050
 6499POPC   C4A42078  25.225  19.011   7.350
 6499POPC   C1B42079  25.316  19.356   6.450
 6499POPC   C2B42080  25.290  19.274   6.750
 6499POPC   C3B42081  25.263  19.317   7.050
 6499POPC   C4B42082  25.299  19.272   7.350
 6500POPC   NC342083  13.631  38.474   5.550
 6500POPC   PO442084  13.666  38.438   5.850
 6500POPC   GL142085  13.605  38.483   6.150
 6500POPC   GL242086  13.711  38.412   6.150
 6500POPC   C1A42087  13.594  38.415   6.450
 6500POPC   D2A42088  13.623  38.475   6.750
 6500POPC   C3A42089  13.640  38.505   7.050
 6500POPC   C4A42090  13.610  38.501   7.350
 6500POPC   C1B42091  13.888  38.377   6.450
 6500POPC   C2B42092  13.839  38.445   6.750
 6500POPC   C3B42093  13.917  38.435   7.050
 6500POPC   C4B42094  13.891  38.446   7.350
 6501POPC   NC342095  14.379  34.574   5.550
 6501POPC   PO442096  14.394  34.553   5.850
 6501POPC   GL142097  14.367  34.593   6.150
 6501POPC   GL242098  14.381  34.670   6.150
 6501POPC   C1A42099  14.415  34.596   6.450
 6501POPC   D2A42100  14.407  34.537   6.750
 6501POPC   C3A42101  14.381  34.600   7.050
 6501POPC   C4A42102  14.380  34.536   7.350
 6501POPC   C1B42103  14.406  34.861   6.450
 6501POPC   C2B42104  14.397  34.849   6.750
 6501POPC   C3B42105  14.440  34.799   7.050
 6501POPC   C4B42106  14.381  34.781   7.350
 6502POPC   NC342107  10.536  26.767   5.550
 6502POPC   PO442108  10.516  26.782   5.850
 6502POPC   GL142109  10.477  26.842   6.150
 6502POPC   GL242110  10.521  26.950   6.150
 6502POPC   C1A42111  10.496  26.842   6.450
 6502POPC   D2A42112  10.532  26.782   6.750
 6502POPC   C3A42113  10.540  26.841   7.050
 6502POPC   C4A42114  10.482  26.863   7.350
 6502POPC   C1B42115  10.486  27.086   6.450
 6502POPC   C2B42116  10.566  27.071   6.750
 6502POPC   C3B42117  10.491  27.099   7.050
 6502POPC   C4B42118  10.538  27.074   7.350
 6503POPC   NC342119  15.966  16.001   5.550
 6503POPC   PO442120  15.917  15.952   5.850
 6503POPC   GL142121  15.936  15.997   6.150
 6503POPC   GL242122  15.850  16.074   6.150
 6503POPC   C1A42123  15.965  15.907   6.450
 6503POPC   D2A42124  15.990  15.976   6.750
 6503POPC   C3A42125  15.958  16.003   7.050
 6503POPC   C4A42126  15.951  15.971   7.350
 6503POPC   C1B42127  15.775  16.102   6.450
 6503POPC   C2B42128  15.805  16.115   6.750
 6503POPC   C3B42129  15.784  16.141   7.050
 6503POPC   C4B42130  15.742  16.150   7.350
 6504POPC   NC342131  43.881  12.076   5.550
 6504POPC   PO442132  43.893  12.113   5.850
 6504POPC   GL142133  43.932  12.047   6.150
 6504POPC   GL242134  43.931  12.223   6.150
 6504POPC   C1A42135  43.881  12.100   6.450
 6504POPC   D2A42136  43.873  12.059   6.750
 6504POPC   C3A42137  43.902  12.080   7.050
 6504POPC   C4A42138  43.869  12.097   7.350
 6504POPC   C1B42139  44.033  12.239   6.450
 6504POPC   C2B42140  44.027  12.261   6.750
 6504POPC   C3B42141  44.057  12.314   7.050
 6504POPC   C4B42142  44.078  12.304   7.350
 6505POPC   NC342143  42.321  12.869   5.550
 6505POPC   PO442144  42.348  12.806   5.850
 6505POPC   GL142145  42.340  12.844   6.150
 6505POPC   GL242146  42.454  12.912   6.150
 6505POPC   C1A42147  42.360  12.863   6.450
 6505POPC   D2A42148  42.309  12.880   6.750
 6505POPC   C3A42149  42.379  12.853   7.050
 6505POPC   C4A42150  42.364  12.864   7.350
 6505POPC   C1B42151  42.615  12.912   6.450
 6505POPC   C2B42152  42.560  12.931   6.750
 6505POPC   C3B42153  42.532  12.942   7.050
 6505POPC   C4B42154  42.527  12.912   7.350
 6506POPC   NC342155  29.108  39.258   5.550
 6506POPC   PO442156  29.136  39.262   5.850
 6506POPC   GL142157  29.112  39.237   6.150
 6506POPC   GL242158  29.277  39.309   6.150
 6506POPC   C1A42159  29.187  39.263   6.450
 6506POPC   D2A42160  29.189  39.190   6.750
 6506POPC   C3A42161  29.136  39.192   7.050
 6506POPC   C4A42162  29.175  39.193   7.350
 6506POPC   C1B42163  29.356  39.371   6.450
 6506POPC   C2B42164  29.404  39.367   6.750
 6506POPC   C3B42165  29.354  39.295   7.050
 6506POPC   C4B42166  29.390  39.327   7.350
 6507POPC   NC342167  27.607  36.880   5.550
 6507POPC   PO442168  27.602  36.865   5.850
 6507POPC   GL142169  27.627  36.941   6.150
 6507POPC   GL242170  27.586  36.830   6.150
 6507POPC   C1A42171  27.587  36.892   6.450
 6507POPC   D2A42172  27.641  36.875   6.750
 6507POPC   C3A42173  27.574  36.882   7.050
 6507POPC   C4A42174  27.569  36.947   7.350
 6507POPC   C1B42175  27.497  36.654   6.450
 6507POPC   C2B42176  27.519  36.665   6.750
 6507POPC   C3B42177  27.498  36.637   7.050
 6507POPC   C4B42178  27.487  36.633   7.350
 6508POPC   NC342179  10.565  36.169   5.550
 6508POPC   PO442180  10.478  36.087   5.850
 6508POPC   GL142181  10.531  36.080   6.150
 6508POPC   GL242182  10.369  36.164   6.150
 6508POPC   C1A42183  10.512  36.103   6.450
 6508POPC   D2A42184  10.536  36.144   6.750
 6508POPC   C3A42185  10.562  36.169   7.050
 6508POPC   C4A42186  10.485  36.121   7.350
 6508POPC   C1B42187  10.278  36.239   6.450
 6508POPC   C2B42188  10.292  36.231   6.750
 6508POPC   C3B42189  10.303  36.289   7.050
 6508POPC   C4B42190  10.362  36.215   7.350
 6509POPC   NC342191   4.303   8.149   5.550
 6509POPC   PO442192   4.310   8.180   5.850
 6509POPC   GL142193   4.344   8.238   6.150
 6509POPC   GL242194   4.382   8.090   6.150
 6509POPC   C1A42195   4.332   8.150   6.450
 6509POPC   D2A42196   4.366   8.231   6.750
 6509POPC   C3A42197   4.351   8.151   7.050
 6509POPC   C4A42198   4.313   8.220   7.350
 6509POPC   C1B42199   4.451   8.000   6.450
 6509POPC   C2B42200   4.461   7.973   6.750
 6509POPC   C3B42201   4.421   7.943   7.050
 6509POPC   C4B42202   4.398   7.937   7.350
 6510POPC   NC342203  25.997   8.151   5.550
 6510POPC   PO442204  26.085   8.156   5.850
 6510POPC   GL142205  26.043   8.179   6.150
 6510POPC   GL242206  25.962   8.120   6.150
 6510POPC   C1A42207  26.061   8.230   6.450
 6510POPC   D2A42208  26.065   8.215   6.750
 6510POPC   C3A42209  26.050   8.186   7.050
 6510POPC   C4A42210  25.992   8.217   7.350
 6510POPC   C1B42211  25.779   8.084   6.450
 6510POPC   C2B42212  25.838   8.094   6.750
 6510POPC   C3B42213  25.869   8.076   7.050
 6510POPC   C4B42214  25.803   8.073   7.350
 6511POPC   NC342215  26.824  30.653   5.550
 6511POPC   PO442216  26.791  30.744   5.850
 6511POPC   GL142217  26.808  30.714   6.150
 6511POPC   GL242218  26.756  30.770   6.150
 6511POPC   C1A42219  26.827  30.705   6.450
 6511POPC   D2A42220  26.812  30.684   6.750
 6511POPC   C3A42221  26.824  30.688   7.050
 6511POPC   C4A42222  26.773  30.666   7.350
 6511POPC   C1B42223  26.756  30.960   6.450
 6511POPC   C2B42224  26.758  30.921   6.750
 6511POPC   C3B42225  26.804  30.934   7.050
 6511POPC   C4B42226  26.736  30.891   7.350
 6512POPC   NC342227  13.585  43.903   5.550
 6512POPC   PO442228  13.590  43.893   5.850
 6512POPC   GL142229  13.585  43.872   6.150
 6512POPC   GL242230  13.540  43.828   6.150
 6512POPC   C1A42231  13.669  43.910   6.450
 6512POPC   D2A42232  13.629  43.884   6.750
 6512POPC   C3A42233  13.596  43.841   7.050
 6512POPC   C4A42234  13.626  43.867   7.350
 6512POPC   C1B42235  13.481  43.721   6.450
 6512POPC   C2B42236  13.428  43.751   6.750
 6512POPC   C3B42237  13.445  43.668   7.050
 6512POPC   C4B42238  13.435  43.717   7.350
 6513POPC   NC342239   3.575  36.160   5.550
 6513POPC   PO442240   3.563  36.106   5.850
 6513POPC   GL142241   3.542  36.160   6.150
 6513POPC   GL242242   3.465  36.271   6.150
 6513POPC   C1A42243   3.565  36.116   6.450
 6513POPC   D2A42244   3.583  36.109   6.750
 6513POPC   C3A42245   3.535  36.079   7.050
 6513POPC   C4A42246   3.529  36.134   7.350
 6513POPC   C1B42247   3.383  36.308   6.450
 6513POPC   C2B42248   3.390  36.399   6.750
 6513POPC   C3B42249   3.423  36.322   7.050
 6513POPC   C4B42250   3.433  36.340   7.350
 6514POPC   NC342251  40.770  33.785   5.550
 6514POPC   PO442252  40.753  33.844   5.850
 6514POPC   GL142253  40.831  33.849   6.150
 6514POPC   GL242254  40.693  33.921   6.150
 6514POPC   C1A42255  40.831  33.823   6.450
 6514POPC   D2A42256  40.780  33.844   6.750
 6514POPC   C3A42257  40.825  33.811   7.050
 6514POPC   C4A42258  40.823  33.821   7.350
 6514POPC   C1B42259  40.663  33.964   6.450
 6514POPC   C2B42260  40.641  34.029   6.750
 6514POPC   C3B42261  40.681  33.963   7.050
 6514POPC   C4B42262  40.681  34.046   7.350
 6515POPC   NC342263  27.589  29.919   5.550
 6515POPC   PO442264  27.556  29.882   5.850
 6515POPC   GL142265  27.556  29.967   6.150
 6515POPC   GL242266  27.670  30.027   6.150
 6515POPC   C1A42267  27.559  29.949   6.450
 6515POPC   D2A42268  27.574  29.917   6.750
 6515POPC   C3A42269  27.573  29.962   7.050
 6515POPC   C4A42270  27.601  29.896   7.350
 6515POPC   C1B42271  27.801  30.102   6.450
 6515POPC   C2B42272  27.741  30.097   6.750
 6515POPC   C3B42273  27.739  30.084   7.050
 6515POPC   C4B42274  27.822  30.094   7.350
 6516POPC   NC342275  32.284  19.029   5.550
 6516POPC   PO442276  32.272  19.072   5.850
 6516POPC   GL142277  32.222  19.049   6.150
 6516POPC   GL242278  32.246  19.207   6.150
 6516POPC   C1A42279  32.292  19.090   6.450
 6516POPC   D2A42280  32.259  19.014   6.750
 6516POPC   C3A42281  32.221  19.091   7.050
 6516POPC   C4A42282  32.297  19.052   7.350
 6516POPC   C1B42283  32.226  19.338   6.450
 6516POPC   C2B42284  32.265  19.324   6.750
 6516POPC   C3B42285  32.264  19.307   7.050
 6516POPC   C4B42286  32.297  19.345   7.350
 6517POPC   NC342287  42.295  40.774   5.550
 6517POPC   PO442288  42.378  40.752   5.850
 6517POPC   GL142289  42.320  40.831   6.150
 6517POPC   GL242290  42.253  40.774   6.150
 6517POPC   C1A42291  42.296  40.744   6.450
 6517POPC   D2A42292  42.329  40.776   6.750
 6517POPC   C3A42293  42.344  40.800   7.050
 6517POPC   C4A42294  42.341  40.800   7.350
 6517POPC   C1B42295  42.053  40.686   6.450
 6517POPC   C2B42296  42.102  40.717   6.750
 6517POPC   C3B42297  42.061  40.768   7.050
 6517POPC   C4B42298  42.082  40.704   7.350
 6518POPC   NC342299  43.062  25.997   5.550
 6518POPC   PO442300  43.115  26.053   5.850
 6518POPC   GL142301  43.160  26.040   6.150
 6518POPC   GL242302  43.028  25.955   6.150
 6518POPC   C1A42303  43.133  26.040   6.450
 6518POPC   D2A42304  43.154  26.039   6.750
 6518POPC   C3A42305  43.149  26.002   7.050
 6518POPC   C4A42306  43.093  26.035   7.350
 6518POPC   C1B42307  42.915  25.971   6.450
 6518POPC   C2B42308  42.870  25.971   6.750
 6518POPC   C3B42309  42.920  26.009   7.050
 6518POPC   C4B42310  42.922  25.971   7.350
 6519POPC   NC342311   1.191  42.300   5.550
 6519POPC   PO442312   1.209  42.367   5.850
 6519POPC   GL142313   1.213  42.354   6.150
 6519POPC   GL242314   1.255  42.262   6.150
 6519POPC   C1A42315   1.170  42.335   6.450
 6519POPC   D2A42316   1.258  42.369   6.750
 6519POPC   C3A42317   1.221  42.292   7.050
 6519POPC   C4A42318   1.185  42.319   7.350
 6519POPC   C1B42319   1.341  42.175   6.450
 6519POPC   C2B42320   1.352  42.121   6.750
 6519POPC   C3B42321   1.427  42.204   7.050
 6519POPC   C4B42322   1.367  42.134   7.350
 6520POPC   NC342323  22.209  15.186   5.550
 6520POPC   PO442324  22.202  15.134   5.850
 6520POPC   GL142325  22.136  15.211   6.150
 6520POPC   GL242326  22.189  15.087   6.150
 6520POPC   C1A42327  22.210  15.178   6.450
 6520POPC   D2A42328  22.211  15.178   6.750
 6520POPC   C3A42329  22.186  15.189   7.050
 6520POPC   C4A42330  22.179  15.134   7.350
 6520POPC   C1B42331  22.281  14.989   6.450
 6520POPC   C2B42332  22.191  14.924   6.750
 6520POPC   C3B42333  22.281  14.951   7.050
 6520POPC   C4B42334  22.262  14.929   7.350
 6521POPC   NC342335  28.343  29.938   5.550
 6521POPC   PO442336  28.384  29.876   5.850
 6521POPC   GL142337  28.411  29.884   6.150
 6521POPC   GL242338  28.373  29.778   6.150
 6521POPC   C1A42339  28.399  29.931   6.450
 6521POPC   D2A42340  28.402  29.918   6.750
 6521POPC   C3A42341  28.393  29.908   7.050
 6521POPC   C4A42342  28.392  29.906   7.350
 6521POPC   C1B42343  28.468  29.714   6.450
 6521POPC   C2B42344  28.440  29.694   6.750
 6521POPC   C3B42345  28.419  29.661   7.050
 6521POPC   C4B42346  28.385  29.653   7.350
 6522POPC   NC342347  28.391  43.076   5.550
 6522POPC   PO442348  28.349  43.127   5.850
 6522POPC   GL142349  28.412  43.087   6.150
 6522POPC   GL242350  28.369  43.026   6.150
 6522POPC   C1A42351  28.326  43.084   6.450
 6522POPC   D2A42352  28.375  43.158   6.750
 6522POPC   C3A42353  28.417  43.095   7.050
 6522POPC   C4A42354  28.405  43.101   7.350
 6522POPC   C1B42355  28.513  42.895   6.450
 6522POPC   C2B42356  28.438  42.865   6.750
 6522POPC   C3B42357  28.463  42.891   7.050
 6522POPC   C4B42358  28.512  42.855   7.350
 6523POPC   NC342359  40.807  41.592   5.550
 6523POPC   PO442360  40.736  41.605   5.850
 6523POPC   GL142361  40.828  41.606   6.150
 6523POPC   GL242362  40.701  41.547   6.150
 6523POPC   C1A42363  40.739  41.557   6.450
 6523POPC   D2A42364  40.798  41.519   6.750
 6523POPC   C3A42365  40.789  41.565   7.050
 6523POPC   C4A42366  40.803  41.519   7.350
 6523POPC   C1B42367  40.545  41.611   6.450
 6523POPC   C2B42368  40.572  41.592   6.750
 6523POPC   C3B42369  40.583  41.598   7.050
 6523POPC   C4B42370  40.530  41.601   7.350
 6524POPC   NC342371  32.235   8.228   5.550
 6524POPC   PO442372  32.242   8.175   5.850
 6524POPC   GL142373  32.287   8.218   6.150
 6524POPC   GL242374  32.384   8.132   6.150
 6524POPC   C1A42375  32.275   8.241   6.450
 6524POPC   D2A42376  32.232   8.173   6.750
 6524POPC   C3A42377  32.284   8.202   7.050
 6524POPC   C4A42378  32.209   8.190   7.350
 6524POPC   C1B42379  32.496   8.140   6.450
 6524POPC   C2B42380  32.476   8.104   6.750
 6524POPC   C3B42381  32.452   8.099   7.050
 6524POPC   C4B42382  32.524   8.121   7.350
 6525POPC   NC342383  19.018  27.605   5.550
 6525POPC   PO442384  19.014  27.569   5.850
 6525POPC   GL142385  19.063  27.590   6.150
 6525POPC   GL242386  19.099  27.765   6.150
 6525POPC   C1A42387  19.092  27.630   6.450
 6525POPC   D2A42388  19.092  27.567   6.750
 6525POPC   C3A42389  19.054  27.567   7.050
 6525POPC   C4A42390  19.018  27.556   7.350
 6525POPC   C1B42391  19.129  27.880   6.450
 6525POPC   C2B42392  19.105  27.830   6.750
 6525POPC   C3B42393  19.126  27.828   7.050
 6525POPC   C4B42394  19.124  27.881   7.350
 6526POPC   NC342395   1.955  13.663   5.550
 6526POPC   PO442396   2.034  13.588   5.850
 6526POPC   GL142397   2.004  13.611   6.150
 6526POPC   GL242398   1.913  13.710   6.150
 6526POPC   C1A42399   1.985  13.636   6.450
 6526POPC   D2A42400   2.013  13.614   6.750
 6526POPC   C3A42401   1.977  13.587   7.050
 6526POPC   C4A42402   2.029  13.595   7.350
 6526POPC   C1B42403   1.875  13.883   6.450
 6526POPC   C2B42404   1.862  13.872   6.750
 6526POPC   C3B42405   1.921  13.862   7.050
 6526POPC   C4B42406   1.859  13.854   7.350
 6527POPC   NC342407  38.416  27.635   5.550
 6527POPC   PO442408  38.486  27.577   5.850
 6527POPC   GL142409  38.427  27.608   6.150
 6527POPC   GL242410  38.525  27.686   6.150
 6527POPC   C1A42411  38.491  27.612   6.450
 6527POPC   D2A42412  38.426  27.615   6.750
 6527POPC   C3A42413  38.424  27.609   7.050
 6527POPC   C4A42414  38.477  27.613   7.350
 6527POPC   C1B42415  38.564  27.808   6.450
 6527POPC   C2B42416  38.589  27.858   6.750
 6527POPC   C3B42417  38.593  27.809   7.050
 6527POPC   C4B42418  38.555  27.797   7.350
 6528POPC   NC342419  24.535  15.153   5.550
 6528POPC   PO442420  24.483  15.205   5.850
 6528POPC   GL142421  24.532  15.142   6.150
 6528POPC   GL242422  24.484  15.059   6.150
 6528POPC   C1A42423  24.502  15.141   6.450
 6528POPC   D2A42424  24.453  15.168   6.750
 6528POPC   C3A42425  24.509  15.201   7.050
 6528POPC   C4A42426  24.456  15.227   7.350
 6528POPC   C1B42427  24.513  14.939   6.450
 6528POPC   C2B42428  24.544  14.947   6.750
 6528POPC   C3B42429  24.527  14.899   7.050
 6528POPC   C4B42430  24.491  14.957   7.350
 6529POPC   NC342431  32.218  19.854   5.550
 6529POPC   PO442432  32.234  19.863   5.850
 6529POPC   GL142433  32.245  19.878   6.150
 6529POPC   GL242434  32.171  19.891   6.150
 6529POPC   C1A42435  32.283  19.800   6.450
 6529POPC   D2A42436  32.259  19.846   6.750
 6529POPC   C3A42437  32.213  19.863   7.050
 6529POPC   C4A42438  32.247  19.792   7.350
 6529POPC   C1B42439  32.022  19.947   6.450
 6529POPC   C2B42440  31.968  19.913   6.750
 6529POPC   C3B42441  31.980  19.870   7.050
 6529POPC   C4B42442  32.013  19.859   7.350
 6530POPC   NC342443   7.445  31.427   5.550
 6530POPC   PO442444   7.462  31.487   5.850
 6530POPC   GL142445   7.463  31.441   6.150
 6530POPC   GL242446   7.425  31.627   6.150
 6530POPC   C1A42447   7.410  31.467   6.450
 6530POPC   D2A42448   7.424  31.426   6.750
 6530POPC   C3A42449   7.443  31.476   7.050
 6530POPC   C4A42450   7.431  31.521   7.350
 6530POPC   C1B42451   7.507  31.693   6.450
 6530POPC   C2B42452   7.523  31.674   6.750
 6530POPC   C3B42453   7.488  31.739   7.050
 6530POPC   C4B42454   7.481  31.746   7.350
 6531POPC   NC342455   4.367  36.949   5.550
 6531POPC   PO442456   4.365  36.914   5.850
 6531POPC   GL142457   4.318  36.909   6.150
 6531POPC   GL242458   4.483  36.897   6.150
 6531POPC   C1A42459   4.364  36.877   6.450
 6531POPC   D2A42460   4.352  36.941   6.750
 6531POPC   C3A42461   4.269  36.909   7.050
 6531POPC   C4A42462   4.306  36.883   7.350
 6531POPC   C1B42463   4.598  36.991   6.450
 6531POPC   C2B42464   4.526  36.948   6.750
 6531POPC   C3B42465   4.576  36.933   7.050
 6531POPC   C4B42466   4.574  36.964   7.350
 6532POPC   NC342467  12.065  38.431   5.550
 6532POPC   PO442468  12.084  38.436   5.850
 6532POPC   GL142469  12.078  38.412   6.150
 6532POPC   GL242470  12.139  38.599   6.150
 6532POPC   C1A42471  12.080  38.494   6.450
 6532POPC   D2A42472  12.047  38.485   6.750
 6532POPC   C3A42473  12.094  38.486   7.050
 6532POPC   C4A42474  12.029  38.407   7.350
 6532POPC   C1B42475  12.154  38.672   6.450
 6532POPC   C2B42476  12.161  38.680   6.750
 6532POPC   C3B42477  12.171  38.653   7.050
 6532POPC   C4B42478  12.188  38.664   7.350
 6533POPC   NC342479  37.652  13.607   5.550
 6533POPC   PO442480  37.666  13.606   5.850
 6533POPC   GL142481  37.649  13.579   6.150
 6533POPC   GL242482  37.646  13.745   6.150
 6533POPC   C1A42483  37.669  13.625   6.450
 6533POPC   D2A42484  37.697  13.668   6.750
 6533POPC   C3A42485  37.690  13.626   7.050
 6533POPC   C4A42486  37.640  13.602   7.350
 6533POPC   C1B42487  37.578  13.908   6.450
 6533POPC   C2B42488  37.576  13.881   6.750
 6533POPC   C3B42489  37.657  13.852   7.050
 6533POPC   C4B42490  37.655  13.876   7.350
 6534POPC   NC342491  30.663  20.600   5.550
 6534POPC   PO442492  30.722  20.584   5.850
 6534POPC   GL142493  30.718  20.600   6.150
 6534POPC   GL242494  30.765  20.667   6.150
 6534POPC   C1A42495  30.726  20.595   6.450
 6534POPC   D2A42496  30.726  20.590   6.750
 6534POPC   C3A42497  30.656  20.588   7.050
 6534POPC   C4A42498  30.662  20.635   7.350
 6534POPC   C1B42499  30.821  20.785   6.450
 6534POPC   C2B42500  30.828  20.804   6.750
 6534POPC   C3B42501  30.832  20.793   7.050
 6534POPC   C4B42502  30.834  20.806   7.350
 6535POPC   NC342503   1.969  20.571   5.550
 6535POPC   PO442504   2.002  20.561   5.850
 6535POPC   GL142505   2.010  20.604   6.150
 6535POPC   GL242506   2.091  20.645   6.150
 6535POPC   C1A42507   1.942  20.613   6.450
 6535POPC   D2A42508   2.017  20.607   6.750
 6535POPC   C3A42509   1.954  20.593   7.050
 6535POPC   C4A42510   1.965  20.636   7.350
 6535POPC   C1B42511   2.248  20.684   6.450
 6535POPC   C2B42512   2.200  20.721   6.750
 6535POPC   C3B42513   2.181  20.686   7.050
 6535POPC   C4B42514   2.198  20.721   7.350
 6536POPC   NC342515  39.220  32.977   5.550
 6536POPC   PO442516  39.232  33.064   5.850
 6536POPC   GL142517  39.255  32.991   6.150
 6536POPC   GL242518  39.356  33.013   6.150
 6536POPC   C1A42519  39.202  33.060   6.450
 6536POPC   D2A42520  39.204  33.034   6.750
 6536POPC   C3A42521  39.234  32.986   7.050
 6536POPC   C4A42522  39.253  33.048   7.350
 6536POPC   C1B42523  39.430  33.123   6.450
 6536POPC   C2B42524  39.502  33.118   6.750
 6536POPC   C3B42525  39.445  33.037   7.050
 6536POPC   C4B42526  39.437  33.104   7.350
 6537POPC   NC342527  44.683  22.978   5.550
 6537POPC   PO442528  44.674  22.952   5.850
 6537POPC   GL142529  44.683  22.907   6.150
 6537POPC   GL242530  44.730  23.002   6.150
 6537POPC   C1A42531  44.711  22.908   6.450
 6537POPC   D2A42532  44.625  22.901   6.750
 6537POPC   C3A42533  44.706  22.895   7.050
 6537POPC   C4A42534  44.656  22.984   7.350
 6537POPC   C1B42535  44.835  23.116   6.450
 6537POPC   C2B42536  44.811  23.141   6.750
 6537POPC   C3B42537  44.844  23.080   7.050
 6537POPC   C4B42538  44.796  23.159   7.350
 6538POPC   NC342539   8.195  32.296   5.550
 6538POPC   PO442540   8.202  32.200   5.850
 6538POPC   GL142541   8.219  32.255   6.150
 6538POPC   GL242542   8.103  32.350   6.150
 6538POPC   C1A42543   8.180  32.273   6.450
 6538POPC   D2A42544   8.186  32.286   6.750
 6538POPC   C3A42545   8.160  32.220   7.050
 6538POPC   C4A42546   8.223  32.266   7.350
 6538POPC   C1B42547   8.013  32.449   6.450
 6538POPC   C2B42548   8.008  32.462   6.750
 6538POPC   C3B42549   8.010  32.448   7.050
 6538POPC   C4B42550   7.997  32.395   7.350
 6539POPC   NC342551  17.492  39.975   5.550
 6539POPC   PO442552  17.461  39.987   5.850
 6539POPC   GL142553  17.466  40.017   6.150
 6539POPC   GL242554  17.565  39.850   6.150
 6539POPC   C1A42555  17.535  39.966   6.450
 6539POPC   D2A42556  17.557  39.990   6.750
 6539POPC   C3A42557  17.460  40.024   7.050
 6539POPC   C4A42558  17.465  40.039   7.350
 6539POPC   C1B42559  17.657  39.796   6.450
 6539POPC   C2B42560  17.620  39.742   6.750
 6539POPC   C3B42561  17.604  39.810   7.050
 6539POPC   C4B42562  17.570  39.828   7.350
 6540POPC   NC342563  14.381   6.669   5.550
 6540POPC   PO442564  14.376   6.668   5.850
 6540POPC   GL142565  14.395   6.603   6.150
 6540POPC   GL242566  14.238   6.586   6.150
 6540POPC   C1A42567  14.397   6.655   6.450
 6540POPC   D2A42568  14.426   6.620   6.750
 6540POPC   C3A42569  14.395   6.606   7.050
 6540POPC   C4A42570  14.390   6.618   7.350
 6540POPC   C1B42571  14.176   6.614   6.450
 6540POPC   C2B42572  14.132   6.600   6.750
 6540POPC   C3B42573  14.199   6.555   7.050
 6540POPC   C4B42574  14.157   6.602   7.350
 6541POPC   NC342575  39.199  34.569   5.550
 6541POPC   PO442576  39.249  34.607   5.850
 6541POPC   GL142577  39.202  34.562   6.150
 6541POPC   GL242578  39.146  34.437   6.150
 6541POPC   C1A42579  39.280  34.581   6.450
 6541POPC   D2A42580  39.206  34.560   6.750
 6541POPC   C3A42581  39.239  34.616   7.050
 6541POPC   C4A42582  39.247  34.620   7.350
 6541POPC   C1B42583  39.106  34.410   6.450
 6541POPC   C2B42584  39.047  34.380   6.750
 6541POPC   C3B42585  39.088  34.390   7.050
 6541POPC   C4B42586  39.062  34.364   7.350
 6542POPC   NC342587  13.638   8.941   5.550
 6542POPC   PO442588  13.604   8.952   5.850
 6542POPC   GL142589  13.587   8.954   6.150
 6542POPC   GL242590  13.657   8.823   6.150
 6542POPC   C1A42591  13.589   8.939   6.450
 6542POPC   D2A42592  13.584   8.994   6.750
 6542POPC   C3A42593  13.649   8.948   7.050
 6542POPC   C4A42594  13.642   9.002   7.350
 6542POPC   C1B42595  13.718   8.714   6.450
 6542POPC   C2B42596  13.708   8.754   6.750
 6542POPC   C3B42597  13.738   8.717   7.050
 6542POPC   C4B42598  13.765   8.739   7.350
 6543POPC   NC342599  34.570  30.660   5.550
 6543POPC   PO442600  34.580  30.653   5.850
 6543POPC   GL142601  34.526  30.705   6.150
 6543POPC   GL242602  34.613  30.769   6.150
 6543POPC   C1A42603  34.621  30.733   6.450
 6543POPC   D2A42604  34.564  30.730   6.750
 6543POPC   C3A42605  34.614  30.728   7.050
 6543POPC   C4A42606  34.592  30.717   7.350
 6543POPC   C1B42607  34.695  30.887   6.450
 6543POPC   C2B42608  34.688  30.936   6.750
 6543POPC   C3B42609  34.725  30.898   7.050
 6543POPC   C4B42610  34.651  30.930   7.350
 6544POPC   NC342611   4.311  25.272   5.550
 6544POPC   PO442612   4.311  25.225   5.850
 6544POPC   GL142613   4.329  25.226   6.150
 6544POPC   GL242614   4.324  25.163   6.150
 6544POPC   C1A42615   4.352  25.241   6.450
 6544POPC   D2A42616   4.354  25.227   6.750
 6544POPC   C3A42617   4.282  25.282   7.050
 6544POPC   C4A42618   4.271  25.267   7.350
 6544POPC   C1B42619   4.392  25.049   6.450
 6544POPC   C2B42620   4.315  24.980   6.750
 6544POPC   C3B42621   4.305  25.056   7.050
 6544POPC   C4B42622   4.375  24.990   7.350
 6545POPC   NC342623  39.244   3.569   5.550
 6545POPC   PO442624  39.210   3.498   5.850
 6545POPC   GL142625  39.188   3.570   6.150
 6545POPC   GL242626  39.290   3.610   6.150
 6545POPC   C1A42627  39.190   3.533   6.450
 6545POPC   D2A42628  39.225   3.507   6.750
 6545POPC   C3A42629  39.217   3.534   7.050
 6545POPC   C4A42630  39.280   3.581   7.350
 6545POPC   C1B42631  39.382   3.738   6.450
 6545POPC   C2B42632  39.428   3.745   6.750
 6545POPC   C3B42633  39.399   3.763   7.050
 6545POPC   C4B42634  39.372   3.753   7.350
 6546POPC   NC342635   9.699  10.512   5.550
 6546POPC   PO442636   9.702  10.479   5.850
 6546POPC   GL142637   9.792  10.540   6.150
 6546POPC   GL242638   9.601  10.474   6.150
 6546POPC   C1A42639   9.761  10.517   6.450
 6546POPC   D2A42640   9.704  10.523   6.750
 6546POPC   C3A42641   9.774  10.476   7.050
 6546POPC   C4A42642   9.790  10.561   7.350
 6546POPC   C1B42643   9.551  10.391   6.450
 6546POPC   C2B42644   9.555  10.402   6.750
 6546POPC   C3B42645   9.530  10.418   7.050
 6546POPC   C4B42646   9.537  10.344   7.350
 6547POPC   NC342647  27.599  13.633   5.550
 6547POPC   PO442648  27.630  13.599   5.850
 6547POPC   GL142649  27.576  13.645   6.150
 6547POPC   GL242650  27.588  13.547   6.150
 6547POPC   C1A42651  27.607  13.655   6.450
 6547POPC   D2A42652  27.547  13.636   6.750
 6547POPC   C3A42653  27.614  13.663   7.050
 6547POPC   C4A42654  27.604  13.599   7.350
 6547POPC   C1B42655  27.661  13.375   6.450
 6547POPC   C2B42656  27.661  13.334   6.750
 6547POPC   C3B42657  27.603  13.396   7.050
 6547POPC   C4B42658  27.578  13.356   7.350
 6548POPC   NC342659  36.900  16.697   5.550
 6548POPC   PO442660  36.927  16.764   5.850
 6548POPC   GL142661  36.896  16.730   6.150
 6548POPC   GL242662  36.805  16.697   6.150
 6548POPC   C1A42663  36.910  16.702   6.450
 6548POPC   D2A42664  36.951  16.696   6.750
 6548POPC   C3A42665  36.872  16.770   7.050
 6548POPC   C4A42666  36.887  16.690   7.350
 6548POPC   C1B42667  36.631  16.631   6.450
 6548POPC   C2B42668  36.662  16.581   6.750
 6548POPC   C3B42669  36.666  16.582   7.050
 6548POPC   C4B42670  36.647  16.636   7.350
 6549POPC   NC342671  17.469  42.362   5.550
 6549POPC   PO442672  17.499  42.368   5.850
 6549POPC   GL142673  17.488  42.329   6.150
 6549POPC   GL242674  17.464  42.270   6.150
 6549POPC   C1A42675  17.501  42.290   6.450
 6549POPC   D2A42676  17.479  42.378   6.750
 6549POPC   C3A42677  17.526  42.304   7.050
 6549POPC   C4A42678  17.538  42.349   7.350
 6549POPC   C1B42679  17.413  42.108   6.450
 6549POPC   C2B42680  17.355  42.087   6.750
 6549POPC   C3B42681  17.376  42.113   7.050
 6549POPC   C4B42682  17.375  42.074   7.350
 6550POPC   NC342683  44.682  31.500   5.550
 6550POPC   PO442684  44.613  31.458   5.850
 6550POPC   GL142685  44.701  31.522   6.150
 6550POPC   GL242686  44.765  31.473   6.150
 6550POPC   C1A42687  44.675  31.440   6.450
 6550POPC   D2A42688  44.703  31.469   6.750
 6550POPC   C3A42689  44.659  31.462   7.050
 6550POPC   C4A42690  44.620  31.466   7.350
 6550POPC   C1B42691  44.877  31.489   6.450
 6550POPC   C2B42692  44.891  31.414   6.750
 6550POPC   C3B42693  44.954  31.455   7.050
 6550POPC   C4B42694  44.916  31.463   7.350
 6551POPC   NC342695   7.450  14.436   5.550
 6551POPC   PO442696   7.397  14.403   5.850
 6551POPC   GL142697   7.469  14.380   6.150
 6551POPC   GL242698   7.287  14.418   6.150
 6551POPC   C1A42699   7.405  14.359   6.450
 6551POPC   D2A42700   7.441  14.431   6.750
 6551POPC   C3A42701   7.400  14.406   7.050
 6551POPC   C4A42702   7.407  14.422   7.350
 6551POPC   C1B42703   7.220  14.473   6.450
 6551POPC   C2B42704   7.181  14.511   6.750
 6551POPC   C3B42705   7.202  14.423   7.050
 6551POPC   C4B42706   7.153  14.446   7.350
 6552POPC   NC342707  28.387   2.023   5.550
 6552POPC   PO442708  28.412   1.986   5.850
 6552POPC   GL142709  28.347   1.987   6.150
 6552POPC   GL242710  28.509   2.042   6.150
 6552POPC   C1A42711  28.352   2.010   6.450
 6552POPC   D2A42712  28.391   1.946   6.750
 6552POPC   C3A42713  28.336   1.954   7.050
 6552POPC   C4A42714  28.367   1.980   7.350
 6552POPC   C1B42715  28.543   2.111   6.450
 6552POPC   C2B42716  28.629   2.139   6.750
 6552POPC   C3B42717  28.624   2.063   7.050
 6552POPC   C4B42718  28.538   2.117   7.350
 6553POPC   NC342719   3.586  43.144   5.550
 6553POPC   PO442720   3.532  43.138   5.850
 6553POPC   GL142721   3.543  43.149   6.150
 6553POPC   GL242722   3.596  43.078   6.150
 6553POPC   C1A42723   3.531  43.110   6.450
 6553POPC   D2A42724   3.556  43.135   6.750
 6553POPC   C3A42725   3.584  43.135   7.050
 6553POPC   C4A42726   3.549  43.129   7.350
 6553POPC   C1B42727   3.771  42.905   6.450
 6553POPC   C2B42728   3.769  42.977   6.750
 6553POPC   C3B42729   3.700  42.898   7.050
 6553POPC   C4B42730   3.758  42.945   7.350
 6554POPC   NC342731  18.326  12.049   5.550
 6554POPC   PO442732  18.240  12.029   5.850
 6554POPC   GL142733  18.317  12.072   6.150
 6554POPC   GL242734  18.419  12.107   6.150
 6554POPC   C1A42735  18.327  12.094   6.450
 6554POPC   D2A42736  18.290  12.080   6.750
 6554POPC   C3A42737  18.299  12.067   7.050
 6554POPC   C4A42738  18.322  12.113   7.350
 6554POPC   C1B42739  18.532  12.141   6.450
 6554POPC   C2B42740  18.553  12.149   6.750
 6554POPC   C3B42741  18.557  12.100   7.050
 6554POPC   C4B42742  18.526  12.095   7.350
 6555POPC   NC342743  28.359  21.395   5.550
 6555POPC   PO442744  28.326  21.354   5.850
 6555POPC   GL142745  28.328  21.358   6.150
 6555POPC   GL242746  28.328  21.232   6.150
 6555POPC   C1A42747  28.399  21.390   6.450
 6555POPC   D2A42748  28.356  21.375   6.750
 6555POPC   C3A42749  28.330  21.436   7.050
 6555POPC   C4A42750  28.338  21.385   7.350
 6555POPC   C1B42751  28.313  21.164   6.450
 6555POPC   C2B42752  28.323  21.175   6.750
 6555POPC   C3B42753  28.366  21.105   7.050
 6555POPC   C4B42754  28.317  21.177   7.350
 6556POPC   NC342755   5.915   8.962   5.550
 6556POPC   PO442756   5.861   8.941   5.850
 6556POPC   GL142757   5.916   9.019   6.150
 6556POPC   GL242758   5.877   9.122   6.150
 6556POPC   C1A42759   5.918   8.952   6.450
 6556POPC   D2A42760   5.877   9.008   6.750
 6556POPC   C3A42761   5.893   9.004   7.050
 6556POPC   C4A42762   5.848   9.007   7.350
 6556POPC   C1B42763   5.876   9.189   6.450
 6556POPC   C2B42764   5.866   9.264   6.750
 6556POPC   C3B42765   5.876   9.245   7.050
 6556POPC   C4B42766   5.855   9.224   7.350
 6557POPC   NC342767  38.432  39.995   5.550
 6557POPC   PO442768  38.458  40.032   5.850
 6557POPC   GL142769  38.425  39.997   6.150
 6557POPC   GL242770  38.439  39.917   6.150
 6557POPC   C1A42771  38.422  40.005   6.450
 6557POPC   D2A42772  38.489  40.056   6.750
 6557POPC   C3A42773  38.430  39.961   7.050
 6557POPC   C4A42774  38.423  39.991   7.350
 6557POPC   C1B42775  38.332  39.757   6.450
 6557POPC   C2B42776  38.410  39.787   6.750
 6557POPC   C3B42777  38.377  39.807   7.050
 6557POPC   C4B42778  38.342  39.778   7.350
 6558POPC   NC342779  11.344  29.098   5.550
 6558POPC   PO442780  11.259  29.107   5.850
 6558POPC   GL142781  11.264  29.172   6.150
 6558POPC   GL242782  11.217  29.087   6.150
 6558POPC   C1A42783  11.331  29.147   6.450
 6558POPC   D2A42784  11.286  29.173   6.750
 6558POPC   C3A42785  11.346  29.179   7.050
 6558POPC   C4A42786  11.316  29.193   7.350
 6558POPC   C1B42787  11.095  28.934   6.450
 6558POPC   C2B42788  11.151  28.950   6.750
 6558POPC   C3B42789  11.164  28.996   7.050
 6558POPC   C4B42790  11.094  28.955   7.350
 6559POPC   NC342791  40.050  36.854   5.550
 6559POPC   PO442792  40.036  36.901   5.850
 6559POPC   GL142793  40.042  36.942   6.150
 6559POPC   GL242794  39.943  36.759   6.150
 6559POPC   C1A42795  40.029  36.919   6.450
 6559POPC   D2A42796  39.963  36.898   6.750
 6559POPC   C3A42797  40.017  36.856   7.050
 6559POPC   C4A42798  40.001  36.901   7.350
 6559POPC   C1B42799  39.908  36.666   6.450
 6559POPC   C2B42800  39.980  36.638   6.750
 6559POPC   C3B42801  39.943  36.638   7.050
 6559POPC   C4B42802  39.945  36.644   7.350
 6560POPC   NC342803   7.387  27.549   5.550
 6560POPC   PO442804   7.392  27.621   5.850
 6560POPC   GL142805   7.413  27.608   6.150
 6560POPC   GL242806   7.348  27.672   6.150
 6560POPC   C1A42807   7.459  27.641   6.450
 6560POPC   D2A42808   7.379  27.548   6.750
 6560POPC   C3A42809   7.400  27.596   7.050
 6560POPC   C4A42810   7.435  27.623   7.350
 6560POPC   C1B42811   7.403  27.843   6.450
 6560POPC   C2B42812   7.331  27.801   6.750
 6560POPC   C3B42813   7.358  27.877   7.050
 6560POPC   C4B42814   7.367  27.793   7.350
 6561POPC   NC342815   1.171  19.861   5.550
 6561POPC   PO442816   1.216  19.833   5.850
 6561POPC   GL142817   1.180  19.858   6.150
 6561POPC   GL242818   1.326  19.904   6.150
 6561POPC   C1A42819   1.236  19.882   6.450
 6561POPC   D2A42820   1.186  19.803   6.750
 6561POPC   C3A42821   1.236  19.853   7.050
 6561POPC   C4A42822   1.166  19.843   7.350
 6561POPC   C1B42823   1.450  20.016   6.450
 6561POPC   C2B42824   1.383  19.997   6.750
 6561POPC   C3B42825   1.398  19.959   7.050
 6561POPC   C4B42826   1.444  20.019   7.350
 6562POPC   NC342827  43.884  11.305   5.550
 6562POPC   PO442828  43.920  11.322   5.850
 6562POPC   GL142829  43.895  11.285   6.150
 6562POPC   GL242830  43.714  11.300   6.150
 6562POPC   C1A42831  43.936  11.311   6.450
 6562POPC   D2A42832  43.871  11.336   6.750
 6562POPC   C3A42833  43.886  11.261   7.050
 6562POPC   C4A42834  43.878  11.312   7.350
 6562POPC   C1B42835  43.680  11.258   6.450
 6562POPC   C2B42836  43.661  11.269   6.750
 6562POPC   C3B42837  43.604  11.241   7.050
 6562POPC   C4B42838  43.600  11.223   7.350
 6563POPC   NC342839  29.891  30.657   5.550
 6563POPC   PO442840  29.926  30.663   5.850
 6563POPC   GL142841  29.894  30.742   6.150
 6563POPC   GL242842  29.817  30.596   6.150
 6563POPC   C1A42843  29.903  30.702   6.450
 6563POPC   D2A42844  29.926  30.663   6.750
 6563POPC   C3A42845  29.950  30.674   7.050
 6563POPC   C4A42846  29.883  30.653   7.350
 6563POPC   C1B42847  29.812  30.486   6.450
 6563POPC   C2B42848  29.787  30.490   6.750
 6563POPC   C3B42849  29.796  30.491   7.050
 6563POPC   C4B42850  29.771  30.451   7.350
 6564POPC   NC342851  22.890  36.867   5.550
 6564POPC   PO442852  22.915  36.947   5.850
 6564POPC   GL142853  22.889  36.939   6.150
 6564POPC   GL242854  23.030  36.845   6.150
 6564POPC   C1A42855  22.952  36.892   6.450
 6564POPC   D2A42856  22.895  36.931   6.750
 6564POPC   C3A42857  22.968  36.890   7.050
 6564POPC   C4A42858  22.916  36.861   7.350
 6564POPC   C1B42859  23.156  36.775   6.450
 6564POPC   C2B42860  23.201  36.801   6.750
 6564POPC   C3B42861  23.198  36.844   7.050
 6564POPC   C4B42862  23.135  36.765   7.350
 6565POPC   NC342863   2.011  21.415   5.550
 6565POPC   PO442864   1.952  21.414   5.850
 6565POPC   GL142865   1.992  21.415   6.150
 6565POPC   GL242866   2.020  21.542   6.150
 6565POPC   C1A42867   1.982  21.409   6.450
 6565POPC   D2A42868   1.989  21.344   6.750
 6565POPC   C3A42869   1.986  21.414   7.050
 6565POPC   C4A42870   2.006  21.403   7.350
 6565POPC   C1B42871   1.986  21.672   6.450
 6565POPC   C2B42872   1.986  21.633   6.750
 6565POPC   C3B42873   1.964  21.632   7.050
 6565POPC   C4B42874   1.949  21.662   7.350
 6566POPC   NC342875  12.840  26.007   5.550
 6566POPC   PO442876  12.843  26.079   5.850
 6566POPC   GL142877  12.880  25.992   6.150
 6566POPC   GL242878  12.733  26.023   6.150
 6566POPC   C1A42879  12.830  25.995   6.450
 6566POPC   D2A42880  12.809  26.033   6.750
 6566POPC   C3A42881  12.879  26.015   7.050
 6566POPC   C4A42882  12.808  25.992   7.350
 6566POPC   C1B42883  12.606  25.919   6.450
 6566POPC   C2B42884  12.650  25.940   6.750
 6566POPC   C3B42885  12.619  25.878   7.050
 6566POPC   C4B42886  12.598  25.922   7.350
 6567POPC   NC342887  21.356   9.756   5.550
 6567POPC   PO442888  21.357   9.727   5.850
 6567POPC   GL142889  21.423   9.766   6.150
 6567POPC   GL242890  21.322   9.614   6.150
 6567POPC   C1A42891  21.420   9.707   6.450
 6567POPC   D2A42892  21.432   9.729   6.750
 6567POPC   C3A42893  21.390   9.717   7.050
 6567POPC   C4A42894  21.426   9.793   7.350
 6567POPC   C1B42895  21.296   9.480   6.450
 6567POPC   C2B42896  21.322   9.538   6.750
 6567POPC   C3B42897  21.253   9.526   7.050
 6567POPC   C4B42898  21.302   9.530   7.350
 6568POPC   NC342899  15.992  18.312   5.550
 6568POPC   PO442900  15.947  18.305   5.850
 6568POPC   GL142901  15.983  18.287   6.150
 6568POPC   GL242902  15.990  18.432   6.150
 6568POPC   C1A42903  15.982  18.294   6.450
 6568POPC   D2A42904  15.926  18.300   6.750
 6568POPC   C3A42905  15.928  18.324   7.050
 6568POPC   C4A42906  15.992  18.303   7.350
 6568POPC   C1B42907  15.940  18.494   6.450
 6568POPC   C2B42908  15.953  18.551   6.750
 6568POPC   C3B42909  16.029  18.509   7.050
 6568POPC   C4B42910  15.953  18.573   7.350
 6569POPC   NC342911  12.078  37.674   5.550
 6569POPC   PO442912  12.043  37.685   5.850
 6569POPC   GL142913  12.113  37.724   6.150
 6569POPC   GL242914  12.013  37.599   6.150
 6569POPC   C1A42915  12.086  37.713   6.450
 6569POPC   D2A42916  12.079  37.659   6.750
 6569POPC   C3A42917  12.094  37.700   7.050
 6569POPC   C4A42918  12.055  37.634   7.350
 6569POPC   C1B42919  12.081  37.386   6.450
 6569POPC   C2B42920  12.024  37.445   6.750
 6569POPC   C3B42921  12.020  37.458   7.050
 6569POPC   C4B42922  12.012  37.431   7.350
 6570POPC   NC342923  26.014  13.623   5.550
 6570POPC   PO442924  26.074  13.615   5.850
 6570POPC   GL142925  26.091  13.606   6.150
 6570POPC   GL242926  26.045  13.705   6.150
 6570POPC   C1A42927  26.060  13.616   6.450
 6570POPC   D2A42928  26.057  13.629   6.750
 6570POPC   C3A42929  26.050  13.663   7.050
 6570POPC   C4A42930  26.055  13.623   7.350
 6570POPC   C1B42931  26.142  13.922   6.450
 6570POPC   C2B42932  26.095  13.918   6.750
 6570POPC   C3B42933  26.073  13.832   7.050
 6570POPC   C4B42934  26.134  13.921   7.350
 6571POPC   NC342935  29.107   8.176   5.550
 6571POPC   PO442936  29.179   8.209   5.850
 6571POPC   GL142937  29.119   8.190   6.150
 6571POPC   GL242938  29.198   8.328   6.150
 6571POPC   C1A42939  29.104   8.155   6.450
 6571POPC   D2A42940  29.100   8.157   6.750
 6571POPC   C3A42941  29.119   8.195   7.050
 6571POPC   C4A42942  29.170   8.204   7.350
 6571POPC   C1B42943  29.269   8.429   6.450
 6571POPC   C2B42944  29.242   8.440   6.750
 6571POPC   C3B42945  29.286   8.389   7.050
 6571POPC   C4B42946  29.245   8.381   7.350
 6572POPC   NC342947   8.176  14.397   5.550
 6572POPC   PO442948   8.176  14.393   5.850
 6572POPC   GL142949   8.188  14.396   6.150
 6572POPC   GL242950   8.142  14.322   6.150
 6572POPC   C1A42951   8.192  14.403   6.450
 6572POPC   D2A42952   8.181  14.426   6.750
 6572POPC   C3A42953   8.211  14.386   7.050
 6572POPC   C4A42954   8.182  14.360   7.350
 6572POPC   C1B42955   8.137  14.146   6.450
 6572POPC   C2B42956   8.058  14.225   6.750
 6572POPC   C3B42957   8.115  14.136   7.050
 6572POPC   C4B42958   8.128  14.201   7.350
 6573POPC   NC342959   1.999  15.181   5.550
 6573POPC   PO442960   2.023  15.226   5.850
 6573POPC   GL142961   1.957  15.224   6.150
 6573POPC   GL242962   1.946  15.298   6.150
 6573POPC   C1A42963   1.941  15.152   6.450
 6573POPC   D2A42964   1.952  15.170   6.750
 6573POPC   C3A42965   1.948  15.143   7.050
 6573POPC   C4A42966   1.959  15.155   7.350
 6573POPC   C1B42967   2.006  15.439   6.450
 6573POPC   C2B42968   2.034  15.453   6.750
 6573POPC   C3B42969   1.945  15.455   7.050
 6573POPC   C4B42970   2.003  15.387   7.350
 6574POPC   NC342971  12.829  36.150   5.550
 6574POPC   PO442972  12.898  36.132   5.850
 6574POPC   GL142973  12.834  36.139   6.150
 6574POPC   GL242974  12.845  35.993   6.150
 6574POPC   C1A42975  12.876  36.109   6.450
 6574POPC   D2A42976  12.879  36.121   6.750
 6574POPC   C3A42977  12.826  36.132   7.050
 6574POPC   C4A42978  12.883  36.124   7.350
 6574POPC   C1B42979  12.782  35.948   6.450
 6574POPC   C2B42980  12.750  35.946   6.750
 6574POPC   C3B42981  12.783  35.865   7.050
 6574POPC   C4B42982  12.753  35.938   7.350
 6575POPC   NC342983  31.455  37.631   5.550
 6575POPC   PO442984  31.470  37.722   5.850
 6575POPC   GL142985  31.441  37.704   6.150
 6575POPC   GL242986  31.628  37.719   6.150
 6575POPC   C1A42987  31.500  37.719   6.450
 6575POPC   D2A42988  31.496  37.719   6.750
 6575POPC   C3A42989  31.510  37.670   7.050
 6575POPC   C4A42990  31.503  37.654   7.350
 6575POPC   C1B42991  31.645  37.810   6.450
 6575POPC   C2B42992  31.724  37.822   6.750
 6575POPC   C3B42993  31.728  37.828   7.050
 6575POPC   C4B42994  31.713  37.783   7.350
 6576POPC   NC342995  19.068  16.753   5.550
 6576POPC   PO442996  19.086  16.763   5.850
 6576POPC   GL142997  19.045  16.691   6.150
 6576POPC   GL242998  18.970  16.715   6.150
 6576POPC   C1A42999  19.079  16.723   6.450
 6576POPC   D2A43000  19.029  16.743   6.750
 6576POPC   C3A43001  19.009  16.750   7.050
 6576POPC   C4A43002  19.105  16.720   7.350
 6576POPC   C1B43003  18.790  16.737   6.450
 6576POPC   C2B43004  18.798  16.689   6.750
 6576POPC   C3B43005  18.764  16.770   7.050
 6576POPC   C4B43006  18.853  16.737   7.350
 6577POPC   NC343007  17.509  26.835   5.550
 6577POPC   PO443008  17.550  26.827   5.850
 6577POPC   GL143009  17.463  26.829   6.150
 6577POPC   GL243010  17.357  26.872   6.150
 6577POPC   C1A43011  17.494  26.784   6.450
 6577POPC   D2A43012  17.533  26.775   6.750
 6577POPC   C3A43013  17.510  26.851   7.050
 6577POPC   C4A43014  17.483  26.828   7.350
 6577POPC   C1B43015  17.279  26.882   6.450
 6577POPC   C2B43016  17.252  26.890   6.750
 6577POPC   C3B43017  17.303  26.875   7.050
 6577POPC   C4B43018  17.263  26.840   7.350
 6578POPC   NC343019  44.654  39.279   5.550
 6578POPC   PO443020  44.634  39.274   5.850
 6578POPC   GL143021  44.617  39.235   6.150
 6578POPC   GL243022  44.799  39.189   6.150
 6578POPC   C1A43023  44.656  39.213   6.450
 6578POPC   D2A43024  44.676  39.211   6.750
 6578POPC   C3A43025  44.671  39.193   7.050
 6578POPC   C4A43026  44.704  39.228   7.350
 6578POPC   C1B43027  44.865  39.264   6.450
 6578POPC   C2B43028  44.879  39.220   6.750
 6578POPC   C3B43029  44.869  39.171   7.050
 6578POPC   C4B43030  44.893  39.166   7.350
 6579POPC   NC343031   5.104   9.012   5.550
 6579POPC   PO443032   5.101   9.005   5.850
 6579POPC   GL143033   5.053   8.970   6.150
 6579POPC   GL243034   4.951   8.905   6.150
 6579POPC   C1A43035   5.137   8.947   6.450
 6579POPC   D2A43036   5.110   8.943   6.750
 6579POPC   C3A43037   5.130   9.017   7.050
 6579POPC   C4A43038   5.065   9.008   7.350
 6579POPC   C1B43039   4.892   8.819   6.450
 6579POPC   C2B43040   4.825   8.823   6.750
 6579POPC   C3B43041   4.902   8.907   7.050
 6579POPC   C4B43042   4.890   8.885   7.350
 6580POPC   NC343043  11.337  36.134   5.550
 6580POPC   PO443044  11.278  36.177   5.850
 6580POPC   GL143045  11.342  36.103   6.150
 6580POPC   GL243046  11.273  36.046   6.150
 6580POPC   C1A43047  11.298  36.115   6.450
 6580POPC   D2A43048  11.302  36.131   6.750
 6580POPC   C3A43049  11.251  36.159   7.050
 6580POPC   C4A43050  11.300  36.137   7.350
 6580POPC   C1B43051  11.294  35.830   6.450
 6580POPC   C2B43052  11.349  35.913   6.750
 6580POPC   C3B43053  11.327  35.851   7.050
 6580POPC   C4B43054  11.269  35.883   7.350
 6581POPC   NC343055   0.400  19.878   5.550
 6581POPC   PO443056   0.466  19.848   5.850
 6581POPC   GL143057   0.440  19.849   6.150
 6581POPC   GL243058   0.543  19.797   6.150
 6581POPC   C1A43059   0.465  19.859   6.450
 6581POPC   D2A43060   0.439  19.807   6.750
 6581POPC   C3A43061   0.427  19.847   7.050
 6581POPC   C4A43062   0.395  19.871   7.350
 6581POPC   C1B43063   0.643  19.745   6.450
 6581POPC   C2B43064   0.670  19.732   6.750
 6581POPC   C3B43065   0.662  19.795   7.050
 6581POPC   C4B43066   0.706  19.730   7.350
 6582POPC   NC343067   0.420  44.665   5.550
 6582POPC   PO443068   0.404  44.630   5.850
 6582POPC   GL143069   0.446  44.650   6.150
 6582POPC   GL243070   0.312  44.587   6.150
 6582POPC   C1A43071   0.412  44.702   6.450
 6582POPC   D2A43072   0.392  44.662   6.750
 6582POPC   C3A43073   0.460  44.630   7.050
 6582POPC   C4A43074   0.429  44.688   7.350
 6582POPC   C1B43075   0.209  44.504   6.450
 6582POPC   C2B43076   0.225  44.521   6.750
 6582POPC   C3B43077   0.283  44.494   7.050
 6582POPC   C4B43078   0.208  44.472   7.350
 6583POPC   NC343079  22.952  13.615   5.550
 6583POPC   PO443080  22.922  13.614   5.850
 6583POPC   GL143081  22.944  13.633   6.150
 6583POPC   GL243082  23.088  13.582   6.150
 6583POPC   C1A43083  22.898  13.650   6.450
 6583POPC   D2A43084  22.953  13.645   6.750
 6583POPC   C3A43085  22.898  13.601   7.050
 6583POPC   C4A43086  22.957  13.592   7.350
 6583POPC   C1B43087  23.155  13.453   6.450
 6583POPC   C2B43088  23.169  13.474   6.750
 6583POPC   C3B43089  23.150  13.473   7.050
 6583POPC   C4B43090  23.191  13.509   7.350
 6584POPC   NC343091  25.227  43.068   5.550
 6584POPC   PO443092  25.231  43.063   5.850
 6584POPC   GL143093  25.251  43.104   6.150
 6584POPC   GL243094  25.226  43.185   6.150
 6584POPC   C1A43095  25.294  43.068   6.450
 6584POPC   D2A43096  25.280  43.138   6.750
 6584POPC   C3A43097  25.254  43.141   7.050
 6584POPC   C4A43098  25.238  43.129   7.350
 6584POPC   C1B43099  25.216  43.387   6.450
 6584POPC   C2B43100  25.165  43.321   6.750
 6584POPC   C3B43101  25.190  43.299   7.050
 6584POPC   C4B43102  25.173  43.305   7.350
 6585POPC   NC343103  23.706  22.163   5.550
 6585POPC   PO443104  23.667  22.117   5.850
 6585POPC   GL143105  23.749  22.179   6.150
 6585POPC   GL243106  23.632  22.087   6.150
 6585POPC   C1A43107  23.733  22.161   6.450
 6585POPC   D2A43108  23.704  22.167   6.750
 6585POPC   C3A43109  23.726  22.167   7.050
 6585POPC   C4A43110  23.667  22.208   7.350
 6585POPC   C1B43111  23.565  21.949   6.450
 6585POPC   C2B43112  23.608  22.004   6.750
 6585POPC   C3B43113  23.602  21.915   7.050
 6585POPC   C4B43114  23.545  21.975   7.350
 6586POPC   NC343115  28.346  24.486   5.550
 6586POPC   PO443116  28.324  24.494   5.850
 6586POPC   GL143117  28.415  24.475   6.150
 6586POPC   GL243118  28.309  24.379   6.150
 6586POPC   C1A43119  28.345  24.492   6.450
 6586POPC   D2A43120  28.319  24.536   6.750
 6586POPC   C3A43121  28.417  24.503   7.050
 6586POPC   C4A43122  28.405  24.492   7.350
 6586POPC   C1B43123  28.199  24.344   6.450
 6586POPC   C2B43124  28.156  24.355   6.750
 6586POPC   C3B43125  28.132  24.347   7.050
 6586POPC   C4B43126  28.200  24.383   7.350
 6587POPC   NC343127  33.764  15.133   5.550
 6587POPC   PO443128  33.834  15.150   5.850
 6587POPC   GL143129  33.768  15.188   6.150
 6587POPC   GL243130  33.709  15.246   6.150
 6587POPC   C1A43131  33.807  15.182   6.450
 6587POPC   D2A43132  33.829  15.203   6.750
 6587POPC   C3A43133  33.760  15.154   7.050
 6587POPC   C4A43134  33.818  15.222   7.350
 6587POPC   C1B43135  33.648  15.304   6.450
 6587POPC   C2B43136  33.583  15.298   6.750
 6587POPC   C3B43137  33.580  15.304   7.050
 6587POPC   C4B43138  33.626  15.342   7.350
 6588POPC   NC343139  27.608   7.404   5.550
 6588POPC   PO443140  27.599   7.408   5.850
 6588POPC   GL143141  27.558   7.375   6.150
 6588POPC   GL243142  27.585   7.330   6.150
 6588POPC   C1A43143  27.638   7.385   6.450
 6588POPC   D2A43144  27.606   7.400   6.750
 6588POPC   C3A43145  27.643   7.460   7.050
 6588POPC   C4A43146  27.627   7.407   7.350
 6588POPC   C1B43147  27.519   7.145   6.450
 6588POPC   C2B43148  27.531   7.199   6.750
 6588POPC   C3B43149  27.562   7.180   7.050
 6588POPC   C4B43150  27.567   7.218   7.350
 6589POPC   NC343151  44.618  27.574   5.550
 6589POPC   PO443152  44.647  27.570   5.850
 6589POPC   GL143153  44.670  27.606   6.150
 6589POPC   GL243154  44.492  27.597   6.150
 6589POPC   C1A43155  44.653  27.638   6.450
 6589POPC   D2A43156  44.644  27.548   6.750
 6589POPC   C3A43157  44.620  27.585   7.050
 6589POPC   C4A43158  44.706  27.596   7.350
 6589POPC   C1B43159  44.383  27.609   6.450
 6589POPC   C2B43160  44.383  27.632   6.750
 6589POPC   C3B43161  44.385  27.622   7.050
 6589POPC   C4B43162  44.454  27.682   7.350
 6590POPC   NC343163  38.459  43.908   5.550
 6590POPC   PO443164  38.465  43.861   5.850
 6590POPC   GL143165  38.480  43.890   6.150
 6590POPC   GL243166  38.319  43.900   6.150
 6590POPC   C1A43167  38.420  43.856   6.450
 6590POPC   D2A43168  38.470  43.845   6.750
 6590POPC   C3A43169  38.502  43.895   7.050
 6590POPC   C4A43170  38.439  43.910   7.350
 6590POPC   C1B43171  38.201  43.926   6.450
 6590POPC   C2B43172  38.181  43.997   6.750
 6590POPC   C3B43173  38.194  43.956   7.050
 6590POPC   C4B43174  38.178  43.942   7.350
 6591POPC   NC343175  32.228  10.496   5.550
 6591POPC   PO443176  32.206  10.534   5.850
 6591POPC   GL143177  32.230  10.526   6.150
 6591POPC   GL243178  32.122  10.589   6.150
 6591POPC   C1A43179  32.293  10.475   6.450
 6591POPC   D2A43180  32.230  10.476   6.750
 6591POPC   C3A43181  32.251  10.572   7.050
 6591POPC   C4A43182  32.231  10.476   7.350
 6591POPC   C1B43183  31.989  10.621   6.450
 6591POPC   C2B43184  31.962  10.537   6.750
 6591POPC   C3B43185  32.021  10.610   7.050
 6591POPC   C4B43186  31.995  10.608   7.350
 6592POPC   NC343187   5.851  26.089   5.550
 6592POPC   PO443188   5.863  26.003   5.850
 6592POPC   GL143189   5.909  26.084   6.150
 6592POPC   GL243190   5.863  26.156   6.150
 6592POPC   C1A43191   5.913  26.053   6.450
 6592POPC   D2A43192   5.852  26.026   6.750
 6592POPC   C3A43193   5.830  26.004   7.050
 6592POPC   C4A43194   5.898  26.035   7.350
 6592POPC   C1B43195   5.948  26.258   6.450
 6592POPC   C2B43196   5.943  26.277   6.750
 6592POPC   C3B43197   5.981  26.275   7.050
 6592POPC   C4B43198   5.965  26.248   7.350
 6593POPC   NC343199   6.690  15.153   5.550
 6593POPC   PO443200   6.612  15.195   5.850
 6593POPC   GL143201   6.671  15.175   6.150
 6593POPC   GL243202   6.626  15.078   6.150
 6593POPC   C1A43203   6.675  15.170   6.450
 6593POPC   D2A43204   6.604  15.138   6.750
 6593POPC   C3A43205   6.668  15.160   7.050
 6593POPC   C4A43206   6.599  15.149   7.350
 6593POPC   C1B43207   6.587  14.912   6.450
 6593POPC   C2B43208   6.578  14.963   6.750
 6593POPC   C3B43209   6.583  14.964   7.050
 6593POPC   C4B43210   6.530  14.966   7.350
 6594POPC   NC343211  14.435  36.141   5.550
 6594POPC   PO443212  14.398  36.079   5.850
 6594POPC   GL143213  14.367  36.090   6.150
 6594POPC   GL243214  14.398  36.301   6.150
 6594POPC   C1A43215  14.377  36.134   6.450
 6594POPC   D2A43216  14.364  36.098   6.750
 6594POPC   C3A43217  14.375  36.092   7.050
 6594POPC   C4A43218  14.416  36.080   7.350
 6594POPC   C1B43219  14.420  36.357   6.450
 6594POPC   C2B43220  14.434  36.351   6.750
 6594POPC   C3B43221  14.400  36.376   7.050
 6594POPC   C4B43222  14.452  36.340   7.350
 6595POPC   NC343223   5.884  12.845   5.550
 6595POPC   PO443224   5.895  12.804   5.850
 6595POPC   GL143225   5.875  12.836   6.150
 6595POPC   GL243226   5.777  12.904   6.150
 6595POPC   C1A43227   5.918  12.840   6.450
 6595POPC   D2A43228   5.875  12.833   6.750
 6595POPC   C3A43229   5.894  12.876   7.050
 6595POPC   C4A43230   5.880  12.835   7.350
 6595POPC   C1B43231   5.653  12.910   6.450
 6595POPC   C2B43232   5.658  12.942   6.750
 6595POPC   C3B43233   5.607  12.950   7.050
 6595POPC   C4B43234   5.588  12.885   7.350
 6596POPC   NC343235  15.163  12.897   5.550
 6596POPC   PO443236  15.150  12.880   5.850
 6596POPC   GL143237  15.150  12.894   6.150
 6596POPC   GL243238  15.052  12.765   6.150
 6596POPC   C1A43239  15.208  12.887   6.450
 6596POPC   D2A43240  15.213  12.890   6.750
 6596POPC   C3A43241  15.198  12.821   7.050
 6596POPC   C4A43242  15.163  12.868   7.350
 6596POPC   C1B43243  14.905  12.724   6.450
 6596POPC   C2B43244  14.914  12.768   6.750
 6596POPC   C3B43245  14.989  12.816   7.050
 6596POPC   C4B43246  14.895  12.787   7.350
 6597POPC   NC343247  43.877   7.436   5.550
 6597POPC   PO443248  43.867   7.449   5.850
 6597POPC   GL143249  43.843   7.384   6.150
 6597POPC   GL243250  43.833   7.265   6.150
 6597POPC   C1A43251  43.869   7.385   6.450
 6597POPC   D2A43252  43.905   7.451   6.750
 6597POPC   C3A43253  43.885   7.411   7.050
 6597POPC   C4A43254  43.841   7.371   7.350
 6597POPC   C1B43255  43.782   7.167   6.450
 6597POPC   C2B43256  43.800   7.187   6.750
 6597POPC   C3B43257  43.811   7.177   7.050
 6597POPC   C4B43258  43.724   7.162   7.350
 6598POPC   NC343259  13.642   1.235   5.550
 6598POPC   PO443260  13.627   1.230   5.850
 6598POPC   GL143261  13.615   1.198   6.150
 6598POPC   GL243262  13.602   1.144   6.150
 6598POPC   C1A43263  13.670   1.234   6.450
 6598POPC   D2A43264  13.665   1.172   6.750
 6598POPC   C3A43265  13.658   1.219   7.050
 6598POPC   C4A43266  13.619   1.225   7.350
 6598POPC   C1B43267  13.508   0.994   6.450
 6598POPC   C2B43268  13.486   1.038   6.750
 6598POPC   C3B43269  13.452   1.041   7.050
 6598POPC   C4B43270  13.466   1.044   7.350
 6599POPC   NC343271  32.211  44.685   5.550
 6599POPC   PO443272  32.246  44.628   5.850
 6599POPC   GL143273  32.224  44.672   6.150
 6599POPC   GL243274  32.202  44.726   6.150
 6599POPC   C1A43275  32.288  44.630   6.450
 6599POPC   D2A43276  32.215  44.615   6.750
 6599POPC   C3A43277  32.288  44.668   7.050
 6599POPC   C4A43278  32.276  44.696   7.350
 6599POPC   C1B43279  32.157  44.855   6.450
 6599POPC   C2B43280  32.158  44.908   6.750
 6599POPC   C3B43281  32.125  44.918   7.050
 6599POPC   C4B43282  32.084  44.877   7.350
 6600POPC   NC343283  15.954  20.583   5.550
 6600POPC   PO443284  15.959  20.589   5.850
 6600POPC   GL143285  15.940  20.615   6.150
 6600POPC   GL243286  16.115  20.615   6.150
 6600POPC   C1A43287  15.998  20.576   6.450
 6600POPC   D2A43288  15.938  20.629   6.750
 6600POPC   C3A43289  15.971  20.598   7.050
 6600POPC   C4A43290  15.989  20.562   7.350
 6600POPC   C1B43291  16.184  20.688   6.450
 6600POPC   C2B43292  16.233  20.687   6.750
 6600POPC   C3B43293  16.220  20.720   7.050
 6600POPC   C4B43294  16.166  20.656   7.350
 6601POPC   NC343295  43.108  29.946   5.550
 6601POPC   PO443296  43.061  29.905   5.850
 6601POPC   GL143297  43.105  29.874   6.150
 6601POPC   GL243298  43.183  30.074   6.150
 6601POPC   C1A43299  43.130  29.961   6.450
 6601POPC   D2A43300  43.160  29.880   6.750
 6601POPC   C3A43301  43.061  29.875   7.050
 6601POPC   C4A43302  43.112  29.915   7.350
 6601POPC   C1B43303  43.232  30.126   6.450
 6601POPC   C2B43304  43.214  30.138   6.750
 6601POPC   C3B43305  43.163  30.110   7.050
 6601POPC   C4B43306  43.199  30.124   7.350
 6602POPC   NC343307  25.298  22.924   5.550
 6602POPC   PO443308  25.307  22.954   5.850
 6602POPC   GL143309  25.295  22.927   6.150
 6602POPC   GL243310  25.370  22.889   6.150
 6602POPC   C1A43311  25.291  22.982   6.450
 6602POPC   D2A43312  25.221  22.921   6.750
 6602POPC   C3A43313  25.282  22.906   7.050
 6602POPC   C4A43314  25.216  22.927   7.350
 6602POPC   C1B43315  25.482  22.843   6.450
 6602POPC   C2B43316  25.552  22.861   6.750
 6602POPC   C3B43317  25.463  22.904   7.050
 6602POPC   C4B43318  25.516  22.890   7.350
 6603POPC   NC343319   8.155   1.205   5.550
 6603POPC   PO443320   8.232   1.227   5.850
 6603POPC   GL143321   8.204   1.213   6.150
 6603POPC   GL243322   8.113   1.221   6.150
 6603POPC   C1A43323   8.203   1.225   6.450
 6603POPC   D2A43324   8.202   1.260   6.750
 6603POPC   C3A43325   8.203   1.226   7.050
 6603POPC   C4A43326   8.173   1.213   7.350
 6603POPC   C1B43327   7.969   1.202   6.450
 6603POPC   C2B43328   7.930   1.223   6.750
 6603POPC   C3B43329   7.934   1.195   7.050
 6603POPC   C4B43330   7.933   1.212   7.350
 6604POPC   NC343331   9.718  22.904   5.550
 6604POPC   PO443332   9.714  22.927   5.850
 6604POPC   GL143333   9.766  22.929   6.150
 6604POPC   GL243334   9.811  22.821   6.150
 6604POPC   C1A43335   9.768  22.938   6.450
 6604POPC   D2A43336   9.768  22.985   6.750
 6604POPC   C3A43337   9.729  22.967   7.050
 6604POPC   C4A43338   9.769  22.925   7.350
 6604POPC   C1B43339   9.938  22.729   6.450
 6604POPC   C2B43340   9.962  22.729   6.750
 6604POPC   C3B43341   9.971  22.745   7.050
 6604POPC   C4B43342   9.979  22.735   7.350
 6605POPC   NC343343  28.347  33.785   5.550
 6605POPC   PO443344  28.358  33.825   5.850
 6605POPC   GL143345  28.380  33.814   6.150
 6605POPC   GL243346  28.477  33.864   6.150
 6605POPC   C1A43347  28.327  33.846   6.450
 6605POPC   D2A43348  28.403  33.779   6.750
 6605POPC   C3A43349  28.385  33.848   7.050
 6605POPC   C4A43350  28.363  33.800   7.350
 6605POPC   C1B43351  28.513  34.050   6.450
 6605POPC   C2B43352  28.440  33.974   6.750
 6605POPC   C3B43353  28.503  34.061   7.050
 6605POPC   C4B43354  28.534  34.045   7.350
 6606POPC   NC343355  26.004  19.105   5.550
 6606POPC   PO443356  26.047  19.016   5.850
 6606POPC   GL143357  26.081  19.058   6.150
 6606POPC   GL243358  26.089  19.159   6.150
 6606POPC   C1A43359  26.000  19.056   6.450
 6606POPC   D2A43360  26.057  19.069   6.750
 6606POPC   C3A43361  26.089  19.063   7.050
 6606POPC   C4A43362  26.079  19.050   7.350
 6606POPC   C1B43363  26.159  19.297   6.450
 6606POPC   C2B43364  26.162  19.335   6.750
 6606POPC   C3B43365  26.105  19.315   7.050
 6606POPC   C4B43366  26.151  19.335   7.350
 6607POPC   NC343367  42.349  34.563   5.550
 6607POPC   PO443368  42.375  34.543   5.850
 6607POPC   GL143369  42.289  34.566   6.150
 6607POPC   GL243370  42.431  34.445   6.150
 6607POPC   C1A43371  42.289  34.609   6.450
 6607POPC   D2A43372  42.362  34.592   6.750
 6607POPC   C3A43373  42.322  34.540   7.050
 6607POPC   C4A43374  42.369  34.610   7.350
 6607POPC   C1B43375  42.465  34.383   6.450
 6607POPC   C2B43376  42.538  34.392   6.750
 6607POPC   C3B43377  42.492  34.441   7.050
 6607POPC   C4B43378  42.535  34.371   7.350
 6608POPC   NC343379  29.146  19.108   5.550
 6608POPC   PO443380  29.123  19.085   5.850
 6608POPC   GL143381  29.143  19.013   6.150
 6608POPC   GL243382  29.210  19.205   6.150
 6608POPC   C1A43383  29.130  19.101   6.450
 6608POPC   D2A43384  29.149  19.068   6.750
 6608POPC   C3A43385  29.168  19.049   7.050
 6608POPC   C4A43386  29.103  19.068   7.350
 6608POPC   C1B43387  29.266  19.228   6.450
 6608POPC   C2B43388  29.289  19.276   6.750
 6608POPC   C3B43389  29.260  19.236   7.050
 6608POPC   C4B43390  29.245  19.284   7.350
 6609POPC   NC343391   3.501   6.647   5.550
 6609POPC   PO443392   3.567   6.677   5.850
 6609POPC   GL143393   3.508   6.609   6.150
 6609POPC   GL243394   3.546   6.483   6.150
 6609POPC   C1A43395   3.504   6.677   6.450
 6609POPC   D2A43396   3.522   6.653   6.750
 6609POPC   C3A43397   3.579   6.661   7.050
 6609POPC   C4A43398   3.525   6.690   7.350
 6609POPC   C1B43399   3.458   6.394   6.450
 6609POPC   C2B43400   3.498   6.363   6.750
 6609POPC   C3B43401   3.460   6.431   7.050
 6609POPC   C4B43402   3.481   6.382   7.350
 6610POPC   NC343403   9.781  38.452   5.550
 6610POPC   PO443404   9.702  38.406   5.850
 6610POPC   GL143405   9.749  38.469   6.150
 6610POPC   GL243406   9.833  38.550   6.150
 6610POPC   C1A43407   9.767  38.478   6.450
 6610POPC   D2A43408   9.743  38.438   6.750
 6610POPC   C3A43409   9.724  38.493   7.050
 6610POPC   C4A43410   9.734  38.431   7.350
 6610POPC   C1B43411  10.022  38.567   6.450
 6610POPC   C2B43412   9.963  38.597   6.750
 6610POPC   C3B43413   9.978  38.597   7.050
 6610POPC   C4B43414  10.010  38.564   7.350
 6611POPC   NC343415  36.858  14.443   5.550
 6611POPC   PO443416  36.862  14.374   5.850
 6611POPC   GL143417  36.908  14.423   6.150
 6611POPC   GL243418  36.752  14.320   6.150
 6611POPC   C1A43419  36.937  14.403   6.450
 6611POPC   D2A43420  36.859  14.420   6.750
 6611POPC   C3A43421  36.859  14.375   7.050
 6611POPC   C4A43422  36.889  14.394   7.350
 6611POPC   C1B43423  36.663  14.313   6.450
 6611POPC   C2B43424  36.641  14.352   6.750
 6611POPC   C3B43425  36.640  14.318   7.050
 6611POPC   C4B43426  36.637  14.319   7.350
 6612POPC   NC343427  17.539  38.438   5.550
 6612POPC   PO443428  17.478  38.470   5.850
 6612POPC   GL143429  17.484  38.487   6.150
 6612POPC   GL243430  17.418  38.502   6.150
 6612POPC   C1A43431  17.490  38.435   6.450
 6612POPC   D2A43432  17.459  38.434   6.750
 6612POPC   C3A43433  17.465  38.419   7.050
 6612POPC   C4A43434  17.537  38.417   7.350
 6612POPC   C1B43435  17.246  38.501   6.450
 6612POPC   C2B43436  17.283  38.518   6.750
 6612POPC   C3B43437  17.276  38.508   7.050
 6612POPC   C4B43438  17.300  38.505   7.350
 6613POPC   NC343439  26.849   0.406   5.550
 6613POPC   PO443440  26.832   0.477   5.850
 6613POPC   GL143441  26.822   0.473   6.150
 6613POPC   GL243442  26.763   0.308   6.150
 6613POPC   C1A43443  26.780   0.414   6.450
 6613POPC   D2A43444  26.782   0.421   6.750
 6613POPC   C3A43445  26.826   0.487   7.050
 6613POPC   C4A43446  26.817   0.428   7.350
 6613POPC   C1B43447  26.819   0.155   6.450
 6613POPC   C2B43448  26.844   0.200   6.750
 6613POPC   C3B43449  26.771   0.149   7.050
 6613POPC   C4B43450  26.799   0.182   7.350
 6614POPC   NC343451  11.283  12.055   5.550
 6614POPC   PO443452  11.295  12.075   5.850
 6614POPC   GL143453  11.269  12.108   6.150
 6614POPC   GL243454  11.187  12.000   6.150
 6614POPC   C1A43455  11.288  12.053   6.450
 6614POPC   D2A43456  11.328  12.048   6.750
 6614POPC   C3A43457  11.307  12.031   7.050
 6614POPC   C4A43458  11.309  12.032   7.350
 6614POPC   C1B43459  11.080  11.943   6.450
 6614POPC   C2B43460  11.114  11.943   6.750
 6614POPC   C3B43461  11.050  11.982   7.050
 6614POPC   C4B43462  11.117  11.958   7.350
 6615POPC   NC343463  31.498  40.761   5.550
 6615POPC   PO443464  31.508  40.785   5.850
 6615POPC   GL143465  31.424  40.775   6.150
 6615POPC   GL243466  31.436  40.647   6.150
 6615POPC   C1A43467  31.521  40.736   6.450
 6615POPC   D2A43468  31.472  40.760   6.750
 6615POPC   C3A43469  31.466  40.760   7.050
 6615POPC   C4A43470  31.521  40.796   7.350
 6615POPC   C1B43471  31.348  40.575   6.450
 6615POPC   C2B43472  31.396  40.562   6.750
 6615POPC   C3B43473  31.411  40.590   7.050
 6615POPC   C4B43474  31.363  40.598   7.350
 6616POPC   NC343475  33.053   4.297   5.550
 6616POPC   PO443476  33.050   4.274   5.850
 6616POPC   GL143477  32.979   4.366   6.150
 6616POPC   GL243478  32.930   4.400   6.150
 6616POPC   C1A43479  32.990   4.365   6.450
 6616POPC   D2A43480  32.987   4.281   6.750
 6616POPC   C3A43481  33.020   4.344   7.050
 6616POPC   C4A43482  33.012   4.357   7.350
 6616POPC   C1B43483  32.795   4.500   6.450
 6616POPC   C2B43484  32.791   4.495   6.750
 6616POPC   C3B43485  32.845   4.503   7.050
 6616POPC   C4B43486  32.817   4.518   7.350
 6617POPC   NC343487  41.559  36.095   5.550
 6617POPC   PO443488  41.516  36.176   5.850
 6617POPC   GL143489  41.542  36.116   6.150
 6617POPC   GL243490  41.548  36.009   6.150
 6617POPC   C1A43491  41.557  36.131   6.450
 6617POPC   D2A43492  41.526  36.168   6.750
 6617POPC   C3A43493  41.604  36.161   7.050
 6617POPC   C4A43494  41.528  36.141   7.350
 6617POPC   C1B43495  41.629  35.910   6.450
 6617POPC   C2B43496  41.626  35.904   6.750
 6617POPC   C3B43497  41.609  35.849   7.050
 6617POPC   C4B43498  41.605  35.847   7.350
 6618POPC   NC343499  26.039   1.956   5.550
 6618POPC   PO443500  26.058   2.036   5.850
 6618POPC   GL143501  26.003   1.975   6.150
 6618POPC   GL243502  26.048   1.864   6.150
 6618POPC   C1A43503  26.057   1.945   6.450
 6618POPC   D2A43504  26.085   1.972   6.750
 6618POPC   C3A43505  25.997   1.998   7.050
 6618POPC   C4A43506  26.090   1.963   7.350
 6618POPC   C1B43507  26.114   1.772   6.450
 6618POPC   C2B43508  26.112   1.716   6.750
 6618POPC   C3B43509  26.142   1.707   7.050
 6618POPC   C4B43510  26.119   1.703   7.350
 6619POPC   NC343511  16.708  31.512   5.550
 6619POPC   PO443512  16.720  31.480   5.850
 6619POPC   GL143513  16.744  31.446   6.150
 6619POPC   GL243514  16.763  31.628   6.150
 6619POPC   C1A43515  16.711  31.492   6.450
 6619POPC   D2A43516  16.681  31.437   6.750
 6619POPC   C3A43517  16.693  31.491   7.050
 6619POPC   C4A43518  16.761  31.501   7.350
 6619POPC   C1B43519  16.792  31.729   6.450
 6619POPC   C2B43520  16.737  31.686   6.750
 6619POPC   C3B43521  16.768  31.726   7.050
 6619POPC   C4B43522  16.815  31.734   7.350
 6620POPC   NC343523  36.109  39.206   5.550
 6620POPC   PO443524  36.113  39.224   5.850
 6620POPC   GL143525  36.130  39.207   6.150
 6620POPC   GL243526  36.164  39.371   6.150
 6620POPC   C1A43527  36.106  39.204   6.450
 6620POPC   D2A43528  36.174  39.191   6.750
 6620POPC   C3A43529  36.122  39.271   7.050
 6620POPC   C4A43530  36.095  39.256   7.350
 6620POPC   C1B43531  36.074  39.492   6.450
 6620POPC   C2B43532  36.093  39.442   6.750
 6620POPC   C3B43533  36.071  39.506   7.050
 6620POPC   C4B43534  36.067  39.446   7.350
 6621POPC   NC343535   3.552  42.317   5.550
 6621POPC   PO443536   3.524  42.346   5.850
 6621POPC   GL143537   3.517  42.313   6.150
 6621POPC   GL243538   3.449  42.276   6.150
 6621POPC   C1A43539   3.568  42.327   6.450
 6621POPC   D2A43540   3.505  42.310   6.750
 6621POPC   C3A43541   3.557  42.339   7.050
 6621POPC   C4A43542   3.506  42.383   7.350
 6621POPC   C1B43543   3.386  42.118   6.450
 6621POPC   C2B43544   3.409  42.078   6.750
 6621POPC   C3B43545   3.366  42.109   7.050
 6621POPC   C4B43546   3.426  42.151   7.350
 6622POPC   NC343547  40.044  33.055   5.550
 6622POPC   PO443548  40.006  33.069   5.850
 6622POPC   GL143549  40.011  33.043   6.150
 6622POPC   GL243550  39.915  33.031   6.150
 6622POPC   C1A43551  40.018  33.011   6.450
 6622POPC   D2A43552  40.049  32.974   6.750
 6622POPC   C3A43553  39.958  32.988   7.050
 6622POPC   C4A43554  39.994  33.036   7.350
 6622POPC   C1B43555  39.742  33.072   6.450
 6622POPC   C2B43556  39.760  33.049   6.750
 6622POPC   C3B43557  39.791  32.995   7.050
 6622POPC   C4B43558  39.710  33.033   7.350
 6623POPC   NC343559  15.912  33.824   5.550
 6623POPC   PO443560  15.917  33.779   5.850
 6623POPC   GL143561  15.964  33.765   6.150
 6623POPC   GL243562  16.039  33.867   6.150
 6623POPC   C1A43563  15.942  33.839   6.450
 6623POPC   D2A43564  15.943  33.824   6.750
 6623POPC   C3A43565  15.994  33.830   7.050
 6623POPC   C4A43566  15.958  33.778   7.350
 6623POPC   C1B43567  16.109  33.945   6.450
 6623POPC   C2B43568  16.114  33.936   6.750
 6623POPC   C3B43569  16.178  33.953   7.050
 6623POPC   C4B43570  16.180  33.965   7.350
 6624POPC   NC343571  32.262  37.718   5.550
 6624POPC   PO443572  32.250  37.651   5.850
 6624POPC   GL143573  32.283  37.666   6.150
 6624POPC   GL243574  32.141  37.788   6.150
 6624POPC   C1A43575  32.243  37.644   6.450
 6624POPC   D2A43576  32.244  37.653   6.750
 6624POPC   C3A43577  32.283  37.665   7.050
 6624POPC   C4A43578  32.205  37.688   7.350
 6624POPC   C1B43579  32.109  37.917   6.450
 6624POPC   C2B43580  32.102  37.894   6.750
 6624POPC   C3B43581  32.067  37.896   7.050
 6624POPC   C4B43582  32.143  37.877   7.350
 6625POPC   NC343583  32.213  39.275   5.550
 6625POPC   PO443584  32.215  39.232   5.850
 6625POPC   GL143585  32.252  39.268   6.150
 6625POPC   GL243586  32.270  39.070   6.150
 6625POPC   C1A43587  32.290  39.255   6.450
 6625POPC   D2A43588  32.238  39.275   6.750
 6625POPC   C3A43589  32.278  39.247   7.050
 6625POPC   C4A43590  32.263  39.256   7.350
 6625POPC   C1B43591  32.300  39.004   6.450
 6625POPC   C2B43592  32.260  39.014   6.750
 6625POPC   C3B43593  32.262  38.934   7.050
 6625POPC   C4B43594  32.314  38.999   7.350
 6626POPC   NC343595   6.625  37.678   5.550
 6626POPC   PO443596   6.655  37.700   5.850
 6626POPC   GL143597   6.614  37.685   6.150
 6626POPC   GL243598   6.535  37.675   6.150
 6626POPC   C1A43599   6.657  37.651   6.450
 6626POPC   D2A43600   6.680  37.709   6.750
 6626POPC   C3A43601   6.659  37.693   7.050
 6626POPC   C4A43602   6.610  37.646   7.350
 6626POPC   C1B43603   6.385  37.630   6.450
 6626POPC   C2B43604   6.360  37.591   6.750
 6626POPC   C3B43605   6.421  37.611   7.050
 6626POPC   C4B43606   6.433  37.561   7.350
 6627POPC   NC343607   3.548  14.417   5.550
 6627POPC   PO443608   3.502  14.366   5.850
 6627POPC   GL143609   3.540  14.391   6.150
 6627POPC   GL243610   3.459  14.426   6.150
 6627POPC   C1A43611   3.578  14.388   6.450
 6627POPC   D2A43612   3.524  14.438   6.750
 6627POPC   C3A43613   3.536  14.435   7.050
 6627POPC   C4A43614   3.591  14.369   7.350
 6627POPC   C1B43615   3.286  14.428   6.450
 6627POPC   C2B43616   3.270  14.494   6.750
 6627POPC   C3B43617   3.310  14.448   7.050
 6627POPC   C4B43618   3.303  14.490   7.350
 6628POPC   NC343619  43.126  41.567   5.550
 6628POPC   PO443620  43.092  41.521   5.850
 6628POPC   GL143621  43.098  41.558   6.150
 6628POPC   GL243622  43.042  41.641   6.150
 6628POPC   C1A43623  43.146  41.524   6.450
 6628POPC   D2A43624  43.092  41.528   6.750
 6628POPC   C3A43625  43.072  41.558   7.050
 6628POPC   C4A43626  43.152  41.551   7.350
 6628POPC   C1B43627  43.038  41.807   6.450
 6628POPC   C2B43628  43.057  41.780   6.750
 6628POPC   C3B43629  43.021  41.753   7.050
 6628POPC   C4B43630  43.059  41.812   7.350
 6629POPC   NC343631  26.779   8.192   5.550
 6629POPC   PO443632  26.781   8.219   5.850
 6629POPC   GL143633  26.837   8.197   6.150
 6629POPC   GL243634  26.924   8.285   6.150
 6629POPC   C1A43635  26.826   8.212   6.450
 6629POPC   D2A43636  26.835   8.245   6.750
 6629POPC   C3A43637  26.777   8.178   7.050
 6629POPC   C4A43638  26.788   8.179   7.350
 6629POPC   C1B43639  27.048   8.334   6.450
 6629POPC   C2B43640  27.033   8.303   6.750
 6629POPC   C3B43641  27.061   8.317   7.050
 6629POPC   C4B43642  27.027   8.364   7.350
 6630POPC   NC343643  22.945  21.348   5.550
 6630POPC   PO443644  22.973  21.381   5.850
 6630POPC   GL143645  22.973  21.344   6.150
 6630POPC   GL243646  23.051  21.500   6.150
 6630POPC   C1A43647  22.934  21.344   6.450
 6630POPC   D2A43648  22.981  21.358   6.750
 6630POPC   C3A43649  22.958  21.366   7.050
 6630POPC   C4A43650  22.921  21.410   7.350
 6630POPC   C1B43651  23.129  21.530   6.450
 6630POPC   C2B43652  23.103  21.531   6.750
 6630POPC   C3B43653  23.083  21.550   7.050
 6630POPC   C4B43654  23.084  21.609   7.350
 6631POPC   NC343655   9.004  43.899   5.550
 6631POPC   PO443656   9.000  43.904   5.850
 6631POPC   GL143657   8.962  43.875   6.150
 6631POPC   GL243658   8.854  43.906   6.150
 6631POPC   C1A43659   8.963  43.924   6.450
 6631POPC   D2A43660   8.971  43.845   6.750
 6631POPC   C3A43661   8.992  43.904   7.050
 6631POPC   C4A43662   8.929  43.863   7.350
 6631POPC   C1B43663   8.713  44.026   6.450
 6631POPC   C2B43664   8.731  43.999   6.750
 6631POPC   C3B43665   8.758  44.012   7.050
 6631POPC   C4B43666   8.736  43.978   7.350
 6632POPC   NC343667  42.369  25.247   5.550
 6632POPC   PO443668  42.357  25.238   5.850
 6632POPC   GL143669  42.311  25.256   6.150
 6632POPC   GL243670  42.476  25.260   6.150
 6632POPC   C1A43671  42.374  25.313   6.450
 6632POPC   D2A43672  42.322  25.266   6.750
 6632POPC   C3A43673  42.347  25.285   7.050
 6632POPC   C4A43674  42.290  25.261   7.350
 6632POPC   C1B43675  42.530  25.153   6.450
 6632POPC   C2B43676  42.610  25.197   6.750
 6632POPC   C3B43677  42.574  25.188   7.050
 6632POPC   C4B43678  42.519  25.141   7.350
 6633POPC   NC343679  25.312   5.828   5.550
 6633POPC   PO443680  25.217   5.907   5.850
 6633POPC   GL143681  25.223   5.852   6.150
 6633POPC   GL243682  25.147   5.961   6.150
 6633POPC   C1A43683  25.248   5.861   6.450
 6633POPC   D2A43684  25.239   5.821   6.750
 6633POPC   C3A43685  25.301   5.903   7.050
 6633POPC   C4A43686  25.237   5.890   7.350
 6633POPC   C1B43687  25.039   6.085   6.450
 6633POPC   C2B43688  25.052   6.072   6.750
 6633POPC   C3B43689  25.117   6.048   7.050
 6633POPC   C4B43690  25.103   5.996   7.350
 6634POPC   NC343691  33.774  32.975   5.550
 6634POPC   PO443692  33.765  32.986   5.850
 6634POPC   GL143693  33.770  32.998   6.150
 6634POPC   GL243694  33.673  33.036   6.150
 6634POPC   C1A43695  33.822  32.993   6.450
 6634POPC   D2A43696  33.760  32.977   6.750
 6634POPC   C3A43697  33.793  33.051   7.050
 6634POPC   C4A43698  33.754  32.976   7.350
 6634POPC   C1B43699  33.511  32.962   6.450
 6634POPC   C2B43700  33.573  33.045   6.750
 6634POPC   C3B43701  33.516  32.985   7.050
 6634POPC   C4B43702  33.543  32.981   7.350
 6635POPC   NC343703  37.685  22.981   5.550
 6635POPC   PO443704  37.680  22.955   5.850
 6635POPC   GL143705  37.707  22.933   6.150
 6635POPC   GL243706  37.631  23.090   6.150
 6635POPC   C1A43707  37.633  22.909   6.450
 6635POPC   D2A43708  37.724  22.927   6.750
 6635POPC   C3A43709  37.705  22.963   7.050
 6635POPC   C4A43710  37.634  22.936   7.350
 6635POPC   C1B43711  37.610  23.123   6.450
 6635POPC   C2B43712  37.556  23.185   6.750
 6635POPC   C3B43713  37.597  23.194   7.050
 6635POPC   C4B43714  37.591  23.191   7.350
 6636POPC   NC343715  22.118  30.699   5.550
 6636POPC   PO443716  22.150  30.694   5.850
 6636POPC   GL143717  22.135  30.688   6.150
 6636POPC   GL243718  22.318  30.719   6.150
 6636POPC   C1A43719  22.126  30.711   6.450
 6636POPC   D2A43720  22.208  30.648   6.750
 6636POPC   C3A43721  22.132  30.696   7.050
 6636POPC   C4A43722  22.180  30.732   7.350
 6636POPC   C1B43723  22.410  30.783   6.450
 6636POPC   C2B43724  22.409  30.831   6.750
 6636POPC   C3B43725  22.427  30.805   7.050
 6636POPC   C4B43726  22.401  30.749   7.350
 6637POPC   NC343727  36.937  36.136   5.550
 6637POPC   PO443728  36.908  36.139   5.850
 6637POPC   GL143729  36.896  36.143   6.150
 6637POPC   GL243730  37.006  36.098   6.150
 6637POPC   C1A43731  36.890  36.121   6.450
 6637POPC   D2A43732  36.947  36.096   6.750
 6637POPC   C3A43733  36.928  36.162   7.050
 6637POPC   C4A43734  36.950  36.167   7.350
 6637POPC   C1B43735  37.154  36.020   6.450
 6637POPC   C2B43736  37.159  36.085   6.750
 6637POPC   C3B43737  37.149  36.006   7.050
 6637POPC   C4B43738  37.166  36.062   7.350
 6638POPC   NC343739  11.260  44.681   5.550
 6638POPC   PO443740  11.330  44.687   5.850
 6638POPC   GL143741  11.260  44.711   6.150
 6638POPC   GL243742  11.420  44.736   6.150
 6638POPC   C1A43743  11.303  44.685   6.450
 6638POPC   D2A43744  11.256  44.624   6.750
 6638POPC   C3A43745  11.254  44.704   7.050
 6638POPC   C4A43746  11.317  44.636   7.350
 6638POPC   C1B43747  11.538  44.744   6.450
 6638POPC   C2B43748  11.538  44.762   6.750
 6638POPC   C3B43749  11.564  44.746   7.050
 6638POPC   C4B43750  11.585  44.730   7.350
 6639POPC   NC343751   1.988  24.443   5.550
 6639POPC   PO443752   1.979  24.497   5.850
 6639POPC   GL143753   2.023  24.455   6.150
 6639POPC   GL243754   2.153  24.472   6.150
 6639POPC   C1A43755   1.961  24.441   6.450
 6639POPC   D2A43756   1.952  24.483   6.750
 6639POPC   C3A43757   1.996  24.493   7.050
 6639POPC   C4A43758   2.018  24.478   7.350
 6639POPC   C1B43759   2.222  24.495   6.450
 6639POPC   C2B43760   2.217  24.496   6.750
 6639POPC   C3B43761   2.253  24.418   7.050
 6639POPC   C4B43762   2.273  24.416   7.350
 6640POPC   NC343763   5.903   3.507   5.550
 6640POPC   PO443764   5.911   3.522   5.850
 6640POPC   GL143765   5.888   3.567   6.150
 6640POPC   GL243766   5.929   3.686   6.150
 6640POPC   C1A43767   5.851   3.493   6.450
 6640POPC   D2A43768   5.893   3.525   6.750
 6640POPC   C3A43769   5.871   3.493   7.050
 6640POPC   C4A43770   5.910   3.583   7.350
 6640POPC   C1B43771   5.972   3.776   6.450
 6640POPC   C2B43772   5.914   3.820   6.750
 6640POPC   C3B43773   5.959   3.808   7.050
 6640POPC   C4B43774   5.962   3.798   7.350
 6641POPC   NC343775  14.408  19.808   5.550
 6641POPC   PO443776  14.361  19.814   5.850
 6641POPC   GL143777  14.427  19.824   6.150
 6641POPC   GL243778  14.312  19.889   6.150
 6641POPC   C1A43779  14.436  19.794   6.450
 6641POPC   D2A43780  14.453  19.843   6.750
 6641POPC   C3A43781  14.370  19.856   7.050
 6641POPC   C4A43782  14.408  19.809   7.350
 6641POPC   C1B43783  14.146  19.905   6.450
 6641POPC   C2B43784  14.145  19.881   6.750
 6641POPC   C3B43785  14.153  19.884   7.050
 6641POPC   C4B43786  14.176  19.923   7.350
 6642POPC   NC343787  16.717  25.269   5.550
 6642POPC   PO443788  16.732  25.236   5.850
 6642POPC   GL143789  16.751  25.238   6.150
 6642POPC   GL243790  16.774  25.352   6.150
 6642POPC   C1A43791  16.716  25.230   6.450
 6642POPC   D2A43792  16.739  25.234   6.750
 6642POPC   C3A43793  16.737  25.262   7.050
 6642POPC   C4A43794  16.741  25.251   7.350
 6642POPC   C1B43795  16.934  25.447   6.450
 6642POPC   C2B43796  16.905  25.416   6.750
 6642POPC   C3B43797  16.896  25.493   7.050
 6642POPC   C4B43798  16.914  25.500   7.350
 6643POPC   NC343799  33.804   0.429   5.550
 6643POPC   PO443800  33.811   0.457   5.850
 6643POPC   GL143801  33.815   0.459   6.150
 6643POPC   GL243802  33.687   0.569   6.150
 6643POPC   C1A43803  33.838   0.479   6.450
 6643POPC   D2A43804  33.793   0.465   6.750
 6643POPC   C3A43805  33.835   0.421   7.050
 6643POPC   C4A43806  33.833   0.402   7.350
 6643POPC   C1B43807  33.709   0.637   6.450
 6643POPC   C2B43808  33.640   0.608   6.750
 6643POPC   C3B43809  33.706   0.678   7.050
 6643POPC   C4B43810  33.666   0.605   7.350
 6644POPC   NC343811  39.239  15.213   5.550
 6644POPC   PO443812  39.189  15.173   5.850
 6644POPC   GL143813  39.238  15.162   6.150
 6644POPC   GL243814  39.120  15.259   6.150
 6644POPC   C1A43815  39.203  15.169   6.450
 6644POPC   D2A43816  39.181  15.199   6.750
 6644POPC   C3A43817  39.253  15.176   7.050
 6644POPC   C4A43818  39.222  15.129   7.350
 6644POPC   C1B43819  39.097  15.374   6.450
 6644POPC   C2B43820  39.041  15.332   6.750
 6644POPC   C3B43821  39.063  15.317   7.050
 6644POPC   C4B43822  39.060  15.386   7.350
 6645POPC   NC343823  28.382   8.927   5.550
 6645POPC   PO443824  28.326   8.953   5.850
 6645POPC   GL143825  28.387   8.955   6.150
 6645POPC   GL243826  28.368   9.091   6.150
 6645POPC   C1A43827  28.361   9.012   6.450
 6645POPC   D2A43828  28.415   9.001   6.750
 6645POPC   C3A43829  28.380   9.017   7.050
 6645POPC   C4A43830  28.392   8.927   7.350
 6645POPC   C1B43831  28.370   9.219   6.450
 6645POPC   C2B43832  28.325   9.230   6.750
 6645POPC   C3B43833  28.318   9.259   7.050
 6645POPC   C4B43834  28.359   9.229   7.350
 6646POPC   NC343835   6.599  23.730   5.550
 6646POPC   PO443836   6.643  23.726   5.850
 6646POPC   GL143837   6.619  23.671   6.150
 6646POPC   GL243838   6.698  23.558   6.150
 6646POPC   C1A43839   6.659  23.684   6.450
 6646POPC   D2A43840   6.661  23.733   6.750
 6646POPC   C3A43841   6.656  23.704   7.050
 6646POPC   C4A43842   6.625  23.682   7.350
 6646POPC   C1B43843   6.696  23.483   6.450
 6646POPC   C2B43844   6.602  23.430   6.750
 6646POPC   C3B43845   6.646  23.428   7.050
 6646POPC   C4B43846   6.667  23.500   7.350
 6647POPC   NC343847  15.191  18.294   5.550
 6647POPC   PO443848  15.159  18.278   5.850
 6647POPC   GL143849  15.199  18.268   6.150
 6647POPC   GL243850  15.089  18.341   6.150
 6647POPC   C1A43851  15.229  18.290   6.450
 6647POPC   D2A43852  15.136  18.237   6.750
 6647POPC   C3A43853  15.135  18.307   7.050
 6647POPC   C4A43854  15.194  18.262   7.350
 6647POPC   C1B43855  14.956  18.457   6.450
 6647POPC   C2B43856  15.032  18.411   6.750
 6647POPC   C3B43857  14.976  18.432   7.050
 6647POPC   C4B43858  14.960  18.459   7.350
 6648POPC   NC343859  36.929  29.109   5.550
 6648POPC   PO443860  36.866  29.160   5.850
 6648POPC   GL143861  36.903  29.168   6.150
 6648POPC   GL243862  37.027  29.249   6.150
 6648POPC   C1A43863  36.877  29.140   6.450
 6648POPC   D2A43864  36.878  29.147   6.750
 6648POPC   C3A43865  36.872  29.118   7.050
 6648POPC   C4A43866  36.899  29.114   7.350
 6648POPC   C1B43867  37.078  29.284   6.450
 6648POPC   C2B43868  37.054  29.376   6.750
 6648POPC   C3B43869  37.090  29.372   7.050
 6648POPC   C4B43870  37.101  29.296   7.350
 6649POPC   NC343871   1.183  23.725   5.550
 6649POPC   PO443872   1.191  23.690   5.850
 6649POPC   GL143873   1.170  23.753   6.150
 6649POPC   GL243874   1.156  23.556   6.150
 6649POPC   C1A43875   1.249  23.669   6.450
 6649POPC   D2A43876   1.194  23.726   6.750
 6649POPC   C3A43877   1.207  23.739   7.050
 6649POPC   C4A43878   1.191  23.719   7.350
 6649POPC   C1B43879   1.114  23.491   6.450
 6649POPC   C2B43880   1.190  23.477   6.750
 6649POPC   C3B43881   1.145  23.448   7.050
 6649POPC   C4B43882   1.144  23.430   7.350
 6650POPC   NC343883   3.510  15.963   5.550
 6650POPC   PO443884   3.503  15.932   5.850
 6650POPC   GL143885   3.573  15.924   6.150
 6650POPC   GL243886   3.480  16.044   6.150
 6650POPC   C1A43887   3.580  15.909   6.450
 6650POPC   D2A43888   3.521  15.961   6.750
 6650POPC   C3A43889   3.590  15.916   7.050
 6650POPC   C4A43890   3.579  15.926   7.350
 6650POPC   C1B43891   3.332  16.152   6.450
 6650POPC   C2B43892   3.394  16.103   6.750
 6650POPC   C3B43893   3.317  16.161   7.050
 6650POPC   C4B43894   3.319  16.090   7.350
 6651POPC   NC343895   3.581  29.114   5.550
 6651POPC   PO443896   3.527  29.161   5.850
 6651POPC   GL143897   3.518  29.104   6.150
 6651POPC   GL243898   3.676  29.111   6.150
 6651POPC   C1A43899   3.547  29.101   6.450
 6651POPC   D2A43900   3.523  29.160   6.750
 6651POPC   C3A43901   3.564  29.099   7.050
 6651POPC   C4A43902   3.578  29.146   7.350
 6651POPC   C1B43903   3.783  29.095   6.450
 6651POPC   C2B43904   3.762  29.009   6.750
 6651POPC   C3B43905   3.753  29.099   7.050
 6651POPC   C4B43906   3.731  29.039   7.350
 6652POPC   NC343907  15.228  29.102   5.550
 6652POPC   PO443908  15.156  29.123   5.850
 6652POPC   GL143909  15.168  29.097   6.150
 6652POPC   GL243910  15.176  28.993   6.150
 6652POPC   C1A43911  15.222  29.186   6.450
 6652POPC   D2A43912  15.146  29.184   6.750
 6652POPC   C3A43913  15.149  29.109   7.050
 6652POPC   C4A43914  15.185  29.159   7.350
 6652POPC   C1B43915  15.233  28.938   6.450
 6652POPC   C2B43916  15.213  28.919   6.750
 6652POPC   C3B43917  15.255  28.905   7.050
 6652POPC   C4B43918  15.254  28.857   7.350
 6653POPC   NC343919  43.078  13.620   5.550
 6653POPC   PO443920  43.070  13.654   5.850
 6653POPC   GL143921  43.090  13.672   6.150
 6653POPC   GL243922  43.006  13.612   6.150
 6653POPC   C1A43923  43.128  13.637   6.450
 6653POPC   D2A43924  43.145  13.590   6.750
 6653POPC   C3A43925  43.115  13.677   7.050
 6653POPC   C4A43926  43.136  13.625   7.350
 6653POPC   C1B43927  42.847  13.553   6.450
 6653POPC   C2B43928  42.909  13.549   6.750
 6653POPC   C3B43929  42.857  13.547   7.050
 6653POPC   C4B43930  42.922  13.552   7.350
 6654POPC   NC343931  18.283  18.318   5.550
 6654POPC   PO443932  18.324  18.240   5.850
 6654POPC   GL143933  18.277  18.275   6.150
 6654POPC   GL243934  18.224  18.360   6.150
 6654POPC   C1A43935  18.268  18.241   6.450
 6654POPC   D2A43936  18.282  18.242   6.750
 6654POPC   C3A43937  18.273  18.319   7.050
 6654POPC   C4A43938  18.300  18.292   7.350
 6654POPC   C1B43939  18.235  18.537   6.450
 6654POPC   C2B43940  18.205  18.548   6.750
 6654POPC   C3B43941  18.197  18.494   7.050
 6654POPC   C4B43942  18.229  18.527   7.350
 6655POPC   NC343943   0.442  29.951   5.550
 6655POPC   PO443944   0.448  29.887   5.850
 6655POPC   GL143945   0.468  29.899   6.150
 6655POPC   GL243946   0.344  29.869   6.150
 6655POPC   C1A43947   0.411  29.927   6.450
 6655POPC   D2A43948   0.477  29.969   6.750
 6655POPC   C3A43949   0.440  29.959   7.050
 6655POPC   C4A43950   0.388  29.911   7.350
 6655POPC   C1B43951   0.298  29.722   6.450
 6655POPC   C2B43952   0.260  29.776   6.750
 6655POPC   C3B43953   0.299  29.731   7.050
 6655POPC   C4B43954   0.235  29.787   7.350
 6656POPC   NC343955   5.881  32.293   5.550
 6656POPC   PO443956   5.834  32.211   5.850
 6656POPC   GL143957   5.886  32.292   6.150
 6656POPC   GL243958   5.957  32.275   6.150
 6656POPC   C1A43959   5.858  32.216   6.450
 6656POPC   D2A43960   5.860  32.268   6.750
 6656POPC   C3A43961   5.863  32.270   7.050
 6656POPC   C4A43962   5.889  32.282   7.350
 6656POPC   C1B43963   6.107  32.346   6.450
 6656POPC   C2B43964   6.049  32.308   6.750
 6656POPC   C3B43965   6.112  32.374   7.050
 6656POPC   C4B43966   6.106  32.347   7.350
 6657POPC   NC343967   7.422  22.182   5.550
 6657POPC   PO443968   7.404  22.134   5.850
 6657POPC   GL143969   7.401  22.159   6.150
 6657POPC   GL243970   7.302  22.264   6.150
 6657POPC   C1A43971   7.399  22.201   6.450
 6657POPC   D2A43972   7.393  22.132   6.750
 6657POPC   C3A43973   7.426  22.156   7.050
 6657POPC   C4A43974   7.398  22.184   7.350
 6657POPC   C1B43975   7.182  22.249   6.450
 6657POPC   C2B43976   7.165  22.328   6.750
 6657POPC   C3B43977   7.244  22.335   7.050
 6657POPC   C4B43978   7.177  22.325   7.350
 6658POPC   NC343979  16.728  37.631   5.550
 6658POPC   PO443980  16.706  37.652   5.850
 6658POPC   GL143981  16.768  37.671   6.150
 6658POPC   GL243982  16.702  37.538   6.150
 6658POPC   C1A43983  16.778  37.683   6.450
 6658POPC   D2A43984  16.730  37.717   6.750
 6658POPC   C3A43985  16.760  37.729   7.050
 6658POPC   C4A43986  16.698  37.669   7.350
 6658POPC   C1B43987  16.687  37.388   6.450
 6658POPC   C2B43988  16.660  37.464   6.750
 6658POPC   C3B43989  16.674  37.460   7.050
 6658POPC   C4B43990  16.644  37.455   7.350
 6659POPC   NC343991  36.108  19.827   5.550
 6659POPC   PO443992  36.104  19.845   5.850
 6659POPC   GL143993  36.149  19.800   6.150
 6659POPC   GL243994  36.112  19.727   6.150
 6659POPC   C1A43995  36.164  19.868   6.450
 6659POPC   D2A43996  36.177  19.875   6.750
 6659POPC   C3A43997  36.109  19.803   7.050
 6659POPC   C4A43998  36.089  19.810   7.350
 6659POPC   C1B43999  36.005  19.644   6.450
 6659POPC   C2B44000  36.026  19.638   6.750
 6659POPC   C3B44001  36.075  19.640   7.050
 6659POPC   C4B44002  36.045  19.617   7.350
 6660POPC   NC344003  34.604  26.066   5.550
 6660POPC   PO444004  34.570  26.075   5.850
 6660POPC   GL144005  34.570  26.086   6.150
 6660POPC   GL244006  34.659  25.991   6.150
 6660POPC   C1A44007  34.549  25.994   6.450
 6660POPC   D2A44008  34.578  26.052   6.750
 6660POPC   C3A44009  34.533  26.076   7.050
 6660POPC   C4A44010  34.539  26.051   7.350
 6660POPC   C1B44011  34.718  25.839   6.450
 6660POPC   C2B44012  34.737  25.874   6.750
 6660POPC   C3B44013  34.697  25.870   7.050
 6660POPC   C4B44014  34.780  25.834   7.350
 6661POPC   NC344015  10.520  19.853   5.550
 6661POPC   PO444016  10.549  19.828   5.850
 6661POPC   GL144017  10.511  19.806   6.150
 6661POPC   GL244018  10.380  19.955   6.150
 6661POPC   C1A44019  10.561  19.823   6.450
 6661POPC   D2A44020  10.528  19.864   6.750
 6661POPC   C3A44021  10.535  19.823   7.050
 6661POPC   C4A44022  10.546  19.851   7.350
 6661POPC   C1B44023  10.345  19.980   6.450
 6661POPC   C2B44024  10.281  19.953   6.750
 6661POPC   C3B44025  10.367  19.985   7.050
 6661POPC   C4B44026  10.292  20.008   7.350
 6662POPC   NC344027   5.082  38.503   5.550
 6662POPC   PO444028   5.107  38.408   5.850
 6662POPC   GL144029   5.105  38.425   6.150
 6662POPC   GL244030   5.017  38.480   6.150
 6662POPC   C1A44031   5.079  38.424   6.450
 6662POPC   D2A44032   5.098  38.487   6.750
 6662POPC   C3A44033   5.127  38.478   7.050
 6662POPC   C4A44034   5.060  38.413   7.350
 6662POPC   C1B44035   4.841  38.562   6.450
 6662POPC   C2B44036   4.845  38.539   6.750
 6662POPC   C3B44037   4.840  38.558   7.050
 6662POPC   C4B44038   4.855  38.566   7.350
 6663POPC   NC344039   5.906  19.025   5.550
 6663POPC   PO444040   5.819  19.042   5.850
 6663POPC   GL144041   5.847  19.014   6.150
 6663POPC   GL244042   5.771  19.039   6.150
 6663POPC   C1A44043   5.821  19.052   6.450
 6663POPC   D2A44044   5.911  19.070   6.750
 6663POPC   C3A44045   5.886  19.009   7.050
 6663POPC   C4A44046   5.867  19.026   7.350
 6663POPC   C1B44047   5.676  18.995   6.450
 6663POPC   C2B44048   5.647  19.027   6.750
 6663POPC   C3B44049   5.589  19.003   7.050
 6663POPC   C4B44050   5.666  18.946   7.350
 6664POPC   NC344051   5.126  36.915   5.550
 6664POPC   PO444052   5.101  36.865   5.850
 6664POPC   GL144053   5.136  36.877   6.150
 6664POPC   GL244054   5.013  36.881   6.150
 6664POPC   C1A44055   5.053  36.886   6.450
 6664POPC   D2A44056   5.077  36.931   6.750
 6664POPC   C3A44057   5.122  36.859   7.050
 6664POPC   C4A44058   5.054  36.926   7.350
 6664POPC   C1B44059   4.875  36.789   6.450
 6664POPC   C2B44060   4.843  36.797   6.750
 6664POPC   C3B44061   4.855  36.812   7.050
 6664POPC   C4B44062   4.826  36.813   7.350
 6665POPC   NC344063  15.912  15.145   5.550
 6665POPC   PO444064  15.943  15.224   5.850
 6665POPC   GL144065  15.905  15.149   6.150
 6665POPC   GL244066  16.096  15.267   6.150
 6665POPC   C1A44067  15.995  15.213   6.450
 6665POPC   D2A44068  15.927  15.214   6.750
 6665POPC   C3A44069  16.004  15.148   7.050
 6665POPC   C4A44070  15.936  15.211   7.350
 6665POPC   C1B44071  16.200  15.232   6.450
 6665POPC   C2B44072  16.221  15.272   6.750
 6665POPC   C3B44073  16.202  15.261   7.050
 6665POPC   C4B44074  16.234  15.253   7.350
 6666POPC   NC344075   1.171  44.652   5.550
 6666POPC   PO444076   1.195  44.667   5.850
 6666POPC   GL144077   1.257  44.628   6.150
 6666POPC   GL244078   1.294  44.544   6.150
 6666POPC   C1A44079   1.175  44.667   6.450
 6666POPC   D2A44080   1.241  44.624   6.750
 6666POPC   C3A44081   1.225  44.657   7.050
 6666POPC   C4A44082   1.243  44.680   7.350
 6666POPC   C1B44083   1.367  44.478   6.450
 6666POPC   C2B44084   1.417  44.445   6.750
 6666POPC   C3B44085   1.373  44.501   7.050
 6666POPC   C4B44086   1.404  44.443   7.350
 6667POPC   NC344087  24.463   3.581   5.550
 6667POPC   PO444088  24.533   3.549   5.850
 6667POPC   GL144089  24.478   3.573   6.150
 6667POPC   GL244090  24.382   3.595   6.150
 6667POPC   C1A44091  24.454   3.556   6.450
 6667POPC   D2A44092  24.520   3.523   6.750
 6667POPC   C3A44093  24.444   3.577   7.050
 6667POPC   C4A44094  24.455   3.554   7.350
 6667POPC   C1B44095  24.298   3.729   6.450
 6667POPC   C2B44096  24.269   3.716   6.750
 6667POPC   C3B44097  24.339   3.728   7.050
 6667POPC   C4B44098  24.299   3.706   7.350
 6668POPC   NC344099  43.116  33.027   5.550
 6668POPC   PO444100  43.128  33.001   5.850
 6668POPC   GL144101  43.127  33.017   6.150
 6668POPC   GL244102  43.021  33.053   6.150
 6668POPC   C1A44103  43.131  33.049   6.450
 6668POPC   D2A44104  43.116  32.977   6.750
 6668POPC   C3A44105  43.129  33.050   7.050
 6668POPC   C4A44106  43.111  33.020   7.350
 6668POPC   C1B44107  42.907  33.194   6.450
 6668POPC   C2B44108  42.949  33.111   6.750
 6668POPC   C3B44109  42.873  33.120   7.050
 6668POPC   C4B44110  42.913  33.207   7.350
 6669POPC   NC344111   0.434  17.466   5.550
 6669POPC   PO444112   0.423  17.555   5.850
 6669POPC   GL144113   0.432  17.550   6.150
 6669POPC   GL244114   0.392  17.616   6.150
 6669POPC   C1A44115   0.463  17.518   6.450
 6669POPC   D2A44116   0.415  17.538   6.750
 6669POPC   C3A44117   0.434  17.500   7.050
 6669POPC   C4A44118   0.465  17.488   7.350
 6669POPC   C1B44119   0.295  17.695   6.450
 6669POPC   C2B44120   0.296  17.711   6.750
 6669POPC   C3B44121   0.314  17.650   7.050
 6669POPC   C4B44122   0.292  17.698   7.350
 6670POPC   NC344123  12.091  26.064   5.550
 6670POPC   PO444124  12.072  26.002   5.850
 6670POPC   GL144125  12.043  26.083   6.150
 6670POPC   GL244126  11.990  25.971   6.150
 6670POPC   C1A44127  12.115  26.075   6.450
 6670POPC   D2A44128  12.071  26.042   6.750
 6670POPC   C3A44129  12.112  26.009   7.050
 6670POPC   C4A44130  12.077  26.054   7.350
 6670POPC   C1B44131  11.873  25.994   6.450
 6670POPC   C2B44132  11.871  26.019   6.750
 6670POPC   C3B44133  11.863  25.963   7.050
 6670POPC   C4B44134  11.810  25.943   7.350
 6671POPC   NC344135  33.011  30.728   5.550
 6671POPC   PO444136  33.008  30.675   5.850
 6671POPC   GL144137  32.989  30.732   6.150
 6671POPC   GL244138  32.944  30.811   6.150
 6671POPC   C1A44139  33.003  30.734   6.450
 6671POPC   D2A44140  33.003  30.665   6.750
 6671POPC   C3A44141  32.995  30.733   7.050
 6671POPC   C4A44142  33.044  30.715   7.350
 6671POPC   C1B44143  32.944  30.954   6.450
 6671POPC   C2B44144  32.910  30.961   6.750
 6671POPC   C3B44145  32.970  30.958   7.050
 6671POPC   C4B44146  32.947  30.966   7.350
 6672POPC   NC344147  41.512  12.838   5.550
 6672POPC   PO444148  41.521  12.812   5.850
 6672POPC   GL144149  41.585  12.837   6.150
 6672POPC   GL244150  41.457  12.878   6.150
 6672POPC   C1A44151  41.565  12.812   6.450
 6672POPC   D2A44152  41.568  12.894   6.750
 6672POPC   C3A44153  41.511  12.897   7.050
 6672POPC   C4A44154  41.598  12.811   7.350
 6672POPC   C1B44155  41.283  12.882   6.450
 6672POPC   C2B44156  41.270  12.855   6.750
 6672POPC   C3B44157  41.310  12.884   7.050
 6672POPC   C4B44158  41.317  12.879   7.350
 6673POPC   NC344159   7.420  35.394   5.550
 6673POPC   PO444160   7.377  35.367   5.850
 6673POPC   GL144161   7.469  35.346   6.150
 6673POPC   GL244162   7.494  35.304   6.150
 6673POPC   C1A44163   7.429  35.373   6.450
 6673POPC   D2A44164   7.379  35.334   6.750
 6673POPC   C3A44165   7.373  35.343   7.050
 6673POPC   C4A44166   7.431  35.356   7.350
 6673POPC   C1B44167   7.637  35.195   6.450
 6673POPC   C2B44168   7.627  35.194   6.750
 6673POPC   C3B44169   7.666  35.223   7.050
 6673POPC   C4B44170   7.668  35.221   7.350
 6674POPC   NC344171  21.391  11.307   5.550
 6674POPC   PO444172  21.398  11.325   5.850
 6674POPC   GL144173  21.375  11.297   6.150
 6674POPC   GL244174  21.349  11.360   6.150
 6674POPC   C1A44175  21.417  11.304   6.450
 6674POPC   D2A44176  21.395  11.344   6.750
 6674POPC   C3A44177  21.355  11.286   7.050
 6674POPC   C4A44178  21.372  11.324   7.350
 6674POPC   C1B44179  21.261  11.465   6.450
 6674POPC   C2B44180  21.240  11.484   6.750
 6674POPC   C3B44181  21.201  11.534   7.050
 6674POPC   C4B44182  21.266  11.518   7.350
 6675POPC   NC344183  44.687   7.453   5.550
 6675POPC   PO444184  44.682   7.397   5.850
 6675POPC   GL144185  44.648   7.444   6.150
 6675POPC   GL244186  44.810   7.341   6.150
 6675POPC   C1A44187  44.680   7.422   6.450
 6675POPC   D2A44188  44.664   7.434   6.750
 6675POPC   C3A44189  44.681   7.440   7.050
 6675POPC   C4A44190  44.693   7.404   7.350
 6675POPC   C1B44191  44.916   7.318   6.450
 6675POPC   C2B44192  44.881   7.269   6.750
 6675POPC   C3B44193  44.905   7.256   7.050
 6675POPC   C4B44194  44.839   7.305   7.350
 6676POPC   NC344195  31.439   8.156   5.550
 6676POPC   PO444196  31.491   8.221   5.850
 6676POPC   GL144197  31.468   8.209   6.150
 6676POPC   GL244198  31.349   8.294   6.150
 6676POPC   C1A44199  31.441   8.216   6.450
 6676POPC   D2A44200  31.504   8.185   6.750
 6676POPC   C3A44201  31.492   8.167   7.050
 6676POPC   C4A44202  31.425   8.150   7.350
 6676POPC   C1B44203  31.294   8.289   6.450
 6676POPC   C2B44204  31.267   8.324   6.750
 6676POPC   C3B44205  31.224   8.356   7.050
 6676POPC   C4B44206  31.292   8.301   7.350
 6677POPC   NC344207  39.961  29.916   5.550
 6677POPC   PO444208  40.055  29.891   5.850
 6677POPC   GL144209  39.967  29.892   6.150
 6677POPC   GL244210  40.065  29.757   6.150
 6677POPC   C1A44211  39.957  29.930   6.450
 6677POPC   D2A44212  39.992  29.944   6.750
 6677POPC   C3A44213  40.017  29.885   7.050
 6677POPC   C4A44214  40.006  29.928   7.350
 6677POPC   C1B44215  40.104  29.707   6.450
 6677POPC   C2B44216  40.083  29.670   6.750
 6677POPC   C3B44217  40.112  29.732   7.050
 6677POPC   C4B44218  40.157  29.689   7.350
 6678POPC   NC344219   0.428   1.247   5.550
 6678POPC   PO444220   0.435   1.244   5.850
 6678POPC   GL144221   0.429   1.203   6.150
 6678POPC   GL244222   0.367   1.127   6.150
 6678POPC   C1A44223   0.391   1.225   6.450
 6678POPC   D2A44224   0.468   1.166   6.750
 6678POPC   C3A44225   0.413   1.229   7.050
 6678POPC   C4A44226   0.487   1.249   7.350
 6678POPC   C1B44227   0.261   1.040   6.450
 6678POPC   C2B44228   0.265   1.075   6.750
 6678POPC   C3B44229   0.275   1.089   7.050
 6678POPC   C4B44230   0.256   1.027   7.350
 6679POPC   NC344231  32.235  28.393   5.550
 6679POPC   PO444232  32.259  28.343   5.850
 6679POPC   GL144233  32.239  28.386   6.150
 6679POPC   GL244234  32.124  28.370   6.150
 6679POPC   C1A44235  32.276  28.357   6.450
 6679POPC   D2A44236  32.263  28.348   6.750
 6679POPC   C3A44237  32.229  28.396   7.050
 6679POPC   C4A44238  32.201  28.356   7.350
 6679POPC   C1B44239  31.966  28.363   6.450
 6679POPC   C2B44240  31.997  28.409   6.750
 6679POPC   C3B44241  32.011  28.398   7.050
 6679POPC   C4B44242  32.045  28.389   7.350
 6680POPC   NC344243  36.157  44.700   5.550
 6680POPC   PO444244  36.097  44.619   5.850
 6680POPC   GL144245  36.162  44.679   6.150
 6680POPC   GL244246  36.028  44.685   6.150
 6680POPC   C1A44247  36.172  44.650   6.450
 6680POPC   D2A44248  36.115  44.618   6.750
 6680POPC   C3A44249  36.095  44.638   7.050
 6680POPC   C4A44250  36.102  44.634   7.350
 6680POPC   C1B44251  35.932  44.726   6.450
 6680POPC   C2B44252  35.854  44.732   6.750
 6680POPC   C3B44253  35.926  44.782   7.050
 6680POPC   C4B44254  35.848  44.738   7.350
 6681POPC   NC344255   8.923  20.577   5.550
 6681POPC   PO444256   9.005  20.597   5.850
 6681POPC   GL144257   8.944  20.643   6.150
 6681POPC   GL244258   8.920  20.500   6.150
 6681POPC   C1A44259   8.927  20.603   6.450
 6681POPC   D2A44260   8.963  20.585   6.750
 6681POPC   C3A44261   8.945  20.598   7.050
 6681POPC   C4A44262   8.933  20.658   7.350
 6681POPC   C1B44263   8.948  20.317   6.450
 6681POPC   C2B44264   8.949  20.407   6.750
 6681POPC   C3B44265   8.951  20.336   7.050
 6681POPC   C4B44266   8.943  20.385   7.350
 6682POPC   NC344267  16.716   8.237   5.550
 6682POPC   PO444268  16.709   8.182   5.850
 6682POPC   GL144269  16.706   8.183   6.150
 6682POPC   GL244270  16.680   8.122   6.150
 6682POPC   C1A44271  16.736   8.190   6.450
 6682POPC   D2A44272  16.732   8.239   6.750
 6682POPC   C3A44273  16.692   8.162   7.050
 6682POPC   C4A44274  16.726   8.168   7.350
 6682POPC   C1B44275  16.616   7.963   6.450
 6682POPC   C2B44276  16.600   8.008   6.750
 6682POPC   C3B44277  16.622   8.000   7.050
 6682POPC   C4B44278  16.547   7.979   7.350
 6683POPC   NC344279  19.076  42.288   5.550
 6683POPC   PO444280  19.080  42.344   5.850
 6683POPC   GL144281  19.052  42.357   6.150
 6683POPC   GL244282  18.958  42.295   6.150
 6683POPC   C1A44283  19.056  42.380   6.450
 6683POPC   D2A44284  19.036  42.293   6.750
 6683POPC   C3A44285  19.095  42.384   7.050
 6683POPC   C4A44286  19.019  42.383   7.350
 6683POPC   C1B44287  18.815  42.191   6.450
 6683POPC   C2B44288  18.848  42.226   6.750
 6683POPC   C3B44289  18.821  42.234   7.050
 6683POPC   C4B44290  18.802  42.197   7.350
 6684POPC   NC344291   9.729  14.424   5.550
 6684POPC   PO444292   9.705  14.395   5.850
 6684POPC   GL144293   9.749  14.442   6.150
 6684POPC   GL244294   9.807  14.321   6.150
 6684POPC   C1A44295   9.757  14.374   6.450
 6684POPC   D2A44296   9.767  14.385   6.750
 6684POPC   C3A44297   9.754  14.363   7.050
 6684POPC   C4A44298   9.702  14.409   7.350
 6684POPC   C1B44299   9.976  14.243   6.450
 6684POPC   C2B44300   9.950  14.280   6.750
 6684POPC   C3B44301   9.994  14.307   7.050
 6684POPC   C4B44302  10.010  14.224   7.350
 6685POPC   NC344303  19.853  29.881   5.550
 6685POPC   PO444304  19.846  29.965   5.850
 6685POPC   GL144305  19.789  29.900   6.150
 6685POPC   GL244306  19.921  29.942   6.150
 6685POPC   C1A44307  19.855  29.948   6.450
 6685POPC   D2A44308  19.787  29.931   6.750
 6685POPC   C3A44309  19.802  29.884   7.050
 6685POPC   C4A44310  19.796  29.877   7.350
 6685POPC   C1B44311  20.105  29.977   6.450
 6685POPC   C2B44312  20.047  30.009   6.750
 6685POPC   C3B44313  20.048  30.012   7.050
 6685POPC   C4B44314  20.012  30.001   7.350
 6686POPC   NC344315   4.321   6.640   5.550
 6686POPC   PO444316   4.323   6.653   5.850
 6686POPC   GL144317   4.339   6.630   6.150
 6686POPC   GL244318   4.435   6.698   6.150
 6686POPC   C1A44319   4.293   6.632   6.450
 6686POPC   D2A44320   4.282   6.636   6.750
 6686POPC   C3A44321   4.318   6.607   7.050
 6686POPC   C4A44322   4.308   6.644   7.350
 6686POPC   C1B44323   4.509   6.844   6.450
 6686POPC   C2B44324   4.499   6.813   6.750
 6686POPC   C3B44325   4.520   6.853   7.050
 6686POPC   C4B44326   4.519   6.820   7.350
 6687POPC   NC344327   1.173  40.041   5.550
 6687POPC   PO444328   1.236  40.028   5.850
 6687POPC   GL144329   1.258  40.033   6.150
 6687POPC   GL244330   1.367  40.069   6.150
 6687POPC   C1A44331   1.257  39.958   6.450
 6687POPC   D2A44332   1.241  40.047   6.750
 6687POPC   C3A44333   1.214  39.960   7.050
 6687POPC   C4A44334   1.262  40.049   7.350
 6687POPC   C1B44335   1.397  40.142   6.450
 6687POPC   C2B44336   1.444  40.079   6.750
 6687POPC   C3B44337   1.438  40.156   7.050
 6687POPC   C4B44338   1.481  40.144   7.350
 6688POPC   NC344339  30.685  14.377   5.550
 6688POPC   PO444340  30.731  14.431   5.850
 6688POPC   GL144341  30.674  14.431   6.150
 6688POPC   GL244342  30.657  14.319   6.150
 6688POPC   C1A44343  30.663  14.432   6.450
 6688POPC   D2A44344  30.665  14.408   6.750
 6688POPC   C3A44345  30.716  14.363   7.050
 6688POPC   C4A44346  30.717  14.358   7.350
 6688POPC   C1B44347  30.514  14.251   6.450
 6688POPC   C2B44348  30.494  14.269   6.750
 6688POPC   C3B44349  30.494  14.211   7.050
 6688POPC   C4B44350  30.519  14.253   7.350
 6689POPC   NC344351   7.434  24.461   5.550
 6689POPC   PO444352   7.416  24.513   5.850
 6689POPC   GL144353   7.374  24.511   6.150
 6689POPC   GL244354   7.281  24.391   6.150
 6689POPC   C1A44355   7.403  24.492   6.450
 6689POPC   D2A44356   7.435  24.451   6.750
 6689POPC   C3A44357   7.463  24.455   7.050
 6689POPC   C4A44358   7.450  24.512   7.350
 6689POPC   C1B44359   7.248  24.291   6.450
 6689POPC   C2B44360   7.241  24.295   6.750
 6689POPC   C3B44361   7.185  24.286   7.050
 6689POPC   C4B44362   7.190  24.331   7.350
 6690POPC   NC344363  18.253   8.149   5.550
 6690POPC   PO444364  18.330   8.200   5.850
 6690POPC   GL144365  18.248   8.176   6.150
 6690POPC   GL244366  18.154   8.207   6.150
 6690POPC   C1A44367  18.270   8.208   6.450
 6690POPC   D2A44368  18.300   8.179   6.750
 6690POPC   C3A44369  18.321   8.168   7.050
 6690POPC   C4A44370  18.280   8.206   7.350
 6690POPC   C1B44371  18.049   8.105   6.450
 6690POPC   C2B44372  17.999   8.118   6.750
 6690POPC   C3B44373  18.035   8.093   7.050
 6690POPC   C4B44374  18.088   8.118   7.350
 6691POPC   NC344375  29.155  33.814   5.550
 6691POPC   PO444376  29.160  33.762   5.850
 6691POPC   GL144377  29.105  33.814   6.150
 6691POPC   GL244378  29.097  33.968   6.150
 6691POPC   C1A44379  29.161  33.824   6.450
 6691POPC   D2A44380  29.192  33.775   6.750
 6691POPC   C3A44381  29.194  33.816   7.050
 6691POPC   C4A44382  29.151  33.813   7.350
 6691POPC   C1B44383  29.123  34.022   6.450
 6691POPC   C2B44384  29.125  34.027   6.750
 6691POPC   C3B44385  29.079  34.006   7.050
 6691POPC   C4B44386  29.048  34.055   7.350
 6692POPC   NC344387  19.073  35.313   5.550
 6692POPC   PO444388  19.082  35.364   5.850
 6692POPC   GL144389  19.091  35.311   6.150
 6692POPC   GL244390  18.968  35.264   6.150
 6692POPC   C1A44391  19.041  35.326   6.450
 6692POPC   D2A44392  19.079  35.388   6.750
 6692POPC   C3A44393  19.108  35.374   7.050
 6692POPC   C4A44394  19.087  35.390   7.350
 6692POPC   C1B44395  18.812  35.276   6.450
 6692POPC   C2B44396  18.780  35.256   6.750
 6692POPC   C3B44397  18.795  35.301   7.050
 6692POPC   C4B44398  18.830  35.224   7.350
 6693POPC   NC344399  11.272  27.591   5.550
 6693POPC   PO444400  11.264  27.586   5.850
 6693POPC   GL144401  11.322  27.571   6.150
 6693POPC   GL244402  11.272  27.440   6.150
 6693POPC   C1A44403  11.332  27.596   6.450
 6693POPC   D2A44404  11.330  27.561   6.750
 6693POPC   C3A44405  11.283  27.544   7.050
 6693POPC   C4A44406  11.254  27.562   7.350
 6693POPC   C1B44407  11.205  27.331   6.450
 6693POPC   C2B44408  11.186  27.397   6.750
 6693POPC   C3B44409  11.137  27.349   7.050
 6693POPC   C4B44410  11.226  27.349   7.350
 6694POPC   NC344411  36.931   6.655   5.550
 6694POPC   PO444412  36.870   6.631   5.850
 6694POPC   GL144413  36.903   6.634   6.150
 6694POPC   GL244414  37.047   6.587   6.150
 6694POPC   C1A44415  36.877   6.633   6.450
 6694POPC   D2A44416  36.863   6.682   6.750
 6694POPC   C3A44417  36.916   6.651   7.050
 6694POPC   C4A44418  36.932   6.671   7.350
 6694POPC   C1B44419  37.053   6.467   6.450
 6694POPC   C2B44420  37.124   6.512   6.750
 6694POPC   C3B44421  37.107   6.525   7.050
 6694POPC   C4B44422  37.090   6.492   7.350
 6695POPC   NC344423  40.817   1.972   5.550
 6695POPC   PO444424  40.825   1.962   5.850
 6695POPC   GL144425  40.833   2.014   6.150
 6695POPC   GL244426  40.868   2.025   6.150
 6695POPC   C1A44427  40.798   1.976   6.450
 6695POPC   D2A44428  40.809   2.023   6.750
 6695POPC   C3A44429  40.824   1.985   7.050
 6695POPC   C4A44430  40.795   1.964   7.350
 6695POPC   C1B44431  41.052   2.010   6.450
 6695POPC   C2B44432  41.077   1.990   6.750
 6695POPC   C3B44433  40.984   2.036   7.050
 6695POPC   C4B44434  41.072   2.034   7.350
 6696POPC   NC344435   3.499  37.669   5.550
 6696POPC   PO444436   3.528  37.687   5.850
 6696POPC   GL144437   3.511  37.728   6.150
 6696POPC   GL244438   3.513  37.607   6.150
 6696POPC   C1A44439   3.539  37.688   6.450
 6696POPC   D2A44440   3.494  37.705   6.750
 6696POPC   C3A44441   3.543  37.663   7.050
 6696POPC   C4A44442   3.521  37.664   7.350
 6696POPC   C1B44443   3.475  37.492   6.450
 6696POPC   C2B44444   3.484  37.455   6.750
 6696POPC   C3B44445   3.473  37.455   7.050
 6696POPC   C4B44446   3.393  37.464   7.350
 6697POPC   NC344447  28.377  22.928   5.550
 6697POPC   PO444448  28.372  22.977   5.850
 6697POPC   GL144449  28.355  22.898   6.150
 6697POPC   GL244450  28.428  22.903   6.150
 6697POPC   C1A44451  28.328  22.966   6.450
 6697POPC   D2A44452  28.378  22.965   6.750
 6697POPC   C3A44453  28.418  22.892   7.050
 6697POPC   C4A44454  28.325  22.958   7.350
 6697POPC   C1B44455  28.597  22.794   6.450
 6697POPC   C2B44456  28.568  22.838   6.750
 6697POPC   C3B44457  28.527  22.786   7.050
 6697POPC   C4B44458  28.586  22.828   7.350
 6698POPC   NC344459  37.695   1.984   5.550
 6698POPC   PO444460  37.706   2.039   5.850
 6698POPC   GL144461  37.704   2.007   6.150
 6698POPC   GL244462  37.619   1.927   6.150
 6698POPC   C1A44463  37.657   1.963   6.450
 6698POPC   D2A44464  37.693   1.964   6.750
 6698POPC   C3A44465  37.668   2.037   7.050
 6698POPC   C4A44466  37.658   1.954   7.350
 6698POPC   C1B44467  37.454   1.888   6.450
 6698POPC   C2B44468  37.419   1.852   6.750
 6698POPC   C3B44469  37.467   1.854   7.050
 6698POPC   C4B44470  37.417   1.823   7.350
 6699POPC   NC344471  22.193  12.117   5.550
 6699POPC   PO444472  22.166  12.087   5.850
 6699POPC   GL144473  22.194  12.121   6.150
 6699POPC   GL244474  22.159  11.949   6.150
 6699POPC   C1A44475  22.183  12.034   6.450
 6699POPC   D2A44476  22.201  12.085   6.750
 6699POPC   C3A44477  22.196  12.049   7.050
 6699POPC   C4A44478  22.137  12.117   7.350
 6699POPC   C1B44479  22.199  11.797   6.450
 6699POPC   C2B44480  22.205  11.870   6.750
 6699POPC   C3B44481  22.251  11.799   7.050
 6699POPC   C4B44482  22.238  11.824   7.350
 6700POPC   NC344483  32.990  38.413   5.550
 6700POPC   PO444484  32.981  38.486   5.850
 6700POPC   GL144485  33.024  38.440   6.150
 6700POPC   GL244486  33.077  38.586   6.150
 6700POPC   C1A44487  33.052  38.415   6.450
 6700POPC   D2A44488  33.010  38.496   6.750
 6700POPC   C3A44489  33.004  38.453   7.050
 6700POPC   C4A44490  32.989  38.463   7.350
 6700POPC   C1B44491  33.207  38.598   6.450
 6700POPC   C2B44492  33.167  38.610   6.750
 6700POPC   C3B44493  33.226  38.663   7.050
 6700POPC   C4B44494  33.208  38.639   7.350
 6701POPC   NC344495  25.278  16.002   5.550
 6701POPC   PO444496  25.257  15.937   5.850
 6701POPC   GL144497  25.227  15.949   6.150
 6701POPC   GL244498  25.338  15.823   6.150
 6701POPC   C1A44499  25.252  15.930   6.450
 6701POPC   D2A44500  25.220  15.920   6.750
 6701POPC   C3A44501  25.280  15.934   7.050
 6701POPC   C4A44502  25.292  15.986   7.350
 6701POPC   C1B44503  25.397  15.797   6.450
 6701POPC   C2B44504  25.467  15.738   6.750
 6701POPC   C3B44505  25.422  15.762   7.050
 6701POPC   C4B44506  25.406  15.800   7.350
 6702POPC   NC344507  31.438  38.453   5.550
 6702POPC   PO444508  31.437  38.450   5.850
 6702POPC   GL144509  31.474  38.423   6.150
 6702POPC   GL244510  31.413  38.553   6.150
 6702POPC   C1A44511  31.510  38.426   6.450
 6702POPC   D2A44512  31.484  38.418   6.750
 6702POPC   C3A44513  31.433  38.468   7.050
 6702POPC   C4A44514  31.503  38.437   7.350
 6702POPC   C1B44515  31.307  38.576   6.450
 6702POPC   C2B44516  31.292  38.565   6.750
 6702POPC   C3B44517  31.275  38.560   7.050
 6702POPC   C4B44518  31.231  38.596   7.350
 6703POPC   NC344519   6.647  26.793   5.550
 6703POPC   PO444520   6.607  26.867   5.850
 6703POPC   GL144521   6.635  26.810   6.150
 6703POPC   GL244522   6.657  26.913   6.150
 6703POPC   C1A44523   6.647  26.788   6.450
 6703POPC   D2A44524   6.608  26.791   6.750
 6703POPC   C3A44525   6.622  26.827   7.050
 6703POPC   C4A44526   6.616  26.808   7.350
 6703POPC   C1B44527   6.629  27.115   6.450
 6703POPC   C2B44528   6.661  27.095   6.750
 6703POPC   C3B44529   6.654  27.090   7.050
 6703POPC   C4B44530   6.671  27.044   7.350
 6704POPC   NC344531  44.668   6.674   5.550
 6704POPC   PO444532  44.665   6.648   5.850
 6704POPC   GL144533  44.648   6.692   6.150
 6704POPC   GL244534  44.807   6.663   6.150
 6704POPC   C1A44535  44.627   6.605   6.450
 6704POPC   D2A44536  44.674   6.658   6.750
 6704POPC   C3A44537  44.639   6.621   7.050
 6704POPC   C4A44538  44.662   6.694   7.350
 6704POPC   C1B44539  44.944   6.658   6.450
 6704POPC   C2B44540  44.942   6.661   6.750
 6704POPC   C3B44541  44.956   6.661   7.050
 6704POPC   C4B44542  44.944   6.659   7.350
 6705POPC   NC344543  10.567   1.224   5.550
 6705POPC   PO444544  10.524   1.175   5.850
 6705POPC   GL144545  10.513   1.233   6.150
 6705POPC   GL244546  10.621   1.174   6.150
 6705POPC   C1A44547  10.560   1.179   6.450
 6705POPC   D2A44548  10.556   1.258   6.750
 6705POPC   C3A44549  10.562   1.212   7.050
 6705POPC   C4A44550  10.548   1.259   7.350
 6705POPC   C1B44551  10.788   1.101   6.450
 6705POPC   C2B44552  10.734   1.110   6.750
 6705POPC   C3B44553  10.754   1.141   7.050
 6705POPC   C4B44554  10.771   1.089   7.350
 6706POPC   NC344555   9.007  15.970   5.550
 6706POPC   PO444556   8.947  15.923   5.850
 6706POPC   GL144557   8.937  15.961   6.150
 6706POPC   GL244558   8.920  16.061   6.150
 6706POPC   C1A44559   8.965  15.988   6.450
 6706POPC   D2A44560   8.965  15.979   6.750
 6706POPC   C3A44561   8.989  15.966   7.050
 6706POPC   C4A44562   8.991  15.962   7.350
 6706POPC   C1B44563   8.889  16.184   6.450
 6706POPC   C2B44564   8.850  16.182   6.750
 6706POPC   C3B44565   8.882  16.184   7.050
 6706POPC   C4B44566   8.850  16.165   7.350
 6707POPC   NC344567   6.673  43.846   5.550
 6707POPC   PO444568   6.656  43.852   5.850
 6707POPC   GL144569   6.635  43.904   6.150
 6707POPC   GL244570   6.506  43.832   6.150
 6707POPC   C1A44571   6.642  43.875   6.450
 6707POPC   D2A44572   6.663  43.845   6.750
 6707POPC   C3A44573   6.679  43.901   7.050
 6707POPC   C4A44574   6.695  43.860   7.350
 6707POPC   C1B44575   6.419  43.736   6.450
 6707POPC   C2B44576   6.401  43.750   6.750
 6707POPC   C3B44577   6.387  43.786   7.050
 6707POPC   C4B44578   6.459  43.813   7.350
 6708POPC   NC344579  27.548   0.408   5.550
 6708POPC   PO444580  27.611   0.461   5.850
 6708POPC   GL144581  27.617   0.407   6.150
 6708POPC   GL244582  27.711   0.352   6.150
 6708POPC   C1A44583  27.637   0.419   6.450
 6708POPC   D2A44584  27.632   0.439   6.750
 6708POPC   C3A44585  27.622   0.415   7.050
 6708POPC   C4A44586  27.557   0.419   7.350
 6708POPC   C1B44587  27.731   0.205   6.450
 6708POPC   C2B44588  27.713   0.254   6.750
 6708POPC   C3B44589  27.755   0.255   7.050
 6708POPC   C4B44590  27.779   0.198   7.350
 6709POPC   NC344591  34.534   6.689   5.550
 6709POPC   PO444592  34.558   6.614   5.850
 6709POPC   GL144593  34.564   6.606   6.150
 6709POPC   GL244594  34.605   6.499   6.150
 6709POPC   C1A44595  34.592   6.636   6.450
 6709POPC   D2A44596  34.556   6.595   6.750
 6709POPC   C3A44597  34.602   6.607   7.050
 6709POPC   C4A44598  34.534   6.690   7.350
 6709POPC   C1B44599  34.736   6.476   6.450
 6709POPC   C2B44600  34.747   6.409   6.750
 6709POPC   C3B44601  34.699   6.456   7.050
 6709POPC   C4B44602  34.676   6.432   7.350
 6710POPC   NC344603  20.595  12.125   5.550
 6710POPC   PO444604  20.649  12.036   5.850
 6710POPC   GL144605  20.574  12.100   6.150
 6710POPC   GL244606  20.676  12.006   6.150
 6710POPC   C1A44607  20.625  12.126   6.450
 6710POPC   D2A44608  20.654  12.092   6.750
 6710POPC   C3A44609  20.651  12.060   7.050
 6710POPC   C4A44610  20.630  12.035   7.350
 6710POPC   C1B44611  20.854  11.924   6.450
 6710POPC   C2B44612  20.836  11.972   6.750
 6710POPC   C3B44613  20.861  11.939   7.050
 6710POPC   C4B44614  20.859  11.985   7.350
 6711POPC   NC344615  14.422  32.974   5.550
 6711POPC   PO444616  14.443  33.019   5.850
 6711POPC   GL144617  14.400  33.001   6.150
 6711POPC   GL244618  14.312  32.920   6.150
 6711POPC   C1A44619  14.451  33.036   6.450
 6711POPC   D2A44620  14.357  33.036   6.750
 6711POPC   C3A44621  14.409  33.000   7.050
 6711POPC   C4A44622  14.359  33.004   7.350
 6711POPC   C1B44623  14.337  32.756   6.450
 6711POPC   C2B44624  14.284  32.812   6.750
 6711POPC   C3B44625  14.323  32.776   7.050
 6711POPC   C4B44626  14.273  32.753   7.350
 6712POPC   NC344627   3.539  16.770   5.550
 6712POPC   PO444628   3.570  16.717   5.850
 6712POPC   GL144629   3.513  16.755   6.150
 6712POPC   GL244630   3.683  16.764   6.150
 6712POPC   C1A44631   3.553  16.756   6.450
 6712POPC   D2A44632   3.530  16.755   6.750
 6712POPC   C3A44633   3.527  16.729   7.050
 6712POPC   C4A44634   3.562  16.728   7.350
 6712POPC   C1B44635   3.790  16.702   6.450
 6712POPC   C2B44636   3.827  16.748   6.750
 6712POPC   C3B44637   3.816  16.724   7.050
 6712POPC   C4B44638   3.834  16.688   7.350
 6713POPC   NC344639  40.013  12.034   5.550
 6713POPC   PO444640  40.048  12.071   5.850
 6713POPC   GL144641  40.024  12.101   6.150
 6713POPC   GL244642  39.975  11.965   6.150
 6713POPC   C1A44643  40.007  12.046   6.450
 6713POPC   D2A44644  40.000  12.102   6.750
 6713POPC   C3A44645  40.030  12.044   7.050
 6713POPC   C4A44646  40.049  12.045   7.350
 6713POPC   C1B44647  40.001  11.833   6.450
 6713POPC   C2B44648  40.017  11.836   6.750
 6713POPC   C3B44649  40.024  11.813   7.050
 6713POPC   C4B44650  39.983  11.861   7.350
 6714POPC   NC344651   9.772  39.254   5.550
 6714POPC   PO444652   9.766  39.195   5.850
 6714POPC   GL144653   9.789  39.202   6.150
 6714POPC   GL244654   9.793  39.127   6.150
 6714POPC   C1A44655   9.773  39.258   6.450
 6714POPC   D2A44656   9.731  39.277   6.750
 6714POPC   C3A44657   9.750  39.280   7.050
 6714POPC   C4A44658   9.785  39.243   7.350
 6714POPC   C1B44659   9.886  39.031   6.450
 6714POPC   C2B44660   9.915  38.993   6.750
 6714POPC   C3B44661   9.915  39.059   7.050
 6714POPC   C4B44662   9.889  38.990   7.350
 6715POPC   NC344663  28.353  39.964   5.550
 6715POPC   PO444664  28.388  40.004   5.850
 6715POPC   GL144665  28.373  39.970   6.150
 6715POPC   GL244666  28.435  39.867   6.150
 6715POPC   C1A44667  28.345  40.003   6.450
 6715POPC   D2A44668  28.360  40.050   6.750
 6715POPC   C3A44669  28.393  39.971   7.050
 6715POPC   C4A44670  28.338  40.023   7.350
 6715POPC   C1B44671  28.444  39.741   6.450
 6715POPC   C2B44672  28.439  39.725   6.750
 6715POPC   C3B44673  28.400  39.756   7.050
 6715POPC   C4B44674  28.452  39.785   7.350
 6716POPC   NC344675  28.328  32.980   5.550
 6716POPC   PO444676  28.377  33.050   5.850
 6716POPC   GL144677  28.326  32.988   6.150
 6716POPC   GL244678  28.261  33.129   6.150
 6716POPC   C1A44679  28.395  33.038   6.450
 6716POPC   D2A44680  28.369  33.055   6.750
 6716POPC   C3A44681  28.375  33.024   7.050
 6716POPC   C4A44682  28.348  33.048   7.350
 6716POPC   C1B44683  28.221  33.155   6.450
 6716POPC   C2B44684  28.215  33.139   6.750
 6716POPC   C3B44685  28.179  33.138   7.050
 6716POPC   C4B44686  28.143  33.216   7.350
 6717POPC   NC344687  39.235  27.591   5.550
 6717POPC   PO444688  39.268  27.591   5.850
 6717POPC   GL144689  39.193  27.597   6.150
 6717POPC   GL244690  39.313  27.549   6.150
 6717POPC   C1A44691  39.224  27.574   6.450
 6717POPC   D2A44692  39.228  27.640   6.750
 6717POPC   C3A44693  39.257  27.627   7.050
 6717POPC   C4A44694  39.226  27.545   7.350
 6717POPC   C1B44695  39.423  27.481   6.450
 6717POPC   C2B44696  39.418  27.497   6.750
 6717POPC   C3B44697  39.443  27.506   7.050
 6717POPC   C4B44698  39.447  27.511   7.350
 6718POPC   NC344699  21.360   8.963   5.550
 6718POPC   PO444700  21.413   8.992   5.850
 6718POPC   GL144701  21.343   8.959   6.150
 6718POPC   GL244702  21.452   8.902   6.150
 6718POPC   C1A44703  21.422   8.992   6.450
 6718POPC   D2A44704  21.419   8.943   6.750
 6718POPC   C3A44705  21.423   9.014   7.050
 6718POPC   C4A44706  21.381   9.014   7.350
 6718POPC   C1B44707  21.524   8.801   6.450
 6718POPC   C2B44708  21.574   8.817   6.750
 6718POPC   C3B44709  21.527   8.821   7.050
 6718POPC   C4B44710  21.573   8.749   7.350
 6719POPC   NC344711   5.092   2.722   5.550
 6719POPC   PO444712   5.116   2.805   5.850
 6719POPC   GL144713   5.131   2.776   6.150
 6719POPC   GL244714   5.060   2.616   6.150
 6719POPC   C1A44715   5.114   2.726   6.450
 6719POPC   D2A44716   5.086   2.743   6.750
 6719POPC   C3A44717   5.096   2.730   7.050
 6719POPC   C4A44718   5.058   2.775   7.350
 6719POPC   C1B44719   5.009   2.508   6.450
 6719POPC   C2B44720   5.096   2.528   6.750
 6719POPC   C3B44721   5.058   2.517   7.050
 6719POPC   C4B44722   5.041   2.494   7.350
 6720POPC   NC344723  32.293  35.354   5.550
 6720POPC   PO444724  32.255  35.332   5.850
 6720POPC   GL144725  32.247  35.338   6.150
 6720POPC   GL244726  32.078  35.277   6.150
 6720POPC   C1A44727  32.224  35.321   6.450
 6720POPC   D2A44728  32.233  35.343   6.750
 6720POPC   C3A44729  32.298  35.345   7.050
 6720POPC   C4A44730  32.288  35.306   7.350
 6720POPC   C1B44731  32.027  35.299   6.450
 6720POPC   C2B44732  32.002  35.279   6.750
 6720POPC   C3B44733  32.008  35.339   7.050
 6720POPC   C4B44734  31.978  35.324   7.350
 6721POPC   NC344735  19.813  19.824   5.550
 6721POPC   PO444736  19.844  19.850   5.850
 6721POPC   GL144737  19.872  19.785   6.150
 6721POPC   GL244738  19.728  19.752   6.150
 6721POPC   C1A44739  19.856  19.849   6.450
 6721POPC   D2A44740  19.797  19.786   6.750
 6721POPC   C3A44741  19.802  19.785   7.050
 6721POPC   C4A44742  19.877  19.785   7.350
 6721POPC   C1B44743  19.612  19.720   6.450
 6721POPC   C2B44744  19.578  19.726   6.750
 6721POPC   C3B44745  19.625  19.738   7.050
 6721POPC   C4B44746  19.576  19.734   7.350
 6722POPC   NC344747  39.215  37.720   5.550
 6722POPC   PO444748  39.189  37.699   5.850
 6722POPC   GL144749  39.263  37.693   6.150
 6722POPC   GL244750  39.220  37.547   6.150
 6722POPC   C1A44751  39.223  37.645   6.450
 6722POPC   D2A44752  39.268  37.678   6.750
 6722POPC   C3A44753  39.273  37.668   7.050
 6722POPC   C4A44754  39.209  37.630   7.350
 6722POPC   C1B44755  39.198  37.485   6.450
 6722POPC   C2B44756  39.141  37.410   6.750
 6722POPC   C3B44757  39.180  37.391   7.050
 6722POPC   C4B44758  39.144  37.418   7.350
 6723POPC   NC344759   6.645  10.478   5.550
 6723POPC   PO444760   6.677  10.549   5.850
 6723POPC   GL144761   6.645  10.559   6.150
 6723POPC   GL244762   6.526  10.531   6.150
 6723POPC   C1A44763   6.621  10.512   6.450
 6723POPC   D2A44764   6.641  10.497   6.750
 6723POPC   C3A44765   6.623  10.498   7.050
 6723POPC   C4A44766   6.615  10.529   7.350
 6723POPC   C1B44767   6.423  10.510   6.450
 6723POPC   C2B44768   6.376  10.555   6.750
 6723POPC   C3B44769   6.434  10.531   7.050
 6723POPC   C4B44770   6.434  10.492   7.350
 6724POPC   NC344771   2.028   5.855   5.550
 6724POPC   PO444772   1.967   5.855   5.850
 6724POPC   GL144773   1.960   5.874   6.150
 6724POPC   GL244774   2.022   6.023   6.150
 6724POPC   C1A44775   1.999   5.828   6.450
 6724POPC   D2A44776   2.025   5.913   6.750
 6724POPC   C3A44777   2.020   5.821   7.050
 6724POPC   C4A44778   1.981   5.905   7.350
 6724POPC   C1B44779   2.034   6.083   6.450
 6724POPC   C2B44780   2.042   6.148   6.750
 6724POPC   C3B44781   1.983   6.104   7.050
 6724POPC   C4B44782   2.036   6.068   7.350
 6725POPC   NC344783  30.699   6.642   5.550
 6725POPC   PO444784  30.694   6.666   5.850
 6725POPC   GL144785  30.692   6.658   6.150
 6725POPC   GL244786  30.826   6.741   6.150
 6725POPC   C1A44787  30.742   6.651   6.450
 6725POPC   D2A44788  30.658   6.622   6.750
 6725POPC   C3A44789  30.727   6.658   7.050
 6725POPC   C4A44790  30.677   6.624   7.350
 6725POPC   C1B44791  30.960   6.798   6.450
 6725POPC   C2B44792  30.956   6.705   6.750
 6725POPC   C3B44793  30.934   6.722   7.050
 6725POPC   C4B44794  30.941   6.714   7.350
 6726POPC   NC344795  10.566  38.445   5.550
 6726POPC   PO444796  10.522  38.451   5.850
 6726POPC   GL144797  10.539  38.468   6.150
 6726POPC   GL244798  10.389  38.495   6.150
 6726POPC   C1A44799  10.554  38.491   6.450
 6726POPC   D2A44800  10.502  38.437   6.750
 6726POPC   C3A44801  10.538  38.428   7.050
 6726POPC   C4A44802  10.536  38.487   7.350
 6726POPC   C1B44803  10.330  38.585   6.450
 6726POPC   C2B44804  10.366  38.663   6.750
 6726POPC   C3B44805  10.288  38.631   7.050
 6726POPC   C4B44806  10.349  38.590   7.350
 6727POPC   NC344807  19.815  22.127   5.550
 6727POPC   PO444808  19.799  22.147   5.850
 6727POPC   GL144809  19.826  22.161   6.150
 6727POPC   GL244810  19.766  22.106   6.150
 6727POPC   C1A44811  19.809  22.199   6.450
 6727POPC   D2A44812  19.877  22.145   6.750
 6727POPC   C3A44813  19.864  22.177   7.050
 6727POPC   C4A44814  19.789  22.197   7.350
 6727POPC   C1B44815  19.653  21.997   6.450
 6727POPC   C2B44816  19.630  21.948   6.750
 6727POPC   C3B44817  19.646  21.978   7.050
 6727POPC   C4B44818  19.663  22.013   7.350
 6728POPC   NC344819   5.076  22.173   5.550
 6728POPC   PO444820   5.137  22.202   5.850
 6728POPC   GL144821   5.082  22.131   6.150
 6728POPC   GL244822   5.176  22.176   6.150
 6728POPC   C1A44823   5.121  22.198   6.450
 6728POPC   D2A44824   5.143  22.184   6.750
 6728POPC   C3A44825   5.096  22.132   7.050
 6728POPC   C4A44826   5.131  22.169   7.350
 6728POPC   C1B44827   5.372  22.193   6.450
 6728POPC   C2B44828   5.375  22.169   6.750
 6728POPC   C3B44829   5.303  22.159   7.050
 6728POPC   C4B44830   5.341  22.165   7.350
 6729POPC   NC344831  29.881  22.188   5.550
 6729POPC   PO444832  29.966  22.128   5.850
 6729POPC   GL144833  29.966  22.186   6.150
 6729POPC   GL244834  29.814  22.063   6.150
 6729POPC   C1A44835  29.886  22.179   6.450
 6729POPC   D2A44836  29.904  22.199   6.750
 6729POPC   C3A44837  29.969  22.154   7.050
 6729POPC   C4A44838  29.942  22.169   7.350
 6729POPC   C1B44839  29.738  21.973   6.450
 6729POPC   C2B44840  29.743  21.996   6.750
 6729POPC   C3B44841  29.748  21.918   7.050
 6729POPC   C4B44842  29.816  21.932   7.350
 6730POPC   NC344843  28.394  14.441   5.550
 6730POPC   PO444844  28.355  14.354   5.850
 6730POPC   GL144845  28.336  14.396   6.150
 6730POPC   GL244846  28.526  14.394   6.150
 6730POPC   C1A44847  28.388  14.452   6.450
 6730POPC   D2A44848  28.380  14.435   6.750
 6730POPC   C3A44849  28.342  14.453   7.050
 6730POPC   C4A44850  28.378  14.401   7.350
 6730POPC   C1B44851  28.576  14.293   6.450
 6730POPC   C2B44852  28.575  14.355   6.750
 6730POPC   C3B44853  28.580  14.362   7.050
 6730POPC   C4B44854  28.642  14.294   7.350
 6731POPC   NC344855  28.396   8.162   5.550
 6731POPC   PO444856  28.324   8.236   5.850
 6731POPC   GL144857  28.325   8.194   6.150
 6731POPC   GL244858  28.305   8.306   6.150
 6731POPC   C1A44859  28.371   8.242   6.450
 6731POPC   D2A44860  28.319   8.176   6.750
 6731POPC   C3A44861  28.341   8.239   7.050
 6731POPC   C4A44862  28.331   8.238   7.350
 6731POPC   C1B44863  28.211   8.466   6.450
 6731POPC   C2B44864  28.234   8.465   6.750
 6731POPC   C3B44865  28.213   8.454   7.050
 6731POPC   C4B44866  28.247   8.416   7.350
 6732POPC   NC344867  19.863   8.945   5.550
 6732POPC   PO444868  19.800   8.936   5.850
 6732POPC   GL144869  19.787   8.982   6.150
 6732POPC   GL244870  19.960   8.952   6.150
 6732POPC   C1A44871  19.872   9.002   6.450
 6732POPC   D2A44872  19.805   8.999   6.750
 6732POPC   C3A44873  19.800   8.931   7.050
 6732POPC   C4A44874  19.845   8.926   7.350
 6732POPC   C1B44875  20.043   8.982   6.450
 6732POPC   C2B44876  20.098   8.996   6.750
 6732POPC   C3B44877  20.092   8.947   7.050
 6732POPC   C4B44878  20.129   8.942   7.350
 6733POPC   NC344879  24.530  40.734   5.550
 6733POPC   PO444880  24.524  40.779   5.850
 6733POPC   GL144881  24.510  40.823   6.150
 6733POPC   GL244882  24.487  40.642   6.150
 6733POPC   C1A44883  24.464  40.751   6.450
 6733POPC   D2A44884  24.451  40.829   6.750
 6733POPC   C3A44885  24.451  40.809   7.050
 6733POPC   C4A44886  24.519  40.800   7.350
 6733POPC   C1B44887  24.493  40.536   6.450
 6733POPC   C2B44888  24.562  40.515   6.750
 6733POPC   C3B44889  24.549  40.567   7.050
 6733POPC   C4B44890  24.527  40.506   7.350
 6734POPC   NC344891  36.922  34.617   5.550
 6734POPC   PO444892  36.913  34.611   5.850
 6734POPC   GL144893  36.925  34.590   6.150
 6734POPC   GL244894  36.985  34.567   6.150
 6734POPC   C1A44895  36.914  34.584   6.450
 6734POPC   D2A44896  36.936  34.564   6.750
 6734POPC   C3A44897  36.924  34.554   7.050
 6734POPC   C4A44898  36.885  34.582   7.350
 6734POPC   C1B44899  37.133  34.664   6.450
 6734POPC   C2B44900  37.129  34.638   6.750
 6734POPC   C3B44901  37.174  34.600   7.050
 6734POPC   C4B44902  37.125  34.620   7.350
 6735POPC   NC344903   5.842  13.599   5.550
 6735POPC   PO444904   5.895  13.674   5.850
 6735POPC   GL144905   5.868  13.590   6.150
 6735POPC   GL244906   5.917  13.720   6.150
 6735POPC   C1A44907   5.873  13.636   6.450
 6735POPC   D2A44908   5.823  13.578   6.750
 6735POPC   C3A44909   5.863  13.606   7.050
 6735POPC   C4A44910   5.864  13.674   7.350
 6735POPC   C1B44911   5.893  13.901   6.450
 6735POPC   C2B44912   5.907  13.900   6.750
 6735POPC   C3B44913   5.909  13.903   7.050
 6735POPC   C4B44914   5.860  13.833   7.350
 6736POPC   NC344915  22.974  42.350   5.550
 6736POPC   PO444916  22.904  42.340   5.850
 6736POPC   GL144917  22.944  42.349   6.150
 6736POPC   GL244918  22.858  42.476   6.150
 6736POPC   C1A44919  22.902  42.373   6.450
 6736POPC   D2A44920  22.919  42.366   6.750
 6736POPC   C3A44921  22.928  42.313   7.050
 6736POPC   C4A44922  22.962  42.376   7.350
 6736POPC   C1B44923  22.780  42.485   6.450
 6736POPC   C2B44924  22.746  42.556   6.750
 6736POPC   C3B44925  22.772  42.541   7.050
 6736POPC   C4B44926  22.776  42.492   7.350
 6737POPC   NC344927  34.553  15.197   5.550
 6737POPC   PO444928  34.565  15.152   5.850
 6737POPC   GL144929  34.601  15.168   6.150
 6737POPC   GL244930  34.683  15.122   6.150
 6737POPC   C1A44931  34.576  15.198   6.450
 6737POPC   D2A44932  34.616  15.132   6.750
 6737POPC   C3A44933  34.576  15.163   7.050
 6737POPC   C4A44934  34.585  15.189   7.350
 6737POPC   C1B44935  34.763  15.001   6.450
 6737POPC   C2B44936  34.770  15.008   6.750
 6737POPC   C3B44937  34.696  14.948   7.050
 6737POPC   C4B44938  34.693  15.028   7.350
 6738POPC   NC344939  26.778  26.819   5.550
 6738POPC   PO444940  26.847  26.867   5.850
 6738POPC   GL144941  26.856  26.774   6.150
 6738POPC   GL244942  26.914  26.694   6.150
 6738POPC   C1A44943  26.854  26.856   6.450
 6738POPC   D2A44944  26.813  26.824   6.750
 6738POPC   C3A44945  26.783  26.832   7.050
 6738POPC   C4A44946  26.772  26.835   7.350
 6738POPC   C1B44947  26.904  26.569   6.450
 6738POPC   C2B44948  26.907  26.606   6.750
 6738POPC   C3B44949  26.888  26.598   7.050
 6738POPC   C4B44950  26.889  26.611   7.350
 6739POPC   NC344951  15.228  39.977   5.550
 6739POPC   PO444952  15.161  40.022   5.850
 6739POPC   GL144953  15.193  40.000   6.150
 6739POPC   GL244954  15.204  40.094   6.150
 6739POPC   C1A44955  15.202  40.004   6.450
 6739POPC   D2A44956  15.133  40.034   6.750
 6739POPC   C3A44957  15.171  40.008   7.050
 6739POPC   C4A44958  15.206  39.976   7.350
 6739POPC   C1B44959  15.238  40.255   6.450
 6739POPC   C2B44960  15.171  40.234   6.750
 6739POPC   C3B44961  15.198  40.270   7.050
 6739POPC   C4B44962  15.245  40.241   7.350
 6740POPC   NC344963  43.859  24.460   5.550
 6740POPC   PO444964  43.876  24.536   5.850
 6740POPC   GL144965  43.877  24.515   6.150
 6740POPC   GL244966  43.913  24.559   6.150
 6740POPC   C1A44967  43.858  24.495   6.450
 6740POPC   D2A44968  43.908  24.440   6.750
 6740POPC   C3A44969  43.916  24.452   7.050
 6740POPC   C4A44970  43.882  24.539   7.350
 6740POPC   C1B44971  43.967  24.678   6.450
 6740POPC   C2B44972  44.053  24.751   6.750
 6740POPC   C3B44973  43.988  24.664   7.050
 6740POPC   C4B44974  43.979  24.671   7.350
 6741POPC   NC344975  31.423  19.069   5.550
 6741POPC   PO444976  31.476  19.094   5.850
 6741POPC   GL144977  31.476  19.108   6.150
 6741POPC   GL244978  31.558  19.116   6.150
 6741POPC   C1A44979  31.521  19.049   6.450
 6741POPC   D2A44980  31.465  19.054   6.750
 6741POPC   C3A44981  31.492  19.048   7.050
 6741POPC   C4A44982  31.443  19.044   7.350
 6741POPC   C1B44983  31.694  19.133   6.450
 6741POPC   C2B44984  31.747  19.117   6.750
 6741POPC   C3B44985  31.699  19.099   7.050
 6741POPC   C4B44986  31.739  19.131   7.350
 6742POPC   NC344987   4.304  40.747   5.550
 6742POPC   PO444988   4.363  40.745   5.850
 6742POPC   GL144989   4.330  40.745   6.150
 6742POPC   GL244990   4.335  40.696   6.150
 6742POPC   C1A44991   4.279  40.812   6.450
 6742POPC   D2A44992   4.306  40.769   6.750
 6742POPC   C3A44993   4.342  40.747   7.050
 6742POPC   C4A44994   4.309  40.805   7.350
 6742POPC   C1B44995   4.359  40.595   6.450
 6742POPC   C2B44996   4.418  40.522   6.750
 6742POPC   C3B44997   4.403  40.592   7.050
 6742POPC   C4B44998   4.371  40.541   7.350
 6743POPC   NC344999  40.006  42.318   5.550
 6743POPC   PO445000  39.995  42.331   5.850
 6743POPC   GL145001  39.988  42.287   6.150
 6743POPC   GL245002  39.869  42.277   6.150
 6743POPC   C1A45003  40.033  42.329   6.450
 6743POPC   D2A45004  40.028  42.312   6.750
 6743POPC   C3A45005  40.041  42.383   7.050
 6743POPC   C4A45006  40.048  42.286   7.350
 6743POPC   C1B45007  39.811  42.175   6.450
 6743POPC   C2B45008  39.788  42.194   6.750
 6743POPC   C3B45009  39.768  42.162   7.050
 6743POPC   C4B45010  39.802  42.163   7.350
 6744POPC   NC345011  12.073   4.360   5.550
 6744POPC   PO445012  12.039   4.286   5.850
 6744POPC   GL145013  12.049   4.288   6.150
 6744POPC   GL245014  11.976   4.322   6.150
 6744POPC   C1A45015  12.058   4.319   6.450
 6744POPC   D2A45016  12.042   4.276   6.750
 6744POPC   C3A45017  12.071   4.361   7.050
 6744POPC   C4A45018  12.065   4.282   7.350
 6744POPC   C1B45019  11.874   4.376   6.450
 6744POPC   C2B45020  11.867   4.428   6.750
 6744POPC   C3B45021  11.803   4.456   7.050
 6744POPC   C4B45022  11.793   4.433   7.350
 6745POPC   NC345023  13.618  14.388   5.550
 6745POPC   PO445024  13.626  14.439   5.850
 6745POPC   GL145025  13.637  14.444   6.150
 6745POPC   GL245026  13.629  14.288   6.150
 6745POPC   C1A45027  13.606  14.429   6.450
 6745POPC   D2A45028  13.580  14.384   6.750
 6745POPC   C3A45029  13.628  14.386   7.050
 6745POPC   C4A45030  13.636  14.399   7.350
 6745POPC   C1B45031  13.628  14.153   6.450
 6745POPC   C2B45032  13.589  14.198   6.750
 6745POPC   C3B45033  13.552  14.129   7.050
 6745POPC   C4B45034  13.569  14.145   7.350
 6746POPC   NC345035  33.041   8.959   5.550
 6746POPC   PO445036  33.038   8.975   5.850
 6746POPC   GL145037  32.987   8.924   6.150
 6746POPC   GL245038  33.163   8.906   6.150
 6746POPC   C1A45039  33.011   8.938   6.450
 6746POPC   D2A45040  32.988   8.931   6.750
 6746POPC   C3A45041  33.068   8.955   7.050
 6746POPC   C4A45042  33.009   8.994   7.350
 6746POPC   C1B45043  33.302   8.922   6.450
 6746POPC   C2B45044  33.223   8.884   6.750
 6746POPC   C3B45045  33.287   8.887   7.050
 6746POPC   C4B45046  33.275   8.904   7.350
 6747POPC   NC345047  15.917   7.398   5.550
 6747POPC   PO445048  15.915   7.436   5.850
 6747POPC   GL145049  15.927   7.401   6.150
 6747POPC   GL245050  15.891   7.393   6.150
 6747POPC   C1A45051  15.907   7.464   6.450
 6747POPC   D2A45052  15.924   7.407   6.750
 6747POPC   C3A45053  15.989   7.433   7.050
 6747POPC   C4A45054  15.971   7.407   7.350
 6747POPC   C1B45055  15.779   7.261   6.450
 6747POPC   C2B45056  15.753   7.296   6.750
 6747POPC   C3B45057  15.730   7.303   7.050
 6747POPC   C4B45058  15.717   7.230   7.350
 6748POPC   NC345059  18.332  31.520   5.550
 6748POPC   PO445060  18.235  31.435   5.850
 6748POPC   GL145061  18.262  31.482   6.150
 6748POPC   GL245062  18.155  31.527   6.150
 6748POPC   C1A45063  18.298  31.477   6.450
 6748POPC   D2A45064  18.268  31.465   6.750
 6748POPC   C3A45065  18.289  31.494   7.050
 6748POPC   C4A45066  18.319  31.435   7.350
 6748POPC   C1B45067  18.099  31.682   6.450
 6748POPC   C2B45068  18.098  31.666   6.750
 6748POPC   C3B45069  18.141  31.629   7.050
 6748POPC   C4B45070  18.077  31.644   7.350
 6749POPC   NC345071  12.823   1.214   5.550
 6749POPC   PO445072  12.868   1.230   5.850
 6749POPC   GL145073  12.865   1.200   6.150
 6749POPC   GL245074  12.957   1.199   6.150
 6749POPC   C1A45075  12.889   1.251   6.450
 6749POPC   D2A45076  12.848   1.203   6.750
 6749POPC   C3A45077  12.837   1.249   7.050
 6749POPC   C4A45078  12.806   1.245   7.350
 6749POPC   C1B45079  13.143   1.184   6.450
 6749POPC   C2B45080  13.139   1.223   6.750
 6749POPC   C3B45081  13.112   1.184   7.050
 6749POPC   C4B45082  13.115   1.194   7.350
 6750POPC   NC345083  12.120   2.739   5.550
 6750POPC   PO445084  12.071   2.789   5.850
 6750POPC   GL145085  12.099   2.759   6.150
 6750POPC   GL245086  12.180   2.725   6.150
 6750POPC   C1A45087  12.062   2.726   6.450
 6750POPC   D2A45088  12.112   2.756   6.750
 6750POPC   C3A45089  12.123   2.729   7.050
 6750POPC   C4A45090  12.118   2.734   7.350
 6750POPC   C1B45091  12.361   2.679   6.450
 6750POPC   C2B45092  12.301   2.681   6.750
 6750POPC   C3B45093  12.318   2.760   7.050
 6750POPC   C4B45094  12.290   2.769   7.350
 6751POPC   NC345095  10.501   9.731   5.550
 6751POPC   PO445096  10.540   9.772   5.850
 6751POPC   GL145097  10.542   9.705   6.150
 6751POPC   GL245098  10.424   9.724   6.150
 6751POPC   C1A45099  10.486   9.744   6.450
 6751POPC   D2A45100  10.561   9.789   6.750
 6751POPC   C3A45101  10.483   9.784   7.050
 6751POPC   C4A45102  10.476   9.795   7.350
 6751POPC   C1B45103  10.310   9.707   6.450
 6751POPC   C2B45104  10.315   9.758   6.750
 6751POPC   C3B45105  10.230   9.730   7.050
 6751POPC   C4B45106  10.307   9.745   7.350
 6752POPC   NC345107  17.520   5.867   5.550
 6752POPC   PO445108  17.461   5.916   5.850
 6752POPC   GL145109  17.467   5.909   6.150
 6752POPC   GL245110  17.424   5.771   6.150
 6752POPC   C1A45111  17.513   5.892   6.450
 6752POPC   D2A45112  17.517   5.874   6.750
 6752POPC   C3A45113  17.550   5.885   7.050
 6752POPC   C4A45114  17.470   5.916   7.350
 6752POPC   C1B45115  17.408   5.619   6.450
 6752POPC   C2B45116  17.385   5.651   6.750
 6752POPC   C3B45117  17.419   5.642   7.050
 6752POPC   C4B45118  17.459   5.605   7.350
 6753POPC   NC345119  17.489  23.676   5.550
 6753POPC   PO445120  17.518  23.718   5.850
 6753POPC   GL145121  17.524  23.702   6.150
 6753POPC   GL245122  17.515  23.870   6.150
 6753POPC   C1A45123  17.481  23.712   6.450
 6753POPC   D2A45124  17.503  23.752   6.750
 6753POPC   C3A45125  17.468  23.708   7.050
 6753POPC   C4A45126  17.468  23.690   7.350
 6753POPC   C1B45127  17.481  23.928   6.450
 6753POPC   C2B45128  17.433  23.930   6.750
 6753POPC   C3B45129  17.479  23.976   7.050
 6753POPC   C4B45130  17.432  23.974   7.350
 6754POPC   NC345131   7.443  10.503   5.550
 6754POPC   PO445132   7.448  10.534   5.850
 6754POPC   GL145133   7.425  10.512   6.150
 6754POPC   GL245134   7.577  10.550   6.150
 6754POPC   C1A45135   7.411  10.488   6.450
 6754POPC   D2A45136   7.454  10.509   6.750
 6754POPC   C3A45137   7.413  10.551   7.050
 6754POPC   C4A45138   7.463  10.551   7.350
 6754POPC   C1B45139   7.661  10.503   6.450
 6754POPC   C2B45140   7.652  10.527   6.750
 6754POPC   C3B45141   7.680  10.497   7.050
 6754POPC   C4B45142   7.716  10.552   7.350
 6755POPC   NC345143   0.409   3.588   5.550
 6755POPC   PO445144   0.413   3.581   5.850
 6755POPC   GL145145   0.419   3.584   6.150
 6755POPC   GL245146   0.495   3.481   6.150
 6755POPC   C1A45147   0.406   3.591   6.450
 6755POPC   D2A45148   0.406   3.548   6.750
 6755POPC   C3A45149   0.399   3.582   7.050
 6755POPC   C4A45150   0.472   3.579   7.350
 6755POPC   C1B45151   0.601   3.393   6.450
 6755POPC   C2B45152   0.622   3.383   6.750
 6755POPC   C3B45153   0.630   3.404   7.050
 6755POPC   C4B45154   0.580   3.342   7.350
 6756POPC   NC345155   7.371  38.446   5.550
 6756POPC   PO445156   7.412  38.479   5.850
 6756POPC   GL145157   7.425  38.430   6.150
 6756POPC   GL245158   7.447  38.378   6.150
 6756POPC   C1A45159   7.412  38.502   6.450
 6756POPC   D2A45160   7.452  38.463   6.750
 6756POPC   C3A45161   7.386  38.496   7.050
 6756POPC   C4A45162   7.438  38.453   7.350
 6756POPC   C1B45163   7.545  38.285   6.450
 6756POPC   C2B45164   7.579  38.213   6.750
 6756POPC   C3B45165   7.604  38.278   7.050
 6756POPC   C4B45166   7.537  38.207   7.350
 6757POPC   NC345167  26.815  32.998   5.550
 6757POPC   PO445168  26.786  33.037   5.850
 6757POPC   GL145169  26.849  33.067   6.150
 6757POPC   GL245170  26.754  33.004   6.150
 6757POPC   C1A45171  26.796  33.058   6.450
 6757POPC   D2A45172  26.815  33.054   6.750
 6757POPC   C3A45173  26.849  32.986   7.050
 6757POPC   C4A45174  26.856  33.068   7.350
 6757POPC   C1B45175  26.638  32.854   6.450
 6757POPC   C2B45176  26.559  32.878   6.750
 6757POPC   C3B45177  26.556  32.879   7.050
 6757POPC   C4B45178  26.623  32.907   7.350
 6758POPC   NC345179  17.517  36.887   5.550
 6758POPC   PO445180  17.500  36.884   5.850
 6758POPC   GL145181  17.542  36.917   6.150
 6758POPC   GL245182  17.640  36.990   6.150
 6758POPC   C1A45183  17.484  36.875   6.450
 6758POPC   D2A45184  17.470  36.858   6.750
 6758POPC   C3A45185  17.557  36.879   7.050
 6758POPC   C4A45186  17.484  36.878   7.350
 6758POPC   C1B45187  17.715  37.005   6.450
 6758POPC   C2B45188  17.712  36.975   6.750
 6758POPC   C3B45189  17.685  36.981   7.050
 6758POPC   C4B45190  17.726  37.018   7.350
 6759POPC   NC345191  12.085  28.379   5.550
 6759POPC   PO445192  12.079  28.330   5.850
 6759POPC   GL145193  12.100  28.411   6.150
 6759POPC   GL245194  12.059  28.486   6.150
 6759POPC   C1A45195  12.059  28.406   6.450
 6759POPC   D2A45196  12.070  28.322   6.750
 6759POPC   C3A45197  12.086  28.345   7.050
 6759POPC   C4A45198  12.077  28.413   7.350
 6759POPC   C1B45199  12.050  28.625   6.450
 6759POPC   C2B45200  12.076  28.664   6.750
 6759POPC   C3B45201  12.106  28.624   7.050
 6759POPC   C4B45202  12.039  28.635   7.350
 6760POPC   NC345203   3.514  26.864   5.550
 6760POPC   PO445204   3.542  26.853   5.850
 6760POPC   GL145205   3.554  26.797   6.150
 6760POPC   GL245206   3.502  26.686   6.150
 6760POPC   C1A45207   3.566  26.769   6.450
 6760POPC   D2A45208   3.493  26.839   6.750
 6760POPC   C3A45209   3.524  26.779   7.050
 6760POPC   C4A45210   3.525  26.802   7.350
 6760POPC   C1B45211   3.426  26.557   6.450
 6760POPC   C2B45212   3.476  26.555   6.750
 6760POPC   C3B45213   3.467  26.577   7.050
 6760POPC   C4B45214   3.424  26.566   7.350
 6761POPC   NC345215  10.507  41.564   5.550
 6761POPC   PO445216  10.553  41.606   5.850
 6761POPC   GL145217  10.500  41.575   6.150
 6761POPC   GL245218  10.355  41.611   6.150
 6761POPC   C1A45219  10.543  41.596   6.450
 6761POPC   D2A45220  10.534  41.544   6.750
 6761POPC   C3A45221  10.476  41.577   7.050
 6761POPC   C4A45222  10.504  41.588   7.350
 6761POPC   C1B45223  10.247  41.603   6.450
 6761POPC   C2B45224  10.262  41.555   6.750
 6761POPC   C3B45225  10.242  41.583   7.050
 6761POPC   C4B45226  10.289  41.644   7.350
 6762POPC   NC345227  32.284  12.852   5.550
 6762POPC   PO445228  32.233  12.889   5.850
 6762POPC   GL145229  32.241  12.891   6.150
 6762POPC   GL245230  32.244  12.770   6.150
 6762POPC   C1A45231  32.231  12.872   6.450
 6762POPC   D2A45232  32.207  12.896   6.750
 6762POPC   C3A45233  32.210  12.873   7.050
 6762POPC   C4A45234  32.234  12.830   7.350
 6762POPC   C1B45235  32.287  12.635   6.450
 6762POPC   C2B45236  32.344  12.586   6.750
 6762POPC   C3B45237  32.295  12.569   7.050
 6762POPC   C4B45238  32.361  12.574   7.350
 6763POPC   NC345239  27.611  20.604   5.550
 6763POPC   PO445240  27.554  20.619   5.850
 6763POPC   GL145241  27.618  20.616   6.150
 6763POPC   GL245242  27.680  20.502   6.150
 6763POPC   C1A45243  27.599  20.628   6.450
 6763POPC   D2A45244  27.570  20.650   6.750
 6763POPC   C3A45245  27.587  20.611   7.050
 6763POPC   C4A45246  27.584  20.609   7.350
 6763POPC   C1B45247  27.753  20.517   6.450
 6763POPC   C2B45248  27.762  20.500   6.750
 6763POPC   C3B45249  27.841  20.470   7.050
 6763POPC   C4B45250  27.788  20.505   7.350
 6764POPC   NC345251   9.752  15.140   5.550
 6764POPC   PO445252   9.700  15.151   5.850
 6764POPC   GL145253   9.753  15.172   6.150
 6764POPC   GL245254   9.859  15.222   6.150
 6764POPC   C1A45255   9.741  15.227   6.450
 6764POPC   D2A45256   9.745  15.223   6.750
 6764POPC   C3A45257   9.718  15.162   7.050
 6764POPC   C4A45258   9.699  15.223   7.350
 6764POPC   C1B45259   9.948  15.277   6.450
 6764POPC   C2B45260   9.971  15.296   6.750
 6764POPC   C3B45261   9.920  15.349   7.050
 6764POPC   C4B45262   9.943  15.278   7.350
 6765POPC   NC345263  19.839  36.942   5.550
 6765POPC   PO445264  19.816  36.904   5.850
 6765POPC   GL145265  19.800  36.879   6.150
 6765POPC   GL245266  19.987  36.939   6.150
 6765POPC   C1A45267  19.828  36.858   6.450
 6765POPC   D2A45268  19.791  36.919   6.750
 6765POPC   C3A45269  19.829  36.949   7.050
 6765POPC   C4A45270  19.785  36.869   7.350
 6765POPC   C1B45271  20.078  36.858   6.450
 6765POPC   C2B45272  20.106  36.880   6.750
 6765POPC   C3B45273  20.062  36.875   7.050
 6765POPC   C4B45274  20.051  36.834   7.350
 6766POPC   NC345275   0.419  25.229   5.550
 6766POPC   PO445276   0.405  25.314   5.850
 6766POPC   GL145277   0.436  25.302   6.150
 6766POPC   GL245278   0.504  25.354   6.150
 6766POPC   C1A45279   0.478  25.258   6.450
 6766POPC   D2A45280   0.477  25.270   6.750
 6766POPC   C3A45281   0.406  25.268   7.050
 6766POPC   C4A45282   0.443  25.299   7.350
 6766POPC   C1B45283   0.669  25.458   6.450
 6766POPC   C2B45284   0.689  25.377   6.750
 6766POPC   C3B45285   0.598  25.377   7.050
 6766POPC   C4B45286   0.595  25.409   7.350
 6767POPC   NC345287   1.201  41.548   5.550
 6767POPC   PO445288   1.249  41.578   5.850
 6767POPC   GL145289   1.180  41.557   6.150
 6767POPC   GL245290   1.335  41.588   6.150
 6767POPC   C1A45291   1.241  41.525   6.450
 6767POPC   D2A45292   1.260  41.553   6.750
 6767POPC   C3A45293   1.203  41.604   7.050
 6767POPC   C4A45294   1.188  41.542   7.350
 6767POPC   C1B45295   1.423  41.661   6.450
 6767POPC   C2B45296   1.459  41.748   6.750
 6767POPC   C3B45297   1.443  41.714   7.050
 6767POPC   C4B45298   1.447  41.655   7.350
 6768POPC   NC345299  11.316  42.368   5.550
 6768POPC   PO445300  11.345  42.289   5.850
 6768POPC   GL145301  11.311  42.304   6.150
 6768POPC   GL245302  11.163  42.392   6.150
 6768POPC   C1A45303  11.322  42.361   6.450
 6768POPC   D2A45304  11.344  42.347   6.750
 6768POPC   C3A45305  11.313  42.291   7.050
 6768POPC   C4A45306  11.293  42.289   7.350
 6768POPC   C1B45307  11.106  42.385   6.450
 6768POPC   C2B45308  11.008  42.429   6.750
 6768POPC   C3B45309  11.009  42.386   7.050
 6768POPC   C4B45310  11.090  42.387   7.350
 6769POPC   NC345311  40.825  28.411   5.550
 6769POPC   PO445312  40.792  28.373   5.850
 6769POPC   GL145313  40.823  28.350   6.150
 6769POPC   GL245314  40.657  28.444   6.150
 6769POPC   C1A45315  40.811  28.365   6.450
 6769POPC   D2A45316  40.818  28.389   6.750
 6769POPC   C3A45317  40.788  28.347   7.050
 6769POPC   C4A45318  40.800  28.336   7.350
 6769POPC   C1B45319  40.591  28.547   6.450
 6769POPC   C2B45320  40.558  28.535   6.750
 6769POPC   C3B45321  40.547  28.500   7.050
 6769POPC   C4B45322  40.532  28.493   7.350
 6770POPC   NC345323  17.463  26.042   5.550
 6770POPC   PO445324  17.513  26.036   5.850
 6770POPC   GL145325  17.545  26.038   6.150
 6770POPC   GL245326  17.528  26.176   6.150
 6770POPC   C1A45327  17.469  26.062   6.450
 6770POPC   D2A45328  17.459  26.024   6.750
 6770POPC   C3A45329  17.549  26.017   7.050
 6770POPC   C4A45330  17.530  26.043   7.350
 6770POPC   C1B45331  17.672  26.249   6.450
 6770POPC   C2B45332  17.603  26.282   6.750
 6770POPC   C3B45333  17.674  26.246   7.050
 6770POPC   C4B45334  17.613  26.282   7.350
 6771POPC   NC345335  35.344  26.831   5.550
 6771POPC   PO445336  35.339  26.774   5.850
 6771POPC   GL145337  35.315  26.816   6.150
 6771POPC   GL245338  35.275  26.793   6.150
 6771POPC   C1A45339  35.396  26.783   6.450
 6771POPC   D2A45340  35.396  26.810   6.750
 6771POPC   C3A45341  35.369  26.822   7.050
 6771POPC   C4A45342  35.386  26.839   7.350
 6771POPC   C1B45343  35.123  26.780   6.450
 6771POPC   C2B45344  35.071  26.721   6.750
 6771POPC   C3B45345  35.145  26.777   7.050
 6771POPC   C4B45346  35.079  26.767   7.350
 6772POPC   NC345347  35.389  19.855   5.550
 6772POPC   PO445348  35.337  19.802   5.850
 6772POPC   GL145349  35.395  19.832   6.150
 6772POPC   GL245350  35.263  19.879   6.150
 6772POPC   C1A45351  35.394  19.810   6.450
 6772POPC   D2A45352  35.373  19.881   6.750
 6772POPC   C3A45353  35.303  19.792   7.050
 6772POPC   C4A45354  35.345  19.802   7.350
 6772POPC   C1B45355  35.111  19.953   6.450
 6772POPC   C2B45356  35.122  19.979   6.750
 6772POPC   C3B45357  35.116  20.032   7.050
 6772POPC   C4B45358  35.137  20.033   7.350
 6773POPC   NC345359  33.823  41.545   5.550
 6773POPC   PO445360  33.817  41.526   5.850
 6773POPC   GL145361  33.767  41.595   6.150
 6773POPC   GL245362  33.732  41.678   6.150
 6773POPC   C1A45363  33.834  41.515   6.450
 6773POPC   D2A45364  33.825  41.560   6.750
 6773POPC   C3A45365  33.807  41.577   7.050
 6773POPC   C4A45366  33.772  41.534   7.350
 6773POPC   C1B45367  33.642  41.774   6.450
 6773POPC   C2B45368  33.650  41.800   6.750
 6773POPC   C3B45369  33.687  41.772   7.050
 6773POPC   C4B45370  33.709  41.754   7.350
 6774POPC   NC345371  31.521  39.206   5.550
 6774POPC   PO445372  31.510  39.214   5.850
 6774POPC   GL145373  31.507  39.245   6.150
 6774POPC   GL245374  31.403  39.111   6.150
 6774POPC   C1A45375  31.458  39.272   6.450
 6774POPC   D2A45376  31.424  39.259   6.750
 6774POPC   C3A45377  31.488  39.241   7.050
 6774POPC   C4A45378  31.433  39.269   7.350
 6774POPC   C1B45379  31.335  39.058   6.450
 6774POPC   C2B45380  31.321  38.997   6.750
 6774POPC   C3B45381  31.315  38.975   7.050
 6774POPC   C4B45382  31.345  38.999   7.350
 6775POPC   NC345383   3.553   3.542   5.550
 6775POPC   PO445384   3.515   3.543   5.850
 6775POPC   GL145385   3.569   3.542   6.150
 6775POPC   GL245386   3.602   3.466   6.150
 6775POPC   C1A45387   3.546   3.575   6.450
 6775POPC   D2A45388   3.551   3.522   6.750
 6775POPC   C3A45389   3.557   3.508   7.050
 6775POPC   C4A45390   3.538   3.503   7.350
 6775POPC   C1B45391   3.719   3.372   6.450
 6775POPC   C2B45392   3.750   3.414   6.750
 6775POPC   C3B45393   3.676   3.398   7.050
 6775POPC   C4B45394   3.678   3.377   7.350
 6776POPC   NC345395  15.220  33.810   5.550
 6776POPC   PO445396  15.170  33.804   5.850
 6776POPC   GL145397  15.215  33.752   6.150
 6776POPC   GL245398  15.212  33.884   6.150
 6776POPC   C1A45399  15.187  33.802   6.450
 6776POPC   D2A45400  15.228  33.789   6.750
 6776POPC   C3A45401  15.145  33.772   7.050
 6776POPC   C4A45402  15.153  33.806   7.350
 6776POPC   C1B45403  15.273  34.067   6.450
 6776POPC   C2B45404  15.320  34.049   6.750
 6776POPC   C3B45405  15.338  34.043   7.050
 6776POPC   C4B45406  15.273  33.986   7.350
 6777POPC   NC345407  11.325  35.346   5.550
 6777POPC   PO445408  11.259  35.395   5.850
 6777POPC   GL145409  11.345  35.312   6.150
 6777POPC   GL245410  11.154  35.380   6.150
 6777POPC   C1A45411  11.293  35.346   6.450
 6777POPC   D2A45412  11.273  35.330   6.750
 6777POPC   C3A45413  11.256  35.370   7.050
 6777POPC   C4A45414  11.304  35.323   7.350
 6777POPC   C1B45415  11.063  35.438   6.450
 6777POPC   C2B45416  11.039  35.418   6.750
 6777POPC   C3B45417  11.057  35.398   7.050
 6777POPC   C4B45418  11.084  35.430   7.350
 6778POPC   NC345419   6.650   5.045   5.550
 6778POPC   PO445420   6.684   5.102   5.850
 6778POPC   GL145421   6.691   5.100   6.150
 6778POPC   GL245422   6.674   5.252   6.150
 6778POPC   C1A45423   6.679   5.101   6.450
 6778POPC   D2A45424   6.673   5.049   6.750
 6778POPC   C3A45425   6.608   5.133   7.050
 6778POPC   C4A45426   6.596   5.087   7.350
 6778POPC   C1B45427   6.713   5.367   6.450
 6778POPC   C2B45428   6.733   5.288   6.750
 6778POPC   C3B45429   6.697   5.286   7.050
 6778POPC   C4B45430   6.698   5.365   7.350
 6779POPC   NC345431  21.421  30.728   5.550
 6779POPC   PO445432  21.386  30.654   5.850
 6779POPC   GL145433  21.413  30.688   6.150
 6779POPC   GL245434  21.239  30.758   6.150
 6779POPC   C1A45435  21.404  30.681   6.450
 6779POPC   D2A45436  21.365  30.741   6.750
 6779POPC   C3A45437  21.396  30.714   7.050
 6779POPC   C4A45438  21.421  30.699   7.350
 6779POPC   C1B45439  21.160  30.696   6.450
 6779POPC   C2B45440  21.108  30.721   6.750
 6779POPC   C3B45441  21.148  30.724   7.050
 6779POPC   C4B45442  21.129  30.722   7.350
 6780POPC   NC345443  12.106  10.563   5.550
 6780POPC   PO445444  12.107  10.508   5.850
 6780POPC   GL145445  12.049  10.517   6.150
 6780POPC   GL245446  12.216  10.518   6.150
 6780POPC   C1A45447  12.068  10.568   6.450
 6780POPC   D2A45448  12.086  10.481   6.750
 6780POPC   C3A45449  12.114  10.521   7.050
 6780POPC   C4A45450  12.056  10.542   7.350
 6780POPC   C1B45451  12.286  10.497   6.450
 6780POPC   C2B45452  12.290  10.454   6.750
 6780POPC   C3B45453  12.328  10.517   7.050
 6780POPC   C4B45454  12.299  10.470   7.350
 6781POPC   NC345455  38.499  12.037   5.550
 6781POPC   PO445456  38.503  12.126   5.850
 6781POPC   GL145457  38.424  12.034   6.150
 6781POPC   GL245458  38.593  12.031   6.150
 6781POPC   C1A45459  38.409  12.111   6.450
 6781POPC   D2A45460  38.481  12.046   6.750
 6781POPC   C3A45461  38.422  12.079   7.050
 6781POPC   C4A45462  38.422  12.029   7.350
 6781POPC   C1B45463  38.651  11.922   6.450
 6781POPC   C2B45464  38.642  11.909   6.750
 6781POPC   C3B45465  38.639  11.871   7.050
 6781POPC   C4B45466  38.650  11.894   7.350
 6782POPC   NC345467  22.893  29.875   5.550
 6782POPC   PO445468  22.937  29.942   5.850
 6782POPC   GL145469  22.951  29.892   6.150
 6782POPC   GL245470  22.883  30.061   6.150
 6782POPC   C1A45471  22.893  29.894   6.450
 6782POPC   D2A45472  22.987  29.914   6.750
 6782POPC   C3A45473  22.928  29.948   7.050
 6782POPC   C4A45474  22.965  29.906   7.350
 6782POPC   C1B45475  22.795  30.121   6.450
 6782POPC   C2B45476  22.836  30.112   6.750
 6782POPC   C3B45477  22.827  30.158   7.050
 6782POPC   C4B45478  22.782  30.185   7.350
 6783POPC   NC345479   8.190   1.993   5.550
 6783POPC   PO445480   8.239   1.961   5.850
 6783POPC   GL145481   8.196   1.946   6.150
 6783POPC   GL245482   8.296   1.852   6.150
 6783POPC   C1A45483   8.215   1.949   6.450
 6783POPC   D2A45484   8.203   1.968   6.750
 6783POPC   C3A45485   8.157   2.000   7.050
 6783POPC   C4A45486   8.213   1.975   7.350
 6783POPC   C1B45487   8.330   1.805   6.450
 6783POPC   C2B45488   8.343   1.859   6.750
 6783POPC   C3B45489   8.382   1.805   7.050
 6783POPC   C4B45490   8.407   1.808   7.350
 6784POPC   NC345491   7.458  20.615   5.550
 6784POPC   PO445492   7.415  20.632   5.850
 6784POPC   GL145493   7.387  20.657   6.150
 6784POPC   GL245494   7.350  20.535   6.150
 6784POPC   C1A45495   7.414  20.611   6.450
 6784POPC   D2A45496   7.456  20.660   6.750
 6784POPC   C3A45497   7.385  20.563   7.050
 6784POPC   C4A45498   7.414  20.590   7.350
 6784POPC   C1B45499   7.308  20.398   6.450
 6784POPC   C2B45500   7.322  20.361   6.750
 6784POPC   C3B45501   7.394  20.398   7.050
 6784POPC   C4B45502   7.396  20.418   7.350
 6785POPC   NC345503  16.749  33.759   5.550
 6785POPC   PO445504  16.752  33.832   5.850
 6785POPC   GL145505  16.686  33.808   6.150
 6785POPC   GL245506  16.705  33.906   6.150
 6785POPC   C1A45507  16.746  33.832   6.450
 6785POPC   D2A45508  16.777  33.778   6.750
 6785POPC   C3A45509  16.738  33.825   7.050
 6785POPC   C4A45510  16.726  33.762   7.350
 6785POPC   C1B45511  16.694  34.048   6.450
 6785POPC   C2B45512  16.681  34.014   6.750
 6785POPC   C3B45513  16.686  34.034   7.050
 6785POPC   C4B45514  16.674  34.019   7.350
 6786POPC   NC345515  34.549  42.373   5.550
 6786POPC   PO445516  34.565  42.328   5.850
 6786POPC   GL145517  34.566  42.302   6.150
 6786POPC   GL245518  34.550  42.220   6.150
 6786POPC   C1A45519  34.595  42.308   6.450
 6786POPC   D2A45520  34.532  42.299   6.750
 6786POPC   C3A45521  34.624  42.334   7.050
 6786POPC   C4A45522  34.573  42.307   7.350
 6786POPC   C1B45523  34.457  42.135   6.450
 6786POPC   C2B45524  34.434  42.112   6.750
 6786POPC   C3B45525  34.447  42.103   7.050
 6786POPC   C4B45526  34.484  42.079   7.350
 6787POPC   NC345527  15.139   5.057   5.550
 6787POPC   PO445528  15.198   5.057   5.850
 6787POPC   GL145529  15.161   5.130   6.150
 6787POPC   GL245530  15.260   5.202   6.150
 6787POPC   C1A45531  15.201   5.094   6.450
 6787POPC   D2A45532  15.186   5.069   6.750
 6787POPC   C3A45533  15.179   5.082   7.050
 6787POPC   C4A45534  15.130   5.067   7.350
 6787POPC   C1B45535  15.342   5.256   6.450
 6787POPC   C2B45536  15.385   5.312   6.750
 6787POPC   C3B45537  15.354   5.304   7.050
 6787POPC   C4B45538  15.340   5.264   7.350
 6788POPC   NC345539  18.281  32.231   5.550
 6788POPC   PO445540  18.242  32.259   5.850
 6788POPC   GL145541  18.329  32.290   6.150
 6788POPC   GL245542  18.354  32.219   6.150
 6788POPC   C1A45543  18.235  32.199   6.450
 6788POPC   D2A45544  18.283  32.275   6.750
 6788POPC   C3A45545  18.291  32.210   7.050
 6788POPC   C4A45546  18.323  32.206   7.350
 6788POPC   C1B45547  18.485  32.138   6.450
 6788POPC   C2B45548  18.517  32.146   6.750
 6788POPC   C3B45549  18.532  32.127   7.050
 6788POPC   C4B45550  18.518  32.108   7.350
 6789POPC   NC345551   0.487  43.906   5.550
 6789POPC   PO445552   0.446  43.927   5.850
 6789POPC   GL145553   0.483  43.848   6.150
 6789POPC   GL245554   0.287  43.938   6.150
 6789POPC   C1A45555   0.445  43.851   6.450
 6789POPC   D2A45556   0.432  43.876   6.750
 6789POPC   C3A45557   0.438  43.906   7.050
 6789POPC   C4A45558   0.488  43.870   7.350
 6789POPC   C1B45559   0.186  43.991   6.450
 6789POPC   C2B45560   0.204  43.944   6.750
 6789POPC   C3B45561   0.166  44.020   7.050
 6789POPC   C4B45562   0.202  44.016   7.350
 6790POPC   NC345563  28.340  12.851   5.550
 6790POPC   PO445564  28.326  12.893   5.850
 6790POPC   GL145565  28.326  12.851   6.150
 6790POPC   GL245566  28.452  12.761   6.150
 6790POPC   C1A45567  28.417  12.872   6.450
 6790POPC   D2A45568  28.332  12.802   6.750
 6790POPC   C3A45569  28.355  12.871   7.050
 6790POPC   C4A45570  28.382  12.807   7.350
 6790POPC   C1B45571  28.420  12.641   6.450
 6790POPC   C2B45572  28.446  12.651   6.750
 6790POPC   C3B45573  28.439  12.595   7.050
 6790POPC   C4B45574  28.436  12.590   7.350
 6791POPC   NC345575  21.424  35.322   5.550
 6791POPC   PO445576  21.369  35.336   5.850
 6791POPC   GL145577  21.370  35.351   6.150
 6791POPC   GL245578  21.485  35.345   6.150
 6791POPC   C1A45579  21.398  35.350   6.450
 6791POPC   D2A45580  21.385  35.305   6.750
 6791POPC   C3A45581  21.337  35.318   7.050
 6791POPC   C4A45582  21.394  35.331   7.350
 6791POPC   C1B45583  21.648  35.308   6.450
 6791POPC   C2B45584  21.606  35.360   6.750
 6791POPC   C3B45585  21.610  35.338   7.050
 6791POPC   C4B45586  21.616  35.323   7.350
 6792POPC   NC345587   6.605  21.421   5.550
 6792POPC   PO445588   6.692  21.424   5.850
 6792POPC   GL145589   6.642  21.337   6.150
 6792POPC   GL245590   6.714  21.329   6.150
 6792POPC   C1A45591   6.676  21.352   6.450
 6792POPC   D2A45592   6.622  21.433   6.750
 6792POPC   C3A45593   6.655  21.416   7.050
 6792POPC   C4A45594   6.644  21.392   7.350
 6792POPC   C1B45595   6.871  21.328   6.450
 6792POPC   C2B45596   6.855  21.268   6.750
 6792POPC   C3B45597   6.870  21.321   7.050
 6792POPC   C4B45598   6.862  21.316   7.350
 6793POPC   NC345599  12.026  35.397   5.550
 6793POPC   PO445600  12.036  35.332   5.850
 6793POPC   GL145601  12.074  35.399   6.150
 6793POPC   GL245602  12.199  35.292   6.150
 6793POPC   C1A45603  12.034  35.349   6.450
 6793POPC   D2A45604  12.100  35.370   6.750
 6793POPC   C3A45605  12.047  35.317   7.050
 6793POPC   C4A45606  12.105  35.363   7.350
 6793POPC   C1B45607  12.280  35.335   6.450
 6793POPC   C2B45608  12.286  35.292   6.750
 6793POPC   C3B45609  12.306  35.253   7.050
 6793POPC   C4B45610  12.336  35.266   7.350
 6794POPC   NC345611   5.915   2.730   5.550
 6794POPC   PO445612   5.852   2.722   5.850
 6794POPC   GL145613   5.903   2.727   6.150
 6794POPC   GL245614   5.813   2.856   6.150
 6794POPC   C1A45615   5.893   2.755   6.450
 6794POPC   D2A45616   5.849   2.731   6.750
 6794POPC   C3A45617   5.866   2.748   7.050
 6794POPC   C4A45618   5.835   2.731   7.350
 6794POPC   C1B45619   5.690   2.936   6.450
 6794POPC   C2B45620   5.714   2.908   6.750
 6794POPC   C3B45621   5.739   2.945   7.050
 6794POPC   C4B45622   5.670   2.974   7.350
 6795POPC   NC345623  36.861  26.036   5.550
 6795POPC   PO445624  36.938  26.062   5.850
 6795POPC   GL145625  36.905  26.046   6.150
 6795POPC   GL245626  36.775  26.172   6.150
 6795POPC   C1A45627  36.927  26.028   6.450
 6795POPC   D2A45628  36.919  26.071   6.750
 6795POPC   C3A45629  36.915  26.019   7.050
 6795POPC   C4A45630  36.920  26.038   7.350
 6795POPC   C1B45631  36.773  26.231   6.450
 6795POPC   C2B45632  36.714  26.280   6.750
 6795POPC   C3B45633  36.729  26.200   7.050
 6795POPC   C4B45634  36.784  26.195   7.350
 6796POPC   NC345635  24.457  29.122   5.550
 6796POPC   PO445636  24.485  29.172   5.850
 6796POPC   GL145637  24.515  29.138   6.150
 6796POPC   GL245638  24.641  29.201   6.150
 6796POPC   C1A45639  24.494  29.134   6.450
 6796POPC   D2A45640  24.457  29.137   6.750
 6796POPC   C3A45641  24.479  29.101   7.050
 6796POPC   C4A45642  24.490  29.122   7.350
 6796POPC   C1B45643  24.714  29.178   6.450
 6796POPC   C2B45644  24.706  29.124   6.750
 6796POPC   C3B45645  24.721  29.159   7.050
 6796POPC   C4B45646  24.689  29.141   7.350
 6797POPC   NC345647  28.352  31.513   5.550
 6797POPC   PO445648  28.399  31.509   5.850
 6797POPC   GL145649  28.400  31.512   6.150
 6797POPC   GL245650  28.304  31.548   6.150
 6797POPC   C1A45651  28.377  31.513   6.450
 6797POPC   D2A45652  28.341  31.426   6.750
 6797POPC   C3A45653  28.373  31.520   7.050
 6797POPC   C4A45654  28.371  31.467   7.350
 6797POPC   C1B45655  28.152  31.609   6.450
 6797POPC   C2B45656  28.135  31.598   6.750
 6797POPC   C3B45657  28.101  31.599   7.050
 6797POPC   C4B45658  28.129  31.521   7.350
 6798POPC   NC345659  16.692  14.442   5.550
 6798POPC   PO445660  16.703  14.408   5.850
 6798POPC   GL145661  16.748  14.450   6.150
 6798POPC   GL245662  16.844  14.340   6.150
 6798POPC   C1A45663  16.740  14.453   6.450
 6798POPC   D2A45664  16.753  14.387   6.750
 6798POPC   C3A45665  16.754  14.402   7.050
 6798POPC   C4A45666  16.758  14.371   7.350
 6798POPC   C1B45667  16.835  14.205   6.450
 6798POPC   C2B45668  16.843  14.192   6.750
 6798POPC   C3B45669  16.882  14.238   7.050
 6798POPC   C4B45670  16.833  14.239   7.350
 6799POPC   NC345671  14.448  43.124   5.550
 6799POPC   PO445672  14.408  43.155   5.850
 6799POPC   GL145673  14.420  43.099   6.150
 6799POPC   GL245674  14.385  43.012   6.150
 6799POPC   C1A45675  14.433  43.128   6.450
 6799POPC   D2A45676  14.370  43.103   6.750
 6799POPC   C3A45677  14.358  43.089   7.050
 6799POPC   C4A45678  14.354  43.126   7.350
 6799POPC   C1B45679  14.456  42.856   6.450
 6799POPC   C2B45680  14.406  42.851   6.750
 6799POPC   C3B45681  14.432  42.888   7.050
 6799POPC   C4B45682  14.410  42.887   7.350
 6800POPC   NC345683  36.165  29.905   5.550
 6800POPC   PO445684  36.177  29.932   5.850
 6800POPC   GL145685  36.165  29.939   6.150
 6800POPC   GL245686  36.095  30.010   6.150
 6800POPC   C1A45687  36.104  29.937   6.450
 6800POPC   D2A45688  36.113  29.900   6.750
 6800POPC   C3A45689  36.142  29.906   7.050
 6800POPC   C4A45690  36.080  29.912   7.350
 6800POPC   C1B45691  36.013  30.132   6.450
 6800POPC   C2B45692  36.042  30.122   6.750
 6800POPC   C3B45693  36.007  30.144   7.050
 6800POPC   C4B45694  36.041  30.134   7.350
 6801POPC   NC345695  29.175  25.257   5.550
 6801POPC   PO445696  29.174  25.300   5.850
 6801POPC   GL145697  29.183  25.225   6.150
 6801POPC   GL245698  29.168  25.202   6.150
 6801POPC   C1A45699  29.180  25.221   6.450
 6801POPC   D2A45700  29.128  25.216   6.750
 6801POPC   C3A45701  29.160  25.229   7.050
 6801POPC   C4A45702  29.137  25.239   7.350
 6801POPC   C1B45703  29.247  25.094   6.450
 6801POPC   C2B45704  29.265  25.046   6.750
 6801POPC   C3B45705  29.321  25.019   7.050
 6801POPC   C4B45706  29.309  25.060   7.350
 6802POPC   NC345707  31.449  15.216   5.550
 6802POPC   PO445708  31.479  15.165   5.850
 6802POPC   GL145709  31.451  15.188   6.150
 6802POPC   GL245710  31.539  15.320   6.150
 6802POPC   C1A45711  31.506  15.141   6.450
 6802POPC   D2A45712  31.435  15.160   6.750
 6802POPC   C3A45713  31.491  15.131   7.050
 6802POPC   C4A45714  31.521  15.133   7.350
 6802POPC   C1B45715  31.573  15.445   6.450
 6802POPC   C2B45716  31.631  15.396   6.750
 6802POPC   C3B45717  31.638  15.380   7.050
 6802POPC   C4B45718  31.548  15.387   7.350
 6803POPC   NC345719  36.135   8.238   5.550
 6803POPC   PO445720  36.152   8.156   5.850
 6803POPC   GL145721  36.121   8.192   6.150
 6803POPC   GL245722  36.174   8.054   6.150
 6803POPC   C1A45723  36.146   8.174   6.450
 6803POPC   D2A45724  36.138   8.240   6.750
 6803POPC   C3A45725  36.120   8.209   7.050
 6803POPC   C4A45726  36.154   8.218   7.350
 6803POPC   C1B45727  36.256   7.957   6.450
 6803POPC   C2B45728  36.202   7.950   6.750
 6803POPC   C3B45729  36.180   8.004   7.050
 6803POPC   C4B45730  36.220   7.967   7.350
 6804POPC   NC345731  15.915   1.228   5.550
 6804POPC   PO445732  15.932   1.258   5.850
 6804POPC   GL145733  15.916   1.242   6.150
 6804POPC   GL245734  15.810   1.164   6.150
 6804POPC   C1A45735  15.935   1.195   6.450
 6804POPC   D2A45736  16.004   1.251   6.750
 6804POPC   C3A45737  15.956   1.210   7.050
 6804POPC   C4A45738  15.966   1.216   7.350
 6804POPC   C1B45739  15.685   1.144   6.450
 6804POPC   C2B45740  15.736   1.169   6.750
 6804POPC   C3B45741  15.750   1.188   7.050
 6804POPC   C4B45742  15.665   1.133   7.350
 6805POPC   NC345743  33.841  25.229   5.550
 6805POPC   PO445744  33.849  25.233   5.850
 6805POPC   GL145745  33.816  25.219   6.150
 6805POPC   GL245746  33.751  25.193   6.150
 6805POPC   C1A45747  33.766  25.300   6.450
 6805POPC   D2A45748  33.768  25.219   6.750
 6805POPC   C3A45749  33.797  25.253   7.050
 6805POPC   C4A45750  33.833  25.289   7.350
 6805POPC   C1B45751  33.767  25.035   6.450
 6805POPC   C2B45752  33.679  24.992   6.750
 6805POPC   C3B45753  33.673  25.046   7.050
 6805POPC   C4B45754  33.699  25.011   7.350
 6806POPC   NC345755  36.147  15.950   5.550
 6806POPC   PO445756  36.143  15.970   5.850
 6806POPC   GL145757  36.103  15.955   6.150
 6806POPC   GL245758  36.027  15.838   6.150
 6806POPC   C1A45759  36.172  15.986   6.450
 6806POPC   D2A45760  36.167  15.967   6.750
 6806POPC   C3A45761  36.174  15.914   7.050
 6806POPC   C4A45762  36.095  15.941   7.350
 6806POPC   C1B45763  35.920  15.756   6.450
 6806POPC   C2B45764  35.898  15.837   6.750
 6806POPC   C3B45765  35.949  15.789   7.050
 6806POPC   C4B45766  35.904  15.779   7.350
 6807POPC   NC345767  26.867  20.626   5.550
 6807POPC   PO445768  26.852  20.646   5.850
 6807POPC   GL145769  26.864  20.615   6.150
 6807POPC   GL245770  26.822  20.753   6.150
 6807POPC   C1A45771  26.841  20.624   6.450
 6807POPC   D2A45772  26.820  20.615   6.750
 6807POPC   C3A45773  26.779  20.589   7.050
 6807POPC   C4A45774  26.855  20.581   7.350
 6807POPC   C1B45775  26.879  20.865   6.450
 6807POPC   C2B45776  26.852  20.897   6.750
 6807POPC   C3B45777  26.898  20.872   7.050
 6807POPC   C4B45778  26.882  20.895   7.350
 6808POPC   NC345779   1.979  43.919   5.550
 6808POPC   PO445780   2.021  43.844   5.850
 6808POPC   GL145781   1.966  43.924   6.150
 6808POPC   GL245782   1.918  43.966   6.150
 6808POPC   C1A45783   1.998  43.889   6.450
 6808POPC   D2A45784   2.032  43.901   6.750
 6808POPC   C3A45785   1.995  43.864   7.050
 6808POPC   C4A45786   2.030  43.845   7.350
 6808POPC   C1B45787   1.806  44.037   6.450
 6808POPC   C2B45788   1.832  44.043   6.750
 6808POPC   C3B45789   1.849  44.093   7.050
 6808POPC   C4B45790   1.788  44.045   7.350
 6809POPC   NC345791   4.348  32.236   5.550
 6809POPC   PO445792   4.281  32.220   5.850
 6809POPC   GL145793   4.337  32.215   6.150
 6809POPC   GL245794   4.296  32.094   6.150
 6809POPC   C1A45795   4.292  32.252   6.450
 6809POPC   D2A45796   4.272  32.236   6.750
 6809POPC   C3A45797   4.295  32.280   7.050
 6809POPC   C4A45798   4.290  32.214   7.350
 6809POPC   C1B45799   4.378  31.986   6.450
 6809POPC   C2B45800   4.343  31.954   6.750
 6809POPC   C3B45801   4.405  31.958   7.050
 6809POPC   C4B45802   4.407  32.023   7.350
 6810POPC   NC345803   9.719   3.536   5.550
 6810POPC   PO445804   9.792   3.513   5.850
 6810POPC   GL145805   9.700   3.557   6.150
 6810POPC   GL245806   9.615   3.545   6.150
 6810POPC   C1A45807   9.738   3.523   6.450
 6810POPC   D2A45808   9.738   3.577   6.750
 6810POPC   C3A45809   9.744   3.531   7.050
 6810POPC   C4A45810   9.770   3.584   7.350
 6810POPC   C1B45811   9.462   3.584   6.450
 6810POPC   C2B45812   9.522   3.540   6.750
 6810POPC   C3B45813   9.474   3.523   7.050
 6810POPC   C4B45814   9.499   3.534   7.350
 6811POPC   NC345815  17.535  19.817   5.550
 6811POPC   PO445816  17.512  19.821   5.850
 6811POPC   GL145817  17.539  19.821   6.150
 6811POPC   GL245818  17.540  19.702   6.150
 6811POPC   C1A45819  17.497  19.792   6.450
 6811POPC   D2A45820  17.553  19.809   6.750
 6811POPC   C3A45821  17.549  19.863   7.050
 6811POPC   C4A45822  17.527  19.838   7.350
 6811POPC   C1B45823  17.635  19.652   6.450
 6811POPC   C2B45824  17.599  19.655   6.750
 6811POPC   C3B45825  17.673  19.652   7.050
 6811POPC   C4B45826  17.629  19.574   7.350
 6812POPC   NC345827  20.583  42.361   5.550
 6812POPC   PO445828  20.598  42.332   5.850
 6812POPC   GL145829  20.569  42.341   6.150
 6812POPC   GL245830  20.687  42.275   6.150
 6812POPC   C1A45831  20.642  42.343   6.450
 6812POPC   D2A45832  20.572  42.346   6.750
 6812POPC   C3A45833  20.561  42.370   7.050
 6812POPC   C4A45834  20.658  42.288   7.350
 6812POPC   C1B45835  20.865  42.248   6.450
 6812POPC   C2B45836  20.877  42.253   6.750
 6812POPC   C3B45837  20.868  42.283   7.050
 6812POPC   C4B45838  20.870  42.237   7.350
 6813POPC   NC345839  35.345  24.520   5.550
 6813POPC   PO445840  35.312  24.502   5.850
 6813POPC   GL145841  35.325  24.441   6.150
 6813POPC   GL245842  35.345  24.419   6.150
 6813POPC   C1A45843  35.367  24.441   6.450
 6813POPC   D2A45844  35.319  24.456   6.750
 6813POPC   C3A45845  35.356  24.488   7.050
 6813POPC   C4A45846  35.365  24.479   7.350
 6813POPC   C1B45847  35.274  24.269   6.450
 6813POPC   C2B45848  35.263  24.272   6.750
 6813POPC   C3B45849  35.214  24.256   7.050
 6813POPC   C4B45850  35.271  24.229   7.350
 6814POPC   NC345851  35.346  11.262   5.550
 6814POPC   PO445852  35.319  11.274   5.850
 6814POPC   GL145853  35.362  11.286   6.150
 6814POPC   GL245854  35.462  11.397   6.150
 6814POPC   C1A45855  35.368  11.326   6.450
 6814POPC   D2A45856  35.393  11.255   6.750
 6814POPC   C3A45857  35.312  11.311   7.050
 6814POPC   C4A45858  35.317  11.276   7.350
 6814POPC   C1B45859  35.576  11.404   6.450
 6814POPC   C2B45860  35.592  11.386   6.750
 6814POPC   C3B45861  35.571  11.444   7.050
 6814POPC   C4B45862  35.571  11.408   7.350
 6815POPC   NC345863   9.000  18.291   5.550
 6815POPC   PO445864   8.936  18.297   5.850
 6815POPC   GL145865   8.950  18.287   6.150
 6815POPC   GL245866   8.887  18.371   6.150
 6815POPC   C1A45867   8.948  18.267   6.450
 6815POPC   D2A45868   8.925  18.233   6.750
 6815POPC   C3A45869   9.013  18.244   7.050
 6815POPC   C4A45870   9.021  18.242   7.350
 6815POPC   C1B45871   8.846  18.461   6.450
 6815POPC   C2B45872   8.823  18.500   6.750
 6815POPC   C3B45873   8.796  18.493   7.050
 6815POPC   C4B45874   8.879  18.448   7.350
 6816POPC   NC345875  43.871  15.209   5.550
 6816POPC   PO445876  43.850  15.133   5.850
 6816POPC   GL145877  43.853  15.215   6.150
 6816POPC   GL245878  43.988  15.297   6.150
 6816POPC   C1A45879  43.893  15.202   6.450
 6816POPC   D2A45880  43.909  15.144   6.750
 6816POPC   C3A45881  43.884  15.160   7.050
 6816POPC   C4A45882  43.855  15.216   7.350
 6816POPC   C1B45883  44.079  15.310   6.450
 6816POPC   C2B45884  44.080  15.324   6.750
 6816POPC   C3B45885  44.044  15.342   7.050
 6816POPC   C4B45886  44.037  15.383   7.350
 6817POPC   NC345887  18.273  10.563   5.550
 6817POPC   PO445888  18.279  10.536   5.850
 6817POPC   GL145889  18.267  10.488   6.150
 6817POPC   GL245890  18.402  10.453   6.150
 6817POPC   C1A45891  18.316  10.484   6.450
 6817POPC   D2A45892  18.329  10.517   6.750
 6817POPC   C3A45893  18.282  10.522   7.050
 6817POPC   C4A45894  18.279  10.559   7.350
 6817POPC   C1B45895  18.400  10.278   6.450
 6817POPC   C2B45896  18.463  10.374   6.750
 6817POPC   C3B45897  18.407  10.354   7.050
 6817POPC   C4B45898  18.385  10.366   7.350
 6818POPC   NC345899  43.876  15.934   5.550
 6818POPC   PO445900  43.847  15.936   5.850
 6818POPC   GL145901  43.883  15.994   6.150
 6818POPC   GL245902  43.833  16.090   6.150
 6818POPC   C1A45903  43.857  15.981   6.450
 6818POPC   D2A45904  43.917  15.999   6.750
 6818POPC   C3A45905  43.877  15.962   7.050
 6818POPC   C4A45906  43.908  15.999   7.350
 6818POPC   C1B45907  43.737  16.166   6.450
 6818POPC   C2B45908  43.730  16.223   6.750
 6818POPC   C3B45909  43.769  16.213   7.050
 6818POPC   C4B45910  43.795  16.195   7.350
 6819POPC   NC345911   5.058  17.505   5.550
 6819POPC   PO445912   5.091  17.466   5.850
 6819POPC   GL145913   5.127  17.487   6.150
 6819POPC   GL245914   5.094  17.373   6.150
 6819POPC   C1A45915   5.051  17.539   6.450
 6819POPC   D2A45916   5.111  17.519   6.750
 6819POPC   C3A45917   5.127  17.520   7.050
 6819POPC   C4A45918   5.062  17.549   7.350
 6819POPC   C1B45919   5.051  17.277   6.450
 6819POPC   C2B45920   5.087  17.296   6.750
 6819POPC   C3B45921   5.030  17.258   7.050
 6819POPC   C4B45922   5.023  17.255   7.350
 6820POPC   NC345923   3.542   7.446   5.550
 6820POPC   PO445924   3.589   7.390   5.850
 6820POPC   GL145925   3.494   7.449   6.150
 6820POPC   GL245926   3.434   7.387   6.150
 6820POPC   C1A45927   3.550   7.461   6.450
 6820POPC   D2A45928   3.573   7.383   6.750
 6820POPC   C3A45929   3.545   7.402   7.050
 6820POPC   C4A45930   3.504   7.408   7.350
 6820POPC   C1B45931   3.289   7.459   6.450
 6820POPC   C2B45932   3.294   7.460   6.750
 6820POPC   C3B45933   3.313   7.440   7.050
 6820POPC   C4B45934   3.270   7.445   7.350
 6821POPC   NC345935  20.591  28.415   5.550
 6821POPC   PO445936  20.615  28.346   5.850
 6821POPC   GL145937  20.660  28.346   6.150
 6821POPC   GL245938  20.477  28.354   6.150
 6821POPC   C1A45939  20.644  28.396   6.450
 6821POPC   D2A45940  20.654  28.418   6.750
 6821POPC   C3A45941  20.603  28.366   7.050
 6821POPC   C4A45942  20.617  28.352   7.350
 6821POPC   C1B45943  20.359  28.411   6.450
 6821POPC   C2B45944  20.326  28.374   6.750
 6821POPC   C3B45945  20.379  28.338   7.050
 6821POPC   C4B45946  20.373  28.388   7.350
 6822POPC   NC345947   1.232   5.891   5.550
 6822POPC   PO445948   1.242   5.862   5.850
 6822POPC   GL145949   1.241   5.888   6.150
 6822POPC   GL245950   1.310   5.808   6.150
 6822POPC   C1A45951   1.231   5.867   6.450
 6822POPC   D2A45952   1.221   5.872   6.750
 6822POPC   C3A45953   1.236   5.895   7.050
 6822POPC   C4A45954   1.180   5.827   7.350
 6822POPC   C1B45955   1.502   5.794   6.450
 6822POPC   C2B45956   1.427   5.810   6.750
 6822POPC   C3B45957   1.498   5.831   7.050
 6822POPC   C4B45958   1.425   5.837   7.350
 6823POPC   NC345959  12.049  31.439   5.550
 6823POPC   PO445960  12.091  31.476   5.850
 6823POPC   GL145961  12.064  31.461   6.150
 6823POPC   GL245962  11.940  31.579   6.150
 6823POPC   C1A45963  12.106  31.492   6.450
 6823POPC   D2A45964  12.096  31.472   6.750
 6823POPC   C3A45965  12.035  31.426   7.050
 6823POPC   C4A45966  12.036  31.477   7.350
 6823POPC   C1B45967  11.922  31.581   6.450
 6823POPC   C2B45968  11.920  31.622   6.750
 6823POPC   C3B45969  11.907  31.585   7.050
 6823POPC   C4B45970  11.907  31.657   7.350
 6824POPC   NC345971  27.574  43.103   5.550
 6824POPC   PO445972  27.551  43.096   5.850
 6824POPC   GL145973  27.591  43.131   6.150
 6824POPC   GL245974  27.703  43.168   6.150
 6824POPC   C1A45975  27.625  43.159   6.450
 6824POPC   D2A45976  27.570  43.097   6.750
 6824POPC   C3A45977  27.605  43.159   7.050
 6824POPC   C4A45978  27.628  43.144   7.350
 6824POPC   C1B45979  27.731  43.350   6.450
 6824POPC   C2B45980  27.717  43.350   6.750
 6824POPC   C3B45981  27.760  43.273   7.050
 6824POPC   C4B45982  27.741  43.342   7.350
 6825POPC   NC345983  37.641  22.124   5.550
 6825POPC   PO445984  37.713  22.202   5.850
 6825POPC   GL145985  37.660  22.208   6.150
 6825POPC   GL245986  37.593  22.022   6.150
 6825POPC   C1A45987  37.685  22.139   6.450
 6825POPC   D2A45988  37.655  22.206   6.750
 6825POPC   C3A45989  37.663  22.128   7.050
 6825POPC   C4A45990  37.673  22.197   7.350
 6825POPC   C1B45991  37.516  21.963   6.450
 6825POPC   C2B45992  37.534  21.998   6.750
 6825POPC   C3B45993  37.537  21.999   7.050
 6825POPC   C4B45994  37.540  21.970   7.350
 6826POPC   NC345995  23.724  12.877   5.550
 6826POPC   PO445996  23.748  12.803   5.850
 6826POPC   GL145997  23.757  12.873   6.150
 6826POPC   GL245998  23.731  12.934   6.150
 6826POPC   C1A45999  23.737  12.825   6.450
 6826POPC   D2A46000  23.730  12.859   6.750
 6826POPC   C3A46001  23.673  12.835   7.050
 6826POPC   C4A46002  23.737  12.891   7.350
 6826POPC   C1B46003  23.728  13.121   6.450
 6826POPC   C2B46004  23.727  13.062   6.750
 6826POPC   C3B46005  23.670  13.124   7.050
 6826POPC   C4B46006  23.762  13.073   7.350
 6827POPC   NC346007  37.705  41.514   5.550
 6827POPC   PO446008  37.663  41.558   5.850
 6827POPC   GL146009  37.662  41.573   6.150
 6827POPC   GL246010  37.649  41.390   6.150
 6827POPC   C1A46011  37.678  41.570   6.450
 6827POPC   D2A46012  37.718  41.536   6.750
 6827POPC   C3A46013  37.661  41.565   7.050
 6827POPC   C4A46014  37.721  41.576   7.350
 6827POPC   C1B46015  37.675  41.299   6.450
 6827POPC   C2B46016  37.700  41.343   6.750
 6827POPC   C3B46017  37.629  41.310   7.050
 6827POPC   C4B46018  37.648  41.316   7.350
 6828POPC   NC346019  31.441  32.227   5.550
 6828POPC   PO446020  31.467  32.266   5.850
 6828POPC   GL146021  31.509  32.274   6.150
 6828POPC   GL246022  31.345  32.217   6.150
 6828POPC   C1A46023  31.452  32.294   6.450
 6828POPC   D2A46024  31.502  32.285   6.750
 6828POPC   C3A46025  31.447  32.235   7.050
 6828POPC   C4A46026  31.432  32.271   7.350
 6828POPC   C1B46027  31.265  32.119   6.450
 6828POPC   C2B46028  31.234  32.115   6.750
 6828POPC   C3B46029  31.254  32.124   7.050
 6828POPC   C4B46030  31.254  32.176   7.350
 6829POPC   NC346031  37.666  21.396   5.550
 6829POPC   PO446032  37.635  21.390   5.850
 6829POPC   GL146033  37.646  21.378   6.150
 6829POPC   GL246034  37.580  21.316   6.150
 6829POPC   C1A46035  37.631  21.432   6.450
 6829POPC   D2A46036  37.630  21.351   6.750
 6829POPC   C3A46037  37.671  21.433   7.050
 6829POPC   C4A46038  37.635  21.425   7.350
 6829POPC   C1B46039  37.490  21.247   6.450
 6829POPC   C2B46040  37.486  21.216   6.750
 6829POPC   C3B46041  37.535  21.217   7.050
 6829POPC   C4B46042  37.456  21.194   7.350
 6830POPC   NC346043  14.427  18.314   5.550
 6830POPC   PO446044  14.447  18.309   5.850
 6830POPC   GL146045  14.414  18.258   6.150
 6830POPC   GL246046  14.339  18.373   6.150
 6830POPC   C1A46047  14.435  18.326   6.450
 6830POPC   D2A46048  14.436  18.290   6.750
 6830POPC   C3A46049  14.385  18.331   7.050
 6830POPC   C4A46050  14.425  18.270   7.350
 6830POPC   C1B46051  14.357  18.528   6.450
 6830POPC   C2B46052  14.323  18.550   6.750
 6830POPC   C3B46053  14.359  18.502   7.050
 6830POPC   C4B46054  14.408  18.522   7.350
 6831POPC   NC346055   2.754   5.058   5.550
 6831POPC   PO446056   2.770   5.066   5.850
 6831POPC   GL146057   2.749   5.070   6.150
 6831POPC   GL246058   2.643   5.102   6.150
 6831POPC   C1A46059   2.764   5.092   6.450
 6831POPC   D2A46060   2.782   5.079   6.750
 6831POPC   C3A46061   2.761   5.121   7.050
 6831POPC   C4A46062   2.722   5.118   7.350
 6831POPC   C1B46063   2.527   5.072   6.450
 6831POPC   C2B46064   2.557   5.081   6.750
 6831POPC   C3B46065   2.472   5.098   7.050
 6831POPC   C4B46066   2.549   5.152   7.350
 6832POPC   NC346067  44.633  26.779   5.550
 6832POPC   PO446068  44.652  26.835   5.850
 6832POPC   GL146069  44.700  26.796   6.150
 6832POPC   GL246070  44.805  26.782   6.150
 6832POPC   C1A46071  44.641  26.792   6.450
 6832POPC   D2A46072  44.631  26.775   6.750
 6832POPC   C3A46073  44.660  26.860   7.050
 6832POPC   C4A46074  44.620  26.770   7.350
 6832POPC   C1B46075  44.949  26.816   6.450
 6832POPC   C2B46076  44.907  26.732   6.750
 6832POPC   C3B46077  44.892  26.742   7.050
 6832POPC   C4B46078  44.926  26.768   7.350
 6833POPC   NC346079  44.665   3.568   5.550
 6833POPC   PO446080  44.613   3.588   5.850
 6833POPC   GL146081  44.703   3.517   6.150
 6833POPC   GL246082  44.735   3.524   6.150
 6833POPC   C1A46083  44.627   3.570   6.450
 6833POPC   D2A46084  44.670   3.527   6.750
 6833POPC   C3A46085  44.656   3.494   7.050
 6833POPC   C4A46086  44.625   3.514   7.350
 6833POPC   C1B46087  44.849   3.417   6.450
 6833POPC   C2B46088  44.898   3.447   6.750
 6833POPC   C3B46089  44.833   3.405   7.050
 6833POPC   C4B46090  44.930   3.471   7.350
 6834POPC   NC346091  14.386  29.124   5.550
 6834POPC   PO446092  14.381  29.133   5.850
 6834POPC   GL146093  14.435  29.107   6.150
 6834POPC   GL246094  14.540  29.149   6.150
 6834POPC   C1A46095  14.369  29.183   6.450
 6834POPC   D2A46096  14.406  29.144   6.750
 6834POPC   C3A46097  14.362  29.193   7.050
 6834POPC   C4A46098  14.422  29.114   7.350
 6834POPC   C1B46099  14.598  29.181   6.450
 6834POPC   C2B46100  14.661  29.210   6.750
 6834POPC   C3B46101  14.648  29.278   7.050
 6834POPC   C4B46102  14.605  29.238   7.350
 6835POPC   NC346103  34.564  35.339   5.550
 6835POPC   PO446104  34.591  35.348   5.850
 6835POPC   GL146105  34.591  35.378   6.150
 6835POPC   GL246106  34.599  35.193   6.150
 6835POPC   C1A46107  34.604  35.397   6.450
 6835POPC   D2A46108  34.534  35.312   6.750
 6835POPC   C3A46109  34.536  35.349   7.050
 6835POPC   C4A46110  34.597  35.380   7.350
 6835POPC   C1B46111  34.620  35.136   6.450
 6835POPC   C2B46112  34.608  35.104   6.750
 6835POPC   C3B46113  34.603  35.113   7.050
 6835POPC   C4B46114  34.579  35.080   7.350
 6836POPC   NC346115   3.561   4.316   5.550
 6836POPC   PO446116   3.559   4.332   5.850
 6836POPC   GL146117   3.560   4.339   6.150
 6836POPC   GL246118   3.395   4.338   6.150
 6836POPC   C1A46119   3.559   4.313   6.450
 6836POPC   D2A46120   3.527   4.352   6.750
 6836POPC   C3A46121   3.590   4.364   7.050
 6836POPC   C4A46122   3.548   4.354   7.350
 6836POPC   C1B46123   3.352   4.458   6.450
 6836POPC   C2B46124   3.332   4.492   6.750
 6836POPC   C3B46125   3.369   4.459   7.050
 6836POPC   C4B46126   3.336   4.428   7.350
 6837POPC   NC346127  33.033  27.605   5.550
 6837POPC   PO446128  32.986  27.557   5.850
 6837POPC   GL146129  33.004  27.630   6.150
 6837POPC   GL246130  33.131  27.553   6.150
 6837POPC   C1A46131  33.045  27.568   6.450
 6837POPC   D2A46132  32.990  27.572   6.750
 6837POPC   C3A46133  32.975  27.619   7.050
 6837POPC   C4A46134  33.015  27.616   7.350
 6837POPC   C1B46135  33.234  27.508   6.450
 6837POPC   C2B46136  33.265  27.518   6.750
 6837POPC   C3B46137  33.250  27.510   7.050
 6837POPC   C4B46138  33.266  27.503   7.350
 6838POPC   NC346139  12.040  39.238   5.550
 6838POPC   PO446140  12.080  39.228   5.850
 6838POPC   GL146141  12.122  39.240   6.150
 6838POPC   GL246142  12.097  39.400   6.150
 6838POPC   C1A46143  12.051  39.197   6.450
 6838POPC   D2A46144  12.060  39.182   6.750
 6838POPC   C3A46145  12.042  39.273   7.050
 6838POPC   C4A46146  12.102  39.202   7.350
 6838POPC   C1B46147  12.116  39.490   6.450
 6838POPC   C2B46148  12.050  39.480   6.750
 6838POPC   C3B46149  12.103  39.438   7.050
 6838POPC   C4B46150  12.055  39.447   7.350
 6839POPC   NC346151  16.740  29.943   5.550
 6839POPC   PO446152  16.737  29.950   5.850
 6839POPC   GL146153  16.730  29.891   6.150
 6839POPC   GL246154  16.835  30.064   6.150
 6839POPC   C1A46155  16.761  29.950   6.450
 6839POPC   D2A46156  16.757  29.912   6.750
 6839POPC   C3A46157  16.749  29.923   7.050
 6839POPC   C4A46158  16.685  29.947   7.350
 6839POPC   C1B46159  16.874  30.163   6.450
 6839POPC   C2B46160  16.896  30.121   6.750
 6839POPC   C3B46161  16.913  30.086   7.050
 6839POPC   C4B46162  16.917  30.130   7.350
 6840POPC   NC346163  39.959  25.236   5.550
 6840POPC   PO446164  39.979  25.250   5.850
 6840POPC   GL146165  40.000  25.285   6.150
 6840POPC   GL246166  40.033  25.436   6.150
 6840POPC   C1A46167  39.968  25.243   6.450
 6840POPC   D2A46168  40.053  25.273   6.750
 6840POPC   C3A46169  39.979  25.218   7.050
 6840POPC   C4A46170  39.962  25.296   7.350
 6840POPC   C1B46171  39.950  25.480   6.450
 6840POPC   C2B46172  40.037  25.562   6.750
 6840POPC   C3B46173  39.976  25.553   7.050
 6840POPC   C4B46174  40.002  25.482   7.350
 6841POPC   NC346175   5.839  29.169   5.550
 6841POPC   PO446176   5.894  29.125   5.850
 6841POPC   GL146177   5.848  29.132   6.150
 6841POPC   GL246178   5.780  29.060   6.150
 6841POPC   C1A46179   5.846  29.118   6.450
 6841POPC   D2A46180   5.918  29.192   6.750
 6841POPC   C3A46181   5.881  29.173   7.050
 6841POPC   C4A46182   5.830  29.117   7.350
 6841POPC   C1B46183   5.710  28.970   6.450
 6841POPC   C2B46184   5.719  28.982   6.750
 6841POPC   C3B46185   5.662  28.981   7.050
 6841POPC   C4B46186   5.720  29.003   7.350
 6842POPC   NC346187  19.064  36.873   5.550
 6842POPC   PO446188  19.015  36.911   5.850
 6842POPC   GL146189  19.009  36.943   6.150
 6842POPC   GL246190  19.119  36.985   6.150
 6842POPC   C1A46191  19.080  36.895   6.450
 6842POPC   D2A46192  19.059  36.859   6.750
 6842POPC   C3A46193  19.079  36.891   7.050
 6842POPC   C4A46194  19.012  36.924   7.350
 6842POPC   C1B46195  19.154  37.152   6.450
 6842POPC   C2B46196  19.154  37.167   6.750
 6842POPC   C3B46197  19.138  37.176   7.050
 6842POPC   C4B46198  19.090  37.130   7.350
 6843POPC   NC346199  15.218  43.113   5.550
 6843POPC   PO446200  15.199  43.102   5.850
 6843POPC   GL146201  15.138  43.128   6.150
 6843POPC   GL246202  15.230  43.223   6.150
 6843POPC   C1A46203  15.226  43.160   6.450
 6843POPC   D2A46204  15.133  43.117   6.750
 6843POPC   C3A46205  15.183  43.112   7.050
 6843POPC   C4A46206  15.208  43.098   7.350
 6843POPC   C1B46207  15.239  43.326   6.450
 6843POPC   C2B46208  15.220  43.367   6.750
 6843POPC   C3B46209  15.264  43.315   7.050
 6843POPC   C4B46210  15.239  43.312   7.350
 6844POPC   NC346211  40.027  22.117   5.550
 6844POPC   PO446212  39.990  22.154   5.850
 6844POPC   GL146213  39.960  22.176   6.150
 6844POPC   GL246214  39.957  21.995   6.150
 6844POPC   C1A46215  40.031  22.140   6.450
 6844POPC   D2A46216  40.046  22.128   6.750
 6844POPC   C3A46217  39.991  22.164   7.050
 6844POPC   C4A46218  40.013  22.146   7.350
 6844POPC   C1B46219  39.962  21.896   6.450
 6844POPC   C2B46220  40.010  21.941   6.750
 6844POPC   C3B46221  39.972  21.868   7.050
 6844POPC   C4B46222  40.036  21.959   7.350
 6845POPC   NC346223  29.938  31.499   5.550
 6845POPC   PO446224  29.881  31.483   5.850
 6845POPC   GL146225  29.919  31.479   6.150
 6845POPC   GL246226  29.854  31.380   6.150
 6845POPC   C1A46227  29.923  31.423   6.450
 6845POPC   D2A46228  29.946  31.504   6.750
 6845POPC   C3A46229  29.916  31.487   7.050
 6845POPC   C4A46230  29.946  31.436   7.350
 6845POPC   C1B46231  29.813  31.285   6.450
 6845POPC   C2B46232  29.794  31.265   6.750
 6845POPC   C3B46233  29.849  31.236   7.050
 6845POPC   C4B46234  29.859  31.258   7.350
 6846POPC   NC346235  43.856  26.079   5.550
 6846POPC   PO446236  43.875  26.091   5.850
 6846POPC   GL146237  43.852  26.003   6.150
 6846POPC   GL246238  43.849  25.922   6.150
 6846POPC   C1A46239  43.838  26.043   6.450
 6846POPC   D2A46240  43.870  26.073   6.750
 6846POPC   C3A46241  43.877  26.080   7.050
 6846POPC   C4A46242  43.871  25.999   7.350
 6846POPC   C1B46243  43.857  25.754   6.450
 6846POPC   C2B46244  43.855  25.744   6.750
 6846POPC   C3B46245  43.829  25.786   7.050
 6846POPC   C4B46246  43.870  25.806   7.350
 6847POPC   NC346247  17.500  22.178   5.550
 6847POPC   PO446248  17.508  22.131   5.850
 6847POPC   GL146249  17.459  22.177   6.150
 6847POPC   GL246250  17.443  22.318   6.150
 6847POPC   C1A46251  17.514  22.117   6.450
 6847POPC   D2A46252  17.468  22.156   6.750
 6847POPC   C3A46253  17.505  22.120   7.050
 6847POPC   C4A46254  17.516  22.130   7.350
 6847POPC   C1B46255  17.388  22.439   6.450
 6847POPC   C2B46256  17.426  22.403   6.750
 6847POPC   C3B46257  17.385  22.367   7.050
 6847POPC   C4B46258  17.452  22.429   7.350
 6848POPC   NC346259  44.635  25.281   5.550
 6848POPC   PO446260  44.703  25.253   5.850
 6848POPC   GL146261  44.660  25.233   6.150
 6848POPC   GL246262  44.746  25.420   6.150
 6848POPC   C1A46263  44.693  25.299   6.450
 6848POPC   D2A46264  44.618  25.255   6.750
 6848POPC   C3A46265  44.708  25.220   7.050
 6848POPC   C4A46266  44.690  25.235   7.350
 6848POPC   C1B46267  44.726  25.462   6.450
 6848POPC   C2B46268  44.779  25.481   6.750
 6848POPC   C3B46269  44.745  25.463   7.050
 6848POPC   C4B46270  44.763  25.450   7.350
 6849POPC   NC346271  10.517   0.415   5.550
 6849POPC   PO446272  10.476   0.409   5.850
 6849POPC   GL146273  10.482   0.467   6.150
 6849POPC   GL246274  10.605   0.371   6.150
 6849POPC   C1A46275  10.475   0.425   6.450
 6849POPC   D2A46276  10.562   0.472   6.750
 6849POPC   C3A46277  10.548   0.470   7.050
 6849POPC   C4A46278  10.566   0.424   7.350
 6849POPC   C1B46279  10.663   0.165   6.450
 6849POPC   C2B46280  10.648   0.233   6.750
 6849POPC   C3B46281  10.626   0.230   7.050
 6849POPC   C4B46282  10.612   0.208   7.350
 6850POPC   NC346283  43.072   8.990   5.550
 6850POPC   PO446284  43.151   9.015   5.850
 6850POPC   GL146285  43.123   8.931   6.150
 6850POPC   GL246286  43.063   8.807   6.150
 6850POPC   C1A46287  43.093   8.924   6.450
 6850POPC   D2A46288  43.145   8.927   6.750
 6850POPC   C3A46289  43.137   8.951   7.050
 6850POPC   C4A46290  43.083   8.989   7.350
 6850POPC   C1B46291  43.026   8.730   6.450
 6850POPC   C2B46292  43.064   8.741   6.750
 6850POPC   C3B46293  43.013   8.772   7.050
 6850POPC   C4B46294  43.034   8.712   7.350
 6851POPC   NC346295   8.243  33.050   5.550
 6851POPC   PO446296   8.198  33.013   5.850
 6851POPC   GL146297   8.175  32.997   6.150
 6851POPC   GL246298   8.238  32.892   6.150
 6851POPC   C1A46299   8.176  33.011   6.450
 6851POPC   D2A46300   8.151  33.044   6.750
 6851POPC   C3A46301   8.234  33.003   7.050
 6851POPC   C4A46302   8.184  33.026   7.350
 6851POPC   C1B46303   8.216  32.759   6.450
 6851POPC   C2B46304   8.222  32.817   6.750
 6851POPC   C3B46305   8.210  32.808   7.050
 6851POPC   C4B46306   8.263  32.784   7.350
 6852POPC   NC346307  29.905  20.569   5.550
 6852POPC   PO446308  29.942  20.645   5.850
 6852POPC   GL146309  29.902  20.626   6.150
 6852POPC   GL246310  30.041  20.656   6.150
 6852POPC   C1A46311  29.885  20.599   6.450
 6852POPC   D2A46312  29.953  20.658   6.750
 6852POPC   C3A46313  29.945  20.624   7.050
 6852POPC   C4A46314  29.968  20.593   7.350
 6852POPC   C1B46315  30.101  20.812   6.450
 6852POPC   C2B46316  30.121  20.754   6.750
 6852POPC   C3B46317  30.129  20.800   7.050
 6852POPC   C4B46318  30.122  20.812   7.350
 6853POPC   NC346319  35.336   5.134   5.550
 6853POPC   PO446320  35.339   5.094   5.850
 6853POPC   GL146321  35.321   5.090   6.150
 6853POPC   GL246322  35.411   5.139   6.150
 6853POPC   C1A46323  35.350   5.065   6.450
 6853POPC   D2A46324  35.383   5.133   6.750
 6853POPC   C3A46325  35.373   5.113   7.050
 6853POPC   C4A46326  35.395   5.113   7.350
 6853POPC   C1B46327  35.532   5.265   6.450
 6853POPC   C2B46328  35.526   5.236   6.750
 6853POPC   C3B46329  35.601   5.272   7.050
 6853POPC   C4B46330  35.549   5.216   7.350
 6854POPC   NC346331  26.007   5.088   5.550
 6854POPC   PO446332  26.057   5.106   5.850
 6854POPC   GL146333  26.011   5.091   6.150
 6854POPC   GL246334  25.989   4.966   6.150
 6854POPC   C1A46335  26.021   5.055   6.450
 6854POPC   D2A46336  26.070   5.062   6.750
 6854POPC   C3A46337  26.077   5.053   7.050
 6854POPC   C4A46338  26.087   5.135   7.350
 6854POPC   C1B46339  25.903   4.863   6.450
 6854POPC   C2B46340  25.911   4.917   6.750
 6854POPC   C3B46341  25.874   4.909   7.050
 6854POPC   C4B46342  25.846   4.890   7.350
 6855POPC   NC346343  18.291   2.804   5.550
 6855POPC   PO446344  18.294   2.792   5.850
 6855POPC   GL146345  18.283   2.756   6.150
 6855POPC   GL246346  18.186   2.769   6.150
 6855POPC   C1A46347  18.248   2.789   6.450
 6855POPC   D2A46348  18.326   2.793   6.750
 6855POPC   C3A46349  18.256   2.815   7.050
 6855POPC   C4A46350  18.306   2.727   7.350
 6855POPC   C1B46351  18.082   2.730   6.450
 6855POPC   C2B46352  18.050   2.751   6.750
 6855POPC   C3B46353  18.036   2.691   7.050
 6855POPC   C4B46354  18.069   2.685   7.350
 6856POPC   NC346355   2.799  40.012   5.550
 6856POPC   PO446356   2.751  40.038   5.850
 6856POPC   GL146357   2.729  39.970   6.150
 6856POPC   GL246358   2.857  40.075   6.150
 6856POPC   C1A46359   2.739  40.018   6.450
 6856POPC   D2A46360   2.802  40.050   6.750
 6856POPC   C3A46361   2.789  39.993   7.050
 6856POPC   C4A46362   2.730  40.011   7.350
 6856POPC   C1B46363   3.042  40.117   6.450
 6856POPC   C2B46364   3.020  40.095   6.750
 6856POPC   C3B46365   3.040  40.078   7.050
 6856POPC   C4B46366   2.962  40.095   7.350
 6857POPC   NC346367  40.742   8.946   5.550
 6857POPC   PO446368  40.787   8.972   5.850
 6857POPC   GL146369  40.799   8.923   6.150
 6857POPC   GL246370  40.664   8.914   6.150
 6857POPC   C1A46371  40.756   9.015   6.450
 6857POPC   D2A46372  40.796   9.016   6.750
 6857POPC   C3A46373  40.769   8.925   7.050
 6857POPC   C4A46374  40.777   8.941   7.350
 6857POPC   C1B46375  40.603   8.872   6.450
 6857POPC   C2B46376  40.530   8.831   6.750
 6857POPC   C3B46377  40.592   8.877   7.050
 6857POPC   C4B46378  40.623   8.781   7.350
 6858POPC   NC346379  25.283  17.513   5.550
 6858POPC   PO446380  25.261  17.542   5.850
 6858POPC   GL146381  25.254  17.483   6.150
 6858POPC   GL246382  25.181  17.550   6.150
 6858POPC   C1A46383  25.267  17.502   6.450
 6858POPC   D2A46384  25.268  17.483   6.750
 6858POPC   C3A46385  25.222  17.554   7.050
 6858POPC   C4A46386  25.304  17.549   7.350
 6858POPC   C1B46387  25.048  17.593   6.450
 6858POPC   C2B46388  25.082  17.628   6.750
 6858POPC   C3B46389  25.043  17.588   7.050
 6858POPC   C4B46390  25.013  17.584   7.350
 6859POPC   NC346391  16.684  15.997   5.550
 6859POPC   PO446392  16.702  16.004   5.850
 6859POPC   GL146393  16.682  15.998   6.150
 6859POPC   GL246394  16.829  16.046   6.150
 6859POPC   C1A46395  16.707  15.946   6.450
 6859POPC   D2A46396  16.760  15.993   6.750
 6859POPC   C3A46397  16.737  15.971   7.050
 6859POPC   C4A46398  16.762  15.917   7.350
 6859POPC   C1B46399  16.976  16.158   6.450
 6859POPC   C2B46400  16.924  16.083   6.750
 6859POPC   C3B46401  16.927  16.119   7.050
 6859POPC   C4B46402  16.933  16.125   7.350
 6860POPC   NC346403   4.270   8.930   5.550
 6860POPC   PO446404   4.288   8.939   5.850
 6860POPC   GL146405   4.324   8.957   6.150
 6860POPC   GL246406   4.297   9.067   6.150
 6860POPC   C1A46407   4.346   8.974   6.450
 6860POPC   D2A46408   4.327   8.964   6.750
 6860POPC   C3A46409   4.357   8.948   7.050
 6860POPC   C4A46410   4.358   8.981   7.350
 6860POPC   C1B46411   4.189   9.225   6.450
 6860POPC   C2B46412   4.176   9.172   6.750
 6860POPC   C3B46413   4.239   9.154   7.050
 6860POPC   C4B46414   4.183   9.213   7.350
 6861POPC   NC346415  41.539   1.951   5.550
 6861POPC   PO446416  41.597   1.997   5.850
 6861POPC   GL146417  41.559   2.012   6.150
 6861POPC   GL246418  41.445   2.062   6.150
 6861POPC   C1A46419  41.517   1.983   6.450
 6861POPC   D2A46420  41.602   2.005   6.750
 6861POPC   C3A46421  41.586   1.952   7.050
 6861POPC   C4A46422  41.566   2.032   7.350
 6861POPC   C1B46423  41.394   2.124   6.450
 6861POPC   C2B46424  41.360   2.126   6.750
 6861POPC   C3B46425  41.399   2.146   7.050
 6861POPC   C4B46426  41.347   2.159   7.350
 6862POPC   NC346427  28.321  13.623   5.550
 6862POPC   PO446428  28.388  13.647   5.850
 6862POPC   GL146429  28.386  13.602   6.150
 6862POPC   GL246430  28.299  13.686   6.150
 6862POPC   C1A46431  28.357  13.676   6.450
 6862POPC   D2A46432  28.357  13.659   6.750
 6862POPC   C3A46433  28.366  13.599   7.050
 6862POPC   C4A46434  28.401  13.651   7.350
 6862POPC   C1B46435  28.176  13.738   6.450
 6862POPC   C2B46436  28.163  13.753   6.750
 6862POPC   C3B46437  28.138  13.775   7.050
 6862POPC   C4B46438  28.154  13.828   7.350
 6863POPC   NC346439  40.012  34.589   5.550
 6863POPC   PO446440  40.038  34.543   5.850
 6863POPC   GL146441  39.991  34.559   6.150
 6863POPC   GL246442  39.938  34.724   6.150
 6863POPC   C1A46443  39.963  34.624   6.450
 6863POPC   D2A46444  40.052  34.592   6.750
 6863POPC   C3A46445  40.015  34.611   7.050
 6863POPC   C4A46446  40.049  34.569   7.350
 6863POPC   C1B46447  39.865  34.768   6.450
 6863POPC   C2B46448  39.859  34.750   6.750
 6863POPC   C3B46449  39.882  34.767   7.050
 6863POPC   C4B46450  39.910  34.747   7.350
 6864POPC   NC346451   0.473  40.766   5.550
 6864POPC   PO446452   0.451  40.784   5.850
 6864POPC   GL146453   0.487  40.831   6.150
 6864POPC   GL246454   0.508  40.618   6.150
 6864POPC   C1A46455   0.394  40.754   6.450
 6864POPC   D2A46456   0.421  40.786   6.750
 6864POPC   C3A46457   0.451  40.760   7.050
 6864POPC   C4A46458   0.433  40.757   7.350
 6864POPC   C1B46459   0.492  40.511   6.450
 6864POPC   C2B46460   0.500  40.581   6.750
 6864POPC   C3B46461   0.437  40.560   7.050
 6864POPC   C4B46462   0.509  40.517   7.350
 6865POPC   NC346463  43.065  30.682   5.550
 6865POPC   PO446464  43.082  30.720   5.850
 6865POPC   GL146465  43.093  30.707   6.150
 6865POPC   GL246466  43.197  30.614   6.150
 6865POPC   C1A46467  43.068  30.700   6.450
 6865POPC   D2A46468  43.115  30.683   6.750
 6865POPC   C3A46469  43.101  30.683   7.050
 6865POPC   C4A46470  43.155  30.690   7.350
 6865POPC   C1B46471  43.372  30.548   6.450
 6865POPC   C2B46472  43.285  30.564   6.750
 6865POPC   C3B46473  43.301  30.538   7.050
 6865POPC   C4B46474  43.296  30.535   7.350
 6866POPC   NC346475  33.828  13.635   5.550
 6866POPC   PO446476  33.814  13.667   5.850
 6866POPC   GL146477  33.785  13.619   6.150
 6866POPC   GL246478  33.733  13.730   6.150
 6866POPC   C1A46479  33.775  13.625   6.450
 6866POPC   D2A46480  33.795  13.605   6.750
 6866POPC   C3A46481  33.773  13.584   7.050
 6866POPC   C4A46482  33.788  13.608   7.350
 6866POPC   C1B46483  33.648  13.853   6.450
 6866POPC   C2B46484  33.585  13.811   6.750
 6866POPC   C3B46485  33.622  13.852   7.050
 6866POPC   C4B46486  33.612  13.764   7.350
 6867POPC   NC346487  24.526  43.855   5.550
 6867POPC   PO446488  24.455  43.872   5.850
 6867POPC   GL146489  24.529  43.853   6.150
 6867POPC   GL246490  24.426  43.791   6.150
 6867POPC   C1A46491  24.508  43.895   6.450
 6867POPC   D2A46492  24.476  43.896   6.750
 6867POPC   C3A46493  24.458  43.839   7.050
 6867POPC   C4A46494  24.444  43.918   7.350
 6867POPC   C1B46495  24.356  43.711   6.450
 6867POPC   C2B46496  24.368  43.639   6.750
 6867POPC   C3B46497  24.328  43.683   7.050
 6867POPC   C4B46498  24.331  43.721   7.350
 6868POPC   NC346499   3.528  19.878   5.550
 6868POPC   PO446500   3.519  19.788   5.850
 6868POPC   GL146501   3.543  19.802   6.150
 6868POPC   GL246502   3.649  19.748   6.150
 6868POPC   C1A46503   3.562  19.792   6.450
 6868POPC   D2A46504   3.557  19.850   6.750
 6868POPC   C3A46505   3.571  19.858   7.050
 6868POPC   C4A46506   3.506  19.797   7.350
 6868POPC   C1B46507   3.750  19.767   6.450
 6868POPC   C2B46508   3.751  19.726   6.750
 6868POPC   C3B46509   3.715  19.700   7.050
 6868POPC   C4B46510   3.790  19.754   7.350
 6869POPC   NC346511  33.759   6.662   5.550
 6869POPC   PO446512  33.797   6.679   5.850
 6869POPC   GL146513  33.782   6.655   6.150
 6869POPC   GL246514  33.965   6.647   6.150
 6869POPC   C1A46515  33.762   6.662   6.450
 6869POPC   D2A46516  33.808   6.684   6.750
 6869POPC   C3A46517  33.771   6.661   7.050
 6869POPC   C4A46518  33.761   6.689   7.350
 6869POPC   C1B46519  34.017   6.747   6.450
 6869POPC   C2B46520  33.989   6.734   6.750
 6869POPC   C3B46521  34.009   6.714   7.050
 6869POPC   C4B46522  34.059   6.741   7.350
 6870POPC   NC346523  43.861  37.632   5.550
 6870POPC   PO446524  43.841  37.705   5.850
 6870POPC   GL146525  43.917  37.643   6.150
 6870POPC   GL246526  43.766  37.734   6.150
 6870POPC   C1A46527  43.893  37.631   6.450
 6870POPC   D2A46528  43.925  37.633   6.750
 6870POPC   C3A46529  43.873  37.688   7.050
 6870POPC   C4A46530  43.927  37.705   7.350
 6870POPC   C1B46531  43.659  37.811   6.450
 6870POPC   C2B46532  43.714  37.880   6.750
 6870POPC   C3B46533  43.719  37.809   7.050
 6870POPC   C4B46534  43.704  37.794   7.350
 6871POPC   NC346535  43.867  16.777   5.550
 6871POPC   PO446536  43.854  16.754   5.850
 6871POPC   GL146537  43.928  16.707   6.150
 6871POPC   GL246538  43.891  16.605   6.150
 6871POPC   C1A46539  43.839  16.736   6.450
 6871POPC   D2A46540  43.878  16.716   6.750
 6871POPC   C3A46541  43.895  16.690   7.050
 6871POPC   C4A46542  43.874  16.695   7.350
 6871POPC   C1B46543  43.908  16.447   6.450
 6871POPC   C2B46544  43.930  16.440   6.750
 6871POPC   C3B46545  43.868  16.477   7.050
 6871POPC   C4B46546  43.881  16.438   7.350
 6872POPC   NC346547  15.145   3.537   5.550
 6872POPC   PO446548  15.182   3.544   5.850
 6872POPC   GL146549  15.180   3.527   6.150
 6872POPC   GL246550  15.071   3.525   6.150
 6872POPC   C1A46551  15.227   3.504   6.450
 6872POPC   D2A46552  15.131   3.582   6.750
 6872POPC   C3A46553  15.203   3.585   7.050
 6872POPC   C4A46554  15.222   3.540   7.350
 6872POPC   C1B46555  14.902   3.567   6.450
 6872POPC   C2B46556  14.899   3.570   6.750
 6872POPC   C3B46557  14.890   3.548   7.050
 6872POPC   C4B46558  14.965   3.538   7.350
 6873POPC   NC346559  32.287  14.360   5.550
 6873POPC   PO446560  32.238  14.394   5.850
 6873POPC   GL146561  32.260  14.432   6.150
 6873POPC   GL246562  32.079  14.411   6.150
 6873POPC   C1A46563  32.277  14.394   6.450
 6873POPC   D2A46564  32.221  14.393   6.750
 6873POPC   C3A46565  32.285  14.431   7.050
 6873POPC   C4A46566  32.252  14.357   7.350
 6873POPC   C1B46567  32.000  14.500   6.450
 6873POPC   C2B46568  32.036  14.419   6.750
 6873POPC   C3B46569  32.018  14.475   7.050
 6873POPC   C4B46570  31.955  14.471   7.350
 6874POPC   NC346571  30.709   3.579   5.550
 6874POPC   PO446572  30.672   3.500   5.850
 6874POPC   GL146573  30.682   3.500   6.150
 6874POPC   GL246574  30.772   3.401   6.150
 6874POPC   C1A46575  30.690   3.530   6.450
 6874POPC   D2A46576  30.723   3.553   6.750
 6874POPC   C3A46577  30.732   3.530   7.050
 6874POPC   C4A46578  30.672   3.511   7.350
 6874POPC   C1B46579  30.759   3.307   6.450
 6874POPC   C2B46580  30.724   3.294   6.750
 6874POPC   C3B46581  30.730   3.328   7.050
 6874POPC   C4B46582  30.760   3.317   7.350
 6875POPC   NC346583  41.517  17.498   5.550
 6875POPC   PO446584  41.577  17.489   5.850
 6875POPC   GL146585  41.558  17.465   6.150
 6875POPC   GL246586  41.599  17.636   6.150
 6875POPC   C1A46587  41.583  17.536   6.450
 6875POPC   D2A46588  41.520  17.461   6.750
 6875POPC   C3A46589  41.599  17.517   7.050
 6875POPC   C4A46590  41.535  17.469   7.350
 6875POPC   C1B46591  41.536  17.762   6.450
 6875POPC   C2B46592  41.506  17.744   6.750
 6875POPC   C3B46593  41.537  17.800   7.050
 6875POPC   C4B46594  41.515  17.791   7.350
 6876POPC   NC346595  38.411  36.128   5.550
 6876POPC   PO446596  38.431  36.090   5.850
 6876POPC   GL146597  38.486  36.147   6.150
 6876POPC   GL246598  38.384  36.123   6.150
 6876POPC   C1A46599  38.415  36.139   6.450
 6876POPC   D2A46600  38.449  36.119   6.750
 6876POPC   C3A46601  38.505  36.095   7.050
 6876POPC   C4A46602  38.475  36.127   7.350
 6876POPC   C1B46603  38.196  36.005   6.450
 6876POPC   C2B46604  38.181  35.998   6.750
 6876POPC   C3B46605  38.181  36.032   7.050
 6876POPC   C4B46606  38.220  35.979   7.350
 6877POPC   NC346607  18.277  21.388   5.550
 6877POPC   PO446608  18.253  21.358   5.850
 6877POPC   GL146609  18.292  21.341   6.150
 6877POPC   GL246610  18.226  21.250   6.150
 6877POPC   C1A46611  18.327  21.403   6.450
 6877POPC   D2A46612  18.280  21.406   6.750
 6877POPC   C3A46613  18.314  21.419   7.050
 6877POPC   C4A46614  18.322  21.378   7.350
 6877POPC   C1B46615  18.150  21.200   6.450
 6877POPC   C2B46616  18.132  21.183   6.750
 6877POPC   C3B46617  18.178  21.211   7.050
 6877POPC   C4B46618  18.199  21.135   7.350
 6878POPC   NC346619  36.161  12.079   5.550
 6878POPC   PO446620  36.116  12.077   5.850
 6878POPC   GL146621  36.133  12.050   6.150
 6878POPC   GL246622  36.042  12.051   6.150
 6878POPC   C1A46623  36.157  12.034   6.450
 6878POPC   D2A46624  36.173  12.047   6.750
 6878POPC   C3A46625  36.119  12.031   7.050
 6878POPC   C4A46626  36.112  12.028   7.350
 6878POPC   C1B46627  35.937  12.027   6.450
 6878POPC   C2B46628  35.867  11.968   6.750
 6878POPC   C3B46629  35.925  11.986   7.050
 6878POPC   C4B46630  35.851  12.021   7.350
 6879POPC   NC346631   8.162  21.431   5.550
 6879POPC   PO446632   8.189  21.374   5.850
 6879POPC   GL146633   8.227  21.408   6.150
 6879POPC   GL246634   8.128  21.519   6.150
 6879POPC   C1A46635   8.202  21.426   6.450
 6879POPC   D2A46636   8.168  21.349   6.750
 6879POPC   C3A46637   8.189  21.426   7.050
 6879POPC   C4A46638   8.225  21.433   7.350
 6879POPC   C1B46639   8.132  21.618   6.450
 6879POPC   C2B46640   8.127  21.591   6.750
 6879POPC   C3B46641   8.052  21.609   7.050
 6879POPC   C4B46642   8.097  21.651   7.350
 6880POPC   NC346643  35.343   7.387   5.550
 6880POPC   PO446644  35.315   7.381   5.850
 6880POPC   GL146645  35.355   7.374   6.150
 6880POPC   GL246646  35.386   7.537   6.150
 6880POPC   C1A46647  35.395   7.464   6.450
 6880POPC   D2A46648  35.363   7.432   6.750
 6880POPC   C3A46649  35.321   7.415   7.050
 6880POPC   C4A46650  35.385   7.403   7.350
 6880POPC   C1B46651  35.405   7.687   6.450
 6880POPC   C2B46652  35.404   7.645   6.750
 6880POPC   C3B46653  35.486   7.632   7.050
 6880POPC   C4B46654  35.477   7.625   7.350
 6881POPC   NC346655  12.080  43.113   5.550
 6881POPC   PO446656  12.105  43.137   5.850
 6881POPC   GL146657  12.074  43.127   6.150
 6881POPC   GL246658  12.171  43.101   6.150
 6881POPC   C1A46659  12.069  43.096   6.450
 6881POPC   D2A46660  12.063  43.066   6.750
 6881POPC   C3A46661  12.074  43.140   7.050
 6881POPC   C4A46662  12.047  43.114   7.350
 6881POPC   C1B46663  12.292  43.069   6.450
 6881POPC   C2B46664  12.301  43.073   6.750
 6881POPC   C3B46665  12.288  43.066   7.050
 6881POPC   C4B46666  12.293  43.115   7.350
 6882POPC   NC346667  27.578  33.850   5.550
 6882POPC   PO446668  27.555  33.754   5.850
 6882POPC   GL146669  27.553  33.842   6.150
 6882POPC   GL246670  27.691  33.705   6.150
 6882POPC   C1A46671  27.553  33.817   6.450
 6882POPC   D2A46672  27.569  33.847   6.750
 6882POPC   C3A46673  27.615  33.773   7.050
 6882POPC   C4A46674  27.554  33.773   7.350
 6882POPC   C1B46675  27.653  33.572   6.450
 6882POPC   C2B46676  27.652  33.588   6.750
 6882POPC   C3B46677  27.684  33.558   7.050
 6882POPC   C4B46678  27.653  33.554   7.350
 6883POPC   NC346679   3.562  12.850   5.550
 6883POPC   PO446680   3.551  12.821   5.850
 6883POPC   GL146681   3.560  12.889   6.150
 6883POPC   GL246682   3.461  12.874   6.150
 6883POPC   C1A46683   3.552  12.895   6.450
 6883POPC   D2A46684   3.548  12.850   6.750
 6883POPC   C3A46685   3.539  12.841   7.050
 6883POPC   C4A46686   3.502  12.839   7.350
 6883POPC   C1B46687   3.255  12.975   6.450
 6883POPC   C2B46688   3.315  12.918   6.750
 6883POPC   C3B46689   3.264  12.976   7.050
 6883POPC   C4B46690   3.274  12.965   7.350
 6884POPC   NC346691   2.731   6.677   5.550
 6884POPC   PO446692   2.791   6.617   5.850
 6884POPC   GL146693   2.776   6.607   6.150
 6884POPC   GL246694   2.657   6.768   6.150
 6884POPC   C1A46695   2.744   6.662   6.450
 6884POPC   D2A46696   2.753   6.657   6.750
 6884POPC   C3A46697   2.716   6.685   7.050
 6884POPC   C4A46698   2.742   6.685   7.350
 6884POPC   C1B46699   2.579   6.797   6.450
 6884POPC   C2B46700   2.558   6.835   6.750
 6884POPC   C3B46701   2.547   6.807   7.050
 6884POPC   C4B46702   2.528   6.790   7.350
 6885POPC   NC346703  22.969  33.823   5.550
 6885POPC   PO446704  22.965  33.808   5.850
 6885POPC   GL146705  22.954  33.814   6.150
 6885POPC   GL246706  22.981  33.884   6.150
 6885POPC   C1A46707  22.972  33.807   6.450
 6885POPC   D2A46708  22.897  33.805   6.750
 6885POPC   C3A46709  22.961  33.783   7.050
 6885POPC   C4A46710  22.928  33.760   7.350
 6885POPC   C1B46711  22.994  34.027   6.450
 6885POPC   C2B46712  23.064  34.082   6.750
 6885POPC   C3B46713  23.018  34.035   7.050
 6885POPC   C4B46714  23.045  34.081   7.350
 6886POPC   NC346715  13.610  11.294   5.550
 6886POPC   PO446716  13.602  11.263   5.850
 6886POPC   GL146717  13.632  11.290   6.150
 6886POPC   GL246718  13.684  11.190   6.150
 6886POPC   C1A46719  13.630  11.347   6.450
 6886POPC   D2A46720  13.619  11.338   6.750
 6886POPC   C3A46721  13.619  11.274   7.050
 6886POPC   C4A46722  13.630  11.308   7.350
 6886POPC   C1B46723  13.763  11.114   6.450
 6886POPC   C2B46724  13.725  11.098   6.750
 6886POPC   C3B46725  13.737  11.125   7.050
 6886POPC   C4B46726  13.732  11.115   7.350
 6887POPC   NC346727   1.239   6.645   5.550
 6887POPC   PO446728   1.236   6.640   5.850
 6887POPC   GL146729   1.210   6.655   6.150
 6887POPC   GL246730   1.285   6.512   6.150
 6887POPC   C1A46731   1.179   6.639   6.450
 6887POPC   D2A46732   1.199   6.649   6.750
 6887POPC   C3A46733   1.254   6.685   7.050
 6887POPC   C4A46734   1.247   6.608   7.350
 6887POPC   C1B46735   1.418   6.442   6.450
 6887POPC   C2B46736   1.413   6.487   6.750
 6887POPC   C3B46737   1.354   6.441   7.050
 6887POPC   C4B46738   1.411   6.450   7.350
 6888POPC   NC346739  39.993  39.241   5.550
 6888POPC   PO446740  39.966  39.262   5.850
 6888POPC   GL146741  40.030  39.231   6.150
 6888POPC   GL246742  39.893  39.302   6.150
 6888POPC   C1A46743  40.000  39.224   6.450
 6888POPC   D2A46744  40.053  39.253   6.750
 6888POPC   C3A46745  39.969  39.213   7.050
 6888POPC   C4A46746  40.056  39.256   7.350
 6888POPC   C1B46747  39.746  39.358   6.450
 6888POPC   C2B46748  39.764  39.311   6.750
 6888POPC   C3B46749  39.735  39.301   7.050
 6888POPC   C4B46750  39.735  39.312   7.350
 6889POPC   NC346751  29.123  24.480   5.550
 6889POPC   PO446752  29.150  24.516   5.850
 6889POPC   GL146753  29.191  24.533   6.150
 6889POPC   GL246754  29.302  24.517   6.150
 6889POPC   C1A46755  29.119  24.462   6.450
 6889POPC   D2A46756  29.171  24.477   6.750
 6889POPC   C3A46757  29.168  24.538   7.050
 6889POPC   C4A46758  29.192  24.495   7.350
 6889POPC   C1B46759  29.437  24.503   6.450
 6889POPC   C2B46760  29.361  24.500   6.750
 6889POPC   C3B46761  29.399  24.529   7.050
 6889POPC   C4B46762  29.376  24.487   7.350
 6890POPC   NC346763  43.914  30.658   5.550
 6890POPC   PO446764  43.864  30.719   5.850
 6890POPC   GL146765  43.839  30.744   6.150
 6890POPC   GL246766  44.023  30.745   6.150
 6890POPC   C1A46767  43.853  30.691   6.450
 6890POPC   D2A46768  43.930  30.691   6.750
 6890POPC   C3A46769  43.852  30.702   7.050
 6890POPC   C4A46770  43.912  30.678   7.350
 6890POPC   C1B46771  44.120  30.810   6.450
 6890POPC   C2B46772  44.072  30.802   6.750
 6890POPC   C3B46773  44.079  30.754   7.050
 6890POPC   C4B46774  44.152  30.764   7.350
 6891POPC   NC346775  31.508  28.380   5.550
 6891POPC   PO446776  31.457  28.407   5.850
 6891POPC   GL146777  31.484  28.397   6.150
 6891POPC   GL246778  31.582  28.424   6.150
 6891POPC   C1A46779  31.448  28.377   6.450
 6891POPC   D2A46780  31.522  28.324   6.750
 6891POPC   C3A46781  31.480  28.343   7.050
 6891POPC   C4A46782  31.426  28.336   7.350
 6891POPC   C1B46783  31.693  28.416   6.450
 6891POPC   C2B46784  31.692  28.486   6.750
 6891POPC   C3B46785  31.725  28.430   7.050
 6891POPC   C4B46786  31.734  28.449   7.350
 6892POPC   NC346787  34.556   5.135   5.550
 6892POPC   PO446788  34.607   5.140   5.850
 6892POPC   GL146789  34.536   5.121   6.150
 6892POPC   GL246790  34.657   5.028   6.150
 6892POPC   C1A46791  34.582   5.129   6.450
 6892POPC   D2A46792  34.581   5.138   6.750
 6892POPC   C3A46793  34.526   5.063   7.050
 6892POPC   C4A46794  34.585   5.061   7.350
 6892POPC   C1B46795  34.828   5.058   6.450
 6892POPC   C2B46796  34.782   5.092   6.750
 6892POPC   C3B46797  34.812   5.055   7.050
 6892POPC   C4B46798  34.811   5.023   7.350
 6893POPC   NC346799   4.348  15.216   5.550
 6893POPC   PO446800   4.346  15.222   5.850
 6893POPC   GL146801   4.328  15.157   6.150
 6893POPC   GL246802   4.469  15.121   6.150
 6893POPC   C1A46803   4.285  15.224   6.450
 6893POPC   D2A46804   4.364  15.179   6.750
 6893POPC   C3A46805   4.334  15.199   7.050
 6893POPC   C4A46806   4.338  15.218   7.350
 6893POPC   C1B46807   4.536  15.154   6.450
 6893POPC   C2B46808   4.573  15.089   6.750
 6893POPC   C3B46809   4.561  15.108   7.050
 6893POPC   C4B46810   4.574  15.086   7.350
 6894POPC   NC346811  19.027  41.514   5.550
 6894POPC   PO446812  19.069  41.607   5.850
 6894POPC   GL146813  19.040  41.565   6.150
 6894POPC   GL246814  18.983  41.701   6.150
 6894POPC   C1A46815  19.067  41.566   6.450
 6894POPC   D2A46816  19.092  41.523   6.750
 6894POPC   C3A46817  19.101  41.559   7.050
 6894POPC   C4A46818  19.066  41.597   7.350
 6894POPC   C1B46819  18.966  41.756   6.450
 6894POPC   C2B46820  18.958  41.778   6.750
 6894POPC   C3B46821  18.928  41.803   7.050
 6894POPC   C4B46822  18.910  41.774   7.350
 6895POPC   NC346823  28.414  37.700   5.550
 6895POPC   PO446824  28.398  37.701   5.850
 6895POPC   GL146825  28.393  37.651   6.150
 6895POPC   GL246826  28.446  37.600   6.150
 6895POPC   C1A46827  28.418  37.642   6.450
 6895POPC   D2A46828  28.321  37.647   6.750
 6895POPC   C3A46829  28.400  37.721   7.050
 6895POPC   C4A46830  28.370  37.633   7.350
 6895POPC   C1B46831  28.435  37.477   6.450
 6895POPC   C2B46832  28.460  37.424   6.750
 6895POPC   C3B46833  28.482  37.399   7.050
 6895POPC   C4B46834  28.441  37.456   7.350
 6896POPC   NC346835  15.171  19.063   5.550
 6896POPC   PO446836  15.132  19.057   5.850
 6896POPC   GL146837  15.150  19.095   6.150
 6896POPC   GL246838  15.257  19.169   6.150
 6896POPC   C1A46839  15.219  19.036   6.450
 6896POPC   D2A46840  15.170  19.106   6.750
 6896POPC   C3A46841  15.147  19.010   7.050
 6896POPC   C4A46842  15.183  19.025   7.350
 6896POPC   C1B46843  15.291  19.349   6.450
 6896POPC   C2B46844  15.267  19.328   6.750
 6896POPC   C3B46845  15.275  19.260   7.050
 6896POPC   C4B46846  15.234  19.276   7.350
 6897POPC   NC346847   8.184   8.188   5.550
 6897POPC   PO446848   8.216   8.162   5.850
 6897POPC   GL146849   8.167   8.150   6.150
 6897POPC   GL246850   8.241   8.062   6.150
 6897POPC   C1A46851   8.152   8.153   6.450
 6897POPC   D2A46852   8.237   8.231   6.750
 6897POPC   C3A46853   8.215   8.161   7.050
 6897POPC   C4A46854   8.188   8.229   7.350
 6897POPC   C1B46855   8.291   7.990   6.450
 6897POPC   C2B46856   8.303   7.987   6.750
 6897POPC   C3B46857   8.319   7.934   7.050
 6897POPC   C4B46858   8.275   7.981   7.350
 6898POPC   NC346859  20.560  22.931   5.550
 6898POPC   PO446860  20.657  22.924   5.850
 6898POPC   GL146861  20.587  22.908   6.150
 6898POPC   GL246862  20.490  22.883   6.150
 6898POPC   C1A46863  20.608  22.982   6.450
 6898POPC   D2A46864  20.594  22.981   6.750
 6898POPC   C3A46865  20.625  22.957   7.050
 6898POPC   C4A46866  20.564  22.947   7.350
 6898POPC   C1B46867  20.356  22.836   6.450
 6898POPC   C2B46868  20.391  22.858   6.750
 6898POPC   C3B46869  20.339  22.918   7.050
 6898POPC   C4B46870  20.344  22.892   7.350
 6899POPC   NC346871   2.738  23.756   5.550
 6899POPC   PO446872   2.737  23.734   5.850
 6899POPC   GL146873   2.784  23.759   6.150
 6899POPC   GL246874   2.631  23.714   6.150
 6899POPC   C1A46875   2.728  23.750   6.450
 6899POPC   D2A46876   2.807  23.689   6.750
 6899POPC   C3A46877   2.722  23.747   7.050
 6899POPC   C4A46878   2.815  23.745   7.350
 6899POPC   C1B46879   2.536  23.733   6.450
 6899POPC   C2B46880   2.554  23.723   6.750
 6899POPC   C3B46881   2.474  23.699   7.050
 6899POPC   C4B46882   2.480  23.741   7.350
 6900POPC   NC346883  12.116  36.920   5.550
 6900POPC   PO446884  12.079  36.899   5.850
 6900POPC   GL146885  12.074  36.871   6.150
 6900POPC   GL246886  12.187  36.911   6.150
 6900POPC   C1A46887  12.028  36.885   6.450
 6900POPC   D2A46888  12.124  36.887   6.750
 6900POPC   C3A46889  12.035  36.951   7.050
 6900POPC   C4A46890  12.082  36.889   7.350
 6900POPC   C1B46891  12.359  36.930   6.450
 6900POPC   C2B46892  12.364  36.868   6.750
 6900POPC   C3B46893  12.283  36.896   7.050
 6900POPC   C4B46894  12.356  36.945   7.350
 6901POPC   NC346895  29.970  26.089   5.550
 6901POPC   PO446896  29.875  26.068   5.850
 6901POPC   GL146897  29.883  26.034   6.150
 6901POPC   GL246898  30.046  26.051   6.150
 6901POPC   C1A46899  29.878  26.059   6.450
 6901POPC   D2A46900  29.928  26.027   6.750
 6901POPC   C3A46901  29.901  26.054   7.050
 6901POPC   C4A46902  29.884  25.998   7.350
 6901POPC   C1B46903  30.128  26.119   6.450
 6901POPC   C2B46904  30.213  26.105   6.750
 6901POPC   C3B46905  30.182  26.093   7.050
 6901POPC   C4B46906  30.164  26.065   7.350
 6902POPC   NC346907   5.859  36.948   5.550
 6902POPC   PO446908   5.897  36.892   5.850
 6902POPC   GL146909   5.914  36.908   6.150
 6902POPC   GL246910   6.025  36.898   6.150
 6902POPC   C1A46911   5.873  36.866   6.450
 6902POPC   D2A46912   5.827  36.885   6.750
 6902POPC   C3A46913   5.844  36.914   7.050
 6902POPC   C4A46914   5.859  36.914   7.350
 6902POPC   C1B46915   6.128  37.021   6.450
 6902POPC   C2B46916   6.121  37.003   6.750
 6902POPC   C3B46917   6.101  36.957   7.050
 6902POPC   C4B46918   6.124  36.960   7.350
 6903POPC   NC346919  32.257   5.827   5.550
 6903POPC   PO446920  32.295   5.849   5.850
 6903POPC   GL146921  32.255   5.906   6.150
 6903POPC   GL246922  32.186   5.778   6.150
 6903POPC   C1A46923  32.282   5.862   6.450
 6903POPC   D2A46924  32.288   5.839   6.750
 6903POPC   C3A46925  32.289   5.836   7.050
 6903POPC   C4A46926  32.287   5.902   7.350
 6903POPC   C1B46927  32.076   5.723   6.450
 6903POPC   C2B46928  32.107   5.731   6.750
 6903POPC   C3B46929  32.112   5.728   7.050
 6903POPC   C4B46930  32.078   5.660   7.350
 6904POPC   NC346931  37.633  23.731   5.550
 6904POPC   PO446932  37.670  23.713   5.850
 6904POPC   GL146933  37.696  23.692   6.150
 6904POPC   GL246934  37.783  23.625   6.150
 6904POPC   C1A46935  37.710  23.714   6.450
 6904POPC   D2A46936  37.723  23.672   6.750
 6904POPC   C3A46937  37.682  23.718   7.050
 6904POPC   C4A46938  37.691  23.675   7.350
 6904POPC   C1B46939  37.899  23.550   6.450
 6904POPC   C2B46940  37.896  23.591   6.750
 6904POPC   C3B46941  37.938  23.550   7.050
 6904POPC   C4B46942  37.867  23.572   7.350
 6905POPC   NC346943  22.201  23.703   5.550
 6905POPC   PO446944  22.175  23.714   5.850
 6905POPC   GL146945  22.146  23.732   6.150
 6905POPC   GL246946  22.249  23.806   6.150
 6905POPC   C1A46947  22.201  23.753   6.450
 6905POPC   D2A46948  22.169  23.682   6.750
 6905POPC   C3A46949  22.197  23.716   7.050
 6905POPC   C4A46950  22.170  23.717   7.350
 6905POPC   C1B46951  22.348  23.926   6.450
 6905POPC   C2B46952  22.332  23.863   6.750
 6905POPC   C3B46953  22.278  23.880   7.050
 6905POPC   C4B46954  22.338  23.931   7.350
 6906POPC   NC346955  36.168  36.122   5.550
 6906POPC   PO446956  36.121  36.135   5.850
 6906POPC   GL146957  36.104  36.078   6.150
 6906POPC   GL246958  36.188  36.225   6.150
 6906POPC   C1A46959  36.122  36.142   6.450
 6906POPC   D2A46960  36.137  36.127   6.750
 6906POPC   C3A46961  36.090  36.171   7.050
 6906POPC   C4A46962  36.139  36.139   7.350
 6906POPC   C1B46963  36.228  36.385   6.450
 6906POPC   C2B46964  36.188  36.327   6.750
 6906POPC   C3B46965  36.197  36.330   7.050
 6906POPC   C4B46966  36.152  36.381   7.350
 6907POPC   NC346967  19.814   3.532   5.550
 6907POPC   PO446968  19.863   3.570   5.850
 6907POPC   GL146969  19.815   3.535   6.150
 6907POPC   GL246970  19.869   3.680   6.150
 6907POPC   C1A46971  19.818   3.514   6.450
 6907POPC   D2A46972  19.877   3.561   6.750
 6907POPC   C3A46973  19.802   3.579   7.050
 6907POPC   C4A46974  19.819   3.553   7.350
 6907POPC   C1B46975  19.813   3.760   6.450
 6907POPC   C2B46976  19.781   3.785   6.750
 6907POPC   C3B46977  19.797   3.830   7.050
 6907POPC   C4B46978  19.860   3.801   7.350
 6908POPC   NC346979  31.491  29.172   5.550
 6908POPC   PO446980  31.426  29.182   5.850
 6908POPC   GL146981  31.448  29.129   6.150
 6908POPC   GL246982  31.559  29.195   6.150
 6908POPC   C1A46983  31.492  29.155   6.450
 6908POPC   D2A46984  31.507  29.135   6.750
 6908POPC   C3A46985  31.507  29.185   7.050
 6908POPC   C4A46986  31.452  29.193   7.350
 6908POPC   C1B46987  31.711  29.287   6.450
 6908POPC   C2B46988  31.720  29.262   6.750
 6908POPC   C3B46989  31.667  29.327   7.050
 6908POPC   C4B46990  31.680  29.327   7.350
 6909POPC   NC346991  30.705  23.756   5.550
 6909POPC   PO446992  30.724  23.688   5.850
 6909POPC   GL146993  30.714  23.719   6.150
 6909POPC   GL246994  30.636  23.844   6.150
 6909POPC   C1A46995  30.678  23.735   6.450
 6909POPC   D2A46996  30.683  23.664   6.750
 6909POPC   C3A46997  30.671  23.670   7.050
 6909POPC   C4A46998  30.689  23.672   7.350
 6909POPC   C1B46999  30.506  23.907   6.450
 6909POPC   C2B47000  30.539  23.936   6.750
 6909POPC   C3B47001  30.480  23.853   7.050
 6909POPC   C4B47002  30.483  23.930   7.350
 6910POPC   NC347003  33.036  26.072   5.550
 6910POPC   PO447004  33.048  26.006   5.850
 6910POPC   GL147005  33.044  26.029   6.150
 6910POPC   GL247006  32.872  25.922   6.150
 6910POPC   C1A47007  32.978  26.024   6.450
 6910POPC   D2A47008  33.045  26.072   6.750
 6910POPC   C3A47009  32.999  26.061   7.050
 6910POPC   C4A47010  32.979  26.088   7.350
 6910POPC   C1B47011  32.823  25.863   6.450
 6910POPC   C2B47012  32.775  25.921   6.750
 6910POPC   C3B47013  32.856  25.862   7.050
 6910POPC   C4B47014  32.795  25.884   7.350
 6911POPC   NC347015  42.330   5.864   5.550
 6911POPC   PO447016  42.358   5.912   5.850
 6911POPC   GL147017  42.324   5.843   6.150
 6911POPC   GL247018  42.211   5.807   6.150
 6911POPC   C1A47019  42.318   5.878   6.450
 6911POPC   D2A47020  42.299   5.895   6.750
 6911POPC   C3A47021  42.334   5.907   7.050
 6911POPC   C4A47022  42.376   5.892   7.350
 6911POPC   C1B47023  42.094   5.877   6.450
 6911POPC   C2B47024  42.103   5.861   6.750
 6911POPC   C3B47025  42.109   5.824   7.050
 6911POPC   C4B47026  42.111   5.883   7.350
 6912POPC   NC347027   5.053  20.635   5.550
 6912POPC   PO447028   5.136  20.627   5.850
 6912POPC   GL147029   5.078  20.589   6.150
 6912POPC   GL247030   4.964  20.557   6.150
 6912POPC   C1A47031   5.061  20.573   6.450
 6912POPC   D2A47032   5.133  20.582   6.750
 6912POPC   C3A47033   5.071  20.609   7.050
 6912POPC   C4A47034   5.098  20.617   7.350
 6912POPC   C1B47035   4.853  20.468   6.450
 6912POPC   C2B47036   4.892  20.480   6.750
 6912POPC   C3B47037   4.923  20.422   7.050
 6912POPC   C4B47038   4.880  20.491   7.350
 6913POPC   NC347039   3.589  39.973   5.550
 6913POPC   PO447040   3.499  40.026   5.850
 6913POPC   GL147041   3.512  39.977   6.150
 6913POPC   GL247042   3.530  40.105   6.150
 6913POPC   C1A47043   3.584  39.996   6.450
 6913POPC   D2A47044   3.517  39.968   6.750
 6913POPC   C3A47045   3.503  39.993   7.050
 6913POPC   C4A47046   3.587  40.038   7.350
 6913POPC   C1B47047   3.595  40.222   6.450
 6913POPC   C2B47048   3.531  40.275   6.750
 6913POPC   C3B47049   3.536  40.225   7.050
 6913POPC   C4B47050   3.596  40.242   7.350
 6914POPC   NC347051  34.589  12.111   5.550
 6914POPC   PO447052  34.574  12.030   5.850
 6914POPC   GL147053  34.529  12.036   6.150
 6914POPC   GL247054  34.631  12.126   6.150
 6914POPC   C1A47055  34.564  12.052   6.450
 6914POPC   D2A47056  34.598  12.093   6.750
 6914POPC   C3A47057  34.543  12.057   7.050
 6914POPC   C4A47058  34.581  12.067   7.350
 6914POPC   C1B47059  34.748  12.178   6.450
 6914POPC   C2B47060  34.770  12.233   6.750
 6914POPC   C3B47061  34.757  12.227   7.050
 6914POPC   C4B47062  34.770  12.216   7.350
 6915POPC   NC347063  39.194  36.146   5.550
 6915POPC   PO447064  39.254  36.171   5.850
 6915POPC   GL147065  39.207  36.151   6.150
 6915POPC   GL247066  39.134  35.989   6.150
 6915POPC   C1A47067  39.278  36.082   6.450
 6915POPC   D2A47068  39.217  36.082   6.750
 6915POPC   C3A47069  39.210  36.109   7.050
 6915POPC   C4A47070  39.184  36.133   7.350
 6915POPC   C1B47071  39.100  35.970   6.450
 6915POPC   C2B47072  39.032  35.922   6.750
 6915POPC   C3B47073  39.077  35.904   7.050
 6915POPC   C4B47074  39.048  35.905   7.350
 6916POPC   NC347075  23.711  20.613   5.550
 6916POPC   PO447076  23.732  20.645   5.850
 6916POPC   GL147077  23.706  20.638   6.150
 6916POPC   GL247078  23.625  20.533   6.150
 6916POPC   C1A47079  23.666  20.655   6.450
 6916POPC   D2A47080  23.674  20.616   6.750
 6916POPC   C3A47081  23.704  20.607   7.050
 6916POPC   C4A47082  23.726  20.644   7.350
 6916POPC   C1B47083  23.502  20.442   6.450
 6916POPC   C2B47084  23.508  20.474   6.750
 6916POPC   C3B47085  23.546  20.503   7.050
 6916POPC   C4B47086  23.472  20.470   7.350
 6917POPC   NC347087   8.989  44.651   5.550
 6917POPC   PO447088   8.956  44.647   5.850
 6917POPC   GL147089   8.964  44.622   6.150
 6917POPC   GL247090   9.099  44.650   6.150
 6917POPC   C1A47091   9.010  44.657   6.450
 6917POPC   D2A47092   9.013  44.615   6.750
 6917POPC   C3A47093   8.927  44.674   7.050
 6917POPC   C4A47094   8.936  44.615   7.350
 6917POPC   C1B47095   9.213  44.637   6.450
 6917POPC   C2B47096   9.240  44.660   6.750
 6917POPC   C3B47097   9.222  44.652   7.050
 6917POPC   C4B47098   9.232  44.611   7.350
 6918POPC   NC347099  11.312   3.574   5.550
 6918POPC   PO447100  11.312   3.502   5.850
 6918POPC   GL147101  11.279   3.512   6.150
 6918POPC   GL247102  11.132   3.516   6.150
 6918POPC   C1A47103  11.339   3.528   6.450
 6918POPC   D2A47104  11.305   3.572   6.750
 6918POPC   C3A47105  11.282   3.512   7.050
 6918POPC   C4A47106  11.346   3.534   7.350
 6918POPC   C1B47107  11.011   3.608   6.450
 6918POPC   C2B47108  11.095   3.576   6.750
 6918POPC   C3B47109  11.011   3.542   7.050
 6918POPC   C4B47110  11.053   3.537   7.350
 6919POPC   NC347111  42.383  32.996   5.550
 6919POPC   PO447112  42.298  33.060   5.850
 6919POPC   GL147113  42.324  33.029   6.150
 6919POPC   GL247114  42.211  32.981   6.150
 6919POPC   C1A47115  42.313  32.986   6.450
 6919POPC   D2A47116  42.362  32.982   6.750
 6919POPC   C3A47117  42.315  33.000   7.050
 6919POPC   C4A47118  42.302  33.004   7.350
 6919POPC   C1B47119  42.169  32.922   6.450
 6919POPC   C2B47120  42.142  32.913   6.750
 6919POPC   C3B47121  42.086  32.889   7.050
 6919POPC   C4B47122  42.178  32.884   7.350
 6920POPC   NC347123  41.521  24.464   5.550
 6920POPC   PO447124  41.522  24.454   5.850
 6920POPC   GL147125  41.572  24.488   6.150
 6920POPC   GL247126  41.477  24.559   6.150
 6920POPC   C1A47127  41.590  24.469   6.450
 6920POPC   D2A47128  41.529  24.461   6.750
 6920POPC   C3A47129  41.568  24.490   7.050
 6920POPC   C4A47130  41.580  24.476   7.350
 6920POPC   C1B47131  41.441  24.676   6.450
 6920POPC   C2B47132  41.402  24.745   6.750
 6920POPC   C3B47133  41.420  24.718   7.050
 6920POPC   C4B47134  41.457  24.723   7.350
 6921POPC   NC347135  16.735  39.995   5.550
 6921POPC   PO447136  16.703  39.965   5.850
 6921POPC   GL147137  16.761  40.009   6.150
 6921POPC   GL247138  16.772  39.888   6.150
 6921POPC   C1A47139  16.756  40.039   6.450
 6921POPC   D2A47140  16.714  40.017   6.750
 6921POPC   C3A47141  16.754  40.035   7.050
 6921POPC   C4A47142  16.755  40.035   7.350
 6921POPC   C1B47143  16.783  39.720   6.450
 6921POPC   C2B47144  16.821  39.735   6.750
 6921POPC   C3B47145  16.745  39.745   7.050
 6921POPC   C4B47146  16.826  39.777   7.350
 6922POPC   NC347147  20.647   2.729   5.550
 6922POPC   PO447148  20.627   2.809   5.850
 6922POPC   GL147149  20.585   2.811   6.150
 6922POPC   GL247150  20.600   2.893   6.150
 6922POPC   C1A47151  20.595   2.746   6.450
 6922POPC   D2A47152  20.593   2.727   6.750
 6922POPC   C3A47153  20.624   2.805   7.050
 6922POPC   C4A47154  20.635   2.722   7.350
 6922POPC   C1B47155  20.525   2.980   6.450
 6922POPC   C2B47156  20.492   2.994   6.750
 6922POPC   C3B47157  20.536   3.002   7.050
 6922POPC   C4B47158  20.470   2.989   7.350
 6923POPC   NC347159  18.274  41.552   5.550
 6923POPC   PO447160  18.323  41.540   5.850
 6923POPC   GL147161  18.245  41.561   6.150
 6923POPC   GL247162  18.260  41.691   6.150
 6923POPC   C1A47163  18.279  41.517   6.450
 6923POPC   D2A47164  18.290  41.602   6.750
 6923POPC   C3A47165  18.267  41.536   7.050
 6923POPC   C4A47166  18.307  41.602   7.350
 6923POPC   C1B47167  18.159  41.814   6.450
 6923POPC   C2B47168  18.112  41.811   6.750
 6923POPC   C3B47169  18.120  41.818   7.050
 6923POPC   C4B47170  18.160  41.770   7.350
 6924POPC   NC347171  24.490   8.211   5.550
 6924POPC   PO447172  24.512   8.177   5.850
 6924POPC   GL147173  24.470   8.230   6.150
 6924POPC   GL247174  24.524   8.361   6.150
 6924POPC   C1A47175  24.508   8.200   6.450
 6924POPC   D2A47176  24.458   8.153   6.750
 6924POPC   C3A47177  24.455   8.241   7.050
 6924POPC   C4A47178  24.470   8.224   7.350
 6924POPC   C1B47179  24.568   8.448   6.450
 6924POPC   C2B47180  24.554   8.399   6.750
 6924POPC   C3B47181  24.526   8.476   7.050
 6924POPC   C4B47182  24.541   8.478   7.350
 6925POPC   NC347183  40.817  10.477   5.550
 6925POPC   PO447184  40.738  10.531   5.850
 6925POPC   GL147185  40.822  10.532   6.150
 6925POPC   GL247186  40.903  10.574   6.150
 6925POPC   C1A47187  40.808  10.477   6.450
 6925POPC   D2A47188  40.740  10.487   6.750
 6925POPC   C3A47189  40.748  10.570   7.050
 6925POPC   C4A47190  40.775  10.503   7.350
 6925POPC   C1B47191  41.025  10.643   6.450
 6925POPC   C2B47192  40.992  10.629   6.750
 6925POPC   C3B47193  41.019  10.642   7.050
 6925POPC   C4B47194  40.970  10.629   7.350
 6926POPC   NC347195  29.186  40.735   5.550
 6926POPC   PO447196  29.149  40.816   5.850
 6926POPC   GL147197  29.127  40.816   6.150
 6926POPC   GL247198  29.049  40.747   6.150
 6926POPC   C1A47199  29.112  40.794   6.450
 6926POPC   D2A47200  29.098  40.782   6.750
 6926POPC   C3A47201  29.105  40.778   7.050
 6926POPC   C4A47202  29.185  40.832   7.350
 6926POPC   C1B47203  28.965  40.674   6.450
 6926POPC   C2B47204  28.934  40.634   6.750
 6926POPC   C3B47205  28.914  40.628   7.050
 6926POPC   C4B47206  28.891  40.668   7.350
 6927POPC   NC347207  15.146   5.907   5.550
 6927POPC   PO447208  15.156   5.871   5.850
 6927POPC   GL147209  15.220   5.913   6.150
 6927POPC   GL247210  15.213   6.023   6.150
 6927POPC   C1A47211  15.141   5.821   6.450
 6927POPC   D2A47212  15.163   5.842   6.750
 6927POPC   C3A47213  15.226   5.826   7.050
 6927POPC   C4A47214  15.169   5.846   7.350
 6927POPC   C1B47215  15.246   6.118   6.450
 6927POPC   C2B47216  15.221   6.066   6.750
 6927POPC   C3B47217  15.250   6.066   7.050
 6927POPC   C4B47218  15.261   6.076   7.350
 6928POPC   NC347219  19.065  26.820   5.550
 6928POPC   PO447220  19.015  26.856   5.850
 6928POPC   GL147221  19.100  26.803   6.150
 6928POPC   GL247222  19.181  26.890   6.150
 6928POPC   C1A47223  19.047  26.797   6.450
 6928POPC   D2A47224  19.053  26.819   6.750
 6928POPC   C3A47225  19.028  26.794   7.050
 6928POPC   C4A47226  19.093  26.788   7.350
 6928POPC   C1B47227  19.229  27.010   6.450
 6928POPC   C2B47228  19.256  27.037   6.750
 6928POPC   C3B47229  19.197  26.998   7.050
 6928POPC   C4B47230  19.258  26.950   7.350
 6929POPC   NC347231  26.021  15.169   5.550
 6929POPC   PO447232  26.047  15.177   5.850
 6929POPC   GL147233  26.091  15.177   6.150
 6929POPC   GL247234  25.967  15.258   6.150
 6929POPC   C1A47235  26.062  15.197   6.450
 6929POPC   D2A47236  26.058  15.137   6.750
 6929POPC   C3A47237  26.055  15.211   7.050
 6929POPC   C4A47238  26.041  15.184   7.350
 6929POPC   C1B47239  25.967  15.448   6.450
 6929POPC   C2B47240  25.961  15.381   6.750
 6929POPC   C3B47241  25.939  15.450   7.050
 6929POPC   C4B47242  25.916  15.364   7.350
 6930POPC   NC347243  17.551  18.314   5.550
 6930POPC   PO447244  17.525  18.252   5.850
 6930POPC   GL147245  17.482  18.264   6.150
 6930POPC   GL247246  17.409  18.297   6.150
 6930POPC   C1A47247  17.476  18.236   6.450
 6930POPC   D2A47248  17.538  18.269   6.750
 6930POPC   C3A47249  17.528  18.272   7.050
 6930POPC   C4A47250  17.494  18.243   7.350
 6930POPC   C1B47251  17.275  18.247   6.450
 6930POPC   C2B47252  17.293  18.294   6.750
 6930POPC   C3B47253  17.275  18.244   7.050
 6930POPC   C4B47254  17.255  18.288   7.350
 6931POPC   NC347255  27.550  22.890   5.550
 6931POPC   PO447256  27.629  22.905   5.850
 6931POPC   GL147257  27.601  22.901   6.150
 6931POPC   GL247258  27.504  22.852   6.150
 6931POPC   C1A47259  27.580  22.959   6.450
 6931POPC   D2A47260  27.642  22.926   6.750
 6931POPC   C3A47261  27.609  22.948   7.050
 6931POPC   C4A47262  27.622  22.956   7.350
 6931POPC   C1B47263  27.458  22.728   6.450
 6931POPC   C2B47264  27.467  22.669   6.750
 6931POPC   C3B47265  27.486  22.740   7.050
 6931POPC   C4B47266  27.507  22.709   7.350
 6932POPC   NC347267  26.776  41.535   5.550
 6932POPC   PO447268  26.802  41.574   5.850
 6932POPC   GL147269  26.817  41.521   6.150
 6932POPC   GL247270  26.877  41.412   6.150
 6932POPC   C1A47271  26.829  41.565   6.450
 6932POPC   D2A47272  26.836  41.520   6.750
 6932POPC   C3A47273  26.825  41.555   7.050
 6932POPC   C4A47274  26.823  41.593   7.350
 6932POPC   C1B47275  26.967  41.372   6.450
 6932POPC   C2B47276  26.975  41.363   6.750
 6932POPC   C3B47277  26.998  41.350   7.050
 6932POPC   C4B47278  26.921  41.320   7.350
 6933POPC   NC347279  26.012  32.261   5.550
 6933POPC   PO447280  26.036  32.251   5.850
 6933POPC   GL147281  26.024  32.216   6.150
 6933POPC   GL247282  26.147  32.200   6.150
 6933POPC   C1A47283  26.075  32.210   6.450
 6933POPC   D2A47284  26.058  32.290   6.750
 6933POPC   C3A47285  26.056  32.223   7.050
 6933POPC   C4A47286  26.014  32.277   7.350
 6933POPC   C1B47287  26.249  32.074   6.450
 6933POPC   C2B47288  26.241  32.098   6.750
 6933POPC   C3B47289  26.177  32.072   7.050
 6933POPC   C4B47290  26.239  32.067   7.350
 6934POPC   NC347291  39.982   5.062   5.550
 6934POPC   PO447292  40.000   5.079   5.850
 6934POPC   GL147293  39.995   5.099   6.150
 6934POPC   GL247294  40.002   5.167   6.150
 6934POPC   C1A47295  40.016   5.095   6.450
 6934POPC   D2A47296  39.998   5.065   6.750
 6934POPC   C3A47297  39.999   5.053   7.050
 6934POPC   C4A47298  40.018   5.134   7.350
 6934POPC   C1B47299  40.002   5.371   6.450
 6934POPC   C2B47300  39.977   5.311   6.750
 6934POPC   C3B47301  39.944   5.345   7.050
 6934POPC   C4B47302  40.000   5.366   7.350
 6935POPC   NC347303  18.293  33.780   5.550
 6935POPC   PO447304  18.312  33.840   5.850
 6935POPC   GL147305  18.262  33.837   6.150
 6935POPC   GL247306  18.312  33.722   6.150
 6935POPC   C1A47307  18.303  33.770   6.450
 6935POPC   D2A47308  18.298  33.800   6.750
 6935POPC   C3A47309  18.319  33.770   7.050
 6935POPC   C4A47310  18.260  33.814   7.350
 6935POPC   C1B47311  18.465  33.650   6.450
 6935POPC   C2B47312  18.466  33.582   6.750
 6935POPC   C3B47313  18.420  33.630   7.050
 6935POPC   C4B47314  18.430  33.614   7.350
 6936POPC   NC347315  29.183  30.691   5.550
 6936POPC   PO447316  29.193  30.673   5.850
 6936POPC   GL147317  29.148  30.680   6.150
 6936POPC   GL247318  29.077  30.802   6.150
 6936POPC   C1A47319  29.154  30.737   6.450
 6936POPC   D2A47320  29.165  30.649   6.750
 6936POPC   C3A47321  29.143  30.719   7.050
 6936POPC   C4A47322  29.180  30.684   7.350
 6936POPC   C1B47323  28.883  30.820   6.450
 6936POPC   C2B47324  28.875  30.856   6.750
 6936POPC   C3B47325  28.887  30.816   7.050
 6936POPC   C4B47326  28.945  30.781   7.350
 6937POPC   NC347327  11.257  32.269   5.550
 6937POPC   PO447328  11.266  32.277   5.850
 6937POPC   GL147329  11.302  32.255   6.150
 6937POPC   GL247330  11.231  32.111   6.150
 6937POPC   C1A47331  11.272  32.244   6.450
 6937POPC   D2A47332  11.320  32.206   6.750
 6937POPC   C3A47333  11.320  32.264   7.050
 6937POPC   C4A47334  11.274  32.254   7.350
 6937POPC   C1B47335  11.166  32.060   6.450
 6937POPC   C2B47336  11.180  32.034   6.750
 6937POPC   C3B47337  11.233  31.988   7.050
 6937POPC   C4B47338  11.210  32.043   7.350
 6938POPC   NC347339  30.723   8.158   5.550
 6938POPC   PO447340  30.672   8.196   5.850
 6938POPC   GL147341  30.669   8.239   6.150
 6938POPC   GL247342  30.826   8.148   6.150
 6938POPC   C1A47343  30.691   8.244   6.450
 6938POPC   D2A47344  30.653   8.183   6.750
 6938POPC   C3A47345  30.705   8.218   7.050
 6938POPC   C4A47346  30.706   8.185   7.350
 6938POPC   C1B47347  30.944   8.135   6.450
 6938POPC   C2B47348  30.910   8.111   6.750
 6938POPC   C3B47349  30.902   8.093   7.050
 6938POPC   C4B47350  30.953   8.130   7.350
 6939POPC   NC347351   9.786  33.024   5.550
 6939POPC   PO447352   9.796  32.979   5.850
 6939POPC   GL147353   9.785  33.052   6.150
 6939POPC   GL247354   9.817  32.939   6.150
 6939POPC   C1A47355   9.720  33.040   6.450
 6939POPC   D2A47356   9.716  33.036   6.750
 6939POPC   C3A47357   9.703  32.998   7.050
 6939POPC   C4A47358   9.735  33.019   7.350
 6939POPC   C1B47359   9.935  32.887   6.450
 6939POPC   C2B47360  10.002  32.921   6.750
 6939POPC   C3B47361   9.921  32.923   7.050
 6939POPC   C4B47362  10.000  32.871   7.350
 6940POPC   NC347363  37.632  28.411   5.550
 6940POPC   PO447364  37.661  28.350   5.850
 6940POPC   GL147365  37.648  28.344   6.150
 6940POPC   GL247366  37.731  28.297   6.150
 6940POPC   C1A47367  37.707  28.379   6.450
 6940POPC   D2A47368  37.652  28.381   6.750
 6940POPC   C3A47369  37.639  28.385   7.050
 6940POPC   C4A47370  37.637  28.392   7.350
 6940POPC   C1B47371  37.911  28.180   6.450
 6940POPC   C2B47372  37.836  28.210   6.750
 6940POPC   C3B47373  37.834  28.199   7.050
 6940POPC   C4B47374  37.856  28.197   7.350
 6941POPC   NC347375  29.152  26.066   5.550
 6941POPC   PO447376  29.099  26.066   5.850
 6941POPC   GL147377  29.142  26.086   6.150
 6941POPC   GL247378  29.144  26.178   6.150
 6941POPC   C1A47379  29.168  26.042   6.450
 6941POPC   D2A47380  29.151  26.046   6.750
 6941POPC   C3A47381  29.106  26.037   7.050
 6941POPC   C4A47382  29.175  26.025   7.350
 6941POPC   C1B47383  29.110  26.325   6.450
 6941POPC   C2B47384  29.119  26.322   6.750
 6941POPC   C3B47385  29.168  26.281   7.050
 6941POPC   C4B47386  29.155  26.318   7.350
 6942POPC   NC347387  10.550  37.676   5.550
 6942POPC   PO447388  10.570  37.662   5.850
 6942POPC   GL147389  10.573  37.685   6.150
 6942POPC   GL247390  10.609  37.580   6.150
 6942POPC   C1A47391  10.550  37.638   6.450
 6942POPC   D2A47392  10.518  37.669   6.750
 6942POPC   C3A47393  10.486  37.678   7.050
 6942POPC   C4A47394  10.557  37.636   7.350
 6942POPC   C1B47395  10.656  37.508   6.450
 6942POPC   C2B47396  10.678  37.487   6.750
 6942POPC   C3B47397  10.707  37.495   7.050
 6942POPC   C4B47398  10.702  37.532   7.350
 6943POPC   NC347399  28.391  26.055   5.550
 6943POPC   PO447400  28.365  26.091   5.850
 6943POPC   GL147401  28.409  26.043   6.150
 6943POPC   GL247402  28.208  26.069   6.150
 6943POPC   C1A47403  28.406  26.016   6.450
 6943POPC   D2A47404  28.413  26.033   6.750
 6943POPC   C3A47405  28.322  26.062   7.050
 6943POPC   C4A47406  28.363  25.995   7.350
 6943POPC   C1B47407  28.130  25.965   6.450
 6943POPC   C2B47408  28.106  26.002   6.750
 6943POPC   C3B47409  28.090  26.005   7.050
 6943POPC   C4B47410  28.145  26.038   7.350
 6944POPC   NC347411  14.421  29.937   5.550
 6944POPC   PO447412  14.411  29.958   5.850
 6944POPC   GL147413  14.405  29.953   6.150
 6944POPC   GL247414  14.575  29.863   6.150
 6944POPC   C1A47415  14.379  29.941   6.450
 6944POPC   D2A47416  14.398  29.908   6.750
 6944POPC   C3A47417  14.379  29.923   7.050
 6944POPC   C4A47418  14.440  29.907   7.350
 6944POPC   C1B47419  14.662  29.872   6.450
 6944POPC   C2B47420  14.601  29.887   6.750
 6944POPC   C3B47421  14.673  29.865   7.050
 6944POPC   C4B47422  14.648  29.863   7.350
 6945POPC   NC347423  33.809  44.670   5.550
 6945POPC   PO447424  33.803  44.655   5.850
 6945POPC   GL147425  33.759  44.637   6.150
 6945POPC   GL247426  33.929  44.724   6.150
 6945POPC   C1A47427  33.763  44.707   6.450
 6945POPC   D2A47428  33.788  44.693   6.750
 6945POPC   C3A47429  33.808  44.664   7.050
 6945POPC   C4A47430  33.798  44.636   7.350
 6945POPC   C1B47431  34.024  44.782   6.450
 6945POPC   C2B47432  34.048  44.770   6.750
 6945POPC   C3B47433  34.067  44.797   7.050
 6945POPC   C4B47434  34.063  44.763   7.350
 6946POPC   NC347435  38.461  33.031   5.550
 6946POPC   PO447436  38.484  33.002   5.850
 6946POPC   GL147437  38.489  33.061   6.150
 6946POPC   GL247438  38.482  32.876   6.150
 6946POPC   C1A47439  38.471  33.048   6.450
 6946POPC   D2A47440  38.494  32.980   6.750
 6946POPC   C3A47441  38.486  32.983   7.050
 6946POPC   C4A47442  38.413  32.996   7.350
 6946POPC   C1B47443  38.607  32.819   6.450
 6946POPC   C2B47444  38.605  32.781   6.750
 6946POPC   C3B47445  38.554  32.825   7.050
 6946POPC   C4B47446  38.516  32.818   7.350
 6947POPC   NC347447   3.549  24.493   5.550
 6947POPC   PO447448   3.579  24.485   5.850
 6947POPC   GL147449   3.589  24.443   6.150
 6947POPC   GL247450   3.657  24.465   6.150
 6947POPC   C1A47451   3.562  24.528   6.450
 6947POPC   D2A47452   3.536  24.444   6.750
 6947POPC   C3A47453   3.566  24.449   7.050
 6947POPC   C4A47454   3.537  24.454   7.350
 6947POPC   C1B47455   3.789  24.377   6.450
 6947POPC   C2B47456   3.809  24.364   6.750
 6947POPC   C3B47457   3.799  24.365   7.050
 6947POPC   C4B47458   3.784  24.389   7.350
 6948POPC   NC347459  43.148  28.415   5.550
 6948POPC   PO447460  43.105  28.347   5.850
 6948POPC   GL147461  43.088  28.413   6.150
 6948POPC   GL247462  43.000  28.402   6.150
 6948POPC   C1A47463  43.128  28.321   6.450
 6948POPC   D2A47464  43.150  28.400   6.750
 6948POPC   C3A47465  43.160  28.331   7.050
 6948POPC   C4A47466  43.075  28.380   7.350
 6948POPC   C1B47467  42.893  28.408   6.450
 6948POPC   C2B47468  42.903  28.418   6.750
 6948POPC   C3B47469  42.847  28.389   7.050
 6948POPC   C4B47470  42.861  28.355   7.350
 6949POPC   NC347471   5.135  12.875   5.550
 6949POPC   PO447472   5.123  12.888   5.850
 6949POPC   GL147473   5.128  12.840   6.150
 6949POPC   GL247474   5.124  12.945   6.150
 6949POPC   C1A47475   5.055  12.821   6.450
 6949POPC   D2A47476   5.063  12.879   6.750
 6949POPC   C3A47477   5.107  12.822   7.050
 6949POPC   C4A47478   5.123  12.857   7.350
 6949POPC   C1B47479   5.165  13.058   6.450
 6949POPC   C2B47480   5.127  13.090   6.750
 6949POPC   C3B47481   5.167  13.060   7.050
 6949POPC   C4B47482   5.128  13.137   7.350
 6950POPC   NC347483  21.358  28.326   5.550
 6950POPC   PO447484  21.342  28.404   5.850
 6950POPC   GL147485  21.402  28.363   6.150
 6950POPC   GL247486  21.420  28.217   6.150
 6950POPC   C1A47487  21.430  28.418   6.450
 6950POPC   D2A47488  21.360  28.404   6.750
 6950POPC   C3A47489  21.397  28.414   7.050
 6950POPC   C4A47490  21.375  28.392   7.350
 6950POPC   C1B47491  21.418  28.130   6.450
 6950POPC   C2B47492  21.508  28.174   6.750
 6950POPC   C3B47493  21.485  28.149   7.050
 6950POPC   C4B47494  21.423  28.105   7.350
 6951POPC   NC347495  27.636  41.570   5.550
 6951POPC   PO447496  27.599  41.544   5.850
 6951POPC   GL147497  27.555  41.567   6.150
 6951POPC   GL247498  27.685  41.518   6.150
 6951POPC   C1A47499  27.591  41.579   6.450
 6951POPC   D2A47500  27.563  41.541   6.750
 6951POPC   C3A47501  27.609  41.555   7.050
 6951POPC   C4A47502  27.635  41.578   7.350
 6951POPC   C1B47503  27.796  41.527   6.450
 6951POPC   C2B47504  27.841  41.518   6.750
 6951POPC   C3B47505  27.857  41.465   7.050
 6951POPC   C4B47506  27.883  41.544   7.350
 6952POPC   NC347507  10.550  39.216   5.550
 6952POPC   PO447508  10.556  39.228   5.850
 6952POPC   GL147509  10.496  39.198   6.150
 6952POPC   GL247510  10.505  39.093   6.150
 6952POPC   C1A47511  10.562  39.213   6.450
 6952POPC   D2A47512  10.564  39.273   6.750
 6952POPC   C3A47513  10.567  39.278   7.050
 6952POPC   C4A47514  10.518  39.218   7.350
 6952POPC   C1B47515  10.393  38.986   6.450
 6952POPC   C2B47516  10.473  38.993   6.750
 6952POPC   C3B47517  10.489  38.977   7.050
 6952POPC   C4B47518  10.409  39.006   7.350
 6953POPC   NC347519  24.496   4.320   5.550
 6953POPC   PO447520  24.487   4.290   5.850
 6953POPC   GL147521  24.456   4.359   6.150
 6953POPC   GL247522  24.572   4.440   6.150
 6953POPC   C1A47523  24.538   4.268   6.450
 6953POPC   D2A47524  24.490   4.281   6.750
 6953POPC   C3A47525  24.441   4.340   7.050
 6953POPC   C4A47526  24.447   4.333   7.350
 6953POPC   C1B47527  24.717   4.482   6.450
 6953POPC   C2B47528  24.672   4.456   6.750
 6953POPC   C3B47529  24.671   4.453   7.050
 6953POPC   C4B47530  24.727   4.459   7.350
 6954POPC   NC347531  34.617  15.953   5.550
 6954POPC   PO447532  34.555  15.996   5.850
 6954POPC   GL147533  34.596  15.999   6.150
 6954POPC   GL247534  34.745  15.934   6.150
 6954POPC   C1A47535  34.541  15.968   6.450
 6954POPC   D2A47536  34.544  15.938   6.750
 6954POPC   C3A47537  34.547  15.951   7.050
 6954POPC   C4A47538  34.593  15.992   7.350
 6954POPC   C1B47539  34.777  16.056   6.450
 6954POPC   C2B47540  34.807  16.046   6.750
 6954POPC   C3B47541  34.859  15.992   7.050
 6954POPC   C4B47542  34.790  15.970   7.350
 6955POPC   NC347543  16.751  43.919   5.550
 6955POPC   PO447544  16.717  43.907   5.850
 6955POPC   GL147545  16.714  43.929   6.150
 6955POPC   GL247546  16.592  43.803   6.150
 6955POPC   C1A47547  16.691  43.921   6.450
 6955POPC   D2A47548  16.716  43.906   6.750
 6955POPC   C3A47549  16.698  43.866   7.050
 6955POPC   C4A47550  16.697  43.932   7.350
 6955POPC   C1B47551  16.506  43.745   6.450
 6955POPC   C2B47552  16.504  43.741   6.750
 6955POPC   C3B47553  16.529  43.764   7.050
 6955POPC   C4B47554  16.474  43.749   7.350
 6956POPC   NC347555  38.427  21.363   5.550
 6956POPC   PO447556  38.445  21.415   5.850
 6956POPC   GL147557  38.466  21.423   6.150
 6956POPC   GL247558  38.400  21.339   6.150
 6956POPC   C1A47559  38.428  21.342   6.450
 6956POPC   D2A47560  38.409  21.365   6.750
 6956POPC   C3A47561  38.460  21.398   7.050
 6956POPC   C4A47562  38.481  21.372   7.350
 6956POPC   C1B47563  38.310  21.225   6.450
 6956POPC   C2B47564  38.319  21.163   6.750
 6956POPC   C3B47565  38.250  21.185   7.050
 6956POPC   C4B47566  38.234  21.157   7.350
 6957POPC   NC347567   6.656  22.986   5.550
 6957POPC   PO447568   6.678  22.938   5.850
 6957POPC   GL147569   6.683  22.946   6.150
 6957POPC   GL247570   6.705  22.870   6.150
 6957POPC   C1A47571   6.667  22.936   6.450
 6957POPC   D2A47572   6.627  22.979   6.750
 6957POPC   C3A47573   6.660  22.979   7.050
 6957POPC   C4A47574   6.630  22.906   7.350
 6957POPC   C1B47575   6.846  22.805   6.450
 6957POPC   C2B47576   6.791  22.795   6.750
 6957POPC   C3B47577   6.844  22.795   7.050
 6957POPC   C4B47578   6.843  22.777   7.350
 6958POPC   NC347579  11.327   7.419   5.550
 6958POPC   PO447580  11.277   7.455   5.850
 6958POPC   GL147581  11.342   7.421   6.150
 6958POPC   GL247582  11.351   7.488   6.150
 6958POPC   C1A47583  11.300   7.456   6.450
 6958POPC   D2A47584  11.273   7.467   6.750
 6958POPC   C3A47585  11.346   7.465   7.050
 6958POPC   C4A47586  11.330   7.380   7.350
 6958POPC   C1B47587  11.458   7.525   6.450
 6958POPC   C2B47588  11.528   7.603   6.750
 6958POPC   C3B47589  11.523   7.553   7.050
 6958POPC   C4B47590  11.550   7.563   7.350
 6959POPC   NC347591  43.845  39.250   5.550
 6959POPC   PO447592  43.840  39.188   5.850
 6959POPC   GL147593  43.862  39.207   6.150
 6959POPC   GL247594  43.785  39.188   6.150
 6959POPC   C1A47595  43.838  39.254   6.450
 6959POPC   D2A47596  43.906  39.194   6.750
 6959POPC   C3A47597  43.862  39.232   7.050
 6959POPC   C4A47598  43.892  39.269   7.350
 6959POPC   C1B47599  43.630  39.210   6.450
 6959POPC   C2B47600  43.658  39.227   6.750
 6959POPC   C3B47601  43.661  39.230   7.050
 6959POPC   C4B47602  43.649  39.193   7.350
 6960POPC   NC347603  23.701  25.996   5.550
 6960POPC   PO447604  23.715  26.018   5.850
 6960POPC   GL147605  23.736  26.068   6.150
 6960POPC   GL247606  23.791  25.969   6.150
 6960POPC   C1A47607  23.665  26.073   6.450
 6960POPC   D2A47608  23.694  26.001   6.750
 6960POPC   C3A47609  23.745  26.028   7.050
 6960POPC   C4A47610  23.696  26.086   7.350
 6960POPC   C1B47611  23.967  25.865   6.450
 6960POPC   C2B47612  23.896  25.869   6.750
 6960POPC   C3B47613  23.933  25.868   7.050
 6960POPC   C4B47614  23.944  25.864   7.350
 6961POPC   NC347615  30.743   2.720   5.550
 6961POPC   PO447616  30.714   2.811   5.850
 6961POPC   GL147617  30.708   2.744   6.150
 6961POPC   GL247618  30.609   2.910   6.150
 6961POPC   C1A47619  30.736   2.739   6.450
 6961POPC   D2A47620  30.688   2.753   6.750
 6961POPC   C3A47621  30.701   2.719   7.050
 6961POPC   C4A47622  30.714   2.733   7.350
 6961POPC   C1B47623  30.548   2.970   6.450
 6961POPC   C2B47624  30.542   2.992   6.750
 6961POPC   C3B47625  30.577   2.966   7.050
 6961POPC   C4B47626  30.509   2.977   7.350
 6962POPC   NC347627  38.471   5.105   5.550
 6962POPC   PO447628  38.454   5.129   5.850
 6962POPC   GL147629  38.458   5.116   6.150
 6962POPC   GL247630  38.362   5.142   6.150
 6962POPC   C1A47631  38.503   5.104   6.450
 6962POPC   D2A47632  38.447   5.123   6.750
 6962POPC   C3A47633  38.469   5.078   7.050
 6962POPC   C4A47634  38.426   5.142   7.350
 6962POPC   C1B47635  38.317   5.286   6.450
 6962POPC   C2B47636  38.303   5.277   6.750
 6962POPC   C3B47637  38.278   5.270   7.050
 6962POPC   C4B47638  38.262   5.309   7.350
 6963POPC   NC347639  39.261  10.522   5.550
 6963POPC   PO447640  39.263  10.541   5.850
 6963POPC   GL147641  39.245  10.549   6.150
 6963POPC   GL247642  39.308  10.551   6.150
 6963POPC   C1A47643  39.227  10.478   6.450
 6963POPC   D2A47644  39.261  10.570   6.750
 6963POPC   C3A47645  39.223  10.508   7.050
 6963POPC   C4A47646  39.204  10.495   7.350
 6963POPC   C1B47647  39.442  10.535   6.450
 6963POPC   C2B47648  39.444  10.468   6.750
 6963POPC   C3B47649  39.443  10.547   7.050
 6963POPC   C4B47650  39.442  10.492   7.350
 6964POPC   NC347651  30.712  34.530   5.550
 6964POPC   PO447652  30.732  34.591   5.850
 6964POPC   GL147653  30.658  34.613   6.150
 6964POPC   GL247654  30.781  34.587   6.150
 6964POPC   C1A47655  30.740  34.617   6.450
 6964POPC   D2A47656  30.727  34.558   6.750
 6964POPC   C3A47657  30.697  34.588   7.050
 6964POPC   C4A47658  30.675  34.585   7.350
 6964POPC   C1B47659  30.927  34.733   6.450
 6964POPC   C2B47660  30.948  34.643   6.750
 6964POPC   C3B47661  30.944  34.668   7.050
 6964POPC   C4B47662  30.907  34.687   7.350
 6965POPC   NC347663  16.682  38.448   5.550
 6965POPC   PO447664  16.748  38.489   5.850
 6965POPC   GL147665  16.742  38.431   6.150
 6965POPC   GL247666  16.631  38.474   6.150
 6965POPC   C1A47667  16.743  38.417   6.450
 6965POPC   D2A47668  16.760  38.408   6.750
 6965POPC   C3A47669  16.685  38.453   7.050
 6965POPC   C4A47670  16.707  38.470   7.350
 6965POPC   C1B47671  16.489  38.431   6.450
 6965POPC   C2B47672  16.497  38.407   6.750
 6965POPC   C3B47673  16.482  38.471   7.050
 6965POPC   C4B47674  16.509  38.451   7.350
 6966POPC   NC347675   0.459  35.364   5.550
 6966POPC   PO447676   0.485  35.310   5.850
 6966POPC   GL147677   0.467  35.346   6.150
 6966POPC   GL247678   0.459  35.268   6.150
 6966POPC   C1A47679   0.421  35.323   6.450
 6966POPC   D2A47680   0.475  35.320   6.750
 6966POPC   C3A47681   0.438  35.321   7.050
 6966POPC   C4A47682   0.458  35.365   7.350
 6966POPC   C1B47683   0.611  35.180   6.450
 6966POPC   C2B47684   0.558  35.137   6.750
 6966POPC   C3B47685   0.571  35.154   7.050
 6966POPC   C4B47686   0.576  35.114   7.350
 6967POPC   NC347687  15.197  11.256   5.550
 6967POPC   PO447688  15.192  11.342   5.850
 6967POPC   GL147689  15.212  11.294   6.150
 6967POPC   GL247690  15.178  11.179   6.150
 6967POPC   C1A47691  15.210  11.297   6.450
 6967POPC   D2A47692  15.152  11.273   6.750
 6967POPC   C3A47693  15.202  11.301   7.050
 6967POPC   C4A47694  15.170  11.341   7.350
 6967POPC   C1B47695  15.183  11.018   6.450
 6967POPC   C2B47696  15.164  11.047   6.750
 6967POPC   C3B47697  15.170  11.023   7.050
 6967POPC   C4B47698  15.120  11.081   7.350
 6968POPC   NC347699  17.533  13.610   5.550
 6968POPC   PO447700  17.463  13.660   5.850
 6968POPC   GL147701  17.533  13.609   6.150
 6968POPC   GL247702  17.479  13.736   6.150
 6968POPC   C1A47703  17.539  13.613   6.450
 6968POPC   D2A47704  17.466  13.674   6.750
 6968POPC   C3A47705  17.498  13.608   7.050
 6968POPC   C4A47706  17.514  13.604   7.350
 6968POPC   C1B47707  17.338  13.856   6.450
 6968POPC   C2B47708  17.368  13.881   6.750
 6968POPC   C3B47709  17.335  13.821   7.050
 6968POPC   C4B47710  17.398  13.859   7.350
 6969POPC   NC347711   5.903   1.982   5.550
 6969POPC   PO447712   5.861   1.942   5.850
 6969POPC   GL147713   5.888   2.025   6.150
 6969POPC   GL247714   5.871   2.151   6.150
 6969POPC   C1A47715   5.888   1.962   6.450
 6969POPC   D2A47716   5.874   2.014   6.750
 6969POPC   C3A47717   5.836   1.965   7.050
 6969POPC   C4A47718   5.824   2.034   7.350
 6969POPC   C1B47719   5.854   2.218   6.450
 6969POPC   C2B47720   5.849   2.229   6.750
 6969POPC   C3B47721   5.912   2.202   7.050
 6969POPC   C4B47722   5.885   2.190   7.350
 6970POPC   NC347723  33.799  14.427   5.550
 6970POPC   PO447724  33.819  14.431   5.850
 6970POPC   GL147725  33.777  14.424   6.150
 6970POPC   GL247726  33.785  14.295   6.150
 6970POPC   C1A47727  33.761  14.404   6.450
 6970POPC   D2A47728  33.759  14.420   6.750
 6970POPC   C3A47729  33.821  14.446   7.050
 6970POPC   C4A47730  33.837  14.449   7.350
 6970POPC   C1B47731  33.707  14.178   6.450
 6970POPC   C2B47732  33.736  14.165   6.750
 6970POPC   C3B47733  33.730  14.161   7.050
 6970POPC   C4B47734  33.711  14.206   7.350
 6971POPC   NC347735   2.023  36.082   5.550
 6971POPC   PO447736   2.006  36.106   5.850
 6971POPC   GL147737   2.028  36.145   6.150
 6971POPC   GL247738   2.058  36.233   6.150
 6971POPC   C1A47739   2.016  36.168   6.450
 6971POPC   D2A47740   2.029  36.127   6.750
 6971POPC   C3A47741   1.978  36.144   7.050
 6971POPC   C4A47742   1.963  36.125   7.350
 6971POPC   C1B47743   2.045  36.351   6.450
 6971POPC   C2B47744   2.053  36.377   6.750
 6971POPC   C3B47745   2.105  36.356   7.050
 6971POPC   C4B47746   2.051  36.394   7.350
 6972POPC   NC347747   9.781   8.957   5.550
 6972POPC   PO447748   9.704   8.966   5.850
 6972POPC   GL147749   9.713   8.952   6.150
 6972POPC   GL247750   9.835   8.931   6.150
 6972POPC   C1A47751   9.789   9.007   6.450
 6972POPC   D2A47752   9.757   8.948   6.750
 6972POPC   C3A47753   9.781   9.019   7.050
 6972POPC   C4A47754   9.772   8.982   7.350
 6972POPC   C1B47755   9.967   9.026   6.450
 6972POPC   C2B47756   9.975   8.950   6.750
 6972POPC   C3B47757   9.976   8.951   7.050
 6972POPC   C4B47758   9.974   8.983   7.350
 6973POPC   NC347759  19.032  17.471   5.550
 6973POPC   PO447760  19.094  17.555   5.850
 6973POPC   GL147761  19.043  17.519   6.150
 6973POPC   GL247762  19.015  17.609   6.150
 6973POPC   C1A47763  19.011  17.503   6.450
 6973POPC   D2A47764  19.032  17.533   6.750
 6973POPC   C3A47765  19.009  17.543   7.050
 6973POPC   C4A47766  19.106  17.497   7.350
 6973POPC   C1B47767  19.007  17.762   6.450
 6973POPC   C2B47768  18.987  17.710   6.750
 6973POPC   C3B47769  19.008  17.713   7.050
 6973POPC   C4B47770  19.017  17.729   7.350
 6974POPC   NC347771   9.755  23.681   5.550
 6974POPC   PO447772   9.796  23.712   5.850
 6974POPC   GL147773   9.737  23.720   6.150
 6974POPC   GL247774   9.682  23.706   6.150
 6974POPC   C1A47775   9.783  23.720   6.450
 6974POPC   D2A47776   9.719  23.691   6.750
 6974POPC   C3A47777   9.779  23.723   7.050
 6974POPC   C4A47778   9.740  23.702   7.350
 6974POPC   C1B47779   9.540  23.616   6.450
 6974POPC   C2B47780   9.485  23.588   6.750
 6974POPC   C3B47781   9.471  23.588   7.050
 6974POPC   C4B47782   9.479  23.648   7.350
 6975POPC   NC347783  29.152  28.354   5.550
 6975POPC   PO447784  29.145  28.411   5.850
 6975POPC   GL147785  29.153  28.411   6.150
 6975POPC   GL247786  29.150  28.216   6.150
 6975POPC   C1A47787  29.189  28.383   6.450
 6975POPC   D2A47788  29.175  28.354   6.750
 6975POPC   C3A47789  29.119  28.394   7.050
 6975POPC   C4A47790  29.155  28.403   7.350
 6975POPC   C1B47791  29.115  28.153   6.450
 6975POPC   C2B47792  29.109  28.165   6.750
 6975POPC   C3B47793  29.116  28.147   7.050
 6975POPC   C4B47794  29.048  28.086   7.350
 6976POPC   NC347795  19.086  33.030   5.550
 6976POPC   PO447796  19.054  33.003   5.850
 6976POPC   GL147797  19.089  32.976   6.150
 6976POPC   GL247798  19.210  33.060   6.150
 6976POPC   C1A47799  19.043  33.006   6.450
 6976POPC   D2A47800  19.038  33.023   6.750
 6976POPC   C3A47801  19.074  33.047   7.050
 6976POPC   C4A47802  19.081  33.035   7.350
 6976POPC   C1B47803  19.322  33.136   6.450
 6976POPC   C2B47804  19.308  33.176   6.750
 6976POPC   C3B47805  19.258  33.124   7.050
 6976POPC   C4B47806  19.318  33.137   7.350
 6977POPC   NC347807  36.144  10.481   5.550
 6977POPC   PO447808  36.151  10.574   5.850
 6977POPC   GL147809  36.144  10.566   6.150
 6977POPC   GL247810  36.173  10.633   6.150
 6977POPC   C1A47811  36.092  10.563   6.450
 6977POPC   D2A47812  36.141  10.510   6.750
 6977POPC   C3A47813  36.169  10.525   7.050
 6977POPC   C4A47814  36.087  10.489   7.350
 6977POPC   C1B47815  36.218  10.714   6.450
 6977POPC   C2B47816  36.243  10.760   6.750
 6977POPC   C3B47817  36.274  10.728   7.050
 6977POPC   C4B47818  36.305  10.768   7.350
 6978POPC   NC347819  36.940   4.268   5.550
 6978POPC   PO447820  36.943   4.346   5.850
 6978POPC   GL147821  36.865   4.316   6.150
 6978POPC   GL247822  36.956   4.215   6.150
 6978POPC   C1A47823  36.859   4.288   6.450
 6978POPC   D2A47824  36.892   4.292   6.750
 6978POPC   C3A47825  36.915   4.276   7.050
 6978POPC   C4A47826  36.915   4.309   7.350
 6978POPC   C1B47827  36.944   4.062   6.450
 6978POPC   C2B47828  36.962   4.107   6.750
 6978POPC   C3B47829  36.953   4.092   7.050
 6978POPC   C4B47830  36.902   4.048   7.350
 6979POPC   NC347831   4.360  11.347   5.550
 6979POPC   PO447832   4.363  11.294   5.850
 6979POPC   GL147833   4.270  11.289   6.150
 6979POPC   GL247834   4.428  11.403   6.150
 6979POPC   C1A47835   4.314  11.271   6.450
 6979POPC   D2A47836   4.299  11.268   6.750
 6979POPC   C3A47837   4.297  11.262   7.050
 6979POPC   C4A47838   4.320  11.332   7.350
 6979POPC   C1B47839   4.425  11.554   6.450
 6979POPC   C2B47840   4.440  11.543   6.750
 6979POPC   C3B47841   4.465  11.516   7.050
 6979POPC   C4B47842   4.455  11.468   7.350
 6980POPC   NC347843  20.654  39.213   5.550
 6980POPC   PO447844  20.606  39.194   5.850
 6980POPC   GL147845  20.589  39.227   6.150
 6980POPC   GL247846  20.691  39.186   6.150
 6980POPC   C1A47847  20.648  39.248   6.450
 6980POPC   D2A47848  20.562  39.229   6.750
 6980POPC   C3A47849  20.589  39.268   7.050
 6980POPC   C4A47850  20.576  39.247   7.350
 6980POPC   C1B47851  20.760  39.060   6.450
 6980POPC   C2B47852  20.810  39.034   6.750
 6980POPC   C3B47853  20.832  39.065   7.050
 6980POPC   C4B47854  20.833  39.014   7.350
 6981POPC   NC347855  21.354  13.649   5.550
 6981POPC   PO447856  21.344  13.591   5.850
 6981POPC   GL147857  21.402  13.671   6.150
 6981POPC   GL247858  21.336  13.490   6.150
 6981POPC   C1A47859  21.346  13.613   6.450
 6981POPC   D2A47860  21.381  13.606   6.750
 6981POPC   C3A47861  21.394  13.626   7.050
 6981POPC   C4A47862  21.385  13.582   7.350
 6981POPC   C1B47863  21.200  13.449   6.450
 6981POPC   C2B47864  21.217  13.465   6.750
 6981POPC   C3B47865  21.201  13.378   7.050
 6981POPC   C4B47866  21.280  13.470   7.350
 6982POPC   NC347867   1.221  37.729   5.550
 6982POPC   PO447868   1.239  37.715   5.850
 6982POPC   GL147869   1.237  37.714   6.150
 6982POPC   GL247870   1.242  37.816   6.150
 6982POPC   C1A47871   1.216  37.659   6.450
 6982POPC   D2A47872   1.258  37.677   6.750
 6982POPC   C3A47873   1.199  37.704   7.050
 6982POPC   C4A47874   1.214  37.633   7.350
 6982POPC   C1B47875   1.240  37.942   6.450
 6982POPC   C2B47876   1.228  37.885   6.750
 6982POPC   C3B47877   1.216  37.921   7.050
 6982POPC   C4B47878   1.210  37.939   7.350
 6983POPC   NC347879  36.146  29.157   5.550
 6983POPC   PO447880  36.169  29.184   5.850
 6983POPC   GL147881  36.135  29.162   6.150
 6983POPC   GL247882  36.151  29.237   6.150
 6983POPC   C1A47883  36.145  29.187   6.450
 6983POPC   D2A47884  36.146  29.116   6.750
 6983POPC   C3A47885  36.176  29.136   7.050
 6983POPC   C4A47886  36.121  29.166   7.350
 6983POPC   C1B47887  36.242  29.363   6.450
 6983POPC   C2B47888  36.227  29.415   6.750
 6983POPC   C3B47889  36.224  29.365   7.050
 6983POPC   C4B47890  36.246  29.329   7.350
 6984POPC   NC347891  41.550  20.611   5.550
 6984POPC   PO447892  41.572  20.642   5.850
 6984POPC   GL147893  41.536  20.651   6.150
 6984POPC   GL247894  41.661  20.699   6.150
 6984POPC   C1A47895  41.530  20.639   6.450
 6984POPC   D2A47896  41.600  20.621   6.750
 6984POPC   C3A47897  41.519  20.572   7.050
 6984POPC   C4A47898  41.546  20.598   7.350
 6984POPC   C1B47899  41.771  20.674   6.450
 6984POPC   C2B47900  41.797  20.750   6.750
 6984POPC   C3B47901  41.762  20.729   7.050
 6984POPC   C4B47902  41.805  20.749   7.350
 6985POPC   NC347903   5.831  26.859   5.550
 6985POPC   PO447904   5.904  26.788   5.850
 6985POPC   GL147905   5.861  26.802   6.150
 6985POPC   GL247906   5.994  26.921   6.150
 6985POPC   C1A47907   5.881  26.840   6.450
 6985POPC   D2A47908   5.821  26.854   6.750
 6985POPC   C3A47909   5.903  26.853   7.050
 6985POPC   C4A47910   5.898  26.774   7.350
 6985POPC   C1B47911   6.061  26.923   6.450
 6985POPC   C2B47912   6.124  26.924   6.750
 6985POPC   C3B47913   6.045  26.921   7.050
 6985POPC   C4B47914   6.137  26.968   7.350
 6986POPC   NC347915   7.392  12.084   5.550
 6986POPC   PO447916   7.444  12.107   5.850
 6986POPC   GL147917   7.401  12.042   6.150
 6986POPC   GL247918   7.495  12.069   6.150
 6986POPC   C1A47919   7.399  12.091   6.450
 6986POPC   D2A47920   7.405  12.079   6.750
 6986POPC   C3A47921   7.435  12.087   7.050
 6986POPC   C4A47922   7.414  12.100   7.350
 6986POPC   C1B47923   7.618  12.038   6.450
 6986POPC   C2B47924   7.622  12.030   6.750
 6986POPC   C3B47925   7.622  12.022   7.050
 6986POPC   C4B47926   7.704  11.977   7.350
 6987POPC   NC347927  19.857   7.392   5.550
 6987POPC   PO447928  19.824   7.438   5.850
 6987POPC   GL147929  19.858   7.389   6.150
 6987POPC   GL247930  19.915   7.349   6.150
 6987POPC   C1A47931  19.801   7.375   6.450
 6987POPC   D2A47932  19.875   7.453   6.750
 6987POPC   C3A47933  19.799   7.429   7.050
 6987POPC   C4A47934  19.823   7.410   7.350
 6987POPC   C1B47935  20.067   7.350   6.450
 6987POPC   C2B47936  20.093   7.265   6.750
 6987POPC   C3B47937  20.060   7.271   7.050
 6987POPC   C4B47938  20.045   7.315   7.350
 6988POPC   NC347939  33.847  29.882   5.550
 6988POPC   PO447940  33.788  29.919   5.850
 6988POPC   GL147941  33.754  29.875   6.150
 6988POPC   GL247942  33.765  29.843   6.150
 6988POPC   C1A47943  33.799  29.969   6.450
 6988POPC   D2A47944  33.761  29.879   6.750
 6988POPC   C3A47945  33.786  29.946   7.050
 6988POPC   C4A47946  33.755  29.929   7.350
 6988POPC   C1B47947  33.713  29.733   6.450
 6988POPC   C2B47948  33.721  29.647   6.750
 6988POPC   C3B47949  33.704  29.702   7.050
 6988POPC   C4B47950  33.714  29.655   7.350
 6989POPC   NC347951  36.082  13.580   5.550
 6989POPC   PO447952  36.172  13.599   5.850
 6989POPC   GL147953  36.148  13.647   6.150
 6989POPC   GL247954  36.114  13.473   6.150
 6989POPC   C1A47955  36.159  13.601   6.450
 6989POPC   D2A47956  36.086  13.616   6.750
 6989POPC   C3A47957  36.121  13.582   7.050
 6989POPC   C4A47958  36.143  13.647   7.350
 6989POPC   C1B47959  36.176  13.416   6.450
 6989POPC   C2B47960  36.143  13.416   6.750
 6989POPC   C3B47961  36.168  13.385   7.050
 6989POPC   C4B47962  36.133  13.380   7.350
 6990POPC   NC347963  14.449  26.852   5.550
 6990POPC   PO447964  14.426  26.833   5.850
 6990POPC   GL147965  14.425  26.796   6.150
 6990POPC   GL247966  14.240  26.787   6.150
 6990POPC   C1A47967  14.427  26.823   6.450
 6990POPC   D2A47968  14.405  26.829   6.750
 6990POPC   C3A47969  14.407  26.786   7.050
 6990POPC   C4A47970  14.395  26.854   7.350
 6990POPC   C1B47971  14.176  26.752   6.450
 6990POPC   C2B47972  14.189  26.717   6.750
 6990POPC   C3B47973  14.148  26.769   7.050
 6990POPC   C4B47974  14.211  26.785   7.350
 6991POPC   NC347975  24.516   0.466   5.550
 6991POPC   PO447976  24.539   0.465   5.850
 6991POPC   GL147977  24.487   0.424   6.150
 6991POPC   GL247978  24.625   0.345   6.150
 6991POPC   C1A47979  24.463   0.451   6.450
 6991POPC   D2A47980  24.452   0.472   6.750
 6991POPC   C3A47981  24.450   0.390   7.050
 6991POPC   C4A47982  24.503   0.468   7.350
 6991POPC   C1B47983  24.740   0.359   6.450
 6991POPC   C2B47984  24.754   0.351   6.750
 6991POPC   C3B47985  24.755   0.379   7.050
 6991POPC   C4B47986  24.750   0.319   7.350
 6992POPC   NC347987  19.047  15.975   5.550
 6992POPC   PO447988  19.107  15.936   5.850
 6992POPC   GL147989  19.059  15.981   6.150
 6992POPC   GL247990  19.223  15.935   6.150
 6992POPC   C1A47991  19.075  16.002   6.450
 6992POPC   D2A47992  19.074  16.002   6.750
 6992POPC   C3A47993  19.099  15.910   7.050
 6992POPC   C4A47994  19.062  15.971   7.350
 6992POPC   C1B47995  19.319  15.963   6.450
 6992POPC   C2B47996  19.316  15.936   6.750
 6992POPC   C3B47997  19.355  15.929   7.050
 6992POPC   C4B47998  19.288  15.933   7.350
 6993POPC   NC347999  40.020  38.476   5.550
 6993POPC   PO448000  39.987  38.412   5.850
 6993POPC   GL148001  40.030  38.462   6.150
 6993POPC   GL248002  40.090  38.612   6.150
 6993POPC   C1A48003  40.013  38.434   6.450
 6993POPC   D2A48004  40.042  38.501   6.750
 6993POPC   C3A48005  40.006  38.425   7.050
 6993POPC   C4A48006  40.000  38.486   7.350
 6993POPC   C1B48007  40.076  38.716   6.450
 6993POPC   C2B48008  40.038  38.646   6.750
 6993POPC   C3B48009  40.079  38.743   7.050
 6993POPC   C4B48010  40.042  38.697   7.350
 6994POPC   NC348011   1.186   3.492   5.550
 6994POPC   PO448012   1.209   3.510   5.850
 6994POPC   GL148013   1.170   3.570   6.150
 6994POPC   GL248014   1.288   3.528   6.150
 6994POPC   C1A48015   1.173   3.564   6.450
 6994POPC   D2A48016   1.200   3.580   6.750
 6994POPC   C3A48017   1.260   3.544   7.050
 6994POPC   C4A48018   1.204   3.568   7.350
 6994POPC   C1B48019   1.423   3.439   6.450
 6994POPC   C2B48020   1.489   3.458   6.750
 6994POPC   C3B48021   1.482   3.449   7.050
 6994POPC   C4B48022   1.414   3.465   7.350
 6995POPC   NC348023  26.865   7.401   5.550
 6995POPC   PO448024  26.777   7.449   5.850
 6995POPC   GL148025  26.803   7.437   6.150
 6995POPC   GL248026  26.697   7.541   6.150
 6995POPC   C1A48027  26.850   7.386   6.450
 6995POPC   D2A48028  26.769   7.426   6.750
 6995POPC   C3A48029  26.862   7.437   7.050
 6995POPC   C4A48030  26.841   7.396   7.350
 6995POPC   C1B48031  26.654   7.612   6.450
 6995POPC   C2B48032  26.618   7.548   6.750
 6995POPC   C3B48033  26.578   7.629   7.050
 6995POPC   C4B48034  26.642   7.577   7.350
 6996POPC   NC348035   3.549  15.132   5.550
 6996POPC   PO448036   3.536  15.193   5.850
 6996POPC   GL148037   3.492  15.170   6.150
 6996POPC   GL248038   3.557  15.107   6.150
 6996POPC   C1A48039   3.531  15.201   6.450
 6996POPC   D2A48040   3.501  15.174   6.750
 6996POPC   C3A48041   3.540  15.193   7.050
 6996POPC   C4A48042   3.512  15.154   7.350
 6996POPC   C1B48043   3.486  14.962   6.450
 6996POPC   C2B48044   3.451  14.925   6.750
 6996POPC   C3B48045   3.434  14.915   7.050
 6996POPC   C4B48046   3.505  14.986   7.350
 6997POPC   NC348047  22.202  40.028   5.550
 6997POPC   PO448048  22.173  39.990   5.850
 6997POPC   GL148049  22.165  40.036   6.150
 6997POPC   GL248050  22.286  40.050   6.150
 6997POPC   C1A48051  22.192  40.017   6.450
 6997POPC   D2A48052  22.210  39.989   6.750
 6997POPC   C3A48053  22.186  39.990   7.050
 6997POPC   C4A48054  22.188  40.020   7.350
 6997POPC   C1B48055  22.404  40.051   6.450
 6997POPC   C2B48056  22.445  40.051   6.750
 6997POPC   C3B48057  22.419  39.988   7.050
 6997POPC   C4B48058  22.434  40.013   7.350
 6998POPC   NC348059  22.193  40.772   5.550
 6998POPC   PO448060  22.123  40.792   5.850
 6998POPC   GL148061  22.125  40.776   6.150
 6998POPC   GL248062  22.300  40.797   6.150
 6998POPC   C1A48063  22.134  40.786   6.450
 6998POPC   D2A48064  22.189  40.807   6.750
 6998POPC   C3A48065  22.203  40.748   7.050
 6998POPC   C4A48066  22.163  40.786   7.350
 6998POPC   C1B48067  22.419  40.792   6.450
 6998POPC   C2B48068  22.434  40.739   6.750
 6998POPC   C3B48069  22.379  40.729   7.050
 6998POPC   C4B48070  22.388  40.772   7.350
 6999POPC   NC348071  32.984  26.844   5.550
 6999POPC   PO448072  33.001  26.833   5.850
 6999POPC   GL148073  33.069  26.864   6.150
 6999POPC   GL248074  33.109  26.907   6.150
 6999POPC   C1A48075  33.059  26.784   6.450
 6999POPC   D2A48076  33.007  26.799   6.750
 6999POPC   C3A48077  33.065  26.784   7.050
 6999POPC   C4A48078  33.060  26.835   7.350
 6999POPC   C1B48079  33.188  27.002   6.450
 6999POPC   C2B48080  33.190  27.013   6.750
 6999POPC   C3B48081  33.170  27.056   7.050
 6999POPC   C4B48082  33.161  27.004   7.350
 7000POPC   NC348083  15.219  19.788   5.550
 7000POPC   PO448084  15.159  19.862   5.850
 7000POPC   GL148085  15.212  19.846   6.150
 7000POPC   GL248086  15.068  19.781   6.150
 7000POPC   C1A48087  15.223  19.823   6.450
 7000POPC   D2A48088  15.144  19.799   6.750
 7000POPC   C3A48089  15.198  19.872   7.050
 7000POPC   C4A48090  15.200  19.810   7.350
 7000POPC   C1B48091  14.916  19.817   6.450
 7000POPC   C2B48092  14.919  19.821   6.750
 7000POPC   C3B48093  14.944  19.767   7.050
 7000POPC   C4B48094  14.930  19.768   7.350
 7001POPC   NC348095   0.406  27.560   5.550
 7001POPC   PO448096   0.424  27.581   5.850
 7001POPC   GL148097   0.425  27.550   6.150
 7001POPC   GL248098   0.410  27.729   6.150
 7001POPC   C1A48099   0.397  27.555   6.450
 7001POPC   D2A48100   0.458  27.584   6.750
 7001POPC   C3A48101   0.469  27.569   7.050
 7001POPC   C4A48102   0.462  27.617   7.350
 7001POPC   C1B48103   0.243  27.801   6.450
 7001POPC   C2B48104   0.238  27.764   6.750
 7001POPC   C3B48105   0.298  27.826   7.050
 7001POPC   C4B48106   0.300  27.808   7.350
 7002POPC   NC348107  26.790  36.144   5.550
 7002POPC   PO448108  26.798  36.155   5.850
 7002POPC   GL148109  26.768  36.151   6.150
 7002POPC   GL248110  26.854  36.037   6.150
 7002POPC   C1A48111  26.801  36.107   6.450
 7002POPC   D2A48112  26.805  36.155   6.750
 7002POPC   C3A48113  26.851  36.136   7.050
 7002POPC   C4A48114  26.855  36.168   7.350
 7002POPC   C1B48115  26.841  35.892   6.450
 7002POPC   C2B48116  26.865  35.887   6.750
 7002POPC   C3B48117  26.854  35.914   7.050
 7002POPC   C4B48118  26.863  35.853   7.350
 7003POPC   NC348119   8.974  19.073   5.550
 7003POPC   PO448120   8.938  19.024   5.850
 7003POPC   GL148121   8.928  19.031   6.150
 7003POPC   GL248122   8.933  19.203   6.150
 7003POPC   C1A48123   8.986  19.048   6.450
 7003POPC   D2A48124   8.984  19.059   6.750
 7003POPC   C3A48125   9.001  19.072   7.050
 7003POPC   C4A48126   9.003  19.056   7.350
 7003POPC   C1B48127   8.890  19.274   6.450
 7003POPC   C2B48128   8.896  19.258   6.750
 7003POPC   C3B48129   8.806  19.230   7.050
 7003POPC   C4B48130   8.816  19.296   7.350
 7004POPC   NC348131  12.067   3.509   5.550
 7004POPC   PO448132  12.112   3.505   5.850
 7004POPC   GL148133  12.122   3.583   6.150
 7004POPC   GL248134  11.944   3.615   6.150
 7004POPC   C1A48135  12.069   3.507   6.450
 7004POPC   D2A48136  12.047   3.511   6.750
 7004POPC   C3A48137  12.035   3.577   7.050
 7004POPC   C4A48138  12.027   3.539   7.350
 7004POPC   C1B48139  11.831   3.647   6.450
 7004POPC   C2B48140  11.844   3.702   6.750
 7004POPC   C3B48141  11.833   3.688   7.050
 7004POPC   C4B48142  11.899   3.708   7.350
 7005POPC   NC348143  15.220  31.425   5.550
 7005POPC   PO448144  15.162  31.481   5.850
 7005POPC   GL148145  15.205  31.440   6.150
 7005POPC   GL248146  15.229  31.557   6.150
 7005POPC   C1A48147  15.203  31.468   6.450
 7005POPC   D2A48148  15.179  31.440   6.750
 7005POPC   C3A48149  15.220  31.476   7.050
 7005POPC   C4A48150  15.174  31.473   7.350
 7005POPC   C1B48151  15.305  31.628   6.450
 7005POPC   C2B48152  15.381  31.630   6.750
 7005POPC   C3B48153  15.316  31.670   7.050
 7005POPC   C4B48154  15.373  31.696   7.350
 7006POPC   NC348155  11.316   6.629   5.550
 7006POPC   PO448156  11.344   6.616   5.850
 7006POPC   GL148157  11.284   6.621   6.150
 7006POPC   GL248158  11.174   6.675   6.150
 7006POPC   C1A48159  11.310   6.694   6.450
 7006POPC   D2A48160  11.289   6.663   6.750
 7006POPC   C3A48161  11.349   6.608   7.050
 7006POPC   C4A48162  11.322   6.680   7.350
 7006POPC   C1B48163  11.045   6.708   6.450
 7006POPC   C2B48164  11.090   6.671   6.750
 7006POPC   C3B48165  11.046   6.708   7.050
 7006POPC   C4B48166  11.068   6.692   7.350
 7007POPC   NC348167   8.996   1.956   5.550
 7007POPC   PO448168   9.010   1.995   5.850
 7007POPC   GL148169   8.971   1.961   6.150
 7007POPC   GL248170   8.958   2.070   6.150
 7007POPC   C1A48171   8.943   1.962   6.450
 7007POPC   D2A48172   8.940   2.024   6.750
 7007POPC   C3A48173   8.942   2.014   7.050
 7007POPC   C4A48174   8.937   2.018   7.350
 7007POPC   C1B48175   9.028   2.256   6.450
 7007POPC   C2B48176   9.039   2.263   6.750
 7007POPC   C3B48177   9.008   2.252   7.050
 7007POPC   C4B48178   9.045   2.203   7.350
 7008POPC   NC348179  17.528  21.337   5.550
 7008POPC   PO448180  17.464  21.436   5.850
 7008POPC   GL148181  17.532  21.343   6.150
 7008POPC   GL248182  17.410  21.502   6.150
 7008POPC   C1A48183  17.466  21.376   6.450
 7008POPC   D2A48184  17.527  21.363   6.750
 7008POPC   C3A48185  17.557  21.393   7.050
 7008POPC   C4A48186  17.507  21.393   7.350
 7008POPC   C1B48187  17.414  21.593   6.450
 7008POPC   C2B48188  17.443  21.645   6.750
 7008POPC   C3B48189  17.393  21.633   7.050
 7008POPC   C4B48190  17.441  21.623   7.350
 7009POPC   NC348191  16.703   2.758   5.550
 7009POPC   PO448192  16.711   2.768   5.850
 7009POPC   GL148193  16.765   2.755   6.150
 7009POPC   GL248194  16.828   2.840   6.150
 7009POPC   C1A48195  16.742   2.752   6.450
 7009POPC   D2A48196  16.702   2.751   6.750
 7009POPC   C3A48197  16.719   2.803   7.050
 7009POPC   C4A48198  16.684   2.767   7.350
 7009POPC   C1B48199  16.913   2.944   6.450
 7009POPC   C2B48200  16.869   3.005   6.750
 7009POPC   C3B48201  16.825   2.943   7.050
 7009POPC   C4B48202  16.907   3.006   7.350
 7010POPC   NC348203   2.720  42.379   5.550
 7010POPC   PO448204   2.727  42.374   5.850
 7010POPC   GL148205   2.791  42.345   6.150
 7010POPC   GL248206   2.711  42.206   6.150
 7010POPC   C1A48207   2.776  42.353   6.450
 7010POPC   D2A48208   2.809  42.374   6.750
 7010POPC   C3A48209   2.745  42.347   7.050
 7010POPC   C4A48210   2.813  42.379   7.350
 7010POPC   C1B48211   2.651  42.148   6.450
 7010POPC   C2B48212   2.690  42.145   6.750
 7010POPC   C3B48213   2.603  42.113   7.050
 7010POPC   C4B48214   2.613  42.140   7.350
 7011POPC   NC348215  40.789  25.236   5.550
 7011POPC   PO448216  40.800  25.253   5.850
 7011POPC   GL148217  40.751  25.274   6.150
 7011POPC   GL248218  40.665  25.138   6.150
 7011POPC   C1A48219  40.780  25.282   6.450
 7011POPC   D2A48220  40.811  25.259   6.750
 7011POPC   C3A48221  40.769  25.301   7.050
 7011POPC   C4A48222  40.795  25.269   7.350
 7011POPC   C1B48223  40.585  25.144   6.450
 7011POPC   C2B48224  40.578  25.071   6.750
 7011POPC   C3B48225  40.570  25.138   7.050
 7011POPC   C4B48226  40.603  25.093   7.350
 7012POPC   NC348227  43.156  44.682   5.550
 7012POPC   PO448228  43.101  44.670   5.850
 7012POPC   GL148229  43.083  44.621   6.150
 7012POPC   GL248230  43.162  44.741   6.150
 7012POPC   C1A48231  43.101  44.640   6.450
 7012POPC   D2A48232  43.088  44.664   6.750
 7012POPC   C3A48233  43.109  44.704   7.050
 7012POPC   C4A48234  43.123  44.650   7.350
 7012POPC   C1B48235  43.296  44.837   6.450
 7012POPC   C2B48236  43.317  44.831   6.750
 7012POPC   C3B48237  43.251  44.868   7.050
 7012POPC   C4B48238  43.310  44.824   7.350
 7013POPC   NC348239  11.305  29.880   5.550
 7013POPC   PO448240  11.295  29.938   5.850
 7013POPC   GL148241  11.317  29.882   6.150
 7013POPC   GL248242  11.362  29.988   6.150
 7013POPC   C1A48243  11.331  29.873   6.450
 7013POPC   D2A48244  11.286  29.952   6.750
 7013POPC   C3A48245  11.336  29.945   7.050
 7013POPC   C4A48246  11.285  29.942   7.350
 7013POPC   C1B48247  11.520  30.148   6.450
 7013POPC   C2B48248  11.448  30.098   6.750
 7013POPC   C3B48249  11.509  30.101   7.050
 7013POPC   C4B48250  11.432  30.060   7.350
 7014POPC   NC348251  38.492  22.906   5.550
 7014POPC   PO448252  38.469  22.971   5.850
 7014POPC   GL148253  38.472  22.891   6.150
 7014POPC   GL248254  38.510  22.840   6.150
 7014POPC   C1A48255  38.484  22.973   6.450
 7014POPC   D2A48256  38.437  22.916   6.750
 7014POPC   C3A48257  38.459  22.906   7.050
 7014POPC   C4A48258  38.415  22.976   7.350
 7014POPC   C1B48259  38.636  22.832   6.450
 7014POPC   C2B48260  38.662  22.829   6.750
 7014POPC   C3B48261  38.624  22.830   7.050
 7014POPC   C4B48262  38.645  22.773   7.350
 7015POPC   NC348263  19.796   1.978   5.550
 7015POPC   PO448264  19.828   1.959   5.850
 7015POPC   GL148265  19.835   1.988   6.150
 7015POPC   GL248266  19.728   2.034   6.150
 7015POPC   C1A48267  19.849   2.035   6.450
 7015POPC   D2A48268  19.843   1.940   6.750
 7015POPC   C3A48269  19.810   1.963   7.050
 7015POPC   C4A48270  19.877   1.995   7.350
 7015POPC   C1B48271  19.635   2.137   6.450
 7015POPC   C2B48272  19.632   2.122   6.750
 7015POPC   C3B48273  19.666   2.159   7.050
 7015POPC   C4B48274  19.620   2.192   7.350
 7016POPC   NC348275  18.243  16.694   5.550
 7016POPC   PO448276  18.295  16.765   5.850
 7016POPC   GL148277  18.309  16.734   6.150
 7016POPC   GL248278  18.432  16.747   6.150
 7016POPC   C1A48279  18.263  16.698   6.450
 7016POPC   D2A48280  18.320  16.711   6.750
 7016POPC   C3A48281  18.280  16.780   7.050
 7016POPC   C4A48282  18.260  16.689   7.350
 7016POPC   C1B48283  18.566  16.751   6.450
 7016POPC   C2B48284  18.534  16.708   6.750
 7016POPC   C3B48285  18.556  16.761   7.050
 7016POPC   C4B48286  18.543  16.732   7.350
 7017POPC   NC348287  15.179  29.967   5.550
 7017POPC   PO448288  15.187  29.909   5.850
 7017POPC   GL148289  15.148  29.945   6.150
 7017POPC   GL248290  15.270  30.038   6.150
 7017POPC   C1A48291  15.221  29.915   6.450
 7017POPC   D2A48292  15.135  29.882   6.750
 7017POPC   C3A48293  15.169  29.874   7.050
 7017POPC   C4A48294  15.193  29.968   7.350
 7017POPC   C1B48295  15.294  30.173   6.450
 7017POPC   C2B48296  15.275  30.153   6.750
 7017POPC   C3B48297  15.253  30.180   7.050
 7017POPC   C4B48298  15.309  30.150   7.350
 7018POPC   NC348299   7.399   2.749   5.550
 7018POPC   PO448300   7.387   2.801   5.850
 7018POPC   GL148301   7.391   2.750   6.150
 7018POPC   GL248302   7.411   2.644   6.150
 7018POPC   C1A48303   7.419   2.743   6.450
 7018POPC   D2A48304   7.464   2.750   6.750
 7018POPC   C3A48305   7.421   2.780   7.050
 7018POPC   C4A48306   7.373   2.755   7.350
 7018POPC   C1B48307   7.418   2.548   6.450
 7018POPC   C2B48308   7.410   2.474   6.750
 7018POPC   C3B48309   7.438   2.509   7.050
 7018POPC   C4B48310   7.433   2.511   7.350
 7019POPC   NC348311  16.739   3.515   5.550
 7019POPC   PO448312  16.748   3.546   5.850
 7019POPC   GL148313  16.759   3.562   6.150
 7019POPC   GL248314  16.822   3.494   6.150
 7019POPC   C1A48315  16.694   3.591   6.450
 7019POPC   D2A48316  16.704   3.514   6.750
 7019POPC   C3A48317  16.775   3.550   7.050
 7019POPC   C4A48318  16.737   3.498   7.350
 7019POPC   C1B48319  17.026   3.452   6.450
 7019POPC   C2B48320  16.978   3.480   6.750
 7019POPC   C3B48321  16.964   3.500   7.050
 7019POPC   C4B48322  16.928   3.499   7.350
 7020POPC   NC348323   1.961  40.028   5.550
 7020POPC   PO448324   1.958  39.995   5.850
 7020POPC   GL148325   1.979  40.028   6.150
 7020POPC   GL248326   1.941  40.090   6.150
 7020POPC   C1A48327   1.987  40.011   6.450
 7020POPC   D2A48328   2.024  40.032   6.750
 7020POPC   C3A48329   1.961  40.015   7.050
 7020POPC   C4A48330   1.943  40.049   7.350
 7020POPC   C1B48331   2.009  40.274   6.450
 7020POPC   C2B48332   1.958  40.277   6.750
 7020POPC   C3B48333   1.990  40.254   7.050
 7020POPC   C4B48334   1.995  40.208   7.350
 7021POPC   NC348335  30.725  15.163   5.550
 7021POPC   PO448336  30.744  15.209   5.850
 7021POPC   GL148337  30.662  15.212   6.150
 7021POPC   GL248338  30.669  15.037   6.150
 7021POPC   C1A48339  30.728  15.225   6.450
 7021POPC   D2A48340  30.659  15.190   6.750
 7021POPC   C3A48341  30.657  15.219   7.050
 7021POPC   C4A48342  30.665  15.206   7.350
 7021POPC   C1B48343  30.611  14.980   6.450
 7021POPC   C2B48344  30.653  14.898   6.750
 7021POPC   C3B48345  30.582  14.924   7.050
 7021POPC   C4B48346  30.642  14.914   7.350
 7022POPC   NC348347  12.839   3.591   5.550
 7022POPC   PO448348  12.809   3.503   5.850
 7022POPC   GL148349  12.858   3.561   6.150
 7022POPC   GL248350  12.781   3.380   6.150
 7022POPC   C1A48351  12.807   3.497   6.450
 7022POPC   D2A48352  12.880   3.591   6.750
 7022POPC   C3A48353  12.812   3.501   7.050
 7022POPC   C4A48354  12.845   3.492   7.350
 7022POPC   C1B48355  12.843   3.295   6.450
 7022POPC   C2B48356  12.763   3.299   6.750
 7022POPC   C3B48357  12.820   3.265   7.050
 7022POPC   C4B48358  12.758   3.289   7.350
 7023POPC   NC348359  36.166  28.415   5.550
 7023POPC   PO448360  36.115  28.325   5.850
 7023POPC   GL148361  36.111  28.403   6.150
 7023POPC   GL248362  36.098  28.516   6.150
 7023POPC   C1A48363  36.124  28.405   6.450
 7023POPC   D2A48364  36.115  28.326   6.750
 7023POPC   C3A48365  36.123  28.395   7.050
 7023POPC   C4A48366  36.097  28.410   7.350
 7023POPC   C1B48367  36.195  28.636   6.450
 7023POPC   C2B48368  36.142  28.627   6.750
 7023POPC   C3B48369  36.134  28.596   7.050
 7023POPC   C4B48370  36.141  28.589   7.350
 7024POPC   NC348371   5.084  34.563   5.550
 7024POPC   PO448372   5.091  34.608   5.850
 7024POPC   GL148373   5.114  34.560   6.150
 7024POPC   GL248374   5.143  34.733   6.150
 7024POPC   C1A48375   5.095  34.625   6.450
 7024POPC   D2A48376   5.097  34.607   6.750
 7024POPC   C3A48377   5.092  34.555   7.050
 7024POPC   C4A48378   5.120  34.593   7.350
 7024POPC   C1B48379   5.163  34.788   6.450
 7024POPC   C2B48380   5.194  34.845   6.750
 7024POPC   C3B48381   5.195  34.804   7.050
 7024POPC   C4B48382   5.220  34.849   7.350
 7025POPC   NC348383   1.211  35.325   5.550
 7025POPC   PO448384   1.246  35.326   5.850
 7025POPC   GL148385   1.263  35.400   6.150
 7025POPC   GL248386   1.192  35.227   6.150
 7025POPC   C1A48387   1.184  35.356   6.450
 7025POPC   D2A48388   1.180  35.375   6.750
 7025POPC   C3A48389   1.238  35.349   7.050
 7025POPC   C4A48390   1.189  35.344   7.350
 7025POPC   C1B48391   1.231  35.088   6.450
 7025POPC   C2B48392   1.246  35.096   6.750
 7025POPC   C3B48393   1.216  35.094   7.050
 7025POPC   C4B48394   1.260  35.059   7.350
 7026POPC   NC348395  44.648  33.829   5.550
 7026POPC   PO448396  44.689  33.800   5.850
 7026POPC   GL148397  44.670  33.811   6.150
 7026POPC   GL248398  44.697  33.951   6.150
 7026POPC   C1A48399  44.679  33.823   6.450
 7026POPC   D2A48400  44.660  33.761   6.750
 7026POPC   C3A48401  44.642  33.750   7.050
 7026POPC   C4A48402  44.616  33.795   7.350
 7026POPC   C1B48403  44.753  34.024   6.450
 7026POPC   C2B48404  44.771  34.053   6.750
 7026POPC   C3B48405  44.706  34.012   7.050
 7026POPC   C4B48406  44.770  34.006   7.350
 7027POPC   NC348407   1.166  22.138   5.550
 7027POPC   PO448408   1.177  22.206   5.850
 7027POPC   GL148409   1.170  22.171   6.150
 7027POPC   GL248410   1.118  22.272   6.150
 7027POPC   C1A48411   1.179  22.184   6.450
 7027POPC   D2A48412   1.168  22.191   6.750
 7027POPC   C3A48413   1.164  22.149   7.050
 7027POPC   C4A48414   1.238  22.185   7.350
 7027POPC   C1B48415   1.076  22.392   6.450
 7027POPC   C2B48416   1.105  22.421   6.750
 7027POPC   C3B48417   1.097  22.353   7.050
 7027POPC   C4B48418   1.138  22.414   7.350
 7028POPC   NC348419  36.087  26.785   5.550
 7028POPC   PO448420  36.114  26.809   5.850
 7028POPC   GL148421  36.121  26.858   6.150
 7028POPC   GL248422  36.224  26.864   6.150
 7028POPC   C1A48423  36.089  26.778   6.450
 7028POPC   D2A48424  36.098  26.813   6.750
 7028POPC   C3A48425  36.132  26.843   7.050
 7028POPC   C4A48426  36.114  26.821   7.350
 7028POPC   C1B48427  36.316  26.940   6.450
 7028POPC   C2B48428  36.297  26.962   6.750
 7028POPC   C3B48429  36.321  26.986   7.050
 7028POPC   C4B48430  36.321  26.941   7.350
 7029POPC   NC348431  25.247  34.588   5.550
 7029POPC   PO448432  25.268  34.538   5.850
 7029POPC   GL148433  25.248  34.569   6.150
 7029POPC   GL248434  25.169  34.571   6.150
 7029POPC   C1A48435  25.237  34.549   6.450
 7029POPC   D2A48436  25.261  34.587   6.750
 7029POPC   C3A48437  25.305  34.592   7.050
 7029POPC   C4A48438  25.300  34.624   7.350
 7029POPC   C1B48439  25.059  34.531   6.450
 7029POPC   C2B48440  25.054  34.512   6.750
 7029POPC   C3B48441  24.992  34.504   7.050
 7029POPC   C4B48442  25.019  34.524   7.350
 7030POPC   NC348443  15.918   0.423   5.550
 7030POPC   PO448444  15.946   0.404   5.850
 7030POPC   GL148445  15.970   0.453   6.150
 7030POPC   GL248446  16.034   0.360   6.150
 7030POPC   C1A48447  15.960   0.458   6.450
 7030POPC   D2A48448  15.989   0.436   6.750
 7030POPC   C3A48449  15.958   0.468   7.050
 7030POPC   C4A48450  15.965   0.467   7.350
 7030POPC   C1B48451  16.128   0.302   6.450
 7030POPC   C2B48452  16.117   0.337   6.750
 7030POPC   C3B48453  16.138   0.341   7.050
 7030POPC   C4B48454  16.138   0.267   7.350
 7031POPC   NC348455   5.079  36.132   5.550
 7031POPC   PO448456   5.097  36.148   5.850
 7031POPC   GL148457   5.136  36.166   6.150
 7031POPC   GL248458   5.232  36.153   6.150
 7031POPC   C1A48459   5.066  36.162   6.450
 7031POPC   D2A48460   5.091  36.141   6.750
 7031POPC   C3A48461   5.128  36.177   7.050
 7031POPC   C4A48462   5.047  36.080   7.350
 7031POPC   C1B48463   5.299  36.193   6.450
 7031POPC   C2B48464   5.305  36.201   6.750
 7031POPC   C3B48465   5.338  36.206   7.050
 7031POPC   C4B48466   5.308  36.174   7.350
 7032POPC   NC348467  15.171  26.779   5.550
 7032POPC   PO448468  15.198  26.772   5.850
 7032POPC   GL148469  15.136  26.817   6.150
 7032POPC   GL248470  15.292  26.820   6.150
 7032POPC   C1A48471  15.131  26.803   6.450
 7032POPC   D2A48472  15.158  26.831   6.750
 7032POPC   C3A48473  15.226  26.804   7.050
 7032POPC   C4A48474  15.224  26.839   7.350
 7032POPC   C1B48475  15.389  26.743   6.450
 7032POPC   C2B48476  15.422  26.800   6.750
 7032POPC   C3B48477  15.405  26.792   7.050
 7032POPC   C4B48478  15.396  26.780   7.350
 7033POPC   NC348479  19.878  36.172   5.550
 7033POPC   PO448480  19.851  36.116   5.850
 7033POPC   GL148481  19.851  36.120   6.150
 7033POPC   GL248482  19.784  35.975   6.150
 7033POPC   C1A48483  19.859  36.108   6.450
 7033POPC   D2A48484  19.850  36.158   6.750
 7033POPC   C3A48485  19.831  36.082   7.050
 7033POPC   C4A48486  19.820  36.128   7.350
 7033POPC   C1B48487  19.675  35.956   6.450
 7033POPC   C2B48488  19.718  35.872   6.750
 7033POPC   C3B48489  19.670  35.879   7.050
 7033POPC   C4B48490  19.725  35.874   7.350
 7034POPC   NC348491  26.037  20.660   5.550
 7034POPC   PO448492  26.052  20.569   5.850
 7034POPC   GL148493  26.088  20.593   6.150
 7034POPC   GL248494  26.115  20.458   6.150
 7034POPC   C1A48495  26.033  20.575   6.450
 7034POPC   D2A48496  26.072  20.617   6.750
 7034POPC   C3A48497  26.088  20.632   7.050
 7034POPC   C4A48498  25.994  20.583   7.350
 7034POPC   C1B48499  26.091  20.331   6.450
 7034POPC   C2B48500  26.141  20.326   6.750
 7034POPC   C3B48501  26.130  20.399   7.050
 7034POPC   C4B48502  26.138  20.376   7.350
 7035POPC   NC348503  12.880   0.438   5.550
 7035POPC   PO448504  12.845   0.474   5.850
 7035POPC   GL148505  12.864   0.426   6.150
 7035POPC   GL248506  12.834   0.283   6.150
 7035POPC   C1A48507  12.882   0.456   6.450
 7035POPC   D2A48508  12.821   0.473   6.750
 7035POPC   C3A48509  12.879   0.435   7.050
 7035POPC   C4A48510  12.892   0.483   7.350
 7035POPC   C1B48511  12.732   0.180   6.450
 7035POPC   C2B48512  12.723   0.198   6.750
 7035POPC   C3B48513  12.733   0.188   7.050
 7035POPC   C4B48514  12.744   0.221   7.350
 7036POPC   NC348515  22.165  31.483   5.550
 7036POPC   PO448516  22.168  31.486   5.850
 7036POPC   GL148517  22.156  31.501   6.150
 7036POPC   GL248518  22.185  31.533   6.150
 7036POPC   C1A48519  22.187  31.521   6.450
 7036POPC   D2A48520  22.151  31.465   6.750
 7036POPC   C3A48521  22.143  31.488   7.050
 7036POPC   C4A48522  22.120  31.483   7.350
 7036POPC   C1B48523  22.280  31.723   6.450
 7036POPC   C2B48524  22.287  31.724   6.750
 7036POPC   C3B48525  22.307  31.728   7.050
 7036POPC   C4B48526  22.300  31.718   7.350
 7037POPC   NC348527  39.219  17.503   5.550
 7037POPC   PO448528  39.218  17.489   5.850
 7037POPC   GL148529  39.210  17.545   6.150
 7037POPC   GL248530  39.268  17.584   6.150
 7037POPC   C1A48531  39.244  17.478   6.450
 7037POPC   D2A48532  39.241  17.550   6.750
 7037POPC   C3A48533  39.239  17.545   7.050
 7037POPC   C4A48534  39.236  17.547   7.350
 7037POPC   C1B48535  39.350  17.750   6.450
 7037POPC   C2B48536  39.367  17.703   6.750
 7037POPC   C3B48537  39.383  17.705   7.050
 7037POPC   C4B48538  39.397  17.697   7.350
 7038POPC   NC348539  41.545  39.998   5.550
 7038POPC   PO448540  41.550  39.984   5.850
 7038POPC   GL148541  41.576  40.007   6.150
 7038POPC   GL248542  41.575  40.153   6.150
 7038POPC   C1A48543  41.603  40.017   6.450
 7038POPC   D2A48544  41.575  39.959   6.750
 7038POPC   C3A48545  41.589  39.959   7.050
 7038POPC   C4A48546  41.519  40.040   7.350
 7038POPC   C1B48547  41.699  40.269   6.450
 7038POPC   C2B48548  41.636  40.242   6.750
 7038POPC   C3B48549  41.638  40.275   7.050
 7038POPC   C4B48550  41.680  40.224   7.350
 7039POPC   NC348551  29.940  23.679   5.550
 7039POPC   PO448552  29.927  23.718   5.850
 7039POPC   GL148553  29.950  23.722   6.150
 7039POPC   GL248554  30.019  23.652   6.150
 7039POPC   C1A48555  29.957  23.742   6.450
 7039POPC   D2A48556  29.966  23.671   6.750
 7039POPC   C3A48557  29.918  23.728   7.050
 7039POPC   C4A48558  29.928  23.721   7.350
 7039POPC   C1B48559  30.139  23.587   6.450
 7039POPC   C2B48560  30.110  23.604   6.750
 7039POPC   C3B48561  30.116  23.596   7.050
 7039POPC   C4B48562  30.167  23.602   7.350
 7040POPC   NC348563  14.376  14.432   5.550
 7040POPC   PO448564  14.393  14.421   5.850
 7040POPC   GL148565  14.429  14.444   6.150
 7040POPC   GL248566  14.337  14.336   6.150
 7040POPC   C1A48567  14.385  14.420   6.450
 7040POPC   D2A48568  14.448  14.356   6.750
 7040POPC   C3A48569  14.358  14.399   7.050
 7040POPC   C4A48570  14.359  14.388   7.350
 7040POPC   C1B48571  14.292  14.206   6.450
 7040POPC   C2B48572  14.285  14.169   6.750
 7040POPC   C3B48573  14.247  14.181   7.050
 7040POPC   C4B48574  14.261  14.158   7.350
 7041POPC   NC348575  18.299  27.625   5.550
 7041POPC   PO448576  18.318  27.566   5.850
 7041POPC   GL148577  18.308  27.628   6.150
 7041POPC   GL248578  18.290  27.676   6.150
 7041POPC   C1A48579  18.330  27.581   6.450
 7041POPC   D2A48580  18.302  27.566   6.750
 7041POPC   C3A48581  18.266  27.611   7.050
 7041POPC   C4A48582  18.251  27.634   7.350
 7041POPC   C1B48583  18.209  27.812   6.450
 7041POPC   C2B48584  18.199  27.880   6.750
 7041POPC   C3B48585  18.183  27.828   7.050
 7041POPC   C4B48586  18.218  27.791   7.350
 7042POPC   NC348587  40.787  29.117   5.550
 7042POPC   PO448588  40.785  29.113   5.850
 7042POPC   GL148589  40.784  29.105   6.150
 7042POPC   GL248590  40.761  29.261   6.150
 7042POPC   C1A48591  40.749  29.097   6.450
 7042POPC   D2A48592  40.826  29.153   6.750
 7042POPC   C3A48593  40.764  29.156   7.050
 7042POPC   C4A48594  40.764  29.145   7.350
 7042POPC   C1B48595  40.774  29.434   6.450
 7042POPC   C2B48596  40.790  29.382   6.750
 7042POPC   C3B48597  40.771  29.440   7.050
 7042POPC   C4B48598  40.797  29.387   7.350
 7043POPC   NC348599  38.472  26.073   5.550
 7043POPC   PO448600  38.422  26.011   5.850
 7043POPC   GL148601  38.437  26.063   6.150
 7043POPC   GL248602  38.588  26.008   6.150
 7043POPC   C1A48603  38.480  26.077   6.450
 7043POPC   D2A48604  38.415  26.085   6.750
 7043POPC   C3A48605  38.420  26.059   7.050
 7043POPC   C4A48606  38.419  26.088   7.350
 7043POPC   C1B48607  38.663  25.886   6.450
 7043POPC   C2B48608  38.646  25.836   6.750
 7043POPC   C3B48609  38.689  25.888   7.050
 7043POPC   C4B48610  38.603  25.864   7.350
 7044POPC   NC348611  20.657   7.372   5.550
 7044POPC   PO448612  20.629   7.374   5.850
 7044POPC   GL148613  20.646   7.408   6.150
 7044POPC   GL248614  20.522   7.549   6.150
 7044POPC   C1A48615  20.564   7.424   6.450
 7044POPC   D2A48616  20.574   7.430   6.750
 7044POPC   C3A48617  20.566   7.392   7.050
 7044POPC   C4A48618  20.586   7.454   7.350
 7044POPC   C1B48619  20.455   7.666   6.450
 7044POPC   C2B48620  20.444   7.576   6.750
 7044POPC   C3B48621  20.501   7.665   7.050
 7044POPC   C4B48622  20.468   7.652   7.350
 7045POPC   NC348623  19.834  26.847   5.550
 7045POPC   PO448624  19.838  26.865   5.850
 7045POPC   GL148625  19.867  26.837   6.150
 7045POPC   GL248626  19.669  26.738   6.150
 7045POPC   C1A48627  19.860  26.825   6.450
 7045POPC   D2A48628  19.822  26.857   6.750
 7045POPC   C3A48629  19.875  26.840   7.050
 7045POPC   C4A48630  19.828  26.824   7.350
 7045POPC   C1B48631  19.576  26.736   6.450
 7045POPC   C2B48632  19.585  26.701   6.750
 7045POPC   C3B48633  19.631  26.693   7.050
 7045POPC   C4B48634  19.642  26.706   7.350
 7046POPC   NC348635  19.859  25.286   5.550
 7046POPC   PO448636  19.820  25.243   5.850
 7046POPC   GL148637  19.869  25.241   6.150
 7046POPC   GL248638  19.929  25.365   6.150
 7046POPC   C1A48639  19.817  25.241   6.450
 7046POPC   D2A48640  19.824  25.310   6.750
 7046POPC   C3A48641  19.828  25.218   7.050
 7046POPC   C4A48642  19.834  25.270   7.350
 7046POPC   C1B48643  20.036  25.425   6.450
 7046POPC   C2B48644  20.045  25.409   6.750
 7046POPC   C3B48645  20.067  25.395   7.050
 7046POPC   C4B48646  20.064  25.382   7.350
 7047POPC   NC348647  22.151  26.845   5.550
 7047POPC   PO448648  22.156  26.845   5.850
 7047POPC   GL148649  22.161  26.836   6.150
 7047POPC   GL248650  22.117  26.967   6.150
 7047POPC   C1A48651  22.128  26.825   6.450
 7047POPC   D2A48652  22.206  26.790   6.750
 7047POPC   C3A48653  22.186  26.800   7.050
 7047POPC   C4A48654  22.124  26.836   7.350
 7047POPC   C1B48655  22.173  27.065   6.450
 7047POPC   C2B48656  22.159  27.097   6.750
 7047POPC   C3B48657  22.159  27.063   7.050
 7047POPC   C4B48658  22.174  27.112   7.350
 7048POPC   NC348659  14.426  28.325   5.550
 7048POPC   PO448660  14.420  28.388   5.850
 7048POPC   GL148661  14.411  28.332   6.150
 7048POPC   GL248662  14.512  28.356   6.150
 7048POPC   C1A48663  14.404  28.417   6.450
 7048POPC   D2A48664  14.357  28.336   6.750
 7048POPC   C3A48665  14.416  28.393   7.050
 7048POPC   C4A48666  14.440  28.413   7.350
 7048POPC   C1B48667  14.655  28.422   6.450
 7048POPC   C2B48668  14.621  28.435   6.750
 7048POPC   C3B48669  14.642  28.373   7.050
 7048POPC   C4B48670  14.679  28.453   7.350
 7049POPC   NC348671  40.018  37.636   5.550
 7049POPC   PO448672  39.962  37.647   5.850
 7049POPC   GL148673  39.982  37.693   6.150
 7049POPC   GL248674  40.126  37.570   6.150
 7049POPC   C1A48675  39.968  37.724   6.450
 7049POPC   D2A48676  40.042  37.653   6.750
 7049POPC   C3A48677  40.037  37.722   7.050
 7049POPC   C4A48678  40.023  37.691   7.350
 7049POPC   C1B48679  40.206  37.524   6.450
 7049POPC   C2B48680  40.245  37.561   6.750
 7049POPC   C3B48681  40.246  37.492   7.050
 7049POPC   C4B48682  40.220  37.513   7.350
 7050POPC   NC348683  13.599  15.187   5.550
 7050POPC   PO448684  13.631  15.162   5.850
 7050POPC   GL148685  13.671  15.133   6.150
 7050POPC   GL248686  13.565  15.141   6.150
 7050POPC   C1A48687  13.671  15.179   6.450
 7050POPC   D2A48688  13.598  15.180   6.750
 7050POPC   C3A48689  13.598  15.215   7.050
 7050POPC   C4A48690  13.660  15.226   7.350
 7050POPC   C1B48691  13.385  15.071   6.450
 7050POPC   C2B48692  13.376  15.052   6.750
 7050POPC   C3B48693  13.377  15.049   7.050
 7050POPC   C4B48694  13.464  15.038   7.350
 7051POPC   NC348695   2.740  43.115   5.550
 7051POPC   PO448696   2.760  43.144   5.850
 7051POPC   GL148697   2.794  43.094   6.150
 7051POPC   GL248698   2.810  43.013   6.150
 7051POPC   C1A48699   2.749  43.113   6.450
 7051POPC   D2A48700   2.731  43.112   6.750
 7051POPC   C3A48701   2.796  43.084   7.050
 7051POPC   C4A48702   2.741  43.087   7.350
 7051POPC   C1B48703   2.754  42.904   6.450
 7051POPC   C2B48704   2.807  42.889   6.750
 7051POPC   C3B48705   2.784  42.877   7.050
 7051POPC   C4B48706   2.772  42.893   7.350
 7052POPC   NC348707  22.891  22.167   5.550
 7052POPC   PO448708  22.948  22.171   5.850
 7052POPC   GL148709  22.983  22.172   6.150
 7052POPC   GL248710  23.037  22.183   6.150
 7052POPC   C1A48711  22.963  22.155   6.450
 7052POPC   D2A48712  22.980  22.202   6.750
 7052POPC   C3A48713  22.946  22.119   7.050
 7052POPC   C4A48714  22.960  22.158   7.350
 7052POPC   C1B48715  23.216  22.216   6.450
 7052POPC   C2B48716  23.182  22.243   6.750
 7052POPC   C3B48717  23.172  22.280   7.050
 7052POPC   C4B48718  23.212  22.220   7.350
 7053POPC   NC348719   7.393  43.859   5.550
 7053POPC   PO448720   7.377  43.930   5.850
 7053POPC   GL148721   7.455  43.934   6.150
 7053POPC   GL248722   7.376  43.781   6.150
 7053POPC   C1A48723   7.392  43.887   6.450
 7053POPC   D2A48724   7.413  43.872   6.750
 7053POPC   C3A48725   7.409  43.908   7.050
 7053POPC   C4A48726   7.434  43.842   7.350
 7053POPC   C1B48727   7.216  43.751   6.450
 7053POPC   C2B48728   7.291  43.703   6.750
 7053POPC   C3B48729   7.237  43.713   7.050
 7053POPC   C4B48730   7.233  43.663   7.350
 7054POPC   NC348731  10.554  28.349   5.550
 7054POPC   PO448732  10.535  28.385   5.850
 7054POPC   GL148733  10.545  28.375   6.150
 7054POPC   GL248734  10.650  28.304   6.150
 7054POPC   C1A48735  10.563  28.354   6.450
 7054POPC   D2A48736  10.475  28.380   6.750
 7054POPC   C3A48737  10.490  28.398   7.050
 7054POPC   C4A48738  10.527  28.339   7.350
 7054POPC   C1B48739  10.735  28.262   6.450
 7054POPC   C2B48740  10.726  28.307   6.750
 7054POPC   C3B48741  10.731  28.291   7.050
 7054POPC   C4B48742  10.720  28.218   7.350
 7055POPC   NC348743  43.146  27.547   5.550
 7055POPC   PO448744  43.073  27.613   5.850
 7055POPC   GL148745  43.121  27.623   6.150
 7055POPC   GL248746  43.274  27.586   6.150
 7055POPC   C1A48747  43.153  27.643   6.450
 7055POPC   D2A48748  43.064  27.550   6.750
 7055POPC   C3A48749  43.084  27.606   7.050
 7055POPC   C4A48750  43.106  27.638   7.350
 7055POPC   C1B48751  43.292  27.464   6.450
 7055POPC   C2B48752  43.372  27.478   6.750
 7055POPC   C3B48753  43.346  27.500   7.050
 7055POPC   C4B48754  43.293  27.457   7.350
 7056POPC   NC348755   4.283   2.722   5.550
 7056POPC   PO448756   4.283   2.783   5.850
 7056POPC   GL148757   4.345   2.790   6.150
 7056POPC   GL248758   4.392   2.768   6.150
 7056POPC   C1A48759   4.337   2.761   6.450
 7056POPC   D2A48760   4.286   2.740   6.750
 7056POPC   C3A48761   4.322   2.745   7.050
 7056POPC   C4A48762   4.330   2.799   7.350
 7056POPC   C1B48763   4.552   2.729   6.450
 7056POPC   C2B48764   4.515   2.728   6.750
 7056POPC   C3B48765   4.551   2.770   7.050
 7056POPC   C4B48766   4.554   2.682   7.350
 7057POPC   NC348767  43.154  31.467   5.550
 7057POPC   PO448768  43.124  31.518   5.850
 7057POPC   GL148769  43.081  31.498   6.150
 7057POPC   GL248770  43.257  31.360   6.150
 7057POPC   C1A48771  43.141  31.450   6.450
 7057POPC   D2A48772  43.139  31.488   6.750
 7057POPC   C3A48773  43.064  31.488   7.050
 7057POPC   C4A48774  43.081  31.506   7.350
 7057POPC   C1B48775  43.267  31.310   6.450
 7057POPC   C2B48776  43.338  31.280   6.750
 7057POPC   C3B48777  43.261  31.353   7.050
 7057POPC   C4B48778  43.352  31.271   7.350
 7058POPC   NC348779  19.829  19.018   5.550
 7058POPC   PO448780  19.879  19.059   5.850
 7058POPC   GL148781  19.870  19.045   6.150
 7058POPC   GL248782  19.918  18.970   6.150
 7058POPC   C1A48783  19.806  19.100   6.450
 7058POPC   D2A48784  19.806  19.024   6.750
 7058POPC   C3A48785  19.846  19.041   7.050
 7058POPC   C4A48786  19.822  19.016   7.350
 7058POPC   C1B48787  20.050  18.895   6.450
 7058POPC   C2B48788  20.011  18.969   6.750
 7058POPC   C3B48789  20.063  18.894   7.050
 7058POPC   C4B48790  20.062  18.890   7.350
 7059POPC   NC348791   5.839  29.933   5.550
 7059POPC   PO448792   5.827  29.880   5.850
 7059POPC   GL148793   5.894  29.933   6.150
 7059POPC   GL248794   5.872  29.808   6.150
 7059POPC   C1A48795   5.901  29.930   6.450
 7059POPC   D2A48796   5.908  29.959   6.750
 7059POPC   C3A48797   5.914  29.872   7.050
 7059POPC   C4A48798   5.854  29.921   7.350
 7059POPC   C1B48799   5.863  29.645   6.450
 7059POPC   C2B48800   5.846  29.639   6.750
 7059POPC   C3B48801   5.863  29.708   7.050
 7059POPC   C4B48802   5.816  29.653   7.350
 7060POPC   NC348803  12.838  38.451   5.550
 7060POPC   PO448804  12.862  38.430   5.850
 7060POPC   GL148805  12.812  38.457   6.150
 7060POPC   GL248806  12.939  38.444   6.150
 7060POPC   C1A48807  12.841  38.444   6.450
 7060POPC   D2A48808  12.840  38.413   6.750
 7060POPC   C3A48809  12.829  38.446   7.050
 7060POPC   C4A48810  12.881  38.502   7.350
 7060POPC   C1B48811  13.072  38.537   6.450
 7060POPC   C2B48812  13.105  38.520   6.750
 7060POPC   C3B48813  13.053  38.558   7.050
 7060POPC   C4B48814  13.091  38.528   7.350
 7061POPC   NC348815  35.376  27.630   5.550
 7061POPC   PO448816  35.380  27.589   5.850
 7061POPC   GL148817  35.368  27.550   6.150
 7061POPC   GL248818  35.458  27.602   6.150
 7061POPC   C1A48819  35.306  27.604   6.450
 7061POPC   D2A48820  35.343  27.634   6.750
 7061POPC   C3A48821  35.377  27.613   7.050
 7061POPC   C4A48822  35.385  27.620   7.350
 7061POPC   C1B48823  35.611  27.567   6.450
 7061POPC   C2B48824  35.593  27.559   6.750
 7061POPC   C3B48825  35.546  27.574   7.050
 7061POPC   C4B48826  35.622  27.575   7.350
 7062POPC   NC348827  33.847  28.340   5.550
 7062POPC   PO448828  33.776  28.324   5.850
 7062POPC   GL148829  33.806  28.393   6.150
 7062POPC   GL248830  33.706  28.391   6.150
 7062POPC   C1A48831  33.806  28.342   6.450
 7062POPC   D2A48832  33.817  28.376   6.750
 7062POPC   C3A48833  33.825  28.323   7.050
 7062POPC   C4A48834  33.764  28.417   7.350
 7062POPC   C1B48835  33.564  28.366   6.450
 7062POPC   C2B48836  33.584  28.409   6.750
 7062POPC   C3B48837  33.589  28.371   7.050
 7062POPC   C4B48838  33.537  28.394   7.350
 7063POPC   NC348839  28.394  19.088   5.550
 7063POPC   PO448840  28.382  19.031   5.850
 7063POPC   GL148841  28.356  19.065   6.150
 7063POPC   GL248842  28.293  19.097   6.150
 7063POPC   C1A48843  28.355  19.052   6.450
 7063POPC   D2A48844  28.406  19.029   6.750
 7063POPC   C3A48845  28.375  19.063   7.050
 7063POPC   C4A48846  28.368  19.044   7.350
 7063POPC   C1B48847  28.183  19.191   6.450
 7063POPC   C2B48848  28.105  19.203   6.750
 7063POPC   C3B48849  28.164  19.204   7.050
 7063POPC   C4B48850  28.169  19.170   7.350
 7064POPC   NC348851  19.818   5.141   5.550
 7064POPC   PO448852  19.803   5.142   5.850
 7064POPC   GL148853  19.873   5.135   6.150
 7064POPC   GL248854  19.865   5.250   6.150
 7064POPC   C1A48855  19.872   5.098   6.450
 7064POPC   D2A48856  19.847   5.074   6.750
 7064POPC   C3A48857  19.843   5.088   7.050
 7064POPC   C4A48858  19.791   5.095   7.350
 7064POPC   C1B48859  19.935   5.340   6.450
 7064POPC   C2B48860  19.907   5.278   6.750
 7064POPC   C3B48861  19.910   5.375   7.050
 7064POPC   C4B48862  19.934   5.377   7.350
 7065POPC   NC348863  13.582  19.035   5.550
 7065POPC   PO448864  13.586  19.052   5.850
 7065POPC   GL148865  13.617  19.104   6.150
 7065POPC   GL248866  13.483  19.099   6.150
 7065POPC   C1A48867  13.637  19.105   6.450
 7065POPC   D2A48868  13.668  19.079   6.750
 7065POPC   C3A48869  13.671  19.048   7.050
 7065POPC   C4A48870  13.661  19.073   7.350
 7065POPC   C1B48871  13.363  19.151   6.450
 7065POPC   C2B48872  13.416  19.178   6.750
 7065POPC   C3B48873  13.454  19.134   7.050
 7065POPC   C4B48874  13.395  19.164   7.350
 7066POPC   NC348875  12.846  30.697   5.550
 7066POPC   PO448876  12.811  30.739   5.850
 7066POPC   GL148877  12.877  30.676   6.150
 7066POPC   GL248878  12.713  30.655   6.150
 7066POPC   C1A48879  12.892  30.660   6.450
 7066POPC   D2A48880  12.841  30.693   6.750
 7066POPC   C3A48881  12.877  30.694   7.050
 7066POPC   C4A48882  12.888  30.723   7.350
 7066POPC   C1B48883  12.640  30.496   6.450
 7066POPC   C2B48884  12.674  30.572   6.750
 7066POPC   C3B48885  12.658  30.544   7.050
 7066POPC   C4B48886  12.694  30.496   7.350
 7067POPC   NC348887  21.400  27.612   5.550
 7067POPC   PO448888  21.416  27.586   5.850
 7067POPC   GL148889  21.344  27.609   6.150
 7067POPC   GL248890  21.485  27.673   6.150
 7067POPC   C1A48891  21.344  27.611   6.450
 7067POPC   D2A48892  21.379  27.608   6.750
 7067POPC   C3A48893  21.419  27.601   7.050
 7067POPC   C4A48894  21.416  27.618   7.350
 7067POPC   C1B48895  21.628  27.713   6.450
 7067POPC   C2B48896  21.632  27.681   6.750
 7067POPC   C3B48897  21.562  27.733   7.050
 7067POPC   C4B48898  21.628  27.707   7.350
 7068POPC   NC348899  31.482  23.721   5.550
 7068POPC   PO448900  31.486  23.737   5.850
 7068POPC   GL148901  31.484  23.732   6.150
 7068POPC   GL248902  31.402  23.595   6.150
 7068POPC   C1A48903  31.499  23.743   6.450
 7068POPC   D2A48904  31.512  23.730   6.750
 7068POPC   C3A48905  31.425  23.710   7.050
 7068POPC   C4A48906  31.425  23.711   7.350
 7068POPC   C1B48907  31.430  23.434   6.450
 7068POPC   C2B48908  31.420  23.493   6.750
 7068POPC   C3B48909  31.422  23.511   7.050
 7068POPC   C4B48910  31.357  23.431   7.350
 7069POPC   NC348911  43.912  29.909   5.550
 7069POPC   PO448912  43.861  29.898   5.850
 7069POPC   GL148913  43.919  29.941   6.150
 7069POPC   GL248914  43.969  29.964   6.150
 7069POPC   C1A48915  43.915  29.964   6.450
 7069POPC   D2A48916  43.918  29.904   6.750
 7069POPC   C3A48917  43.886  29.895   7.050
 7069POPC   C4A48918  43.883  29.949   7.350
 7069POPC   C1B48919  44.109  29.979   6.450
 7069POPC   C2B48920  44.129  29.924   6.750
 7069POPC   C3B48921  44.116  29.926   7.050
 7069POPC   C4B48922  44.128  29.925   7.350
 7070POPC   NC348923  43.153  43.090   5.550
 7070POPC   PO448924  43.130  43.114   5.850
 7070POPC   GL148925  43.123  43.130   6.150
 7070POPC   GL248926  43.265  43.179   6.150
 7070POPC   C1A48927  43.120  43.075   6.450
 7070POPC   D2A48928  43.131  43.093   6.750
 7070POPC   C3A48929  43.087  43.131   7.050
 7070POPC   C4A48930  43.117  43.112   7.350
 7070POPC   C1B48931  43.366  43.202   6.450
 7070POPC   C2B48932  43.345  43.220   6.750
 7070POPC   C3B48933  43.362  43.242   7.050
 7070POPC   C4B48934  43.297  43.199   7.350
 7071POPC   NC348935  40.770  31.471   5.550
 7071POPC   PO448936  40.765  31.450   5.850
 7071POPC   GL148937  40.767  31.431   6.150
 7071POPC   GL248938  40.759  31.387   6.150
 7071POPC   C1A48939  40.747  31.454   6.450
 7071POPC   D2A48940  40.745  31.472   6.750
 7071POPC   C3A48941  40.794  31.508   7.050
 7071POPC   C4A48942  40.762  31.431   7.350
 7071POPC   C1B48943  40.688  31.193   6.450
 7071POPC   C2B48944  40.668  31.233   6.750
 7071POPC   C3B48945  40.752  31.250   7.050
 7071POPC   C4B48946  40.748  31.215   7.350
 7072POPC   NC348947  26.838   4.323   5.550
 7072POPC   PO448948  26.812   4.294   5.850
 7072POPC   GL148949  26.830   4.319   6.150
 7072POPC   GL248950  26.910   4.262   6.150
 7072POPC   C1A48951  26.774   4.299   6.450
 7072POPC   D2A48952  26.863   4.272   6.750
 7072POPC   C3A48953  26.846   4.302   7.050
 7072POPC   C4A48954  26.824   4.308   7.350
 7072POPC   C1B48955  27.046   4.284   6.450
 7072POPC   C2B48956  27.073   4.269   6.750
 7072POPC   C3B48957  27.063   4.266   7.050
 7072POPC   C4B48958  27.090   4.231   7.350
 7073POPC   NC348959   3.546  31.480   5.550
 7073POPC   PO448960   3.555  31.432   5.850
 7073POPC   GL148961   3.536  31.430   6.150
 7073POPC   GL248962   3.412  31.416   6.150
 7073POPC   C1A48963   3.559  31.448   6.450
 7073POPC   D2A48964   3.492  31.450   6.750
 7073POPC   C3A48965   3.516  31.459   7.050
 7073POPC   C4A48966   3.590  31.498   7.350
 7073POPC   C1B48967   3.325  31.477   6.450
 7073POPC   C2B48968   3.288  31.479   6.750
 7073POPC   C3B48969   3.314  31.495   7.050
 7073POPC   C4B48970   3.276  31.460   7.350
 7074POPC   NC348971  34.620   9.742   5.550
 7074POPC   PO448972  34.581   9.780   5.850
 7074POPC   GL148973  34.581   9.723   6.150
 7074POPC   GL248974  34.584   9.832   6.150
 7074POPC   C1A48975  34.527   9.759   6.450
 7074POPC   D2A48976  34.526   9.773   6.750
 7074POPC   C3A48977  34.561   9.746   7.050
 7074POPC   C4A48978  34.538   9.767   7.350
 7074POPC   C1B48979  34.641  10.010   6.450
 7074POPC   C2B48980  34.613   9.965   6.750
 7074POPC   C3B48981  34.667  10.025   7.050
 7074POPC   C4B48982  34.624  10.010   7.350
 7075POPC   NC348983  36.152  37.688   5.550
 7075POPC   PO448984  36.078  37.674   5.850
 7075POPC   GL148985  36.168  37.728   6.150
 7075POPC   GL248986  36.032  37.764   6.150
 7075POPC   C1A48987  36.152  37.681   6.450
 7075POPC   D2A48988  36.102  37.712   6.750
 7075POPC   C3A48989  36.166  37.709   7.050
 7075POPC   C4A48990  36.115  37.632   7.350
 7075POPC   C1B48991  36.044  37.935   6.450
 7075POPC   C2B48992  35.974  37.897   6.750
 7075POPC   C3B48993  35.991  37.857   7.050
 7075POPC   C4B48994  36.068  37.939   7.350
 7076POPC   NC348995   2.008   3.563   5.550
 7076POPC   PO448996   1.980   3.537   5.850
 7076POPC   GL148997   1.973   3.588   6.150
 7076POPC   GL248998   2.064   3.639   6.150
 7076POPC   C1A48999   2.035   3.534   6.450
 7076POPC   D2A49000   1.960   3.581   6.750
 7076POPC   C3A49001   1.941   3.576   7.050
 7076POPC   C4A49002   1.954   3.534   7.350
 7076POPC   C1B49003   2.094   3.772   6.450
 7076POPC   C2B49004   2.132   3.741   6.750
 7076POPC   C3B49005   2.114   3.799   7.050
 7076POPC   C4B49006   2.094   3.739   7.350
 7077POPC   NC349007  29.105  15.906   5.550
 7077POPC   PO449008  29.192  15.959   5.850
 7077POPC   GL149009  29.134  15.936   6.150
 7077POPC   GL249010  28.974  15.972   6.150
 7077POPC   C1A49011  29.101  15.990   6.450
 7077POPC   D2A49012  29.139  15.926   6.750
 7077POPC   C3A49013  29.119  15.985   7.050
 7077POPC   C4A49014  29.138  15.949   7.350
 7077POPC   C1B49015  28.864  16.011   6.450
 7077POPC   C2B49016  28.943  16.018   6.750
 7077POPC   C3B49017  28.919  16.020   7.050
 7077POPC   C4B49018  28.932  15.979   7.350
 7078POPC   NC349019  13.667  19.828   5.550
 7078POPC   PO449020  13.614  19.822   5.850
 7078POPC   GL149021  13.670  19.839   6.150
 7078POPC   GL249022  13.574  19.699   6.150
 7078POPC   C1A49023  13.657  19.845   6.450
 7078POPC   D2A49024  13.672  19.823   6.750
 7078POPC   C3A49025  13.614  19.843   7.050
 7078POPC   C4A49026  13.584  19.810   7.350
 7078POPC   C1B49027  13.548  19.650   6.450
 7078POPC   C2B49028  13.504  19.594   6.750
 7078POPC   C3B49029  13.524  19.625   7.050
 7078POPC   C4B49030  13.556  19.571   7.350
 7079POPC   NC349031  24.539  42.317   5.550
 7079POPC   PO449032  24.473  42.363   5.850
 7079POPC   GL149033  24.482  42.345   6.150
 7079POPC   GL249034  24.405  42.432   6.150
 7079POPC   C1A49035  24.478  42.358   6.450
 7079POPC   D2A49036  24.536  42.340   6.750
 7079POPC   C3A49037  24.486  42.316   7.050
 7079POPC   C4A49038  24.512  42.350   7.350
 7079POPC   C1B49039  24.284  42.472   6.450
 7079POPC   C2B49040  24.268  42.549   6.750
 7079POPC   C3B49041  24.352  42.542   7.050
 7079POPC   C4B49042  24.290  42.496   7.350
 7080POPC   NC349043   7.439   1.219   5.550
 7080POPC   PO449044   7.425   1.221   5.850
 7080POPC   GL149045   7.448   1.238   6.150
 7080POPC   GL249046   7.358   1.350   6.150
 7080POPC   C1A49047   7.422   1.261   6.450
 7080POPC   D2A49048   7.421   1.216   6.750
 7080POPC   C3A49049   7.431   1.190   7.050
 7080POPC   C4A49050   7.407   1.245   7.350
 7080POPC   C1B49051   7.262   1.419   6.450
 7080POPC   C2B49052   7.258   1.417   6.750
 7080POPC   C3B49053   7.253   1.426   7.050
 7080POPC   C4B49054   7.324   1.408   7.350
 7081POPC   NC349055  42.354  41.525   5.550
 7081POPC   PO449056  42.342  41.590   5.850
 7081POPC   GL149057  42.366  41.557   6.150
 7081POPC   GL249058  42.456  41.505   6.150
 7081POPC   C1A49059  42.345  41.534   6.450
 7081POPC   D2A49060  42.372  41.514   6.750
 7081POPC   C3A49061  42.356  41.582   7.050
 7081POPC   C4A49062  42.338  41.510   7.350
 7081POPC   C1B49063  42.495  41.370   6.450
 7081POPC   C2B49064  42.480  41.399   6.750
 7081POPC   C3B49065  42.452  41.354   7.050
 7081POPC   C4B49066  42.443  41.330   7.350
 7082POPC   NC349067   2.734   1.221   5.550
 7082POPC   PO449068   2.718   1.255   5.850
 7082POPC   GL149069   2.773   1.182   6.150
 7082POPC   GL249070   2.699   1.324   6.150
 7082POPC   C1A49071   2.745   1.180   6.450
 7082POPC   D2A49072   2.719   1.164   6.750
 7082POPC   C3A49073   2.793   1.198   7.050
 7082POPC   C4A49074   2.799   1.202   7.350
 7082POPC   C1B49075   2.667   1.396   6.450
 7082POPC   C2B49076   2.651   1.445   6.750
 7082POPC   C3B49077   2.665   1.394   7.050
 7082POPC   C4B49078   2.636   1.434   7.350
 7083POPC   NC349079   7.390  44.645   5.550
 7083POPC   PO449080   7.385  44.704   5.850
 7083POPC   GL149081   7.427  44.658   6.150
 7083POPC   GL249082   7.355  44.799   6.150
 7083POPC   C1A49083   7.454  44.688   6.450
 7083POPC   D2A49084   7.465  44.685   6.750
 7083POPC   C3A49085   7.431  44.697   7.050
 7083POPC   C4A49086   7.396  44.618   7.350
 7083POPC   C1B49087   7.336  44.900   6.450
 7083POPC   C2B49088   7.291  44.908   6.750
 7083POPC   C3B49089   7.300  44.884   7.050
 7083POPC   C4B49090   7.335  44.941   7.350
 7084POPC   NC349091  10.478  32.254   5.550
 7084POPC   PO449092  10.514  32.289   5.850
 7084POPC   GL149093  10.526  32.282   6.150
 7084POPC   GL249094  10.553  32.166   6.150
 7084POPC   C1A49095  10.545  32.223   6.450
 7084POPC   D2A49096  10.564  32.248   6.750
 7084POPC   C3A49097  10.561  32.281   7.050
 7084POPC   C4A49098  10.567  32.201   7.350
 7084POPC   C1B49099  10.552  32.037   6.450
 7084POPC   C2B49100  10.552  32.049   6.750
 7084POPC   C3B49101  10.588  31.981   7.050
 7084POPC   C4B49102  10.570  31.950   7.350
 7085POPC   NC349103  20.647   4.272   5.550
 7085POPC   PO449104  20.648   4.351   5.850
 7085POPC   GL149105  20.644   4.337   6.150
 7085POPC   GL249106  20.470   4.368   6.150
 7085POPC   C1A49107  20.620   4.366   6.450
 7085POPC   D2A49108  20.620   4.279   6.750
 7085POPC   C3A49109  20.562   4.327   7.050
 7085POPC   C4A49110  20.589   4.304   7.350
 7085POPC   C1B49111  20.439   4.440   6.450
 7085POPC   C2B49112  20.462   4.467   6.750
 7085POPC   C3B49113  20.416   4.522   7.050
 7085POPC   C4B49114  20.433   4.513   7.350
 7086POPC   NC349115  21.353  17.505   5.550
 7086POPC   PO449116  21.345  17.530   5.850
 7086POPC   GL149117  21.396  17.530   6.150
 7086POPC   GL249118  21.512  17.394   6.150
 7086POPC   C1A49119  21.414  17.535   6.450
 7086POPC   D2A49120  21.430  17.499   6.750
 7086POPC   C3A49121  21.353  17.541   7.050
 7086POPC   C4A49122  21.421  17.462   7.350
 7086POPC   C1B49123  21.538  17.309   6.450
 7086POPC   C2B49124  21.543  17.350   6.750
 7086POPC   C3B49125  21.573  17.298   7.050
 7086POPC   C4B49126  21.619  17.298   7.350
 7087POPC   NC349127  20.595  19.100   5.550
 7087POPC   PO449128  20.651  19.041   5.850
 7087POPC   GL149129  20.657  19.051   6.150
 7087POPC   GL249130  20.609  18.930   6.150
 7087POPC   C1A49131  20.568  19.019   6.450
 7087POPC   D2A49132  20.624  19.046   6.750
 7087POPC   C3A49133  20.602  19.054   7.050
 7087POPC   C4A49134  20.630  19.046   7.350
 7087POPC   C1B49135  20.643  18.839   6.450
 7087POPC   C2B49136  20.659  18.785   6.750
 7087POPC   C3B49137  20.661  18.767   7.050
 7087POPC   C4B49138  20.637  18.813   7.350
 7088POPC   NC349139  40.784  34.550   5.550
 7088POPC   PO449140  40.807  34.588   5.850
 7088POPC   GL149141  40.813  34.621   6.150
 7088POPC   GL249142  40.669  34.469   6.150
 7088POPC   C1A49143  40.807  34.612   6.450
 7088POPC   D2A49144  40.734  34.576   6.750
 7088POPC   C3A49145  40.785  34.592   7.050
 7088POPC   C4A49146  40.821  34.571   7.350
 7088POPC   C1B49147  40.640  34.403   6.450
 7088POPC   C2B49148  40.649  34.415   6.750
 7088POPC   C3B49149  40.638  34.371   7.050
 7088POPC   C4B49150  40.652  34.418   7.350
 7089POPC   NC349151  37.725  42.331   5.550
 7089POPC   PO449152  37.673  42.327   5.850
 7089POPC   GL149153  37.661  42.369   6.150
 7089POPC   GL249154  37.808  42.284   6.150
 7089POPC   C1A49155  37.631  42.323   6.450
 7089POPC   D2A49156  37.720  42.301   6.750
 7089POPC   C3A49157  37.720  42.374   7.050
 7089POPC   C4A49158  37.664  42.366   7.350
 7089POPC   C1B49159  37.927  42.248   6.450
 7089POPC   C2B49160  37.949  42.240   6.750
 7089POPC   C3B49161  37.902  42.181   7.050
 7089POPC   C4B49162  37.946  42.196   7.350
 7090POPC   NC349163  36.887  24.460   5.550
 7090POPC   PO449164  36.886  24.479   5.850
 7090POPC   GL149165  36.884  24.458   6.150
 7090POPC   GL249166  37.022  24.462   6.150
 7090POPC   C1A49167  36.872  24.485   6.450
 7090POPC   D2A49168  36.894  24.528   6.750
 7090POPC   C3A49169  36.953  24.537   7.050
 7090POPC   C4A49170  36.942  24.494   7.350
 7090POPC   C1B49171  37.135  24.377   6.450
 7090POPC   C2B49172  37.077  24.310   6.750
 7090POPC   C3B49173  37.152  24.378   7.050
 7090POPC   C4B49174  37.089  24.358   7.350
 7091POPC   NC349175  29.152  43.116   5.550
 7091POPC   PO449176  29.168  43.131   5.850
 7091POPC   GL149177  29.127  43.088   6.150
 7091POPC   GL249178  29.095  43.009   6.150
 7091POPC   C1A49179  29.172  43.081   6.450
 7091POPC   D2A49180  29.096  43.130   6.750
 7091POPC   C3A49181  29.151  43.146   7.050
 7091POPC   C4A49182  29.118  43.101   7.350
 7091POPC   C1B49183  29.010  42.935   6.450
 7091POPC   C2B49184  29.006  42.916   6.750
 7091POPC   C3B49185  29.032  42.908   7.050
 7091POPC   C4B49186  28.973  42.923   7.350
 7092POPC   NC349187  36.919  19.801   5.550
 7092POPC   PO449188  36.935  19.830   5.850
 7092POPC   GL149189  36.941  19.792   6.150
 7092POPC   GL249190  36.775  19.835   6.150
 7092POPC   C1A49191  36.900  19.849   6.450
 7092POPC   D2A49192  36.952  19.856   6.750
 7092POPC   C3A49193  36.925  19.823   7.050
 7092POPC   C4A49194  36.876  19.853   7.350
 7092POPC   C1B49195  36.670  19.798   6.450
 7092POPC   C2B49196  36.672  19.824   6.750
 7092POPC   C3B49197  36.652  19.809   7.050
 7092POPC   C4B49198  36.674  19.807   7.350
 7093POPC   NC349199  15.218  28.418   5.550
 7093POPC   PO449200  15.205  28.321   5.850
 7093POPC   GL149201  15.146  28.412   6.150
 7093POPC   GL249202  15.047  28.416   6.150
 7093POPC   C1A49203  15.217  28.375   6.450
 7093POPC   D2A49204  15.139  28.359   6.750
 7093POPC   C3A49205  15.162  28.416   7.050
 7093POPC   C4A49206  15.145  28.395   7.350
 7093POPC   C1B49207  14.957  28.357   6.450
 7093POPC   C2B49208  14.958  28.352   6.750
 7093POPC   C3B49209  14.979  28.365   7.050
 7093POPC   C4B49210  14.969  28.420   7.350
 7094POPC   NC349211  41.519  36.866   5.550
 7094POPC   PO449212  41.524  36.883   5.850
 7094POPC   GL149213  41.536  36.939   6.150
 7094POPC   GL249214  41.578  37.043   6.150
 7094POPC   C1A49215  41.555  36.933   6.450
 7094POPC   D2A49216  41.552  36.863   6.750
 7094POPC   C3A49217  41.550  36.907   7.050
 7094POPC   C4A49218  41.527  36.910   7.350
 7094POPC   C1B49219  41.583  37.143   6.450
 7094POPC   C2B49220  41.558  37.172   6.750
 7094POPC   C3B49221  41.546  37.128   7.050
 7094POPC   C4B49222  41.600  37.186   7.350
 7095POPC   NC349223  10.489  24.498   5.550
 7095POPC   PO449224  10.572  24.525   5.850
 7095POPC   GL149225  10.540  24.440   6.150
 7095POPC   GL249226  10.618  24.618   6.150
 7095POPC   C1A49227  10.479  24.510   6.450
 7095POPC   D2A49228  10.494  24.536   6.750
 7095POPC   C3A49229  10.486  24.496   7.050
 7095POPC   C4A49230  10.524  24.444   7.350
 7095POPC   C1B49231  10.687  24.688   6.450
 7095POPC   C2B49232  10.609  24.663   6.750
 7095POPC   C3B49233  10.685  24.663   7.050
 7095POPC   C4B49234  10.628  24.656   7.350
 7096POPC   NC349235  12.861   1.985   5.550
 7096POPC   PO449236  12.803   2.011   5.850
 7096POPC   GL149237  12.840   2.035   6.150
 7096POPC   GL249238  12.895   2.103   6.150
 7096POPC   C1A49239  12.820   2.011   6.450
 7096POPC   D2A49240  12.878   2.017   6.750
 7096POPC   C3A49241  12.898   2.002   7.050
 7096POPC   C4A49242  12.852   2.029   7.350
 7096POPC   C1B49243  13.002   2.197   6.450
 7096POPC   C2B49244  13.008   2.155   6.750
 7096POPC   C3B49245  12.984   2.186   7.050
 7096POPC   C4B49246  12.972   2.130   7.350
 7097POPC   NC349247  43.858  19.100   5.550
 7097POPC   PO449248  43.864  19.083   5.850
 7097POPC   GL149249  43.873  19.055   6.150
 7097POPC   GL249250  43.945  19.205   6.150
 7097POPC   C1A49251  43.894  19.036   6.450
 7097POPC   D2A49252  43.895  19.015   6.750
 7097POPC   C3A49253  43.912  19.105   7.050
 7097POPC   C4A49254  43.867  19.044   7.350
 7097POPC   C1B49255  44.044  19.264   6.450
 7097POPC   C2B49256  43.986  19.299   6.750
 7097POPC   C3B49257  44.045  19.288   7.050
 7097POPC   C4B49258  44.010  19.239   7.350
 7098POPC   NC349259  37.690  18.240   5.550
 7098POPC   PO449260  37.675  18.319   5.850
 7098POPC   GL149261  37.675  18.321   6.150
 7098POPC   GL249262  37.729  18.213   6.150
 7098POPC   C1A49263  37.728  18.251   6.450
 7098POPC   D2A49264  37.632  18.328   6.750
 7098POPC   C3A49265  37.665  18.257   7.050
 7098POPC   C4A49266  37.664  18.327   7.350
 7098POPC   C1B49267  37.876  18.089   6.450
 7098POPC   C2B49268  37.834  18.099   6.750
 7098POPC   C3B49269  37.798  18.051   7.050
 7098POPC   C4B49270  37.824  18.063   7.350
 7099POPC   NC349271  32.267  42.313   5.550
 7099POPC   PO449272  32.247  42.380   5.850
 7099POPC   GL149273  32.247  42.335   6.150
 7099POPC   GL249274  32.374  42.318   6.150
 7099POPC   C1A49275  32.295  42.328   6.450
 7099POPC   D2A49276  32.220  42.348   6.750
 7099POPC   C3A49277  32.263  42.362   7.050
 7099POPC   C4A49278  32.233  42.343   7.350
 7099POPC   C1B49279  32.455  42.391   6.450
 7099POPC   C2B49280  32.474  42.358   6.750
 7099POPC   C3B49281  32.480  42.423   7.050
 7099POPC   C4B49282  32.466  42.413   7.350
 7100POPC   NC349283  33.763   2.759   5.550
 7100POPC   PO449284  33.780   2.785   5.850
 7100POPC   GL149285  33.759   2.755   6.150
 7100POPC   GL249286  33.821   2.866   6.150
 7100POPC   C1A49287  33.842   2.747   6.450
 7100POPC   D2A49288  33.762   2.730   6.750
 7100POPC   C3A49289  33.799   2.749   7.050
 7100POPC   C4A49290  33.780   2.790   7.350
 7100POPC   C1B49291  33.756   2.995   6.450
 7100POPC   C2B49292  33.789   3.049   6.750
 7100POPC   C3B49293  33.748   3.045   7.050
 7100POPC   C4B49294  33.799   3.042   7.350
 7101POPC   NC349295  10.559   2.037   5.550
 7101POPC   PO449296  10.492   1.996   5.850
 7101POPC   GL149297  10.514   2.023   6.150
 7101POPC   GL249298  10.503   2.140   6.150
 7101POPC   C1A49299  10.487   1.995   6.450
 7101POPC   D2A49300  10.539   2.036   6.750
 7101POPC   C3A49301  10.538   2.010   7.050
 7101POPC   C4A49302  10.565   1.977   7.350
 7101POPC   C1B49303  10.378   2.201   6.450
 7101POPC   C2B49304  10.379   2.191   6.750
 7101POPC   C3B49305  10.404   2.248   7.050
 7101POPC   C4B49306  10.396   2.196   7.350
 7102POPC   NC349307  32.998  31.477   5.550
 7102POPC   PO449308  32.999  31.516   5.850
 7102POPC   GL149309  33.062  31.514   6.150
 7102POPC   GL249310  32.900  31.504   6.150
 7102POPC   C1A49311  33.028  31.494   6.450
 7102POPC   D2A49312  33.040  31.466   6.750
 7102POPC   C3A49313  33.009  31.439   7.050
 7102POPC   C4A49314  32.982  31.431   7.350
 7102POPC   C1B49315  32.860  31.608   6.450
 7102POPC   C2B49316  32.843  31.657   6.750
 7102POPC   C3B49317  32.872  31.617   7.050
 7102POPC   C4B49318  32.842  31.677   7.350
 7103POPC   NC349319  35.320   3.534   5.550
 7103POPC   PO449320  35.398   3.518   5.850
 7103POPC   GL149321  35.323   3.520   6.150
 7103POPC   GL249322  35.424   3.640   6.150
 7103POPC   C1A49323  35.318   3.585   6.450
 7103POPC   D2A49324  35.393   3.546   6.750
 7103POPC   C3A49325  35.398   3.515   7.050
 7103POPC   C4A49326  35.374   3.523   7.350
 7103POPC   C1B49327  35.535   3.687   6.450
 7103POPC   C2B49328  35.547   3.692   6.750
 7103POPC   C3B49329  35.608   3.663   7.050
 7103POPC   C4B49330  35.604   3.640   7.350
 7104POPC   NC349331  14.452  23.723   5.550
 7104POPC   PO449332  14.362  23.680   5.850
 7104POPC   GL149333  14.427  23.710   6.150
 7104POPC   GL249334  14.435  23.862   6.150
 7104POPC   C1A49335  14.442  23.688   6.450
 7104POPC   D2A49336  14.438  23.756   6.750
 7104POPC   C3A49337  14.370  23.761   7.050
 7104POPC   C4A49338  14.450  23.725   7.350
 7104POPC   C1B49339  14.497  23.920   6.450
 7104POPC   C2B49340  14.508  23.993   6.750
 7104POPC   C3B49341  14.464  23.908   7.050
 7104POPC   C4B49342  14.515  24.004   7.350
 7105POPC   NC349343  24.450  24.489   5.550
 7105POPC   PO449344  24.444  24.479   5.850
 7105POPC   GL149345  24.488  24.459   6.150
 7105POPC   GL249346  24.492  24.385   6.150
 7105POPC   C1A49347  24.477  24.498   6.450
 7105POPC   D2A49348  24.483  24.518   6.750
 7105POPC   C3A49349  24.485  24.482   7.050
 7105POPC   C4A49350  24.535  24.478   7.350
 7105POPC   C1B49351  24.518  24.275   6.450
 7105POPC   C2B49352  24.477  24.287   6.750
 7105POPC   C3B49353  24.535  24.227   7.050
 7105POPC   C4B49354  24.547  24.203   7.350
 7106POPC   NC349355   1.954   8.166   5.550
 7106POPC   PO449356   1.968   8.186   5.850
 7106POPC   GL149357   2.032   8.205   6.150
 7106POPC   GL249358   1.969   8.097   6.150
 7106POPC   C1A49359   1.961   8.201   6.450
 7106POPC   D2A49360   1.983   8.181   6.750
 7106POPC   C3A49361   1.994   8.155   7.050
 7106POPC   C4A49362   1.975   8.177   7.350
 7106POPC   C1B49363   1.969   7.927   6.450
 7106POPC   C2B49364   1.971   7.943   6.750
 7106POPC   C3B49365   1.966   7.910   7.050
 7106POPC   C4B49366   2.012   7.984   7.350
 7107POPC   NC349367  33.036  17.530   5.550
 7107POPC   PO449368  33.058  17.506   5.850
 7107POPC   GL149369  33.045  17.463   6.150
 7107POPC   GL249370  33.006  17.578   6.150
 7107POPC   C1A49371  33.020  17.552   6.450
 7107POPC   D2A49372  33.026  17.545   6.750
 7107POPC   C3A49373  33.056  17.517   7.050
 7107POPC   C4A49374  32.985  17.468   7.350
 7107POPC   C1B49375  32.963  17.692   6.450
 7107POPC   C2B49376  32.910  17.707   6.750
 7107POPC   C3B49377  32.933  17.727   7.050
 7107POPC   C4B49378  32.900  17.778   7.350
 7108POPC   NC349379   0.401  36.861   5.550
 7108POPC   PO449380   0.442  36.854   5.850
 7108POPC   GL149381   0.483  36.900   6.150
 7108POPC   GL249382   0.560  36.964   6.150
 7108POPC   C1A49383   0.449  36.859   6.450
 7108POPC   D2A49384   0.485  36.897   6.750
 7108POPC   C3A49385   0.403  36.910   7.050
 7108POPC   C4A49386   0.478  36.913   7.350
 7108POPC   C1B49387   0.568  37.058   6.450
 7108POPC   C2B49388   0.566  37.051   6.750
 7108POPC   C3B49389   0.587  37.121   7.050
 7108POPC   C4B49390   0.656  37.108   7.350
 7109POPC   NC349391  19.057  15.183   5.550
 7109POPC   PO449392  19.036  15.218   5.850
 7109POPC   GL149393  19.096  15.214   6.150
 7109POPC   GL249394  19.079  15.058   6.150
 7109POPC   C1A49395  19.082  15.193   6.450
 7109POPC   D2A49396  19.101  15.149   6.750
 7109POPC   C3A49397  19.091  15.144   7.050
 7109POPC   C4A49398  19.027  15.195   7.350
 7109POPC   C1B49399  19.057  14.934   6.450
 7109POPC   C2B49400  19.044  14.972   6.750
 7109POPC   C3B49401  19.039  14.909   7.050
 7109POPC   C4B49402  19.083  14.913   7.350
 7110POPC   NC349403  26.023  36.140   5.550
 7110POPC   PO449404  26.049  36.083   5.850
 7110POPC   GL149405  26.035  36.151   6.150
 7110POPC   GL249406  25.931  36.070   6.150
 7110POPC   C1A49407  26.064  36.137   6.450
 7110POPC   D2A49408  26.021  36.139   6.750
 7110POPC   C3A49409  26.013  36.153   7.050
 7110POPC   C4A49410  26.019  36.132   7.350
 7110POPC   C1B49411  25.820  36.124   6.450
 7110POPC   C2B49412  25.778  36.052   6.750
 7110POPC   C3B49413  25.823  36.080   7.050
 7110POPC   C4B49414  25.759  36.049   7.350
 7111POPC   NC349415  24.458  28.324   5.550
 7111POPC   PO449416  24.514  28.348   5.850
 7111POPC   GL149417  24.479  28.357   6.150
 7111POPC   GL249418  24.384  28.313   6.150
 7111POPC   C1A49419  24.527  28.362   6.450
 7111POPC   D2A49420  24.447  28.347   6.750
 7111POPC   C3A49421  24.450  28.335   7.050
 7111POPC   C4A49422  24.514  28.326   7.350
 7111POPC   C1B49423  24.273  28.260   6.450
 7111POPC   C2B49424  24.284  28.176   6.750
 7111POPC   C3B49425  24.282  28.245   7.050
 7111POPC   C4B49426  24.317  28.190   7.350
 7112POPC   NC349427  30.658  36.944   5.550
 7112POPC   PO449428  30.732  36.858   5.850
 7112POPC   GL149429  30.687  36.952   6.150
 7112POPC   GL249430  30.602  36.945   6.150
 7112POPC   C1A49431  30.715  36.896   6.450
 7112POPC   D2A49432  30.689  36.912   6.750
 7112POPC   C3A49433  30.734  36.857   7.050
 7112POPC   C4A49434  30.655  36.917   7.350
 7112POPC   C1B49435  30.432  36.993   6.450
 7112POPC   C2B49436  30.465  37.034   6.750
 7112POPC   C3B49437  30.504  37.027   7.050
 7112POPC   C4B49438  30.527  37.010   7.350
 7113POPC   NC349439   1.955  17.518   5.550
 7113POPC   PO449440   1.965  17.491   5.850
 7113POPC   GL149441   1.947  17.481   6.150
 7113POPC   GL249442   2.074  17.487   6.150
 7113POPC   C1A49443   2.004  17.522   6.450
 7113POPC   D2A49444   2.014  17.533   6.750
 7113POPC   C3A49445   2.038  17.524   7.050
 7113POPC   C4A49446   1.982  17.513   7.350
 7113POPC   C1B49447   2.257  17.452   6.450
 7113POPC   C2B49448   2.251  17.446   6.750
 7113POPC   C3B49449   2.223  17.455   7.050
 7113POPC   C4B49450   2.271  17.378   7.350
 7114POPC   NC349451  14.359  27.613   5.550
 7114POPC   PO449452  14.448  27.620   5.850
 7114POPC   GL149453  14.409  27.616   6.150
 7114POPC   GL249454  14.428  27.494   6.150
 7114POPC   C1A49455  14.401  27.592   6.450
 7114POPC   D2A49456  14.443  27.617   6.750
 7114POPC   C3A49457  14.397  27.546   7.050
 7114POPC   C4A49458  14.386  27.625   7.350
 7114POPC   C1B49459  14.352  27.360   6.450
 7114POPC   C2B49460  14.355  27.374   6.750
 7114POPC   C3B49461  14.351  27.299   7.050
 7114POPC   C4B49462  14.355  27.325   7.350
 7115POPC   NC349463  18.237  40.826   5.550
 7115POPC   PO449464  18.239  40.786   5.850
 7115POPC   GL149465  18.241  40.775   6.150
 7115POPC   GL249466  18.328  40.931   6.150
 7115POPC   C1A49467  18.304  40.750   6.450
 7115POPC   D2A49468  18.271  40.754   6.750
 7115POPC   C3A49469  18.273  40.798   7.050
 7115POPC   C4A49470  18.325  40.757   7.350
 7115POPC   C1B49471  18.377  41.004   6.450
 7115POPC   C2B49472  18.458  40.971   6.750
 7115POPC   C3B49473  18.471  40.964   7.050
 7115POPC   C4B49474  18.376  40.959   7.350
 7116POPC   NC349475  17.475  15.927   5.550
 7116POPC   PO449476  17.505  15.982   5.850
 7116POPC   GL149477  17.518  15.952   6.150
 7116POPC   GL249478  17.513  16.102   6.150
 7116POPC   C1A49479  17.538  15.959   6.450
 7116POPC   D2A49480  17.548  16.000   6.750
 7116POPC   C3A49481  17.553  16.004   7.050
 7116POPC   C4A49482  17.499  15.924   7.350
 7116POPC   C1B49483  17.641  16.153   6.450
 7116POPC   C2B49484  17.584  16.140   6.750
 7116POPC   C3B49485  17.637  16.159   7.050
 7116POPC   C4B49486  17.619  16.153   7.350
 7117POPC   NC349487  17.482   4.293   5.550
 7117POPC   PO449488  17.459   4.358   5.850
 7117POPC   GL149489  17.516   4.311   6.150
 7117POPC   GL249490  17.577   4.444   6.150
 7117POPC   C1A49491  17.457   4.314   6.450
 7117POPC   D2A49492  17.472   4.332   6.750
 7117POPC   C3A49493  17.522   4.285   7.050
 7117POPC   C4A49494  17.464   4.337   7.350
 7117POPC   C1B49495  17.595   4.513   6.450
 7117POPC   C2B49496  17.630   4.596   6.750
 7117POPC   C3B49497  17.552   4.512   7.050
 7117POPC   C4B49498  17.546   4.571   7.350
 7118POPC   NC349499  32.217   1.219   5.550
 7118POPC   PO449500  32.222   1.202   5.850
 7118POPC   GL149501  32.290   1.235   6.150
 7118POPC   GL249502  32.328   1.341   6.150
 7118POPC   C1A49503  32.237   1.218   6.450
 7118POPC   D2A49504  32.231   1.210   6.750
 7118POPC   C3A49505  32.252   1.213   7.050
 7118POPC   C4A49506  32.285   1.253   7.350
 7118POPC   C1B49507  32.458   1.340   6.450
 7118POPC   C2B49508  32.441   1.382   6.750
 7118POPC   C3B49509  32.401   1.390   7.050
 7118POPC   C4B49510  32.459   1.334   7.350
 7119POPC   NC349511  32.975  39.202   5.550
 7119POPC   PO449512  32.994  39.188   5.850
 7119POPC   GL149513  33.063  39.275   6.150
 7119POPC   GL249514  33.048  39.363   6.150
 7119POPC   C1A49515  33.017  39.199   6.450
 7119POPC   D2A49516  32.984  39.263   6.750
 7119POPC   C3A49517  33.065  39.216   7.050
 7119POPC   C4A49518  32.976  39.213   7.350
 7119POPC   C1B49519  33.128  39.490   6.450
 7119POPC   C2B49520  33.046  39.521   6.750
 7119POPC   C3B49521  33.090  39.496   7.050
 7119POPC   C4B49522  33.070  39.515   7.350
 7120POPC   NC349523  41.552  19.040   5.550
 7120POPC   PO449524  41.568  19.100   5.850
 7120POPC   GL149525  41.534  19.072   6.150
 7120POPC   GL249526  41.643  19.076   6.150
 7120POPC   C1A49527  41.526  19.015   6.450
 7120POPC   D2A49528  41.605  19.024   6.750
 7120POPC   C3A49529  41.551  19.018   7.050
 7120POPC   C4A49530  41.545  19.040   7.350
 7120POPC   C1B49531  41.834  19.184   6.450
 7120POPC   C2B49532  41.845  19.162   6.750
 7120POPC   C3B49533  41.821  19.101   7.050
 7120POPC   C4B49534  41.839  19.121   7.350
 7121POPC   NC349535  39.199  38.461   5.550
 7121POPC   PO449536  39.212  38.407   5.850
 7121POPC   GL149537  39.194  38.432   6.150
 7121POPC   GL249538  39.199  38.613   6.150
 7121POPC   C1A49539  39.236  38.481   6.450
 7121POPC   D2A49540  39.208  38.423   6.750
 7121POPC   C3A49541  39.265  38.504   7.050
 7121POPC   C4A49542  39.184  38.416   7.350
 7121POPC   C1B49543  39.083  38.696   6.450
 7121POPC   C2B49544  39.151  38.712   6.750
 7121POPC   C3B49545  39.074  38.699   7.050
 7121POPC   C4B49546  39.122  38.656   7.350
 7122POPC   NC349547  23.681  15.222   5.550
 7122POPC   PO449548  23.759  15.221   5.850
 7122POPC   GL149549  23.748  15.209   6.150
 7122POPC   GL249550  23.690  15.112   6.150
 7122POPC   C1A49551  23.764  15.210   6.450
 7122POPC   D2A49552  23.725  15.177   6.750
 7122POPC   C3A49553  23.750  15.150   7.050
 7122POPC   C4A49554  23.763  15.199   7.350
 7122POPC   C1B49555  23.609  14.962   6.450
 7122POPC   C2B49556  23.560  14.968   6.750
 7122POPC   C3B49557  23.644  14.996   7.050
 7122POPC   C4B49558  23.619  14.929   7.350
 7123POPC   NC349559  40.809  16.736   5.550
 7123POPC   PO449560  40.738  16.730   5.850
 7123POPC   GL149561  40.812  16.737   6.150
 7123POPC   GL249562  40.695  16.661   6.150
 7123POPC   C1A49563  40.761  16.773   6.450
 7123POPC   D2A49564  40.767  16.773   6.750
 7123POPC   C3A49565  40.807  16.694   7.050
 7123POPC   C4A49566  40.777  16.758   7.350
 7123POPC   C1B49567  40.534  16.567   6.450
 7123POPC   C2B49568  40.564  16.540   6.750
 7123POPC   C3B49569  40.563  16.615   7.050
 7123POPC   C4B49570  40.612  16.545   7.350
 7124POPC   NC349571  35.358   2.026   5.550
 7124POPC   PO449572  35.339   1.998   5.850
 7124POPC   GL149573  35.338   1.958   6.150
 7124POPC   GL249574  35.399   1.879   6.150
 7124POPC   C1A49575  35.316   1.956   6.450
 7124POPC   D2A49576  35.400   2.037   6.750
 7124POPC   C3A49577  35.314   1.952   7.050
 7124POPC   C4A49578  35.398   2.009   7.350
 7124POPC   C1B49579  35.472   1.787   6.450
 7124POPC   C2B49580  35.497   1.767   6.750
 7124POPC   C3B49581  35.459   1.746   7.050
 7124POPC   C4B49582  35.472   1.754   7.350
 7125POPC   NC349583  19.073   8.159   5.550
 7125POPC   PO449584  19.102   8.168   5.850
 7125POPC   GL149585  19.063   8.215   6.150
 7125POPC   GL249586  19.193   8.202   6.150
 7125POPC   C1A49587  19.090   8.151   6.450
 7125POPC   D2A49588  19.100   8.201   6.750
 7125POPC   C3A49589  19.080   8.228   7.050
 7125POPC   C4A49590  19.023   8.186   7.350
 7125POPC   C1B49591  19.353   8.152   6.450
 7125POPC   C2B49592  19.281   8.144   6.750
 7125POPC   C3B49593  19.323   8.137   7.050
 7125POPC   C4B49594  19.304   8.175   7.350
 7126POPC   NC349595  20.570  30.649   5.550
 7126POPC   PO449596  20.610  30.662   5.850
 7126POPC   GL149597  20.645  30.723   6.150
 7126POPC   GL249598  20.517  30.697   6.150
 7126POPC   C1A49599  20.579  30.704   6.450
 7126POPC   D2A49600  20.616  30.707   6.750
 7126POPC   C3A49601  20.657  30.737   7.050
 7126POPC   C4A49602  20.657  30.691   7.350
 7126POPC   C1B49603  20.331  30.666   6.450
 7126POPC   C2B49604  20.331  30.751   6.750
 7126POPC   C3B49605  20.390  30.705   7.050
 7126POPC   C4B49606  20.380  30.738   7.350
 7127POPC   NC349607  18.234   1.960   5.550
 7127POPC   PO449608  18.261   2.024   5.850
 7127POPC   GL149609  18.327   1.958   6.150
 7127POPC   GL249610  18.178   1.885   6.150
 7127POPC   C1A49611  18.277   1.983   6.450
 7127POPC   D2A49612  18.308   1.955   6.750
 7127POPC   C3A49613  18.318   1.989   7.050
 7127POPC   C4A49614  18.293   2.018   7.350
 7127POPC   C1B49615  18.039   1.835   6.450
 7127POPC   C2B49616  18.100   1.847   6.750
 7127POPC   C3B49617  18.079   1.874   7.050
 7127POPC   C4B49618  18.105   1.799   7.350
 7128POPC   NC349619  21.348  19.061   5.550
 7128POPC   PO449620  21.396  19.064   5.850
 7128POPC   GL149621  21.339  19.029   6.150
 7128POPC   GL249622  21.373  18.965   6.150
 7128POPC   C1A49623  21.435  19.094   6.450
 7128POPC   D2A49624  21.364  19.084   6.750
 7128POPC   C3A49625  21.357  19.092   7.050
 7128POPC   C4A49626  21.349  19.103   7.350
 7128POPC   C1B49627  21.414  18.767   6.450
 7128POPC   C2B49628  21.364  18.809   6.750
 7128POPC   C3B49629  21.404  18.841   7.050
 7128POPC   C4B49630  21.332  18.854   7.350
 7129POPC   NC349631  36.889  30.653   5.550
 7129POPC   PO449632  36.927  30.663   5.850
 7129POPC   GL149633  36.897  30.671   6.150
 7129POPC   GL249634  36.960  30.574   6.150
 7129POPC   C1A49635  36.890  30.717   6.450
 7129POPC   D2A49636  36.882  30.648   6.750
 7129POPC   C3A49637  36.869  30.671   7.050
 7129POPC   C4A49638  36.919  30.695   7.350
 7129POPC   C1B49639  37.005  30.532   6.450
 7129POPC   C2B49640  37.015  30.538   6.750
 7129POPC   C3B49641  37.036  30.501   7.050
 7129POPC   C4B49642  37.084  30.455   7.350
 7130POPC   NC349643  33.847  35.334   5.550
 7130POPC   PO449644  33.759  35.377   5.850
 7130POPC   GL149645  33.817  35.376   6.150
 7130POPC   GL249646  33.877  35.248   6.150
 7130POPC   C1A49647  33.823  35.316   6.450
 7130POPC   D2A49648  33.773  35.365   6.750
 7130POPC   C3A49649  33.755  35.390   7.050
 7130POPC   C4A49650  33.805  35.304   7.350
 7130POPC   C1B49651  33.909  35.164   6.450
 7130POPC   C2B49652  33.842  35.154   6.750
 7130POPC   C3B49653  33.833  35.120   7.050
 7130POPC   C4B49654  33.908  35.074   7.350
 7131POPC   NC349655  12.861  24.441   5.550
 7131POPC   PO449656  12.807  24.498   5.850
 7131POPC   GL149657  12.840  24.526   6.150
 7131POPC   GL249658  12.816  24.406   6.150
 7131POPC   C1A49659  12.837  24.508   6.450
 7131POPC   D2A49660  12.861  24.511   6.750
 7131POPC   C3A49661  12.803  24.538   7.050
 7131POPC   C4A49662  12.841  24.497   7.350
 7131POPC   C1B49663  12.895  24.249   6.450
 7131POPC   C2B49664  12.824  24.231   6.750
 7131POPC   C3B49665  12.909  24.241   7.050
 7131POPC   C4B49666  12.890  24.245   7.350
 7132POPC   NC349667  38.430   8.953   5.550
 7132POPC   PO449668  38.489   9.010   5.850
 7132POPC   GL149669  38.485   9.021   6.150
 7132POPC   GL249670  38.530   8.901   6.150
 7132POPC   C1A49671  38.458   8.940   6.450
 7132POPC   D2A49672  38.451   8.941   6.750
 7132POPC   C3A49673  38.491   8.947   7.050
 7132POPC   C4A49674  38.456   8.957   7.350
 7132POPC   C1B49675  38.673   8.932   6.450
 7132POPC   C2B49676  38.726   8.891   6.750
 7132POPC   C3B49677  38.745   8.932   7.050
 7132POPC   C4B49678  38.687   8.895   7.350
 7133POPC   NC349679   9.715  35.308   5.550
 7133POPC   PO449680   9.775  35.332   5.850
 7133POPC   GL149681   9.752  35.376   6.150
 7133POPC   GL249682   9.846  35.226   6.150
 7133POPC   C1A49683   9.721  35.389   6.450
 7133POPC   D2A49684   9.713  35.346   6.750
 7133POPC   C3A49685   9.771  35.333   7.050
 7133POPC   C4A49686   9.774  35.327   7.350
 7133POPC   C1B49687   9.922  35.152   6.450
 7133POPC   C2B49688   9.937  35.166   6.750
 7133POPC   C3B49689   9.923  35.189   7.050
 7133POPC   C4B49690   9.900  35.214   7.350
 7134POPC   NC349691  41.557  33.808   5.550
 7134POPC   PO449692  41.533  33.848   5.850
 7134POPC   GL149693  41.606  33.808   6.150
 7134POPC   GL249694  41.569  33.929   6.150
 7134POPC   C1A49695  41.578  33.847   6.450
 7134POPC   D2A49696  41.569  33.755   6.750
 7134POPC   C3A49697  41.567  33.848   7.050
 7134POPC   C4A49698  41.525  33.791   7.350
 7134POPC   C1B49699  41.606  34.065   6.450
 7134POPC   C2B49700  41.611  34.076   6.750
 7134POPC   C3B49701  41.635  34.019   7.050
 7134POPC   C4B49702  41.611  34.051   7.350
 7135POPC   NC349703  36.942  44.628   5.550
 7135POPC   PO449704  36.932  44.697   5.850
 7135POPC   GL149705  36.917  44.667   6.150
 7135POPC   GL249706  36.970  44.554   6.150
 7135POPC   C1A49707  36.866  44.651   6.450
 7135POPC   D2A49708  36.902  44.692   6.750
 7135POPC   C3A49709  36.878  44.645   7.050
 7135POPC   C4A49710  36.891  44.696   7.350
 7135POPC   C1B49711  37.111  44.472   6.450
 7135POPC   C2B49712  37.135  44.462   6.750
 7135POPC   C3B49713  37.099  44.540   7.050
 7135POPC   C4B49714  37.084  44.495   7.350
 7136POPC   NC349715  34.537  22.128   5.550
 7136POPC   PO449716  34.584  22.122   5.850
 7136POPC   GL149717  34.569  22.124   6.150
 7136POPC   GL249718  34.489  22.247   6.150
 7136POPC   C1A49719  34.623  22.171   6.450
 7136POPC   D2A49720  34.586  22.203   6.750
 7136POPC   C3A49721  34.561  22.148   7.050
 7136POPC   C4A49722  34.545  22.160   7.350
 7136POPC   C1B49723  34.443  22.371   6.450
 7136POPC   C2B49724  34.419  22.358   6.750
 7136POPC   C3B49725  34.438  22.398   7.050
 7136POPC   C4B49726  34.450  22.317   7.350
 7137POPC   NC349727  32.231  32.237   5.550
 7137POPC   PO449728  32.223  32.254   5.850
 7137POPC   GL149729  32.289  32.298   6.150
 7137POPC   GL249730  32.306  32.208   6.150
 7137POPC   C1A49731  32.199  32.236   6.450
 7137POPC   D2A49732  32.208  32.273   6.750
 7137POPC   C3A49733  32.259  32.215   7.050
 7137POPC   C4A49734  32.270  32.200   7.350
 7137POPC   C1B49735  32.406  32.110   6.450
 7137POPC   C2B49736  32.409  32.089   6.750
 7137POPC   C3B49737  32.422  32.077   7.050
 7137POPC   C4B49738  32.427  32.077   7.350
 7138POPC   NC349739  35.312  12.035   5.550
 7138POPC   PO449740  35.366  12.066   5.850
 7138POPC   GL149741  35.378  12.073   6.150
 7138POPC   GL249742  35.267  12.025   6.150
 7138POPC   C1A49743  35.358  12.087   6.450
 7138POPC   D2A49744  35.306  12.082   6.750
 7138POPC   C3A49745  35.374  12.119   7.050
 7138POPC   C4A49746  35.378  12.122   7.350
 7138POPC   C1B49747  35.059  12.088   6.450
 7138POPC   C2B49748  35.084  12.020   6.750
 7138POPC   C3B49749  35.092  12.012   7.050
 7138POPC   C4B49750  35.072  12.010   7.350
 7139POPC   NC349751  11.349  38.504   5.550
 7139POPC   PO449752  11.282  38.483   5.850
 7139POPC   GL149753  11.349  38.488   6.150
 7139POPC   GL249754  11.196  38.485   6.150
 7139POPC   C1A49755  11.340  38.429   6.450
 7139POPC   D2A49756  11.291  38.437   6.750
 7139POPC   C3A49757  11.255  38.490   7.050
 7139POPC   C4A49758  11.256  38.419   7.350
 7139POPC   C1B49759  11.015  38.438   6.450
 7139POPC   C2B49760  11.085  38.506   6.750
 7139POPC   C3B49761  11.017  38.433   7.050
 7139POPC   C4B49762  11.052  38.495   7.350
 7140POPC   NC349763  26.051  28.374   5.550
 7140POPC   PO449764  26.080  28.383   5.850
 7140POPC   GL149765  26.081  28.347   6.150
 7140POPC   GL249766  26.134  28.447   6.150
 7140POPC   C1A49767  26.011  28.365   6.450
 7140POPC   D2A49768  26.042  28.366   6.750
 7140POPC   C3A49769  26.016  28.408   7.050
 7140POPC   C4A49770  26.035  28.396   7.350
 7140POPC   C1B49771  26.232  28.446   6.450
 7140POPC   C2B49772  26.289  28.503   6.750
 7140POPC   C3B49773  26.324  28.491   7.050
 7140POPC   C4B49774  26.313  28.476   7.350
 7141POPC   NC349775  43.065  34.548   5.550
 7141POPC   PO449776  43.081  34.539   5.850
 7141POPC   GL149777  43.128  34.580   6.150
 7141POPC   GL249778  43.054  34.664   6.150
 7141POPC   C1A49779  43.134  34.571   6.450
 7141POPC   D2A49780  43.078  34.543   6.750
 7141POPC   C3A49781  43.068  34.590   7.050
 7141POPC   C4A49782  43.155  34.541   7.350
 7141POPC   C1B49783  42.934  34.779   6.450
 7141POPC   C2B49784  42.971  34.743   6.750
 7141POPC   C3B49785  42.916  34.754   7.050
 7141POPC   C4B49786  42.944  34.777   7.350
 7142POPC   NC349787  43.087  32.271   5.550
 7142POPC   PO449788  43.122  32.279   5.850
 7142POPC   GL149789  43.095  32.264   6.150
 7142POPC   GL249790  43.149  32.148   6.150
 7142POPC   C1A49791  43.067  32.219   6.450
 7142POPC   D2A49792  43.082  32.272   6.750
 7142POPC   C3A49793  43.135  32.224   7.050
 7142POPC   C4A49794  43.072  32.289   7.350
 7142POPC   C1B49795  43.046  31.953   6.450
 7142POPC   C2B49796  43.106  32.033   6.750
 7142POPC   C3B49797  43.132  31.952   7.050
 7142POPC   C4B49798  43.078  31.998   7.350
 7143POPC   NC349799   7.415  12.813   5.550
 7143POPC   PO449800   7.442  12.849   5.850
 7143POPC   GL149801   7.454  12.894   6.150
 7143POPC   GL249802   7.386  12.722   6.150
 7143POPC   C1A49803   7.449  12.895   6.450
 7143POPC   D2A49804   7.414  12.810   6.750
 7143POPC   C3A49805   7.427  12.836   7.050
 7143POPC   C4A49806   7.419  12.858   7.350
 7143POPC   C1B49807   7.434  12.641   6.450
 7143POPC   C2B49808   7.420  12.567   6.750
 7143POPC   C3B49809   7.425  12.631   7.050
 7143POPC   C4B49810   7.424  12.650   7.350
 7144POPC   NC349811  11.289  26.002   5.550
 7144POPC   PO449812  11.318  26.015   5.850
 7144POPC   GL149813  11.339  26.030   6.150
 7144POPC   GL249814  11.198  26.040   6.150
 7144POPC   C1A49815  11.338  26.078   6.450
 7144POPC   D2A49816  11.285  25.992   6.750
 7144POPC   C3A49817  11.329  26.081   7.050
 7144POPC   C4A49818  11.326  26.056   7.350
 7144POPC   C1B49819  11.107  26.149   6.450
 7144POPC   C2B49820  11.024  26.102   6.750
 7144POPC   C3B49821  11.048  26.085   7.050
 7144POPC   C4B49822  11.076  26.082   7.350
 7145POPC   NC349823  32.213  20.601   5.550
 7145POPC   PO449824  32.275  20.641   5.850
 7145POPC   GL149825  32.240  20.572   6.150
 7145POPC   GL249826  32.206  20.550   6.150
 7145POPC   C1A49827  32.275  20.573   6.450
 7145POPC   D2A49828  32.205  20.647   6.750
 7145POPC   C3A49829  32.205  20.643   7.050
 7145POPC   C4A49830  32.230  20.603   7.350
 7145POPC   C1B49831  32.064  20.404   6.450
 7145POPC   C2B49832  32.079  20.381   6.750
 7145POPC   C3B49833  32.092  20.433   7.050
 7145POPC   C4B49834  32.056  20.423   7.350
 7146POPC   NC349835  22.905   5.882   5.550
 7146POPC   PO449836  22.970   5.824   5.850
 7146POPC   GL149837  22.922   5.850   6.150
 7146POPC   GL249838  23.092   5.911   6.150
 7146POPC   C1A49839  22.980   5.854   6.450
 7146POPC   D2A49840  22.948   5.863   6.750
 7146POPC   C3A49841  22.950   5.890   7.050
 7146POPC   C4A49842  22.984   5.917   7.350
 7146POPC   C1B49843  23.122   5.978   6.450
 7146POPC   C2B49844  23.115   5.953   6.750
 7146POPC   C3B49845  23.179   5.992   7.050
 7146POPC   C4B49846  23.191   6.001   7.350
 7147POPC   NC349847  29.165  23.687   5.550
 7147POPC   PO449848  29.170  23.740   5.850
 7147POPC   GL149849  29.128  23.734   6.150
 7147POPC   GL249850  29.061  23.594   6.150
 7147POPC   C1A49851  29.137  23.707   6.450
 7147POPC   D2A49852  29.096  23.739   6.750
 7147POPC   C3A49853  29.189  23.742   7.050
 7147POPC   C4A49854  29.099  23.684   7.350
 7147POPC   C1B49855  29.018  23.510   6.450
 7147POPC   C2B49856  28.981  23.474   6.750
 7147POPC   C3B49857  29.012  23.530   7.050
 7147POPC   C4B49858  29.042  23.511   7.350
 7148POPC   NC349859  31.470  17.471   5.550
 7148POPC   PO449860  31.507  17.508   5.850
 7148POPC   GL149861  31.518  17.555   6.150
 7148POPC   GL249862  31.503  17.450   6.150
 7148POPC   C1A49863  31.472  17.473   6.450
 7148POPC   D2A49864  31.506  17.465   6.750
 7148POPC   C3A49865  31.471  17.492   7.050
 7148POPC   C4A49866  31.503  17.551   7.350
 7148POPC   C1B49867  31.649  17.336   6.450
 7148POPC   C2B49868  31.557  17.299   6.750
 7148POPC   C3B49869  31.581  17.320   7.050
 7148POPC   C4B49870  31.562  17.264   7.350
 7149POPC   NC349871  39.183  24.533   5.550
 7149POPC   PO449872  39.237  24.537   5.850
 7149POPC   GL149873  39.256  24.527   6.150
 7149POPC   GL249874  39.257  24.413   6.150
 7149POPC   C1A49875  39.249  24.519   6.450
 7149POPC   D2A49876  39.204  24.467   6.750
 7149POPC   C3A49877  39.257  24.530   7.050
 7149POPC   C4A49878  39.236  24.454   7.350
 7149POPC   C1B49879  39.342  24.272   6.450
 7149POPC   C2B49880  39.353  24.292   6.750
 7149POPC   C3B49881  39.412  24.265   7.050
 7149POPC   C4B49882  39.415  24.259   7.350
 7150POPC   NC349883   3.523  22.914   5.550
 7150POPC   PO449884   3.542  22.898   5.850
 7150POPC   GL149885   3.570  22.945   6.150
 7150POPC   GL249886   3.599  22.833   6.150
 7150POPC   C1A49887   3.590  22.890   6.450
 7150POPC   D2A49888   3.494  22.921   6.750
 7150POPC   C3A49889   3.536  22.952   7.050
 7150POPC   C4A49890   3.572  22.970   7.350
 7150POPC   C1B49891   3.595  22.718   6.450
 7150POPC   C2B49892   3.580  22.714   6.750
 7150POPC   C3B49893   3.602  22.691   7.050
 7150POPC   C4B49894   3.574  22.729   7.350
 7151POPC   NC349895   5.126  26.061   5.550
 7151POPC   PO449896   5.060  26.005   5.850
 7151POPC   GL149897   5.093  25.991   6.150
 7151POPC   GL249898   5.205  25.970   6.150
 7151POPC   C1A49899   5.061  26.043   6.450
 7151POPC   D2A49900   5.120  26.040   6.750
 7151POPC   C3A49901   5.072  26.040   7.050
 7151POPC   C4A49902   5.062  26.027   7.350
 7151POPC   C1B49903   5.283  25.829   6.450
 7151POPC   C2B49904   5.224  25.793   6.750
 7151POPC   C3B49905   5.219  25.811   7.050
 7151POPC   C4B49906   5.210  25.840   7.350
 7152POPC   NC349907   6.596  33.020   5.550
 7152POPC   PO449908   6.664  33.042   5.850
 7152POPC   GL149909   6.623  32.984   6.150
 7152POPC   GL249910   6.571  32.893   6.150
 7152POPC   C1A49911   6.687  32.977   6.450
 7152POPC   D2A49912   6.690  33.036   6.750
 7152POPC   C3A49913   6.672  33.047   7.050
 7152POPC   C4A49914   6.651  33.048   7.350
 7152POPC   C1B49915   6.557  32.788   6.450
 7152POPC   C2B49916   6.530  32.802   6.750
 7152POPC   C3B49917   6.550  32.808   7.050
 7152POPC   C4B49918   6.584  32.757   7.350
 7153POPC   NC349919  36.952   2.766   5.550
 7153POPC   PO449920  36.937   2.752   5.850
 7153POPC   GL149921  36.933   2.775   6.150
 7153POPC   GL249922  36.789   2.843   6.150
 7153POPC   C1A49923  36.922   2.751   6.450
 7153POPC   D2A49924  36.879   2.773   6.750
 7153POPC   C3A49925  36.856   2.762   7.050
 7153POPC   C4A49926  36.889   2.731   7.350
 7153POPC   C1B49927  36.702   2.833   6.450
 7153POPC   C2B49928  36.694   2.887   6.750
 7153POPC   C3B49929  36.663   2.884   7.050
 7153POPC   C4B49930  36.679   2.806   7.350
 7154POPC   NC349931  19.095  40.801   5.550
 7154POPC   PO449932  19.045  40.791   5.850
 7154POPC   GL149933  19.057  40.738   6.150
 7154POPC   GL249934  19.033  40.616   6.150
 7154POPC   C1A49935  19.032  40.741   6.450
 7154POPC   D2A49936  19.014  40.827   6.750
 7154POPC   C3A49937  19.055  40.791   7.050
 7154POPC   C4A49938  19.012  40.750   7.350
 7154POPC   C1B49939  18.990  40.581   6.450
 7154POPC   C2B49940  19.036  40.516   6.750
 7154POPC   C3B49941  18.997  40.500   7.050
 7154POPC   C4B49942  18.999  40.584   7.350
 7155POPC   NC349943   7.422   3.532   5.550
 7155POPC   PO449944   7.389   3.519   5.850
 7155POPC   GL149945   7.469   3.545   6.150
 7155POPC   GL249946   7.455   3.412   6.150
 7155POPC   C1A49947   7.460   3.538   6.450
 7155POPC   D2A49948   7.459   3.535   6.750
 7155POPC   C3A49949   7.374   3.498   7.050
 7155POPC   C4A49950   7.440   3.491   7.350
 7155POPC   C1B49951   7.408   3.259   6.450
 7155POPC   C2B49952   7.371   3.288   6.750
 7155POPC   C3B49953   7.388   3.312   7.050
 7155POPC   C4B49954   7.379   3.268   7.350
 7156POPC   NC349955  42.330  43.927   5.550
 7156POPC   PO449956  42.347  43.842   5.850
 7156POPC   GL149957  42.305  43.842   6.150
 7156POPC   GL249958  42.251  43.818   6.150
 7156POPC   C1A49959  42.335  43.881   6.450
 7156POPC   D2A49960  42.348  43.893   6.750
 7156POPC   C3A49961  42.363  43.904   7.050
 7156POPC   C4A49962  42.340  43.877   7.350
 7156POPC   C1B49963  42.108  43.849   6.450
 7156POPC   C2B49964  42.084  43.799   6.750
 7156POPC   C3B49965  42.085  43.774   7.050
 7156POPC   C4B49966  42.108  43.812   7.350
 7157POPC   NC349967  35.350  42.330   5.550
 7157POPC   PO449968  35.331  42.287   5.850
 7157POPC   GL149969  35.350  42.327   6.150
 7157POPC   GL249970  35.240  42.351   6.150
 7157POPC   C1A49971  35.363  42.376   6.450
 7157POPC   D2A49972  35.399  42.355   6.750
 7157POPC   C3A49973  35.375  42.363   7.050
 7157POPC   C4A49974  35.380  42.304   7.350
 7157POPC   C1B49975  35.114  42.378   6.450
 7157POPC   C2B49976  35.052  42.340   6.750
 7157POPC   C3B49977  35.119  42.359   7.050
 7157POPC   C4B49978  35.139  42.325   7.350
 7158POPC   NC349979  11.282  15.146   5.550
 7158POPC   PO449980  11.319  15.209   5.850
 7158POPC   GL149981  11.345  15.227   6.150
 7158POPC   GL249982  11.379  15.058   6.150
 7158POPC   C1A49983  11.276  15.134   6.450
 7158POPC   D2A49984  11.269  15.134   6.750
 7158POPC   C3A49985  11.318  15.222   7.050
 7158POPC   C4A49986  11.255  15.158   7.350
 7158POPC   C1B49987  11.442  14.912   6.450
 7158POPC   C2B49988  11.432  14.960   6.750
 7158POPC   C3B49989  11.399  14.907   7.050
 7158POPC   C4B49990  11.415  14.922   7.350
 7159POPC   NC349991   5.915  22.183   5.550
 7159POPC   PO449992   5.852  22.112   5.850
 7159POPC   GL149993   5.848  22.197   6.150
 7159POPC   GL249994   5.762  22.033   6.150
 7159POPC   C1A49995   5.893  22.138   6.450
 7159POPC   D2A49996   5.889  22.199   6.750
 7159POPC   C3A49997   5.891  22.165   7.050
 7159POPC   C4A49998   5.844  22.116   7.350
 7159POPC   C1B49999   5.736  21.943   6.450
 7159POPC   C2B50000   5.733  21.983   6.750
 7159POPC   C3B50001   5.742  21.947   7.050
 7159POPC   C4B50002   5.669  21.973   7.350
 7160POPC   NC350003   5.136  18.234   5.550
 7160POPC   PO450004   5.080  18.310   5.850
 7160POPC   GL150005   5.101  18.308   6.150
 7160POPC   GL250006   5.201  18.234   6.150
 7160POPC   C1A50007   5.105  18.287   6.450
 7160POPC   D2A50008   5.131  18.254   6.750
 7160POPC   C3A50009   5.096  18.257   7.050
 7160POPC   C4A50010   5.095  18.238   7.350
 7160POPC   C1B50011   5.266  18.081   6.450
 7160POPC   C2B50012   5.282  18.065   6.750
 7160POPC   C3B50013   5.283  18.074   7.050
 7160POPC   C4B50014   5.256  18.065   7.350
 7161POPC   NC350015  33.017  12.031   5.550
 7161POPC   PO450016  33.071  12.101   5.850
 7161POPC   GL150017  32.979  12.077   6.150
 7161POPC   GL250018  33.076  12.223   6.150
 7161POPC   C1A50019  33.063  12.048   6.450
 7161POPC   D2A50020  33.013  12.070   6.750
 7161POPC   C3A50021  33.058  12.086   7.050
 7161POPC   C4A50022  33.000  12.041   7.350
 7161POPC   C1B50023  33.137  12.288   6.450
 7161POPC   C2B50024  33.072  12.288   6.750
 7161POPC   C3B50025  33.073  12.366   7.050
 7161POPC   C4B50026  33.113  12.327   7.350
 7162POPC   NC350027  15.153  15.927   5.550
 7162POPC   PO450028  15.229  15.957   5.850
 7162POPC   GL150029  15.178  15.934   6.150
 7162POPC   GL250030  15.082  15.886   6.150
 7162POPC   C1A50031  15.207  15.998   6.450
 7162POPC   D2A50032  15.175  15.994   6.750
 7162POPC   C3A50033  15.203  15.928   7.050
 7162POPC   C4A50034  15.151  15.968   7.350
 7162POPC   C1B50035  15.038  15.780   6.450
 7162POPC   C2B50036  15.019  15.784   6.750
 7162POPC   C3B50037  15.030  15.776   7.050
 7162POPC   C4B50038  14.992  15.736   7.350
 7163POPC   NC350039   5.117   6.640   5.550
 7163POPC   PO450040   5.127   6.673   5.850
 7163POPC   GL150041   5.120   6.644   6.150
 7163POPC   GL250042   5.031   6.567   6.150
 7163POPC   C1A50043   5.107   6.626   6.450
 7163POPC   D2A50044   5.099   6.647   6.750
 7163POPC   C3A50045   5.091   6.606   7.050
 7163POPC   C4A50046   5.086   6.628   7.350
 7163POPC   C1B50047   5.038   6.397   6.450
 7163POPC   C2B50048   5.041   6.413   6.750
 7163POPC   C3B50049   5.045   6.387   7.050
 7163POPC   C4B50050   5.089   6.371   7.350
 7164POPC   NC350051  26.849  31.470   5.550
 7164POPC   PO450052  26.799  31.425   5.850
 7164POPC   GL150053  26.794  31.448   6.150
 7164POPC   GL250054  26.820  31.321   6.150
 7164POPC   C1A50055  26.777  31.472   6.450
 7164POPC   D2A50056  26.773  31.503   6.750
 7164POPC   C3A50057  26.801  31.460   7.050
 7164POPC   C4A50058  26.794  31.478   7.350
 7164POPC   C1B50059  26.840  31.229   6.450
 7164POPC   C2B50060  26.845  31.198   6.750
 7164POPC   C3B50061  26.872  31.214   7.050
 7164POPC   C4B50062  26.875  31.207   7.350
 7165POPC   NC350063   2.017  43.159   5.550
 7165POPC   PO450064   1.972  43.156   5.850
 7165POPC   GL150065   1.986  43.146   6.150
 7165POPC   GL250066   2.097  43.252   6.150
 7165POPC   C1A50067   1.942  43.154   6.450
 7165POPC   D2A50068   2.021  43.093   6.750
 7165POPC   C3A50069   1.962  43.075   7.050
 7165POPC   C4A50070   2.031  43.126   7.350
 7165POPC   C1B50071   2.180  43.335   6.450
 7165POPC   C2B50072   2.170  43.321   6.750
 7165POPC   C3B50073   2.163  43.283   7.050
 7165POPC   C4B50074   2.175  43.341   7.350
 7166POPC   NC350075  28.390  30.740   5.550
 7166POPC   PO450076  28.396  30.746   5.850
 7166POPC   GL150077  28.412  30.741   6.150
 7166POPC   GL250078  28.311  30.811   6.150
 7166POPC   C1A50079  28.339  30.730   6.450
 7166POPC   D2A50080  28.329  30.704   6.750
 7166POPC   C3A50081  28.353  30.654   7.050
 7166POPC   C4A50082  28.331  30.690   7.350
 7166POPC   C1B50083  28.212  30.854   6.450
 7166POPC   C2B50084  28.192  30.876   6.750
 7166POPC   C3B50085  28.232  30.870   7.050
 7166POPC   C4B50086  28.233  30.919   7.350
 7167POPC   NC350087  19.061  44.690   5.550
 7167POPC   PO450088  19.040  44.657   5.850
 7167POPC   GL150089  19.032  44.710   6.150
 7167POPC   GL250090  19.015  44.791   6.150
 7167POPC   C1A50091  19.041  44.660   6.450
 7167POPC   D2A50092  19.016  44.709   6.750
 7167POPC   C3A50093  19.061  44.637   7.050
 7167POPC   C4A50094  19.043  44.683   7.350
 7167POPC   C1B50095  18.975  44.905   6.450
 7167POPC   C2B50096  18.947  44.898   6.750
 7167POPC   C3B50097  19.024  44.948   7.050
 7167POPC   C4B50098  19.034  44.932   7.350
 7168POPC   NC350099  19.036   6.670   5.550
 7168POPC   PO450100  19.017   6.631   5.850
 7168POPC   GL150101  19.032   6.638   6.150
 7168POPC   GL250102  18.964   6.667   6.150
 7168POPC   C1A50103  19.094   6.665   6.450
 7168POPC   D2A50104  19.067   6.681   6.750
 7168POPC   C3A50105  19.099   6.685   7.050
 7168POPC   C4A50106  19.025   6.678   7.350
 7168POPC   C1B50107  18.814   6.740   6.450
 7168POPC   C2B50108  18.833   6.710   6.750
 7168POPC   C3B50109  18.854   6.694   7.050
 7168POPC   C4B50110  18.827   6.776   7.350
 7169POPC   NC350111  39.280   4.295   5.550
 7169POPC   PO450112  39.220   4.345   5.850
 7169POPC   GL150113  39.208   4.367   6.150
 7169POPC   GL250114  39.241   4.403   6.150
 7169POPC   C1A50115  39.195   4.296   6.450
 7169POPC   D2A50116  39.264   4.272   6.750
 7169POPC   C3A50117  39.249   4.339   7.050
 7169POPC   C4A50118  39.252   4.342   7.350
 7169POPC   C1B50119  39.307   4.525   6.450
 7169POPC   C2B50120  39.261   4.557   6.750
 7169POPC   C3B50121  39.272   4.603   7.050
 7169POPC   C4B50122  39.307   4.556   7.350
 7170POPC   NC350123  15.226  42.376   5.550
 7170POPC   PO450124  15.227  42.317   5.850
 7170POPC   GL150125  15.210  42.319   6.150
 7170POPC   GL250126  15.291  42.391   6.150
 7170POPC   C1A50127  15.206  42.333   6.450
 7170POPC   D2A50128  15.167  42.304   6.750
 7170POPC   C3A50129  15.185  42.313   7.050
 7170POPC   C4A50130  15.173  42.378   7.350
 7170POPC   C1B50131  15.453  42.384   6.450
 7170POPC   C2B50132  15.413  42.420   6.750
 7170POPC   C3B50133  15.390  42.395   7.050
 7170POPC   C4B50134  15.398  42.433   7.350
 7171POPC   NC350135  22.954  15.993   5.550
 7171POPC   PO450136  22.950  15.967   5.850
 7171POPC   GL150137  22.933  15.931   6.150
 7171POPC   GL250138  23.103  15.983   6.150
 7171POPC   C1A50139  22.916  15.977   6.450
 7171POPC   D2A50140  22.924  15.996   6.750
 7171POPC   C3A50141  22.946  15.967   7.050
 7171POPC   C4A50142  22.905  15.952   7.350
 7171POPC   C1B50143  23.140  16.020   6.450
 7171POPC   C2B50144  23.178  15.995   6.750
 7171POPC   C3B50145  23.229  15.943   7.050
 7171POPC   C4B50146  23.229  15.976   7.350
 7172POPC   NC350147  28.331  17.528   5.550
 7172POPC   PO450148  28.324  17.547   5.850
 7172POPC   GL150149  28.325  17.531   6.150
 7172POPC   GL250150  28.263  17.385   6.150
 7172POPC   C1A50151  28.391  17.490   6.450
 7172POPC   D2A50152  28.385  17.467   6.750
 7172POPC   C3A50153  28.345  17.517   7.050
 7172POPC   C4A50154  28.413  17.512   7.350
 7172POPC   C1B50155  28.282  17.324   6.450
 7172POPC   C2B50156  28.234  17.319   6.750
 7172POPC   C3B50157  28.257  17.342   7.050
 7172POPC   C4B50158  28.221  17.264   7.350
 7173POPC   NC350159   8.198  18.240   5.550
 7173POPC   PO450160   8.229  18.259   5.850
 7173POPC   GL150161   8.158  18.314   6.150
 7173POPC   GL250162   8.333  18.255   6.150
 7173POPC   C1A50163   8.184  18.293   6.450
 7173POPC   D2A50164   8.160  18.252   6.750
 7173POPC   C3A50165   8.216  18.252   7.050
 7173POPC   C4A50166   8.176  18.247   7.350
 7173POPC   C1B50167   8.423  18.268   6.450
 7173POPC   C2B50168   8.428  18.255   6.750
 7173POPC   C3B50169   8.398  18.248   7.050
 7173POPC   C4B50170   8.416  18.307   7.350
 7174POPC   NC350171  17.466   8.971   5.550
 7174POPC   PO450172  17.508   8.939   5.850
 7174POPC   GL150173  17.492   9.013   6.150
 7174POPC   GL250174  17.472   8.856   6.150
 7174POPC   C1A50175  17.552   8.936   6.450
 7174POPC   D2A50176  17.476   8.969   6.750
 7174POPC   C3A50177  17.497   8.953   7.050
 7174POPC   C4A50178  17.512   9.022   7.350
 7174POPC   C1B50179  17.415   8.708   6.450
 7174POPC   C2B50180  17.392   8.758   6.750
 7174POPC   C3B50181  17.427   8.704   7.050
 7174POPC   C4B50182  17.466   8.739   7.350
 7175POPC   NC350183  31.519  30.720   5.550
 7175POPC   PO450184  31.445  30.683   5.850
 7175POPC   GL150185  31.486  30.698   6.150
 7175POPC   GL250186  31.512  30.841   6.150
 7175POPC   C1A50187  31.433  30.724   6.450
 7175POPC   D2A50188  31.466  30.708   6.750
 7175POPC   C3A50189  31.452  30.648   7.050
 7175POPC   C4A50190  31.477  30.651   7.350
 7175POPC   C1B50191  31.514  30.920   6.450
 7175POPC   C2B50192  31.561  30.923   6.750
 7175POPC   C3B50193  31.562  30.990   7.050
 7175POPC   C4B50194  31.554  30.906   7.350
 7176POPC   NC350195   1.952   2.012   5.550
 7176POPC   PO450196   2.023   1.971   5.850
 7176POPC   GL150197   2.039   2.014   6.150
 7176POPC   GL250198   2.094   1.928   6.150
 7176POPC   C1A50199   1.955   2.020   6.450
 7176POPC   D2A50200   2.005   1.980   6.750
 7176POPC   C3A50201   1.971   2.008   7.050
 7176POPC   C4A50202   2.028   1.940   7.350
 7176POPC   C1B50203   2.190   1.913   6.450
 7176POPC   C2B50204   2.249   2.002   6.750
 7176POPC   C3B50205   2.248   2.001   7.050
 7176POPC   C4B50206   2.212   1.939   7.350
 7177POPC   NC350207  19.011  23.664   5.550
 7177POPC   PO450208  19.018  23.709   5.850
 7177POPC   GL150209  19.038  23.737   6.150
 7177POPC   GL250210  19.181  23.742   6.150
 7177POPC   C1A50211  19.085  23.741   6.450
 7177POPC   D2A50212  19.080  23.697   6.750
 7177POPC   C3A50213  19.058  23.730   7.050
 7177POPC   C4A50214  19.038  23.677   7.350
 7177POPC   C1B50215  19.272  23.820   6.450
 7177POPC   C2B50216  19.312  23.778   6.750
 7177POPC   C3B50217  19.275  23.810   7.050
 7177POPC   C4B50218  19.310  23.851   7.350
 7178POPC   NC350219  41.529  22.151   5.550
 7178POPC   PO450220  41.574  22.187   5.850
 7178POPC   GL150221  41.576  22.119   6.150
 7178POPC   GL250222  41.629  22.257   6.150
 7178POPC   C1A50223  41.591  22.196   6.450
 7178POPC   D2A50224  41.514  22.131   6.750
 7178POPC   C3A50225  41.594  22.145   7.050
 7178POPC   C4A50226  41.605  22.207   7.350
 7178POPC   C1B50227  41.768  22.263   6.450
 7178POPC   C2B50228  41.819  22.221   6.750
 7178POPC   C3B50229  41.786  22.315   7.050
 7178POPC   C4B50230  41.773  22.275   7.350
 7179POPC   NC350231  34.590  19.865   5.550
 7179POPC   PO450232  34.596  19.833   5.850
 7179POPC   GL150233  34.618  19.851   6.150
 7179POPC   GL250234  34.491  19.924   6.150
 7179POPC   C1A50235  34.528  19.830   6.450
 7179POPC   D2A50236  34.548  19.830   6.750
 7179POPC   C3A50237  34.573  19.823   7.050
 7179POPC   C4A50238  34.599  19.879   7.350
 7179POPC   C1B50239  34.333  19.962   6.450
 7179POPC   C2B50240  34.384  19.951   6.750
 7179POPC   C3B50241  34.322  19.999   7.050
 7179POPC   C4B50242  34.415  19.957   7.350
 7180POPC   NC350243  24.517  10.501   5.550
 7180POPC   PO450244  24.535  10.475   5.850
 7180POPC   GL150245  24.487  10.485   6.150
 7180POPC   GL250246  24.495  10.406   6.150
 7180POPC   C1A50247  24.507  10.495   6.450
 7180POPC   D2A50248  24.521  10.515   6.750
 7180POPC   C3A50249  24.474  10.551   7.050
 7180POPC   C4A50250  24.500  10.492   7.350
 7180POPC   C1B50251  24.555  10.260   6.450
 7180POPC   C2B50252  24.549  10.234   6.750
 7180POPC   C3B50253  24.556  10.252   7.050
 7180POPC   C4B50254  24.545  10.305   7.350
 7181POPC   NC350255  43.923   5.072   5.550
 7181POPC   PO450256  43.870   5.099   5.850
 7181POPC   GL150257  43.906   5.073   6.150
 7181POPC   GL250258  43.979   4.988   6.150
 7181POPC   C1A50259  43.894   5.066   6.450
 7181POPC   D2A50260  43.844   5.071   6.750
 7181POPC   C3A50261  43.841   5.082   7.050
 7181POPC   C4A50262  43.891   5.066   7.350
 7181POPC   C1B50263  43.962   4.871   6.450
 7181POPC   C2B50264  43.993   4.872   6.750
 7181POPC   C3B50265  44.007   4.845   7.050
 7181POPC   C4B50266  44.024   4.869   7.350
 7182POPC   NC350267  27.569  12.844   5.550
 7182POPC   PO450268  27.552  12.898   5.850
 7182POPC   GL150269  27.551  12.874   6.150
 7182POPC   GL250270  27.485  12.943   6.150
 7182POPC   C1A50271  27.556  12.831   6.450
 7182POPC   D2A50272  27.603  12.887   6.750
 7182POPC   C3A50273  27.553  12.856   7.050
 7182POPC   C4A50274  27.611  12.861   7.350
 7182POPC   C1B50275  27.498  13.114   6.450
 7182POPC   C2B50276  27.463  13.112   6.750
 7182POPC   C3B50277  27.461  13.052   7.050
 7182POPC   C4B50278  27.492  13.106   7.350
 7183POPC   NC350279  23.672  24.484   5.550
 7183POPC   PO450280  23.746  24.505   5.850
 7183POPC   GL150281  23.764  24.468   6.150
 7183POPC   GL250282  23.590  24.518   6.150
 7183POPC   C1A50283  23.704  24.453   6.450
 7183POPC   D2A50284  23.730  24.485   6.750
 7183POPC   C3A50285  23.735  24.531   7.050
 7183POPC   C4A50286  23.671  24.532   7.350
 7183POPC   C1B50287  23.451  24.543   6.450
 7183POPC   C2B50288  23.474  24.590   6.750
 7183POPC   C3B50289  23.511  24.592   7.050
 7183POPC   C4B50290  23.503  24.506   7.350
 7184POPC   NC350291  16.769   9.014   5.550
 7184POPC   PO450292  16.694   8.961   5.850
 7184POPC   GL150293  16.720   8.963   6.150
 7184POPC   GL250294  16.775   8.848   6.150
 7184POPC   C1A50295  16.734   8.994   6.450
 7184POPC   D2A50296  16.721   8.961   6.750
 7184POPC   C3A50297  16.774   8.954   7.050
 7184POPC   C4A50298  16.716   8.973   7.350
 7184POPC   C1B50299  16.841   8.814   6.450
 7184POPC   C2B50300  16.899   8.780   6.750
 7184POPC   C3B50301  16.893   8.740   7.050
 7184POPC   C4B50302  16.891   8.799   7.350
 7185POPC   NC350303  15.228   7.392   5.550
 7185POPC   PO450304  15.193   7.405   5.850
 7185POPC   GL150305  15.219   7.377   6.150
 7185POPC   GL250306  15.062   7.478   6.150
 7185POPC   C1A50307  15.188   7.446   6.450
 7185POPC   D2A50308  15.219   7.466   6.750
 7185POPC   C3A50309  15.182   7.438   7.050
 7185POPC   C4A50310  15.174   7.424   7.350
 7185POPC   C1B50311  14.942   7.569   6.450
 7185POPC   C2B50312  15.027   7.592   6.750
 7185POPC   C3B50313  14.961   7.564   7.050
 7185POPC   C4B50314  15.030   7.547   7.350
 7186POPC   NC350315  34.530  13.665   5.550
 7186POPC   PO450316  34.621  13.641   5.850
 7186POPC   GL150317  34.596  13.614   6.150
 7186POPC   GL250318  34.650  13.756   6.150
 7186POPC   C1A50319  34.622  13.661   6.450
 7186POPC   D2A50320  34.561  13.659   6.750
 7186POPC   C3A50321  34.543  13.636   7.050
 7186POPC   C4A50322  34.565  13.587   7.350
 7186POPC   C1B50323  34.719  13.864   6.450
 7186POPC   C2B50324  34.723  13.889   6.750
 7186POPC   C3B50325  34.701  13.816   7.050
 7186POPC   C4B50326  34.717  13.825   7.350
 7187POPC   NC350327  40.801  26.038   5.550
 7187POPC   PO450328  40.815  26.043   5.850
 7187POPC   GL150329  40.748  26.046   6.150
 7187POPC   GL250330  40.835  26.127   6.150
 7187POPC   C1A50331  40.797  25.995   6.450
 7187POPC   D2A50332  40.742  26.075   6.750
 7187POPC   C3A50333  40.777  26.027   7.050
 7187POPC   C4A50334  40.735  26.020   7.350
 7187POPC   C1B50335  40.924  26.225   6.450
 7187POPC   C2B50336  40.969  26.213   6.750
 7187POPC   C3B50337  40.958  26.295   7.050
 7187POPC   C4B50338  40.946  26.203   7.350
 7188POPC   NC350339  25.300   5.087   5.550
 7188POPC   PO450340  25.261   5.126   5.850
 7188POPC   GL150341  25.310   5.107   6.150
 7188POPC   GL250342  25.345   5.231   6.150
 7188POPC   C1A50343  25.261   5.111   6.450
 7188POPC   D2A50344  25.309   5.082   6.750
 7188POPC   C3A50345  25.269   5.089   7.050
 7188POPC   C4A50346  25.218   5.101   7.350
 7188POPC   C1B50347  25.348   5.290   6.450
 7188POPC   C2B50348  25.308   5.305   6.750
 7188POPC   C3B50349  25.299   5.316   7.050
 7188POPC   C4B50350  25.341   5.315   7.350
 7189POPC   NC350351   6.688  20.655   5.550
 7189POPC   PO450352   6.652  20.653   5.850
 7189POPC   GL150353   6.672  20.656   6.150
 7189POPC   GL250354   6.485  20.635   6.150
 7189POPC   C1A50355   6.685  20.613   6.450
 7189POPC   D2A50356   6.655  20.642   6.750
 7189POPC   C3A50357   6.602  20.655   7.050
 7189POPC   C4A50358   6.649  20.577   7.350
 7189POPC   C1B50359   6.391  20.661   6.450
 7189POPC   C2B50360   6.445  20.680   6.750
 7189POPC   C3B50361   6.452  20.733   7.050
 7189POPC   C4B50362   6.384  20.708   7.350
 7190POPC   NC350363  16.748   7.438   5.550
 7190POPC   PO450364  16.737   7.463   5.850
 7190POPC   GL150365  16.693   7.435   6.150
 7190POPC   GL250366  16.660   7.383   6.150
 7190POPC   C1A50367  16.730   7.452   6.450
 7190POPC   D2A50368  16.747   7.445   6.750
 7190POPC   C3A50369  16.730   7.382   7.050
 7190POPC   C4A50370  16.767   7.378   7.350
 7190POPC   C1B50371  16.536   7.357   6.450
 7190POPC   C2B50372  16.510   7.354   6.750
 7190POPC   C3B50373  16.491   7.369   7.050
 7190POPC   C4B50374  16.507   7.339   7.350
 7191POPC   NC350375  14.400  41.581   5.550
 7191POPC   PO450376  14.441  41.547   5.850
 7191POPC   GL150377  14.417  41.601   6.150
 7191POPC   GL250378  14.369  41.468   6.150
 7191POPC   C1A50379  14.373  41.546   6.450
 7191POPC   D2A50380  14.439  41.592   6.750
 7191POPC   C3A50381  14.363  41.512   7.050
 7191POPC   C4A50382  14.354  41.540   7.350
 7191POPC   C1B50383  14.320  41.332   6.450
 7191POPC   C2B50384  14.336  41.349   6.750
 7191POPC   C3B50385  14.308  41.344   7.050
 7191POPC   C4B50386  14.327  41.324   7.350
 7192POPC   NC350387  12.093   8.180   5.550
 7192POPC   PO450388  12.069   8.234   5.850
 7192POPC   GL150389  12.122   8.218   6.150
 7192POPC   GL250390  11.980   8.245   6.150
 7192POPC   C1A50391  12.075   8.201   6.450
 7192POPC   D2A50392  12.054   8.213   6.750
 7192POPC   C3A50393  12.054   8.217   7.050
 7192POPC   C4A50394  12.086   8.193   7.350
 7192POPC   C1B50395  11.876   8.349   6.450
 7192POPC   C2B50396  11.861   8.284   6.750
 7192POPC   C3B50397  11.860   8.328   7.050
 7192POPC   C4B50398  11.818   8.355   7.350
 7193POPC   NC350399   9.765  28.361   5.550
 7193POPC   PO450400   9.779  28.393   5.850
 7193POPC   GL150401   9.726  28.399   6.150
 7193POPC   GL250402   9.801  28.432   6.150
 7193POPC   C1A50403   9.770  28.362   6.450
 7193POPC   D2A50404   9.792  28.416   6.750
 7193POPC   C3A50405   9.730  28.348   7.050
 7193POPC   C4A50406   9.720  28.333   7.350
 7193POPC   C1B50407   9.985  28.485   6.450
 7193POPC   C2B50408   9.966  28.504   6.750
 7193POPC   C3B50409   9.942  28.506   7.050
 7193POPC   C4B50410   9.927  28.536   7.350
 7194POPC   NC350411  14.383  36.855   5.550
 7194POPC   PO450412  14.409  36.895   5.850
 7194POPC   GL150413  14.431  36.917   6.150
 7194POPC   GL250414  14.487  36.943   6.150
 7194POPC   C1A50415  14.378  36.894   6.450
 7194POPC   D2A50416  14.359  36.923   6.750
 7194POPC   C3A50417  14.406  36.927   7.050
 7194POPC   C4A50418  14.439  36.885   7.350
 7194POPC   C1B50419  14.570  37.003   6.450
 7194POPC   C2B50420  14.653  37.054   6.750
 7194POPC   C3B50421  14.572  37.017   7.050
 7194POPC   C4B50422  14.599  37.059   7.350
 7195POPC   NC350423  22.126  36.873   5.550
 7195POPC   PO450424  22.187  36.947   5.850
 7195POPC   GL150425  22.170  36.951   6.150
 7195POPC   GL250426  22.009  36.894   6.150
 7195POPC   C1A50427  22.141  36.951   6.450
 7195POPC   D2A50428  22.183  36.930   6.750
 7195POPC   C3A50429  22.211  36.928   7.050
 7195POPC   C4A50430  22.140  36.858   7.350
 7195POPC   C1B50431  21.889  36.953   6.450
 7195POPC   C2B50432  21.903  36.863   6.750
 7195POPC   C3B50433  21.886  36.871   7.050
 7195POPC   C4B50434  21.899  36.917   7.350
 7196POPC   NC350435  44.663  12.086   5.550
 7196POPC   PO450436  44.652  12.032   5.850
 7196POPC   GL150437  44.648  12.111   6.150
 7196POPC   GL250438  44.680  12.183   6.150
 7196POPC   C1A50439  44.645  12.076   6.450
 7196POPC   D2A50440  44.685  12.083   6.750
 7196POPC   C3A50441  44.670  12.091   7.050
 7196POPC   C4A50442  44.710  12.079   7.350
 7196POPC   C1B50443  44.680  12.366   6.450
 7196POPC   C2B50444  44.609  12.275   6.750
 7196POPC   C3B50445  44.590  12.366   7.050
 7196POPC   C4B50446  44.662  12.329   7.350
 7197POPC   NC350447  17.457   5.069   5.550
 7197POPC   PO450448  17.506   5.106   5.850
 7197POPC   GL150449  17.551   5.072   6.150
 7197POPC   GL250450  17.644   5.157   6.150
 7197POPC   C1A50451  17.498   5.055   6.450
 7197POPC   D2A50452  17.457   5.066   6.750
 7197POPC   C3A50453  17.525   5.143   7.050
 7197POPC   C4A50454  17.484   5.121   7.350
 7197POPC   C1B50455  17.722   5.236   6.450
 7197POPC   C2B50456  17.734   5.280   6.750
 7197POPC   C3B50457  17.660   5.237   7.050
 7197POPC   C4B50458  17.668   5.249   7.350
 7198POPC   NC350459  30.670   4.354   5.550
 7198POPC   PO450460  30.712   4.327   5.850
 7198POPC   GL150461  30.708   4.334   6.150
 7198POPC   GL250462  30.596   4.385   6.150
 7198POPC   C1A50463  30.694   4.304   6.450
 7198POPC   D2A50464  30.671   4.327   6.750
 7198POPC   C3A50465  30.716   4.327   7.050
 7198POPC   C4A50466  30.721   4.341   7.350
 7198POPC   C1B50467  30.629   4.491   6.450
 7198POPC   C2B50468  30.606   4.503   6.750
 7198POPC   C3B50469  30.549   4.574   7.050
 7198POPC   C4B50470  30.579   4.512   7.350
 7199POPC   NC350471  29.126  38.482   5.550
 7199POPC   PO450472  29.111  38.447   5.850
 7199POPC   GL150473  29.128  38.436   6.150
 7199POPC   GL250474  29.215  38.346   6.150
 7199POPC   C1A50475  29.163  38.459   6.450
 7199POPC   D2A50476  29.178  38.431   6.750
 7199POPC   C3A50477  29.144  38.418   7.050
 7199POPC   C4A50478  29.141  38.480   7.350
 7199POPC   C1B50479  29.244  38.199   6.450
 7199POPC   C2B50480  29.230  38.170   6.750
 7199POPC   C3B50481  29.237  38.248   7.050
 7199POPC   C4B50482  29.225  38.187   7.350
 7200POPC   NC350483   6.627   7.440   5.550
 7200POPC   PO450484   6.599   7.384   5.850
 7200POPC   GL150485   6.649   7.389   6.150
 7200POPC   GL250486   6.491   7.361   6.150
 7200POPC   C1A50487   6.630   7.377   6.450
 7200POPC   D2A50488   6.606   7.386   6.750
 7200POPC   C3A50489   6.664   7.378   7.050
 7200POPC   C4A50490   6.608   7.385   7.350
 7200POPC   C1B50491   6.404   7.327   6.450
 7200POPC   C2B50492   6.439   7.330   6.750
 7200POPC   C3B50493   6.358   7.324   7.050
 7200POPC   C4B50494   6.448   7.357   7.350
 7201POPC   NC350495   9.750  43.881   5.550
 7201POPC   PO450496   9.784  43.843   5.850
 7201POPC   GL150497   9.792  43.887   6.150
 7201POPC   GL250498   9.916  43.861   6.150
 7201POPC   C1A50499   9.782  43.842   6.450
 7201POPC   D2A50500   9.774  43.847   6.750
 7201POPC   C3A50501   9.781  43.926   7.050
 7201POPC   C4A50502   9.750  43.912   7.350
 7201POPC   C1B50503  10.000  43.849   6.450
 7201POPC   C2B50504   9.949  43.829   6.750
 7201POPC   C3B50505   9.956  43.796   7.050
 7201POPC   C4B50506  10.041  43.845   7.350
 7202POPC   NC350507   8.147  43.149   5.550
 7202POPC   PO450508   8.214  43.152   5.850
 7202POPC   GL150509   8.205  43.065   6.150
 7202POPC   GL250510   8.297  43.083   6.150
 7202POPC   C1A50511   8.151  43.136   6.450
 7202POPC   D2A50512   8.183  43.082   6.750
 7202POPC   C3A50513   8.231  43.139   7.050
 7202POPC   C4A50514   8.228  43.095   7.350
 7202POPC   C1B50515   8.455  42.992   6.450
 7202POPC   C2B50516   8.387  42.989   6.750
 7202POPC   C3B50517   8.451  43.014   7.050
 7202POPC   C4B50518   8.459  43.029   7.350
 7203POPC   NC350519  24.464   5.899   5.550
 7203POPC   PO450520  24.515   5.884   5.850
 7203POPC   GL150521  24.499   5.827   6.150
 7203POPC   GL250522  24.525   5.959   6.150
 7203POPC   C1A50523  24.523   5.840   6.450
 7203POPC   D2A50524  24.489   5.896   6.750
 7203POPC   C3A50525  24.447   5.913   7.050
 7203POPC   C4A50526  24.510   5.834   7.350
 7203POPC   C1B50527  24.604   6.103   6.450
 7203POPC   C2B50528  24.609   6.105   6.750
 7203POPC   C3B50529  24.588   6.114   7.050
 7203POPC   C4B50530  24.678   6.102   7.350
 7204POPC   NC350531  37.720  11.270   5.550
 7204POPC   PO450532  37.650  11.289   5.850
 7204POPC   GL150533  37.723  11.280   6.150
 7204POPC   GL250534  37.734  11.159   6.150
 7204POPC   C1A50535  37.656  11.304   6.450
 7204POPC   D2A50536  37.694  11.310   6.750
 7204POPC   C3A50537  37.710  11.269   7.050
 7204POPC   C4A50538  37.673  11.288   7.350
 7204POPC   C1B50539  37.870  11.092   6.450
 7204POPC   C2B50540  37.835  11.136   6.750
 7204POPC   C3B50541  37.827  11.163   7.050
 7204POPC   C4B50542  37.868  11.107   7.350
 7205POPC   NC350543  18.327  42.365   5.550
 7205POPC   PO450544  18.315  42.339   5.850
 7205POPC   GL150545  18.283  42.325   6.150
 7205POPC   GL250546  18.451  42.393   6.150
 7205POPC   C1A50547  18.290  42.366   6.450
 7205POPC   D2A50548  18.264  42.378   6.750
 7205POPC   C3A50549  18.282  42.298   7.050
 7205POPC   C4A50550  18.258  42.357   7.350
 7205POPC   C1B50551  18.494  42.336   6.450
 7205POPC   C2B50552  18.574  42.402   6.750
 7205POPC   C3B50553  18.512  42.388   7.050
 7205POPC   C4B50554  18.560  42.377   7.350
 7206POPC   NC350555  20.622  19.854   5.550
 7206POPC   PO450556  20.649  19.845   5.850
 7206POPC   GL150557  20.638  19.882   6.150
 7206POPC   GL250558  20.767  19.768   6.150
 7206POPC   C1A50559  20.651  19.859   6.450
 7206POPC   D2A50560  20.643  19.854   6.750
 7206POPC   C3A50561  20.618  19.785   7.050
 7206POPC   C4A50562  20.648  19.865   7.350
 7206POPC   C1B50563  20.852  19.696   6.450
 7206POPC   C2B50564  20.816  19.678   6.750
 7206POPC   C3B50565  20.841  19.702   7.050
 7206POPC   C4B50566  20.845  19.716   7.350
 7207POPC   NC350567  21.338   4.366   5.550
 7207POPC   PO450568  21.367   4.286   5.850
 7207POPC   GL150569  21.353   4.276   6.150
 7207POPC   GL250570  21.269   4.391   6.150
 7207POPC   C1A50571  21.417   4.275   6.450
 7207POPC   D2A50572  21.408   4.296   6.750
 7207POPC   C3A50573  21.337   4.324   7.050
 7207POPC   C4A50574  21.377   4.350   7.350
 7207POPC   C1B50575  21.153   4.436   6.450
 7207POPC   C2B50576  21.136   4.441   6.750
 7207POPC   C3B50577  21.201   4.418   7.050
 7207POPC   C4B50578  21.162   4.408   7.350
 7208POPC   NC350579  29.888  17.533   5.550
 7208POPC   PO450580  29.884  17.506   5.850
 7208POPC   GL150581  29.911  17.545   6.150
 7208POPC   GL250582  30.001  17.623   6.150
 7208POPC   C1A50583  29.932  17.492   6.450
 7208POPC   D2A50584  29.946  17.490   6.750
 7208POPC   C3A50585  29.937  17.500   7.050
 7208POPC   C4A50586  29.956  17.507   7.350
 7208POPC   C1B50587  30.067  17.705   6.450
 7208POPC   C2B50588  30.052  17.718   6.750
 7208POPC   C3B50589  30.063  17.687   7.050
 7208POPC   C4B50590  30.131  17.676   7.350
 7209POPC   NC350591  36.897  15.147   5.550
 7209POPC   PO450592  36.917  15.152   5.850
 7209POPC   GL150593  36.871  15.185   6.150
 7209POPC   GL250594  36.889  15.266   6.150
 7209POPC   C1A50595  36.910  15.208   6.450
 7209POPC   D2A50596  36.904  15.177   6.750
 7209POPC   C3A50597  36.868  15.200   7.050
 7209POPC   C4A50598  36.933  15.173   7.350
 7209POPC   C1B50599  36.866  15.385   6.450
 7209POPC   C2B50600  36.842  15.445   6.750
 7209POPC   C3B50601  36.831  15.393   7.050
 7209POPC   C4B50602  36.884  15.457   7.350
 7210POPC   NC350603  18.290  37.705   5.550
 7210POPC   PO450604  18.333  37.679   5.850
 7210POPC   GL150605  18.234  37.635   6.150
 7210POPC   GL250606  18.359  37.679   6.150
 7210POPC   C1A50607  18.308  37.678   6.450
 7210POPC   D2A50608  18.262  37.639   6.750
 7210POPC   C3A50609  18.277  37.674   7.050
 7210POPC   C4A50610  18.259  37.712   7.350
 7210POPC   C1B50611  18.558  37.747   6.450
 7210POPC   C2B50612  18.495  37.709   6.750
 7210POPC   C3B50613  18.551  37.722   7.050
 7210POPC   C4B50614  18.520  37.714   7.350
 7211POPC   NC350615  37.706  15.177   5.550
 7211POPC   PO450616  37.652  15.148   5.850
 7211POPC   GL150617  37.687  15.218   6.150
 7211POPC   GL250618  37.702  15.044   6.150
 7211POPC   C1A50619  37.684  15.224   6.450
 7211POPC   D2A50620  37.688  15.179   6.750
 7211POPC   C3A50621  37.664  15.205   7.050
 7211POPC   C4A50622  37.657  15.164   7.350
 7211POPC   C1B50623  37.854  14.986   6.450
 7211POPC   C2B50624  37.767  14.993   6.750
 7211POPC   C3B50625  37.790  14.976   7.050
 7211POPC   C4B50626  37.780  14.978   7.350
 7212POPC   NC350627   8.948  26.070   5.550
 7212POPC   PO450628   8.970  26.008   5.850
 7212POPC   GL150629   9.004  26.026   6.150
 7212POPC   GL250630   8.955  26.161   6.150
 7212POPC   C1A50631   8.977  26.006   6.450
 7212POPC   D2A50632   8.945  26.061   6.750
 7212POPC   C3A50633   8.926  26.006   7.050
 7212POPC   C4A50634   8.979  26.016   7.350
 7212POPC   C1B50635   8.999  26.285   6.450
 7212POPC   C2B50636   9.000  26.266   6.750
 7212POPC   C3B50637   9.017  26.334   7.050
 7212POPC   C4B50638   9.023  26.274   7.350
 7213POPC   NC350639  40.789  17.538   5.550
 7213POPC   PO450640  40.778  17.553   5.850
 7213POPC   GL150641  40.757  17.495   6.150
 7213POPC   GL250642  40.792  17.394   6.150
 7213POPC   C1A50643  40.791  17.549   6.450
 7213POPC   D2A50644  40.746  17.495   6.750
 7213POPC   C3A50645  40.788  17.544   7.050
 7213POPC   C4A50646  40.784  17.533   7.350
 7213POPC   C1B50647  40.779  17.277   6.450
 7213POPC   C2B50648  40.771  17.214   6.750
 7213POPC   C3B50649  40.778  17.263   7.050
 7213POPC   C4B50650  40.792  17.242   7.350
 7214POPC   NC350651  42.332   2.014   5.550
 7214POPC   PO450652  42.287   2.003   5.850
 7214POPC   GL150653  42.302   1.953   6.150
 7214POPC   GL250654  42.409   1.913   6.150
 7214POPC   C1A50655  42.306   2.012   6.450
 7214POPC   D2A50656  42.360   1.947   6.750
 7214POPC   C3A50657  42.326   2.002   7.050
 7214POPC   C4A50658  42.362   2.002   7.350
 7214POPC   C1B50659  42.460   1.782   6.450
 7214POPC   C2B50660  42.430   1.754   6.750
 7214POPC   C3B50661  42.410   1.808   7.050
 7214POPC   C4B50662  42.470   1.756   7.350
 7215POPC   NC350663  12.042  27.625   5.550
 7215POPC   PO450664  12.119  27.551   5.850
 7215POPC   GL150665  12.058  27.556   6.150
 7215POPC   GL250666  12.089  27.435   6.150
 7215POPC   C1A50667  12.026  27.563   6.450
 7215POPC   D2A50668  12.072  27.586   6.750
 7215POPC   C3A50669  12.105  27.550   7.050
 7215POPC   C4A50670  12.092  27.603   7.350
 7215POPC   C1B50671  12.033  27.304   6.450
 7215POPC   C2B50672  12.055  27.386   6.750
 7215POPC   C3B50673  12.065  27.365   7.050
 7215POPC   C4B50674  12.071  27.317   7.350
 7216POPC   NC350675   1.218  33.000   5.550
 7216POPC   PO450676   1.262  33.001   5.850
 7216POPC   GL150677   1.212  33.059   6.150
 7216POPC   GL250678   1.217  32.870   6.150
 7216POPC   C1A50679   1.208  32.977   6.450
 7216POPC   D2A50680   1.177  33.003   6.750
 7216POPC   C3A50681   1.186  33.026   7.050
 7216POPC   C4A50682   1.253  33.046   7.350
 7216POPC   C1B50683   1.074  32.812   6.450
 7216POPC   C2B50684   1.145  32.771   6.750
 7216POPC   C3B50685   1.170  32.763   7.050
 7216POPC   C4B50686   1.142  32.792   7.350
 7217POPC   NC350687   9.010  12.877   5.550
 7217POPC   PO450688   8.938  12.853   5.850
 7217POPC   GL150689   9.004  12.887   6.150
 7217POPC   GL250690   8.919  13.000   6.150
 7217POPC   C1A50691   8.953  12.858   6.450
 7217POPC   D2A50692   8.955  12.885   6.750
 7217POPC   C3A50693   8.928  12.843   7.050
 7217POPC   C4A50694   8.964  12.851   7.350
 7217POPC   C1B50695   8.869  13.035   6.450
 7217POPC   C2B50696   8.826  13.111   6.750
 7217POPC   C3B50697   8.875  13.032   7.050
 7217POPC   C4B50698   8.881  13.062   7.350
 7218POPC   NC350699  12.063   9.018   5.550
 7218POPC   PO450700  12.057   9.009   5.850
 7218POPC   GL150701  12.062   9.000   6.150
 7218POPC   GL250702  12.220   9.026   6.150
 7218POPC   C1A50703  12.116   8.985   6.450
 7218POPC   D2A50704  12.125   8.978   6.750
 7218POPC   C3A50705  12.098   8.931   7.050
 7218POPC   C4A50706  12.041   8.932   7.350
 7218POPC   C1B50707  12.300   8.978   6.450
 7218POPC   C2B50708  12.277   9.035   6.750
 7218POPC   C3B50709  12.288   8.980   7.050
 7218POPC   C4B50710  12.298   9.039   7.350
 7219POPC   NC350711   9.788   9.775   5.550
 7219POPC   PO450712   9.752   9.702   5.850
 7219POPC   GL150713   9.769   9.720   6.150
 7219POPC   GL250714   9.585   9.709   6.150
 7219POPC   C1A50715   9.749   9.719   6.450
 7219POPC   D2A50716   9.744   9.777   6.750
 7219POPC   C3A50717   9.780   9.744   7.050
 7219POPC   C4A50718   9.764   9.738   7.350
 7219POPC   C1B50719   9.489   9.622   6.450
 7219POPC   C2B50720   9.476   9.688   6.750
 7219POPC   C3B50721   9.482   9.696   7.050
 7219POPC   C4B50722   9.474   9.663   7.350
 7220POPC   NC350723  22.150   5.099   5.550
 7220POPC   PO450724  22.115   5.136   5.850
 7220POPC   GL150725  22.166   5.113   6.150
 7220POPC   GL250726  22.151   4.973   6.150
 7220POPC   C1A50727  22.181   5.075   6.450
 7220POPC   D2A50728  22.159   5.094   6.750
 7220POPC   C3A50729  22.180   5.076   7.050
 7220POPC   C4A50730  22.136   5.099   7.350
 7220POPC   C1B50731  22.077   4.826   6.450
 7220POPC   C2B50732  22.123   4.829   6.750
 7220POPC   C3B50733  22.069   4.886   7.050
 7220POPC   C4B50734  22.133   4.875   7.350
 7221POPC   NC350735   3.585  25.310   5.550
 7221POPC   PO450736   3.579  25.251   5.850
 7221POPC   GL150737   3.530  25.245   6.150
 7221POPC   GL250738   3.423  25.314   6.150
 7221POPC   C1A50739   3.540  25.227   6.450
 7221POPC   D2A50740   3.506  25.278   6.750
 7221POPC   C3A50741   3.517  25.263   7.050
 7221POPC   C4A50742   3.521  25.312   7.350
 7221POPC   C1B50743   3.282  25.391   6.450
 7221POPC   C2B50744   3.277  25.363   6.750
 7221POPC   C3B50745   3.279  25.319   7.050
 7221POPC   C4B50746   3.324  25.408   7.350
 7222POPC   NC350747  22.144  32.998   5.550
 7222POPC   PO450748  22.162  33.070   5.850
 7222POPC   GL150749  22.163  33.066   6.150
 7222POPC   GL250750  22.079  33.075   6.150
 7222POPC   C1A50751  22.133  33.055   6.450
 7222POPC   D2A50752  22.201  33.049   6.750
 7222POPC   C3A50753  22.124  33.049   7.050
 7222POPC   C4A50754  22.142  33.010   7.350
 7222POPC   C1B50755  21.991  33.232   6.450
 7222POPC   C2B50756  22.014  33.163   6.750
 7222POPC   C3B50757  22.011  33.172   7.050
 7222POPC   C4B50758  21.995  33.261   7.350
 7223POPC   NC350759  17.514  11.321   5.550
 7223POPC   PO450760  17.512  11.267   5.850
 7223POPC   GL150761  17.537  11.292   6.150
 7223POPC   GL250762  17.622  11.332   6.150
 7223POPC   C1A50763  17.533  11.257   6.450
 7223POPC   D2A50764  17.557  11.312   6.750
 7223POPC   C3A50765  17.494  11.299   7.050
 7223POPC   C4A50766  17.514  11.251   7.350
 7223POPC   C1B50767  17.707  11.436   6.450
 7223POPC   C2B50768  17.688  11.420   6.750
 7223POPC   C3B50769  17.708  11.370   7.050
 7223POPC   C4B50770  17.762  11.393   7.350
 7224POPC   NC350771  25.268  26.014   5.550
 7224POPC   PO450772  25.294  26.056   5.850
 7224POPC   GL150773  25.244  26.032   6.150
 7224POPC   GL250774  25.281  26.193   6.150
 7224POPC   C1A50775  25.282  26.016   6.450
 7224POPC   D2A50776  25.297  26.012   6.750
 7224POPC   C3A50777  25.275  26.077   7.050
 7224POPC   C4A50778  25.277  26.081   7.350
 7224POPC   C1B50779  25.383  26.270   6.450
 7224POPC   C2B50780  25.333  26.222   6.750
 7224POPC   C3B50781  25.412  26.273   7.050
 7224POPC   C4B50782  25.382  26.252   7.350
 7225POPC   NC350783   8.202  28.324   5.550
 7225POPC   PO450784   8.240  28.348   5.850
 7225POPC   GL150785   8.190  28.335   6.150
 7225POPC   GL250786   8.266  28.328   6.150
 7225POPC   C1A50787   8.175  28.398   6.450
 7225POPC   D2A50788   8.177  28.360   6.750
 7225POPC   C3A50789   8.239  28.413   7.050
 7225POPC   C4A50790   8.216  28.319   7.350
 7225POPC   C1B50791   8.366  28.178   6.450
 7225POPC   C2B50792   8.352  28.223   6.750
 7225POPC   C3B50793   8.412  28.176   7.050
 7225POPC   C4B50794   8.418  28.152   7.350
 7226POPC   NC350795  15.948  42.371   5.550
 7226POPC   PO450796  15.942  42.345   5.850
 7226POPC   GL150797  15.992  42.330   6.150
 7226POPC   GL250798  16.005  42.453   6.150
 7226POPC   C1A50799  15.931  42.365   6.450
 7226POPC   D2A50800  15.924  42.334   6.750
 7226POPC   C3A50801  16.005  42.339   7.050
 7226POPC   C4A50802  15.935  42.365   7.350
 7226POPC   C1B50803  16.030  42.592   6.450
 7226POPC   C2B50804  16.069  42.560   6.750
 7226POPC   C3B50805  16.124  42.541   7.050
 7226POPC   C4B50806  16.046  42.566   7.350
 7227POPC   NC350807  28.404   2.779   5.550
 7227POPC   PO450808  28.349   2.762   5.850
 7227POPC   GL150809  28.410   2.774   6.150
 7227POPC   GL250810  28.381   2.886   6.150
 7227POPC   C1A50811  28.387   2.778   6.450
 7227POPC   D2A50812  28.346   2.787   6.750
 7227POPC   C3A50813  28.415   2.793   7.050
 7227POPC   C4A50814  28.363   2.814   7.350
 7227POPC   C1B50815  28.477   3.033   6.450
 7227POPC   C2B50816  28.402   3.006   6.750
 7227POPC   C3B50817  28.492   3.029   7.050
 7227POPC   C4B50818  28.433   3.014   7.350
 7228POPC   NC350819  38.421   3.535   5.550
 7228POPC   PO450820  38.480   3.557   5.850
 7228POPC   GL150821  38.498   3.576   6.150
 7228POPC   GL250822  38.288   3.488   6.150
 7228POPC   C1A50823  38.418   3.531   6.450
 7228POPC   D2A50824  38.408   3.537   6.750
 7228POPC   C3A50825  38.405   3.541   7.050
 7228POPC   C4A50826  38.415   3.500   7.350
 7228POPC   C1B50827  38.266   3.416   6.450
 7228POPC   C2B50828  38.223   3.465   6.750
 7228POPC   C3B50829  38.261   3.429   7.050
 7228POPC   C4B50830  38.268   3.454   7.350
 7229POPC   NC350831  34.582  14.393   5.550
 7229POPC   PO450832  34.611  14.413   5.850
 7229POPC   GL150833  34.544  14.415   6.150
 7229POPC   GL250834  34.472  14.521   6.150
 7229POPC   C1A50835  34.542  14.396   6.450
 7229POPC   D2A50836  34.540  14.405   6.750
 7229POPC   C3A50837  34.608  14.436   7.050
 7229POPC   C4A50838  34.572  14.430   7.350
 7229POPC   C1B50839  34.463  14.605   6.450
 7229POPC   C2B50840  34.429  14.580   6.750
 7229POPC   C3B50841  34.412  14.627   7.050
 7229POPC   C4B50842  34.395  14.571   7.350
 7230POPC   NC350843   6.603   8.242   5.550
 7230POPC   PO450844   6.646   8.224   5.850
 7230POPC   GL150845   6.661   8.214   6.150
 7230POPC   GL250846   6.689   8.347   6.150
 7230POPC   C1A50847   6.600   8.222   6.450
 7230POPC   D2A50848   6.609   8.149   6.750
 7230POPC   C3A50849   6.664   8.194   7.050
 7230POPC   C4A50850   6.675   8.154   7.350
 7230POPC   C1B50851   6.735   8.357   6.450
 7230POPC   C2B50852   6.777   8.439   6.750
 7230POPC   C3B50853   6.830   8.430   7.050
 7230POPC   C4B50854   6.809   8.452   7.350
 7231POPC   NC350855   1.988  25.220   5.550
 7231POPC   PO450856   2.036  25.294   5.850
 7231POPC   GL150857   1.983  25.270   6.150
 7231POPC   GL250858   1.920  25.189   6.150
 7231POPC   C1A50859   2.008  25.301   6.450
 7231POPC   D2A50860   2.033  25.217   6.750
 7231POPC   C3A50861   1.986  25.246   7.050
 7231POPC   C4A50862   1.946  25.274   7.350
 7231POPC   C1B50863   1.840  25.046   6.450
 7231POPC   C2B50864   1.777  25.093   6.750
 7231POPC   C3B50865   1.819  25.129   7.050
 7231POPC   C4B50866   1.764  25.043   7.350
 7232POPC   NC350867  18.316  25.315   5.550
 7232POPC   PO450868  18.255  25.228   5.850
 7232POPC   GL150869  18.271  25.275   6.150
 7232POPC   GL250870  18.210  25.329   6.150
 7232POPC   C1A50871  18.303  25.220   6.450
 7232POPC   D2A50872  18.242  25.245   6.750
 7232POPC   C3A50873  18.274  25.290   7.050
 7232POPC   C4A50874  18.236  25.276   7.350
 7232POPC   C1B50875  18.165  25.530   6.450
 7232POPC   C2B50876  18.189  25.485   6.750
 7232POPC   C3B50877  18.169  25.483   7.050
 7232POPC   C4B50878  18.141  25.527   7.350
 7233POPC   NC350879  28.410  29.098   5.550
 7233POPC   PO450880  28.351  29.162   5.850
 7233POPC   GL150881  28.400  29.159   6.150
 7233POPC   GL250882  28.443  29.296   6.150
 7233POPC   C1A50883  28.329  29.174   6.450
 7233POPC   D2A50884  28.327  29.101   6.750
 7233POPC   C3A50885  28.355  29.179   7.050
 7233POPC   C4A50886  28.372  29.167   7.350
 7233POPC   C1B50887  28.471  29.369   6.450
 7233POPC   C2B50888  28.444  29.406   6.750
 7233POPC   C3B50889  28.515  29.382   7.050
 7233POPC   C4B50890  28.461  29.359   7.350
 7234POPC   NC350891  24.461  22.114   5.550
 7234POPC   PO450892  24.536  22.153   5.850
 7234POPC   GL150893  24.446  22.160   6.150
 7234POPC   GL250894  24.492  22.234   6.150
 7234POPC   C1A50895  24.523  22.211   6.450
 7234POPC   D2A50896  24.498  22.134   6.750
 7234POPC   C3A50897  24.501  22.209   7.050
 7234POPC   C4A50898  24.533  22.142   7.350
 7234POPC   C1B50899  24.626  22.414   6.450
 7234POPC   C2B50900  24.534  22.418   6.750
 7234POPC   C3B50901  24.572  22.443   7.050
 7234POPC   C4B50902  24.565  22.444   7.350
 7235POPC   NC350903   8.963  32.260   5.550
 7235POPC   PO450904   9.016  32.240   5.850
 7235POPC   GL150905   8.959  32.222   6.150
 7235POPC   GL250906   8.846  32.209   6.150
 7235POPC   C1A50907   9.002  32.250   6.450
 7235POPC   D2A50908   9.013  32.228   6.750
 7235POPC   C3A50909   8.941  32.281   7.050
 7235POPC   C4A50910   8.995  32.249   7.350
 7235POPC   C1B50911   8.737  32.120   6.450
 7235POPC   C2B50912   8.776  32.113   6.750
 7235POPC   C3B50913   8.782  32.145   7.050
 7235POPC   C4B50914   8.696  32.183   7.350
 7236POPC   NC350915  13.589  22.138   5.550
 7236POPC   PO450916  13.618  22.142   5.850
 7236POPC   GL150917  13.654  22.134   6.150
 7236POPC   GL250918  13.549  22.146   6.150
 7236POPC   C1A50919  13.603  22.114   6.450
 7236POPC   D2A50920  13.672  22.120   6.750
 7236POPC   C3A50921  13.655  22.157   7.050
 7236POPC   C4A50922  13.594  22.188   7.350
 7236POPC   C1B50923  13.413  22.202   6.450
 7236POPC   C2B50924  13.405  22.213   6.750
 7236POPC   C3B50925  13.419  22.164   7.050
 7236POPC   C4B50926  13.408  22.174   7.350
 7237POPC   NC350927  15.984  26.820   5.550
 7237POPC   PO450928  15.959  26.823   5.850
 7237POPC   GL150929  15.994  26.863   6.150
 7237POPC   GL250930  16.016  26.908   6.150
 7237POPC   C1A50931  15.970  26.776   6.450
 7237POPC   D2A50932  15.977  26.835   6.750
 7237POPC   C3A50933  15.951  26.839   7.050
 7237POPC   C4A50934  15.983  26.854   7.350
 7237POPC   C1B50935  15.992  27.068   6.450
 7237POPC   C2B50936  16.000  27.103   6.750
 7237POPC   C3B50937  16.020  27.108   7.050
 7237POPC   C4B50938  15.954  27.023   7.350
 7238POPC   NC350939  33.809  39.965   5.550
 7238POPC   PO450940  33.811  40.015   5.850
 7238POPC   GL150941  33.753  40.006   6.150
 7238POPC   GL250942  33.867  40.032   6.150
 7238POPC   C1A50943  33.769  39.989   6.450
 7238POPC   D2A50944  33.792  39.991   6.750
 7238POPC   C3A50945  33.768  39.984   7.050
 7238POPC   C4A50946  33.849  39.987   7.350
 7238POPC   C1B50947  34.047  40.122   6.450
 7238POPC   C2B50948  33.984  40.178   6.750
 7238POPC   C3B50949  34.016  40.129   7.050
 7238POPC   C4B50950  34.014  40.162   7.350
 7239POPC   NC350951  31.472  22.959   5.550
 7239POPC   PO450952  31.489  22.935   5.850
 7239POPC   GL150953  31.457  22.942   6.150
 7239POPC   GL250954  31.622  23.021   6.150
 7239POPC   C1A50955  31.434  22.951   6.450
 7239POPC   D2A50956  31.498  22.917   6.750
 7239POPC   C3A50957  31.442  22.987   7.050
 7239POPC   C4A50958  31.476  22.919   7.350
 7239POPC   C1B50959  31.670  23.016   6.450
 7239POPC   C2B50960  31.654  23.073   6.750
 7239POPC   C3B50961  31.701  23.017   7.050
 7239POPC   C4B50962  31.715  23.036   7.350
 7240POPC   NC350963  24.441   7.397   5.550
 7240POPC   PO450964  24.469   7.450   5.850
 7240POPC   GL150965  24.497   7.402   6.150
 7240POPC   GL250966  24.594   7.436   6.150
 7240POPC   C1A50967  24.485   7.432   6.450
 7240POPC   D2A50968  24.520   7.415   6.750
 7240POPC   C3A50969  24.517   7.442   7.050
 7240POPC   C4A50970  24.508   7.381   7.350
 7240POPC   C1B50971  24.683   7.325   6.450
 7240POPC   C2B50972  24.685   7.331   6.750
 7240POPC   C3B50973  24.737   7.331   7.050
 7240POPC   C4B50974  24.731   7.364   7.350
 7241POPC   NC350975  18.329  30.692   5.550
 7241POPC   PO450976  18.293  30.700   5.850
 7241POPC   GL150977  18.318  30.715   6.150
 7241POPC   GL250978  18.425  30.628   6.150
 7241POPC   C1A50979  18.284  30.718   6.450
 7241POPC   D2A50980  18.331  30.738   6.750
 7241POPC   C3A50981  18.310  30.718   7.050
 7241POPC   C4A50982  18.326  30.697   7.350
 7241POPC   C1B50983  18.486  30.551   6.450
 7241POPC   C2B50984  18.444  30.582   6.750
 7241POPC   C3B50985  18.458  30.597   7.050
 7241POPC   C4B50986  18.462  30.524   7.350
 7242POPC   NC350987   0.452  33.036   5.550
 7242POPC   PO450988   0.445  33.059   5.850
 7242POPC   GL150989   0.458  33.004   6.150
 7242POPC   GL250990   0.325  32.963   6.150
 7242POPC   C1A50991   0.407  33.034   6.450
 7242POPC   D2A50992   0.467  33.040   6.750
 7242POPC   C3A50993   0.388  33.008   7.050
 7242POPC   C4A50994   0.407  32.995   7.350
 7242POPC   C1B50995   0.316  32.865   6.450
 7242POPC   C2B50996   0.278  32.796   6.750
 7242POPC   C3B50997   0.299  32.777   7.050
 7242POPC   C4B50998   0.293  32.831   7.350
 7243POPC   NC350999  36.869  43.908   5.550
 7243POPC   PO451000  36.901  43.928   5.850
 7243POPC   GL151001  36.951  43.903   6.150
 7243POPC   GL251002  36.845  43.749   6.150
 7243POPC   C1A51003  36.890  43.926   6.450
 7243POPC   D2A51004  36.940  43.923   6.750
 7243POPC   C3A51005  36.952  43.884   7.050
 7243POPC   C4A51006  36.883  43.897   7.350
 7243POPC   C1B51007  36.812  43.635   6.450
 7243POPC   C2B51008  36.868  43.685   6.750
 7243POPC   C3B51009  36.871  43.619   7.050
 7243POPC   C4B51010  36.814  43.688   7.350
 7244POPC   NC351011   8.174   8.996   5.550
 7244POPC   PO451012   8.215   9.005   5.850
 7244POPC   GL151013   8.233   8.995   6.150
 7244POPC   GL251014   8.304   8.847   6.150
 7244POPC   C1A51015   8.166   9.015   6.450
 7244POPC   D2A51016   8.164   8.967   6.750
 7244POPC   C3A51017   8.239   8.995   7.050
 7244POPC   C4A51018   8.158   9.002   7.350
 7244POPC   C1B51019   8.348   8.766   6.450
 7244POPC   C2B51020   8.362   8.804   6.750
 7244POPC   C3B51021   8.308   8.752   7.050
 7244POPC   C4B51022   8.343   8.749   7.350
 7245POPC   NC351023  40.029  22.924   5.550
 7245POPC   PO451024  40.023  22.896   5.850
 7245POPC   GL151025  40.041  22.907   6.150
 7245POPC   GL251026  39.914  22.931   6.150
 7245POPC   C1A51027  39.989  22.899   6.450
 7245POPC   D2A51028  39.980  22.959   6.750
 7245POPC   C3A51029  40.006  22.935   7.050
 7245POPC   C4A51030  39.976  22.941   7.350
 7245POPC   C1B51031  39.760  22.970   6.450
 7245POPC   C2B51032  39.774  23.021   6.750
 7245POPC   C3B51033  39.804  23.034   7.050
 7245POPC   C4B51034  39.721  22.981   7.350
 7246POPC   NC351035  32.978  33.056   5.550
 7246POPC   PO451036  32.983  33.004   5.850
 7246POPC   GL151037  33.059  32.995   6.150
 7246POPC   GL251038  33.090  32.947   6.150
 7246POPC   C1A51039  33.050  33.014   6.450
 7246POPC   D2A51040  33.051  33.031   6.750
 7246POPC   C3A51041  33.036  32.974   7.050
 7246POPC   C4A51042  33.015  32.996   7.350
 7246POPC   C1B51043  33.098  32.762   6.450
 7246POPC   C2B51044  33.142  32.814   6.750
 7246POPC   C3B51045  33.125  32.779   7.050
 7246POPC   C4B51046  33.173  32.799   7.350
 7247POPC   NC351047   9.730  36.164   5.550
 7247POPC   PO451048   9.797  36.150   5.850
 7247POPC   GL151049   9.701  36.170   6.150
 7247POPC   GL251050   9.609  36.197   6.150
 7247POPC   C1A51051   9.734  36.164   6.450
 7247POPC   D2A51052   9.786  36.113   6.750
 7247POPC   C3A51053   9.701  36.137   7.050
 7247POPC   C4A51054   9.727  36.165   7.350
 7247POPC   C1B51055   9.533  36.311   6.450
 7247POPC   C2B51056   9.521  36.248   6.750
 7247POPC   C3B51057   9.491  36.226   7.050
 7247POPC   C4B51058   9.555  36.217   7.350
 7248POPC   NC351059  12.110  14.428   5.550
 7248POPC   PO451060  12.057  14.423   5.850
 7248POPC   GL151061  12.049  14.371   6.150
 7248POPC   GL251062  12.003  14.446   6.150
 7248POPC   C1A51063  12.103  14.359   6.450
 7248POPC   D2A51064  12.071  14.383   6.750
 7248POPC   C3A51065  12.064  14.389   7.050
 7248POPC   C4A51066  12.111  14.453   7.350
 7248POPC   C1B51067  11.802  14.479   6.450
 7248POPC   C2B51068  11.860  14.458   6.750
 7248POPC   C3B51069  11.884  14.508   7.050
 7248POPC   C4B51070  11.890  14.496   7.350
 7249POPC   NC351071  11.261  11.250   5.550
 7249POPC   PO451072  11.333  11.279   5.850
 7249POPC   GL151073  11.291  11.332   6.150
 7249POPC   GL251074  11.440  11.381   6.150
 7249POPC   C1A51075  11.346  11.343   6.450
 7249POPC   D2A51076  11.326  11.343   6.750
 7249POPC   C3A51077  11.280  11.316   7.050
 7249POPC   C4A51078  11.287  11.328   7.350
 7249POPC   C1B51079  11.561  11.435   6.450
 7249POPC   C2B51080  11.524  11.426   6.750
 7249POPC   C3B51081  11.527  11.458   7.050
 7249POPC   C4B51082  11.519  11.456   7.350
 7250POPC   NC351083  38.461  15.229   5.550
 7250POPC   PO451084  38.498  15.169   5.850
 7250POPC   GL151085  38.473  15.189   6.150
 7250POPC   GL251086  38.524  15.051   6.150
 7250POPC   C1A51087  38.424  15.135   6.450
 7250POPC   D2A51088  38.442  15.156   6.750
 7250POPC   C3A51089  38.501  15.137   7.050
 7250POPC   C4A51090  38.422  15.142   7.350
 7250POPC   C1B51091  38.473  14.950   6.450
 7250POPC   C2B51092  38.488  14.903   6.750
 7250POPC   C3B51093  38.535  14.942   7.050
 7250POPC   C4B51094  38.542  14.892   7.350
 7251POPC   NC351095  14.453  16.686   5.550
 7251POPC   PO451096  14.370  16.735   5.850
 7251POPC   GL151097  14.377  16.727   6.150
 7251POPC   GL251098  14.524  16.692   6.150
 7251POPC   C1A51099  14.435  16.724   6.450
 7251POPC   D2A51100  14.384  16.749   6.750
 7251POPC   C3A51101  14.448  16.763   7.050
 7251POPC   C4A51102  14.451  16.699   7.350
 7251POPC   C1B51103  14.654  16.769   6.450
 7251POPC   C2B51104  14.635  16.707   6.750
 7251POPC   C3B51105  14.700  16.783   7.050
 7251POPC   C4B51106  14.687  16.776   7.350
 7252POPC   NC351107  23.755  36.079   5.550
 7252POPC   PO451108  23.700  36.154   5.850
 7252POPC   GL151109  23.673  36.100   6.150
 7252POPC   GL251110  23.636  36.027   6.150
 7252POPC   C1A51111  23.707  36.120   6.450
 7252POPC   D2A51112  23.715  36.177   6.750
 7252POPC   C3A51113  23.728  36.108   7.050
 7252POPC   C4A51114  23.738  36.113   7.350
 7252POPC   C1B51115  23.610  35.880   6.450
 7252POPC   C2B51116  23.610  35.894   6.750
 7252POPC   C3B51117  23.685  35.856   7.050
 7252POPC   C4B51118  23.622  35.909   7.350
 7253POPC   NC351119  22.958  12.058   5.550
 7253POPC   PO451120  22.927  12.080   5.850
 7253POPC   GL151121  22.903  12.097   6.150
 7253POPC   GL251122  22.894  11.969   6.150
 7253POPC   C1A51123  22.920  12.084   6.450
 7253POPC   D2A51124  22.963  12.079   6.750
 7253POPC   C3A51125  22.933  12.070   7.050
 7253POPC   C4A51126  22.973  12.088   7.350
 7253POPC   C1B51127  22.762  11.871   6.450
 7253POPC   C2B51128  22.761  11.897   6.750
 7253POPC   C3B51129  22.753  11.856   7.050
 7253POPC   C4B51130  22.735  11.892   7.350
 7254POPC   NC351131  43.886  44.700   5.550
 7254POPC   PO451132  43.865  44.657   5.850
 7254POPC   GL151133  43.878  44.646   6.150
 7254POPC   GL251134  43.820  44.612   6.150
 7254POPC   C1A51135  43.925  44.661   6.450
 7254POPC   D2A51136  43.874  44.621   6.750
 7254POPC   C3A51137  43.904  44.650   7.050
 7254POPC   C4A51138  43.877  44.655   7.350
 7254POPC   C1B51139  43.623  44.591   6.450
 7254POPC   C2B51140  43.641  44.527   6.750
 7254POPC   C3B51141  43.623  44.566   7.050
 7254POPC   C4B51142  43.674  44.529   7.350
 7255POPC   NC351143  34.572  38.483   5.550
 7255POPC   PO451144  34.574  38.494   5.850
 7255POPC   GL151145  34.566  38.485   6.150
 7255POPC   GL251146  34.407  38.466   6.150
 7255POPC   C1A51147  34.616  38.448   6.450
 7255POPC   D2A51148  34.604  38.405   6.750
 7255POPC   C3A51149  34.533  38.407   7.050
 7255POPC   C4A51150  34.591  38.462   7.350
 7255POPC   C1B51151  34.321  38.483   6.450
 7255POPC   C2B51152  34.300  38.478   6.750
 7255POPC   C3B51153  34.350  38.545   7.050
 7255POPC   C4B51154  34.294  38.513   7.350
 7256POPC   NC351155   0.473  15.203   5.550
 7256POPC   PO451156   0.486  15.223   5.850
 7256POPC   GL151157   0.477  15.151   6.150
 7256POPC   GL251158   0.401  15.130   6.150
 7256POPC   C1A51159   0.458  15.207   6.450
 7256POPC   D2A51160   0.407  15.135   6.750
 7256POPC   C3A51161   0.435  15.195   7.050
 7256POPC   C4A51162   0.438  15.175   7.350
 7256POPC   C1B51163   0.307  14.999   6.450
 7256POPC   C2B51164   0.291  14.956   6.750
 7256POPC   C3B51165   0.282  14.994   7.050
 7256POPC   C4B51166   0.308  14.989   7.350
 7257POPC   NC351167  33.024  21.387   5.550
 7257POPC   PO451168  33.058  21.339   5.850
 7257POPC   GL151169  32.976  21.416   6.150
 7257POPC   GL251170  32.866  21.446   6.150
 7257POPC   C1A51171  33.046  21.366   6.450
 7257POPC   D2A51172  33.035  21.418   6.750
 7257POPC   C3A51173  32.978  21.358   7.050
 7257POPC   C4A51174  33.000  21.357   7.350
 7257POPC   C1B51175  32.781  21.442   6.450
 7257POPC   C2B51176  32.784  21.519   6.750
 7257POPC   C3B51177  32.815  21.463   7.050
 7257POPC   C4B51178  32.809  21.517   7.350
 7258POPC   NC351179  15.209  37.630   5.550
 7258POPC   PO451180  15.173  37.660   5.850
 7258POPC   GL151181  15.213  37.726   6.150
 7258POPC   GL251182  15.068  37.606   6.150
 7258POPC   C1A51183  15.196  37.640   6.450
 7258POPC   D2A51184  15.184  37.728   6.750
 7258POPC   C3A51185  15.157  37.728   7.050
 7258POPC   C4A51186  15.213  37.640   7.350
 7258POPC   C1B51187  14.986  37.620   6.450
 7258POPC   C2B51188  14.968  37.566   6.750
 7258POPC   C3B51189  14.927  37.523   7.050
 7258POPC   C4B51190  14.933  37.577   7.350
 7259POPC   NC351191  23.753  12.124   5.550
 7259POPC   PO451192  23.687  12.045   5.850
 7259POPC   GL151193  23.763  12.104   6.150
 7259POPC   GL251194  23.786  11.955   6.150
 7259POPC   C1A51195  23.722  12.048   6.450
 7259POPC   D2A51196  23.706  12.029   6.750
 7259POPC   C3A51197  23.682  12.076   7.050
 7259POPC   C4A51198  23.735  12.113   7.350
 7259POPC   C1B51199  23.816  11.807   6.450
 7259POPC   C2B51200  23.814  11.826   6.750
 7259POPC   C3B51201  23.741  11.793   7.050
 7259POPC   C4B51202  23.769  11.883   7.350
 7260POPC   NC351203  33.812  19.067   5.550
 7260POPC   PO451204  33.835  19.010   5.850
 7260POPC   GL151205  33.757  19.023   6.150
 7260POPC   GL251206  33.911  19.172   6.150
 7260POPC   C1A51207  33.841  19.075   6.450
 7260POPC   D2A51208  33.758  19.088   6.750
 7260POPC   C3A51209  33.845  19.031   7.050
 7260POPC   C4A51210  33.842  19.108   7.350
 7260POPC   C1B51211  33.956  19.263   6.450
 7260POPC   C2B51212  33.950  19.188   6.750
 7260POPC   C3B51213  33.952  19.200   7.050
 7260POPC   C4B51214  33.983  19.206   7.350
 7261POPC   NC351215  26.828   5.130   5.550
 7261POPC   PO451216  26.792   5.087   5.850
 7261POPC   GL151217  26.856   5.080   6.150
 7261POPC   GL251218  26.754   5.190   6.150
 7261POPC   C1A51219  26.794   5.065   6.450
 7261POPC   D2A51220  26.854   5.111   6.750
 7261POPC   C3A51221  26.775   5.051   7.050
 7261POPC   C4A51222  26.828   5.118   7.350
 7261POPC   C1B51223  26.609   5.215   6.450
 7261POPC   C2B51224  26.615   5.297   6.750
 7261POPC   C3B51225  26.670   5.251   7.050
 7261POPC   C4B51226  26.651   5.291   7.350
 7262POPC   NC351227  10.541  36.927   5.550
 7262POPC   PO451228  10.508  36.939   5.850
 7262POPC   GL151229  10.494  36.914   6.150
 7262POPC   GL251230  10.618  36.929   6.150
 7262POPC   C1A51231  10.524  36.892   6.450
 7262POPC   D2A51232  10.474  36.861   6.750
 7262POPC   C3A51233  10.478  36.885   7.050
 7262POPC   C4A51234  10.551  36.859   7.350
 7262POPC   C1B51235  10.758  36.935   6.450
 7262POPC   C2B51236  10.720  36.952   6.750
 7262POPC   C3B51237  10.724  36.963   7.050
 7262POPC   C4B51238  10.811  36.945   7.350
 7263POPC   NC351239  44.658  43.852   5.550
 7263POPC   PO451240  44.614  43.921   5.850
 7263POPC   GL151241  44.639  43.846   6.150
 7263POPC   GL251242  44.595  43.744   6.150
 7263POPC   C1A51243  44.660  43.874   6.450
 7263POPC   D2A51244  44.620  43.883   6.750
 7263POPC   C3A51245  44.659  43.906   7.050
 7263POPC   C4A51246  44.614  43.910   7.350
 7263POPC   C1B51247  44.573  43.627   6.450
 7263POPC   C2B51248  44.621  43.657   6.750
 7263POPC   C3B51249  44.627  43.602   7.050
 7263POPC   C4B51250  44.639  43.675   7.350
 7264POPC   NC351251   8.175  19.808   5.550
 7264POPC   PO451252   8.159  19.790   5.850
 7264POPC   GL151253   8.180  19.820   6.150
 7264POPC   GL251254   8.098  19.747   6.150
 7264POPC   C1A51255   8.194  19.805   6.450
 7264POPC   D2A51256   8.193  19.799   6.750
 7264POPC   C3A51257   8.224  19.843   7.050
 7264POPC   C4A51258   8.224  19.821   7.350
 7264POPC   C1B51259   8.086  19.575   6.450
 7264POPC   C2B51260   8.038  19.591   6.750
 7264POPC   C3B51261   8.105  19.620   7.050
 7264POPC   C4B51262   8.127  19.627   7.350
 7265POPC   NC351263  44.707  44.697   5.550
 7265POPC   PO451264  44.708  44.682   5.850
 7265POPC   GL151265  44.673  44.673   6.150
 7265POPC   GL251266  44.778  44.703   6.150
 7265POPC   C1A51267  44.681  44.647   6.450
 7265POPC   D2A51268  44.629  44.630   6.750
 7265POPC   C3A51269  44.701  44.677   7.050
 7265POPC   C4A51270  44.710  44.673   7.350
 7265POPC   C1B51271  44.927  44.721   6.450
 7265POPC   C2B51272  44.959  44.693   6.750
 7265POPC   C3B51273  44.920  44.720   7.050
 7265POPC   C4B51274  44.882  44.719   7.350
 7266POPC   NC351275   1.255   9.742   5.550
 7266POPC   PO451276   1.167   9.753   5.850
 7266POPC   GL151277   1.252   9.782   6.150
 7266POPC   GL251278   1.113   9.702   6.150
 7266POPC   C1A51279   1.188   9.792   6.450
 7266POPC   D2A51280   1.185   9.751   6.750
 7266POPC   C3A51281   1.184   9.709   7.050
 7266POPC   C4A51282   1.175   9.764   7.350
 7266POPC   C1B51283   0.927   9.786   6.450
 7266POPC   C2B51284   0.951   9.701   6.750
 7266POPC   C3B51285   0.955   9.706   7.050
 7266POPC   C4B51286   0.966   9.766   7.350
 7267POPC   NC351287  41.515   4.334   5.550
 7267POPC   PO451288  41.566   4.333   5.850
 7267POPC   GL151289  41.583   4.269   6.150
 7267POPC   GL251290  41.469   4.351   6.150
 7267POPC   C1A51291  41.583   4.358   6.450
 7267POPC   D2A51292  41.577   4.322   6.750
 7267POPC   C3A51293  41.556   4.286   7.050
 7267POPC   C4A51294  41.534   4.362   7.350
 7267POPC   C1B51295  41.301   4.295   6.450
 7267POPC   C2B51296  41.343   4.338   6.750
 7267POPC   C3B51297  41.314   4.288   7.050
 7267POPC   C4B51298  41.267   4.274   7.350
 7268POPC   NC351299  12.863  34.608   5.550
 7268POPC   PO451300  12.804  34.595   5.850
 7268POPC   GL151301  12.869  34.614   6.150
 7268POPC   GL251302  12.767  34.691   6.150
 7268POPC   C1A51303  12.867  34.557   6.450
 7268POPC   D2A51304  12.859  34.579   6.750
 7268POPC   C3A51305  12.831  34.579   7.050
 7268POPC   C4A51306  12.873  34.539   7.350
 7268POPC   C1B51307  12.676  34.779   6.450
 7268POPC   C2B51308  12.726  34.768   6.750
 7268POPC   C3B51309  12.680  34.786   7.050
 7268POPC   C4B51310  12.696  34.779   7.350
 7269POPC   NC351311  29.145  31.448   5.550
 7269POPC   PO451312  29.131  31.457   5.850
 7269POPC   GL151313  29.146  31.467   6.150
 7269POPC   GL251314  29.083  31.368   6.150
 7269POPC   C1A51315  29.150  31.504   6.450
 7269POPC   D2A51316  29.191  31.453   6.750
 7269POPC   C3A51317  29.192  31.487   7.050
 7269POPC   C4A51318  29.141  31.441   7.350
 7269POPC   C1B51319  28.971  31.333   6.450
 7269POPC   C2B51320  28.945  31.317   6.750
 7269POPC   C3B51321  28.973  31.279   7.050
 7269POPC   C4B51322  28.980  31.271   7.350
 7270POPC   NC351323  30.736  24.497   5.550
 7270POPC   PO451324  30.694  24.521   5.850
 7270POPC   GL151325  30.727  24.492   6.150
 7270POPC   GL251326  30.681  24.367   6.150
 7270POPC   C1A51327  30.675  24.523   6.450
 7270POPC   D2A51328  30.711  24.518   6.750
 7270POPC   C3A51329  30.736  24.508   7.050
 7270POPC   C4A51330  30.700  24.464   7.350
 7270POPC   C1B51331  30.627  24.296   6.450
 7270POPC   C2B51332  30.607  24.218   6.750
 7270POPC   C3B51333  30.590  24.286   7.050
 7270POPC   C4B51334  30.624  24.209   7.350
 7271POPC   NC351335  31.441   7.419   5.550
 7271POPC   PO451336  31.442   7.404   5.850
 7271POPC   GL151337  31.511   7.441   6.150
 7271POPC   GL251338  31.554   7.534   6.150
 7271POPC   C1A51339  31.487   7.458   6.450
 7271POPC   D2A51340  31.467   7.448   6.750
 7271POPC   C3A51341  31.430   7.445   7.050
 7271POPC   C4A51342  31.439   7.391   7.350
 7271POPC   C1B51343  31.589   7.616   6.450
 7271POPC   C2B51344  31.622   7.563   6.750
 7271POPC   C3B51345  31.639   7.612   7.050
 7271POPC   C4B51346  31.667   7.650   7.350
 7272POPC   NC351347   1.190  24.489   5.550
 7272POPC   PO451348   1.206  24.508   5.850
 7272POPC   GL151349   1.248  24.472   6.150
 7272POPC   GL251350   1.069  24.437   6.150
 7272POPC   C1A51351   1.172  24.539   6.450
 7272POPC   D2A51352   1.216  24.538   6.750
 7272POPC   C3A51353   1.199  24.509   7.050
 7272POPC   C4A51354   1.237  24.470   7.350
 7272POPC   C1B51355   0.970  24.394   6.450
 7272POPC   C2B51356   0.961  24.425   6.750
 7272POPC   C3B51357   0.952  24.459   7.050
 7272POPC   C4B51358   1.015  24.395   7.350
 7273POPC   NC351359  31.480  15.991   5.550
 7273POPC   PO451360  31.495  15.990   5.850
 7273POPC   GL151361  31.445  15.961   6.150
 7273POPC   GL251362  31.396  16.093   6.150
 7273POPC   C1A51363  31.444  15.919   6.450
 7273POPC   D2A51364  31.498  15.930   6.750
 7273POPC   C3A51365  31.438  15.976   7.050
 7273POPC   C4A51366  31.442  15.942   7.350
 7273POPC   C1B51367  31.306  16.133   6.450
 7273POPC   C2B51368  31.369  16.209   6.750
 7273POPC   C3B51369  31.318  16.189   7.050
 7273POPC   C4B51370  31.361  16.118   7.350
 7274POPC   NC351371  36.156  41.592   5.550
 7274POPC   PO451372  36.100  41.555   5.850
 7274POPC   GL151373  36.103  41.559   6.150
 7274POPC   GL251374  36.117  41.678   6.150
 7274POPC   C1A51375  36.081  41.602   6.450
 7274POPC   D2A51376  36.132  41.562   6.750
 7274POPC   C3A51377  36.130  41.550   7.050
 7274POPC   C4A51378  36.114  41.513   7.350
 7274POPC   C1B51379  36.133  41.771   6.450
 7274POPC   C2B51380  36.216  41.829   6.750
 7274POPC   C3B51381  36.135  41.819   7.050
 7274POPC   C4B51382  36.133  41.832   7.350
 7275POPC   NC351383  39.969  10.573   5.550
 7275POPC   PO451384  40.007  10.550   5.850
 7275POPC   GL151385  40.013  10.489   6.150
 7275POPC   GL251386  40.140  10.608   6.150
 7275POPC   C1A51387  40.016  10.564   6.450
 7275POPC   D2A51388  40.033  10.480   6.750
 7275POPC   C3A51389  39.988  10.572   7.050
 7275POPC   C4A51390  39.977  10.474   7.350
 7275POPC   C1B51391  40.223  10.732   6.450
 7275POPC   C2B51392  40.177  10.657   6.750
 7275POPC   C3B51393  40.155  10.718   7.050
 7275POPC   C4B51394  40.176  10.689   7.350
 7276POPC   NC351395  43.856   5.856   5.550
 7276POPC   PO451396  43.923   5.853   5.850
 7276POPC   GL151397  43.899   5.889   6.150
 7276POPC   GL251398  43.737   5.860   6.150
 7276POPC   C1A51399  43.878   5.861   6.450
 7276POPC   D2A51400  43.864   5.891   6.750
 7276POPC   C3A51401  43.878   5.872   7.050
 7276POPC   C4A51402  43.870   5.836   7.350
 7276POPC   C1B51403  43.636   5.709   6.450
 7276POPC   C2B51404  43.692   5.714   6.750
 7276POPC   C3B51405  43.662   5.783   7.050
 7276POPC   C4B51406  43.657   5.747   7.350
 7277POPC   NC351407   2.038  36.911   5.550
 7277POPC   PO451408   1.963  36.908   5.850
 7277POPC   GL151409   1.962  36.952   6.150
 7277POPC   GL251410   2.074  36.800   6.150
 7277POPC   C1A51411   1.961  36.906   6.450
 7277POPC   D2A51412   1.983  36.918   6.750
 7277POPC   C3A51413   1.954  36.949   7.050
 7277POPC   C4A51414   1.996  36.937   7.350
 7277POPC   C1B51415   2.202  36.716   6.450
 7277POPC   C2B51416   2.145  36.760   6.750
 7277POPC   C3B51417   2.148  36.702   7.050
 7277POPC   C4B51418   2.133  36.761   7.350
 7278POPC   NC351419  35.332  25.280   5.550
 7278POPC   PO451420  35.339  25.251   5.850
 7278POPC   GL151421  35.372  25.218   6.150
 7278POPC   GL251422  35.371  25.388   6.150
 7278POPC   C1A51423  35.392  25.229   6.450
 7278POPC   D2A51424  35.353  25.229   6.750
 7278POPC   C3A51425  35.389  25.273   7.050
 7278POPC   C4A51426  35.322  25.294   7.350
 7278POPC   C1B51427  35.475  25.451   6.450
 7278POPC   C2B51428  35.437  25.528   6.750
 7278POPC   C3B51429  35.494  25.483   7.050
 7278POPC   C4B51430  35.450  25.489   7.350
 7279POPC   NC351431   7.394   9.785   5.550
 7279POPC   PO451432   7.424   9.710   5.850
 7279POPC   GL151433   7.460   9.776   6.150
 7279POPC   GL251434   7.343   9.613   6.150
 7279POPC   C1A51435   7.445   9.746   6.450
 7279POPC   D2A51436   7.446   9.776   6.750
 7279POPC   C3A51437   7.458   9.710   7.050
 7279POPC   C4A51438   7.426   9.750   7.350
 7279POPC   C1B51439   7.253   9.525   6.450
 7279POPC   C2B51440   7.288   9.538   6.750
 7279POPC   C3B51441   7.217   9.565   7.050
 7279POPC   C4B51442   7.291   9.593   7.350
 7280POPC   NC351443  36.157  14.387   5.550
 7280POPC   PO451444  36.107  14.451   5.850
 7280POPC   GL151445  36.167  14.384   6.150
 7280POPC   GL251446  36.142  14.554   6.150
 7280POPC   C1A51447  36.145  14.381   6.450
 7280POPC   D2A51448  36.098  14.362   6.750
 7280POPC   C3A51449  36.163  14.425   7.050
 7280POPC   C4A51450  36.176  14.378   7.350
 7280POPC   C1B51451  36.181  14.688   6.450
 7280POPC   C2B51452  36.254  14.621   6.750
 7280POPC   C3B51453  36.177  14.597   7.050
 7280POPC   C4B51454  36.187  14.652   7.350
 7281POPC   NC351455  12.872  10.565   5.550
 7281POPC   PO451456  12.888  10.562   5.850
 7281POPC   GL151457  12.823  10.539   6.150
 7281POPC   GL251458  12.985  10.542   6.150
 7281POPC   C1A51459  12.827  10.534   6.450
 7281POPC   D2A51460  12.845  10.565   6.750
 7281POPC   C3A51461  12.809  10.482   7.050
 7281POPC   C4A51462  12.846  10.479   7.350
 7281POPC   C1B51463  13.143  10.530   6.450
 7281POPC   C2B51464  13.115  10.591   6.750
 7281POPC   C3B51465  13.067  10.526   7.050
 7281POPC   C4B51466  13.069  10.600   7.350
 7282POPC   NC351467  19.035  36.133   5.550
 7282POPC   PO451468  19.069  36.129   5.850
 7282POPC   GL151469  19.025  36.166   6.150
 7282POPC   GL251470  19.135  36.106   6.150
 7282POPC   C1A51471  19.070  36.131   6.450
 7282POPC   D2A51472  19.072  36.106   6.750
 7282POPC   C3A51473  19.020  36.087   7.050
 7282POPC   C4A51474  19.081  36.164   7.350
 7282POPC   C1B51475  19.259  36.183   6.450
 7282POPC   C2B51476  19.330  36.193   6.750
 7282POPC   C3B51477  19.341  36.180   7.050
 7282POPC   C4B51478  19.351  36.118   7.350
 7283POPC   NC351479  14.384  12.888   5.550
 7283POPC   PO451480  14.406  12.888   5.850
 7283POPC   GL151481  14.433  12.861   6.150
 7283POPC   GL251482  14.373  12.762   6.150
 7283POPC   C1A51483  14.411  12.853   6.450
 7283POPC   D2A51484  14.391  12.802   6.750
 7283POPC   C3A51485  14.420  12.824   7.050
 7283POPC   C4A51486  14.411  12.834   7.350
 7283POPC   C1B51487  14.303  12.578   6.450
 7283POPC   C2B51488  14.323  12.581   6.750
 7283POPC   C3B51489  14.311  12.593   7.050
 7283POPC   C4B51490  14.305  12.598   7.350
 7284POPC   NC351491  14.364  10.532   5.550
 7284POPC   PO451492  14.436  10.517   5.850
 7284POPC   GL151493  14.368  10.524   6.150
 7284POPC   GL251494  14.422  10.600   6.150
 7284POPC   C1A51495  14.387  10.566   6.450
 7284POPC   D2A51496  14.450  10.540   6.750
 7284POPC   C3A51497  14.404  10.479   7.050
 7284POPC   C4A51498  14.415  10.522   7.350
 7284POPC   C1B51499  14.476  10.762   6.450
 7284POPC   C2B51500  14.468  10.750   6.750
 7284POPC   C3B51501  14.457  10.737   7.050
 7284POPC   C4B51502  14.456  10.822   7.350
 7285POPC   NC351503  35.387  43.875   5.550
 7285POPC   PO451504  35.350  43.934   5.850
 7285POPC   GL151505  35.319  43.916   6.150
 7285POPC   GL251506  35.446  43.827   6.150
 7285POPC   C1A51507  35.392  43.901   6.450
 7285POPC   D2A51508  35.343  43.845   6.750
 7285POPC   C3A51509  35.397  43.864   7.050
 7285POPC   C4A51510  35.395  43.841   7.350
 7285POPC   C1B51511  35.452  43.651   6.450
 7285POPC   C2B51512  35.528  43.639   6.750
 7285POPC   C3B51513  35.526  43.656   7.050
 7285POPC   C4B51514  35.460  43.654   7.350
 7286POPC   NC351515  10.564  15.159   5.550
 7286POPC   PO451516  10.503  15.146   5.850
 7286POPC   GL151517  10.498  15.229   6.150
 7286POPC   GL251518  10.623  15.307   6.150
 7286POPC   C1A51519  10.499  15.167   6.450
 7286POPC   D2A51520  10.550  15.145   6.750
 7286POPC   C3A51521  10.491  15.170   7.050
 7286POPC   C4A51522  10.566  15.183   7.350
 7286POPC   C1B51523  10.651  15.423   6.450
 7286POPC   C2B51524  10.661  15.426   6.750
 7286POPC   C3B51525  10.625  15.414   7.050
 7286POPC   C4B51526  10.617  15.414   7.350
 7287POPC   NC351527   5.057   5.113   5.550
 7287POPC   PO451528   5.059   5.067   5.850
 7287POPC   GL151529   5.096   5.120   6.150
 7287POPC   GL251530   5.089   5.008   6.150
 7287POPC   C1A51531   5.068   5.077   6.450
 7287POPC   D2A51532   5.126   5.046   6.750
 7287POPC   C3A51533   5.087   5.111   7.050
 7287POPC   C4A51534   5.056   5.093   7.350
 7287POPC   C1B51535   5.135   4.853   6.450
 7287POPC   C2B51536   5.142   4.816   6.750
 7287POPC   C3B51537   5.186   4.901   7.050
 7287POPC   C4B51538   5.179   4.862   7.350
 7288POPC   NC351539  28.360  36.146   5.550
 7288POPC   PO451540  28.337  36.140   5.850
 7288POPC   GL151541  28.346  36.169   6.150
 7288POPC   GL251542  28.437  36.222   6.150
 7288POPC   C1A51543  28.379  36.152   6.450
 7288POPC   D2A51544  28.402  36.083   6.750
 7288POPC   C3A51545  28.403  36.168   7.050
 7288POPC   C4A51546  28.386  36.170   7.350
 7288POPC   C1B51547  28.366  36.351   6.450
 7288POPC   C2B51548  28.458  36.412   6.750
 7288POPC   C3B51549  28.437  36.403   7.050
 7288POPC   C4B51550  28.426  36.394   7.350
 7289POPC   NC351551  26.037  29.963   5.550
 7289POPC   PO451552  26.039  29.893   5.850
 7289POPC   GL151553  26.089  29.927   6.150
 7289POPC   GL251554  26.171  29.945   6.150
 7289POPC   C1A51555  26.012  29.871   6.450
 7289POPC   D2A51556  26.090  29.932   6.750
 7289POPC   C3A51557  26.043  29.903   7.050
 7289POPC   C4A51558  26.014  29.886   7.350
 7289POPC   C1B51559  26.249  30.031   6.450
 7289POPC   C2B51560  26.294  30.013   6.750
 7289POPC   C3B51561  26.233  30.055   7.050
 7289POPC   C4B51562  26.252  30.065   7.350
 7290POPC   NC351563   8.989  17.494   5.550
 7290POPC   PO451564   9.012  17.476   5.850
 7290POPC   GL151565   8.945  17.511   6.150
 7290POPC   GL251566   8.978  17.583   6.150
 7290POPC   C1A51567   9.014  17.460   6.450
 7290POPC   D2A51568   8.994  17.553   6.750
 7290POPC   C3A51569   8.966  17.541   7.050
 7290POPC   C4A51570   8.964  17.539   7.350
 7290POPC   C1B51571   8.961  17.799   6.450
 7290POPC   C2B51572   8.971  17.709   6.750
 7290POPC   C3B51573   8.971  17.773   7.050
 7290POPC   C4B51574   8.961  17.750   7.350
 7291POPC   NC351575   0.390   0.408   5.550
 7291POPC   PO451576   0.465   0.417   5.850
 7291POPC   GL151577   0.411   0.420   6.150
 7291POPC   GL251578   0.547   0.509   6.150
 7291POPC   C1A51579   0.455   0.453   6.450
 7291POPC   D2A51580   0.473   0.478   6.750
 7291POPC   C3A51581   0.413   0.400   7.050
 7291POPC   C4A51582   0.446   0.403   7.350
 7291POPC   C1B51583   0.714   0.579   6.450
 7291POPC   C2B51584   0.636   0.523   6.750
 7291POPC   C3B51585   0.698   0.588   7.050
 7291POPC   C4B51586   0.640   0.514   7.350
 7292POPC   NC351587   3.539  12.040   5.550
 7292POPC   PO451588   3.543  12.073   5.850
 7292POPC   GL151589   3.534  12.091   6.150
 7292POPC   GL251590   3.629  11.941   6.150
 7292POPC   C1A51591   3.543  12.099   6.450
 7292POPC   D2A51592   3.502  12.087   6.750
 7292POPC   C3A51593   3.580  12.039   7.050
 7292POPC   C4A51594   3.521  12.109   7.350
 7292POPC   C1B51595   3.677  11.833   6.450
 7292POPC   C2B51596   3.712  11.854   6.750
 7292POPC   C3B51597   3.636  11.893   7.050
 7292POPC   C4B51598   3.712  11.883   7.350
 7293POPC   NC351599  19.073  28.382   5.550
 7293POPC   PO451600  19.081  28.342   5.850
 7293POPC   GL151601  19.069  28.391   6.150
 7293POPC   GL251602  18.931  28.440   6.150
 7293POPC   C1A51603  19.056  28.359   6.450
 7293POPC   D2A51604  19.082  28.401   6.750
 7293POPC   C3A51605  19.107  28.411   7.050
 7293POPC   C4A51606  19.036  28.379   7.350
 7293POPC   C1B51607  18.857  28.525   6.450
 7293POPC   C2B51608  18.874  28.550   6.750
 7293POPC   C3B51609  18.935  28.544   7.050
 7293POPC   C4B51610  18.948  28.555   7.350
 7294POPC   NC351611  16.688  29.195   5.550
 7294POPC   PO451612  16.705  29.106   5.850
 7294POPC   GL151613  16.736  29.181   6.150
 7294POPC   GL251614  16.682  29.219   6.150
 7294POPC   C1A51615  16.768  29.134   6.450
 7294POPC   D2A51616  16.688  29.142   6.750
 7294POPC   C3A51617  16.730  29.180   7.050
 7294POPC   C4A51618  16.722  29.105   7.350
 7294POPC   C1B51619  16.549  29.323   6.450
 7294POPC   C2B51620  16.532  29.267   6.750
 7294POPC   C3B51621  16.501  29.311   7.050
 7294POPC   C4B51622  16.516  29.342   7.350
 7295POPC   NC351623  36.902  12.880   5.550
 7295POPC   PO451624  36.894  12.854   5.850
 7295POPC   GL151625  36.914  12.859   6.150
 7295POPC   GL251626  36.805  12.752   6.150
 7295POPC   C1A51627  36.867  12.822   6.450
 7295POPC   D2A51628  36.869  12.858   6.750
 7295POPC   C3A51629  36.878  12.898   7.050
 7295POPC   C4A51630  36.933  12.824   7.350
 7295POPC   C1B51631  36.653  12.736   6.450
 7295POPC   C2B51632  36.735  12.698   6.750
 7295POPC   C3B51633  36.717  12.714   7.050
 7295POPC   C4B51634  36.735  12.746   7.350
 7296POPC   NC351635  23.682   5.878   5.550
 7296POPC   PO451636  23.676   5.824   5.850
 7296POPC   GL151637  23.752   5.829   6.150
 7296POPC   GL251638  23.755   5.731   6.150
 7296POPC   C1A51639  23.716   5.884   6.450
 7296POPC   D2A51640  23.709   5.866   6.750
 7296POPC   C3A51641  23.741   5.826   7.050
 7296POPC   C4A51642  23.762   5.886   7.350
 7296POPC   C1B51643  23.684   5.651   6.450
 7296POPC   C2B51644  23.747   5.622   6.750
 7296POPC   C3B51645  23.735   5.614   7.050
 7296POPC   C4B51646  23.663   5.658   7.350
 7297POPC   NC351647  27.586  43.840   5.550
 7297POPC   PO451648  27.629  43.928   5.850
 7297POPC   GL151649  27.564  43.907   6.150
 7297POPC   GL251650  27.706  43.845   6.150
 7297POPC   C1A51651  27.622  43.883   6.450
 7297POPC   D2A51652  27.639  43.901   6.750
 7297POPC   C3A51653  27.574  43.901   7.050
 7297POPC   C4A51654  27.575  43.915   7.350
 7297POPC   C1B51655  27.831  43.833   6.450
 7297POPC   C2B51656  27.779  43.811   6.750
 7297POPC   C3B51657  27.837  43.832   7.050
 7297POPC   C4B51658  27.850  43.811   7.350
 7298POPC   NC351659   1.223  43.922   5.550
 7298POPC   PO451660   1.222  43.883   5.850
 7298POPC   GL151661   1.262  43.875   6.150
 7298POPC   GL251662   1.127  43.854   6.150
 7298POPC   C1A51663   1.164  43.930   6.450
 7298POPC   D2A51664   1.199  43.867   6.750
 7298POPC   C3A51665   1.192  43.891   7.050
 7298POPC   C4A51666   1.186  43.879   7.350
 7298POPC   C1B51667   0.977  43.811   6.450
 7298POPC   C2B51668   0.981  43.747   6.750
 7298POPC   C3B51669   0.954  43.791   7.050
 7298POPC   C4B51670   0.987  43.731   7.350
 7299POPC   NC351671  10.500   7.466   5.550
 7299POPC   PO451672  10.549   7.454   5.850
 7299POPC   GL151673  10.558   7.400   6.150
 7299POPC   GL251674  10.560   7.575   6.150
 7299POPC   C1A51675  10.523   7.465   6.450
 7299POPC   D2A51676  10.525   7.399   6.750
 7299POPC   C3A51677  10.477   7.431   7.050
 7299POPC   C4A51678  10.550   7.395   7.350
 7299POPC   C1B51679  10.628   7.630   6.450
 7299POPC   C2B51680  10.594   7.653   6.750
 7299POPC   C3B51681  10.591   7.681   7.050
 7299POPC   C4B51682  10.637   7.623   7.350
 7300POPC   NC351683   1.186  10.517   5.550
 7300POPC   PO451684   1.232  10.525   5.850
 7300POPC   GL151685   1.254  10.497   6.150
 7300POPC   GL251686   1.325  10.543   6.150
 7300POPC   C1A51687   1.249  10.502   6.450
 7300POPC   D2A51688   1.241  10.561   6.750
 7300POPC   C3A51689   1.261  10.572   7.050
 7300POPC   C4A51690   1.246  10.500   7.350
 7300POPC   C1B51691   1.464  10.592   6.450
 7300POPC   C2B51692   1.432  10.539   6.750
 7300POPC   C3B51693   1.442  10.599   7.050
 7300POPC   C4B51694   1.495  10.533   7.350
 7301POPC   NC351695  43.903  22.956   5.550
 7301POPC   PO451696  43.897  22.915   5.850
 7301POPC   GL151697  43.852  22.968   6.150
 7301POPC   GL251698  44.001  22.907   6.150
 7301POPC   C1A51699  43.876  22.937   6.450
 7301POPC   D2A51700  43.928  22.970   6.750
 7301POPC   C3A51701  43.934  22.903   7.050
 7301POPC   C4A51702  43.932  22.979   7.350
 7301POPC   C1B51703  44.121  22.792   6.450
 7301POPC   C2B51704  44.116  22.778   6.750
 7301POPC   C3B51705  44.128  22.869   7.050
 7301POPC   C4B51706  44.145  22.783   7.350
 7302POPC   NC351707   5.046  22.922   5.550
 7302POPC   PO451708   5.087  22.940   5.850
 7302POPC   GL151709   5.084  22.978   6.150
 7302POPC   GL251710   5.147  22.847   6.150
 7302POPC   C1A51711   5.059  22.915   6.450
 7302POPC   D2A51712   5.139  22.914   6.750
 7302POPC   C3A51713   5.096  22.968   7.050
 7302POPC   C4A51714   5.135  22.947   7.350
 7302POPC   C1B51715   5.106  22.640   6.450
 7302POPC   C2B51716   5.115  22.680   6.750
 7302POPC   C3B51717   5.081  22.719   7.050
 7302POPC   C4B51718   5.079  22.640   7.350
 7303POPC   NC351719  43.924   1.968   5.550
 7303POPC   PO451720  43.916   2.002   5.850
 7303POPC   GL151721  43.843   1.978   6.150
 7303POPC   GL251722  43.813   2.059   6.150
 7303POPC   C1A51723  43.918   1.969   6.450
 7303POPC   D2A51724  43.908   1.966   6.750
 7303POPC   C3A51725  43.861   2.005   7.050
 7303POPC   C4A51726  43.878   1.941   7.350
 7303POPC   C1B51727  43.674   2.181   6.450
 7303POPC   C2B51728  43.708   2.095   6.750
 7303POPC   C3B51729  43.651   2.187   7.050
 7303POPC   C4B51730  43.702   2.169   7.350
 7304POPC   NC351731  30.672  30.651   5.550
 7304POPC   PO451732  30.660  30.709   5.850
 7304POPC   GL151733  30.715  30.716   6.150
 7304POPC   GL251734  30.610  30.784   6.150
 7304POPC   C1A51735  30.707  30.734   6.450
 7304POPC   D2A51736  30.715  30.696   6.750
 7304POPC   C3A51737  30.654  30.657   7.050
 7304POPC   C4A51738  30.714  30.678   7.350
 7304POPC   C1B51739  30.538  30.880   6.450
 7304POPC   C2B51740  30.503  30.870   6.750
 7304POPC   C3B51741  30.579  30.875   7.050
 7304POPC   C4B51742  30.527  30.899   7.350
 7305POPC   NC351743   5.832  28.363   5.550
 7305POPC   PO451744   5.830  28.353   5.850
 7305POPC   GL151745   5.895  28.406   6.150
 7305POPC   GL251746   5.752  28.317   6.150
 7305POPC   C1A51747   5.902  28.346   6.450
 7305POPC   D2A51748   5.914  28.403   6.750
 7305POPC   C3A51749   5.881  28.337   7.050
 7305POPC   C4A51750   5.849  28.327   7.350
 7305POPC   C1B51751   5.649  28.229   6.450
 7305POPC   C2B51752   5.714  28.221   6.750
 7305POPC   C3B51753   5.742  28.173   7.050
 7305POPC   C4B51754   5.734  28.240   7.350
 7306POPC   NC351755  19.851   9.732   5.550
 7306POPC   PO451756  19.806   9.766   5.850
 7306POPC   GL151757  19.858   9.798   6.150
 7306POPC   GL251758  19.932   9.634   6.150
 7306POPC   C1A51759  19.837   9.743   6.450
 7306POPC   D2A51760  19.849   9.749   6.750
 7306POPC   C3A51761  19.850   9.736   7.050
 7306POPC   C4A51762  19.861   9.776   7.350
 7306POPC   C1B51763  19.978   9.507   6.450
 7306POPC   C2B51764  19.964   9.578   6.750
 7306POPC   C3B51765  19.982   9.517   7.050
 7306POPC   C4B51766  20.016   9.490   7.350
 7307POPC   NC351767  42.303  29.104   5.550
 7307POPC   PO451768  42.377  29.184   5.850
 7307POPC   GL151769  42.286  29.138   6.150
 7307POPC   GL251770  42.351  29.037   6.150
 7307POPC   C1A51771  42.381  29.160   6.450
 7307POPC   D2A51772  42.378  29.187   6.750
 7307POPC   C3A51773  42.340  29.130   7.050
 7307POPC   C4A51774  42.333  29.100   7.350
 7307POPC   C1B51775  42.337  28.863   6.450
 7307POPC   C2B51776  42.330  28.920   6.750
 7307POPC   C3B51777  42.276  28.878   7.050
 7307POPC   C4B51778  42.326  28.936   7.350
 7308POPC   NC351779  43.087  35.388   5.550
 7308POPC   PO451780  43.159  35.320   5.850
 7308POPC   GL151781  43.131  35.363   6.150
 7308POPC   GL251782  43.189  35.384   6.150
 7308POPC   C1A51783  43.064  35.307   6.450
 7308POPC   D2A51784  43.074  35.378   6.750
 7308POPC   C3A51785  43.139  35.333   7.050
 7308POPC   C4A51786  43.130  35.388   7.350
 7308POPC   C1B51787  43.392  35.302   6.450
 7308POPC   C2B51788  43.388  35.346   6.750
 7308POPC   C3B51789  43.398  35.297   7.050
 7308POPC   C4B51790  43.322  35.375   7.350
 7309POPC   NC351791  15.172  15.139   5.550
 7309POPC   PO451792  15.188  15.198   5.850
 7309POPC   GL151793  15.159  15.195   6.150
 7309POPC   GL251794  15.289  15.297   6.150
 7309POPC   C1A51795  15.219  15.181   6.450
 7309POPC   D2A51796  15.213  15.182   6.750
 7309POPC   C3A51797  15.181  15.146   7.050
 7309POPC   C4A51798  15.195  15.228   7.350
 7309POPC   C1B51799  15.348  15.382   6.450
 7309POPC   C2B51800  15.317  15.364   6.750
 7309POPC   C3B51801  15.392  15.343   7.050
 7309POPC   C4B51802  15.351  15.346   7.350
 7310POPC   NC351803  15.996  26.090   5.550
 7310POPC   PO451804  15.932  26.072   5.850
 7310POPC   GL151805  15.953  26.030   6.150
 7310POPC   GL251806  15.968  26.123   6.150
 7310POPC   C1A51807  16.003  26.053   6.450
 7310POPC   D2A51808  15.907  26.014   6.750
 7310POPC   C3A51809  15.974  26.087   7.050
 7310POPC   C4A51810  15.912  26.052   7.350
 7310POPC   C1B51811  16.020  26.247   6.450
 7310POPC   C2B51812  16.038  26.333   6.750
 7310POPC   C3B51813  16.007  26.297   7.050
 7310POPC   C4B51814  16.021  26.295   7.350
 7311POPC   NC351815  15.204  40.786   5.550
 7311POPC   PO451816  15.223  40.764   5.850
 7311POPC   GL151817  15.134  40.814   6.150
 7311POPC   GL251818  15.135  40.874   6.150
 7311POPC   C1A51819  15.139  40.768   6.450
 7311POPC   D2A51820  15.217  40.783   6.750
 7311POPC   C3A51821  15.151  40.808   7.050
 7311POPC   C4A51822  15.143  40.785   7.350
 7311POPC   C1B51823  15.160  41.019   6.450
 7311POPC   C2B51824  15.167  41.006   6.750
 7311POPC   C3B51825  15.118  40.988   7.050
 7311POPC   C4B51826  15.171  41.047   7.350
 7312POPC   NC351827  41.586  27.624   5.550
 7312POPC   PO451828  41.537  27.606   5.850
 7312POPC   GL151829  41.528  27.625   6.150
 7312POPC   GL251830  41.534  27.455   6.150
 7312POPC   C1A51831  41.519  27.571   6.450
 7312POPC   D2A51832  41.563  27.596   6.750
 7312POPC   C3A51833  41.586  27.549   7.050
 7312POPC   C4A51834  41.580  27.571   7.350
 7312POPC   C1B51835  41.516  27.307   6.450
 7312POPC   C2B51836  41.480  27.346   6.750
 7312POPC   C3B51837  41.491  27.324   7.050
 7312POPC   C4B51838  41.533  27.372   7.350
 7313POPC   NC351839  16.779  19.807   5.550
 7313POPC   PO451840  16.770  19.793   5.850
 7313POPC   GL151841  16.716  19.873   6.150
 7313POPC   GL251842  16.628  19.950   6.150
 7313POPC   C1A51843  16.701  19.819   6.450
 7313POPC   D2A51844  16.737  19.856   6.750
 7313POPC   C3A51845  16.694  19.815   7.050
 7313POPC   C4A51846  16.762  19.827   7.350
 7313POPC   C1B51847  16.525  20.012   6.450
 7313POPC   C2B51848  16.557  19.943   6.750
 7313POPC   C3B51849  16.512  19.936   7.050
 7313POPC   C4B51850  16.518  19.957   7.350
 7314POPC   NC351851  30.721  18.247   5.550
 7314POPC   PO451852  30.722  18.277   5.850
 7314POPC   GL151853  30.681  18.328   6.150
 7314POPC   GL251854  30.596  18.319   6.150
 7314POPC   C1A51855  30.742  18.233   6.450
 7314POPC   D2A51856  30.651  18.257   6.750
 7314POPC   C3A51857  30.711  18.257   7.050
 7314POPC   C4A51858  30.698  18.244   7.350
 7314POPC   C1B51859  30.417  18.271   6.450
 7314POPC   C2B51860  30.458  18.246   6.750
 7314POPC   C3B51861  30.429  18.293   7.050
 7314POPC   C4B51862  30.447  18.284   7.350
 7315POPC   NC351863   6.653  29.147   5.550
 7315POPC   PO451864   6.599  29.098   5.850
 7315POPC   GL151865   6.620  29.172   6.150
 7315POPC   GL251866   6.643  29.283   6.150
 7315POPC   C1A51867   6.653  29.106   6.450
 7315POPC   D2A51868   6.626  29.153   6.750
 7315POPC   C3A51869   6.689  29.164   7.050
 7315POPC   C4A51870   6.602  29.181   7.350
 7315POPC   C1B51871   6.753  29.435   6.450
 7315POPC   C2B51872   6.751  29.391   6.750
 7315POPC   C3B51873   6.748  29.407   7.050
 7315POPC   C4B51874   6.657  29.419   7.350
 7316POPC   NC351875  33.046  43.144   5.550
 7316POPC   PO451876  33.012  43.116   5.850
 7316POPC   GL151877  33.029  43.126   6.150
 7316POPC   GL251878  33.084  43.013   6.150
 7316POPC   C1A51879  32.976  43.160   6.450
 7316POPC   D2A51880  33.035  43.086   6.750
 7316POPC   C3A51881  33.013  43.148   7.050
 7316POPC   C4A51882  33.044  43.065   7.350
 7316POPC   C1B51883  33.172  42.956   6.450
 7316POPC   C2B51884  33.237  42.912   6.750
 7316POPC   C3B51885  33.234  42.934   7.050
 7316POPC   C4B51886  33.180  42.875   7.350
 7317POPC   NC351887  36.082  18.265   5.550
 7317POPC   PO451888  36.092  18.269   5.850
 7317POPC   GL151889  36.159  18.234   6.150
 7317POPC   GL251890  36.100  18.193   6.150
 7317POPC   C1A51891  36.158  18.310   6.450
 7317POPC   D2A51892  36.123  18.285   6.750
 7317POPC   C3A51893  36.118  18.263   7.050
 7317POPC   C4A51894  36.115  18.251   7.350
 7317POPC   C1B51895  36.013  18.029   6.450
 7317POPC   C2B51896  35.989  18.029   6.750
 7317POPC   C3B51897  36.055  18.074   7.050
 7317POPC   C4B51898  36.021  18.092   7.350
 7318POPC   NC351899  42.302  26.806   5.550
 7318POPC   PO451900  42.339  26.867   5.850
 7318POPC   GL151901  42.349  26.777   6.150
 7318POPC   GL251902  42.412  26.745   6.150
 7318POPC   C1A51903  42.338  26.817   6.450
 7318POPC   D2A51904  42.384  26.844   6.750
 7318POPC   C3A51905  42.301  26.774   7.050
 7318POPC   C4A51906  42.310  26.831   7.350
 7318POPC   C1B51907  42.574  26.719   6.450
 7318POPC   C2B51908  42.528  26.742   6.750
 7318POPC   C3B51909  42.511  26.664   7.050
 7318POPC   C4B51910  42.529  26.671   7.350
 7319POPC   NC351911  26.859  40.799   5.550
 7319POPC   PO451912  26.786  40.733   5.850
 7319POPC   GL151913  26.860  40.788   6.150
 7319POPC   GL251914  26.868  40.720   6.150
 7319POPC   C1A51915  26.789  40.769   6.450
 7319POPC   D2A51916  26.795  40.793   6.750
 7319POPC   C3A51917  26.835  40.735   7.050
 7319POPC   C4A51918  26.815  40.785   7.350
 7319POPC   C1B51919  26.990  40.645   6.450
 7319POPC   C2B51920  27.060  40.606   6.750
 7319POPC   C3B51921  27.062  40.628   7.050
 7319POPC   C4B51922  27.000  40.581   7.350
 7320POPC   NC351923  35.347   1.239   5.550
 7320POPC   PO451924  35.366   1.191   5.850
 7320POPC   GL151925  35.350   1.173   6.150
 7320POPC   GL251926  35.264   1.190   6.150
 7320POPC   C1A51927  35.361   1.214   6.450
 7320POPC   D2A51928  35.349   1.256   6.750
 7320POPC   C3A51929  35.353   1.238   7.050
 7320POPC   C4A51930  35.353   1.238   7.350
 7320POPC   C1B51931  35.070   1.157   6.450
 7320POPC   C2B51932  35.085   1.186   6.750
 7320POPC   C3B51933  35.057   1.152   7.050
 7320POPC   C4B51934  35.138   1.147   7.350
 7321POPC   NC351935  29.913  22.938   5.550
 7321POPC   PO451936  29.916  22.964   5.850
 7321POPC   GL151937  29.891  22.956   6.150
 7321POPC   GL251938  30.031  22.982   6.150
 7321POPC   C1A51939  29.946  22.978   6.450
 7321POPC   D2A51940  29.910  22.929   6.750
 7321POPC   C3A51941  29.890  22.914   7.050
 7321POPC   C4A51942  29.886  22.958   7.350
 7321POPC   C1B51943  30.190  22.972   6.450
 7321POPC   C2B51944  30.152  23.053   6.750
 7321POPC   C3B51945  30.176  22.997   7.050
 7321POPC   C4B51946  30.142  23.061   7.350
 7322POPC   NC351947  24.522  27.549   5.550
 7322POPC   PO451948  24.459  27.593   5.850
 7322POPC   GL151949  24.485  27.637   6.150
 7322POPC   GL251950  24.546  27.505   6.150
 7322POPC   C1A51951  24.529  27.592   6.450
 7322POPC   D2A51952  24.486  27.574   6.750
 7322POPC   C3A51953  24.484  27.568   7.050
 7322POPC   C4A51954  24.448  27.634   7.350
 7322POPC   C1B51955  24.475  27.350   6.450
 7322POPC   C2B51956  24.488  27.384   6.750
 7322POPC   C3B51957  24.554  27.373   7.050
 7322POPC   C4B51958  24.486  27.340   7.350
 7323POPC   NC351959  38.495   1.945   5.550
 7323POPC   PO451960  38.442   2.000   5.850
 7323POPC   GL151961  38.434   2.022   6.150
 7323POPC   GL251962  38.503   2.081   6.150
 7323POPC   C1A51963  38.501   1.992   6.450
 7323POPC   D2A51964  38.421   1.964   6.750
 7323POPC   C3A51965  38.492   1.944   7.050
 7323POPC   C4A51966  38.460   1.963   7.350
 7323POPC   C1B51967  38.433   2.189   6.450
 7323POPC   C2B51968  38.488   2.274   6.750
 7323POPC   C3B51969  38.518   2.261   7.050
 7323POPC   C4B51970  38.450   2.270   7.350
 7324POPC   NC351971   8.152  16.707   5.550
 7324POPC   PO451972   8.155  16.688   5.850
 7324POPC   GL151973   8.188  16.765   6.150
 7324POPC   GL251974   8.226  16.618   6.150
 7324POPC   C1A51975   8.166  16.779   6.450
 7324POPC   D2A51976   8.229  16.692   6.750
 7324POPC   C3A51977   8.215  16.740   7.050
 7324POPC   C4A51978   8.199  16.712   7.350
 7324POPC   C1B51979   8.231  16.443   6.450
 7324POPC   C2B51980   8.208  16.485   6.750
 7324POPC   C3B51981   8.255  16.527   7.050
 7324POPC   C4B51982   8.205  16.462   7.350
 7325POPC   NC351983  17.519   3.580   5.550
 7325POPC   PO451984  17.466   3.532   5.850
 7325POPC   GL151985  17.482   3.503   6.150
 7325POPC   GL251986  17.428   3.590   6.150
 7325POPC   C1A51987  17.494   3.523   6.450
 7325POPC   D2A51988  17.555   3.583   6.750
 7325POPC   C3A51989  17.510   3.543   7.050
 7325POPC   C4A51990  17.550   3.561   7.350
 7325POPC   C1B51991  17.303   3.512   6.450
 7325POPC   C2B51992  17.242   3.573   6.750
 7325POPC   C3B51993  17.242   3.510   7.050
 7325POPC   C4B51994  17.247   3.574   7.350
 7326POPC   NC351995   7.441   7.420   5.550
 7326POPC   PO451996   7.442   7.404   5.850
 7326POPC   GL151997   7.431   7.466   6.150
 7326POPC   GL251998   7.354   7.542   6.150
 7326POPC   C1A51999   7.450   7.388   6.450
 7326POPC   D2A52000   7.439   7.397   6.750
 7326POPC   C3A52001   7.374   7.468   7.050
 7326POPC   C4A52002   7.447   7.413   7.350
 7326POPC   C1B52003   7.325   7.681   6.450
 7326POPC   C2B52004   7.371   7.658   6.750
 7326POPC   C3B52005   7.387   7.657   7.050
 7326POPC   C4B52006   7.350   7.625   7.350
 7327POPC   NC352007   6.598  12.845   5.550
 7327POPC   PO452008   6.598  12.899   5.850
 7327POPC   GL152009   6.650  12.814   6.150
 7327POPC   GL252010   6.700  12.992   6.150
 7327POPC   C1A52011   6.635  12.831   6.450
 7327POPC   D2A52012   6.636  12.873   6.750
 7327POPC   C3A52013   6.633  12.819   7.050
 7327POPC   C4A52014   6.629  12.899   7.350
 7327POPC   C1B52015   6.660  13.114   6.450
 7327POPC   C2B52016   6.712  13.088   6.750
 7327POPC   C3B52017   6.722  13.135   7.050
 7327POPC   C4B52018   6.731  13.102   7.350
 7328POPC   NC352019   6.603  36.159   5.550
 7328POPC   PO452020   6.685  36.145   5.850
 7328POPC   GL152021   6.646  36.110   6.150
 7328POPC   GL252022   6.704  36.227   6.150
 7328POPC   C1A52023   6.607  36.157   6.450
 7328POPC   D2A52024   6.688  36.142   6.750
 7328POPC   C3A52025   6.660  36.130   7.050
 7328POPC   C4A52026   6.637  36.169   7.350
 7328POPC   C1B52027   6.800  36.335   6.450
 7328POPC   C2B52028   6.784  36.302   6.750
 7328POPC   C3B52029   6.839  36.271   7.050
 7328POPC   C4B52030   6.788  36.278   7.350
 7329POPC   NC352031   2.013  42.299   5.550
 7329POPC   PO452032   1.958  42.347   5.850
 7329POPC   GL152033   2.025  42.336   6.150
 7329POPC   GL252034   2.094  42.320   6.150
 7329POPC   C1A52035   1.990  42.367   6.450
 7329POPC   D2A52036   1.949  42.356   6.750
 7329POPC   C3A52037   2.014  42.304   7.050
 7329POPC   C4A52038   1.984  42.353   7.350
 7329POPC   C1B52039   2.228  42.410   6.450
 7329POPC   C2B52040   2.191  42.421   6.750
 7329POPC   C3B52041   2.199  42.369   7.050
 7329POPC   C4B52042   2.212  42.417   7.350
 7330POPC   NC352043  33.036  23.680   5.550
 7330POPC   PO452044  33.050  23.666   5.850
 7330POPC   GL152045  33.066  23.760   6.150
 7330POPC   GL252046  32.874  23.751   6.150
 7330POPC   C1A52047  33.038  23.681   6.450
 7330POPC   D2A52048  32.978  23.702   6.750
 7330POPC   C3A52049  33.060  23.750   7.050
 7330POPC   C4A52050  32.997  23.685   7.350
 7330POPC   C1B52051  32.786  23.744   6.450
 7330POPC   C2B52052  32.789  23.734   6.750
 7330POPC   C3B52053  32.824  23.759   7.050
 7330POPC   C4B52054  32.824  23.674   7.350
 7331POPC   NC352055  14.433  15.978   5.550
 7331POPC   PO452056  14.432  15.911   5.850
 7331POPC   GL152057  14.447  15.949   6.150
 7331POPC   GL252058  14.298  15.931   6.150
 7331POPC   C1A52059  14.435  15.942   6.450
 7331POPC   D2A52060  14.428  15.968   6.750
 7331POPC   C3A52061  14.357  15.935   7.050
 7331POPC   C4A52062  14.371  15.977   7.350
 7331POPC   C1B52063  14.196  15.978   6.450
 7331POPC   C2B52064  14.138  16.014   6.750
 7331POPC   C3B52065  14.132  15.920   7.050
 7331POPC   C4B52066  14.109  15.995   7.350
 7332POPC   NC352067  15.135  38.480   5.550
 7332POPC   PO452068  15.146  38.488   5.850
 7332POPC   GL152069  15.166  38.413   6.150
 7332POPC   GL252070  15.273  38.303   6.150
 7332POPC   C1A52071  15.210  38.418   6.450
 7332POPC   D2A52072  15.189  38.478   6.750
 7332POPC   C3A52073  15.228  38.463   7.050
 7332POPC   C4A52074  15.223  38.426   7.350
 7332POPC   C1B52075  15.275  38.247   6.450
 7332POPC   C2B52076  15.301  38.229   6.750
 7332POPC   C3B52077  15.288  38.214   7.050
 7332POPC   C4B52078  15.277  38.208   7.350
 7333POPC   NC352079  25.281  24.535   5.550
 7333POPC   PO452080  25.299  24.526   5.850
 7333POPC   GL152081  25.235  24.500   6.150
 7333POPC   GL252082  25.257  24.654   6.150
 7333POPC   C1A52083  25.216  24.449   6.450
 7333POPC   D2A52084  25.241  24.504   6.750
 7333POPC   C3A52085  25.222  24.506   7.050
 7333POPC   C4A52086  25.216  24.461   7.350
 7333POPC   C1B52087  25.313  24.721   6.450
 7333POPC   C2B52088  25.294  24.720   6.750
 7333POPC   C3B52089  25.299  24.692   7.050
 7333POPC   C4B52090  25.294  24.776   7.350
 7334POPC   NC352091   8.974  14.450   5.550
 7334POPC   PO452092   8.926  14.453   5.850
 7334POPC   GL152093   9.022  14.362   6.150
 7334POPC   GL252094   8.880  14.333   6.150
 7334POPC   C1A52095   8.999  14.451   6.450
 7334POPC   D2A52096   8.950  14.449   6.750
 7334POPC   C3A52097   8.975  14.361   7.050
 7334POPC   C4A52098   9.016  14.374   7.350
 7334POPC   C1B52099   8.797  14.225   6.450
 7334POPC   C2B52100   8.864  14.158   6.750
 7334POPC   C3B52101   8.792  14.151   7.050
 7334POPC   C4B52102   8.836  14.169   7.350
 7335POPC   NC352103  40.000  40.041   5.550
 7335POPC   PO452104  40.000  40.003   5.850
 7335POPC   GL152105  39.978  40.033   6.150
 7335POPC   GL252106  39.854  39.928   6.150
 7335POPC   C1A52107  40.001  40.055   6.450
 7335POPC   D2A52108  40.042  40.045   6.750
 7335POPC   C3A52109  40.039  39.964   7.050
 7335POPC   C4A52110  39.965  39.970   7.350
 7335POPC   C1B52111  39.792  39.941   6.450
 7335POPC   C2B52112  39.725  39.938   6.750
 7335POPC   C3B52113  39.781  39.917   7.050
 7335POPC   C4B52114  39.753  39.950   7.350
 7336POPC   NC352115  44.636  34.599   5.550
 7336POPC   PO452116  44.651  34.533   5.850
 7336POPC   GL152117  44.696  34.613   6.150
 7336POPC   GL252118  44.528  34.557   6.150
 7336POPC   C1A52119  44.697  34.602   6.450
 7336POPC   D2A52120  44.664  34.613   6.750
 7336POPC   C3A52121  44.674  34.537   7.050
 7336POPC   C4A52122  44.648  34.561   7.350
 7336POPC   C1B52123  44.374  34.540   6.450
 7336POPC   C2B52124  44.458  34.559   6.750
 7336POPC   C3B52125  44.428  34.565   7.050
 7336POPC   C4B52126  44.439  34.516   7.350
 7337POPC   NC352127  24.520  22.968   5.550
 7337POPC   PO452128  24.528  22.980   5.850
 7337POPC   GL152129  24.459  22.908   6.150
 7337POPC   GL252130  24.559  22.788   6.150
 7337POPC   C1A52131  24.506  22.914   6.450
 7337POPC   D2A52132  24.451  22.917   6.750
 7337POPC   C3A52133  24.471  22.971   7.050
 7337POPC   C4A52134  24.447  22.893   7.350
 7337POPC   C1B52135  24.611  22.664   6.450
 7337POPC   C2B52136  24.539  22.674   6.750
 7337POPC   C3B52137  24.589  22.694   7.050
 7337POPC   C4B52138  24.537  22.713   7.350
 7338POPC   NC352139  36.872   8.964   5.550
 7338POPC   PO452140  36.855   8.997   5.850
 7338POPC   GL152141  36.930   8.976   6.150
 7338POPC   GL252142  37.010   8.961   6.150
 7338POPC   C1A52143  36.925   9.016   6.450
 7338POPC   D2A52144  36.948   8.958   6.750
 7338POPC   C3A52145  36.913   9.005   7.050
 7338POPC   C4A52146  36.928   8.955   7.350
 7338POPC   C1B52147  37.173   9.021   6.450
 7338POPC   C2B52148  37.171   8.974   6.750
 7338POPC   C3B52149  37.142   8.990   7.050
 7338POPC   C4B52150  37.172   8.981   7.350
 7339POPC   NC352151   7.402   0.403   5.550
 7339POPC   PO452152   7.443   0.427   5.850
 7339POPC   GL152153   7.468   0.459   6.150
 7339POPC   GL252154   7.330   0.478   6.150
 7339POPC   C1A52155   7.394   0.456   6.450
 7339POPC   D2A52156   7.437   0.389   6.750
 7339POPC   C3A52157   7.408   0.479   7.050
 7339POPC   C4A52158   7.384   0.435   7.350
 7339POPC   C1B52159   7.236   0.570   6.450
 7339POPC   C2B52160   7.203   0.508   6.750
 7339POPC   C3B52161   7.164   0.545   7.050
 7339POPC   C4B52162   7.191   0.580   7.350
 7340POPC   NC352163  28.415  19.790   5.550
 7340POPC   PO452164  28.399  19.807   5.850
 7340POPC   GL152165  28.331  19.867   6.150
 7340POPC   GL252166  28.211  19.846   6.150
 7340POPC   C1A52167  28.370  19.861   6.450
 7340POPC   D2A52168  28.341  19.881   6.750
 7340POPC   C3A52169  28.329  19.843   7.050
 7340POPC   C4A52170  28.410  19.875   7.350
 7340POPC   C1B52171  28.138  19.992   6.450
 7340POPC   C2B52172  28.123  19.957   6.750
 7340POPC   C3B52173  28.103  19.915   7.050
 7340POPC   C4B52174  28.093  19.935   7.350
 7341POPC   NC352175   9.003  38.464   5.550
 7341POPC   PO452176   8.922  38.423   5.850
 7341POPC   GL152177   8.932  38.445   6.150
 7341POPC   GL252178   9.025  38.574   6.150
 7341POPC   C1A52179   8.940  38.487   6.450
 7341POPC   D2A52180   9.017  38.479   6.750
 7341POPC   C3A52181   8.932  38.412   7.050
 7341POPC   C4A52182   8.930  38.460   7.350
 7341POPC   C1B52183   9.118  38.637   6.450
 7341POPC   C2B52184   9.104  38.646   6.750
 7341POPC   C3B52185   9.144  38.684   7.050
 7341POPC   C4B52186   9.172  38.652   7.350
 7342POPC   NC352187  23.741   2.026   5.550
 7342POPC   PO452188  23.677   1.970   5.850
 7342POPC   GL152189  23.761   1.973   6.150
 7342POPC   GL252190  23.656   1.931   6.150
 7342POPC   C1A52191  23.705   1.968   6.450
 7342POPC   D2A52192  23.735   2.020   6.750
 7342POPC   C3A52193  23.670   2.032   7.050
 7342POPC   C4A52194  23.730   1.994   7.350
 7342POPC   C1B52195  23.620   1.820   6.450
 7342POPC   C2B52196  23.603   1.760   6.750
 7342POPC   C3B52197  23.564   1.808   7.050
 7342POPC   C4B52198  23.591   1.769   7.350
 7343POPC   NC352199  17.492  16.702   5.550
 7343POPC   PO452200  17.542  16.761   5.850
 7343POPC   GL152201  17.469  16.762   6.150
 7343POPC   GL252202  17.374  16.705   6.150
 7343POPC   C1A52203  17.502  16.772   6.450
 7343POPC   D2A52204  17.541  16.737   6.750
 7343POPC   C3A52205  17.534  16.713   7.050
 7343POPC   C4A52206  17.484  16.689   7.350
 7343POPC   C1B52207  17.236  16.723   6.450
 7343POPC   C2B52208  17.238  16.674   6.750
 7343POPC   C3B52209  17.282  16.763   7.050
 7343POPC   C4B52210  17.268  16.690   7.350
 7344POPC   NC352211  11.263  40.056   5.550
 7344POPC   PO452212  11.337  39.995   5.850
 7344POPC   GL152213  11.329  39.993   6.150
 7344POPC   GL252214  11.363  39.873   6.150
 7344POPC   C1A52215  11.284  40.010   6.450
 7344POPC   D2A52216  11.269  39.976   6.750
 7344POPC   C3A52217  11.285  40.037   7.050
 7344POPC   C4A52218  11.333  39.982   7.350
 7344POPC   C1B52219  11.384  39.766   6.450
 7344POPC   C2B52220  11.370  39.781   6.750
 7344POPC   C3B52221  11.362  39.781   7.050
 7344POPC   C4B52222  11.352  39.760   7.350
 7345POPC   NC352223   0.452  10.528   5.550
 7345POPC   PO452224   0.419  10.493   5.850
 7345POPC   GL152225   0.443  10.515   6.150
 7345POPC   GL252226   0.516  10.494   6.150
 7345POPC   C1A52227   0.416  10.530   6.450
 7345POPC   D2A52228   0.475  10.550   6.750
 7345POPC   C3A52229   0.439  10.526   7.050
 7345POPC   C4A52230   0.422  10.532   7.350
 7345POPC   C1B52231   0.652  10.406   6.450
 7345POPC   C2B52232   0.670  10.473   6.750
 7345POPC   C3B52233   0.686  10.389   7.050
 7345POPC   C4B52234   0.679  10.403   7.350
 7346POPC   NC352235  41.521  37.680   5.550
 7346POPC   PO452236  41.557  37.653   5.850
 7346POPC   GL152237  41.539  37.672   6.150
 7346POPC   GL252238  41.450  37.783   6.150
 7346POPC   C1A52239  41.570  37.681   6.450
 7346POPC   D2A52240  41.576  37.639   6.750
 7346POPC   C3A52241  41.576  37.695   7.050
 7346POPC   C4A52242  41.533  37.696   7.350
 7346POPC   C1B52243  41.304  37.798   6.450
 7346POPC   C2B52244  41.298  37.761   6.750
 7346POPC   C3B52245  41.295  37.835   7.050
 7346POPC   C4B52246  41.352  37.744   7.350
 7347POPC   NC352247  27.565   3.535   5.550
 7347POPC   PO452248  27.599   3.554   5.850
 7347POPC   GL152249  27.637   3.495   6.150
 7347POPC   GL252250  27.451   3.517   6.150
 7347POPC   C1A52251  27.607   3.521   6.450
 7347POPC   D2A52252  27.566   3.563   6.750
 7347POPC   C3A52253  27.622   3.555   7.050
 7347POPC   C4A52254  27.588   3.549   7.350
 7347POPC   C1B52255  27.411   3.439   6.450
 7347POPC   C2B52256  27.362   3.426   6.750
 7347POPC   C3B52257  27.373   3.414   7.050
 7347POPC   C4B52258  27.414   3.431   7.350
 7348POPC   NC352259   2.764   7.422   5.550
 7348POPC   PO452260   2.804   7.396   5.850
 7348POPC   GL152261   2.723   7.450   6.150
 7348POPC   GL252262   2.713   7.492   6.150
 7348POPC   C1A52263   2.815   7.380   6.450
 7348POPC   D2A52264   2.793   7.447   6.750
 7348POPC   C3A52265   2.776   7.396   7.050
 7348POPC   C4A52266   2.813   7.453   7.350
 7348POPC   C1B52267   2.572   7.621   6.450
 7348POPC   C2B52268   2.615   7.541   6.750
 7348POPC   C3B52269   2.612   7.587   7.050
 7348POPC   C4B52270   2.569   7.621   7.350
 7349POPC   NC352271  29.899  39.215   5.550
 7349POPC   PO452272  29.963  39.182   5.850
 7349POPC   GL152273  29.960  39.276   6.150
 7349POPC   GL252274  29.838  39.136   6.150
 7349POPC   C1A52275  29.895  39.259   6.450
 7349POPC   D2A52276  29.871  39.227   6.750
 7349POPC   C3A52277  29.963  39.256   7.050
 7349POPC   C4A52278  29.956  39.195   7.350
 7349POPC   C1B52279  29.842  39.029   6.450
 7349POPC   C2B52280  29.881  39.024   6.750
 7349POPC   C3B52281  29.862  39.044   7.050
 7349POPC   C4B52282  29.856  38.997   7.350
 7350POPC   NC352283  40.812  37.706   5.550
 7350POPC   PO452284  40.822  37.699   5.850
 7350POPC   GL152285  40.797  37.675   6.150
 7350POPC   GL252286  40.901  37.580   6.150
 7350POPC   C1A52287  40.820  37.725   6.450
 7350POPC   D2A52288  40.742  37.715   6.750
 7350POPC   C3A52289  40.754  37.642   7.050
 7350POPC   C4A52290  40.815  37.691   7.350
 7350POPC   C1B52291  40.941  37.519   6.450
 7350POPC   C2B52292  40.956  37.515   6.750
 7350POPC   C3B52293  40.932  37.534   7.050
 7350POPC   C4B52294  40.914  37.466   7.350
 7351POPC   NC352295  40.791  27.571   5.550
 7351POPC   PO452296  40.795  27.558   5.850
 7351POPC   GL152297  40.819  27.578   6.150
 7351POPC   GL252298  40.812  27.495   6.150
 7351POPC   C1A52299  40.772  27.638   6.450
 7351POPC   D2A52300  40.799  27.544   6.750
 7351POPC   C3A52301  40.826  27.588   7.050
 7351POPC   C4A52302  40.745  27.585   7.350
 7351POPC   C1B52303  40.764  27.309   6.450
 7351POPC   C2B52304  40.809  27.326   6.750
 7351POPC   C3B52305  40.770  27.336   7.050
 7351POPC   C4B52306  40.792  27.299   7.350
 7352POPC   NC352307  15.934  38.413   5.550
 7352POPC   PO452308  15.952  38.419   5.850
 7352POPC   GL152309  15.953  38.432   6.150
 7352POPC   GL252310  16.016  38.548   6.150
 7352POPC   C1A52311  15.948  38.498   6.450
 7352POPC   D2A52312  15.954  38.415   6.750
 7352POPC   C3A52313  15.988  38.443   7.050
 7352POPC   C4A52314  15.966  38.493   7.350
 7352POPC   C1B52315  16.201  38.557   6.450
 7352POPC   C2B52316  16.182  38.553   6.750
 7352POPC   C3B52317  16.188  38.562   7.050
 7352POPC   C4B52318  16.158  38.592   7.350
 7353POPC   NC352319  43.845  33.756   5.550
 7353POPC   PO452320  43.858  33.761   5.850
 7353POPC   GL152321  43.914  33.773   6.150
 7353POPC   GL252322  43.863  33.958   6.150
 7353POPC   C1A52323  43.909  33.849   6.450
 7353POPC   D2A52324  43.914  33.768   6.750
 7353POPC   C3A52325  43.916  33.797   7.050
 7353POPC   C4A52326  43.874  33.790   7.350
 7353POPC   C1B52327  43.782  34.031   6.450
 7353POPC   C2B52328  43.863  34.084   6.750
 7353POPC   C3B52329  43.857  34.022   7.050
 7353POPC   C4B52330  43.815  34.033   7.350
 7354POPC   NC352331  10.545  25.308   5.550
 7354POPC   PO452332  10.503  25.245   5.850
 7354POPC   GL152333  10.507  25.234   6.150
 7354POPC   GL252334  10.371  25.325   6.150
 7354POPC   C1A52335  10.546  25.257   6.450
 7354POPC   D2A52336  10.542  25.302   6.750
 7354POPC   C3A52337  10.483  25.234   7.050
 7354POPC   C4A52338  10.521  25.227   7.350
 7354POPC   C1B52339  10.305  25.329   6.450
 7354POPC   C2B52340  10.258  25.357   6.750
 7354POPC   C3B52341  10.263  25.308   7.050
 7354POPC   C4B52342  10.250  25.393   7.350
 7355POPC   NC352343  26.005   2.806   5.550
 7355POPC   PO452344  26.005   2.751   5.850
 7355POPC   GL152345  26.012   2.774   6.150
 7355POPC   GL252346  26.203   2.821   6.150
 7355POPC   C1A52347  26.077   2.774   6.450
 7355POPC   D2A52348  26.083   2.799   6.750
 7355POPC   C3A52349  26.070   2.731   7.050
 7355POPC   C4A52350  26.064   2.728   7.350
 7355POPC   C1B52351  26.250   2.844   6.450
 7355POPC   C2B52352  26.282   2.759   6.750
 7355POPC   C3B52353  26.301   2.784   7.050
 7355POPC   C4B52354  26.246   2.756   7.350
 7356POPC   NC352355   8.946  36.877   5.550
 7356POPC   PO452356   8.962  36.880   5.850
 7356POPC   GL152357   8.964  36.915   6.150
 7356POPC   GL252358   9.057  37.001   6.150
 7356POPC   C1A52359   8.936  36.906   6.450
 7356POPC   D2A52360   9.021  36.860   6.750
 7356POPC   C3A52361   8.952  36.857   7.050
 7356POPC   C4A52362   8.962  36.924   7.350
 7356POPC   C1B52363   9.168  37.127   6.450
 7356POPC   C2B52364   9.100  37.071   6.750
 7356POPC   C3B52365   9.122  37.121   7.050
 7356POPC   C4B52366   9.117  37.106   7.350
 7357POPC   NC352367  38.487  24.514   5.550
 7357POPC   PO452368  38.429  24.465   5.850
 7357POPC   GL152369  38.450  24.467   6.150
 7357POPC   GL252370  38.535  24.557   6.150
 7357POPC   C1A52371  38.450  24.472   6.450
 7357POPC   D2A52372  38.483  24.506   6.750
 7357POPC   C3A52373  38.425  24.478   7.050
 7357POPC   C4A52374  38.466  24.497   7.350
 7357POPC   C1B52375  38.675  24.671   6.450
 7357POPC   C2B52376  38.632  24.633   6.750
 7357POPC   C3B52377  38.597  24.703   7.050
 7357POPC   C4B52378  38.677  24.630   7.350
 7358POPC   NC352379  16.716  12.865   5.550
 7358POPC   PO452380  16.774  12.885   5.850
 7358POPC   GL152381  16.694  12.883   6.150
 7358POPC   GL252382  16.732  13.024   6.150
 7358POPC   C1A52383  16.752  12.897   6.450
 7358POPC   D2A52384  16.720  12.802   6.750
 7358POPC   C3A52385  16.752  12.808   7.050
 7358POPC   C4A52386  16.708  12.880   7.350
 7358POPC   C1B52387  16.787  13.146   6.450
 7358POPC   C2B52388  16.776  13.135   6.750
 7358POPC   C3B52389  16.755  13.049   7.050
 7358POPC   C4B52390  16.728  13.094   7.350
 7359POPC   NC352391  36.949  37.713   5.550
 7359POPC   PO452392  36.893  37.712   5.850
 7359POPC   GL152393  36.890  37.727   6.150
 7359POPC   GL252394  36.886  37.831   6.150
 7359POPC   C1A52395  36.856  37.700   6.450
 7359POPC   D2A52396  36.919  37.711   6.750
 7359POPC   C3A52397  36.948  37.714   7.050
 7359POPC   C4A52398  36.862  37.700   7.350
 7359POPC   C1B52399  36.790  37.914   6.450
 7359POPC   C2B52400  36.797  37.886   6.750
 7359POPC   C3B52401  36.855  37.924   7.050
 7359POPC   C4B52402  36.797  37.885   7.350
 7360POPC   NC352403   4.272  44.683   5.550
 7360POPC   PO452404   4.364  44.614   5.850
 7360POPC   GL152405   4.336  44.617   6.150
 7360POPC   GL252406   4.204  44.711   6.150
 7360POPC   C1A52407   4.323  44.710   6.450
 7360POPC   D2A52408   4.317  44.635   6.750
 7360POPC   C3A52409   4.360  44.672   7.050
 7360POPC   C4A52410   4.285  44.632   7.350
 7360POPC   C1B52411   4.129  44.751   6.450
 7360POPC   C2B52412   4.103  44.805   6.750
 7360POPC   C3B52413   4.071  44.811   7.050
 7360POPC   C4B52414   4.097  44.756   7.350
 7361POPC   NC352415  19.845  18.264   5.550
 7361POPC   PO452416  19.834  18.324   5.850
 7361POPC   GL152417  19.802  18.281   6.150
 7361POPC   GL252418  19.929  18.386   6.150
 7361POPC   C1A52419  19.881  18.283   6.450
 7361POPC   D2A52420  19.855  18.314   6.750
 7361POPC   C3A52421  19.788  18.273   7.050
 7361POPC   C4A52422  19.874  18.238   7.350
 7361POPC   C1B52423  20.017  18.432   6.450
 7361POPC   C2B52424  20.076  18.370   6.750
 7361POPC   C3B52425  20.052  18.436   7.050
 7361POPC   C4B52426  20.069  18.369   7.350
 7362POPC   NC352427  39.221  40.745   5.550
 7362POPC   PO452428  39.260  40.800   5.850
 7362POPC   GL152429  39.266  40.808   6.150
 7362POPC   GL252430  39.274  40.922   6.150
 7362POPC   C1A52431  39.263  40.764   6.450
 7362POPC   D2A52432  39.218  40.780   6.750
 7362POPC   C3A52433  39.186  40.766   7.050
 7362POPC   C4A52434  39.268  40.743   7.350
 7362POPC   C1B52435  39.178  41.047   6.450
 7362POPC   C2B52436  39.209  41.078   6.750
 7362POPC   C3B52437  39.192  41.078   7.050
 7362POPC   C4B52438  39.231  41.049   7.350
 7363POPC   NC352439  43.100  19.048   5.550
 7363POPC   PO452440  43.083  19.050   5.850
 7363POPC   GL152441  43.120  19.095   6.150
 7363POPC   GL252442  42.954  18.947   6.150
 7363POPC   C1A52443  43.105  19.068   6.450
 7363POPC   D2A52444  43.099  19.034   6.750
 7363POPC   C3A52445  43.095  19.057   7.050
 7363POPC   C4A52446  43.082  19.096   7.350
 7363POPC   C1B52447  42.926  18.958   6.450
 7363POPC   C2B52448  42.929  18.926   6.750
 7363POPC   C3B52449  42.861  18.950   7.050
 7363POPC   C4B52450  42.909  18.928   7.350
 7364POPC   NC352451  38.419  18.278   5.550
 7364POPC   PO452452  38.496  18.313   5.850
 7364POPC   GL152453  38.499  18.238   6.150
 7364POPC   GL252454  38.596  18.313   6.150
 7364POPC   C1A52455  38.432  18.237   6.450
 7364POPC   D2A52456  38.462  18.282   6.750
 7364POPC   C3A52457  38.490  18.306   7.050
 7364POPC   C4A52458  38.483  18.306   7.350
 7364POPC   C1B52459  38.750  18.279   6.450
 7364POPC   C2B52460  38.723  18.343   6.750
 7364POPC   C3B52461  38.698  18.284   7.050
 7364POPC   C4B52462  38.736  18.367   7.350
 7365POPC   NC352463   5.104  25.225   5.550
 7365POPC   PO452464   5.094  25.309   5.850
 7365POPC   GL152465   5.049  25.220   6.150
 7365POPC   GL252466   5.063  25.096   6.150
 7365POPC   C1A52467   5.103  25.301   6.450
 7365POPC   D2A52468   5.086  25.258   6.750
 7365POPC   C3A52469   5.063  25.283   7.050
 7365POPC   C4A52470   5.126  25.274   7.350
 7365POPC   C1B52471   5.074  24.971   6.450
 7365POPC   C2B52472   5.067  24.970   6.750
 7365POPC   C3B52473   5.088  25.022   7.050
 7365POPC   C4B52474   5.103  25.038   7.350
 7366POPC   NC352475   0.486  14.446   5.550
 7366POPC   PO452476   0.434  14.400   5.850
 7366POPC   GL152477   0.429  14.381   6.150
 7366POPC   GL252478   0.533  14.554   6.150
 7366POPC   C1A52479   0.409  14.388   6.450
 7366POPC   D2A52480   0.412  14.441   6.750
 7366POPC   C3A52481   0.448  14.378   7.050
 7366POPC   C4A52482   0.437  14.407   7.350
 7366POPC   C1B52483   0.621  14.606   6.450
 7366POPC   C2B52484   0.541  14.615   6.750
 7366POPC   C3B52485   0.539  14.643   7.050
 7366POPC   C4B52486   0.595  14.625   7.350
 7367POPC   NC352487  15.207   6.670   5.550
 7367POPC   PO452488  15.153   6.613   5.850
 7367POPC   GL152489  15.209   6.663   6.150
 7367POPC   GL252490  15.047   6.682   6.150
 7367POPC   C1A52491  15.139   6.658   6.450
 7367POPC   D2A52492  15.181   6.602   6.750
 7367POPC   C3A52493  15.206   6.608   7.050
 7367POPC   C4A52494  15.225   6.621   7.350
 7367POPC   C1B52495  14.921   6.689   6.450
 7367POPC   C2B52496  14.960   6.663   6.750
 7367POPC   C3B52497  14.910   6.668   7.050
 7367POPC   C4B52498  14.925   6.665   7.350
 7368POPC   NC352499   9.717   6.663   5.550
 7368POPC   PO452500   9.746   6.604   5.850
 7368POPC   GL152501   9.732   6.653   6.150
 7368POPC   GL252502   9.705   6.511   6.150
 7368POPC   C1A52503   9.792   6.690   6.450
 7368POPC   D2A52504   9.710   6.600   6.750
 7368POPC   C3A52505   9.743   6.612   7.050
 7368POPC   C4A52506   9.698   6.612   7.350
 7368POPC   C1B52507   9.759   6.431   6.450
 7368POPC   C2B52508   9.720   6.424   6.750
 7368POPC   C3B52509   9.746   6.380   7.050
 7368POPC   C4B52510   9.726   6.428   7.350
 7369POPC   NC352511  23.750  44.668   5.550
 7369POPC   PO452512  23.693  44.639   5.850
 7369POPC   GL152513  23.673  44.615   6.150
 7369POPC   GL252514  23.693  44.516   6.150
 7369POPC   C1A52515  23.726  44.702   6.450
 7369POPC   D2A52516  23.755  44.621   6.750
 7369POPC   C3A52517  23.748  44.655   7.050
 7369POPC   C4A52518  23.742  44.626   7.350
 7369POPC   C1B52519  23.577  44.450   6.450
 7369POPC   C2B52520  23.618  44.428   6.750
 7369POPC   C3B52521  23.613  44.418   7.050
 7369POPC   C4B52522  23.585  44.468   7.350
 7370POPC   NC352523  44.614  26.045   5.550
 7370POPC   PO452524  44.660  26.052   5.850
 7370POPC   GL152525  44.648  26.048   6.150
 7370POPC   GL252526  44.507  26.075   6.150
 7370POPC   C1A52527  44.635  26.034   6.450
 7370POPC   D2A52528  44.654  26.068   6.750
 7370POPC   C3A52529  44.701  26.025   7.050
 7370POPC   C4A52530  44.642  26.067   7.350
 7370POPC   C1B52531  44.472  26.164   6.450
 7370POPC   C2B52532  44.394  26.098   6.750
 7370POPC   C3B52533  44.402  26.099   7.050
 7370POPC   C4B52534  44.403  26.165   7.350
 7371POPC   NC352535  22.966  35.324   5.550
 7371POPC   PO452536  22.980  35.336   5.850
 7371POPC   GL152537  22.908  35.353   6.150
 7371POPC   GL252538  22.929  35.479   6.150
 7371POPC   C1A52539  22.888  35.358   6.450
 7371POPC   D2A52540  22.934  35.386   6.750
 7371POPC   C3A52541  22.932  35.384   7.050
 7371POPC   C4A52542  22.978  35.380   7.350
 7371POPC   C1B52543  23.004  35.639   6.450
 7371POPC   C2B52544  22.950  35.555   6.750
 7371POPC   C3B52545  22.947  35.552   7.050
 7371POPC   C4B52546  22.965  35.621   7.350
 7372POPC   NC352547  40.805  39.237   5.550
 7372POPC   PO452548  40.739  39.263   5.850
 7372POPC   GL152549  40.753  39.280   6.150
 7372POPC   GL252550  40.777  39.333   6.150
 7372POPC   C1A52551  40.739  39.181   6.450
 7372POPC   D2A52552  40.784  39.231   6.750
 7372POPC   C3A52553  40.734  39.232   7.050
 7372POPC   C4A52554  40.819  39.234   7.350
 7372POPC   C1B52555  40.749  39.439   6.450
 7372POPC   C2B52556  40.704  39.518   6.750
 7372POPC   C3B52557  40.738  39.472   7.050
 7372POPC   C4B52558  40.684  39.438   7.350
 7373POPC   NC352559  32.251  40.744   5.550
 7373POPC   PO452560  32.246  40.830   5.850
 7373POPC   GL152561  32.287  40.810   6.150
 7373POPC   GL252562  32.295  40.911   6.150
 7373POPC   C1A52563  32.297  40.764   6.450
 7373POPC   D2A52564  32.289  40.797   6.750
 7373POPC   C3A52565  32.258  40.746   7.050
 7373POPC   C4A52566  32.278  40.828   7.350
 7373POPC   C1B52567  32.317  41.055   6.450
 7373POPC   C2B52568  32.295  41.073   6.750
 7373POPC   C3B52569  32.294  41.081   7.050
 7373POPC   C4B52570  32.246  41.051   7.350
 7374POPC   NC352571  15.145  39.238   5.550
 7374POPC   PO452572  15.223  39.203   5.850
 7374POPC   GL152573  15.205  39.187   6.150
 7374POPC   GL252574  15.102  39.104   6.150
 7374POPC   C1A52575  15.185  39.208   6.450
 7374POPC   D2A52576  15.175  39.192   6.750
 7374POPC   C3A52577  15.144  39.243   7.050
 7374POPC   C4A52578  15.221  39.200   7.350
 7374POPC   C1B52579  15.056  39.008   6.450
 7374POPC   C2B52580  15.033  39.005   6.750
 7374POPC   C3B52581  15.039  39.010   7.050
 7374POPC   C4B52582  15.033  39.034   7.350
 7375POPC   NC352583  30.736  39.996   5.550
 7375POPC   PO452584  30.724  39.992   5.850
 7375POPC   GL152585  30.744  40.007   6.150
 7375POPC   GL252586  30.782  39.907   6.150
 7375POPC   C1A52587  30.685  40.014   6.450
 7375POPC   D2A52588  30.674  40.002   6.750
 7375POPC   C3A52589  30.707  40.003   7.050
 7375POPC   C4A52590  30.668  40.015   7.350
 7375POPC   C1B52591  30.928  39.880   6.450
 7375POPC   C2B52592  30.925  39.875   6.750
 7375POPC   C3B52593  30.961  39.852   7.050
 7375POPC   C4B52594  30.903  39.871   7.350
 7376POPC   NC352595  25.274   6.679   5.550
 7376POPC   PO452596  25.222   6.657   5.850
 7376POPC   GL152597  25.261   6.617   6.150
 7376POPC   GL252598  25.102   6.645   6.150
 7376POPC   C1A52599  25.303   6.639   6.450
 7376POPC   D2A52600  25.287   6.640   6.750
 7376POPC   C3A52601  25.231   6.692   7.050
 7376POPC   C4A52602  25.257   6.598   7.350
 7376POPC   C1B52603  25.028   6.527   6.450
 7376POPC   C2B52604  25.031   6.571   6.750
 7376POPC   C3B52605  25.023   6.577   7.050
 7376POPC   C4B52606  25.026   6.566   7.350
 7377POPC   NC352607   3.515  30.680   5.550
 7377POPC   PO452608   3.552  30.710   5.850
 7377POPC   GL152609   3.550  30.657   6.150
 7377POPC   GL252610   3.659  30.792   6.150
 7377POPC   C1A52611   3.520  30.744   6.450
 7377POPC   D2A52612   3.522  30.727   6.750
 7377POPC   C3A52613   3.546  30.736   7.050
 7377POPC   C4A52614   3.510  30.685   7.350
 7377POPC   C1B52615   3.746  30.862   6.450
 7377POPC   C2B52616   3.710  30.838   6.750
 7377POPC   C3B52617   3.788  30.837   7.050
 7377POPC   C4B52618   3.695  30.890   7.350
 7378POPC   NC352619  36.868  15.930   5.550
 7378POPC   PO452620  36.938  15.960   5.850
 7378POPC   GL152621  36.854  15.957   6.150
 7378POPC   GL252622  36.939  15.891   6.150
 7378POPC   C1A52623  36.891  15.976   6.450
 7378POPC   D2A52624  36.894  15.956   6.750
 7378POPC   C3A52625  36.908  15.975   7.050
 7378POPC   C4A52626  36.921  15.952   7.350
 7378POPC   C1B52627  37.113  15.786   6.450
 7378POPC   C2B52628  37.086  15.743   6.750
 7378POPC   C3B52629  37.081  15.790   7.050
 7378POPC   C4B52630  37.069  15.789   7.350
 7379POPC   NC352631  41.604  42.341   5.550
 7379POPC   PO452632  41.569  42.306   5.850
 7379POPC   GL152633  41.599  42.317   6.150
 7379POPC   GL252634  41.671  42.454   6.150
 7379POPC   C1A52635  41.523  42.335   6.450
 7379POPC   D2A52636  41.514  42.315   6.750
 7379POPC   C3A52637  41.564  42.356   7.050
 7379POPC   C4A52638  41.594  42.322   7.350
 7379POPC   C1B52639  41.704  42.585   6.450
 7379POPC   C2B52640  41.726  42.505   6.750
 7379POPC   C3B52641  41.692  42.510   7.050
 7379POPC   C4B52642  41.695  42.584   7.350
 7380POPC   NC352643  18.322   9.718   5.550
 7380POPC   PO452644  18.298   9.719   5.850
 7380POPC   GL152645  18.259   9.780   6.150
 7380POPC   GL252646  18.361   9.816   6.150
 7380POPC   C1A52647  18.272   9.787   6.450
 7380POPC   D2A52648  18.320   9.775   6.750
 7380POPC   C3A52649  18.318   9.790   7.050
 7380POPC   C4A52650  18.321   9.741   7.350
 7380POPC   C1B52651  18.525   9.846   6.450
 7380POPC   C2B52652  18.538   9.775   6.750
 7380POPC   C3B52653  18.535   9.804   7.050
 7380POPC   C4B52654  18.539   9.840   7.350
 7381POPC   NC352655   1.257  28.369   5.550
 7381POPC   PO452656   1.232  28.415   5.850
 7381POPC   GL152657   1.253  28.368   6.150
 7381POPC   GL252658   1.063  28.287   6.150
 7381POPC   C1A52659   1.257  28.337   6.450
 7381POPC   D2A52660   1.191  28.405   6.750
 7381POPC   C3A52661   1.224  28.390   7.050
 7381POPC   C4A52662   1.254  28.343   7.350
 7381POPC   C1B52663   1.025  28.271   6.450
 7381POPC   C2B52664   0.979  28.213   6.750
 7381POPC   C3B52665   1.019  28.210   7.050
 7381POPC   C4B52666   0.975  28.264   7.350
 7382POPC   NC352667  35.347   5.846   5.550
 7382POPC   PO452668  35.348   5.832   5.850
 7382POPC   GL152669  35.378   5.881   6.150
 7382POPC   GL252670  35.471   5.765   6.150
 7382POPC   C1A52671  35.320   5.901   6.450
 7382POPC   D2A52672  35.357   5.852   6.750
 7382POPC   C3A52673  35.363   5.913   7.050
 7382POPC   C4A52674  35.401   5.824   7.350
 7382POPC   C1B52675  35.586   5.681   6.450
 7382POPC   C2B52676  35.568   5.719   6.750
 7382POPC   C3B52677  35.573   5.701   7.050
 7382POPC   C4B52678  35.594   5.732   7.350
 7383POPC   NC352679  15.217   0.449   5.550
 7383POPC   PO452680  15.222   0.420   5.850
 7383POPC   GL152681  15.148   0.424   6.150
 7383POPC   GL252682  15.235   0.575   6.150
 7383POPC   C1A52683  15.217   0.419   6.450
 7383POPC   D2A52684  15.131   0.477   6.750
 7383POPC   C3A52685  15.144   0.427   7.050
 7383POPC   C4A52686  15.196   0.414   7.350
 7383POPC   C1B52687  15.210   0.636   6.450
 7383POPC   C2B52688  15.204   0.663   6.750
 7383POPC   C3B52689  15.266   0.666   7.050
 7383POPC   C4B52690  15.257   0.656   7.350
 7384POPC   NC352691  16.761  16.768   5.550
 7384POPC   PO452692  16.745  16.764   5.850
 7384POPC   GL152693  16.729  16.747   6.150
 7384POPC   GL252694  16.667  16.813   6.150
 7384POPC   C1A52695  16.695  16.728   6.450
 7384POPC   D2A52696  16.716  16.765   6.750
 7384POPC   C3A52697  16.688  16.767   7.050
 7384POPC   C4A52698  16.766  16.698   7.350
 7384POPC   C1B52699  16.650  16.982   6.450
 7384POPC   C2B52700  16.698  16.966   6.750
 7384POPC   C3B52701  16.625  16.998   7.050
 7384POPC   C4B52702  16.689  16.981   7.350
 7385POPC   NC352703  22.956   8.151   5.550
 7385POPC   PO452704  22.897   8.226   5.850
 7385POPC   GL152705  22.973   8.185   6.150
 7385POPC   GL252706  22.788   8.200   6.150
 7385POPC   C1A52707  22.949   8.216   6.450
 7385POPC   D2A52708  22.901   8.185   6.750
 7385POPC   C3A52709  22.949   8.155   7.050
 7385POPC   C4A52710  22.966   8.218   7.350
 7385POPC   C1B52711  22.714   8.191   6.450
 7385POPC   C2B52712  22.700   8.168   6.750
 7385POPC   C3B52713  22.711   8.168   7.050
 7385POPC   C4B52714  22.689   8.135   7.350
 7386POPC   NC352715  29.907   6.650   5.550
 7386POPC   PO452716  29.956   6.633   5.850
 7386POPC   GL152717  29.874   6.599   6.150
 7386POPC   GL252718  29.997   6.683   6.150
 7386POPC   C1A52719  29.887   6.665   6.450
 7386POPC   D2A52720  29.911   6.692   6.750
 7386POPC   C3A52721  29.917   6.628   7.050
 7386POPC   C4A52722  29.910   6.653   7.350
 7386POPC   C1B52723  30.179   6.755   6.450
 7386POPC   C2B52724  30.122   6.787   6.750
 7386POPC   C3B52725  30.148   6.826   7.050
 7386POPC   C4B52726  30.111   6.777   7.350
 7387POPC   NC352727   0.441  43.099   5.550
 7387POPC   PO452728   0.469  43.093   5.850
 7387POPC   GL152729   0.474  43.126   6.150
 7387POPC   GL252730   0.371  42.972   6.150
 7387POPC   C1A52731   0.487  43.099   6.450
 7387POPC   D2A52732   0.393  43.092   6.750
 7387POPC   C3A52733   0.475  43.075   7.050
 7387POPC   C4A52734   0.401  43.119   7.350
 7387POPC   C1B52735   0.267  42.930   6.450
 7387POPC   C2B52736   0.217  42.920   6.750
 7387POPC   C3B52737   0.259  42.890   7.050
 7387POPC   C4B52738   0.219  42.934   7.350
 7388POPC   NC352739  36.891  21.368   5.550
 7388POPC   PO452740  36.951  21.401   5.850
 7388POPC   GL152741  36.921  21.405   6.150
 7388POPC   GL252742  36.968  21.300   6.150
 7388POPC   C1A52743  36.858  21.389   6.450
 7388POPC   D2A52744  36.915  21.337   6.750
 7388POPC   C3A52745  36.859  21.344   7.050
 7388POPC   C4A52746  36.860  21.390   7.350
 7388POPC   C1B52747  37.071  21.185   6.450
 7388POPC   C2B52748  37.098  21.193   6.750
 7388POPC   C3B52749  37.034  21.234   7.050
 7388POPC   C4B52750  37.058  21.202   7.350
 7389POPC   NC352751  11.349  32.984   5.550
 7389POPC   PO452752  11.332  33.010   5.850
 7389POPC   GL152753  11.291  33.043   6.150
 7389POPC   GL252754  11.186  33.030   6.150
 7389POPC   C1A52755  11.254  33.000   6.450
 7389POPC   D2A52756  11.333  33.065   6.750
 7389POPC   C3A52757  11.282  33.001   7.050
 7389POPC   C4A52758  11.300  33.029   7.350
 7389POPC   C1B52759  11.071  33.059   6.450
 7389POPC   C2B52760  11.081  33.072   6.750
 7389POPC   C3B52761  11.106  33.066   7.050
 7389POPC   C4B52762  11.065  33.106   7.350
 7390POPC   NC352763   5.089  37.678   5.550
 7390POPC   PO452764   5.058  37.679   5.850
 7390POPC   GL152765   5.123  37.729   6.150
 7390POPC   GL252766   5.182  37.824   6.150
 7390POPC   C1A52767   5.064  37.662   6.450
 7390POPC   D2A52768   5.112  37.727   6.750
 7390POPC   C3A52769   5.119  37.652   7.050
 7390POPC   C4A52770   5.079  37.648   7.350
 7390POPC   C1B52771   5.224  37.903   6.450
 7390POPC   C2B52772   5.222  37.935   6.750
 7390POPC   C3B52773   5.167  37.905   7.050
 7390POPC   C4B52774   5.185  37.947   7.350
 7391POPC   NC352775  37.701   9.787   5.550
 7391POPC   PO452776  37.696   9.739   5.850
 7391POPC   GL152777  37.646   9.765   6.150
 7391POPC   GL252778  37.707   9.864   6.150
 7391POPC   C1A52779  37.644   9.708   6.450
 7391POPC   D2A52780  37.681   9.764   6.750
 7391POPC   C3A52781  37.683   9.762   7.050
 7391POPC   C4A52782  37.704   9.713   7.350
 7391POPC   C1B52783  37.743   9.988   6.450
 7391POPC   C2B52784  37.706   9.956   6.750
 7391POPC   C3B52785  37.751   9.953   7.050
 7391POPC   C4B52786  37.780   9.955   7.350
 7392POPC   NC352787  29.140  15.199   5.550
 7392POPC   PO452788  29.119  15.163   5.850
 7392POPC   GL152789  29.152  15.217   6.150
 7392POPC   GL252790  29.188  15.057   6.150
 7392POPC   C1A52791  29.156  15.152   6.450
 7392POPC   D2A52792  29.108  15.191   6.750
 7392POPC   C3A52793  29.151  15.165   7.050
 7392POPC   C4A52794  29.142  15.218   7.350
 7392POPC   C1B52795  29.140  14.974   6.450
 7392POPC   C2B52796  29.129  14.961   6.750
 7392POPC   C3B52797  29.162  14.900   7.050
 7392POPC   C4B52798  29.117  14.937   7.350
 7393POPC   NC352799  11.326  41.521   5.550
 7393POPC   PO452800  11.296  41.513   5.850
 7393POPC   GL152801  11.329  41.536   6.150
 7393POPC   GL252802  11.424  41.453   6.150
 7393POPC   C1A52803  11.310  41.590   6.450
 7393POPC   D2A52804  11.298  41.606   6.750
 7393POPC   C3A52805  11.321  41.599   7.050
 7393POPC   C4A52806  11.267  41.546   7.350
 7393POPC   C1B52807  11.515  41.404   6.450
 7393POPC   C2B52808  11.484  41.389   6.750
 7393POPC   C3B52809  11.520  41.418   7.050
 7393POPC   C4B52810  11.474  41.380   7.350
 7394POPC   NC352811   5.087  39.279   5.550
 7394POPC   PO452812   5.141  39.245   5.850
 7394POPC   GL152813   5.135  39.269   6.150
 7394POPC   GL252814   5.206  39.290   6.150
 7394POPC   C1A52815   5.130  39.207   6.450
 7394POPC   D2A52816   5.045  39.239   6.750
 7394POPC   C3A52817   5.094  39.268   7.050
 7394POPC   C4A52818   5.143  39.258   7.350
 7394POPC   C1B52819   5.287  39.341   6.450
 7394POPC   C2B52820   5.321  39.387   6.750
 7394POPC   C3B52821   5.279  39.384   7.050
 7394POPC   C4B52822   5.294  39.386   7.350
 7395POPC   NC352823  43.931  35.312   5.550
 7395POPC   PO452824  43.935  35.339   5.850
 7395POPC   GL152825  43.843  35.330   6.150
 7395POPC   GL252826  43.778  35.430   6.150
 7395POPC   C1A52827  43.850  35.386   6.450
 7395POPC   D2A52828  43.909  35.321   6.750
 7395POPC   C3A52829  43.888  35.365   7.050
 7395POPC   C4A52830  43.881  35.386   7.350
 7395POPC   C1B52831  43.706  35.568   6.450
 7395POPC   C2B52832  43.694  35.535   6.750
 7395POPC   C3B52833  43.707  35.566   7.050
 7395POPC   C4B52834  43.679  35.514   7.350
 7396POPC   NC352835  44.674  24.449   5.550
 7396POPC   PO452836  44.637  24.464   5.850
 7396POPC   GL152837  44.613  24.539   6.150
 7396POPC   GL252838  44.739  24.381   6.150
 7396POPC   C1A52839  44.625  24.440   6.450
 7396POPC   D2A52840  44.688  24.453   6.750
 7396POPC   C3A52841  44.642  24.475   7.050
 7396POPC   C4A52842  44.674  24.531   7.350
 7396POPC   C1B52843  44.853  24.331   6.450
 7396POPC   C2B52844  44.839  24.310   6.750
 7396POPC   C3B52845  44.839  24.323   7.050
 7396POPC   C4B52846  44.816  24.306   7.350
 7397POPC   NC352847  28.410  23.685   5.550
 7397POPC   PO452848  28.407  23.667   5.850
 7397POPC   GL152849  28.334  23.735   6.150
 7397POPC   GL252850  28.431  23.818   6.150
 7397POPC   C1A52851  28.413  23.758   6.450
 7397POPC   D2A52852  28.325  23.754   6.750
 7397POPC   C3A52853  28.404  23.710   7.050
 7397POPC   C4A52854  28.337  23.759   7.350
 7397POPC   C1B52855  28.365  23.912   6.450
 7397POPC   C2B52856  28.360  23.982   6.750
 7397POPC   C3B52857  28.453  23.963   7.050
 7397POPC   C4B52858  28.387  23.986   7.350
 7398POPC   NC352859  12.859  25.302   5.550
 7398POPC   PO452860  12.892  25.259   5.850
 7398POPC   GL152861  12.861  25.240   6.150
 7398POPC   GL252862  12.822  25.105   6.150
 7398POPC   C1A52863  12.894  25.313   6.450
 7398POPC   D2A52864  12.900  25.267   6.750
 7398POPC   C3A52865  12.898  25.266   7.050
 7398POPC   C4A52866  12.812  25.278   7.350
 7398POPC   C1B52867  12.787  25.054   6.450
 7398POPC   C2B52868  12.803  25.050   6.750
 7398POPC   C3B52869  12.812  25.012   7.050
 7398POPC   C4B52870  12.757  25.023   7.350
 7399POPC   NC352871  12.053  33.757   5.550
 7399POPC   PO452872  12.123  33.756   5.850
 7399POPC   GL152873  12.031  33.794   6.150
 7399POPC   GL252874  12.024  33.651   6.150
 7399POPC   C1A52875  12.124  33.835   6.450
 7399POPC   D2A52876  12.085  33.841   6.750
 7399POPC   C3A52877  12.040  33.786   7.050
 7399POPC   C4A52878  12.073  33.774   7.350
 7399POPC   C1B52879  11.944  33.560   6.450
 7399POPC   C2B52880  11.936  33.607   6.750
 7399POPC   C3B52881  11.986  33.576   7.050
 7399POPC   C4B52882  11.989  33.589   7.350
 7400POPC   NC352883  41.588   3.521   5.550
 7400POPC   PO452884  41.557   3.539   5.850
 7400POPC   GL152885  41.530   3.538   6.150
 7400POPC   GL252886  41.647   3.634   6.150
 7400POPC   C1A52887  41.549   3.561   6.450
 7400POPC   D2A52888  41.533   3.528   6.750
 7400POPC   C3A52889  41.583   3.549   7.050
 7400POPC   C4A52890  41.531   3.541   7.350
 7400POPC   C1B52891  41.832   3.689   6.450
 7400POPC   C2B52892  41.757   3.635   6.750
 7400POPC   C3B52893  41.790   3.673   7.050
 7400POPC   C4B52894  41.802   3.613   7.350
 7401POPC   NC352895  25.296  21.351   5.550
 7401POPC   PO452896  25.245  21.432   5.850
 7401POPC   GL152897  25.258  21.338   6.150
 7401POPC   GL252898  25.221  21.476   6.150
 7401POPC   C1A52899  25.253  21.416   6.450
 7401POPC   D2A52900  25.300  21.407   6.750
 7401POPC   C3A52901  25.216  21.342   7.050
 7401POPC   C4A52902  25.273  21.371   7.350
 7401POPC   C1B52903  25.208  21.583   6.450
 7401POPC   C2B52904  25.213  21.661   6.750
 7401POPC   C3B52905  25.230  21.674   7.050
 7401POPC   C4B52906  25.249  21.663   7.350
 7402POPC   NC352907  28.384  15.150   5.550
 7402POPC   PO452908  28.349  15.136   5.850
 7402POPC   GL152909  28.390  15.212   6.150
 7402POPC   GL252910  28.335  15.261   6.150
 7402POPC   C1A52911  28.331  15.159   6.450
 7402POPC   D2A52912  28.355  15.176   6.750
 7402POPC   C3A52913  28.350  15.168   7.050
 7402POPC   C4A52914  28.350  15.165   7.350
 7402POPC   C1B52915  28.271  15.371   6.450
 7402POPC   C2B52916  28.337  15.394   6.750
 7402POPC   C3B52917  28.297  15.378   7.050
 7402POPC   C4B52918  28.266  15.425   7.350
 7403POPC   NC352919  18.304  44.696   5.550
 7403POPC   PO452920  18.272  44.649   5.850
 7403POPC   GL152921  18.275  44.656   6.150
 7403POPC   GL252922  18.296  44.563   6.150
 7403POPC   C1A52923  18.240  44.654   6.450
 7403POPC   D2A52924  18.241  44.704   6.750
 7403POPC   C3A52925  18.251  44.684   7.050
 7403POPC   C4A52926  18.274  44.660   7.350
 7403POPC   C1B52927  18.208  44.407   6.450
 7403POPC   C2B52928  18.235  44.441   6.750
 7403POPC   C3B52929  18.222  44.385   7.050
 7403POPC   C4B52930  18.179  44.397   7.350
 7404POPC   NC352931  43.924  43.858   5.550
 7404POPC   PO452932  43.874  43.858   5.850
 7404POPC   GL152933  43.845  43.863   6.150
 7404POPC   GL252934  43.958  43.932   6.150
 7404POPC   C1A52935  43.881  43.863   6.450
 7404POPC   D2A52936  43.905  43.890   6.750
 7404POPC   C3A52937  43.903  43.906   7.050
 7404POPC   C4A52938  43.890  43.844   7.350
 7404POPC   C1B52939  44.103  44.049   6.450
 7404POPC   C2B52940  44.093  44.038   6.750
 7404POPC   C3B52941  44.141  44.034   7.050
 7404POPC   C4B52942  44.136  43.985   7.350
 7405POPC   NC352943  36.886  13.661   5.550
 7405POPC   PO452944  36.895  13.656   5.850
 7405POPC   GL152945  36.887  13.644   6.150
 7405POPC   GL252946  37.007  13.719   6.150
 7405POPC   C1A52947  36.923  13.632   6.450
 7405POPC   D2A52948  36.902  13.590   6.750
 7405POPC   C3A52949  36.897  13.637   7.050
 7405POPC   C4A52950  36.855  13.656   7.350
 7405POPC   C1B52951  37.090  13.814   6.450
 7405POPC   C2B52952  37.118  13.733   6.750
 7405POPC   C3B52953  37.072  13.744   7.050
 7405POPC   C4B52954  37.156  13.812   7.350
 7406POPC   NC352955  35.353  34.537   5.550
 7406POPC   PO452956  35.355  34.595   5.850
 7406POPC   GL152957  35.327  34.602   6.150
 7406POPC   GL252958  35.263  34.685   6.150
 7406POPC   C1A52959  35.325  34.554   6.450
 7406POPC   D2A52960  35.307  34.557   6.750
 7406POPC   C3A52961  35.344  34.550   7.050
 7406POPC   C4A52962  35.333  34.540   7.350
 7406POPC   C1B52963  35.131  34.776   6.450
 7406POPC   C2B52964  35.154  34.770   6.750
 7406POPC   C3B52965  35.136  34.760   7.050
 7406POPC   C4B52966  35.157  34.693   7.350
 7407POPC   NC352967  36.115  25.269   5.550
 7407POPC   PO452968  36.146  25.263   5.850
 7407POPC   GL152969  36.120  25.293   6.150
 7407POPC   GL252970  36.053  25.341   6.150
 7407POPC   C1A52971  36.144  25.236   6.450
 7407POPC   D2A52972  36.120  25.230   6.750
 7407POPC   C3A52973  36.163  25.296   7.050
 7407POPC   C4A52974  36.078  25.256   7.350
 7407POPC   C1B52975  35.951  25.380   6.450
 7407POPC   C2B52976  35.949  25.427   6.750
 7407POPC   C3B52977  35.949  25.400   7.050
 7407POPC   C4B52978  35.896  25.394   7.350
 7408POPC   NC352979  16.695   5.114   5.550
 7408POPC   PO452980  16.759   5.054   5.850
 7408POPC   GL152981  16.763   5.068   6.150
 7408POPC   GL252982  16.629   5.159   6.150
 7408POPC   C1A52983  16.716   5.135   6.450
 7408POPC   D2A52984  16.695   5.109   6.750
 7408POPC   C3A52985  16.692   5.072   7.050
 7408POPC   C4A52986  16.689   5.125   7.350
 7408POPC   C1B52987  16.481   5.224   6.450
 7408POPC   C2B52988  16.530   5.250   6.750
 7408POPC   C3B52989  16.540   5.273   7.050
 7408POPC   C4B52990  16.567   5.196   7.350
 7409POPC   NC352991  39.246  30.678   5.550
 7409POPC   PO452992  39.182  30.712   5.850
 7409POPC   GL152993  39.202  30.708   6.150
 7409POPC   GL252994  39.301  30.608   6.150
 7409POPC   C1A52995  39.231  30.706   6.450
 7409POPC   D2A52996  39.184  30.656   6.750
 7409POPC   C3A52997  39.208  30.659   7.050
 7409POPC   C4A52998  39.200  30.685   7.350
 7409POPC   C1B52999  39.407  30.499   6.450
 7409POPC   C2B53000  39.432  30.544   6.750
 7409POPC   C3B53001  39.427  30.506   7.050
 7409POPC   C4B53002  39.378  30.534   7.350
 7410POPC   NC353003  27.614  34.611   5.550
 7410POPC   PO453004  27.624  34.570   5.850
 7410POPC   GL153005  27.544  34.586   6.150
 7410POPC   GL253006  27.529  34.479   6.150
 7410POPC   C1A53007  27.547  34.569   6.450
 7410POPC   D2A53008  27.583  34.602   6.750
 7410POPC   C3A53009  27.577  34.590   7.050
 7410POPC   C4A53010  27.615  34.601   7.350
 7410POPC   C1B53011  27.544  34.391   6.450
 7410POPC   C2B53012  27.538  34.341   6.750
 7410POPC   C3B53013  27.541  34.295   7.050
 7410POPC   C4B53014  27.468  34.324   7.350
 7411POPC   NC353015  34.608  34.548   5.550
 7411POPC   PO453016  34.585  34.569   5.850
 7411POPC   GL153017  34.550  34.556   6.150
 7411POPC   GL253018  34.546  34.654   6.150
 7411POPC   C1A53019  34.578  34.598   6.450
 7411POPC   D2A53020  34.544  34.575   6.750
 7411POPC   C3A53021  34.623  34.551   7.050
 7411POPC   C4A53022  34.598  34.540   7.350
 7411POPC   C1B53023  34.570  34.863   6.450
 7411POPC   C2B53024  34.510  34.785   6.750
 7411POPC   C3B53025  34.534  34.807   7.050
 7411POPC   C4B53026  34.549  34.827   7.350
 7412POPC   NC353027   4.300  15.945   5.550
 7412POPC   PO453028   4.269  15.928   5.850
 7412POPC   GL153029   4.339  15.969   6.150
 7412POPC   GL253030   4.220  16.018   6.150
 7412POPC   C1A53031   4.309  15.981   6.450
 7412POPC   D2A53032   4.333  15.910   6.750
 7412POPC   C3A53033   4.298  15.911   7.050
 7412POPC   C4A53034   4.277  15.938   7.350
 7412POPC   C1B53035   4.164  16.142   6.450
 7412POPC   C2B53036   4.142  16.123   6.750
 7412POPC   C3B53037   4.110  16.143   7.050
 7412POPC   C4B53038   4.150  16.167   7.350
 7413POPC   NC353039  12.848  36.857   5.550
 7413POPC   PO453040  12.868  36.909   5.850
 7413POPC   GL153041  12.898  36.902   6.150
 7413POPC   GL253042  12.753  36.915   6.150
 7413POPC   C1A53043  12.862  36.904   6.450
 7413POPC   D2A53044  12.821  36.951   6.750
 7413POPC   C3A53045  12.809  36.944   7.050
 7413POPC   C4A53046  12.823  36.864   7.350
 7413POPC   C1B53047  12.609  36.825   6.450
 7413POPC   C2B53048  12.572  36.810   6.750
 7413POPC   C3B53049  12.614  36.890   7.050
 7413POPC   C4B53050  12.565  36.820   7.350
 7414POPC   NC353051  23.666   2.762   5.550
 7414POPC   PO453052  23.744   2.778   5.850
 7414POPC   GL153053  23.744   2.786   6.150
 7414POPC   GL253054  23.714   2.635   6.150
 7414POPC   C1A53055  23.714   2.770   6.450
 7414POPC   D2A53056  23.690   2.798   6.750
 7414POPC   C3A53057  23.677   2.734   7.050
 7414POPC   C4A53058  23.742   2.776   7.350
 7414POPC   C1B53059  23.677   2.554   6.450
 7414POPC   C2B53060  23.747   2.479   6.750
 7414POPC   C3B53061  23.691   2.483   7.050
 7414POPC   C4B53062  23.733   2.545   7.350
 7415POPC   NC353063   7.462   5.123   5.550
 7415POPC   PO453064   7.402   5.062   5.850
 7415POPC   GL153065   7.457   5.113   6.150
 7415POPC   GL253066   7.523   5.037   6.150
 7415POPC   C1A53067   7.377   5.143   6.450
 7415POPC   D2A53068   7.378   5.093   6.750
 7415POPC   C3A53069   7.455   5.127   7.050
 7415POPC   C4A53070   7.386   5.113   7.350
 7415POPC   C1B53071   7.616   4.957   6.450
 7415POPC   C2B53072   7.651   4.951   6.750
 7415POPC   C3B53073   7.586   4.887   7.050
 7415POPC   C4B53074   7.580   4.900   7.350
 7416POPC   NC353075  29.177  17.530   5.550
 7416POPC   PO453076  29.151  17.512   5.850
 7416POPC   GL153077  29.181  17.526   6.150
 7416POPC   GL253078  29.132  17.663   6.150
 7416POPC   C1A53079  29.152  17.469   6.450
 7416POPC   D2A53080  29.141  17.476   6.750
 7416POPC   C3A53081  29.125  17.499   7.050
 7416POPC   C4A53082  29.164  17.547   7.350
 7416POPC   C1B53083  29.116  17.769   6.450
 7416POPC   C2B53084  29.098  17.797   6.750
 7416POPC   C3B53085  29.079  17.769   7.050
 7416POPC   C4B53086  29.132  17.722   7.350
 7417POPC   NC353087  37.682  40.752   5.550
 7417POPC   PO453088  37.631  40.820   5.850
 7417POPC   GL153089  37.676  40.808   6.150
 7417POPC   GL253090  37.621  40.638   6.150
 7417POPC   C1A53091  37.696  40.794   6.450
 7417POPC   D2A53092  37.663  40.739   6.750
 7417POPC   C3A53093  37.669  40.738   7.050
 7417POPC   C4A53094  37.668  40.826   7.350
 7417POPC   C1B53095  37.617  40.554   6.450
 7417POPC   C2B53096  37.607  40.509   6.750
 7417POPC   C3B53097  37.679  40.571   7.050
 7417POPC   C4B53098  37.624  40.527   7.350
 7418POPC   NC353099  39.204  23.702   5.550
 7418POPC   PO453100  39.200  23.678   5.850
 7418POPC   GL153101  39.239  23.682   6.150
 7418POPC   GL253102  39.371  23.766   6.150
 7418POPC   C1A53103  39.219  23.697   6.450
 7418POPC   D2A53104  39.182  23.684   6.750
 7418POPC   C3A53105  39.260  23.739   7.050
 7418POPC   C4A53106  39.269  23.740   7.350
 7418POPC   C1B53107  39.445  23.876   6.450
 7418POPC   C2B53108  39.431  23.805   6.750
 7418POPC   C3B53109  39.409  23.842   7.050
 7418POPC   C4B53110  39.464  23.869   7.350
 7419POPC   NC353111   2.792  13.595   5.550
 7419POPC   PO453112   2.741  13.664   5.850
 7419POPC   GL153113   2.765  13.578   6.150
 7419POPC   GL253114   2.635  13.671   6.150
 7419POPC   C1A53115   2.789  13.657   6.450
 7419POPC   D2A53116   2.756  13.673   6.750
 7419POPC   C3A53117   2.795  13.631   7.050
 7419POPC   C4A53118   2.814  13.601   7.350
 7419POPC   C1B53119   2.516  13.762   6.450
 7419POPC   C2B53120   2.545  13.713   6.750
 7419POPC   C3B53121   2.548  13.688   7.050
 7419POPC   C4B53122   2.555  13.695   7.350
 7420POPC   NC353123  13.671  41.559   5.550
 7420POPC   PO453124  13.627  41.539   5.850
 7420POPC   GL153125  13.653  41.568   6.150
 7420POPC   GL253126  13.767  41.659   6.150
 7420POPC   C1A53127  13.631  41.535   6.450
 7420POPC   D2A53128  13.673  41.562   6.750
 7420POPC   C3A53129  13.594  41.545   7.050
 7420POPC   C4A53130  13.634  41.545   7.350
 7420POPC   C1B53131  13.832  41.702   6.450
 7420POPC   C2B53132  13.878  41.615   6.750
 7420POPC   C3B53133  13.852  41.617   7.050
 7420POPC   C4B53134  13.873  41.704   7.350
 7421POPC   NC353135  31.423  12.051   5.550
 7421POPC   PO453136  31.509  12.118   5.850
 7421POPC   GL153137  31.425  12.117   6.150
 7421POPC   GL253138  31.529  11.998   6.150
 7421POPC   C1A53139  31.423  12.122   6.450
 7421POPC   D2A53140  31.432  12.122   6.750
 7421POPC   C3A53141  31.448  12.056   7.050
 7421POPC   C4A53142  31.438  12.090   7.350
 7421POPC   C1B53143  31.547  11.811   6.450
 7421POPC   C2B53144  31.495  11.833   6.750
 7421POPC   C3B53145  31.498  11.836   7.050
 7421POPC   C4B53146  31.476  11.879   7.350
 7422POPC   NC353147   6.649   3.578   5.550
 7422POPC   PO453148   6.681   3.556   5.850
 7422POPC   GL153149   6.626   3.576   6.150
 7422POPC   GL253150   6.760   3.515   6.150
 7422POPC   C1A53151   6.681   3.510   6.450
 7422POPC   D2A53152   6.695   3.565   6.750
 7422POPC   C3A53153   6.650   3.562   7.050
 7422POPC   C4A53154   6.617   3.527   7.350
 7422POPC   C1B53155   6.844   3.550   6.450
 7422POPC   C2B53156   6.915   3.530   6.750
 7422POPC   C3B53157   6.929   3.533   7.050
 7422POPC   C4B53158   6.872   3.508   7.350
 7423POPC   NC353159   8.225  25.279   5.550
 7423POPC   PO453160   8.243  25.290   5.850
 7423POPC   GL153161   8.243  25.310   6.150
 7423POPC   GL253162   8.047  25.272   6.150
 7423POPC   C1A53163   8.201  25.315   6.450
 7423POPC   D2A53164   8.170  25.218   6.750
 7423POPC   C3A53165   8.192  25.241   7.050
 7423POPC   C4A53166   8.165  25.303   7.350
 7423POPC   C1B53167   7.973  25.196   6.450
 7423POPC   C2B53168   7.981  25.160   6.750
 7423POPC   C3B53169   7.967  25.209   7.050
 7423POPC   C4B53170   7.956  25.132   7.350
 7424POPC   NC353171  30.731  35.304   5.550
 7424POPC   PO453172  30.735  35.380   5.850
 7424POPC   GL153173  30.738  35.304   6.150
 7424POPC   GL253174  30.580  35.379   6.150
 7424POPC   C1A53175  30.650  35.390   6.450
 7424POPC   D2A53176  30.693  35.350   6.750
 7424POPC   C3A53177  30.672  35.366   7.050
 7424POPC   C4A53178  30.714  35.330   7.350
 7424POPC   C1B53179  30.428  35.310   6.450
 7424POPC   C2B53180  30.432  35.341   6.750
 7424POPC   C3B53181  30.437  35.339   7.050
 7424POPC   C4B53182  30.483  35.327   7.350
 7425POPC   NC353183  28.356  27.634   5.550
 7425POPC   PO453184  28.413  27.595   5.850
 7425POPC   GL153185  28.378  27.556   6.150
 7425POPC   GL253186  28.274  27.550   6.150
 7425POPC   C1A53187  28.350  27.617   6.450
 7425POPC   D2A53188  28.399  27.639   6.750
 7425POPC   C3A53189  28.406  27.643   7.050
 7425POPC   C4A53190  28.343  27.588   7.350
 7425POPC   C1B53191  28.125  27.503   6.450
 7425POPC   C2B53192  28.096  27.519   6.750
 7425POPC   C3B53193  28.128  27.536   7.050
 7425POPC   C4B53194  28.102  27.498   7.350
 7426POPC   NC353195  36.948  22.927   5.550
 7426POPC   PO453196  36.883  22.929   5.850
 7426POPC   GL153197  36.943  22.911   6.150
 7426POPC   GL253198  36.821  23.023   6.150
 7426POPC   C1A53199  36.878  22.911   6.450
 7426POPC   D2A53200  36.953  22.898   6.750
 7426POPC   C3A53201  36.855  22.941   7.050
 7426POPC   C4A53202  36.906  22.958   7.350
 7426POPC   C1B53203  36.686  23.088   6.450
 7426POPC   C2B53204  36.694  23.092   6.750
 7426POPC   C3B53205  36.681  23.044   7.050
 7426POPC   C4B53206  36.729  23.092   7.350
 7427POPC   NC353207  14.391   4.332   5.550
 7427POPC   PO453208  14.374   4.317   5.850
 7427POPC   GL153209  14.354   4.284   6.150
 7427POPC   GL253210  14.271   4.223   6.150
 7427POPC   C1A53211  14.400   4.343   6.450
 7427POPC   D2A53212  14.401   4.306   6.750
 7427POPC   C3A53213  14.437   4.294   7.050
 7427POPC   C4A53214  14.435   4.366   7.350
 7427POPC   C1B53215  14.225   4.166   6.450
 7427POPC   C2B53216  14.154   4.137   6.750
 7427POPC   C3B53217  14.229   4.225   7.050
 7427POPC   C4B53218  14.189   4.168   7.350
 7428POPC   NC353219   5.101   4.308   5.550
 7428POPC   PO453220   5.125   4.270   5.850
 7428POPC   GL153221   5.118   4.283   6.150
 7428POPC   GL253222   4.967   4.194   6.150
 7428POPC   C1A53223   5.095   4.287   6.450
 7428POPC   D2A53224   5.080   4.335   6.750
 7428POPC   C3A53225   5.135   4.280   7.050
 7428POPC   C4A53226   5.067   4.314   7.350
 7428POPC   C1B53227   4.945   4.103   6.450
 7428POPC   C2B53228   4.931   4.189   6.750
 7428POPC   C3B53229   4.935   4.115   7.050
 7428POPC   C4B53230   4.950   4.201   7.350
 7429POPC   NC353231   6.689  27.628   5.550
 7429POPC   PO453232   6.623  27.551   5.850
 7429POPC   GL153233   6.683  27.638   6.150
 7429POPC   GL253234   6.507  27.564   6.150
 7429POPC   C1A53235   6.633  27.617   6.450
 7429POPC   D2A53236   6.654  27.622   6.750
 7429POPC   C3A53237   6.602  27.575   7.050
 7429POPC   C4A53238   6.617  27.635   7.350
 7429POPC   C1B53239   6.359  27.554   6.450
 7429POPC   C2B53240   6.363  27.547   6.750
 7429POPC   C3B53241   6.373  27.527   7.050
 7429POPC   C4B53242   6.409  27.570   7.350
 7430POPC   NC353243  12.079  36.176   5.550
 7430POPC   PO453244  12.126  36.103   5.850
 7430POPC   GL153245  12.043  36.118   6.150
 7430POPC   GL253246  12.116  36.237   6.150
 7430POPC   C1A53247  12.125  36.125   6.450
 7430POPC   D2A53248  12.041  36.129   6.750
 7430POPC   C3A53249  12.071  36.143   7.050
 7430POPC   C4A53250  12.095  36.174   7.350
 7430POPC   C1B53251  12.072  36.388   6.450
 7430POPC   C2B53252  12.072  36.399   6.750
 7430POPC   C3B53253  12.115  36.346   7.050
 7430POPC   C4B53254  12.130  36.331   7.350
 7431POPC   NC353255  13.617  40.032   5.550
 7431POPC   PO453256  13.672  40.043   5.850
 7431POPC   GL153257  13.677  40.039   6.150
 7431POPC   GL253258  13.738  39.996   6.150
 7431POPC   C1A53259  13.602  40.015   6.450
 7431POPC   D2A53260  13.649  40.040   6.750
 7431POPC   C3A53261  13.603  39.996   7.050
 7431POPC   C4A53262  13.625  39.965   7.350
 7431POPC   C1B53263  13.885  39.979   6.450
 7431POPC   C2B53264  13.867  40.016   6.750
 7431POPC   C3B53265  13.878  39.976   7.050
 7431POPC   C4B53266  13.874  40.023   7.350
 7432POPC   NC353267  14.450  32.201   5.550
 7432POPC   PO453268  14.453  32.287   5.850
 7432POPC   GL153269  14.423  32.256   6.150
 7432POPC   GL253270  14.354  32.140   6.150
 7432POPC   C1A53271  14.370  32.246   6.450
 7432POPC   D2A53272  14.429  32.211   6.750
 7432POPC   C3A53273  14.429  32.277   7.050
 7432POPC   C4A53274  14.365  32.258   7.350
 7432POPC   C1B53275  14.395  32.005   6.450
 7432POPC   C2B53276  14.401  31.973   6.750
 7432POPC   C3B53277  14.436  31.979   7.050
 7432POPC   C4B53278  14.373  31.974   7.350
 7433POPC   NC353279   1.951  11.274   5.550
 7433POPC   PO453280   1.984  11.325   5.850
 7433POPC   GL153281   2.039  11.293   6.150
 7433POPC   GL253282   2.065  11.242   6.150
 7433POPC   C1A53283   1.940  11.321   6.450
 7433POPC   D2A53284   2.025  11.259   6.750
 7433POPC   C3A53285   1.990  11.297   7.050
 7433POPC   C4A53286   2.029  11.294   7.350
 7433POPC   C1B53287   2.240  11.233   6.450
 7433POPC   C2B53288   2.219  11.234   6.750
 7433POPC   C3B53289   2.220  11.243   7.050
 7433POPC   C4B53290   2.281  11.230   7.350
 7434POPC   NC353291  26.834  13.633   5.550
 7434POPC   PO453292  26.792  13.673   5.850
 7434POPC   GL153293  26.777  13.673   6.150
 7434POPC   GL253294  26.722  13.557   6.150
 7434POPC   C1A53295  26.855  13.617   6.450
 7434POPC   D2A53296  26.827  13.666   6.750
 7434POPC   C3A53297  26.800  13.620   7.050
 7434POPC   C4A53298  26.790  13.596   7.350
 7434POPC   C1B53299  26.561  13.522   6.450
 7434POPC   C2B53300  26.608  13.544   6.750
 7434POPC   C3B53301  26.583  13.508   7.050
 7434POPC   C4B53302  26.631  13.528   7.350
 7435POPC   NC353303  33.021  20.601   5.550
 7435POPC   PO453304  33.069  20.616   5.850
 7435POPC   GL153305  33.015  20.615   6.150
 7435POPC   GL253306  33.111  20.554   6.150
 7435POPC   C1A53307  33.038  20.592   6.450
 7435POPC   D2A53308  33.047  20.582   6.750
 7435POPC   C3A53309  33.038  20.580   7.050
 7435POPC   C4A53310  33.048  20.574   7.350
 7435POPC   C1B53311  33.312  20.570   6.450
 7435POPC   C2B53312  33.239  20.578   6.750
 7435POPC   C3B53313  33.236  20.524   7.050
 7435POPC   C4B53314  33.264  20.546   7.350
 7436POPC   NC353315  16.723  26.834   5.550
 7436POPC   PO453316  16.722  26.801   5.850
 7436POPC   GL153317  16.705  26.807   6.150
 7436POPC   GL253318  16.641  26.899   6.150
 7436POPC   C1A53319  16.712  26.823   6.450
 7436POPC   D2A53320  16.771  26.865   6.750
 7436POPC   C3A53321  16.748  26.794   7.050
 7436POPC   C4A53322  16.761  26.828   7.350
 7436POPC   C1B53323  16.471  26.865   6.450
 7436POPC   C2B53324  16.460  26.947   6.750
 7436POPC   C3B53325  16.449  26.856   7.050
 7436POPC   C4B53326  16.513  26.892   7.350
 7437POPC   NC353327  25.227  25.306   5.550
 7437POPC   PO453328  25.289  25.243   5.850
 7437POPC   GL153329  25.266  25.295   6.150
 7437POPC   GL253330  25.362  25.289   6.150
 7437POPC   C1A53331  25.254  25.251   6.450
 7437POPC   D2A53332  25.269  25.293   6.750
 7437POPC   C3A53333  25.217  25.278   7.050
 7437POPC   C4A53334  25.262  25.255   7.350
 7437POPC   C1B53335  25.499  25.294   6.450
 7437POPC   C2B53336  25.549  25.346   6.750
 7437POPC   C3B53337  25.483  25.360   7.050
 7437POPC   C4B53338  25.480  25.349   7.350
 7438POPC   NC353339  20.627  22.204   5.550
 7438POPC   PO453340  20.594  22.177   5.850
 7438POPC   GL153341  20.573  22.114   6.150
 7438POPC   GL253342  20.745  22.220   6.150
 7438POPC   C1A53343  20.618  22.177   6.450
 7438POPC   D2A53344  20.587  22.193   6.750
 7438POPC   C3A53345  20.586  22.141   7.050
 7438POPC   C4A53346  20.570  22.207   7.350
 7438POPC   C1B53347  20.846  22.136   6.450
 7438POPC   C2B53348  20.893  22.164   6.750
 7438POPC   C3B53349  20.856  22.128   7.050
 7438POPC   C4B53350  20.851  22.214   7.350
 7439POPC   NC353351  15.962  11.309   5.550
 7439POPC   PO453352  16.003  11.269   5.850
 7439POPC   GL153353  15.911  11.305   6.150
 7439POPC   GL253354  16.055  11.266   6.150
 7439POPC   C1A53355  15.929  11.261   6.450
 7439POPC   D2A53356  15.959  11.261   6.750
 7439POPC   C3A53357  15.945  11.293   7.050
 7439POPC   C4A53358  15.943  11.304   7.350
 7439POPC   C1B53359  16.175  11.235   6.450
 7439POPC   C2B53360  16.236  11.256   6.750
 7439POPC   C3B53361  16.179  11.252   7.050
 7439POPC   C4B53362  16.148  11.233   7.350
 7440POPC   NC353363  23.708  23.696   5.550
 7440POPC   PO453364  23.674  23.730   5.850
 7440POPC   GL153365  23.725  23.699   6.150
 7440POPC   GL253366  23.815  23.820   6.150
 7440POPC   C1A53367  23.711  23.668   6.450
 7440POPC   D2A53368  23.718  23.760   6.750
 7440POPC   C3A53369  23.751  23.747   7.050
 7440POPC   C4A53370  23.665  23.722   7.350
 7440POPC   C1B53371  23.845  23.909   6.450
 7440POPC   C2B53372  23.892  23.906   6.750
 7440POPC   C3B53373  23.856  23.945   7.050
 7440POPC   C4B53374  23.841  23.936   7.350
 7441POPC   NC353375  19.071  24.465   5.550
 7441POPC   PO453376  19.082  24.473   5.850
 7441POPC   GL153377  19.035  24.489   6.150
 7441POPC   GL253378  19.182  24.584   6.150
 7441POPC   C1A53379  19.050  24.487   6.450
 7441POPC   D2A53380  19.038  24.455   6.750
 7441POPC   C3A53381  19.064  24.474   7.050
 7441POPC   C4A53382  19.030  24.466   7.350
 7441POPC   C1B53383  19.269  24.625   6.450
 7441POPC   C2B53384  19.296  24.674   6.750
 7441POPC   C3B53385  19.263  24.583   7.050
 7441POPC   C4B53386  19.314  24.584   7.350
 7442POPC   NC353387  12.122   5.070   5.550
 7442POPC   PO453388  12.100   5.061   5.850
 7442POPC   GL153389  12.067   5.086   6.150
 7442POPC   GL253390  12.208   5.213   6.150
 7442POPC   C1A53391  12.062   5.117   6.450
 7442POPC   D2A53392  12.099   5.051   6.750
 7442POPC   C3A53393  12.093   5.070   7.050
 7442POPC   C4A53394  12.031   5.083   7.350
 7442POPC   C1B53395  12.232   5.253   6.450
 7442POPC   C2B53396  12.281   5.317   6.750
 7442POPC   C3B53397  12.229   5.245   7.050
 7442POPC   C4B53398  12.288   5.233   7.350
 7443POPC   NC353399  30.730  33.802   5.550
 7443POPC   PO453400  30.667  33.794   5.850
 7443POPC   GL153401  30.664  33.825   6.150
 7443POPC   GL253402  30.621  33.663   6.150
 7443POPC   C1A53403  30.684  33.805   6.450
 7443POPC   D2A53404  30.677  33.793   6.750
 7443POPC   C3A53405  30.743  33.846   7.050
 7443POPC   C4A53406  30.699  33.766   7.350
 7443POPC   C1B53407  30.599  33.558   6.450
 7443POPC   C2B53408  30.601  33.570   6.750
 7443POPC   C3B53409  30.541  33.612   7.050
 7443POPC   C4B53410  30.584  33.531   7.350
 7444POPC   NC353411  42.320   8.176   5.550
 7444POPC   PO453412  42.360   8.222   5.850
 7444POPC   GL153413  42.288   8.172   6.150
 7444POPC   GL253414  42.401   8.254   6.150
 7444POPC   C1A53415  42.290   8.210   6.450
 7444POPC   D2A53416  42.366   8.206   6.750
 7444POPC   C3A53417  42.341   8.185   7.050
 7444POPC   C4A53418  42.369   8.174   7.350
 7444POPC   C1B53419  42.490   8.386   6.450
 7444POPC   C2B53420  42.537   8.420   6.750
 7444POPC   C3B53421  42.536   8.355   7.050
 7444POPC   C4B53422  42.496   8.352   7.350
 7445POPC   NC353423   8.927  30.686   5.550
 7445POPC   PO453424   8.944  30.707   5.850
 7445POPC   GL153425   9.011  30.674   6.150
 7445POPC   GL253426   8.891  30.690   6.150
 7445POPC   C1A53427   9.008  30.745   6.450
 7445POPC   D2A53428   8.955  30.705   6.750
 7445POPC   C3A53429   8.998  30.675   7.050
 7445POPC   C4A53430   9.010  30.742   7.350
 7445POPC   C1B53431   8.713  30.747   6.450
 7445POPC   C2B53432   8.759  30.800   6.750
 7445POPC   C3B53433   8.762  30.805   7.050
 7445POPC   C4B53434   8.695  30.730   7.350
 7446POPC   NC353435   6.661  38.429   5.550
 7446POPC   PO453436   6.675  38.436   5.850
 7446POPC   GL153437   6.624  38.467   6.150
 7446POPC   GL253438   6.816  38.481   6.150
 7446POPC   C1A53439   6.620  38.461   6.450
 7446POPC   D2A53440   6.664  38.428   6.750
 7446POPC   C3A53441   6.663  38.429   7.050
 7446POPC   C4A53442   6.595  38.457   7.350
 7446POPC   C1B53443   6.919  38.438   6.450
 7446POPC   C2B53444   6.854  38.473   6.750
 7446POPC   C3B53445   6.902  38.511   7.050
 7446POPC   C4B53446   6.882  38.488   7.350
 7447POPC   NC353447  26.816  24.497   5.550
 7447POPC   PO453448  26.771  24.467   5.850
 7447POPC   GL153449  26.790  24.522   6.150
 7447POPC   GL253450  26.929  24.437   6.150
 7447POPC   C1A53451  26.859  24.456   6.450
 7447POPC   D2A53452  26.782  24.526   6.750
 7447POPC   C3A53453  26.823  24.484   7.050
 7447POPC   C4A53454  26.772  24.492   7.350
 7447POPC   C1B53455  26.989  24.318   6.450
 7447POPC   C2B53456  27.006  24.301   6.750
 7447POPC   C3B53457  27.035  24.363   7.050
 7447POPC   C4B53458  27.058  24.366   7.350
 7448POPC   NC353459  20.601  33.051   5.550
 7448POPC   PO453460  20.573  33.001   5.850
 7448POPC   GL153461  20.575  33.026   6.150
 7448POPC   GL253462  20.508  33.110   6.150
 7448POPC   C1A53463  20.611  32.986   6.450
 7448POPC   D2A53464  20.638  32.994   6.750
 7448POPC   C3A53465  20.569  33.064   7.050
 7448POPC   C4A53466  20.561  33.033   7.350
 7448POPC   C1B53467  20.371  33.192   6.450
 7448POPC   C2B53468  20.433  33.164   6.750
 7448POPC   C3B53469  20.416  33.124   7.050
 7448POPC   C4B53470  20.439  33.199   7.350
 7449POPC   NC353471   8.945  10.569   5.550
 7449POPC   PO453472   8.990  10.536   5.850
 7449POPC   GL153473   8.930  10.484   6.150
 7449POPC   GL253474   8.995  10.599   6.150
 7449POPC   C1A53475   8.987  10.513   6.450
 7449POPC   D2A53476   9.009  10.490   6.750
 7449POPC   C3A53477   8.976  10.520   7.050
 7449POPC   C4A53478   9.004  10.512   7.350
 7449POPC   C1B53479   8.937  10.749   6.450
 7449POPC   C2B53480   8.979  10.790   6.750
 7449POPC   C3B53481   8.925  10.810   7.050
 7449POPC   C4B53482   8.993  10.769   7.350
 7450POPC   NC353483  40.768  24.474   5.550
 7450POPC   PO453484  40.735  24.494   5.850
 7450POPC   GL153485  40.765  24.525   6.150
 7450POPC   GL253486  40.653  24.460   6.150
 7450POPC   C1A53487  40.739  24.463   6.450
 7450POPC   D2A53488  40.777  24.507   6.750
 7450POPC   C3A53489  40.814  24.466   7.050
 7450POPC   C4A53490  40.745  24.468   7.350
 7450POPC   C1B53491  40.553  24.310   6.450
 7450POPC   C2B53492  40.594  24.350   6.750
 7450POPC   C3B53493  40.607  24.359   7.050
 7450POPC   C4B53494  40.544  24.342   7.350
 7451POPC   NC353495   9.773  43.115   5.550
 7451POPC   PO453496   9.739  43.089   5.850
 7451POPC   GL153497   9.766  43.083   6.150
 7451POPC   GL253498   9.574  43.125   6.150
 7451POPC   C1A53499   9.798  43.097   6.450
 7451POPC   D2A53500   9.759  43.129   6.750
 7451POPC   C3A53501   9.724  43.152   7.050
 7451POPC   C4A53502   9.765  43.124   7.350
 7451POPC   C1B53503   9.512  43.151   6.450
 7451POPC   C2B53504   9.512  43.139   6.750
 7451POPC   C3B53505   9.533  43.170   7.050
 7451POPC   C4B53506   9.484  43.158   7.350
 7452POPC   NC353507  30.691  31.473   5.550
 7452POPC   PO453508  30.738  31.449   5.850
 7452POPC   GL153509  30.660  31.516   6.150
 7452POPC   GL253510  30.607  31.481   6.150
 7452POPC   C1A53511  30.679  31.517   6.450
 7452POPC   D2A53512  30.725  31.506   6.750
 7452POPC   C3A53513  30.660  31.427   7.050
 7452POPC   C4A53514  30.703  31.520   7.350
 7452POPC   C1B53515  30.431  31.585   6.450
 7452POPC   C2B53516  30.491  31.571   6.750
 7452POPC   C3B53517  30.487  31.543   7.050
 7452POPC   C4B53518  30.495  31.584   7.350
 7453POPC   NC353519  17.530  20.644   5.550
 7453POPC   PO453520  17.516  20.581   5.850
 7453POPC   GL153521  17.541  20.599   6.150
 7453POPC   GL253522  17.548  20.490   6.150
 7453POPC   C1A53523  17.524  20.639   6.450
 7453POPC   D2A53524  17.489  20.659   6.750
 7453POPC   C3A53525  17.479  20.573   7.050
 7453POPC   C4A53526  17.488  20.641   7.350
 7453POPC   C1B53527  17.562  20.361   6.450
 7453POPC   C2B53528  17.505  20.393   6.750
 7453POPC   C3B53529  17.531  20.405   7.050
 7453POPC   C4B53530  17.488  20.344   7.350
 7454POPC   NC353531  29.877   1.226   5.550
 7454POPC   PO453532  29.965   1.255   5.850
 7454POPC   GL153533  29.904   1.181   6.150
 7454POPC   GL253534  29.946   1.077   6.150
 7454POPC   C1A53535  29.908   1.225   6.450
 7454POPC   D2A53536  29.909   1.251   6.750
 7454POPC   C3A53537  29.888   1.243   7.050
 7454POPC   C4A53538  29.945   1.199   7.350
 7454POPC   C1B53539  29.932   0.995   6.450
 7454POPC   C2B53540  29.993   0.983   6.750
 7454POPC   C3B53541  30.004   0.937   7.050
 7454POPC   C4B53542  29.967   0.930   7.350
 7455POPC   NC353543  13.675  40.739   5.550
 7455POPC   PO453544  13.622  40.784   5.850
 7455POPC   GL153545  13.665  40.830   6.150
 7455POPC   GL253546  13.490  40.866   6.150
 7455POPC   C1A53547  13.607  40.806   6.450
 7455POPC   D2A53548  13.616  40.806   6.750
 7455POPC   C3A53549  13.607  40.773   7.050
 7455POPC   C4A53550  13.625  40.746   7.350
 7455POPC   C1B53551  13.439  40.903   6.450
 7455POPC   C2B53552  13.372  40.865   6.750
 7455POPC   C3B53553  13.397  40.873   7.050
 7455POPC   C4B53554  13.372  40.850   7.350
 7456POPC   NC353555  19.031  22.962   5.550
 7456POPC   PO453556  19.091  22.901   5.850
 7456POPC   GL153557  19.019  22.910   6.150
 7456POPC   GL253558  19.064  23.043   6.150
 7456POPC   C1A53559  19.035  22.980   6.450
 7456POPC   D2A53560  19.013  22.938   6.750
 7456POPC   C3A53561  19.053  22.932   7.050
 7456POPC   C4A53562  19.078  22.960   7.350
 7456POPC   C1B53563  19.119  23.137   6.450
 7456POPC   C2B53564  19.126  23.141   6.750
 7456POPC   C3B53565  19.065  23.198   7.050
 7456POPC   C4B53566  19.088  23.184   7.350
 7457POPC   NC353567  23.707  10.535   5.550
 7457POPC   PO453568  23.671  10.483   5.850
 7457POPC   GL153569  23.690  10.493   6.150
 7457POPC   GL253570  23.654  10.613   6.150
 7457POPC   C1A53571  23.673  10.489   6.450
 7457POPC   D2A53572  23.684  10.520   6.750
 7457POPC   C3A53573  23.762  10.505   7.050
 7457POPC   C4A53574  23.675  10.516   7.350
 7457POPC   C1B53575  23.541  10.674   6.450
 7457POPC   C2B53576  23.513  10.649   6.750
 7457POPC   C3B53577  23.515  10.646   7.050
 7457POPC   C4B53578  23.536  10.622   7.350
 7458POPC   NC353579  21.376  15.186   5.550
 7458POPC   PO453580  21.387  15.148   5.850
 7458POPC   GL153581  21.379  15.209   6.150
 7458POPC   GL253582  21.386  15.281   6.150
 7458POPC   C1A53583  21.429  15.178   6.450
 7458POPC   D2A53584  21.357  15.206   6.750
 7458POPC   C3A53585  21.336  15.139   7.050
 7458POPC   C4A53586  21.339  15.158   7.350
 7458POPC   C1B53587  21.400  15.387   6.450
 7458POPC   C2B53588  21.403  15.456   6.750
 7458POPC   C3B53589  21.403  15.462   7.050
 7458POPC   C4B53590  21.419  15.442   7.350
 7459POPC   NC353591  19.796  33.785   5.550
 7459POPC   PO453592  19.869  33.759   5.850
 7459POPC   GL153593  19.803  33.807   6.150
 7459POPC   GL253594  19.726  33.781   6.150
 7459POPC   C1A53595  19.836  33.778   6.450
 7459POPC   D2A53596  19.840  33.788   6.750
 7459POPC   C3A53597  19.867  33.795   7.050
 7459POPC   C4A53598  19.841  33.825   7.350
 7459POPC   C1B53599  19.635  33.624   6.450
 7459POPC   C2B53600  19.620  33.680   6.750
 7459POPC   C3B53601  19.604  33.711   7.050
 7459POPC   C4B53602  19.603  33.628   7.350
 7460POPC   NC353603  42.302  31.517   5.550
 7460POPC   PO453604  42.345  31.491   5.850
 7460POPC   GL153605  42.378  31.474   6.150
 7460POPC   GL253606  42.233  31.605   6.150
 7460POPC   C1A53607  42.321  31.445   6.450
 7460POPC   D2A53608  42.349  31.474   6.750
 7460POPC   C3A53609  42.348  31.443   7.050
 7460POPC   C4A53610  42.311  31.434   7.350
 7460POPC   C1B53611  42.220  31.677   6.450
 7460POPC   C2B53612  42.151  31.629   6.750
 7460POPC   C3B53613  42.142  31.681   7.050
 7460POPC   C4B53614  42.161  31.715   7.350
 7461POPC   NC353615   6.620   9.008   5.550
 7461POPC   PO453616   6.660   8.932   5.850
 7461POPC   GL153617   6.610   8.945   6.150
 7461POPC   GL253618   6.595   9.057   6.150
 7461POPC   C1A53619   6.675   9.012   6.450
 7461POPC   D2A53620   6.667   8.962   6.750
 7461POPC   C3A53621   6.636   8.929   7.050
 7461POPC   C4A53622   6.632   8.936   7.350
 7461POPC   C1B53623   6.536   9.226   6.450
 7461POPC   C2B53624   6.525   9.191   6.750
 7461POPC   C3B53625   6.471   9.194   7.050
 7461POPC   C4B53626   6.525   9.160   7.350
 7462POPC   NC353627  18.316   4.274   5.550
 7462POPC   PO453628  18.289   4.294   5.850
 7462POPC   GL153629  18.301   4.286   6.150
 7462POPC   GL253630  18.212   4.247   6.150
 7462POPC   C1A53631  18.248   4.309   6.450
 7462POPC   D2A53632  18.234   4.358   6.750
 7462POPC   C3A53633  18.313   4.285   7.050
 7462POPC   C4A53634  18.266   4.290   7.350
 7462POPC   C1B53635  18.020   4.226   6.450
 7462POPC   C2B53636  18.084   4.161   6.750
 7462POPC   C3B53637  18.039   4.232   7.050
 7462POPC   C4B53638  18.075   4.157   7.350
 7463POPC   NC353639  40.785  11.267   5.550
 7463POPC   PO453640  40.773  11.333   5.850
 7463POPC   GL153641  40.825  11.273   6.150
 7463POPC   GL253642  40.786  11.440   6.150
 7463POPC   C1A53643  40.810  11.344   6.450
 7463POPC   D2A53644  40.761  11.306   6.750
 7463POPC   C3A53645  40.823  11.255   7.050
 7463POPC   C4A53646  40.809  11.327   7.350
 7463POPC   C1B53647  40.824  11.574   6.450
 7463POPC   C2B53648  40.814  11.507   6.750
 7463POPC   C3B53649  40.856  11.583   7.050
 7463POPC   C4B53650  40.861  11.554   7.350
 7464POPC   NC353651   1.959   7.413   5.550
 7464POPC   PO453652   1.968   7.461   5.850
 7464POPC   GL153653   1.943   7.375   6.150
 7464POPC   GL253654   1.968   7.513   6.150
 7464POPC   C1A53655   1.948   7.431   6.450
 7464POPC   D2A53656   1.972   7.437   6.750
 7464POPC   C3A53657   2.022   7.429   7.050
 7464POPC   C4A53658   1.993   7.438   7.350
 7464POPC   C1B53659   1.996   7.638   6.450
 7464POPC   C2B53660   1.997   7.696   6.750
 7464POPC   C3B53661   1.962   7.698   7.050
 7464POPC   C4B53662   1.996   7.632   7.350
 7465POPC   NC353663  36.103   6.685   5.550
 7465POPC   PO453664  36.169   6.617   5.850
 7465POPC   GL153665  36.103   6.626   6.150
 7465POPC   GL253666  36.206   6.583   6.150
 7465POPC   C1A53667  36.098   6.654   6.450
 7465POPC   D2A53668  36.078   6.644   6.750
 7465POPC   C3A53669  36.158   6.597   7.050
 7465POPC   C4A53670  36.174   6.670   7.350
 7465POPC   C1B53671  36.245   6.480   6.450
 7465POPC   C2B53672  36.303   6.387   6.750
 7465POPC   C3B53673  36.228   6.393   7.050
 7465POPC   C4B53674  36.252   6.388   7.350
 7466POPC   NC353675  36.875   5.854   5.550
 7466POPC   PO453676  36.916   5.851   5.850
 7466POPC   GL153677  36.917   5.892   6.150
 7466POPC   GL253678  36.869   5.945   6.150
 7466POPC   C1A53679  36.918   5.912   6.450
 7466POPC   D2A53680  36.914   5.883   6.750
 7466POPC   C3A53681  36.953   5.844   7.050
 7466POPC   C4A53682  36.937   5.828   7.350
 7466POPC   C1B53683  36.811   6.127   6.450
 7466POPC   C2B53684  36.843   6.093   6.750
 7466POPC   C3B53685  36.849   6.062   7.050
 7466POPC   C4B53686  36.838   6.117   7.350
 7467POPC   NC353687  41.585  41.509   5.550
 7467POPC   PO453688  41.555  41.581   5.850
 7467POPC   GL153689  41.593  41.510   6.150
 7467POPC   GL253690  41.706  41.535   6.150
 7467POPC   C1A53691  41.533  41.573   6.450
 7467POPC   D2A53692  41.527  41.557   6.750
 7467POPC   C3A53693  41.572  41.603   7.050
 7467POPC   C4A53694  41.561  41.562   7.350
 7467POPC   C1B53695  41.797  41.560   6.450
 7467POPC   C2B53696  41.836  41.581   6.750
 7467POPC   C3B53697  41.789  41.592   7.050
 7467POPC   C4B53698  41.824  41.598   7.350
 7468POPC   NC353699  36.105  38.495   5.550
 7468POPC   PO453700  36.099  38.451   5.850
 7468POPC   GL153701  36.089  38.450   6.150
 7468POPC   GL253702  36.208  38.568   6.150
 7468POPC   C1A53703  36.153  38.416   6.450
 7468POPC   D2A53704  36.154  38.473   6.750
 7468POPC   C3A53705  36.102  38.439   7.050
 7468POPC   C4A53706  36.112  38.454   7.350
 7468POPC   C1B53707  36.344  38.608   6.450
 7468POPC   C2B53708  36.355  38.602   6.750
 7468POPC   C3B53709  36.358  38.625   7.050
 7468POPC   C4B53710  36.340  38.564   7.350
 7469POPC   NC353711  38.494  40.761   5.550
 7469POPC   PO453712  38.438  40.788   5.850
 7469POPC   GL153713  38.481  40.781   6.150
 7469POPC   GL253714  38.530  40.733   6.150
 7469POPC   C1A53715  38.499  40.772   6.450
 7469POPC   D2A53716  38.495  40.811   6.750
 7469POPC   C3A53717  38.492  40.782   7.050
 7469POPC   C4A53718  38.479  40.793   7.350
 7469POPC   C1B53719  38.697  40.692   6.450
 7469POPC   C2B53720  38.731  40.670   6.750
 7469POPC   C3B53721  38.661  40.655   7.050
 7469POPC   C4B53722  38.648  40.700   7.350
 7470POPC   NC353723  26.774  40.002   5.550
 7470POPC   PO453724  26.839  39.969   5.850
 7470POPC   GL153725  26.777  39.988   6.150
 7470POPC   GL253726  26.726  39.883   6.150
 7470POPC   C1A53727  26.859  40.028   6.450
 7470POPC   D2A53728  26.835  39.992   6.750
 7470POPC   C3A53729  26.850  40.022   7.050
 7470POPC   C4A53730  26.815  40.040   7.350
 7470POPC   C1B53731  26.665  39.772   6.450
 7470POPC   C2B53732  26.621  39.786   6.750
 7470POPC   C3B53733  26.648  39.766   7.050
 7470POPC   C4B53734  26.698  39.778   7.350
 7471POPC   NC353735   6.638  17.483   5.550
 7471POPC   PO453736   6.648  17.491   5.850
 7471POPC   GL153737   6.638  17.494   6.150
 7471POPC   GL253738   6.506  17.487   6.150
 7471POPC   C1A53739   6.690  17.540   6.450
 7471POPC   D2A53740   6.627  17.524   6.750
 7471POPC   C3A53741   6.611  17.531   7.050
 7471POPC   C4A53742   6.641  17.536   7.350
 7471POPC   C1B53743   6.440  17.329   6.450
 7471POPC   C2B53744   6.419  17.402   6.750
 7471POPC   C3B53745   6.393  17.404   7.050
 7471POPC   C4B53746   6.387  17.332   7.350
 7472POPC   NC353747  29.107  11.327   5.550
 7472POPC   PO453748  29.157  11.298   5.850
 7472POPC   GL153749  29.103  11.327   6.150
 7472POPC   GL253750  29.095  11.170   6.150
 7472POPC   C1A53751  29.099  11.320   6.450
 7472POPC   D2A53752  29.147  11.304   6.750
 7472POPC   C3A53753  29.115  11.314   7.050
 7472POPC   C4A53754  29.109  11.330   7.350
 7472POPC   C1B53755  28.946  11.087   6.450
 7472POPC   C2B53756  28.999  11.135   6.750
 7472POPC   C3B53757  29.024  11.135   7.050
 7472POPC   C4B53758  28.949  11.076   7.350
 7473POPC   NC353759  32.236   2.812   5.550
 7473POPC   PO453760  32.257   2.721   5.850
 7473POPC   GL153761  32.231   2.752   6.150
 7473POPC   GL253762  32.077   2.775   6.150
 7473POPC   C1A53763  32.207   2.780   6.450
 7473POPC   D2A53764  32.288   2.722   6.750
 7473POPC   C3A53765  32.288   2.730   7.050
 7473POPC   C4A53766  32.212   2.770   7.350
 7473POPC   C1B53767  32.044   2.818   6.450
 7473POPC   C2B53768  31.980   2.772   6.750
 7473POPC   C3B53769  31.956   2.812   7.050
 7473POPC   C4B53770  31.968   2.846   7.350
 7474POPC   NC353771  28.337  25.239   5.550
 7474POPC   PO453772  28.369  25.293   5.850
 7474POPC   GL153773  28.391  25.228   6.150
 7474POPC   GL253774  28.196  25.250   6.150
 7474POPC   C1A53775  28.334  25.268   6.450
 7474POPC   D2A53776  28.333  25.261   6.750
 7474POPC   C3A53777  28.418  25.307   7.050
 7474POPC   C4A53778  28.326  25.305   7.350
 7474POPC   C1B53779  28.082  25.324   6.450
 7474POPC   C2B53780  28.162  25.333   6.750
 7474POPC   C3B53781  28.120  25.312   7.050
 7474POPC   C4B53782  28.082  25.301   7.350
 7475POPC   NC353783  16.720  33.006   5.550
 7475POPC   PO453784  16.763  32.985   5.850
 7475POPC   GL153785  16.768  33.069   6.150
 7475POPC   GL253786  16.605  33.068   6.150
 7475POPC   C1A53787  16.751  33.038   6.450
 7475POPC   D2A53788  16.763  33.045   6.750
 7475POPC   C3A53789  16.690  33.033   7.050
 7475POPC   C4A53790  16.735  33.030   7.350
 7475POPC   C1B53791  16.439  33.017   6.450
 7475POPC   C2B53792  16.456  33.039   6.750
 7475POPC   C3B53793  16.487  33.043   7.050
 7475POPC   C4B53794  16.489  33.021   7.350
 7476POPC   NC353795  39.264  31.487   5.550
 7476POPC   PO453796  39.185  31.475   5.850
 7476POPC   GL153797  39.279  31.494   6.150
 7476POPC   GL253798  39.328  31.449   6.150
 7476POPC   C1A53799  39.243  31.511   6.450
 7476POPC   D2A53800  39.246  31.476   6.750
 7476POPC   C3A53801  39.219  31.448   7.050
 7476POPC   C4A53802  39.203  31.515   7.350
 7476POPC   C1B53803  39.437  31.539   6.450
 7476POPC   C2B53804  39.459  31.537   6.750
 7476POPC   C3B53805  39.480  31.528   7.050
 7476POPC   C4B53806  39.450  31.535   7.350
 7477POPC   NC353807  29.908  28.349   5.550
 7477POPC   PO453808  29.880  28.337   5.850
 7477POPC   GL153809  29.914  28.349   6.150
 7477POPC   GL253810  29.883  28.240   6.150
 7477POPC   C1A53811  29.921  28.369   6.450
 7477POPC   D2A53812  29.956  28.365   6.750
 7477POPC   C3A53813  29.916  28.357   7.050
 7477POPC   C4A53814  29.954  28.344   7.350
 7477POPC   C1B53815  29.885  28.118   6.450
 7477POPC   C2B53816  29.910  28.151   6.750
 7477POPC   C3B53817  29.911  28.093   7.050
 7477POPC   C4B53818  29.876  28.090   7.350
 7478POPC   NC353819  42.346  39.190   5.550
 7478POPC   PO453820  42.360  39.210   5.850
 7478POPC   GL153821  42.337  39.251   6.150
 7478POPC   GL253822  42.363  39.165   6.150
 7478POPC   C1A53823  42.348  39.207   6.450
 7478POPC   D2A53824  42.320  39.231   6.750
 7478POPC   C3A53825  42.332  39.245   7.050
 7478POPC   C4A53826  42.290  39.255   7.350
 7478POPC   C1B53827  42.426  39.049   6.450
 7478POPC   C2B53828  42.498  39.010   6.750
 7478POPC   C3B53829  42.493  39.059   7.050
 7478POPC   C4B53830  42.425  39.040   7.350
 7479POPC   NC353831  23.697  11.322   5.550
 7479POPC   PO453832  23.695  11.267   5.850
 7479POPC   GL153833  23.719  11.317   6.150
 7479POPC   GL253834  23.570  11.342   6.150
 7479POPC   C1A53835  23.752  11.306   6.450
 7479POPC   D2A53836  23.726  11.345   6.750
 7479POPC   C3A53837  23.698  11.346   7.050
 7479POPC   C4A53838  23.673  11.306   7.350
 7479POPC   C1B53839  23.456  11.252   6.450
 7479POPC   C2B53840  23.443  11.311   6.750
 7479POPC   C3B53841  23.500  11.247   7.050
 7479POPC   C4B53842  23.428  11.317   7.350
 7480POPC   NC353843   8.196  20.586   5.550
 7480POPC   PO453844   8.150  20.571   5.850
 7480POPC   GL153845   8.245  20.570   6.150
 7480POPC   GL253846   8.156  20.768   6.150
 7480POPC   C1A53847   8.211  20.652   6.450
 7480POPC   D2A53848   8.158  20.637   6.750
 7480POPC   C3A53849   8.180  20.578   7.050
 7480POPC   C4A53850   8.179  20.589   7.350
 7480POPC   C1B53851   8.096  20.872   6.450
 7480POPC   C2B53852   8.090  20.875   6.750
 7480POPC   C3B53853   8.117  20.882   7.050
 7480POPC   C4B53854   8.109  20.853   7.350
 7481POPC   NC353855  33.843   5.069   5.550
 7481POPC   PO453856  33.842   5.064   5.850
 7481POPC   GL153857  33.768   5.118   6.150
 7481POPC   GL253858  33.853   4.930   6.150
 7481POPC   C1A53859  33.803   5.048   6.450
 7481POPC   D2A53860  33.799   5.075   6.750
 7481POPC   C3A53861  33.782   5.081   7.050
 7481POPC   C4A53862  33.785   5.063   7.350
 7481POPC   C1B53863  33.875   4.893   6.450
 7481POPC   C2B53864  33.894   4.838   6.750
 7481POPC   C3B53865  33.862   4.820   7.050
 7481POPC   C4B53866  33.835   4.832   7.350
 7482POPC   NC353867  26.062  35.400   5.550
 7482POPC   PO453868  26.036  35.365   5.850
 7482POPC   GL153869  26.003  35.369   6.150
 7482POPC   GL253870  25.930  35.353   6.150
 7482POPC   C1A53871  26.040  35.397   6.450
 7482POPC   D2A53872  26.066  35.381   6.750
 7482POPC   C3A53873  25.992  35.312   7.050
 7482POPC   C4A53874  26.055  35.306   7.350
 7482POPC   C1B53875  25.770  35.279   6.450
 7482POPC   C2B53876  25.836  35.323   6.750
 7482POPC   C3B53877  25.817  35.296   7.050
 7482POPC   C4B53878  25.773  35.330   7.350
 7483POPC   NC353879   8.218  43.842   5.550
 7483POPC   PO453880   8.204  43.908   5.850
 7483POPC   GL153881   8.240  43.870   6.150
 7483POPC   GL253882   8.207  43.790   6.150
 7483POPC   C1A53883   8.171  43.895   6.450
 7483POPC   D2A53884   8.178  43.879   6.750
 7483POPC   C3A53885   8.172  43.885   7.050
 7483POPC   C4A53886   8.197  43.869   7.350
 7483POPC   C1B53887   8.226  43.644   6.450
 7483POPC   C2B53888   8.175  43.623   6.750
 7483POPC   C3B53889   8.168  43.624   7.050
 7483POPC   C4B53890   8.173  43.621   7.350
 7484POPC   NC353891  44.616  35.392   5.550
 7484POPC   PO453892  44.663  35.389   5.850
 7484POPC   GL153893  44.654  35.335   6.150
 7484POPC   GL253894  44.498  35.387   6.150
 7484POPC   C1A53895  44.670  35.334   6.450
 7484POPC   D2A53896  44.659  35.336   6.750
 7484POPC   C3A53897  44.627  35.397   7.050
 7484POPC   C4A53898  44.652  35.372   7.350
 7484POPC   C1B53899  44.436  35.464   6.450
 7484POPC   C2B53900  44.447  35.382   6.750
 7484POPC   C3B53901  44.374  35.433   7.050
 7484POPC   C4B53902  44.399  35.416   7.350
 7485POPC   NC353903   4.321  14.418   5.550
 7485POPC   PO453904   4.273  14.372   5.850
 7485POPC   GL153905   4.340  14.419   6.150
 7485POPC   GL253906   4.349  14.319   6.150
 7485POPC   C1A53907   4.306  14.383   6.450
 7485POPC   D2A53908   4.330  14.370   6.750
 7485POPC   C3A53909   4.321  14.402   7.050
 7485POPC   C4A53910   4.299  14.404   7.350
 7485POPC   C1B53911   4.314  14.191   6.450
 7485POPC   C2B53912   4.316  14.177   6.750
 7485POPC   C3B53913   4.350  14.203   7.050
 7485POPC   C4B53914   4.402  14.174   7.350
 7486POPC   NC353915  28.414  26.806   5.550
 7486POPC   PO453916  28.391  26.814   5.850
 7486POPC   GL153917  28.371  26.863   6.150
 7486POPC   GL253918  28.378  26.730   6.150
 7486POPC   C1A53919  28.392  26.777   6.450
 7486POPC   D2A53920  28.323  26.848   6.750
 7486POPC   C3A53921  28.348  26.784   7.050
 7486POPC   C4A53922  28.364  26.843   7.350
 7486POPC   C1B53923  28.301  26.567   6.450
 7486POPC   C2B53924  28.339  26.607   6.750
 7486POPC   C3B53925  28.268  26.603   7.050
 7486POPC   C4B53926  28.301  26.619   7.350
 7487POPC   NC353927  36.898   9.737   5.550
 7487POPC   PO453928  36.906   9.710   5.850
 7487POPC   GL153929  36.890   9.743   6.150
 7487POPC   GL253930  37.021   9.728   6.150
 7487POPC   C1A53931  36.861   9.711   6.450
 7487POPC   D2A53932  36.909   9.776   6.750
 7487POPC   C3A53933  36.883   9.700   7.050
 7487POPC   C4A53934  36.879   9.732   7.350
 7487POPC   C1B53935  37.176   9.710   6.450
 7487POPC   C2B53936  37.134   9.717   6.750
 7487POPC   C3B53937  37.192   9.788   7.050
 7487POPC   C4B53938  37.198   9.725   7.350
 7488POPC   NC353939  12.809  23.736   5.550
 7488POPC   PO453940  12.879  23.760   5.850
 7488POPC   GL153941  12.898  23.738   6.150
 7488POPC   GL253942  12.775  23.759   6.150
 7488POPC   C1A53943  12.850  23.713   6.450
 7488POPC   D2A53944  12.825  23.707   6.750
 7488POPC   C3A53945  12.811  23.673   7.050
 7488POPC   C4A53946  12.863  23.666   7.350
 7488POPC   C1B53947  12.607  23.678   6.450
 7488POPC   C2B53948  12.593  23.716   6.750
 7488POPC   C3B53949  12.634  23.662   7.050
 7488POPC   C4B53950  12.578  23.752   7.350
 7489POPC   NC353951  12.109  41.572   5.550
 7489POPC   PO453952  12.029  41.521   5.850
 7489POPC   GL153953  12.101  41.588   6.150
 7489POPC   GL253954  12.185  41.624   6.150
 7489POPC   C1A53955  12.103  41.593   6.450
 7489POPC   D2A53956  12.117  41.547   6.750
 7489POPC   C3A53957  12.121  41.544   7.050
 7489POPC   C4A53958  12.086  41.525   7.350
 7489POPC   C1B53959  12.248  41.692   6.450
 7489POPC   C2B53960  12.300  41.762   6.750
 7489POPC   C3B53961  12.278  41.692   7.050
 7489POPC   C4B53962  12.276  41.688   7.350
 7490POPC   NC353963   8.988   5.111   5.550
 7490POPC   PO453964   9.019   5.071   5.850
 7490POPC   GL153965   8.988   5.057   6.150
 7490POPC   GL253966   8.863   5.166   6.150
 7490POPC   C1A53967   9.011   5.047   6.450
 7490POPC   D2A53968   8.991   5.079   6.750
 7490POPC   C3A53969   8.953   5.100   7.050
 7490POPC   C4A53970   8.934   5.112   7.350
 7490POPC   C1B53971   8.738   5.192   6.450
 7490POPC   C2B53972   8.719   5.227   6.750
 7490POPC   C3B53973   8.757   5.196   7.050
 7490POPC   C4B53974   8.737   5.220   7.350
 7491POPC   NC353975  32.281  30.722   5.550
 7491POPC   PO453976  32.267  30.664   5.850
 7491POPC   GL153977  32.246  30.732   6.150
 7491POPC   GL253978  32.338  30.666   6.150
 7491POPC   C1A53979  32.211  30.710   6.450
 7491POPC   D2A53980  32.288  30.733   6.750
 7491POPC   C3A53981  32.257  30.702   7.050
 7491POPC   C4A53982  32.258  30.658   7.350
 7491POPC   C1B53983  32.459  30.624   6.450
 7491POPC   C2B53984  32.490  30.675   6.750
 7491POPC   C3B53985  32.469  30.667   7.050
 7491POPC   C4B53986  32.453  30.683   7.350
 7492POPC   NC353987  27.610  40.048   5.550
 7492POPC   PO453988  27.639  39.988   5.850
 7492POPC   GL153989  27.642  39.986   6.150
 7492POPC   GL253990  27.692  40.078   6.150
 7492POPC   C1A53991  27.602  39.991   6.450
 7492POPC   D2A53992  27.631  40.011   6.750
 7492POPC   C3A53993  27.599  40.006   7.050
 7492POPC   C4A53994  27.576  40.056   7.350
 7492POPC   C1B53995  27.807  40.033   6.450
 7492POPC   C2B53996  27.840  40.097   6.750
 7492POPC   C3B53997  27.826  40.088   7.050
 7492POPC   C4B53998  27.833  40.091   7.350
 7493POPC   NC353999   9.766  44.672   5.550
 7493POPC   PO454000   9.756  44.675   5.850
 7493POPC   GL154001   9.745  44.638   6.150
 7493POPC   GL254002   9.834  44.680   6.150
 7493POPC   C1A54003   9.748  44.619   6.450
 7493POPC   D2A54004   9.752  44.705   6.750
 7493POPC   C3A54005   9.725  44.706   7.050
 7493POPC   C4A54006   9.775  44.650   7.350
 7493POPC   C1B54007   9.969  44.749   6.450
 7493POPC   C2B54008   9.959  44.769   6.750
 7493POPC   C3B54009  10.024  44.676   7.050
 7493POPC   C4B54010  10.019  44.725   7.350
 7494POPC   NC354011  32.244  32.987   5.550
 7494POPC   PO454012  32.291  33.040   5.850
 7494POPC   GL154013  32.224  32.990   6.150
 7494POPC   GL254014  32.134  33.080   6.150
 7494POPC   C1A54015  32.283  33.015   6.450
 7494POPC   D2A54016  32.214  32.982   6.750
 7494POPC   C3A54017  32.227  32.975   7.050
 7494POPC   C4A54018  32.207  32.987   7.350
 7494POPC   C1B54019  32.065  33.237   6.450
 7494POPC   C2B54020  32.132  33.239   6.750
 7494POPC   C3B54021  32.114  33.247   7.050
 7494POPC   C4B54022  32.103  33.204   7.350
 7495POPC   NC354023  29.138   1.240   5.550
 7495POPC   PO454024  29.173   1.190   5.850
 7495POPC   GL154025  29.160   1.193   6.150
 7495POPC   GL254026  29.173   1.326   6.150
 7495POPC   C1A54027  29.159   1.241   6.450
 7495POPC   D2A54028  29.108   1.176   6.750
 7495POPC   C3A54029  29.096   1.226   7.050
 7495POPC   C4A54030  29.177   1.219   7.350
 7495POPC   C1B54031  29.129   1.476   6.450
 7495POPC   C2B54032  29.181   1.416   6.750
 7495POPC   C3B54033  29.129   1.473   7.050
 7495POPC   C4B54034  29.175   1.480   7.350
 7496POPC   NC354035  29.969   5.048   5.550
 7496POPC   PO454036  29.900   5.143   5.850
 7496POPC   GL154037  29.887   5.140   6.150
 7496POPC   GL254038  30.014   5.063   6.150
 7496POPC   C1A54039  29.873   5.055   6.450
 7496POPC   D2A54040  29.917   5.058   6.750
 7496POPC   C3A54041  29.942   5.119   7.050
 7496POPC   C4A54042  29.939   5.124   7.350
 7496POPC   C1B54043  30.157   5.034   6.450
 7496POPC   C2B54044  30.207   5.021   6.750
 7496POPC   C3B54045  30.146   5.045   7.050
 7496POPC   C4B54046  30.203   5.016   7.350
 7497POPC   NC354047   5.864  41.600   5.550
 7497POPC   PO454048   5.824  41.519   5.850
 7497POPC   GL154049   5.856  41.548   6.150
 7497POPC   GL254050   5.951  41.672   6.150
 7497POPC   C1A54051   5.861  41.567   6.450
 7497POPC   D2A54052   5.820  41.552   6.750
 7497POPC   C3A54053   5.867  41.522   7.050
 7497POPC   C4A54054   5.821  41.596   7.350
 7497POPC   C1B54055   6.039  41.709   6.450
 7497POPC   C2B54056   6.066  41.715   6.750
 7497POPC   C3B54057   6.098  41.739   7.050
 7497POPC   C4B54058   6.093  41.758   7.350
 7498POPC   NC354059  14.394  43.844   5.550
 7498POPC   PO454060  14.448  43.923   5.850
 7498POPC   GL154061  14.415  43.883   6.150
 7498POPC   GL254062  14.364  43.927   6.150
 7498POPC   C1A54063  14.433  43.851   6.450
 7498POPC   D2A54064  14.453  43.881   6.750
 7498POPC   C3A54065  14.369  43.852   7.050
 7498POPC   C4A54066  14.452  43.923   7.350
 7498POPC   C1B54067  14.236  44.058   6.450
 7498POPC   C2B54068  14.216  44.057   6.750
 7498POPC   C3B54069  14.197  44.068   7.050
 7498POPC   C4B54070  14.207  44.033   7.350
 7499POPC   NC354071  36.145  23.755   5.550
 7499POPC   PO454072  36.112  23.718   5.850
 7499POPC   GL154073  36.093  23.677   6.150
 7499POPC   GL254074  36.038  23.646   6.150
 7499POPC   C1A54075  36.157  23.672   6.450
 7499POPC   D2A54076  36.168  23.737   6.750
 7499POPC   C3A54077  36.120  23.719   7.050
 7499POPC   C4A54078  36.141  23.752   7.350
 7499POPC   C1B54079  35.881  23.611   6.450
 7499POPC   C2B54080  35.884  23.630   6.750
 7499POPC   C3B54081  35.891  23.583   7.050
 7499POPC   C4B54082  35.908  23.633   7.350
 7500POPC   NC354083  15.207  26.010   5.550
 7500POPC   PO454084  15.190  26.084   5.850
 7500POPC   GL154085  15.225  26.041   6.150
 7500POPC   GL254086  15.087  26.128   6.150
 7500POPC   C1A54087  15.170  26.061   6.450
 7500POPC   D2A54088  15.160  26.086   6.750
 7500POPC   C3A54089  15.182  26.027   7.050
 7500POPC   C4A54090  15.153  26.003   7.350
 7500POPC   C1B54091  14.936  26.197   6.450
 7500POPC   C2B54092  14.957  26.238   6.750
 7500POPC   C3B54093  14.935  26.225   7.050
 7500POPC   C4B54094  14.988  26.200   7.350
 7501POPC   NC354095  38.478  23.664   5.550
 7501POPC   PO454096  38.441  23.665   5.850
 7501POPC   GL154097  38.491  23.733   6.150
 7501POPC   GL254098  38.591  23.683   6.150
 7501POPC   C1A54099  38.463  23.700   6.450
 7501POPC   D2A54100  38.475  23.694   6.750
 7501POPC   C3A54101  38.477  23.675   7.050
 7501POPC   C4A54102  38.492  23.716   7.350
 7501POPC   C1B54103  38.676  23.638   6.450
 7501POPC   C2B54104  38.749  23.719   6.750
 7501POPC   C3B54105  38.750  23.675   7.050
 7501POPC   C4B54106  38.722  23.681   7.350
 7502POPC   NC354107  40.740  35.337   5.550
 7502POPC   PO454108  40.792  35.396   5.850
 7502POPC   GL154109  40.825  35.332   6.150
 7502POPC   GL254110  40.900  35.301   6.150
 7502POPC   C1A54111  40.776  35.376   6.450
 7502POPC   D2A54112  40.779  35.364   6.750
 7502POPC   C3A54113  40.810  35.374   7.050
 7502POPC   C4A54114  40.736  35.354   7.350
 7502POPC   C1B54115  41.051  35.223   6.450
 7502POPC   C2B54116  40.992  35.240   6.750
 7502POPC   C3B54117  41.048  35.297   7.050
 7502POPC   C4B54118  41.053  35.227   7.350
 7503POPC   NC354119  41.530  43.142   5.550
 7503POPC   PO454120  41.606  43.108   5.850
 7503POPC   GL154121  41.527  43.102   6.150
 7503POPC   GL254122  41.657  43.079   6.150
 7503POPC   C1A54123  41.510  43.086   6.450
 7503POPC   D2A54124  41.605  43.120   6.750
 7503POPC   C3A54125  41.563  43.134   7.050
 7503POPC   C4A54126  41.544  43.137   7.350
 7503POPC   C1B54127  41.778  43.021   6.450
 7503POPC   C2B54128  41.762  43.019   6.750
 7503POPC   C3B54129  41.756  42.998   7.050
 7503POPC   C4B54130  41.774  43.002   7.350
 7504POPC   NC354131   2.002  26.817   5.550
 7504POPC   PO454132   1.949  26.839   5.850
 7504POPC   GL154133   1.977  26.796   6.150
 7504POPC   GL254134   2.011  26.743   6.150
 7504POPC   C1A54135   1.947  26.867   6.450
 7504POPC   D2A54136   2.024  26.788   6.750
 7504POPC   C3A54137   2.019  26.799   7.050
 7504POPC   C4A54138   2.026  26.809   7.350
 7504POPC   C1B54139   2.086  26.643   6.450
 7504POPC   C2B54140   2.113  26.641   6.750
 7504POPC   C3B54141   2.088  26.620   7.050
 7504POPC   C4B54142   2.125  26.621   7.350
 7505POPC   NC354143   6.692  22.175   5.550
 7505POPC   PO454144   6.682  22.192   5.850
 7505POPC   GL154145   6.606  22.132   6.150
 7505POPC   GL254146   6.537  22.069   6.150
 7505POPC   C1A54147   6.616  22.202   6.450
 7505POPC   D2A54148   6.628  22.165   6.750
 7505POPC   C3A54149   6.686  22.171   7.050
 7505POPC   C4A54150   6.626  22.113   7.350
 7505POPC   C1B54151   6.510  21.947   6.450
 7505POPC   C2B54152   6.469  21.970   6.750
 7505POPC   C3B54153   6.477  21.964   7.050
 7505POPC   C4B54154   6.471  21.938   7.350
 7506POPC   NC354155  43.901   8.966   5.550
 7506POPC   PO454156  43.905   9.004   5.850
 7506POPC   GL154157  43.922   8.975   6.150
 7506POPC   GL254158  43.989   8.976   6.150
 7506POPC   C1A54159  43.927   9.017   6.450
 7506POPC   D2A54160  43.903   8.990   6.750
 7506POPC   C3A54161  43.935   9.017   7.050
 7506POPC   C4A54162  43.864   8.980   7.350
 7506POPC   C1B54163  44.151   8.970   6.450
 7506POPC   C2B54164  44.173   8.995   6.750
 7506POPC   C3B54165  44.093   8.961   7.050
 7506POPC   C4B54166  44.098   8.987   7.350
 7507POPC   NC354167   3.561  43.904   5.550
 7507POPC   PO454168   3.565  43.928   5.850
 7507POPC   GL154169   3.538  43.921   6.150
 7507POPC   GL254170   3.442  43.785   6.150
 7507POPC   C1A54171   3.554  43.884   6.450
 7507POPC   D2A54172   3.539  43.851   6.750
 7507POPC   C3A54173   3.570  43.899   7.050
 7507POPC   C4A54174   3.514  43.934   7.350
 7507POPC   C1B54175   3.387  43.692   6.450
 7507POPC   C2B54176   3.441  43.661   6.750
 7507POPC   C3B54177   3.385  43.644   7.050
 7507POPC   C4B54178   3.401  43.687   7.350
 7508POPC   NC354179  15.906  35.328   5.550
 7508POPC   PO454180  15.952  35.310   5.850
 7508POPC   GL154181  15.931  35.312   6.150
 7508POPC   GL254182  15.904  35.228   6.150
 7508POPC   C1A54183  15.937  35.317   6.450
 7508POPC   D2A54184  15.969  35.354   6.750
 7508POPC   C3A54185  15.946  35.336   7.050
 7508POPC   C4A54186  15.995  35.304   7.350
 7508POPC   C1B54187  15.858  35.140   6.450
 7508POPC   C2B54188  15.867  35.064   6.750
 7508POPC   C3B54189  15.901  35.112   7.050
 7508POPC   C4B54190  15.922  35.105   7.350
 7509POPC   NC354191  15.193  30.741   5.550
 7509POPC   PO454192  15.143  30.647   5.850
 7509POPC   GL154193  15.221  30.649   6.150
 7509POPC   GL254194  15.077  30.618   6.150
 7509POPC   C1A54195  15.172  30.686   6.450
 7509POPC   D2A54196  15.157  30.662   6.750
 7509POPC   C3A54197  15.188  30.680   7.050
 7509POPC   C4A54198  15.159  30.727   7.350
 7509POPC   C1B54199  14.917  30.625   6.450
 7509POPC   C2B54200  14.975  30.545   6.750
 7509POPC   C3B54201  14.925  30.633   7.050
 7509POPC   C4B54202  14.954  30.543   7.350
 7510POPC   NC354203  15.968  37.663   5.550
 7510POPC   PO454204  15.916  37.630   5.850
 7510POPC   GL154205  15.968  37.664   6.150
 7510POPC   GL254206  15.884  37.736   6.150
 7510POPC   C1A54207  15.977  37.655   6.450
 7510POPC   D2A54208  15.988  37.662   6.750
 7510POPC   C3A54209  15.926  37.699   7.050
 7510POPC   C4A54210  16.001  37.704   7.350
 7510POPC   C1B54211  15.781  37.872   6.450
 7510POPC   C2B54212  15.765  37.891   6.750
 7510POPC   C3B54213  15.800  37.852   7.050
 7510POPC   C4B54214  15.737  37.822   7.350
 7511POPC   NC354215  39.957   9.746   5.550
 7511POPC   PO454216  40.014   9.790   5.850
 7511POPC   GL154217  40.049   9.780   6.150
 7511POPC   GL254218  40.107   9.870   6.150
 7511POPC   C1A54219  40.012   9.712   6.450
 7511POPC   D2A54220  39.967   9.708   6.750
 7511POPC   C3A54221  39.987   9.709   7.050
 7511POPC   C4A54222  39.975   9.746   7.350
 7511POPC   C1B54223  40.147   9.901   6.450
 7511POPC   C2B54224  40.180   9.942   6.750
 7511POPC   C3B54225  40.220   9.894   7.050
 7511POPC   C4B54226  40.186   9.892   7.350
 7512POPC   NC354227   0.394   9.752   5.550
 7512POPC   PO454228   0.428   9.721   5.850
 7512POPC   GL154229   0.474   9.710   6.150
 7512POPC   GL254230   0.406   9.885   6.150
 7512POPC   C1A54231   0.410   9.708   6.450
 7512POPC   D2A54232   0.412   9.740   6.750
 7512POPC   C3A54233   0.468   9.739   7.050
 7512POPC   C4A54234   0.391   9.768   7.350
 7512POPC   C1B54235   0.328   9.952   6.450
 7512POPC   C2B54236   0.417  10.000   6.750
 7512POPC   C3B54237   0.385   9.984   7.050
 7512POPC   C4B54238   0.341   9.979   7.350
 7513POPC   NC354239   8.996   6.596   5.550
 7513POPC   PO454240   8.986   6.597   5.850
 7513POPC   GL154241   8.978   6.643   6.150
 7513POPC   GL254242   8.932   6.713   6.150
 7513POPC   C1A54243   8.937   6.691   6.450
 7513POPC   D2A54244   8.956   6.679   6.750
 7513POPC   C3A54245   8.978   6.649   7.050
 7513POPC   C4A54246   8.961   6.630   7.350
 7513POPC   C1B54247   8.872   6.899   6.450
 7513POPC   C2B54248   8.815   6.834   6.750
 7513POPC   C3B54249   8.904   6.839   7.050
 7513POPC   C4B54250   8.905   6.892   7.350
 7514POPC   NC354251  42.361  10.554   5.550
 7514POPC   PO454252  42.379  10.478   5.850
 7514POPC   GL154253  42.297  10.496   6.150
 7514POPC   GL254254  42.259  10.440   6.150
 7514POPC   C1A54255  42.370  10.480   6.450
 7514POPC   D2A54256  42.355  10.534   6.750
 7514POPC   C3A54257  42.349  10.542   7.050
 7514POPC   C4A54258  42.356  10.516   7.350
 7514POPC   C1B54259  42.207  10.250   6.450
 7514POPC   C2B54260  42.239  10.282   6.750
 7514POPC   C3B54261  42.236  10.319   7.050
 7514POPC   C4B54262  42.266  10.331   7.350
 7515POPC   NC354263   3.573   5.899   5.550
 7515POPC   PO454264   3.563   5.880   5.850
 7515POPC   GL154265   3.575   5.824   6.150
 7515POPC   GL254266   3.569   5.741   6.150
 7515POPC   C1A54267   3.514   5.834   6.450
 7515POPC   D2A54268   3.535   5.826   6.750
 7515POPC   C3A54269   3.526   5.822   7.050
 7515POPC   C4A54270   3.540   5.828   7.350
 7515POPC   C1B54271   3.549   5.586   6.450
 7515POPC   C2B54272   3.522   5.656   6.750
 7515POPC   C3B54273   3.516   5.664   7.050
 7515POPC   C4B54274   3.495   5.647   7.350
 7516POPC   NC354275  33.813  19.790   5.550
 7516POPC   PO454276  33.773  19.787   5.850
 7516POPC   GL154277  33.819  19.856   6.150
 7516POPC   GL254278  33.759  19.706   6.150
 7516POPC   C1A54279  33.849  19.866   6.450
 7516POPC   D2A54280  33.799  19.884   6.750
 7516POPC   C3A54281  33.838  19.838   7.050
 7516POPC   C4A54282  33.816  19.872   7.350
 7516POPC   C1B54283  33.642  19.630   6.450
 7516POPC   C2B54284  33.608  19.644   6.750
 7516POPC   C3B54285  33.599  19.614   7.050
 7516POPC   C4B54286  33.639  19.625   7.350
 7517POPC   NC354287  39.196  26.802   5.550
 7517POPC   PO454288  39.232  26.836   5.850
 7517POPC   GL154289  39.247  26.844   6.150
 7517POPC   GL254290  39.080  26.930   6.150
 7517POPC   C1A54291  39.192  26.856   6.450
 7517POPC   D2A54292  39.195  26.809   6.750
 7517POPC   C3A54293  39.265  26.795   7.050
 7517POPC   C4A54294  39.202  26.796   7.350
 7517POPC   C1B54295  39.051  26.905   6.450
 7517POPC   C2B54296  38.973  26.949   6.750
 7517POPC   C3B54297  38.998  26.916   7.050
 7517POPC   C4B54298  39.048  26.975   7.350
 7518POPC   NC354299  34.624  11.305   5.550
 7518POPC   PO454300  34.601  11.299   5.850
 7518POPC   GL154301  34.619  11.255   6.150
 7518POPC   GL254302  34.519  11.411   6.150
 7518POPC   C1A54303  34.599  11.290   6.450
 7518POPC   D2A54304  34.581  11.309   6.750
 7518POPC   C3A54305  34.542  11.255   7.050
 7518POPC   C4A54306  34.579  11.311   7.350
 7518POPC   C1B54307  34.586  11.599   6.450
 7518POPC   C2B54308  34.515  11.575   6.750
 7518POPC   C3B54309  34.594  11.570   7.050
 7518POPC   C4B54310  34.598  11.507   7.350
 7519POPC   NC354311  10.524  27.613   5.550
 7519POPC   PO454312  10.532  27.598   5.850
 7519POPC   GL154313  10.550  27.600   6.150
 7519POPC   GL254314  10.457  27.683   6.150
 7519POPC   C1A54315  10.516  27.596   6.450
 7519POPC   D2A54316  10.572  27.596   6.750
 7519POPC   C3A54317  10.506  27.563   7.050
 7519POPC   C4A54318  10.565  27.639   7.350
 7519POPC   C1B54319  10.345  27.665   6.450
 7519POPC   C2B54320  10.305  27.666   6.750
 7519POPC   C3B54321  10.302  27.685   7.050
 7519POPC   C4B54322  10.309  27.737   7.350
 7520POPC   NC354323  12.035  29.923   5.550
 7520POPC   PO454324  12.033  29.891   5.850
 7520POPC   GL154325  12.044  29.886   6.150
 7520POPC   GL254326  12.035  30.042   6.150
 7520POPC   C1A54327  12.085  29.887   6.450
 7520POPC   D2A54328  12.034  29.927   6.750
 7520POPC   C3A54329  12.039  29.957   7.050
 7520POPC   C4A54330  12.114  29.937   7.350
 7520POPC   C1B54331  11.999  30.138   6.450
 7520POPC   C2B54332  12.041  30.150   6.750
 7520POPC   C3B54333  11.992  30.124   7.050
 7520POPC   C4B54334  12.003  30.148   7.350
 7521POPC   NC354335  43.106   8.201   5.550
 7521POPC   PO454336  43.121   8.233   5.850
 7521POPC   GL154337  43.074   8.243   6.150
 7521POPC   GL254338  43.088   8.275   6.150
 7521POPC   C1A54339  43.112   8.206   6.450
 7521POPC   D2A54340  43.091   8.178   6.750
 7521POPC   C3A54341  43.122   8.195   7.050
 7521POPC   C4A54342  43.134   8.222   7.350
 7521POPC   C1B54343  43.067   8.456   6.450
 7521POPC   C2B54344  43.112   8.450   6.750
 7521POPC   C3B54345  43.060   8.434   7.050
 7521POPC   C4B54346  43.053   8.468   7.350
 7522POPC   NC354347  35.369  23.738   5.550
 7522POPC   PO454348  35.379  23.683   5.850
 7522POPC   GL154349  35.381  23.665   6.150
 7522POPC   GL254350  35.242  23.695   6.150
 7522POPC   C1A54351  35.318  23.694   6.450
 7522POPC   D2A54352  35.367  23.758   6.750
 7522POPC   C3A54353  35.342  23.725   7.050
 7522POPC   C4A54354  35.302  23.698   7.350
 7522POPC   C1B54355  35.166  23.567   6.450
 7522POPC   C2B54356  35.142  23.608   6.750
 7522POPC   C3B54357  35.141  23.635   7.050
 7522POPC   C4B54358  35.135  23.643   7.350
 7523POPC   NC354359  28.371  15.981   5.550
 7523POPC   PO454360  28.358  15.951   5.850
 7523POPC   GL154361  28.410  15.989   6.150
 7523POPC   GL254362  28.491  15.897   6.150
 7523POPC   C1A54363  28.348  15.910   6.450
 7523POPC   D2A54364  28.416  15.919   6.750
 7523POPC   C3A54365  28.368  15.991   7.050
 7523POPC   C4A54366  28.386  15.925   7.350
 7523POPC   C1B54367  28.575  15.958   6.450
 7523POPC   C2B54368  28.638  15.929   6.750
 7523POPC   C3B54369  28.569  15.955   7.050
 7523POPC   C4B54370  28.589  15.885   7.350
 7524POPC   NC354371  21.434   6.640   5.550
 7524POPC   PO454372  21.348   6.634   5.850
 7524POPC   GL154373  21.401   6.674   6.150
 7524POPC   GL254374  21.300   6.722   6.150
 7524POPC   C1A54375  21.416   6.666   6.450
 7524POPC   D2A54376  21.378   6.610   6.750
 7524POPC   C3A54377  21.398   6.619   7.050
 7524POPC   C4A54378  21.341   6.688   7.350
 7524POPC   C1B54379  21.207   6.739   6.450
 7524POPC   C2B54380  21.210   6.763   6.750
 7524POPC   C3B54381  21.209   6.720   7.050
 7524POPC   C4B54382  21.159   6.732   7.350
 7525POPC   NC354383  25.237  15.206   5.550
 7525POPC   PO454384  25.253  15.153   5.850
 7525POPC   GL154385  25.302  15.169   6.150
 7525POPC   GL254386  25.271  15.090   6.150
 7525POPC   C1A54387  25.274  15.136   6.450
 7525POPC   D2A54388  25.286  15.134   6.750
 7525POPC   C3A54389  25.271  15.151   7.050
 7525POPC   C4A54390  25.256  15.200   7.350
 7525POPC   C1B54391  25.233  14.900   6.450
 7525POPC   C2B54392  25.259  14.893   6.750
 7525POPC   C3B54393  25.169  14.973   7.050
 7525POPC   C4B54394  25.246  14.939   7.350
 7526POPC   NC354395  17.513   1.196   5.550
 7526POPC   PO454396  17.552   1.255   5.850
 7526POPC   GL154397  17.520   1.240   6.150
 7526POPC   GL254398  17.416   1.296   6.150
 7526POPC   C1A54399  17.555   1.173   6.450
 7526POPC   D2A54400  17.499   1.180   6.750
 7526POPC   C3A54401  17.487   1.182   7.050
 7526POPC   C4A54402  17.480   1.224   7.350
 7526POPC   C1B54403  17.314   1.397   6.450
 7526POPC   C2B54404  17.344   1.406   6.750
 7526POPC   C3B54405  17.334   1.400   7.050
 7526POPC   C4B54406  17.372   1.405   7.350
 7527POPC   NC354407  30.685  22.922   5.550
 7527POPC   PO454408  30.679  22.923   5.850
 7527POPC   GL154409  30.683  22.901   6.150
 7527POPC   GL254410  30.604  22.885   6.150
 7527POPC   C1A54411  30.676  22.941   6.450
 7527POPC   D2A54412  30.692  22.911   6.750
 7527POPC   C3A54413  30.690  22.980   7.050
 7527POPC   C4A54414  30.706  22.953   7.350
 7527POPC   C1B54415  30.498  22.776   6.450
 7527POPC   C2B54416  30.473  22.787   6.750
 7527POPC   C3B54417  30.494  22.824   7.050
 7527POPC   C4B54418  30.542  22.800   7.350
 7528POPC   NC354419  22.187   1.246   5.550
 7528POPC   PO454420  22.120   1.171   5.850
 7528POPC   GL154421  22.122   1.233   6.150
 7528POPC   GL254422  22.179   1.368   6.150
 7528POPC   C1A54423  22.157   1.256   6.450
 7528POPC   D2A54424  22.192   1.253   6.750
 7528POPC   C3A54425  22.159   1.167   7.050
 7528POPC   C4A54426  22.175   1.229   7.350
 7528POPC   C1B54427  22.212   1.490   6.450
 7528POPC   C2B54428  22.147   1.505   6.750
 7528POPC   C3B54429  22.210   1.464   7.050
 7528POPC   C4B54430  22.167   1.511   7.350
 7529POPC   NC354431  16.714   1.972   5.550
 7529POPC   PO454432  16.777   2.003   5.850
 7529POPC   GL154433  16.772   1.999   6.150
 7529POPC   GL254434  16.826   1.867   6.150
 7529POPC   C1A54435  16.745   2.008   6.450
 7529POPC   D2A54436  16.770   2.013   6.750
 7529POPC   C3A54437  16.748   2.037   7.050
 7529POPC   C4A54438  16.741   1.954   7.350
 7529POPC   C1B54439  16.849   1.816   6.450
 7529POPC   C2B54440  16.843   1.749   6.750
 7529POPC   C3B54441  16.899   1.830   7.050
 7529POPC   C4B54442  16.896   1.796   7.350
 7530POPC   NC354443  17.514  30.663   5.550
 7530POPC   PO454444  17.553  30.685   5.850
 7530POPC   GL154445  17.514  30.719   6.150
 7530POPC   GL254446  17.610  30.653   6.150
 7530POPC   C1A54447  17.537  30.717   6.450
 7530POPC   D2A54448  17.461  30.709   6.750
 7530POPC   C3A54449  17.466  30.733   7.050
 7530POPC   C4A54450  17.529  30.736   7.350
 7530POPC   C1B54451  17.658  30.568   6.450
 7530POPC   C2B54452  17.699  30.536   6.750
 7530POPC   C3B54453  17.735  30.579   7.050
 7530POPC   C4B54454  17.731  30.587   7.350
 7531POPC   NC354455   2.791  44.614   5.550
 7531POPC   PO454456   2.761  44.647   5.850
 7531POPC   GL154457   2.741  44.664   6.150
 7531POPC   GL254458   2.773  44.740   6.150
 7531POPC   C1A54459   2.813  44.624   6.450
 7531POPC   D2A54460   2.813  44.671   6.750
 7531POPC   C3A54461   2.716  44.617   7.050
 7531POPC   C4A54462   2.781  44.705   7.350
 7531POPC   C1B54463   2.718  44.914   6.450
 7531POPC   C2B54464   2.767  44.864   6.750
 7531POPC   C3B54465   2.799  44.875   7.050
 7531POPC   C4B54466   2.750  44.896   7.350
 7532POPC   NC354467   6.620   6.618   5.550
 7532POPC   PO454468   6.651   6.683   5.850
 7532POPC   GL154469   6.676   6.629   6.150
 7532POPC   GL254470   6.736   6.521   6.150
 7532POPC   C1A54471   6.603   6.648   6.450
 7532POPC   D2A54472   6.678   6.614   6.750
 7532POPC   C3A54473   6.615   6.675   7.050
 7532POPC   C4A54474   6.659   6.632   7.350
 7532POPC   C1B54475   6.854   6.510   6.450
 7532POPC   C2B54476   6.861   6.455   6.750
 7532POPC   C3B54477   6.790   6.422   7.050
 7532POPC   C4B54478   6.803   6.474   7.350
 7533POPC   NC354479  33.023  29.152   5.550
 7533POPC   PO454480  33.070  29.133   5.850
 7533POPC   GL154481  33.008  29.130   6.150
 7533POPC   GL254482  33.125  29.061   6.150
 7533POPC   C1A54483  33.064  29.120   6.450
 7533POPC   D2A54484  33.066  29.116   6.750
 7533POPC   C3A54485  33.072  29.159   7.050
 7533POPC   C4A54486  33.033  29.113   7.350
 7533POPC   C1B54487  33.190  29.004   6.450
 7533POPC   C2B54488  33.178  28.969   6.750
 7533POPC   C3B54489  33.236  29.002   7.050
 7533POPC   C4B54490  33.191  29.017   7.350
 7534POPC   NC354491  10.518  29.154   5.550
 7534POPC   PO454492  10.478  29.176   5.850
 7534POPC   GL154493  10.565  29.131   6.150
 7534POPC   GL254494  10.470  29.289   6.150
 7534POPC   C1A54495  10.486  29.112   6.450
 7534POPC   D2A54496  10.526  29.190   6.750
 7534POPC   C3A54497  10.524  29.124   7.050
 7534POPC   C4A54498  10.497  29.188   7.350
 7534POPC   C1B54499  10.319  29.304   6.450
 7534POPC   C2B54500  10.367  29.299   6.750
 7534POPC   C3B54501  10.376  29.329   7.050
 7534POPC   C4B54502  10.407  29.365   7.350
 7535POPC   NC354503  20.575  17.519   5.550
 7535POPC   PO454504  20.640  17.546   5.850
 7535POPC   GL154505  20.576  17.522   6.150
 7535POPC   GL254506  20.641  17.406   6.150
 7535POPC   C1A54507  20.651  17.484   6.450
 7535POPC   D2A54508  20.640  17.471   6.750
 7535POPC   C3A54509  20.638  17.495   7.050
 7535POPC   C4A54510  20.607  17.473   7.350
 7535POPC   C1B54511  20.534  17.249   6.450
 7535POPC   C2B54512  20.576  17.272   6.750
 7535POPC   C3B54513  20.585  17.244   7.050
 7535POPC   C4B54514  20.585  17.215   7.350
 7536POPC   NC354515  17.538  37.667   5.550
 7536POPC   PO454516  17.509  37.681   5.850
 7536POPC   GL154517  17.458  37.727   6.150
 7536POPC   GL254518  17.419  37.683   6.150
 7536POPC   C1A54519  17.484  37.673   6.450
 7536POPC   D2A54520  17.466  37.704   6.750
 7536POPC   C3A54521  17.482  37.669   7.050
 7536POPC   C4A54522  17.487  37.683   7.350
 7536POPC   C1B54523  17.240  37.648   6.450
 7536POPC   C2B54524  17.249  37.610   6.750
 7536POPC   C3B54525  17.284  37.598   7.050
 7536POPC   C4B54526  17.272  37.562   7.350
 7537POPC   NC354527   3.532  17.509   5.550
 7537POPC   PO454528   3.509  17.471   5.850
 7537POPC   GL154529   3.580  17.531   6.150
 7537POPC   GL254530   3.684  17.528   6.150
 7537POPC   C1A54531   3.572  17.480   6.450
 7537POPC   D2A54532   3.562  17.481   6.750
 7537POPC   C3A54533   3.499  17.554   7.050
 7537POPC   C4A54534   3.552  17.473   7.350
 7537POPC   C1B54535   3.755  17.542   6.450
 7537POPC   C2B54536   3.811  17.556   6.750
 7537POPC   C3B54537   3.778  17.565   7.050
 7537POPC   C4B54538   3.800  17.530   7.350
 7538POPC   NC354539  18.260  24.523   5.550
 7538POPC   PO454540  18.314  24.446   5.850
 7538POPC   GL154541  18.292  24.497   6.150
 7538POPC   GL254542  18.122  24.452   6.150
 7538POPC   C1A54543  18.254  24.470   6.450
 7538POPC   D2A54544  18.268  24.505   6.750
 7538POPC   C3A54545  18.272  24.537   7.050
 7538POPC   C4A54546  18.250  24.502   7.350
 7538POPC   C1B54547  18.042  24.541   6.450
 7538POPC   C2B54548  18.046  24.518   6.750
 7538POPC   C3B54549  18.069  24.545   7.050
 7538POPC   C4B54550  18.039  24.539   7.350
 7539POPC   NC354551  43.140  33.754   5.550
 7539POPC   PO454552  43.138  33.761   5.850
 7539POPC   GL154553  43.128  33.760   6.150
 7539POPC   GL254554  43.195  33.732   6.150
 7539POPC   C1A54555  43.133  33.838   6.450
 7539POPC   D2A54556  43.100  33.762   6.750
 7539POPC   C3A54557  43.117  33.850   7.050
 7539POPC   C4A54558  43.065  33.752   7.350
 7539POPC   C1B54559  43.296  33.644   6.450
 7539POPC   C2B54560  43.296  33.696   6.750
 7539POPC   C3B54561  43.276  33.686   7.050
 7539POPC   C4B54562  43.275  33.622   7.350
 7540POPC   NC354563   2.769  12.032   5.550
 7540POPC   PO454564   2.735  12.115   5.850
 7540POPC   GL154565   2.733  12.045   6.150
 7540POPC   GL254566   2.635  12.101   6.150
 7540POPC   C1A54567   2.806  12.079   6.450
 7540POPC   D2A54568   2.740  12.125   6.750
 7540POPC   C3A54569   2.751  12.085   7.050
 7540POPC   C4A54570   2.775  12.117   7.350
 7540POPC   C1B54571   2.565  11.997   6.450
 7540POPC   C2B54572   2.540  12.004   6.750
 7540POPC   C3B54573   2.527  12.047   7.050
 7540POPC   C4B54574   2.481  12.070   7.350
 7541POPC   NC354575  30.681  32.202   5.550
 7541POPC   PO454576  30.742  32.213   5.850
 7541POPC   GL154577  30.647  32.202   6.150
 7541POPC   GL254578  30.679  32.373   6.150
 7541POPC   C1A54579  30.729  32.235   6.450
 7541POPC   D2A54580  30.662  32.232   6.750
 7541POPC   C3A54581  30.718  32.260   7.050
 7541POPC   C4A54582  30.724  32.240   7.350
 7541POPC   C1B54583  30.577  32.474   6.450
 7541POPC   C2B54584  30.534  32.467   6.750
 7541POPC   C3B54585  30.609  32.481   7.050
 7541POPC   C4B54586  30.543  32.484   7.350
 7542POPC   NC354587  43.894  36.131   5.550
 7542POPC   PO454588  43.877  36.114   5.850
 7542POPC   GL154589  43.886  36.136   6.150
 7542POPC   GL254590  43.911  36.260   6.150
 7542POPC   C1A54591  43.885  36.092   6.450
 7542POPC   D2A54592  43.879  36.117   6.750
 7542POPC   C3A54593  43.870  36.112   7.050
 7542POPC   C4A54594  43.901  36.151   7.350
 7542POPC   C1B54595  43.934  36.388   6.450
 7542POPC   C2B54596  44.003  36.356   6.750
 7542POPC   C3B54597  43.947  36.401   7.050
 7542POPC   C4B54598  43.983  36.407   7.350
 7543POPC   NC354599   0.396  34.540   5.550
 7543POPC   PO454600   0.463  34.595   5.850
 7543POPC   GL154601   0.472  34.560   6.150
 7543POPC   GL254602   0.429  34.422   6.150
 7543POPC   C1A54603   0.444  34.608   6.450
 7543POPC   D2A54604   0.425  34.526   6.750
 7543POPC   C3A54605   0.430  34.622   7.050
 7543POPC   C4A54606   0.392  34.573   7.350
 7543POPC   C1B54607   0.479  34.341   6.450
 7543POPC   C2B54608   0.480  34.307   6.750
 7543POPC   C3B54609   0.409  34.297   7.050
 7543POPC   C4B54610   0.412  34.302   7.350
 7544POPC   NC354611   8.939  34.608   5.550
 7544POPC   PO454612   8.989  34.541   5.850
 7544POPC   GL154613   8.943  34.581   6.150
 7544POPC   GL254614   9.020  34.696   6.150
 7544POPC   C1A54615   8.990  34.553   6.450
 7544POPC   D2A54616   8.952  34.598   6.750
 7544POPC   C3A54617   9.008  34.563   7.050
 7544POPC   C4A54618   9.017  34.562   7.350
 7544POPC   C1B54619   9.077  34.862   6.450
 7544POPC   C2B54620   9.071  34.792   6.750
 7544POPC   C3B54621   9.054  34.865   7.050
 7544POPC   C4B54622   9.008  34.860   7.350
 7545POPC   NC354623  24.468  32.219   5.550
 7545POPC   PO454624  24.525  32.201   5.850
 7545POPC   GL154625  24.512  32.253   6.150
 7545POPC   GL254626  24.322  32.304   6.150
 7545POPC   C1A54627  24.475  32.224   6.450
 7545POPC   D2A54628  24.496  32.209   6.750
 7545POPC   C3A54629  24.514  32.218   7.050
 7545POPC   C4A54630  24.459  32.203   7.350
 7545POPC   C1B54631  24.265  32.321   6.450
 7545POPC   C2B54632  24.267  32.252   6.750
 7545POPC   C3B54633  24.264  32.262   7.050
 7545POPC   C4B54634  24.265  32.238   7.350
 7546POPC   NC354635  17.502  39.255   5.550
 7546POPC   PO454636  17.517  39.237   5.850
 7546POPC   GL154637  17.486  39.261   6.150
 7546POPC   GL254638  17.513  39.319   6.150
 7546POPC   C1A54639  17.517  39.280   6.450
 7546POPC   D2A54640  17.552  39.214   6.750
 7546POPC   C3A54641  17.508  39.258   7.050
 7546POPC   C4A54642  17.522  39.273   7.350
 7546POPC   C1B54643  17.414  39.446   6.450
 7546POPC   C2B54644  17.454  39.510   6.750
 7546POPC   C3B54645  17.412  39.459   7.050
 7546POPC   C4B54646  17.471  39.512   7.350
 7547POPC   NC354647  17.458  29.109   5.550
 7547POPC   PO454648  17.512  29.164   5.850
 7547POPC   GL154649  17.484  29.132   6.150
 7547POPC   GL254650  17.584  29.025   6.150
 7547POPC   C1A54651  17.511  29.180   6.450
 7547POPC   D2A54652  17.484  29.123   6.750
 7547POPC   C3A54653  17.497  29.175   7.050
 7547POPC   C4A54654  17.492  29.180   7.350
 7547POPC   C1B54655  17.631  28.941   6.450
 7547POPC   C2B54656  17.563  28.953   6.750
 7547POPC   C3B54657  17.600  28.916   7.050
 7547POPC   C4B54658  17.626  28.944   7.350
 7548POPC   NC354659  32.204  26.058   5.550
 7548POPC   PO454660  32.236  26.021   5.850
 7548POPC   GL154661  32.287  26.004   6.150
 7548POPC   GL254662  32.163  26.087   6.150
 7548POPC   C1A54663  32.254  25.997   6.450
 7548POPC   D2A54664  32.201  26.075   6.750
 7548POPC   C3A54665  32.281  26.079   7.050
 7548POPC   C4A54666  32.294  26.037   7.350
 7548POPC   C1B54667  32.006  26.201   6.450
 7548POPC   C2B54668  32.019  26.166   6.750
 7548POPC   C3B54669  32.082  26.227   7.050
 7548POPC   C4B54670  31.999  26.196   7.350
 7549POPC   NC354671  12.866   5.100   5.550
 7549POPC   PO454672  12.826   5.138   5.850
 7549POPC   GL154673  12.881   5.092   6.150
 7549POPC   GL254674  12.936   5.115   6.150
 7549POPC   C1A54675  12.888   5.093   6.450
 7549POPC   D2A54676  12.881   5.123   6.750
 7549POPC   C3A54677  12.826   5.086   7.050
 7549POPC   C4A54678  12.855   5.121   7.350
 7549POPC   C1B54679  13.100   5.222   6.450
 7549POPC   C2B54680  13.047   5.203   6.750
 7549POPC   C3B54681  13.087   5.213   7.050
 7549POPC   C4B54682  13.074   5.224   7.350
 7550POPC   NC354683  22.904  22.923   5.550
 7550POPC   PO454684  22.929  22.969   5.850
 7550POPC   GL154685  22.903  22.977   6.150
 7550POPC   GL254686  22.907  23.110   6.150
 7550POPC   C1A54687  22.951  22.904   6.450
 7550POPC   D2A54688  22.906  22.978   6.750
 7550POPC   C3A54689  22.929  22.942   7.050
 7550POPC   C4A54690  22.968  22.912   7.350
 7550POPC   C1B54691  22.922  23.142   6.450
 7550POPC   C2B54692  22.933  23.164   6.750
 7550POPC   C3B54693  22.940  23.221   7.050
 7550POPC   C4B54694  22.945  23.188   7.350
 7551POPC   NC354695   2.764  32.976   5.550
 7551POPC   PO454696   2.720  33.023   5.850
 7551POPC   GL154697   2.771  33.003   6.150
 7551POPC   GL254698   2.697  32.970   6.150
 7551POPC   C1A54699   2.728  33.050   6.450
 7551POPC   D2A54700   2.736  32.987   6.750
 7551POPC   C3A54701   2.730  33.021   7.050
 7551POPC   C4A54702   2.754  32.999   7.350
 7551POPC   C1B54703   2.561  32.937   6.450
 7551POPC   C2B54704   2.494  32.905   6.750
 7551POPC   C3B54705   2.578  32.896   7.050
 7551POPC   C4B54706   2.551  32.892   7.350
 7552POPC   NC354707  15.973  27.568   5.550
 7552POPC   PO454708  15.995  27.559   5.850
 7552POPC   GL154709  15.917  27.564   6.150
 7552POPC   GL254710  16.045  27.527   6.150
 7552POPC   C1A54711  15.950  27.555   6.450
 7552POPC   D2A54712  15.976  27.640   6.750
 7552POPC   C3A54713  15.970  27.549   7.050
 7552POPC   C4A54714  15.961  27.585   7.350
 7552POPC   C1B54715  16.088  27.334   6.450
 7552POPC   C2B54716  16.045  27.425   6.750
 7552POPC   C3B54717  16.080  27.366   7.050
 7552POPC   C4B54718  16.065  27.406   7.350
 7553POPC   NC354719  19.844  15.973   5.550
 7553POPC   PO454720  19.882  15.941   5.850
 7553POPC   GL154721  19.874  15.953   6.150
 7553POPC   GL254722  19.709  15.946   6.150
 7553POPC   C1A54723  19.791  15.924   6.450
 7553POPC   D2A54724  19.802  15.946   6.750
 7553POPC   C3A54725  19.814  15.926   7.050
 7553POPC   C4A54726  19.882  15.999   7.350
 7553POPC   C1B54727  19.635  15.946   6.450
 7553POPC   C2B54728  19.640  15.867   6.750
 7553POPC   C3B54729  19.639  15.850   7.050
 7553POPC   C4B54730  19.553  15.887   7.350
 7554POPC   NC354731  18.264  17.532   5.550
 7554POPC   PO454732  18.322  17.556   5.850
 7554POPC   GL154733  18.329  17.536   6.150
 7554POPC   GL254734  18.365  17.486   6.150
 7554POPC   C1A54735  18.239  17.535   6.450
 7554POPC   D2A54736  18.290  17.526   6.750
 7554POPC   C3A54737  18.328  17.502   7.050
 7554POPC   C4A54738  18.326  17.557   7.350
 7554POPC   C1B54739  18.513  17.478   6.450
 7554POPC   C2B54740  18.537  17.426   6.750
 7554POPC   C3B54741  18.527  17.416   7.050
 7554POPC   C4B54742  18.478  17.458   7.350
 7555POPC   NC354743   6.646  28.320   5.550
 7555POPC   PO454744   6.654  28.360   5.850
 7555POPC   GL154745   6.618  28.387   6.150
 7555POPC   GL254746   6.759  28.308   6.150
 7555POPC   C1A54747   6.642  28.341   6.450
 7555POPC   D2A54748   6.631  28.400   6.750
 7555POPC   C3A54749   6.647  28.356   7.050
 7555POPC   C4A54750   6.634  28.319   7.350
 7555POPC   C1B54751   6.922  28.230   6.450
 7555POPC   C2B54752   6.840  28.255   6.750
 7555POPC   C3B54753   6.832  28.271   7.050
 7555POPC   C4B54754   6.924  28.250   7.350
 7556POPC   NC354755   8.999   8.196   5.550
 7556POPC   PO454756   8.926   8.160   5.850
 7556POPC   GL154757   8.926   8.223   6.150
 7556POPC   GL254758   8.952   8.336   6.150
 7556POPC   C1A54759   8.971   8.176   6.450
 7556POPC   D2A54760   9.018   8.154   6.750
 7556POPC   C3A54761   8.974   8.147   7.050
 7556POPC   C4A54762   8.982   8.232   7.350
 7556POPC   C1B54763   8.937   8.479   6.450
 7556POPC   C2B54764   8.938   8.411   6.750
 7556POPC   C3B54765   8.925   8.417   7.050
 7556POPC   C4B54766   8.938   8.432   7.350
 7557POPC   NC354767  40.796  20.595   5.550
 7557POPC   PO454768  40.826  20.615   5.850
 7557POPC   GL154769  40.750  20.627   6.150
 7557POPC   GL254770  40.692  20.568   6.150
 7557POPC   C1A54771  40.786  20.606   6.450
 7557POPC   D2A54772  40.775  20.631   6.750
 7557POPC   C3A54773  40.746  20.590   7.050
 7557POPC   C4A54774  40.742  20.587   7.350
 7557POPC   C1B54775  40.519  20.559   6.450
 7557POPC   C2B54776  40.581  20.553   6.750
 7557POPC   C3B54777  40.538  20.517   7.050
 7557POPC   C4B54778  40.509  20.514   7.350
 7558POPC   NC354779   6.640  25.315   5.550
 7558POPC   PO454780   6.635  25.242   5.850
 7558POPC   GL154781   6.668  25.272   6.150
 7558POPC   GL254782   6.505  25.350   6.150
 7558POPC   C1A54783   6.634  25.297   6.450
 7558POPC   D2A54784   6.602  25.218   6.750
 7558POPC   C3A54785   6.617  25.254   7.050
 7558POPC   C4A54786   6.640  25.241   7.350
 7558POPC   C1B54787   6.474  25.439   6.450
 7558POPC   C2B54788   6.466  25.404   6.750
 7558POPC   C3B54789   6.438  25.393   7.050
 7558POPC   C4B54790   6.423  25.417   7.350
 7559POPC   NC354791   6.597  19.047   5.550
 7559POPC   PO454792   6.640  19.093   5.850
 7559POPC   GL154793   6.631  19.041   6.150
 7559POPC   GL254794   6.581  19.204   6.150
 7559POPC   C1A54795   6.694  19.022   6.450
 7559POPC   D2A54796   6.620  19.019   6.750
 7559POPC   C3A54797   6.603  19.086   7.050
 7559POPC   C4A54798   6.681  19.009   7.350
 7559POPC   C1B54799   6.619  19.296   6.450
 7559POPC   C2B54800   6.582  19.281   6.750
 7559POPC   C3B54801   6.567  19.331   7.050
 7559POPC   C4B54802   6.576  19.356   7.350
 7560POPC   NC354803  19.796  16.737   5.550
 7560POPC   PO454804  19.827  16.767   5.850
 7560POPC   GL154805  19.830  16.714   6.150
 7560POPC   GL254806  19.909  16.686   6.150
 7560POPC   C1A54807  19.785  16.721   6.450
 7560POPC   D2A54808  19.786  16.744   6.750
 7560POPC   C3A54809  19.848  16.684   7.050
 7560POPC   C4A54810  19.837  16.722   7.350
 7560POPC   C1B54811  20.058  16.718   6.450
 7560POPC   C2B54812  20.034  16.719   6.750
 7560POPC   C3B54813  20.069  16.655   7.050
 7560POPC   C4B54814  20.129  16.714   7.350
 7561POPC   NC354815  37.691  26.027   5.550
 7561POPC   PO454816  37.689  26.071   5.850
 7561POPC   GL154817  37.651  26.059   6.150
 7561POPC   GL254818  37.691  25.874   6.150
 7561POPC   C1A54819  37.633  25.999   6.450
 7561POPC   D2A54820  37.663  26.066   6.750
 7561POPC   C3A54821  37.710  25.992   7.050
 7561POPC   C4A54822  37.650  26.062   7.350
 7561POPC   C1B54823  37.651  25.835   6.450
 7561POPC   C2B54824  37.624  25.781   6.750
 7561POPC   C3B54825  37.568  25.846   7.050
 7561POPC   C4B54826  37.590  25.799   7.350
 7562POPC   NC354827  44.706  22.128   5.550
 7562POPC   PO454828  44.705  22.148   5.850
 7562POPC   GL154829  44.708  22.201   6.150
 7562POPC   GL254830  44.737  22.153   6.150
 7562POPC   C1A54831  44.649  22.179   6.450
 7562POPC   D2A54832  44.671  22.175   6.750
 7562POPC   C3A54833  44.669  22.208   7.050
 7562POPC   C4A54834  44.663  22.152   7.350
 7562POPC   C1B54835  44.883  22.101   6.450
 7562POPC   C2B54836  44.855  22.049   6.750
 7562POPC   C3B54837  44.883  22.051   7.050
 7562POPC   C4B54838  44.857  22.085   7.350
 7563POPC   NC354839   5.077  27.615   5.550
 7563POPC   PO454840   5.116  27.633   5.850
 7563POPC   GL154841   5.083  27.570   6.150
 7563POPC   GL254842   5.107  27.742   6.150
 7563POPC   C1A54843   5.058  27.595   6.450
 7563POPC   D2A54844   5.115  27.613   6.750
 7563POPC   C3A54845   5.114  27.631   7.050
 7563POPC   C4A54846   5.068  27.573   7.350
 7563POPC   C1B54847   5.180  27.876   6.450
 7563POPC   C2B54848   5.157  27.786   6.750
 7563POPC   C3B54849   5.149  27.804   7.050
 7563POPC   C4B54850   5.219  27.835   7.350
 7564POPC   NC354851  27.614  32.986   5.550
 7564POPC   PO454852  27.641  32.980   5.850
 7564POPC   GL154853  27.563  32.989   6.150
 7564POPC   GL254854  27.750  32.993   6.150
 7564POPC   C1A54855  27.597  33.024   6.450
 7564POPC   D2A54856  27.639  33.050   6.750
 7564POPC   C3A54857  27.592  33.059   7.050
 7564POPC   C4A54858  27.573  33.019   7.350
 7564POPC   C1B54859  27.824  32.937   6.450
 7564POPC   C2B54860  27.814  32.990   6.750
 7564POPC   C3B54861  27.789  32.950   7.050
 7564POPC   C4B54862  27.880  32.936   7.350
 7565POPC   NC354863   5.895  25.236   5.550
 7565POPC   PO454864   5.830  25.228   5.850
 7565POPC   GL154865   5.860  25.256   6.150
 7565POPC   GL254866   6.027  25.279   6.150
 7565POPC   C1A54867   5.887  25.258   6.450
 7565POPC   D2A54868   5.840  25.239   6.750
 7565POPC   C3A54869   5.820  25.301   7.050
 7565POPC   C4A54870   5.891  25.240   7.350
 7565POPC   C1B54871   6.091  25.314   6.450
 7565POPC   C2B54872   6.132  25.309   6.750
 7565POPC   C3B54873   6.111  25.318   7.050
 7565POPC   C4B54874   6.072  25.347   7.350
 7566POPC   NC354875   2.001   4.366   5.550
 7566POPC   PO454876   2.038   4.325   5.850
 7566POPC   GL154877   1.963   4.334   6.150
 7566POPC   GL254878   2.036   4.386   6.150
 7566POPC   C1A54879   1.996   4.272   6.450
 7566POPC   D2A54880   1.950   4.363   6.750
 7566POPC   C3A54881   2.003   4.287   7.050
 7566POPC   C4A54882   1.983   4.337   7.350
 7566POPC   C1B54883   2.198   4.472   6.450
 7566POPC   C2B54884   2.106   4.507   6.750
 7566POPC   C3B54885   2.172   4.527   7.050
 7566POPC   C4B54886   2.170   4.524   7.350
 7567POPC   NC354887   2.725  26.043   5.550
 7567POPC   PO454888   2.812  26.071   5.850
 7567POPC   GL154889   2.805  26.046   6.150
 7567POPC   GL254890   2.667  26.199   6.150
 7567POPC   C1A54891   2.724  26.018   6.450
 7567POPC   D2A54892   2.740  26.048   6.750
 7567POPC   C3A54893   2.756  26.006   7.050
 7567POPC   C4A54894   2.759  26.058   7.350
 7567POPC   C1B54895   2.630  26.208   6.450
 7567POPC   C2B54896   2.630  26.305   6.750
 7567POPC   C3B54897   2.604  26.273   7.050
 7567POPC   C4B54898   2.661  26.237   7.350
 7568POPC   NC354899  35.349  26.021   5.550
 7568POPC   PO454900  35.312  26.049   5.850
 7568POPC   GL154901  35.362  26.000   6.150
 7568POPC   GL254902  35.233  26.046   6.150
 7568POPC   C1A54903  35.367  26.075   6.450
 7568POPC   D2A54904  35.386  26.040   6.750
 7568POPC   C3A54905  35.314  26.012   7.050
 7568POPC   C4A54906  35.340  26.025   7.350
 7568POPC   C1B54907  35.072  26.033   6.450
 7568POPC   C2B54908  35.115  26.023   6.750
 7568POPC   C3B54909  35.064  25.953   7.050
 7568POPC   C4B54910  35.094  26.038   7.350
 7569POPC   NC354911  22.917   4.338   5.550
 7569POPC   PO454912  22.911   4.334   5.850
 7569POPC   GL154913  22.964   4.363   6.150
 7569POPC   GL254914  23.013   4.401   6.150
 7569POPC   C1A54915  22.938   4.337   6.450
 7569POPC   D2A54916  22.921   4.288   6.750
 7569POPC   C3A54917  22.915   4.300   7.050
 7569POPC   C4A54918  22.985   4.316   7.350
 7569POPC   C1B54919  23.101   4.442   6.450
 7569POPC   C2B54920  23.162   4.493   6.750
 7569POPC   C3B54921  23.143   4.428   7.050
 7569POPC   C4B54922  23.149   4.511   7.350
 7570POPC   NC354923  15.135   1.244   5.550
 7570POPC   PO454924  15.154   1.185   5.850
 7570POPC   GL154925  15.141   1.234   6.150
 7570POPC   GL254926  15.199   1.288   6.150
 7570POPC   C1A54927  15.139   1.187   6.450
 7570POPC   D2A54928  15.167   1.176   6.750
 7570POPC   C3A54929  15.173   1.225   7.050
 7570POPC   C4A54930  15.196   1.245   7.350
 7570POPC   C1B54931  15.257   1.406   6.450
 7570POPC   C2B54932  15.273   1.461   6.750
 7570POPC   C3B54933  15.307   1.424   7.050
 7570POPC   C4B54934  15.288   1.468   7.350
 7571POPC   NC354935  22.145  22.952   5.550
 7571POPC   PO454936  22.178  22.975   5.850
 7571POPC   GL154937  22.205  22.951   6.150
 7571POPC   GL254938  22.180  23.089   6.150
 7571POPC   C1A54939  22.133  22.940   6.450
 7571POPC   D2A54940  22.186  22.937   6.750
 7571POPC   C3A54941  22.138  22.937   7.050
 7571POPC   C4A54942  22.187  22.982   7.350
 7571POPC   C1B54943  22.111  23.180   6.450
 7571POPC   C2B54944  22.139  23.156   6.750
 7571POPC   C3B54945  22.103  23.192   7.050
 7571POPC   C4B54946  22.144  23.138   7.350
 7572POPC   NC354947  34.584  16.724   5.550
 7572POPC   PO454948  34.620  16.723   5.850
 7572POPC   GL154949  34.577  16.691   6.150
 7572POPC   GL254950  34.449  16.689   6.150
 7572POPC   C1A54951  34.619  16.741   6.450
 7572POPC   D2A54952  34.601  16.696   6.750
 7572POPC   C3A54953  34.595  16.743   7.050
 7572POPC   C4A54954  34.604  16.779   7.350
 7572POPC   C1B54955  34.352  16.629   6.450
 7572POPC   C2B54956  34.327  16.559   6.750
 7572POPC   C3B54957  34.317  16.593   7.050
 7572POPC   C4B54958  34.337  16.642   7.350
 7573POPC   NC354959  19.032  25.228   5.550
 7573POPC   PO454960  19.095  25.295   5.850
 7573POPC   GL154961  19.082  25.268   6.150
 7573POPC   GL254962  19.034  25.179   6.150
 7573POPC   C1A54963  19.017  25.306   6.450
 7573POPC   D2A54964  19.093  25.236   6.750
 7573POPC   C3A54965  19.096  25.284   7.050
 7573POPC   C4A54966  19.025  25.276   7.350
 7573POPC   C1B54967  18.963  25.089   6.450
 7573POPC   C2B54968  18.936  25.043   6.750
 7573POPC   C3B54969  18.980  25.048   7.050
 7573POPC   C4B54970  18.933  25.022   7.350
 7574POPC   NC354971  16.002  29.932   5.550
 7574POPC   PO454972  15.947  29.889   5.850
 7574POPC   GL154973  15.991  29.936   6.150
 7574POPC   GL254974  15.934  30.090   6.150
 7574POPC   C1A54975  15.926  29.967   6.450
 7574POPC   D2A54976  15.943  29.923   6.750
 7574POPC   C3A54977  15.912  29.954   7.050
 7574POPC   C4A54978  15.906  29.965   7.350
 7574POPC   C1B54979  15.931  30.169   6.450
 7574POPC   C2B54980  15.913  30.126   6.750
 7574POPC   C3B54981  15.885  30.132   7.050
 7574POPC   C4B54982  15.881  30.180   7.350
 7575POPC   NC354983  12.891  19.875   5.550
 7575POPC   PO454984  12.846  19.807   5.850
 7575POPC   GL154985  12.889  19.804   6.150
 7575POPC   GL254986  12.693  19.821   6.150
 7575POPC   C1A54987  12.890  19.830   6.450
 7575POPC   D2A54988  12.821  19.876   6.750
 7575POPC   C3A54989  12.892  19.806   7.050
 7575POPC   C4A54990  12.883  19.802   7.350
 7575POPC   C1B54991  12.649  19.808   6.450
 7575POPC   C2B54992  12.582  19.814   6.750
 7575POPC   C3B54993  12.599  19.803   7.050
 7575POPC   C4B54994  12.591  19.799   7.350
 7576POPC   NC354995  12.081  40.795   5.550
 7576POPC   PO454996  12.085  40.792   5.850
 7576POPC   GL154997  12.055  40.757   6.150
 7576POPC   GL254998  12.130  40.932   6.150
 7576POPC   C1A54999  12.100  40.764   6.450
 7576POPC   D2A55000  12.058  40.832   6.750
 7576POPC   C3A55001  12.107  40.762   7.050
 7576POPC   C4A55002  12.093  40.796   7.350
 7576POPC   C1B55003  12.127  41.067   6.450
 7576POPC   C2B55004  12.128  41.052   6.750
 7576POPC   C3B55005  12.123  40.994   7.050
 7576POPC   C4B55006  12.145  41.071   7.350
 7577POPC   NC355007  15.187  32.281   5.550
 7577POPC   PO455008  15.148  32.200   5.850
 7577POPC   GL155009  15.163  32.238   6.150
 7577POPC   GL255010  15.097  32.172   6.150
 7577POPC   C1A55011  15.162  32.270   6.450
 7577POPC   D2A55012  15.154  32.229   6.750
 7577POPC   C3A55013  15.140  32.257   7.050
 7577POPC   C4A55014  15.164  32.281   7.350
 7577POPC   C1B55015  14.959  32.165   6.450
 7577POPC   C2B55016  14.919  32.154   6.750
 7577POPC   C3B55017  14.957  32.175   7.050
 7577POPC   C4B55018  14.910  32.190   7.350
 7578POPC   NC355019  24.519  12.847   5.550
 7578POPC   PO455020  24.440  12.831   5.850
 7578POPC   GL155021  24.499  12.831   6.150
 7578POPC   GL255022  24.422  12.783   6.150
 7578POPC   C1A55023  24.473  12.822   6.450
 7578POPC   D2A55024  24.503  12.844   6.750
 7578POPC   C3A55025  24.474  12.841   7.050
 7578POPC   C4A55026  24.539  12.816   7.350
 7578POPC   C1B55027  24.418  12.614   6.450
 7578POPC   C2B55028  24.345  12.668   6.750
 7578POPC   C3B55029  24.422  12.632   7.050
 7578POPC   C4B55030  24.422  12.575   7.350
 7579POPC   NC355031  18.295  40.009   5.550
 7579POPC   PO455032  18.298  40.005   5.850
 7579POPC   GL155033  18.322  40.008   6.150
 7579POPC   GL255034  18.236  39.868   6.150
 7579POPC   C1A55035  18.331  39.962   6.450
 7579POPC   D2A55036  18.306  39.958   6.750
 7579POPC   C3A55037  18.296  40.025   7.050
 7579POPC   C4A55038  18.299  40.054   7.350
 7579POPC   C1B55039  18.138  39.788   6.450
 7579POPC   C2B55040  18.176  39.831   6.750
 7579POPC   C3B55041  18.151  39.815   7.050
 7579POPC   C4B55042  18.108  39.789   7.350
 7580POPC   NC355043  42.367  22.925   5.550
 7580POPC   PO455044  42.357  22.977   5.850
 7580POPC   GL155045  42.304  22.980   6.150
 7580POPC   GL255046  42.233  22.954   6.150
 7580POPC   C1A55047  42.323  22.965   6.450
 7580POPC   D2A55048  42.300  22.900   6.750
 7580POPC   C3A55049  42.300  22.926   7.050
 7580POPC   C4A55050  42.288  22.931   7.350
 7580POPC   C1B55051  42.115  22.990   6.450
 7580POPC   C2B55052  42.048  23.055   6.750
 7580POPC   C3B55053  42.127  23.035   7.050
 7580POPC   C4B55054  42.117  23.002   7.350
 7581POPC   NC355055  43.844  29.130   5.550
 7581POPC   PO455056  43.893  29.163   5.850
 7581POPC   GL155057  43.883  29.118   6.150
 7581POPC   GL255058  43.978  29.250   6.150
 7581POPC   C1A55059  43.907  29.097   6.450
 7581POPC   D2A55060  43.929  29.103   6.750
 7581POPC   C3A55061  43.858  29.178   7.050
 7581POPC   C4A55062  43.863  29.143   7.350
 7581POPC   C1B55063  44.080  29.282   6.450
 7581POPC   C2B55064  44.100  29.306   6.750
 7581POPC   C3B55065  44.062  29.296   7.050
 7581POPC   C4B55066  44.091  29.285   7.350
 7582POPC   NC355067  13.589  12.027   5.550
 7582POPC   PO455068  13.671  12.103   5.850
 7582POPC   GL155069  13.614  12.093   6.150
 7582POPC   GL255070  13.699  12.216   6.150
 7582POPC   C1A55071  13.617  12.026   6.450
 7582POPC   D2A55072  13.675  12.103   6.750
 7582POPC   C3A55073  13.669  12.123   7.050
 7582POPC   C4A55074  13.588  12.100   7.350
 7582POPC   C1B55075  13.770  12.341   6.450
 7582POPC   C2B55076  13.753  12.345   6.750
 7582POPC   C3B55077  13.776  12.324   7.050
 7582POPC   C4B55078  13.721  12.271   7.350
 7583POPC   NC355079  16.685  24.524   5.550
 7583POPC   PO455080  16.752  24.527   5.850
 7583POPC   GL155081  16.732  24.529   6.150
 7583POPC   GL255082  16.746  24.362   6.150
 7583POPC   C1A55083  16.767  24.445   6.450
 7583POPC   D2A55084  16.710  24.510   6.750
 7583POPC   C3A55085  16.762  24.464   7.050
 7583POPC   C4A55086  16.718  24.535   7.350
 7583POPC   C1B55087  16.848  24.307   6.450
 7583POPC   C2B55088  16.817  24.313   6.750
 7583POPC   C3B55089  16.818  24.284   7.050
 7583POPC   C4B55090  16.895  24.241   7.350
 7584POPC   NC355091  29.122  16.750   5.550
 7584POPC   PO455092  29.182  16.728   5.850
 7584POPC   GL155093  29.105  16.709   6.150
 7584POPC   GL255094  29.284  16.667   6.150
 7584POPC   C1A55095  29.131  16.752   6.450
 7584POPC   D2A55096  29.152  16.681   6.750
 7584POPC   C3A55097  29.163  16.739   7.050
 7584POPC   C4A55098  29.156  16.693   7.350
 7584POPC   C1B55099  29.349  16.697   6.450
 7584POPC   C2B55100  29.401  16.673   6.750
 7584POPC   C3B55101  29.349  16.641   7.050
 7584POPC   C4B55102  29.373  16.609   7.350
 7585POPC   NC355103  33.040  16.685   5.550
 7585POPC   PO455104  33.031  16.690   5.850
 7585POPC   GL155105  33.023  16.771   6.150
 7585POPC   GL255106  32.890  16.694   6.150
 7585POPC   C1A55107  32.986  16.733   6.450
 7585POPC   D2A55108  33.040  16.741   6.750
 7585POPC   C3A55109  33.046  16.711   7.050
 7585POPC   C4A55110  32.990  16.736   7.350
 7585POPC   C1B55111  32.803  16.660   6.450
 7585POPC   C2B55112  32.764  16.642   6.750
 7585POPC   C3B55113  32.807  16.603   7.050
 7585POPC   C4B55114  32.791  16.592   7.350
 7586POPC   NC355115  18.311  19.854   5.550
 7586POPC   PO455116  18.249  19.789   5.850
 7586POPC   GL155117  18.275  19.850   6.150
 7586POPC   GL255118  18.313  19.713   6.150
 7586POPC   C1A55119  18.255  19.791   6.450
 7586POPC   D2A55120  18.277  19.810   6.750
 7586POPC   C3A55121  18.298  19.792   7.050
 7586POPC   C4A55122  18.243  19.871   7.350
 7586POPC   C1B55123  18.275  19.563   6.450
 7586POPC   C2B55124  18.342  19.584   6.750
 7586POPC   C3B55125  18.316  19.580   7.050
 7586POPC   C4B55126  18.284  19.610   7.350
 7587POPC   NC355127   4.310  42.376   5.550
 7587POPC   PO455128   4.334  42.304   5.850
 7587POPC   GL155129   4.337  42.330   6.150
 7587POPC   GL255130   4.149  42.328   6.150
 7587POPC   C1A55131   4.364  42.377   6.450
 7587POPC   D2A55132   4.322  42.319   6.750
 7587POPC   C3A55133   4.332  42.321   7.050
 7587POPC   C4A55134   4.310  42.353   7.350
 7587POPC   C1B55135   4.103  42.368   6.450
 7587POPC   C2B55136   4.081  42.320   6.750
 7587POPC   C3B55137   4.046  42.308   7.050
 7587POPC   C4B55138   4.020  42.273   7.350
 7588POPC   NC355139  28.351  22.129   5.550
 7588POPC   PO455140  28.323  22.208   5.850
 7588POPC   GL155141  28.409  22.179   6.150
 7588POPC   GL255142  28.476  22.046   6.150
 7588POPC   C1A55143  28.411  22.121   6.450
 7588POPC   D2A55144  28.404  22.124   6.750
 7588POPC   C3A55145  28.417  22.138   7.050
 7588POPC   C4A55146  28.383  22.207   7.350
 7588POPC   C1B55147  28.575  21.948   6.450
 7588POPC   C2B55148  28.584  21.988   6.750
 7588POPC   C3B55149  28.536  21.980   7.050
 7588POPC   C4B55150  28.549  22.022   7.350
 7589POPC   NC355151  19.867  32.285   5.550
 7589POPC   PO455152  19.863  32.207   5.850
 7589POPC   GL155153  19.827  32.231   6.150
 7589POPC   GL255154  19.878  32.367   6.150
 7589POPC   C1A55155  19.842  32.274   6.450
 7589POPC   D2A55156  19.839  32.239   6.750
 7589POPC   C3A55157  19.811  32.284   7.050
 7589POPC   C4A55158  19.835  32.238   7.350
 7589POPC   C1B55159  20.006  32.435   6.450
 7589POPC   C2B55160  19.998  32.460   6.750
 7589POPC   C3B55161  19.988  32.417   7.050
 7589POPC   C4B55162  19.994  32.476   7.350
 7590POPC   NC355163  20.574  26.059   5.550
 7590POPC   PO455164  20.632  26.047   5.850
 7590POPC   GL155165  20.627  26.059   6.150
 7590POPC   GL255166  20.508  25.929   6.150
 7590POPC   C1A55167  20.618  26.060   6.450
 7590POPC   D2A55168  20.582  26.047   6.750
 7590POPC   C3A55169  20.621  26.070   7.050
 7590POPC   C4A55170  20.612  26.022   7.350
 7590POPC   C1B55171  20.499  25.831   6.450
 7590POPC   C2B55172  20.532  25.811   6.750
 7590POPC   C3B55173  20.478  25.833   7.050
 7590POPC   C4B55174  20.516  25.857   7.350
 7591POPC   NC355175  26.087  23.752   5.550
 7591POPC   PO455176  25.999  23.759   5.850
 7591POPC   GL155177  26.039  23.764   6.150
 7591POPC   GL255178  26.002  23.591   6.150
 7591POPC   C1A55179  26.013  23.752   6.450
 7591POPC   D2A55180  26.029  23.669   6.750
 7591POPC   C3A55181  26.071  23.705   7.050
 7591POPC   C4A55182  26.025  23.683   7.350
 7591POPC   C1B55183  25.885  23.504   6.450
 7591POPC   C2B55184  25.879  23.544   6.750
 7591POPC   C3B55185  25.857  23.511   7.050
 7591POPC   C4B55186  25.925  23.468   7.350
 7592POPC   NC355187   2.780  11.255   5.550
 7592POPC   PO455188   2.747  11.255   5.850
 7592POPC   GL155189   2.804  11.274   6.150
 7592POPC   GL255190   2.762  11.459   6.150
 7592POPC   C1A55191   2.765  11.290   6.450
 7592POPC   D2A55192   2.786  11.330   6.750
 7592POPC   C3A55193   2.786  11.253   7.050
 7592POPC   C4A55194   2.803  11.297   7.350
 7592POPC   C1B55195   2.699  11.581   6.450
 7592POPC   C2B55196   2.699  11.521   6.750
 7592POPC   C3B55197   2.691  11.513   7.050
 7592POPC   C4B55198   2.739  11.563   7.350
 7593POPC   NC355199  14.429   2.728   5.550
 7593POPC   PO455200  14.396   2.799   5.850
 7593POPC   GL155201  14.448   2.739   6.150
 7593POPC   GL255202  14.244   2.772   6.150
 7593POPC   C1A55203  14.416   2.728   6.450
 7593POPC   D2A55204  14.376   2.764   6.750
 7593POPC   C3A55205  14.418   2.735   7.050
 7593POPC   C4A55206  14.364   2.806   7.350
 7593POPC   C1B55207  14.119   2.738   6.450
 7593POPC   C2B55208  14.127   2.730   6.750
 7593POPC   C3B55209  14.138   2.791   7.050
 7593POPC   C4B55210  14.125   2.766   7.350
 7594POPC   NC355211  31.478   2.782   5.550
 7594POPC   PO455212  31.455   2.730   5.850
 7594POPC   GL155213  31.461   2.719   6.150
 7594POPC   GL255214  31.527   2.917   6.150
 7594POPC   C1A55215  31.516   2.776   6.450
 7594POPC   D2A55216  31.428   2.749   6.750
 7594POPC   C3A55217  31.520   2.768   7.050
 7594POPC   C4A55218  31.491   2.764   7.350
 7594POPC   C1B55219  31.605   3.013   6.450
 7594POPC   C2B55220  31.639   3.035   6.750
 7594POPC   C3B55221  31.607   2.959   7.050
 7594POPC   C4B55222  31.577   2.977   7.350
 7595POPC   NC355223   8.168  23.674   5.550
 7595POPC   PO455224   8.233  23.709   5.850
 7595POPC   GL155225   8.198  23.688   6.150
 7595POPC   GL255226   8.169  23.548   6.150
 7595POPC   C1A55227   8.222  23.717   6.450
 7595POPC   D2A55228   8.197  23.742   6.750
 7595POPC   C3A55229   8.149  23.701   7.050
 7595POPC   C4A55230   8.191  23.733   7.350
 7595POPC   C1B55231   8.228  23.483   6.450
 7595POPC   C2B55232   8.222  23.416   6.750
 7595POPC   C3B55233   8.180  23.504   7.050
 7595POPC   C4B55234   8.176  23.426   7.350
 7596POPC   NC355235   1.164   1.237   5.550
 7596POPC   PO455236   1.206   1.231   5.850
 7596POPC   GL155237   1.178   1.257   6.150
 7596POPC   GL255238   1.117   1.302   6.150
 7596POPC   C1A55239   1.216   1.214   6.450
 7596POPC   D2A55240   1.167   1.191   6.750
 7596POPC   C3A55241   1.209   1.231   7.050
 7596POPC   C4A55242   1.209   1.178   7.350
 7596POPC   C1B55243   1.004   1.431   6.450
 7596POPC   C2B55244   1.081   1.397   6.750
 7596POPC   C3B55245   1.064   1.422   7.050
 7596POPC   C4B55246   1.061   1.351   7.350
 7597POPC   NC355247  43.876   1.177   5.550
 7597POPC   PO455248  43.870   1.168   5.850
 7597POPC   GL155249  43.859   1.229   6.150
 7597POPC   GL255250  43.864   1.336   6.150
 7597POPC   C1A55251  43.933   1.239   6.450
 7597POPC   D2A55252  43.896   1.258   6.750
 7597POPC   C3A55253  43.889   1.166   7.050
 7597POPC   C4A55254  43.851   1.170   7.350
 7597POPC   C1B55255  43.720   1.408   6.450
 7597POPC   C2B55256  43.730   1.470   6.750
 7597POPC   C3B55257  43.756   1.482   7.050
 7597POPC   C4B55258  43.807   1.453   7.350
 7598POPC   NC355259  18.257  23.729   5.550
 7598POPC   PO455260  18.291  23.726   5.850
 7598POPC   GL155261  18.245  23.705   6.150
 7598POPC   GL255262  18.300  23.637   6.150
 7598POPC   C1A55263  18.282  23.692   6.450
 7598POPC   D2A55264  18.322  23.686   6.750
 7598POPC   C3A55265  18.290  23.693   7.050
 7598POPC   C4A55266  18.298  23.672   7.350
 7598POPC   C1B55267  18.380  23.464   6.450
 7598POPC   C2B55268  18.321  23.443   6.750
 7598POPC   C3B55269  18.323  23.513   7.050
 7598POPC   C4B55270  18.402  23.506   7.350
 7599POPC   NC355271  17.532  43.873   5.550
 7599POPC   PO455272  17.460  43.918   5.850
 7599POPC   GL155273  17.478  43.885   6.150
 7599POPC   GL255274  17.451  43.969   6.150
 7599POPC   C1A55275  17.530  43.868   6.450
 7599POPC   D2A55276  17.523  43.841   6.750
 7599POPC   C3A55277  17.511  43.912   7.050
 7599POPC   C4A55278  17.534  43.845   7.350
 7599POPC   C1B55279  17.442  44.090   6.450
 7599POPC   C2B55280  17.429  44.156   6.750
 7599POPC   C3B55281  17.467  44.166   7.050
 7599POPC   C4B55282  17.410  44.083   7.350
 7600POPC   NC355283  13.596  26.087   5.550
 7600POPC   PO455284  13.655  26.038   5.850
 7600POPC   GL155285  13.605  26.002   6.150
 7600POPC   GL255286  13.613  26.178   6.150
 7600POPC   C1A55287  13.673  26.000   6.450
 7600POPC   D2A55288  13.634  26.004   6.750
 7600POPC   C3A55289  13.611  26.039   7.050
 7600POPC   C4A55290  13.582  26.085   7.350
 7600POPC   C1B55291  13.639  26.281   6.450
 7600POPC   C2B55292  13.577  26.307   6.750
 7600POPC   C3B55293  13.572  26.286   7.050
 7600POPC   C4B55294  13.582  26.264   7.350
 7601POPC   NC355295  32.222  40.049   5.550
 7601POPC   PO455296  32.244  39.983   5.850
 7601POPC   GL155297  32.258  40.015   6.150
 7601POPC   GL255298  32.354  40.006   6.150
 7601POPC   C1A55299  32.224  39.990   6.450
 7601POPC   D2A55300  32.296  40.002   6.750
 7601POPC   C3A55301  32.269  39.974   7.050
 7601POPC   C4A55302  32.235  39.992   7.350
 7601POPC   C1B55303  32.467  40.049   6.450
 7601POPC   C2B55304  32.493  39.999   6.750
 7601POPC   C3B55305  32.483  40.054   7.050
 7601POPC   C4B55306  32.533  39.976   7.350
 7602POPC   NC355307  19.048  29.148   5.550
 7602POPC   PO455308  19.019  29.169   5.850
 7602POPC   GL155309  19.099  29.116   6.150
 7602POPC   GL255310  19.155  29.205   6.150
 7602POPC   C1A55311  19.031  29.115   6.450
 7602POPC   D2A55312  19.046  29.184   6.750
 7602POPC   C3A55313  19.015  29.098   7.050
 7602POPC   C4A55314  19.063  29.102   7.350
 7602POPC   C1B55315  19.253  29.263   6.450
 7602POPC   C2B55316  19.210  29.343   6.750
 7602POPC   C3B55317  19.289  29.282   7.050
 7602POPC   C4B55318  19.224  29.272   7.350
 7603POPC   NC355319   4.305  35.339   5.550
 7603POPC   PO455320   4.294  35.313   5.850
 7603POPC   GL155321   4.292  35.373   6.150
 7603POPC   GL255322   4.356  35.417   6.150
 7603POPC   C1A55323   4.322  35.398   6.450
 7603POPC   D2A55324   4.359  35.335   6.750
 7603POPC   C3A55325   4.319  35.351   7.050
 7603POPC   C4A55326   4.318  35.385   7.350
 7603POPC   C1B55327   4.478  35.581   6.450
 7603POPC   C2B55328   4.529  35.553   6.750
 7603POPC   C3B55329   4.499  35.550   7.050
 7603POPC   C4B55330   4.461  35.557   7.350
 7604POPC   NC355331  27.607  23.708   5.550
 7604POPC   PO455332  27.610  23.756   5.850
 7604POPC   GL155333  27.570  23.668   6.150
 7604POPC   GL255334  27.614  23.806   6.150
 7604POPC   C1A55335  27.616  23.728   6.450
 7604POPC   D2A55336  27.628  23.674   6.750
 7604POPC   C3A55337  27.574  23.680   7.050
 7604POPC   C4A55338  27.592  23.666   7.350
 7604POPC   C1B55339  27.697  23.952   6.450
 7604POPC   C2B55340  27.683  23.967   6.750
 7604POPC   C3B55341  27.733  23.897   7.050
 7604POPC   C4B55342  27.720  23.924   7.350
 7605POPC   NC355343  29.100  40.033   5.550
 7605POPC   PO455344  29.134  40.041   5.850
 7605POPC   GL155345  29.111  40.041   6.150
 7605POPC   GL255346  29.049  39.899   6.150
 7605POPC   C1A55347  29.192  40.008   6.450
 7605POPC   D2A55348  29.103  40.031   6.750
 7605POPC   C3A55349  29.165  40.042   7.050
 7605POPC   C4A55350  29.134  40.039   7.350
 7605POPC   C1B55351  28.957  39.813   6.450
 7605POPC   C2B55352  28.949  39.874   6.750
 7605POPC   C3B55353  28.937  39.792   7.050
 7605POPC   C4B55354  28.935  39.831   7.350
 7606POPC   NC355355  34.624  24.504   5.550
 7606POPC   PO455356  34.611  24.466   5.850
 7606POPC   GL155357  34.557  24.508   6.150
 7606POPC   GL255358  34.461  24.536   6.150
 7606POPC   C1A55359  34.617  24.526   6.450
 7606POPC   D2A55360  34.596  24.495   6.750
 7606POPC   C3A55361  34.534  24.521   7.050
 7606POPC   C4A55362  34.599  24.476   7.350
 7606POPC   C1B55363  34.315  24.635   6.450
 7606POPC   C2B55364  34.306  24.595   6.750
 7606POPC   C3B55365  34.330  24.581   7.050
 7606POPC   C4B55366  34.311  24.596   7.350
 7607POPC   NC355367  43.928  28.323   5.550
 7607POPC   PO455368  43.908  28.407   5.850
 7607POPC   GL155369  43.920  28.416   6.150
 7607POPC   GL255370  43.775  28.471   6.150
 7607POPC   C1A55371  43.875  28.365   6.450
 7607POPC   D2A55372  43.899  28.403   6.750
 7607POPC   C3A55373  43.906  28.351   7.050
 7607POPC   C4A55374  43.896  28.352   7.350
 7607POPC   C1B55375  43.649  28.502   6.450
 7607POPC   C2B55376  43.700  28.498   6.750
 7607POPC   C3B55377  43.647  28.484   7.050
 7607POPC   C4B55378  43.727  28.556   7.350
 7608POPC   NC355379  35.334  37.655   5.550
 7608POPC   PO455380  35.350  37.674   5.850
 7608POPC   GL155381  35.354  37.703   6.150
 7608POPC   GL255382  35.236  37.741   6.150
 7608POPC   C1A55383  35.311  37.683   6.450
 7608POPC   D2A55384  35.375  37.688   6.750
 7608POPC   C3A55385  35.349  37.676   7.050
 7608POPC   C4A55386  35.311  37.663   7.350
 7608POPC   C1B55387  35.087  37.814   6.450
 7608POPC   C2B55388  35.158  37.785   6.750
 7608POPC   C3B55389  35.154  37.803   7.050
 7608POPC   C4B55390  35.158  37.846   7.350
 7609POPC   NC355391   9.792  36.860   5.550
 7609POPC   PO455392   9.770  36.924   5.850
 7609POPC   GL155393   9.771  36.900   6.150
 7609POPC   GL255394   9.665  37.026   6.150
 7609POPC   C1A55395   9.784  36.897   6.450
 7609POPC   D2A55396   9.718  36.909   6.750
 7609POPC   C3A55397   9.714  36.904   7.050
 7609POPC   C4A55398   9.793  36.948   7.350
 7609POPC   C1B55399   9.636  37.120   6.450
 7609POPC   C2B55400   9.577  37.134   6.750
 7609POPC   C3B55401   9.627  37.071   7.050
 7609POPC   C4B55402   9.600  37.138   7.350
 7610POPC   NC355403  32.275  43.062   5.550
 7610POPC   PO455404  32.215  43.107   5.850
 7610POPC   GL155405  32.288  43.066   6.150
 7610POPC   GL255406  32.316  43.169   6.150
 7610POPC   C1A55407  32.218  43.094   6.450
 7610POPC   D2A55408  32.281  43.101   6.750
 7610POPC   C3A55409  32.244  43.099   7.050
 7610POPC   C4A55410  32.293  43.159   7.350
 7610POPC   C1B55411  32.436  43.279   6.450
 7610POPC   C2B55412  32.442  43.298   6.750
 7610POPC   C3B55413  32.447  43.265   7.050
 7610POPC   C4B55414  32.435  43.239   7.350
 7611POPC   NC355415  16.706   9.760   5.550
 7611POPC   PO455416  16.760   9.794   5.850
 7611POPC   GL155417  16.734   9.743   6.150
 7611POPC   GL255418  16.776   9.584   6.150
 7611POPC   C1A55419  16.720   9.706   6.450
 7611POPC   D2A55420  16.774   9.731   6.750
 7611POPC   C3A55421  16.773   9.756   7.050
 7611POPC   C4A55422  16.713   9.732   7.350
 7611POPC   C1B55423  16.807   9.500   6.450
 7611POPC   C2B55424  16.828   9.517   6.750
 7611POPC   C3B55425  16.794   9.538   7.050
 7611POPC   C4B55426  16.826   9.527   7.350
 7612POPC   NC355427  31.472  35.388   5.550
 7612POPC   PO455428  31.453  35.336   5.850
 7612POPC   GL155429  31.515  35.370   6.150
 7612POPC   GL255430  31.607  35.356   6.150
 7612POPC   C1A55431  31.455  35.363   6.450
 7612POPC   D2A55432  31.454  35.369   6.750
 7612POPC   C3A55433  31.481  35.338   7.050
 7612POPC   C4A55434  31.503  35.378   7.350
 7612POPC   C1B55435  31.698  35.394   6.450
 7612POPC   C2B55436  31.764  35.354   6.750
 7612POPC   C3B55437  31.713  35.372   7.050
 7612POPC   C4B55438  31.722  35.433   7.350
 7613POPC   NC355439  44.624  36.147   5.550
 7613POPC   PO455440  44.694  36.111   5.850
 7613POPC   GL155441  44.711  36.115   6.150
 7613POPC   GL255442  44.685  35.993   6.150
 7613POPC   C1A55443  44.697  36.141   6.450
 7613POPC   D2A55444  44.677  36.162   6.750
 7613POPC   C3A55445  44.660  36.114   7.050
 7613POPC   C4A55446  44.705  36.105   7.350
 7613POPC   C1B55447  44.801  35.920   6.450
 7613POPC   C2B55448  44.846  35.885   6.750
 7613POPC   C3B55449  44.834  35.905   7.050
 7613POPC   C4B55450  44.851  35.913   7.350
 7614POPC   NC355451   5.066   9.735   5.550
 7614POPC   PO455452   5.107   9.795   5.850
 7614POPC   GL155453   5.065   9.765   6.150
 7614POPC   GL255454   5.245   9.755   6.150
 7614POPC   C1A55455   5.118   9.718   6.450
 7614POPC   D2A55456   5.134   9.797   6.750
 7614POPC   C3A55457   5.078   9.706   7.050
 7614POPC   C4A55458   5.051   9.779   7.350
 7614POPC   C1B55459   5.285   9.818   6.450
 7614POPC   C2B55460   5.332   9.866   6.750
 7614POPC   C3B55461   5.346   9.875   7.050
 7614POPC   C4B55462   5.335   9.834   7.350
 7615POPC   NC355463  23.691  35.384   5.550
 7615POPC   PO455464  23.742  35.351   5.850
 7615POPC   GL155465  23.678  35.357   6.150
 7615POPC   GL255466  23.556  35.281   6.150
 7615POPC   C1A55467  23.732  35.303   6.450
 7615POPC   D2A55468  23.739  35.345   6.750
 7615POPC   C3A55469  23.724  35.389   7.050
 7615POPC   C4A55470  23.685  35.350   7.350
 7615POPC   C1B55471  23.450  35.328   6.450
 7615POPC   C2B55472  23.428  35.312   6.750
 7615POPC   C3B55473  23.461  35.306   7.050
 7615POPC   C4B55474  23.482  35.321   7.350
 7616POPC   NC355475  35.307   4.337   5.550
 7616POPC   PO455476  35.346   4.274   5.850
 7616POPC   GL155477  35.384   4.268   6.150
 7616POPC   GL255478  35.246   4.204   6.150
 7616POPC   C1A55479  35.395   4.345   6.450
 7616POPC   D2A55480  35.387   4.316   6.750
 7616POPC   C3A55481  35.342   4.336   7.050
 7616POPC   C4A55482  35.340   4.329   7.350
 7616POPC   C1B55483  35.248   4.131   6.450
 7616POPC   C2B55484  35.197   4.063   6.750
 7616POPC   C3B55485  35.232   4.064   7.050
 7616POPC   C4B55486  35.191   4.111   7.350
 7617POPC   NC355487   1.168  21.361   5.550
 7617POPC   PO455488   1.253  21.368   5.850
 7617POPC   GL155489   1.208  21.421   6.150
 7617POPC   GL255490   1.200  21.466   6.150
 7617POPC   C1A55491   1.221  21.394   6.450
 7617POPC   D2A55492   1.246  21.352   6.750
 7617POPC   C3A55493   1.251  21.382   7.050
 7617POPC   C4A55494   1.181  21.387   7.350
 7617POPC   C1B55495   1.231  21.607   6.450
 7617POPC   C2B55496   1.167  21.681   6.750
 7617POPC   C3B55497   1.232  21.607   7.050
 7617POPC   C4B55498   1.149  21.637   7.350
 7618POPC   NC355499  40.030  30.681   5.550
 7618POPC   PO455500  40.042  30.726   5.850
 7618POPC   GL155501  39.991  30.664   6.150
 7618POPC   GL255502  40.123  30.714   6.150
 7618POPC   C1A55503  39.988  30.686   6.450
 7618POPC   D2A55504  40.053  30.662   6.750
 7618POPC   C3A55505  40.048  30.728   7.050
 7618POPC   C4A55506  40.037  30.661   7.350
 7618POPC   C1B55507  40.268  30.633   6.450
 7618POPC   C2B55508  40.214  30.708   6.750
 7618POPC   C3B55509  40.298  30.690   7.050
 7618POPC   C4B55510  40.213  30.698   7.350
 7619POPC   NC355511   1.984  10.493   5.550
 7619POPC   PO455512   1.991  10.545   5.850
 7619POPC   GL155513   2.018  10.569   6.150
 7619POPC   GL255514   1.978  10.652   6.150
 7619POPC   C1A55515   1.979  10.552   6.450
 7619POPC   D2A55516   1.982  10.477   6.750
 7619POPC   C3A55517   2.013  10.573   7.050
 7619POPC   C4A55518   1.975  10.551   7.350
 7619POPC   C1B55519   2.017  10.812   6.450
 7619POPC   C2B55520   1.983  10.802   6.750
 7619POPC   C3B55521   2.017  10.766   7.050
 7619POPC   C4B55522   1.950  10.802   7.350
 7620POPC   NC355523   7.460  17.545   5.550
 7620POPC   PO455524   7.458  17.541   5.850
 7620POPC   GL155525   7.421  17.516   6.150
 7620POPC   GL255526   7.432  17.398   6.150
 7620POPC   C1A55527   7.438  17.459   6.450
 7620POPC   D2A55528   7.430  17.546   6.750
 7620POPC   C3A55529   7.426  17.535   7.050
 7620POPC   C4A55530   7.373  17.510   7.350
 7620POPC   C1B55531   7.321  17.258   6.450
 7620POPC   C2B55532   7.366  17.274   6.750
 7620POPC   C3B55533   7.403  17.229   7.050
 7620POPC   C4B55534   7.325  17.297   7.350
 7621POPC   NC355535  30.700  12.894   5.550
 7621POPC   PO455536  30.697  12.835   5.850
 7621POPC   GL155537  30.675  12.893   6.150
 7621POPC   GL255538  30.582  12.758   6.150
 7621POPC   C1A55539  30.739  12.838   6.450
 7621POPC   D2A55540  30.662  12.866   6.750
 7621POPC   C3A55541  30.743  12.857   7.050
 7621POPC   C4A55542  30.691  12.883   7.350
 7621POPC   C1B55543  30.508  12.646   6.450
 7621POPC   C2B55544  30.552  12.671   6.750
 7621POPC   C3B55545  30.516  12.652   7.050
 7621POPC   C4B55546  30.498  12.670   7.350
 7622POPC   NC355547  43.134  24.455   5.550
 7622POPC   PO455548  43.153  24.459   5.850
 7622POPC   GL155549  43.083  24.445   6.150
 7622POPC   GL255550  43.035  24.486   6.150
 7622POPC   C1A55551  43.082  24.534   6.450
 7622POPC   D2A55552  43.087  24.469   6.750
 7622POPC   C3A55553  43.066  24.477   7.050
 7622POPC   C4A55554  43.149  24.463   7.350
 7622POPC   C1B55555  42.882  24.449   6.450
 7622POPC   C2B55556  42.873  24.473   6.750
 7622POPC   C3B55557  42.833  24.472   7.050
 7622POPC   C4B55558  42.831  24.470   7.350
 7623POPC   NC355559   7.423  36.854   5.550
 7623POPC   PO455560   7.447  36.934   5.850
 7623POPC   GL155561   7.438  36.868   6.150
 7623POPC   GL255562   7.399  36.753   6.150
 7623POPC   C1A55563   7.406  36.894   6.450
 7623POPC   D2A55564   7.427  36.877   6.750
 7623POPC   C3A55565   7.405  36.868   7.050
 7623POPC   C4A55566   7.457  36.904   7.350
 7623POPC   C1B55567   7.384  36.609   6.450
 7623POPC   C2B55568   7.422  36.705   6.750
 7623POPC   C3B55569   7.430  36.636   7.050
 7623POPC   C4B55570   7.370  36.649   7.350
 7624POPC   NC355571  34.536  44.626   5.550
 7624POPC   PO455572  34.623  44.684   5.850
 7624POPC   GL155573  34.601  44.656   6.150
 7624POPC   GL255574  34.500  44.737   6.150
 7624POPC   C1A55575  34.546  44.662   6.450
 7624POPC   D2A55576  34.586  44.653   6.750
 7624POPC   C3A55577  34.599  44.665   7.050
 7624POPC   C4A55578  34.611  44.705   7.350
 7624POPC   C1B55579  34.420  44.903   6.450
 7624POPC   C2B55580  34.484  44.898   6.750
 7624POPC   C3B55581  34.393  44.839   7.050
 7624POPC   C4B55582  34.417  44.872   7.350
 7625POPC   NC355583  33.839  42.345   5.550
 7625POPC   PO455584  33.821  42.345   5.850
 7625POPC   GL155585  33.780  42.368   6.150
 7625POPC   GL255586  33.768  42.184   6.150
 7625POPC   C1A55587  33.753  42.325   6.450
 7625POPC   D2A55588  33.766  42.289   6.750
 7625POPC   C3A55589  33.800  42.365   7.050
 7625POPC   C4A55590  33.755  42.328   7.350
 7625POPC   C1B55591  33.615  42.112   6.450
 7625POPC   C2B55592  33.699  42.091   6.750
 7625POPC   C3B55593  33.615  42.149   7.050
 7625POPC   C4B55594  33.695  42.174   7.350
 7626POPC   NC355595  28.363   3.497   5.550
 7626POPC   PO455596  28.400   3.521   5.850
 7626POPC   GL155597  28.344   3.504   6.150
 7626POPC   GL255598  28.245   3.493   6.150
 7626POPC   C1A55599  28.375   3.512   6.450
 7626POPC   D2A55600  28.387   3.557   6.750
 7626POPC   C3A55601  28.382   3.533   7.050
 7626POPC   C4A55602  28.363   3.528   7.350
 7626POPC   C1B55603  28.120   3.474   6.450
 7626POPC   C2B55604  28.145   3.454   6.750
 7626POPC   C3B55605  28.141   3.470   7.050
 7626POPC   C4B55606  28.145   3.468   7.350
 7627POPC   NC355607  41.593   8.197   5.550
 7627POPC   PO455608  41.526   8.208   5.850
 7627POPC   GL155609  41.599   8.238   6.150
 7627POPC   GL255610  41.455   8.293   6.150
 7627POPC   C1A55611  41.600   8.173   6.450
 7627POPC   D2A55612  41.588   8.238   6.750
 7627POPC   C3A55613  41.565   8.211   7.050
 7627POPC   C4A55614  41.555   8.215   7.350
 7627POPC   C1B55615  41.450   8.440   6.450
 7627POPC   C2B55616  41.464   8.368   6.750
 7627POPC   C3B55617  41.466   8.440   7.050
 7627POPC   C4B55618  41.420   8.384   7.350
 7628POPC   NC355619  26.042  30.650   5.550
 7628POPC   PO455620  26.037  30.705   5.850
 7628POPC   GL155621  26.020  30.711   6.150
 7628POPC   GL255622  26.026  30.833   6.150
 7628POPC   C1A55623  26.021  30.691   6.450
 7628POPC   D2A55624  25.991  30.744   6.750
 7628POPC   C3A55625  25.993  30.688   7.050
 7628POPC   C4A55626  26.004  30.671   7.350
 7628POPC   C1B55627  25.982  30.913   6.450
 7628POPC   C2B55628  25.989  30.928   6.750
 7628POPC   C3B55629  25.935  30.962   7.050
 7628POPC   C4B55630  26.005  30.937   7.350
 7629POPC   NC355631  19.078   4.268   5.550
 7629POPC   PO455632  19.052   4.366   5.850
 7629POPC   GL155633  19.108   4.351   6.150
 7629POPC   GL255634  19.209   4.279   6.150
 7629POPC   C1A55635  19.011   4.312   6.450
 7629POPC   D2A55636  19.020   4.303   6.750
 7629POPC   C3A55637  19.012   4.349   7.050
 7629POPC   C4A55638  19.067   4.358   7.350
 7629POPC   C1B55639  19.261   4.170   6.450
 7629POPC   C2B55640  19.243   4.212   6.750
 7629POPC   C3B55641  19.308   4.190   7.050
 7629POPC   C4B55642  19.253   4.209   7.350
 7630POPC   NC355643  41.596  23.761   5.550
 7630POPC   PO455644  41.544  23.713   5.850
 7630POPC   GL155645  41.528  23.725   6.150
 7630POPC   GL255646  41.446  23.779   6.150
 7630POPC   C1A55647  41.544  23.706   6.450
 7630POPC   D2A55648  41.577  23.709   6.750
 7630POPC   C3A55649  41.571  23.714   7.050
 7630POPC   C4A55650  41.518  23.696   7.350
 7630POPC   C1B55651  41.358  23.847   6.450
 7630POPC   C2B55652  41.372  23.848   6.750
 7630POPC   C3B55653  41.419  23.922   7.050
 7630POPC   C4B55654  41.404  23.928   7.350
 7631POPC   NC355655   5.878   5.887   5.550
 7631POPC   PO455656   5.824   5.914   5.850
 7631POPC   GL155657   5.914   5.905   6.150
 7631POPC   GL255658   5.727   5.747   6.150
 7631POPC   C1A55659   5.842   5.880   6.450
 7631POPC   D2A55660   5.904   5.825   6.750
 7631POPC   C3A55661   5.825   5.856   7.050
 7631POPC   C4A55662   5.834   5.886   7.350
 7631POPC   C1B55663   5.620   5.726   6.450
 7631POPC   C2B55664   5.648   5.741   6.750
 7631POPC   C3B55665   5.697   5.701   7.050
 7631POPC   C4B55666   5.711   5.690   7.350
 7632POPC   NC355667   2.763  32.248   5.550
 7632POPC   PO455668   2.720  32.269   5.850
 7632POPC   GL155669   2.718  32.270   6.150
 7632POPC   GL255670   2.767  32.158   6.150
 7632POPC   C1A55671   2.800  32.237   6.450
 7632POPC   D2A55672   2.803  32.250   6.750
 7632POPC   C3A55673   2.781  32.238   7.050
 7632POPC   C4A55674   2.719  32.283   7.350
 7632POPC   C1B55675   2.755  31.966   6.450
 7632POPC   C2B55676   2.801  32.016   6.750
 7632POPC   C3B55677   2.826  31.991   7.050
 7632POPC   C4B55678   2.757  31.992   7.350
 7633POPC   NC355679  38.457  29.911   5.550
 7633POPC   PO455680  38.419  29.880   5.850
 7633POPC   GL155681  38.426  29.959   6.150
 7633POPC   GL255682  38.414  29.829   6.150
 7633POPC   C1A55683  38.466  29.908   6.450
 7633POPC   D2A55684  38.481  29.967   6.750
 7633POPC   C3A55685  38.494  29.955   7.050
 7633POPC   C4A55686  38.421  29.893   7.350
 7633POPC   C1B55687  38.314  29.753   6.450
 7633POPC   C2B55688  38.331  29.746   6.750
 7633POPC   C3B55689  38.335  29.752   7.050
 7633POPC   C4B55690  38.246  29.740   7.350
 7634POPC   NC355691  12.841   9.773   5.550
 7634POPC   PO455692  12.802   9.731   5.850
 7634POPC   GL155693  12.829   9.732   6.150
 7634POPC   GL255694  12.723   9.668   6.150
 7634POPC   C1A55695  12.817   9.753   6.450
 7634POPC   D2A55696  12.881   9.769   6.750
 7634POPC   C3A55697  12.805   9.702   7.050
 7634POPC   C4A55698  12.826   9.787   7.350
 7634POPC   C1B55699  12.640   9.580   6.450
 7634POPC   C2B55700  12.655   9.575   6.750
 7634POPC   C3B55701  12.677   9.520   7.050
 7634POPC   C4B55702  12.689   9.525   7.350
 7635POPC   NC355703  15.980  12.052   5.550
 7635POPC   PO455704  15.961  12.061   5.850
 7635POPC   GL155705  15.997  12.100   6.150
 7635POPC   GL255706  15.838  12.177   6.150
 7635POPC   C1A55707  15.955  12.112   6.450
 7635POPC   D2A55708  15.919  12.065   6.750
 7635POPC   C3A55709  15.966  12.108   7.050
 7635POPC   C4A55710  15.935  12.074   7.350
 7635POPC   C1B55711  15.723  12.191   6.450
 7635POPC   C2B55712  15.708  12.221   6.750
 7635POPC   C3B55713  15.713  12.200   7.050
 7635POPC   C4B55714  15.735  12.226   7.350
 7636POPC   NC355715  44.700  21.355   5.550
 7636POPC   PO455716  44.649  21.419   5.850
 7636POPC   GL155717  44.651  21.416   6.150
 7636POPC   GL255718  44.706  21.299   6.150
 7636POPC   C1A55719  44.675  21.423   6.450
 7636POPC   D2A55720  44.654  21.401   6.750
 7636POPC   C3A55721  44.646  21.378   7.050
 7636POPC   C4A55722  44.646  21.408   7.350
 7636POPC   C1B55723  44.787  21.115   6.450
 7636POPC   C2B55724  44.713  21.176   6.750
 7636POPC   C3B55725  44.738  21.103   7.050
 7636POPC   C4B55726  44.783  21.121   7.350
 7637POPC   NC355727  21.434  36.901   5.550
 7637POPC   PO455728  21.361  36.882   5.850
 7637POPC   GL155729  21.390  36.890   6.150
 7637POPC   GL255730  21.478  36.771   6.150
 7637POPC   C1A55731  21.371  36.866   6.450
 7637POPC   D2A55732  21.347  36.907   6.750
 7637POPC   C3A55733  21.403  36.898   7.050
 7637POPC   C4A55734  21.344  36.874   7.350
 7637POPC   C1B55735  21.581  36.748   6.450
 7637POPC   C2B55736  21.545  36.690   6.750
 7637POPC   C3B55737  21.549  36.717   7.050
 7637POPC   C4B55738  21.571  36.720   7.350
 7638POPC   NC355739   8.171   2.795   5.550
 7638POPC   PO455740   8.175   2.751   5.850
 7638POPC   GL155741   8.161   2.771   6.150
 7638POPC   GL255742   8.099   2.672   6.150
 7638POPC   C1A55743   8.241   2.802   6.450
 7638POPC   D2A55744   8.206   2.774   6.750
 7638POPC   C3A55745   8.182   2.808   7.050
 7638POPC   C4A55746   8.147   2.765   7.350
 7638POPC   C1B55747   7.930   2.605   6.450
 7638POPC   C2B55748   7.988   2.640   6.750
 7638POPC   C3B55749   7.931   2.605   7.050
 7638POPC   C4B55750   7.976   2.698   7.350
 7639POPC   NC355751   1.968  22.124   5.550
 7639POPC   PO455752   2.006  22.120   5.850
 7639POPC   GL155753   1.948  22.118   6.150
 7639POPC   GL255754   2.113  22.090   6.150
 7639POPC   C1A55755   1.984  22.184   6.450
 7639POPC   D2A55756   1.967  22.165   6.750
 7639POPC   C3A55757   1.984  22.161   7.050
 7639POPC   C4A55758   2.026  22.181   7.350
 7639POPC   C1B55759   2.194  21.966   6.450
 7639POPC   C2B55760   2.151  21.948   6.750
 7639POPC   C3B55761   2.180  21.966   7.050
 7639POPC   C4B55762   2.143  21.974   7.350
 7640POPC   NC355763  18.309  12.847   5.550
 7640POPC   PO455764  18.309  12.867   5.850
 7640POPC   GL155765  18.287  12.834   6.150
 7640POPC   GL255766  18.189  12.890   6.150
 7640POPC   C1A55767  18.327  12.841   6.450
 7640POPC   D2A55768  18.265  12.823   6.750
 7640POPC   C3A55769  18.331  12.845   7.050
 7640POPC   C4A55770  18.288  12.896   7.350
 7640POPC   C1B55771  18.066  13.032   6.450
 7640POPC   C2B55772  18.094  12.964   6.750
 7640POPC   C3B55773  18.122  13.013   7.050
 7640POPC   C4B55774  18.108  13.035   7.350
 7641POPC   NC355775   9.717  12.054   5.550
 7641POPC   PO455776   9.750  12.104   5.850
 7641POPC   GL155777   9.718  12.116   6.150
 7641POPC   GL255778   9.772  12.205   6.150
 7641POPC   C1A55779   9.747  12.103   6.450
 7641POPC   D2A55780   9.793  12.043   6.750
 7641POPC   C3A55781   9.775  12.041   7.050
 7641POPC   C4A55782   9.733  12.124   7.350
 7641POPC   C1B55783   9.811  12.359   6.450
 7641POPC   C2B55784   9.809  12.351   6.750
 7641POPC   C3B55785   9.817  12.332   7.050
 7641POPC   C4B55786   9.842  12.272   7.350
 7642POPC   NC355787  27.549  15.225   5.550
 7642POPC   PO455788  27.585  15.157   5.850
 7642POPC   GL155789  27.590  15.166   6.150
 7642POPC   GL255790  27.624  15.057   6.150
 7642POPC   C1A55791  27.601  15.135   6.450
 7642POPC   D2A55792  27.642  15.136   6.750
 7642POPC   C3A55793  27.589  15.211   7.050
 7642POPC   C4A55794  27.570  15.186   7.350
 7642POPC   C1B55795  27.726  14.955   6.450
 7642POPC   C2B55796  27.666  14.988   6.750
 7642POPC   C3B55797  27.698  14.987   7.050
 7642POPC   C4B55798  27.678  14.926   7.350
 7643POPC   NC355799  41.554  39.220   5.550
 7643POPC   PO455800  41.552  39.271   5.850
 7643POPC   GL155801  41.608  39.205   6.150
 7643POPC   GL255802  41.593  39.346   6.150
 7643POPC   C1A55803  41.525  39.258   6.450
 7643POPC   D2A55804  41.517  39.244   6.750
 7643POPC   C3A55805  41.512  39.264   7.050
 7643POPC   C4A55806  41.543  39.213   7.350
 7643POPC   C1B55807  41.683  39.472   6.450
 7643POPC   C2B55808  41.613  39.424   6.750
 7643POPC   C3B55809  41.650  39.422   7.050
 7643POPC   C4B55810  41.637  39.491   7.350
 7644POPC   NC355811  33.063  14.448   5.550
 7644POPC   PO455812  33.030  14.437   5.850
 7644POPC   GL155813  33.058  14.427   6.150
 7644POPC   GL255814  32.911  14.353   6.150
 7644POPC   C1A55815  32.977  14.447   6.450
 7644POPC   D2A55816  33.015  14.437   6.750
 7644POPC   C3A55817  33.070  14.424   7.050
 7644POPC   C4A55818  33.063  14.400   7.350
 7644POPC   C1B55819  32.826  14.248   6.450
 7644POPC   C2B55820  32.810  14.209   6.750
 7644POPC   C3B55821  32.797  14.232   7.050
 7644POPC   C4B55822  32.866  14.243   7.350
 7645POPC   NC355823  19.082  43.126   5.550
 7645POPC   PO455824  19.094  43.091   5.850
 7645POPC   GL155825  19.084  43.074   6.150
 7645POPC   GL255826  18.912  43.140   6.150
 7645POPC   C1A55827  19.072  43.153   6.450
 7645POPC   D2A55828  19.054  43.124   6.750
 7645POPC   C3A55829  19.036  43.123   7.050
 7645POPC   C4A55830  19.048  43.073   7.350
 7645POPC   C1B55831  18.765  43.124   6.450
 7645POPC   C2B55832  18.809  43.105   6.750
 7645POPC   C3B55833  18.766  43.156   7.050
 7645POPC   C4B55834  18.761  43.083   7.350
 7646POPC   NC355835   5.907   8.156   5.550
 7646POPC   PO455836   5.897   8.172   5.850
 7646POPC   GL155837   5.860   8.159   6.150
 7646POPC   GL255838   5.990   8.138   6.150
 7646POPC   C1A55839   5.848   8.188   6.450
 7646POPC   D2A55840   5.887   8.235   6.750
 7646POPC   C3A55841   5.918   8.180   7.050
 7646POPC   C4A55842   5.892   8.235   7.350
 7646POPC   C1B55843   6.079   8.067   6.450
 7646POPC   C2B55844   6.049   8.039   6.750
 7646POPC   C3B55845   6.057   8.086   7.050
 7646POPC   C4B55846   6.106   8.053   7.350
 7647POPC   NC355847  40.784   5.111   5.550
 7647POPC   PO455848  40.770   5.130   5.850
 7647POPC   GL155849  40.805   5.046   6.150
 7647POPC   GL255850  40.885   5.007   6.150
 7647POPC   C1A55851  40.830   5.062   6.450
 7647POPC   D2A55852  40.781   5.114   6.750
 7647POPC   C3A55853  40.797   5.070   7.050
 7647POPC   C4A55854  40.743   5.056   7.350
 7647POPC   C1B55855  40.861   4.856   6.450
 7647POPC   C2B55856  40.928   4.888   6.750
 7647POPC   C3B55857  40.887   4.831   7.050
 7647POPC   C4B55858  40.853   4.848   7.350
 7648POPC   NC355859  43.098  43.868   5.550
 7648POPC   PO455860  43.122  43.933   5.850
 7648POPC   GL155861  43.160  43.854   6.150
 7648POPC   GL255862  43.183  43.823   6.150
 7648POPC   C1A55863  43.118  43.929   6.450
 7648POPC   D2A55864  43.118  43.935   6.750
 7648POPC   C3A55865  43.084  43.911   7.050
 7648POPC   C4A55866  43.072  43.890   7.350
 7648POPC   C1B55867  43.370  43.845   6.450
 7648POPC   C2B55868  43.360  43.819   6.750
 7648POPC   C3B55869  43.331  43.807   7.050
 7648POPC   C4B55870  43.368  43.791   7.350
 7649POPC   NC355871  40.804  22.950   5.550
 7649POPC   PO455872  40.763  22.938   5.850
 7649POPC   GL155873  40.764  22.894   6.150
 7649POPC   GL255874  40.809  22.810   6.150
 7649POPC   C1A55875  40.759  22.970   6.450
 7649POPC   D2A55876  40.808  22.949   6.750
 7649POPC   C3A55877  40.808  22.915   7.050
 7649POPC   C4A55878  40.754  22.928   7.350
 7649POPC   C1B55879  40.725  22.685   6.450
 7649POPC   C2B55880  40.716  22.698   6.750
 7649POPC   C3B55881  40.733  22.693   7.050
 7649POPC   C4B55882  40.727  22.711   7.350
 7650POPC   NC355883  13.613  44.706   5.550
 7650POPC   PO455884  13.636  44.648   5.850
 7650POPC   GL155885  13.626  44.634   6.150
 7650POPC   GL255886  13.513  44.649   6.150
 7650POPC   C1A55887  13.630  44.619   6.450
 7650POPC   D2A55888  13.585  44.626   6.750
 7650POPC   C3A55889  13.648  44.705   7.050
 7650POPC   C4A55890  13.606  44.650   7.350
 7650POPC   C1B55891  13.417  44.507   6.450
 7650POPC   C2B55892  13.397  44.516   6.750
 7650POPC   C3B55893  13.407  44.509   7.050
 7650POPC   C4B55894  13.387  44.544   7.350
 7651POPC   NC355895  22.977  41.569   5.550
 7651POPC   PO455896  22.921  41.548   5.850
 7651POPC   GL155897  22.938  41.583   6.150
 7651POPC   GL255898  22.970  41.451   6.150
 7651POPC   C1A55899  22.920  41.586   6.450
 7651POPC   D2A55900  22.918  41.568   6.750
 7651POPC   C3A55901  22.946  41.512   7.050
 7651POPC   C4A55902  22.932  41.567   7.350
 7651POPC   C1B55903  23.104  41.343   6.450
 7651POPC   C2B55904  23.050  41.385   6.750
 7651POPC   C3B55905  23.060  41.393   7.050
 7651POPC   C4B55906  23.106  41.330   7.350
 7652POPC   NC355907  10.561   9.014   5.550
 7652POPC   PO455908  10.513   8.983   5.850
 7652POPC   GL155909  10.516   8.940   6.150
 7652POPC   GL255910  10.604   8.929   6.150
 7652POPC   C1A55911  10.529   8.956   6.450
 7652POPC   D2A55912  10.552   8.958   6.750
 7652POPC   C3A55913  10.573   9.013   7.050
 7652POPC   C4A55914  10.490   8.944   7.350
 7652POPC   C1B55915  10.801   8.894   6.450
 7652POPC   C2B55916  10.763   8.940   6.750
 7652POPC   C3B55917  10.736   8.881   7.050
 7652POPC   C4B55918  10.733   8.917   7.350
 7653POPC   NC355919  26.782  15.177   5.550
 7653POPC   PO455920  26.829  15.173   5.850
 7653POPC   GL155921  26.799  15.132   6.150
 7653POPC   GL255922  26.777  15.104   6.150
 7653POPC   C1A55923  26.843  15.164   6.450
 7653POPC   D2A55924  26.831  15.225   6.750
 7653POPC   C3A55925  26.777  15.180   7.050
 7653POPC   C4A55926  26.854  15.221   7.350
 7653POPC   C1B55927  26.711  14.987   6.450
 7653POPC   C2B55928  26.710  14.894   6.750
 7653POPC   C3B55929  26.752  14.937   7.050
 7653POPC   C4B55930  26.713  14.913   7.350
 7654POPC   NC355931  35.388  16.745   5.550
 7654POPC   PO455932  35.354  16.683   5.850
 7654POPC   GL155933  35.342  16.710   6.150
 7654POPC   GL255934  35.452  16.788   6.150
 7654POPC   C1A55935  35.353  16.725   6.450
 7654POPC   D2A55936  35.363  16.753   6.750
 7654POPC   C3A55937  35.374  16.750   7.050
 7654POPC   C4A55938  35.329  16.696   7.350
 7654POPC   C1B55939  35.624  16.761   6.450
 7654POPC   C2B55940  35.633  16.787   6.750
 7654POPC   C3B55941  35.567  16.734   7.050
 7654POPC   C4B55942  35.633  16.731   7.350
 7655POPC   NC355943   6.627  14.357   5.550
 7655POPC   PO455944   6.679  14.368   5.850
 7655POPC   GL155945   6.694  14.402   6.150
 7655POPC   GL255946   6.721  14.294   6.150
 7655POPC   C1A55947   6.672  14.453   6.450
 7655POPC   D2A55948   6.638  14.367   6.750
 7655POPC   C3A55949   6.674  14.449   7.050
 7655POPC   C4A55950   6.608  14.438   7.350
 7655POPC   C1B55951   6.715  14.192   6.450
 7655POPC   C2B55952   6.686  14.201   6.750
 7655POPC   C3B55953   6.771  14.133   7.050
 7655POPC   C4B55954   6.693  14.162   7.350
 7656POPC   NC355955  19.011  10.572   5.550
 7656POPC   PO455956  19.068  10.543   5.850
 7656POPC   GL155957  19.036  10.505   6.150
 7656POPC   GL255958  18.994  10.620   6.150
 7656POPC   C1A55959  19.081  10.572   6.450
 7656POPC   D2A55960  19.093  10.534   6.750
 7656POPC   C3A55961  19.009  10.477   7.050
 7656POPC   C4A55962  19.040  10.522   7.350
 7656POPC   C1B55963  18.877  10.755   6.450
 7656POPC   C2B55964  18.918  10.714   6.750
 7656POPC   C3B55965  18.890  10.705   7.050
 7656POPC   C4B55966  18.868  10.714   7.350
 7657POPC   NC355967   9.790   4.353   5.550
 7657POPC   PO455968   9.753   4.274   5.850
 7657POPC   GL155969   9.701   4.360   6.150
 7657POPC   GL255970   9.834   4.405   6.150
 7657POPC   C1A55971   9.716   4.343   6.450
 7657POPC   D2A55972   9.795   4.306   6.750
 7657POPC   C3A55973   9.730   4.362   7.050
 7657POPC   C4A55974   9.769   4.317   7.350
 7657POPC   C1B55975   9.880   4.464   6.450
 7657POPC   C2B55976   9.901   4.466   6.750
 7657POPC   C3B55977   9.889   4.538   7.050
 7657POPC   C4B55978   9.945   4.459   7.350
 7658POPC   NC355979  22.954  24.485   5.550
 7658POPC   PO455980  22.945  24.461   5.850
 7658POPC   GL155981  22.957  24.532   6.150
 7658POPC   GL255982  22.833  24.382   6.150
 7658POPC   C1A55983  22.891  24.523   6.450
 7658POPC   D2A55984  22.973  24.485   6.750
 7658POPC   C3A55985  22.963  24.448   7.050
 7658POPC   C4A55986  22.908  24.484   7.350
 7658POPC   C1B55987  22.773  24.336   6.450
 7658POPC   C2B55988  22.771  24.399   6.750
 7658POPC   C3B55989  22.736  24.341   7.050
 7658POPC   C4B55990  22.680  24.390   7.350
 7659POPC   NC355991   5.135  28.348   5.550
 7659POPC   PO455992   5.078  28.395   5.850
 7659POPC   GL155993   5.047  28.371   6.150
 7659POPC   GL255994   5.090  28.268   6.150
 7659POPC   C1A55995   5.102  28.352   6.450
 7659POPC   D2A55996   5.111  28.339   6.750
 7659POPC   C3A55997   5.096  28.392   7.050
 7659POPC   C4A55998   5.059  28.376   7.350
 7659POPC   C1B55999   5.059  28.167   6.450
 7659POPC   C2B56000   5.116  28.133   6.750
 7659POPC   C3B56001   5.095  28.136   7.050
 7659POPC   C4B56002   5.087  28.146   7.350
 7660POPC   NC356003  26.014  42.354   5.550
 7660POPC   PO456004  26.006  42.357   5.850
 7660POPC   GL156005  26.069  42.357   6.150
 7660POPC   GL256006  25.972  42.341   6.150
 7660POPC   C1A56007  26.082  42.366   6.450
 7660POPC   D2A56008  26.019  42.324   6.750
 7660POPC   C3A56009  26.028  42.351   7.050
 7660POPC   C4A56010  26.031  42.336   7.350
 7660POPC   C1B56011  25.764  42.280   6.450
 7660POPC   C2B56012  25.772  42.206   6.750
 7660POPC   C3B56013  25.758  42.288   7.050
 7660POPC   C4B56014  25.842  42.242   7.350
 7661POPC   NC356015  43.156  25.281   5.550
 7661POPC   PO456016  43.111  25.303   5.850
 7661POPC   GL156017  43.080  25.269   6.150
 7661POPC   GL256018  43.092  25.415   6.150
 7661POPC   C1A56019  43.138  25.272   6.450
 7661POPC   D2A56020  43.120  25.267   6.750
 7661POPC   C3A56021  43.159  25.241   7.050
 7661POPC   C4A56022  43.150  25.259   7.350
 7661POPC   C1B56023  43.136  25.471   6.450
 7661POPC   C2B56024  43.139  25.502   6.750
 7661POPC   C3B56025  43.135  25.510   7.050
 7661POPC   C4B56026  43.199  25.480   7.350
 7662POPC   NC356027   4.303  36.103   5.550
 7662POPC   PO456028   4.346  36.086   5.850
 7662POPC   GL156029   4.363  36.113   6.150
 7662POPC   GL256030   4.364  36.207   6.150
 7662POPC   C1A56031   4.306  36.112   6.450
 7662POPC   D2A56032   4.308  36.153   6.750
 7662POPC   C3A56033   4.351  36.123   7.050
 7662POPC   C4A56034   4.337  36.097   7.350
 7662POPC   C1B56035   4.425  36.358   6.450
 7662POPC   C2B56036   4.461  36.308   6.750
 7662POPC   C3B56037   4.495  36.376   7.050
 7662POPC   C4B56038   4.440  36.353   7.350
 7663POPC   NC356039  23.712  41.574   5.550
 7663POPC   PO456040  23.693  41.563   5.850
 7663POPC   GL156041  23.714  41.546   6.150
 7663POPC   GL256042  23.802  41.613   6.150
 7663POPC   C1A56043  23.742  41.527   6.450
 7663POPC   D2A56044  23.737  41.596   6.750
 7663POPC   C3A56045  23.730  41.560   7.050
 7663POPC   C4A56046  23.676  41.568   7.350
 7663POPC   C1B56047  23.980  41.591   6.450
 7663POPC   C2B56048  23.953  41.645   6.750
 7663POPC   C3B56049  23.931  41.616   7.050
 7663POPC   C4B56050  23.996  41.619   7.350
 7664POPC   NC356051  31.446   2.029   5.550
 7664POPC   PO456052  31.437   2.007   5.850
 7664POPC   GL156053  31.437   1.989   6.150
 7664POPC   GL256054  31.533   2.082   6.150
 7664POPC   C1A56055  31.470   2.032   6.450
 7664POPC   D2A56056  31.459   2.021   6.750
 7664POPC   C3A56057  31.436   1.960   7.050
 7664POPC   C4A56058  31.471   2.011   7.350
 7664POPC   C1B56059  31.720   2.144   6.450
 7664POPC   C2B56060  31.692   2.104   6.750
 7664POPC   C3B56061  31.680   2.110   7.050
 7664POPC   C4B56062  31.698   2.122   7.350
 7665POPC   NC356063  12.871  33.836   5.550
 7665POPC   PO456064  12.826  33.767   5.850
 7665POPC   GL156065  12.867  33.790   6.150
 7665POPC   GL256066  12.693  33.785   6.150
 7665POPC   C1A56067  12.837  33.792   6.450
 7665POPC   D2A56068  12.815  33.779   6.750
 7665POPC   C3A56069  12.822  33.797   7.050
 7665POPC   C4A56070  12.865  33.817   7.350
 7665POPC   C1B56071  12.634  33.707   6.450
 7665POPC   C2B56072  12.588  33.700   6.750
 7665POPC   C3B56073  12.626  33.767   7.050
 7665POPC   C4B56074  12.590  33.761   7.350
 7666POPC   NC356075  29.176  22.187   5.550
 7666POPC   PO456076  29.182  22.156   5.850
 7666POPC   GL156077  29.121  22.195   6.150
 7666POPC   GL256078  29.036  22.139   6.150
 7666POPC   C1A56079  29.191  22.185   6.450
 7666POPC   D2A56080  29.171  22.149   6.750
 7666POPC   C3A56081  29.112  22.127   7.050
 7666POPC   C4A56082  29.112  22.123   7.350
 7666POPC   C1B56083  28.924  21.993   6.450
 7666POPC   C2B56084  28.951  22.047   6.750
 7666POPC   C3B56085  28.914  22.038   7.050
 7666POPC   C4B56086  28.953  22.055   7.350
 7667POPC   NC356087   6.606  43.138   5.550
 7667POPC   PO456088   6.655  43.098   5.850
 7667POPC   GL156089   6.642  43.130   6.150
 7667POPC   GL256090   6.718  43.145   6.150
 7667POPC   C1A56091   6.647  43.121   6.450
 7667POPC   D2A56092   6.632  43.121   6.750
 7667POPC   C3A56093   6.631  43.081   7.050
 7667POPC   C4A56094   6.644  43.110   7.350
 7667POPC   C1B56095   6.864  43.270   6.450
 7667POPC   C2B56096   6.836  43.290   6.750
 7667POPC   C3B56097   6.866  43.311   7.050
 7667POPC   C4B56098   6.795  43.310   7.350
 7668POPC   NC356099  25.259  29.143   5.550
 7668POPC   PO456100  25.301  29.122   5.850
 7668POPC   GL156101  25.230  29.128   6.150
 7668POPC   GL256102  25.389  29.179   6.150
 7668POPC   C1A56103  25.244  29.124   6.450
 7668POPC   D2A56104  25.305  29.113   6.750
 7668POPC   C3A56105  25.238  29.190   7.050
 7668POPC   C4A56106  25.223  29.103   7.350
 7668POPC   C1B56107  25.473  29.340   6.450
 7668POPC   C2B56108  25.477  29.246   6.750
 7668POPC   C3B56109  25.460  29.344   7.050
 7668POPC   C4B56110  25.469  29.319   7.350
 7669POPC   NC356111  25.296  27.604   5.550
 7669POPC   PO456112  25.218  27.621   5.850
 7669POPC   GL156113  25.287  27.625   6.150
 7669POPC   GL256114  25.326  27.724   6.150
 7669POPC   C1A56115  25.243  27.610   6.450
 7669POPC   D2A56116  25.294  27.549   6.750
 7669POPC   C3A56117  25.220  27.604   7.050
 7669POPC   C4A56118  25.312  27.578   7.350
 7669POPC   C1B56119  25.363  27.829   6.450
 7669POPC   C2B56120  25.395  27.787   6.750
 7669POPC   C3B56121  25.414  27.806   7.050
 7669POPC   C4B56122  25.399  27.836   7.350
 7670POPC   NC356123  34.604  27.626   5.550
 7670POPC   PO456124  34.617  27.632   5.850
 7670POPC   GL156125  34.579  27.566   6.150
 7670POPC   GL256126  34.650  27.545   6.150
 7670POPC   C1A56127  34.594  27.570   6.450
 7670POPC   D2A56128  34.608  27.628   6.750
 7670POPC   C3A56129  34.577  27.626   7.050
 7670POPC   C4A56130  34.576  27.603   7.350
 7670POPC   C1B56131  34.758  27.402   6.450
 7670POPC   C2B56132  34.767  27.442   6.750
 7670POPC   C3B56133  34.767  27.419   7.050
 7670POPC   C4B56134  34.718  27.386   7.350
 7671POPC   NC356135   2.737  10.512   5.550
 7671POPC   PO456136   2.809  10.562   5.850
 7671POPC   GL156137   2.717  10.526   6.150
 7671POPC   GL256138   2.685  10.616   6.150
 7671POPC   C1A56139   2.792  10.540   6.450
 7671POPC   D2A56140   2.780  10.494   6.750
 7671POPC   C3A56141   2.771  10.532   7.050
 7671POPC   C4A56142   2.801  10.518   7.350
 7671POPC   C1B56143   2.620  10.714   6.450
 7671POPC   C2B56144   2.564  10.756   6.750
 7671POPC   C3B56145   2.595  10.745   7.050
 7671POPC   C4B56146   2.557  10.691   7.350
 7672POPC   NC356147  21.431  16.770   5.550
 7672POPC   PO456148  21.373  16.753   5.850
 7672POPC   GL156149  21.382  16.765   6.150
 7672POPC   GL256150  21.348  16.855   6.150
 7672POPC   C1A56151  21.388  16.688   6.450
 7672POPC   D2A56152  21.357  16.720   6.750
 7672POPC   C3A56153  21.410  16.729   7.050
 7672POPC   C4A56154  21.381  16.734   7.350
 7672POPC   C1B56155  21.251  16.920   6.450
 7672POPC   C2B56156  21.267  16.908   6.750
 7672POPC   C3B56157  21.303  16.971   7.050
 7672POPC   C4B56158  21.245  16.945   7.350
 7673POPC   NC356159  18.257  26.781   5.550
 7673POPC   PO456160  18.287  26.860   5.850
 7673POPC   GL156161  18.322  26.802   6.150
 7673POPC   GL256162  18.162  26.786   6.150
 7673POPC   C1A56163  18.281  26.840   6.450
 7673POPC   D2A56164  18.304  26.777   6.750
 7673POPC   C3A56165  18.254  26.798   7.050
 7673POPC   C4A56166  18.233  26.847   7.350
 7673POPC   C1B56167  18.072  26.696   6.450
 7673POPC   C2B56168  18.044  26.699   6.750
 7673POPC   C3B56169  18.058  26.633   7.050
 7673POPC   C4B56170  18.068  26.701   7.350
 7674POPC   NC356171   8.937   8.954   5.550
 7674POPC   PO456172   9.013   9.001   5.850
 7674POPC   GL156173   8.958   8.984   6.150
 7674POPC   GL256174   8.996   9.092   6.150
 7674POPC   C1A56175   8.994   8.993   6.450
 7674POPC   D2A56176   8.934   8.924   6.750
 7674POPC   C3A56177   8.985   9.014   7.050
 7674POPC   C4A56178   9.006   8.997   7.350
 7674POPC   C1B56179   8.994   9.248   6.450
 7674POPC   C2B56180   9.022   9.240   6.750
 7674POPC   C3B56181   9.004   9.256   7.050
 7674POPC   C4B56182   9.005   9.173   7.350
 7675POPC   NC356183   5.882   0.404   5.550
 7675POPC   PO456184   5.837   0.470   5.850
 7675POPC   GL156185   5.849   0.393   6.150
 7675POPC   GL256186   5.967   0.415   6.150
 7675POPC   C1A56187   5.892   0.440   6.450
 7675POPC   D2A56188   5.915   0.419   6.750
 7675POPC   C3A56189   5.876   0.417   7.050
 7675POPC   C4A56190   5.878   0.432   7.350
 7675POPC   C1B56191   6.131   0.295   6.450
 7675POPC   C2B56192   6.074   0.330   6.750
 7675POPC   C3B56193   6.128   0.358   7.050
 7675POPC   C4B56194   6.070   0.318   7.350
 7676POPC   NC356195  29.954  33.828   5.550
 7676POPC   PO456196  29.920  33.811   5.850
 7676POPC   GL156197  29.880  33.827   6.150
 7676POPC   GL256198  29.785  33.810   6.150
 7676POPC   C1A56199  29.909  33.829   6.450
 7676POPC   D2A56200  29.970  33.807   6.750
 7676POPC   C3A56201  29.900  33.835   7.050
 7676POPC   C4A56202  29.928  33.804   7.350
 7676POPC   C1B56203  29.655  33.871   6.450
 7676POPC   C2B56204  29.699  33.901   6.750
 7676POPC   C3B56205  29.677  33.909   7.050
 7676POPC   C4B56206  29.684  33.870   7.350
 7677POPC   NC356207  32.992  29.903   5.550
 7677POPC   PO456208  33.008  29.904   5.850
 7677POPC   GL156209  33.048  29.957   6.150
 7677POPC   GL256210  32.995  30.031   6.150
 7677POPC   C1A56211  33.024  29.954   6.450
 7677POPC   D2A56212  33.010  29.960   6.750
 7677POPC   C3A56213  33.049  29.872   7.050
 7677POPC   C4A56214  33.052  29.955   7.350
 7677POPC   C1B56215  32.997  30.134   6.450
 7677POPC   C2B56216  32.960  30.135   6.750
 7677POPC   C3B56217  33.008  30.202   7.050
 7677POPC   C4B56218  33.005  30.130   7.350
 7678POPC   NC356219  21.382  36.158   5.550
 7678POPC   PO456220  21.355  36.124   5.850
 7678POPC   GL156221  21.387  36.149   6.150
 7678POPC   GL256222  21.249  36.212   6.150
 7678POPC   C1A56223  21.436  36.167   6.450
 7678POPC   D2A56224  21.343  36.161   6.750
 7678POPC   C3A56225  21.417  36.147   7.050
 7678POPC   C4A56226  21.429  36.117   7.350
 7678POPC   C1B56227  21.134  36.218   6.450
 7678POPC   C2B56228  21.189  36.264   6.750
 7678POPC   C3B56229  21.133  36.190   7.050
 7678POPC   C4B56230  21.104  36.205   7.350
 7679POPC   NC356231   1.247   8.945   5.550
 7679POPC   PO456232   1.254   8.943   5.850
 7679POPC   GL156233   1.216   9.006   6.150
 7679POPC   GL256234   1.264   8.869   6.150
 7679POPC   C1A56235   1.215   8.934   6.450
 7679POPC   D2A56236   1.171   8.936   6.750
 7679POPC   C3A56237   1.232   8.925   7.050
 7679POPC   C4A56238   1.214   8.993   7.350
 7679POPC   C1B56239   1.232   8.752   6.450
 7679POPC   C2B56240   1.242   8.688   6.750
 7679POPC   C3B56241   1.219   8.708   7.050
 7679POPC   C4B56242   1.264   8.769   7.350
 7680POPC   NC356243  12.033  22.184   5.550
 7680POPC   PO456244  12.085  22.196   5.850
 7680POPC   GL156245  12.027  22.180   6.150
 7680POPC   GL256246  11.937  22.167   6.150
 7680POPC   C1A56247  12.060  22.156   6.450
 7680POPC   D2A56248  12.069  22.179   6.750
 7680POPC   C3A56249  12.074  22.149   7.050
 7680POPC   C4A56250  12.124  22.182   7.350
 7680POPC   C1B56251  11.800  22.241   6.450
 7680POPC   C2B56252  11.854  22.207   6.750
 7680POPC   C3B56253  11.858  22.208   7.050
 7680POPC   C4B56254  11.873  22.161   7.350
 7681POPC   NC356255  43.847  10.572   5.550
 7681POPC   PO456256  43.904  10.516   5.850
 7681POPC   GL156257  43.885  10.528   6.150
 7681POPC   GL256258  43.800  10.512   6.150
 7681POPC   C1A56259  43.892  10.491   6.450
 7681POPC   D2A56260  43.840  10.494   6.750
 7681POPC   C3A56261  43.893  10.507   7.050
 7681POPC   C4A56262  43.844  10.544   7.350
 7681POPC   C1B56263  43.701  10.458   6.450
 7681POPC   C2B56264  43.695  10.383   6.750
 7681POPC   C3B56265  43.656  10.405   7.050
 7681POPC   C4B56266  43.686  10.379   7.350
 7682POPC   NC356267  24.456   1.182   5.550
 7682POPC   PO456268  24.496   1.178   5.850
 7682POPC   GL156269  24.481   1.259   6.150
 7682POPC   GL256270  24.572   1.169   6.150
 7682POPC   C1A56271  24.488   1.184   6.450
 7682POPC   D2A56272  24.511   1.210   6.750
 7682POPC   C3A56273  24.492   1.209   7.050
 7682POPC   C4A56274  24.504   1.197   7.350
 7682POPC   C1B56275  24.724   1.199   6.450
 7682POPC   C2B56276  24.743   1.165   6.750
 7682POPC   C3B56277  24.737   1.242   7.050
 7682POPC   C4B56278  24.779   1.183   7.350
 7683POPC   NC356279   8.189  29.128   5.550
 7683POPC   PO456280   8.191  29.124   5.850
 7683POPC   GL156281   8.207  29.149   6.150
 7683POPC   GL256282   8.338  29.185   6.150
 7683POPC   C1A56283   8.215  29.136   6.450
 7683POPC   D2A56284   8.176  29.191   6.750
 7683POPC   C3A56285   8.230  29.176   7.050
 7683POPC   C4A56286   8.199  29.106   7.350
 7683POPC   C1B56287   8.413  29.298   6.450
 7683POPC   C2B56288   8.446  29.238   6.750
 7683POPC   C3B56289   8.395  29.238   7.050
 7683POPC   C4B56290   8.422  29.282   7.350
 7684POPC   NC356291  38.485  14.356   5.550
 7684POPC   PO456292  38.412  14.364   5.850
 7684POPC   GL156293  38.472  14.399   6.150
 7684POPC   GL256294  38.421  14.462   6.150
 7684POPC   C1A56295  38.416  14.383   6.450
 7684POPC   D2A56296  38.473  14.420   6.750
 7684POPC   C3A56297  38.438  14.403   7.050
 7684POPC   C4A56298  38.485  14.379   7.350
 7684POPC   C1B56299  38.259  14.567   6.450
 7684POPC   C2B56300  38.295  14.573   6.750
 7684POPC   C3B56301  38.280  14.580   7.050
 7684POPC   C4B56302  38.292  14.572   7.350
 7685POPC   NC356303  15.206   2.770   5.550
 7685POPC   PO456304  15.217   2.778   5.850
 7685POPC   GL156305  15.153   2.748   6.150
 7685POPC   GL256306  15.228   2.683   6.150
 7685POPC   C1A56307  15.202   2.791   6.450
 7685POPC   D2A56308  15.152   2.744   6.750
 7685POPC   C3A56309  15.205   2.781   7.050
 7685POPC   C4A56310  15.216   2.757   7.350
 7685POPC   C1B56311  15.217   2.487   6.450
 7685POPC   C2B56312  15.250   2.488   6.750
 7685POPC   C3B56313  15.230   2.490   7.050
 7685POPC   C4B56314  15.285   2.565   7.350
 7686POPC   NC356315  33.051  44.624   5.550
 7686POPC   PO456316  33.027  44.677   5.850
 7686POPC   GL156317  33.020  44.673   6.150
 7686POPC   GL256318  33.124  44.772   6.150
 7686POPC   C1A56319  33.013  44.661   6.450
 7686POPC   D2A56320  33.030  44.618   6.750
 7686POPC   C3A56321  33.015  44.671   7.050
 7686POPC   C4A56322  33.069  44.619   7.350
 7686POPC   C1B56323  33.226  44.874   6.450
 7686POPC   C2B56324  33.220  44.799   6.750
 7686POPC   C3B56325  33.158  44.873   7.050
 7686POPC   C4B56326  33.160  44.800   7.350
 7687POPC   NC356327  39.222  14.399   5.550
 7687POPC   PO456328  39.190  14.447   5.850
 7687POPC   GL156329  39.185  14.378   6.150
 7687POPC   GL256330  39.069  14.318   6.150
 7687POPC   C1A56331  39.266  14.401   6.450
 7687POPC   D2A56332  39.267  14.447   6.750
 7687POPC   C3A56333  39.249  14.398   7.050
 7687POPC   C4A56334  39.248  14.382   7.350
 7687POPC   C1B56335  39.012  14.373   6.450
 7687POPC   C2B56336  39.024  14.339   6.750
 7687POPC   C3B56337  39.026  14.314   7.050
 7687POPC   C4B56338  38.966  14.354   7.350
 7688POPC   NC356339  23.666  27.635   5.550
 7688POPC   PO456340  23.683  27.621   5.850
 7688POPC   GL156341  23.724  27.612   6.150
 7688POPC   GL256342  23.880  27.611   6.150
 7688POPC   C1A56343  23.699  27.544   6.450
 7688POPC   D2A56344  23.689  27.588   6.750
 7688POPC   C3A56345  23.714  27.576   7.050
 7688POPC   C4A56346  23.737  27.608   7.350
 7688POPC   C1B56347  23.973  27.601   6.450
 7688POPC   C2B56348  23.961  27.619   6.750
 7688POPC   C3B56349  24.004  27.601   7.050
 7688POPC   C4B56350  23.918  27.648   7.350
 7689POPC   NC356351  44.650   5.109   5.550
 7689POPC   PO456352  44.670   5.118   5.850
 7689POPC   GL156353  44.665   5.061   6.150
 7689POPC   GL256354  44.583   5.172   6.150
 7689POPC   C1A56355  44.638   5.044   6.450
 7689POPC   D2A56356  44.690   5.112   6.750
 7689POPC   C3A56357  44.684   5.106   7.050
 7689POPC   C4A56358  44.630   5.129   7.350
 7689POPC   C1B56359  44.511   5.226   6.450
 7689POPC   C2B56360  44.508   5.223   6.750
 7689POPC   C3B56361  44.449   5.246   7.050
 7689POPC   C4B56362  44.477   5.215   7.350
 7690POPC   NC356363  11.262  23.721   5.550
 7690POPC   PO456364  11.294  23.753   5.850
 7690POPC   GL156365  11.300  23.734   6.150
 7690POPC   GL256366  11.405  23.610   6.150
 7690POPC   C1A56367  11.286  23.710   6.450
 7690POPC   D2A56368  11.281  23.723   6.750
 7690POPC   C3A56369  11.279  23.752   7.050
 7690POPC   C4A56370  11.256  23.670   7.350
 7690POPC   C1B56371  11.466  23.520   6.450
 7690POPC   C2B56372  11.484  23.600   6.750
 7690POPC   C3B56373  11.533  23.539   7.050
 7690POPC   C4B56374  11.492  23.558   7.350
 7691POPC   NC356375  13.621   7.463   5.550
 7691POPC   PO456376  13.583   7.373   5.850
 7691POPC   GL156377  13.656   7.375   6.150
 7691POPC   GL256378  13.715   7.289   6.150
 7691POPC   C1A56379  13.674   7.406   6.450
 7691POPC   D2A56380  13.614   7.389   6.750
 7691POPC   C3A56381  13.601   7.426   7.050
 7691POPC   C4A56382  13.625   7.459   7.350
 7691POPC   C1B56383  13.713   7.174   6.450
 7691POPC   C2B56384  13.694   7.233   6.750
 7691POPC   C3B56385  13.748   7.223   7.050
 7691POPC   C4B56386  13.750   7.211   7.350
 7692POPC   NC356387  41.560   6.604   5.550
 7692POPC   PO456388  41.520   6.637   5.850
 7692POPC   GL156389  41.515   6.628   6.150
 7692POPC   GL256390  41.566   6.484   6.150
 7692POPC   C1A56391  41.551   6.601   6.450
 7692POPC   D2A56392  41.559   6.679   6.750
 7692POPC   C3A56393  41.567   6.628   7.050
 7692POPC   C4A56394  41.514   6.662   7.350
 7692POPC   C1B56395  41.594   6.373   6.450
 7692POPC   C2B56396  41.581   6.386   6.750
 7692POPC   C3B56397  41.623   6.440   7.050
 7692POPC   C4B56398  41.628   6.411   7.350
 7693POPC   NC356399  21.390  40.737   5.550
 7693POPC   PO456400  21.365  40.763   5.850
 7693POPC   GL156401  21.357  40.795   6.150
 7693POPC   GL256402  21.371  40.937   6.150
 7693POPC   C1A56403  21.428  40.814   6.450
 7693POPC   D2A56404  21.406  40.752   6.750
 7693POPC   C3A56405  21.405  40.806   7.050
 7693POPC   C4A56406  21.435  40.821   7.350
 7693POPC   C1B56407  21.356  41.032   6.450
 7693POPC   C2B56408  21.315  41.050   6.750
 7693POPC   C3B56409  21.264  40.970   7.050
 7693POPC   C4B56410  21.306  41.043   7.350
 7694POPC   NC356411   8.987  42.328   5.550
 7694POPC   PO456412   8.942  42.340   5.850
 7694POPC   GL156413   8.956  42.360   6.150
 7694POPC   GL256414   8.929  42.406   6.150
 7694POPC   C1A56415   8.923  42.346   6.450
 7694POPC   D2A56416   8.987  42.324   6.750
 7694POPC   C3A56417   8.948  42.317   7.050
 7694POPC   C4A56418   9.014  42.321   7.350
 7694POPC   C1B56419   8.852  42.528   6.450
 7694POPC   C2B56420   8.824  42.546   6.750
 7694POPC   C3B56421   8.788  42.566   7.050
 7694POPC   C4B56422   8.883  42.576   7.350
 7695POPC   NC356423  26.068  43.151   5.550
 7695POPC   PO456424  26.063  43.159   5.850
 7695POPC   GL156425  26.019  43.067   6.150
 7695POPC   GL256426  25.968  43.038   6.150
 7695POPC   C1A56427  26.040  43.089   6.450
 7695POPC   D2A56428  26.018  43.135   6.750
 7695POPC   C3A56429  26.040  43.113   7.050
 7695POPC   C4A56430  26.056  43.075   7.350
 7695POPC   C1B56431  25.841  43.034   6.450
 7695POPC   C2B56432  25.830  43.047   6.750
 7695POPC   C3B56433  25.809  43.008   7.050
 7695POPC   C4B56434  25.852  43.034   7.350
 7696POPC   NC356435  33.053  22.939   5.550
 7696POPC   PO456436  33.017  22.947   5.850
 7696POPC   GL156437  32.996  22.893   6.150
 7696POPC   GL256438  32.945  22.944   6.150
 7696POPC   C1A56439  33.070  22.927   6.450
 7696POPC   D2A56440  33.018  22.927   6.750
 7696POPC   C3A56441  33.014  22.892   7.050
 7696POPC   C4A56442  33.018  22.945   7.350
 7696POPC   C1B56443  32.796  23.069   6.450
 7696POPC   C2B56444  32.763  22.989   6.750
 7696POPC   C3B56445  32.805  23.026   7.050
 7696POPC   C4B56446  32.810  22.983   7.350
 7697POPC   NC356447  15.959  39.998   5.550
 7697POPC   PO456448  15.926  39.963   5.850
 7697POPC   GL156449  15.942  39.988   6.150
 7697POPC   GL256450  15.945  39.867   6.150
 7697POPC   C1A56451  15.963  40.034   6.450
 7697POPC   D2A56452  15.953  39.999   6.750
 7697POPC   C3A56453  15.980  40.002   7.050
 7697POPC   C4A56454  15.948  39.963   7.350
 7697POPC   C1B56455  15.874  39.744   6.450
 7697POPC   C2B56456  15.887  39.796   6.750
 7697POPC   C3B56457  15.915  39.798   7.050
 7697POPC   C4B56458  15.888  39.768   7.350
 7698POPC   NC356459  26.072  21.420   5.550
 7698POPC   PO456460  26.050  21.376   5.850
 7698POPC   GL156461  26.060  21.373   6.150
 7698POPC   GL256462  25.889  21.411   6.150
 7698POPC   C1A56463  26.068  21.424   6.450
 7698POPC   D2A56464  26.043  21.338   6.750
 7698POPC   C3A56465  26.036  21.434   7.050
 7698POPC   C4A56466  26.069  21.423   7.350
 7698POPC   C1B56467  25.829  21.446   6.450
 7698POPC   C2B56468  25.768  21.437   6.750
 7698POPC   C3B56469  25.812  21.496   7.050
 7698POPC   C4B56470  25.816  21.491   7.350
 7699POPC   NC356471  29.131  19.796   5.550
 7699POPC   PO456472  29.142  19.837   5.850
 7699POPC   GL156473  29.100  19.789   6.150
 7699POPC   GL256474  29.247  19.751   6.150
 7699POPC   C1A56475  29.184  19.848   6.450
 7699POPC   D2A56476  29.109  19.801   6.750
 7699POPC   C3A56477  29.131  19.828   7.050
 7699POPC   C4A56478  29.150  19.809   7.350
 7699POPC   C1B56479  29.316  19.641   6.450
 7699POPC   C2B56480  29.274  19.609   6.750
 7699POPC   C3B56481  29.345  19.696   7.050
 7699POPC   C4B56482  29.317  19.638   7.350
 7700POPC   NC356483  12.889  22.963   5.550
 7700POPC   PO456484  12.858  22.925   5.850
 7700POPC   GL156485  12.828  22.946   6.150
 7700POPC   GL256486  13.009  22.888   6.150
 7700POPC   C1A56487  12.897  22.967   6.450
 7700POPC   D2A56488  12.870  22.963   6.750
 7700POPC   C3A56489  12.853  22.946   7.050
 7700POPC   C4A56490  12.830  22.894   7.350
 7700POPC   C1B56491  13.119  22.832   6.450
 7700POPC   C2B56492  13.083  22.838   6.750
 7700POPC   C3B56493  13.048  22.857   7.050
 7700POPC   C4B56494  13.041  22.794   7.350
 7701POPC   NC356495  16.714  20.624   5.550
 7701POPC   PO456496  16.719  20.577   5.850
 7701POPC   GL156497  16.696  20.573   6.150
 7701POPC   GL256498  16.796  20.681   6.150
 7701POPC   C1A56499  16.739  20.563   6.450
 7701POPC   D2A56500  16.763  20.581   6.750
 7701POPC   C3A56501  16.687  20.573   7.050
 7701POPC   C4A56502  16.741  20.621   7.350
 7701POPC   C1B56503  16.823  20.800   6.450
 7701POPC   C2B56504  16.787  20.819   6.750
 7701POPC   C3B56505  16.873  20.799   7.050
 7701POPC   C4B56506  16.853  20.812   7.350
 7702POPC   NC356507  34.590  36.145   5.550
 7702POPC   PO456508  34.578  36.088   5.850
 7702POPC   GL156509  34.554  36.108   6.150
 7702POPC   GL256510  34.421  36.150   6.150
 7702POPC   C1A56511  34.575  36.138   6.450
 7702POPC   D2A56512  34.545  36.110   6.750
 7702POPC   C3A56513  34.584  36.094   7.050
 7702POPC   C4A56514  34.539  36.173   7.350
 7702POPC   C1B56515  34.290  36.057   6.450
 7702POPC   C2B56516  34.353  36.070   6.750
 7702POPC   C3B56517  34.306  36.103   7.050
 7702POPC   C4B56518  34.287  36.087   7.350
 7703POPC   NC356519   1.962   8.985   5.550
 7703POPC   PO456520   1.951   8.935   5.850
 7703POPC   GL156521   2.005   8.980   6.150
 7703POPC   GL256522   2.066   9.067   6.150
 7703POPC   C1A56523   1.957   8.959   6.450
 7703POPC   D2A56524   1.941   9.022   6.750
 7703POPC   C3A56525   2.000   9.004   7.050
 7703POPC   C4A56526   2.009   8.979   7.350
 7703POPC   C1B56527   2.168   9.137   6.450
 7703POPC   C2B56528   2.160   9.205   6.750
 7703POPC   C3B56529   2.119   9.198   7.050
 7703POPC   C4B56530   2.198   9.204   7.350
 7704POPC   NC356531   5.886  14.376   5.550
 7704POPC   PO456532   5.882  14.425   5.850
 7704POPC   GL156533   5.862  14.444   6.150
 7704POPC   GL256534   5.776  14.349   6.150
 7704POPC   C1A56535   5.868  14.430   6.450
 7704POPC   D2A56536   5.892  14.415   6.750
 7704POPC   C3A56537   5.831  14.413   7.050
 7704POPC   C4A56538   5.917  14.441   7.350
 7704POPC   C1B56539   5.644  14.311   6.450
 7704POPC   C2B56540   5.671  14.390   6.750
 7704POPC   C3B56541   5.664  14.374   7.050
 7704POPC   C4B56542   5.610  14.304   7.350
 7705POPC   NC356543  26.081  18.267   5.550
 7705POPC   PO456544  26.081  18.262   5.850
 7705POPC   GL156545  26.045  18.331   6.150
 7705POPC   GL256546  26.162  18.407   6.150
 7705POPC   C1A56547  26.049  18.302   6.450
 7705POPC   D2A56548  26.073  18.308   6.750
 7705POPC   C3A56549  26.052  18.308   7.050
 7705POPC   C4A56550  26.049  18.260   7.350
 7705POPC   C1B56551  26.251  18.497   6.450
 7705POPC   C2B56552  26.232  18.484   6.750
 7705POPC   C3B56553  26.246  18.478   7.050
 7705POPC   C4B56554  26.221  18.494   7.350
 7706POPC   NC356555  43.903   6.614   5.550
 7706POPC   PO456556  43.840   6.686   5.850
 7706POPC   GL156557  43.928   6.602   6.150
 7706POPC   GL256558  43.845   6.531   6.150
 7706POPC   C1A56559  43.915   6.620   6.450
 7706POPC   D2A56560  43.863   6.598   6.750
 7706POPC   C3A56561  43.896   6.609   7.050
 7706POPC   C4A56562  43.917   6.652   7.350
 7706POPC   C1B56563  43.866   6.376   6.450
 7706POPC   C2B56564  43.848   6.440   6.750
 7706POPC   C3B56565  43.851   6.381   7.050
 7706POPC   C4B56566  43.801   6.385   7.350
 7707POPC   NC356567  43.091   9.744   5.550
 7707POPC   PO456568  43.133   9.753   5.850
 7707POPC   GL156569  43.066   9.724   6.150
 7707POPC   GL256570  43.091   9.907   6.150
 7707POPC   C1A56571  43.160   9.740   6.450
 7707POPC   D2A56572  43.135   9.787   6.750
 7707POPC   C3A56573  43.113   9.770   7.050
 7707POPC   C4A56574  43.080   9.700   7.350
 7707POPC   C1B56575  43.022   9.993   6.450
 7707POPC   C2B56576  42.994  10.000   6.750
 7707POPC   C3B56577  43.051   9.976   7.050
 7707POPC   C4B56578  43.019   9.970   7.350
 7708POPC   NC356579  44.672  13.609   5.550
 7708POPC   PO456580  44.704  13.677   5.850
 7708POPC   GL156581  44.646  13.594   6.150
 7708POPC   GL256582  44.565  13.708   6.150
 7708POPC   C1A56583  44.709  13.636   6.450
 7708POPC   D2A56584  44.668  13.584   6.750
 7708POPC   C3A56585  44.617  13.599   7.050
 7708POPC   C4A56586  44.710  13.622   7.350
 7708POPC   C1B56587  44.490  13.789   6.450
 7708POPC   C2B56588  44.411  13.784   6.750
 7708POPC   C3B56589  44.420  13.794   7.050
 7708POPC   C4B56590  44.486  13.698   7.350
 7709POPC   NC356591   1.983  31.480   5.550
 7709POPC   PO456592   1.979  31.450   5.850
 7709POPC   GL156593   1.995  31.473   6.150
 7709POPC   GL256594   1.823  31.513   6.150
 7709POPC   C1A56595   1.998  31.516   6.450
 7709POPC   D2A56596   1.988  31.512   6.750
 7709POPC   C3A56597   2.031  31.423   7.050
 7709POPC   C4A56598   1.947  31.429   7.350
 7709POPC   C1B56599   1.734  31.537   6.450
 7709POPC   C2B56600   1.702  31.529   6.750
 7709POPC   C3B56601   1.780  31.577   7.050
 7709POPC   C4B56602   1.718  31.568   7.350
 7710POPC   NC356603   9.734   5.842   5.550
 7710POPC   PO456604   9.698   5.869   5.850
 7710POPC   GL156605   9.731   5.875   6.150
 7710POPC   GL256606   9.764   6.041   6.150
 7710POPC   C1A56607   9.781   5.857   6.450
 7710POPC   D2A56608   9.782   5.847   6.750
 7710POPC   C3A56609   9.782   5.858   7.050
 7710POPC   C4A56610   9.755   5.893   7.350
 7710POPC   C1B56611   9.724   6.093   6.450
 7710POPC   C2B56612   9.764   6.125   6.750
 7710POPC   C3B56613   9.721   6.162   7.050
 7710POPC   C4B56614   9.732   6.090   7.350
 7711POPC   NC356615  31.452  43.096   5.550
 7711POPC   PO456616  31.486  43.084   5.850
 7711POPC   GL156617  31.479  43.073   6.150
 7711POPC   GL256618  31.510  43.018   6.150
 7711POPC   C1A56619  31.435  43.065   6.450
 7711POPC   D2A56620  31.467  43.113   6.750
 7711POPC   C3A56621  31.470  43.071   7.050
 7711POPC   C4A56622  31.454  43.129   7.350
 7711POPC   C1B56623  31.559  42.896   6.450
 7711POPC   C2B56624  31.521  42.892   6.750
 7711POPC   C3B56625  31.483  42.867   7.050
 7711POPC   C4B56626  31.537  42.871   7.350
 7712POPC   NC356627  41.576  25.259   5.550
 7712POPC   PO456628  41.563  25.247   5.850
 7712POPC   GL156629  41.565  25.309   6.150
 7712POPC   GL256630  41.514  25.169   6.150
 7712POPC   C1A56631  41.520  25.223   6.450
 7712POPC   D2A56632  41.574  25.305   6.750
 7712POPC   C3A56633  41.539  25.235   7.050
 7712POPC   C4A56634  41.591  25.229   7.350
 7712POPC   C1B56635  41.391  25.075   6.450
 7712POPC   C2B56636  41.377  25.095   6.750
 7712POPC   C3B56637  41.394  25.070   7.050
 7712POPC   C4B56638  41.444  25.081   7.350
 7713POPC   NC356639  15.149  20.629   5.550
 7713POPC   PO456640  15.169  20.642   5.850
 7713POPC   GL156641  15.217  20.643   6.150
 7713POPC   GL256642  15.124  20.452   6.150
 7713POPC   C1A56643  15.192  20.658   6.450
 7713POPC   D2A56644  15.228  20.562   6.750
 7713POPC   C3A56645  15.176  20.620   7.050
 7713POPC   C4A56646  15.216  20.629   7.350
 7713POPC   C1B56647  15.183  20.339   6.450
 7713POPC   C2B56648  15.176  20.343   6.750
 7713POPC   C3B56649  15.127  20.347   7.050
 7713POPC   C4B56650  15.103  20.342   7.350
 7714POPC   NC356651  22.896  15.148   5.550
 7714POPC   PO456652  22.913  15.157   5.850
 7714POPC   GL156653  22.915  15.181   6.150
 7714POPC   GL256654  22.791  15.190   6.150
 7714POPC   C1A56655  22.966  15.219   6.450
 7714POPC   D2A56656  22.900  15.171   6.750
 7714POPC   C3A56657  22.928  15.172   7.050
 7714POPC   C4A56658  22.922  15.199   7.350
 7714POPC   C1B56659  22.662  15.207   6.450
 7714POPC   C2B56660  22.665  15.159   6.750
 7714POPC   C3B56661  22.665  15.176   7.050
 7714POPC   C4B56662  22.688  15.142   7.350
 7715POPC   NC356663   4.363   7.373   5.550
 7715POPC   PO456664   4.271   7.412   5.850
 7715POPC   GL156665   4.351   7.405   6.150
 7715POPC   GL256666   4.273   7.489   6.150
 7715POPC   C1A56667   4.281   7.430   6.450
 7715POPC   D2A56668   4.312   7.415   6.750
 7715POPC   C3A56669   4.306   7.467   7.050
 7715POPC   C4A56670   4.327   7.373   7.350
 7715POPC   C1B56671   4.114   7.623   6.450
 7715POPC   C2B56672   4.110   7.577   6.750
 7715POPC   C3B56673   4.146   7.582   7.050
 7715POPC   C4B56674   4.178   7.574   7.350
 7716POPC   NC356675  37.680  29.192   5.550
 7716POPC   PO456676  37.647  29.149   5.850
 7716POPC   GL156677  37.720  29.124   6.150
 7716POPC   GL256678  37.750  29.085   6.150
 7716POPC   C1A56679  37.696  29.102   6.450
 7716POPC   D2A56680  37.720  29.153   6.750
 7716POPC   C3A56681  37.678  29.159   7.050
 7716POPC   C4A56682  37.656  29.116   7.350
 7716POPC   C1B56683  37.918  28.972   6.450
 7716POPC   C2B56684  37.845  28.996   6.750
 7716POPC   C3B56685  37.875  28.982   7.050
 7716POPC   C4B56686  37.918  29.005   7.350
 7717POPC   NC356687  13.606  37.717   5.550
 7717POPC   PO456688  13.583  37.698   5.850
 7717POPC   GL156689  13.666  37.650   6.150
 7717POPC   GL256690  13.704  37.604   6.150
 7717POPC   C1A56691  13.644  37.657   6.450
 7717POPC   D2A56692  13.589  37.640   6.750
 7717POPC   C3A56693  13.598  37.651   7.050
 7717POPC   C4A56694  13.587  37.669   7.350
 7717POPC   C1B56695  13.858  37.640   6.450
 7717POPC   C2B56696  13.831  37.643   6.750
 7717POPC   C3B56697  13.882  37.654   7.050
 7717POPC   C4B56698  13.892  37.615   7.350
 7718POPC   NC356699  35.324  36.896   5.550
 7718POPC   PO456700  35.318  36.932   5.850
 7718POPC   GL156701  35.380  36.947   6.150
 7718POPC   GL256702  35.397  36.945   6.150
 7718POPC   C1A56703  35.357  36.877   6.450
 7718POPC   D2A56704  35.360  36.884   6.750
 7718POPC   C3A56705  35.398  36.941   7.050
 7718POPC   C4A56706  35.318  36.944   7.350
 7718POPC   C1B56707  35.549  37.041   6.450
 7718POPC   C2B56708  35.503  37.107   6.750
 7718POPC   C3B56709  35.509  37.117   7.050
 7718POPC   C4B56710  35.580  37.025   7.350
 7719POPC   NC356711  21.409  34.537   5.550
 7719POPC   PO456712  21.354  34.557   5.850
 7719POPC   GL156713  21.418  34.568   6.150
 7719POPC   GL256714  21.344  34.676   6.150
 7719POPC   C1A56715  21.416  34.541   6.450
 7719POPC   D2A56716  21.409  34.574   6.750
 7719POPC   C3A56717  21.364  34.611   7.050
 7719POPC   C4A56718  21.423  34.609   7.350
 7719POPC   C1B56719  21.280  34.823   6.450
 7719POPC   C2B56720  21.271  34.836   6.750
 7719POPC   C3B56721  21.265  34.794   7.050
 7719POPC   C4B56722  21.226  34.805   7.350
 7720POPC   NC356723   8.924  21.375   5.550
 7720POPC   PO456724   8.975  21.362   5.850
 7720POPC   GL156725   9.013  21.379   6.150
 7720POPC   GL256726   9.053  21.449   6.150
 7720POPC   C1A56727   8.981  21.387   6.450
 7720POPC   D2A56728   8.940  21.396   6.750
 7720POPC   C3A56729   8.959  21.362   7.050
 7720POPC   C4A56730   8.924  21.407   7.350
 7720POPC   C1B56731   9.086  21.581   6.450
 7720POPC   C2B56732   9.153  21.551   6.750
 7720POPC   C3B56733   9.067  21.609   7.050
 7720POPC   C4B56734   9.095  21.579   7.350
 7721POPC   NC356735  12.816  39.248   5.550
 7721POPC   PO456736  12.891  39.267   5.850
 7721POPC   GL156737  12.834  39.202   6.150
 7721POPC   GL256738  12.821  39.343   6.150
 7721POPC   C1A56739  12.857  39.203   6.450
 7721POPC   D2A56740  12.864  39.272   6.750
 7721POPC   C3A56741  12.900  39.202   7.050
 7721POPC   C4A56742  12.887  39.216   7.350
 7721POPC   C1B56743  12.760  39.445   6.450
 7721POPC   C2B56744  12.745  39.411   6.750
 7721POPC   C3B56745  12.714  39.478   7.050
 7721POPC   C4B56746  12.769  39.451   7.350
 7722POPC   NC356747  44.639   1.214   5.550
 7722POPC   PO456748  44.622   1.202   5.850
 7722POPC   GL156749  44.641   1.258   6.150
 7722POPC   GL256750  44.595   1.117   6.150
 7722POPC   C1A56751  44.667   1.175   6.450
 7722POPC   D2A56752  44.629   1.197   6.750
 7722POPC   C3A56753  44.622   1.233   7.050
 7722POPC   C4A56754  44.646   1.242   7.350
 7722POPC   C1B56755  44.493   0.999   6.450
 7722POPC   C2B56756  44.509   1.035   6.750
 7722POPC   C3B56757  44.522   1.054   7.050
 7722POPC   C4B56758  44.530   1.034   7.350
 7723POPC   NC356759   1.240  25.251   5.550
 7723POPC   PO456760   1.209  25.294   5.850
 7723POPC   GL156761   1.187  25.273   6.150
 7723POPC   GL256762   1.088  25.239   6.150
 7723POPC   C1A56763   1.257  25.302   6.450
 7723POPC   D2A56764   1.218  25.314   6.750
 7723POPC   C3A56765   1.247  25.256   7.050
 7723POPC   C4A56766   1.180  25.306   7.350
 7723POPC   C1B56767   0.951  25.166   6.450
 7723POPC   C2B56768   1.009  25.097   6.750
 7723POPC   C3B56769   1.037  25.131   7.050
 7723POPC   C4B56770   0.991  25.194   7.350
 7724POPC   NC356771  38.420  32.295   5.550
 7724POPC   PO456772  38.453  32.222   5.850
 7724POPC   GL156773  38.503  32.260   6.150
 7724POPC   GL256774  38.616  32.223   6.150
 7724POPC   C1A56775  38.479  32.256   6.450
 7724POPC   D2A56776  38.467  32.273   6.750
 7724POPC   C3A56777  38.469  32.294   7.050
 7724POPC   C4A56778  38.410  32.207   7.350
 7724POPC   C1B56779  38.710  32.296   6.450
 7724POPC   C2B56780  38.707  32.315   6.750
 7724POPC   C3B56781  38.677  32.314   7.050
 7724POPC   C4B56782  38.697  32.269   7.350
 7725POPC   NC356783  22.969  39.188   5.550
 7725POPC   PO456784  22.957  39.274   5.850
 7725POPC   GL156785  22.921  39.220   6.150
 7725POPC   GL256786  22.954  39.357   6.150
 7725POPC   C1A56787  22.944  39.252   6.450
 7725POPC   D2A56788  22.940  39.225   6.750
 7725POPC   C3A56789  22.896  39.205   7.050
 7725POPC   C4A56790  22.963  39.273   7.350
 7725POPC   C1B56791  22.918  39.492   6.450
 7725POPC   C2B56792  22.900  39.498   6.750
 7725POPC   C3B56793  22.900  39.473   7.050
 7725POPC   C4B56794  22.907  39.519   7.350
 7726POPC   NC356795  34.536  18.262   5.550
 7726POPC   PO456796  34.556  18.321   5.850
 7726POPC   GL156797  34.553  18.328   6.150
 7726POPC   GL256798  34.609  18.363   6.150
 7726POPC   C1A56799  34.592  18.259   6.450
 7726POPC   D2A56800  34.568  18.264   6.750
 7726POPC   C3A56801  34.626  18.280   7.050
 7726POPC   C4A56802  34.537  18.273   7.350
 7726POPC   C1B56803  34.543  18.512   6.450
 7726POPC   C2B56804  34.555  18.510   6.750
 7726POPC   C3B56805  34.602  18.544   7.050
 7726POPC   C4B56806  34.608  18.568   7.350
 7727POPC   NC356807  32.278  18.233   5.550
 7727POPC   PO456808  32.247  18.265   5.850
 7727POPC   GL156809  32.258  18.293   6.150
 7727POPC   GL256810  32.339  18.224   6.150
 7727POPC   C1A56811  32.251  18.271   6.450
 7727POPC   D2A56812  32.216  18.314   6.750
 7727POPC   C3A56813  32.232  18.300   7.050
 7727POPC   C4A56814  32.233  18.234   7.350
 7727POPC   C1B56815  32.511  18.219   6.450
 7727POPC   C2B56816  32.514  18.197   6.750
 7727POPC   C3B56817  32.509  18.188   7.050
 7727POPC   C4B56818  32.524  18.184   7.350
 7728POPC   NC356819  16.725   5.913   5.550
 7728POPC   PO456820  16.703   5.873   5.850
 7728POPC   GL156821  16.684   5.911   6.150
 7728POPC   GL256822  16.852   5.970   6.150
 7728POPC   C1A56823  16.749   5.897   6.450
 7728POPC   D2A56824  16.681   5.900   6.750
 7728POPC   C3A56825  16.742   5.831   7.050
 7728POPC   C4A56826  16.697   5.863   7.350
 7728POPC   C1B56827  16.948   6.080   6.450
 7728POPC   C2B56828  16.862   6.000   6.750
 7728POPC   C3B56829  16.939   6.053   7.050
 7728POPC   C4B56830  16.876   6.093   7.350
 7729POPC   NC356831  41.559  44.707   5.550
 7729POPC   PO456832  41.525  44.632   5.850
 7729POPC   GL156833  41.544  44.640   6.150
 7729POPC   GL256834  41.528  44.489   6.150
 7729POPC   C1A56835  41.586  44.644   6.450
 7729POPC   D2A56836  41.517  44.684   6.750
 7729POPC   C3A56837  41.566  44.663   7.050
 7729POPC   C4A56838  41.593  44.617   7.350
 7729POPC   C1B56839  41.545  44.385   6.450
 7729POPC   C2B56840  41.506  44.429   6.750
 7729POPC   C3B56841  41.506  44.417   7.050
 7729POPC   C4B56842  41.486  44.455   7.350
 7730POPC   NC356843  40.828  23.758   5.550
 7730POPC   PO456844  40.747  23.762   5.850
 7730POPC   GL156845  40.802  23.677   6.150
 7730POPC   GL256846  40.781  23.808   6.150
 7730POPC   C1A56847  40.745  23.686   6.450
 7730POPC   D2A56848  40.829  23.716   6.750
 7730POPC   C3A56849  40.790  23.712   7.050
 7730POPC   C4A56850  40.777  23.749   7.350
 7730POPC   C1B56851  40.772  23.938   6.450
 7730POPC   C2B56852  40.839  23.982   6.750
 7730POPC   C3B56853  40.764  23.981   7.050
 7730POPC   C4B56854  40.754  23.967   7.350
 7731POPC   NC356855  14.387  40.785   5.550
 7731POPC   PO456856  14.378  40.790   5.850
 7731POPC   GL156857  14.367  40.751   6.150
 7731POPC   GL256858  14.280  40.856   6.150
 7731POPC   C1A56859  14.384  40.773   6.450
 7731POPC   D2A56860  14.448  40.791   6.750
 7731POPC   C3A56861  14.358  40.818   7.050
 7731POPC   C4A56862  14.430  40.817   7.350
 7731POPC   C1B56863  14.206  40.834   6.450
 7731POPC   C2B56864  14.215  40.868   6.750
 7731POPC   C3B56865  14.177  40.877   7.050
 7731POPC   C4B56866  14.196  40.897   7.350
 7732POPC   NC356867   1.177   2.725   5.550
 7732POPC   PO456868   1.206   2.772   5.850
 7732POPC   GL156869   1.240   2.812   6.150
 7732POPC   GL256870   1.132   2.776   6.150
 7732POPC   C1A56871   1.226   2.784   6.450
 7732POPC   D2A56872   1.218   2.739   6.750
 7732POPC   C3A56873   1.260   2.788   7.050
 7732POPC   C4A56874   1.201   2.793   7.350
 7732POPC   C1B56875   1.005   2.754   6.450
 7732POPC   C2B56876   0.978   2.792   6.750
 7732POPC   C3B56877   0.969   2.753   7.050
 7732POPC   C4B56878   0.972   2.742   7.350
 7733POPC   NC356879  19.838  12.102   5.550
 7733POPC   PO456880  19.808  12.072   5.850
 7733POPC   GL156881  19.826  12.094   6.150
 7733POPC   GL256882  19.895  12.133   6.150
 7733POPC   C1A56883  19.809  12.063   6.450
 7733POPC   D2A56884  19.792  12.109   6.750
 7733POPC   C3A56885  19.825  12.110   7.050
 7733POPC   C4A56886  19.882  12.097   7.350
 7733POPC   C1B56887  20.024  12.248   6.450
 7733POPC   C2B56888  20.022  12.245   6.750
 7733POPC   C3B56889  19.978  12.234   7.050
 7733POPC   C4B56890  19.997  12.261   7.350
 7734POPC   NC356891  38.442  22.112   5.550
 7734POPC   PO456892  38.408  22.175   5.850
 7734POPC   GL156893  38.444  22.170   6.150
 7734POPC   GL256894  38.365  22.079   6.150
 7734POPC   C1A56895  38.461  22.175   6.450
 7734POPC   D2A56896  38.446  22.154   6.750
 7734POPC   C3A56897  38.451  22.126   7.050
 7734POPC   C4A56898  38.420  22.185   7.350
 7734POPC   C1B56899  38.248  22.031   6.450
 7734POPC   C2B56900  38.275  21.993   6.750
 7734POPC   C3B56901  38.239  21.994   7.050
 7734POPC   C4B56902  38.216  21.991   7.350
 7735POPC   NC356903  29.962  38.485   5.550
 7735POPC   PO456904  29.967  38.406   5.850
 7735POPC   GL156905  29.907  38.417   6.150
 7735POPC   GL256906  29.890  38.578   6.150
 7735POPC   C1A56907  29.895  38.443   6.450
 7735POPC   D2A56908  29.943  38.419   6.750
 7735POPC   C3A56909  29.942  38.497   7.050
 7735POPC   C4A56910  29.895  38.437   7.350
 7735POPC   C1B56911  29.907  38.651   6.450
 7735POPC   C2B56912  29.879  38.716   6.750
 7735POPC   C3B56913  29.843  38.657   7.050
 7735POPC   C4B56914  29.843  38.747   7.350
 7736POPC   NC356915   1.960  12.102   5.550
 7736POPC   PO456916   1.989  12.104   5.850
 7736POPC   GL156917   1.969  12.087   6.150
 7736POPC   GL256918   2.030  12.215   6.150
 7736POPC   C1A56919   2.003  12.062   6.450
 7736POPC   D2A56920   1.999  12.072   6.750
 7736POPC   C3A56921   1.994  12.092   7.050
 7736POPC   C4A56922   1.983  12.068   7.350
 7736POPC   C1B56923   2.112  12.338   6.450
 7736POPC   C2B56924   2.147  12.290   6.750
 7736POPC   C3B56925   2.147  12.340   7.050
 7736POPC   C4B56926   2.125  12.310   7.350
 7737POPC   NC356927  12.061  26.843   5.550
 7737POPC   PO456928  12.115  26.785   5.850
 7737POPC   GL156929  12.037  26.782   6.150
 7737POPC   GL256930  12.029  26.695   6.150
 7737POPC   C1A56931  12.038  26.829   6.450
 7737POPC   D2A56932  12.073  26.802   6.750
 7737POPC   C3A56933  12.045  26.811   7.050
 7737POPC   C4A56934  12.105  26.834   7.350
 7737POPC   C1B56935  11.909  26.582   6.450
 7737POPC   C2B56936  11.910  26.606   6.750
 7737POPC   C3B56937  11.988  26.585   7.050
 7737POPC   C4B56938  11.950  26.579   7.350
 7738POPC   NC356939  39.220  20.571   5.550
 7738POPC   PO456940  39.238  20.640   5.850
 7738POPC   GL156941  39.270  20.660   6.150
 7738POPC   GL256942  39.365  20.676   6.150
 7738POPC   C1A56943  39.280  20.619   6.450
 7738POPC   D2A56944  39.202  20.592   6.750
 7738POPC   C3A56945  39.212  20.579   7.050
 7738POPC   C4A56946  39.261  20.574   7.350
 7738POPC   C1B56947  39.423  20.786   6.450
 7738POPC   C2B56948  39.480  20.790   6.750
 7738POPC   C3B56949  39.395  20.735   7.050
 7738POPC   C4B56950  39.472  20.722   7.350
 7739POPC   NC356951   5.109  14.398   5.550
 7739POPC   PO456952   5.137  14.444   5.850
 7739POPC   GL156953   5.054  14.407   6.150
 7739POPC   GL256954   5.191  14.420   6.150
 7739POPC   C1A56955   5.085  14.421   6.450
 7739POPC   D2A56956   5.112  14.370   6.750
 7739POPC   C3A56957   5.131  14.421   7.050
 7739POPC   C4A56958   5.087  14.415   7.350
 7739POPC   C1B56959   5.326  14.545   6.450
 7739POPC   C2B56960   5.339  14.530   6.750
 7739POPC   C3B56961   5.265  14.510   7.050
 7739POPC   C4B56962   5.334  14.570   7.350
 7740POPC   NC356963  39.201  42.323   5.550
 7740POPC   PO456964  39.188  42.319   5.850
 7740POPC   GL156965  39.279  42.346   6.150
 7740POPC   GL256966  39.279  42.475   6.150
 7740POPC   C1A56967  39.273  42.285   6.450
 7740POPC   D2A56968  39.264  42.290   6.750
 7740POPC   C3A56969  39.276  42.310   7.050
 7740POPC   C4A56970  39.200  42.340   7.350
 7740POPC   C1B56971  39.371  42.553   6.450
 7740POPC   C2B56972  39.313  42.554   6.750
 7740POPC   C3B56973  39.311  42.529   7.050
 7740POPC   C4B56974  39.346  42.545   7.350
 7741POPC   NC356975  19.107  13.604   5.550
 7741POPC   PO456976  19.090  13.625   5.850
 7741POPC   GL156977  19.040  13.612   6.150
 7741POPC   GL256978  19.150  13.739   6.150
 7741POPC   C1A56979  19.097  13.634   6.450
 7741POPC   D2A56980  19.078  13.665   6.750
 7741POPC   C3A56981  19.021  13.595   7.050
 7741POPC   C4A56982  19.079  13.643   7.350
 7741POPC   C1B56983  19.143  13.841   6.450
 7741POPC   C2B56984  19.173  13.853   6.750
 7741POPC   C3B56985  19.198  13.904   7.050
 7741POPC   C4B56986  19.195  13.885   7.350
 7742POPC   NC356987   7.466  15.952   5.550
 7742POPC   PO456988   7.377  15.949   5.850
 7742POPC   GL156989   7.439  15.949   6.150
 7742POPC   GL256990   7.435  16.045   6.150
 7742POPC   C1A56991   7.385  15.977   6.450
 7742POPC   D2A56992   7.444  15.922   6.750
 7742POPC   C3A56993   7.426  15.912   7.050
 7742POPC   C4A56994   7.444  15.977   7.350
 7742POPC   C1B56995   7.391  16.250   6.450
 7742POPC   C2B56996   7.394  16.221   6.750
 7742POPC   C3B56997   7.374  16.162   7.050
 7742POPC   C4B56998   7.391  16.174   7.350
 7743POPC   NC356999  30.706  43.134   5.550
 7743POPC   PO457000  30.701  43.122   5.850
 7743POPC   GL157001  30.703  43.102   6.150
 7743POPC   GL257002  30.553  43.141   6.150
 7743POPC   C1A57003  30.652  43.157   6.450
 7743POPC   D2A57004  30.738  43.129   6.750
 7743POPC   C3A57005  30.667  43.132   7.050
 7743POPC   C4A57006  30.719  43.081   7.350
 7743POPC   C1B57007  30.538  43.254   6.450
 7743POPC   C2B57008  30.446  43.285   6.750
 7743POPC   C3B57009  30.493  43.255   7.050
 7743POPC   C4B57010  30.516  43.257   7.350
 7744POPC   NC357011   9.725  29.919   5.550
 7744POPC   PO457012   9.780  29.896   5.850
 7744POPC   GL157013   9.709  29.931   6.150
 7744POPC   GL257014   9.851  29.888   6.150
 7744POPC   C1A57015   9.724  29.905   6.450
 7744POPC   D2A57016   9.744  29.906   6.750
 7744POPC   C3A57017   9.776  29.961   7.050
 7744POPC   C4A57018   9.734  29.886   7.350
 7744POPC   C1B57019   9.948  29.854   6.450
 7744POPC   C2B57020  10.004  29.864   6.750
 7744POPC   C3B57021   9.928  29.849   7.050
 7744POPC   C4B57022   9.962  29.859   7.350
 7745POPC   NC357023  22.145  38.488   5.550
 7745POPC   PO457024  22.172  38.418   5.850
 7745POPC   GL157025  22.202  38.409   6.150
 7745POPC   GL257026  22.154  38.333   6.150
 7745POPC   C1A57027  22.136  38.437   6.450
 7745POPC   D2A57028  22.195  38.485   6.750
 7745POPC   C3A57029  22.190  38.409   7.050
 7745POPC   C4A57030  22.154  38.446   7.350
 7745POPC   C1B57031  22.240  38.243   6.450
 7745POPC   C2B57032  22.224  38.163   6.750
 7745POPC   C3B57033  22.209  38.233   7.050
 7745POPC   C4B57034  22.198  38.227   7.350
 7746POPC   NC357035  33.020  28.325   5.550
 7746POPC   PO457036  32.976  28.337   5.850
 7746POPC   GL157037  33.061  28.369   6.150
 7746POPC   GL257038  32.850  28.397   6.150
 7746POPC   C1A57039  33.036  28.399   6.450
 7746POPC   D2A57040  33.059  28.361   6.750
 7746POPC   C3A57041  33.042  28.333   7.050
 7746POPC   C4A57042  33.007  28.399   7.350
 7746POPC   C1B57043  32.752  28.409   6.450
 7746POPC   C2B57044  32.818  28.419   6.750
 7746POPC   C3B57045  32.744  28.369   7.050
 7746POPC   C4B57046  32.766  28.431   7.350
 7747POPC   NC357047  36.875  26.772   5.550
 7747POPC   PO457048  36.900  26.861   5.850
 7747POPC   GL157049  36.859  26.815   6.150
 7747POPC   GL257050  37.077  26.837   6.150
 7747POPC   C1A57051  36.888  26.804   6.450
 7747POPC   D2A57052  36.933  26.791   6.750
 7747POPC   C3A57053  36.928  26.853   7.050
 7747POPC   C4A57054  36.904  26.821   7.350
 7747POPC   C1B57055  37.185  26.783   6.450
 7747POPC   C2B57056  37.157  26.779   6.750
 7747POPC   C3B57057  37.110  26.839   7.050
 7747POPC   C4B57058  37.147  26.777   7.350
 7748POPC   NC357059   2.780  21.400   5.550
 7748POPC   PO457060   2.744  21.406   5.850
 7748POPC   GL157061   2.716  21.403   6.150
 7748POPC   GL257062   2.625  21.327   6.150
 7748POPC   C1A57063   2.746  21.355   6.450
 7748POPC   D2A57064   2.778  21.348   6.750
 7748POPC   C3A57065   2.732  21.432   7.050
 7748POPC   C4A57066   2.722  21.410   7.350
 7748POPC   C1B57067   2.481  21.405   6.450
 7748POPC   C2B57068   2.497  21.386   6.750
 7748POPC   C3B57069   2.489  21.417   7.050
 7748POPC   C4B57070   2.505  21.401   7.350
 7749POPC   NC357071  14.413   9.720   5.550
 7749POPC   PO457072  14.354   9.739   5.850
 7749POPC   GL157073  14.414   9.716   6.150
 7749POPC   GL257074  14.469   9.799   6.150
 7749POPC   C1A57075  14.452   9.703   6.450
 7749POPC   D2A57076  14.410   9.760   6.750
 7749POPC   C3A57077  14.451   9.784   7.050
 7749POPC   C4A57078  14.371   9.786   7.350
 7749POPC   C1B57079  14.610   9.872   6.450
 7749POPC   C2B57080  14.619   9.965   6.750
 7749POPC   C3B57081  14.600   9.879   7.050
 7749POPC   C4B57082  14.558   9.965   7.350
 7750POPC   NC357083  21.347  31.491   5.550
 7750POPC   PO457084  21.343  31.432   5.850
 7750POPC   GL157085  21.353  31.517   6.150
 7750POPC   GL257086  21.531  31.416   6.150
 7750POPC   C1A57087  21.372  31.490   6.450
 7750POPC   D2A57088  21.422  31.445   6.750
 7750POPC   C3A57089  21.435  31.467   7.050
 7750POPC   C4A57090  21.348  31.480   7.350
 7750POPC   C1B57091  21.585  31.311   6.450
 7750POPC   C2B57092  21.592  31.347   6.750
 7750POPC   C3B57093  21.656  31.345   7.050
 7750POPC   C4B57094  21.571  31.315   7.350
 7751POPC   NC357095  24.528   9.713   5.550
 7751POPC   PO457096  24.459   9.790   5.850
 7751POPC   GL157097  24.442   9.713   6.150
 7751POPC   GL257098  24.640   9.697   6.150
 7751POPC   C1A57099  24.538   9.783   6.450
 7751POPC   D2A57100  24.522   9.730   6.750
 7751POPC   C3A57101  24.525   9.750   7.050
 7751POPC   C4A57102  24.440   9.701   7.350
 7751POPC   C1B57103  24.741   9.680   6.450
 7751POPC   C2B57104  24.747   9.676   6.750
 7751POPC   C3B57105  24.686   9.628   7.050
 7751POPC   C4B57106  24.670   9.656   7.350
 7752POPC   NC357107  29.167   3.511   5.550
 7752POPC   PO457108  29.130   3.546   5.850
 7752POPC   GL157109  29.100   3.558   6.150
 7752POPC   GL257110  28.980   3.474   6.150
 7752POPC   C1A57111  29.127   3.498   6.450
 7752POPC   D2A57112  29.190   3.550   6.750
 7752POPC   C3A57113  29.124   3.539   7.050
 7752POPC   C4A57114  29.168   3.530   7.350
 7752POPC   C1B57115  28.918   3.467   6.450
 7752POPC   C2B57116  28.958   3.450   6.750
 7752POPC   C3B57117  28.873   3.432   7.050
 7752POPC   C4B57118  28.870   3.400   7.350
 7753POPC   NC357119  36.868  39.207   5.550
 7753POPC   PO457120  36.927  39.272   5.850
 7753POPC   GL157121  36.901  39.212   6.150
 7753POPC   GL257122  36.991  39.230   6.150
 7753POPC   C1A57123  36.927  39.188   6.450
 7753POPC   D2A57124  36.933  39.200   6.750
 7753POPC   C3A57125  36.863  39.229   7.050
 7753POPC   C4A57126  36.920  39.276   7.350
 7753POPC   C1B57127  37.109  39.308   6.450
 7753POPC   C2B57128  37.190  39.267   6.750
 7753POPC   C3B57129  37.108  39.304   7.050
 7753POPC   C4B57130  37.144  39.229   7.350
 7754POPC   NC357131  14.441  21.384   5.550
 7754POPC   PO457132  14.362  21.358   5.850
 7754POPC   GL157133  14.401  21.389   6.150
 7754POPC   GL257134  14.285  21.363   6.150
 7754POPC   C1A57135  14.443  21.372   6.450
 7754POPC   D2A57136  14.403  21.344   6.750
 7754POPC   C3A57137  14.364  21.366   7.050
 7754POPC   C4A57138  14.358  21.375   7.350
 7754POPC   C1B57139  14.132  21.351   6.450
 7754POPC   C2B57140  14.133  21.286   6.750
 7754POPC   C3B57141  14.143  21.326   7.050
 7754POPC   C4B57142  14.112  21.370   7.350
 7755POPC   NC357143  19.072   2.781   5.550
 7755POPC   PO457144  19.107   2.790   5.850
 7755POPC   GL157145  19.107   2.809   6.150
 7755POPC   GL257146  19.171   2.643   6.150
 7755POPC   C1A57147  19.103   2.807   6.450
 7755POPC   D2A57148  19.014   2.761   6.750
 7755POPC   C3A57149  19.056   2.726   7.050
 7755POPC   C4A57150  19.055   2.717   7.350
 7755POPC   C1B57151  19.255   2.600   6.450
 7755POPC   C2B57152  19.193   2.624   6.750
 7755POPC   C3B57153  19.232   2.604   7.050
 7755POPC   C4B57154  19.222   2.600   7.350
 7756POPC   NC357155  29.915  29.151   5.550
 7756POPC   PO457156  29.963  29.120   5.850
 7756POPC   GL157157  29.899  29.140   6.150
 7756POPC   GL257158  29.807  29.147   6.150
 7756POPC   C1A57159  29.937  29.141   6.450
 7756POPC   D2A57160  29.919  29.140   6.750
 7756POPC   C3A57161  29.898  29.123   7.050
 7756POPC   C4A57162  29.908  29.188   7.350
 7756POPC   C1B57163  29.655  29.179   6.450
 7756POPC   C2B57164  29.660  29.206   6.750
 7756POPC   C3B57165  29.652  29.229   7.050
 7756POPC   C4B57166  29.656  29.234   7.350
 7757POPC   NC357167  42.344  29.905   5.550
 7757POPC   PO457168  42.351  29.969   5.850
 7757POPC   GL157169  42.324  29.945   6.150
 7757POPC   GL257170  42.424  30.037   6.150
 7757POPC   C1A57171  42.343  29.942   6.450
 7757POPC   D2A57172  42.358  29.876   6.750
 7757POPC   C3A57173  42.310  29.957   7.050
 7757POPC   C4A57174  42.371  29.886   7.350
 7757POPC   C1B57175  42.435  30.164   6.450
 7757POPC   C2B57176  42.412  30.109   6.750
 7757POPC   C3B57177  42.467  30.165   7.050
 7757POPC   C4B57178  42.392  30.136   7.350
 7758POPC   NC357179  26.788  33.819   5.550
 7758POPC   PO457180  26.784  33.832   5.850
 7758POPC   GL157181  26.780  33.791   6.150
 7758POPC   GL257182  26.846  33.903   6.150
 7758POPC   C1A57183  26.816  33.765   6.450
 7758POPC   D2A57184  26.805  33.849   6.750
 7758POPC   C3A57185  26.811  33.767   7.050
 7758POPC   C4A57186  26.781  33.788   7.350
 7758POPC   C1B57187  26.960  33.967   6.450
 7758POPC   C2B57188  26.906  33.993   6.750
 7758POPC   C3B57189  26.971  34.031   7.050
 7758POPC   C4B57190  26.993  34.018   7.350
 7759POPC   NC357191  29.151  26.771   5.550
 7759POPC   PO457192  29.113  26.776   5.850
 7759POPC   GL157193  29.148  26.791   6.150
 7759POPC   GL257194  29.095  26.704   6.150
 7759POPC   C1A57195  29.126  26.849   6.450
 7759POPC   D2A57196  29.187  26.859   6.750
 7759POPC   C3A57197  29.174  26.771   7.050
 7759POPC   C4A57198  29.129  26.796   7.350
 7759POPC   C1B57199  28.982  26.627   6.450
 7759POPC   C2B57200  28.944  26.687   6.750
 7759POPC   C3B57201  28.926  26.628   7.050
 7759POPC   C4B57202  28.996  26.622   7.350
 7760POPC   NC357203   3.533  22.189   5.550
 7760POPC   PO457204   3.559  22.210   5.850
 7760POPC   GL157205   3.582  22.170   6.150
 7760POPC   GL257206   3.451  22.164   6.150
 7760POPC   C1A57207   3.527  22.178   6.450
 7760POPC   D2A57208   3.516  22.196   6.750
 7760POPC   C3A57209   3.504  22.120   7.050
 7760POPC   C4A57210   3.545  22.170   7.350
 7760POPC   C1B57211   3.276  22.148   6.450
 7760POPC   C2B57212   3.282  22.089   6.750
 7760POPC   C3B57213   3.322  22.091   7.050
 7760POPC   C4B57214   3.304  22.084   7.350
 7761POPC   NC357215  10.535   2.765   5.550
 7761POPC   PO457216  10.513   2.775   5.850
 7761POPC   GL157217  10.532   2.802   6.150
 7761POPC   GL257218  10.449   2.854   6.150
 7761POPC   C1A57219  10.551   2.745   6.450
 7761POPC   D2A57220  10.476   2.750   6.750
 7761POPC   C3A57221  10.558   2.777   7.050
 7761POPC   C4A57222  10.540   2.746   7.350
 7761POPC   C1B57223  10.342   2.922   6.450
 7761POPC   C2B57224  10.350   2.957   6.750
 7761POPC   C3B57225  10.305   2.934   7.050
 7761POPC   C4B57226  10.363   2.883   7.350
 7762POPC   NC357227   1.996  35.394   5.550
 7762POPC   PO457228   1.961  35.396   5.850
 7762POPC   GL157229   1.980  35.402   6.150
 7762POPC   GL257230   1.855  35.284   6.150
 7762POPC   C1A57231   1.981  35.315   6.450
 7762POPC   D2A57232   2.010  35.377   6.750
 7762POPC   C3A57233   1.943  35.346   7.050
 7762POPC   C4A57234   1.969  35.389   7.350
 7762POPC   C1B57235   1.710  35.255   6.450
 7762POPC   C2B57236   1.708  35.322   6.750
 7762POPC   C3B57237   1.728  35.286   7.050
 7762POPC   C4B57238   1.754  35.267   7.350
 7763POPC   NC357239   9.734  32.240   5.550
 7763POPC   PO457240   9.703  32.281   5.850
 7763POPC   GL157241   9.723  32.253   6.150
 7763POPC   GL257242   9.631  32.218   6.150
 7763POPC   C1A57243   9.707  32.220   6.450
 7763POPC   D2A57244   9.702  32.228   6.750
 7763POPC   C3A57245   9.720  32.216   7.050
 7763POPC   C4A57246   9.768  32.283   7.350
 7763POPC   C1B57247   9.561  32.113   6.450
 7763POPC   C2B57248   9.561  32.126   6.750
 7763POPC   C3B57249   9.528  32.129   7.050
 7763POPC   C4B57250   9.489  32.092   7.350
 7764POPC   NC357251  32.213  29.105   5.550
 7764POPC   PO457252  32.199  29.161   5.850
 7764POPC   GL157253  32.242  29.106   6.150
 7764POPC   GL257254  32.316  29.178   6.150
 7764POPC   C1A57255  32.265  29.128   6.450
 7764POPC   D2A57256  32.234  29.146   6.750
 7764POPC   C3A57257  32.277  29.113   7.050
 7764POPC   C4A57258  32.270  29.134   7.350
 7764POPC   C1B57259  32.438  29.306   6.450
 7764POPC   C2B57260  32.501  29.264   6.750
 7764POPC   C3B57261  32.443  29.261   7.050
 7764POPC   C4B57262  32.478  29.319   7.350
 7765POPC   NC357263   0.429  36.166   5.550
 7765POPC   PO457264   0.414  36.088   5.850
 7765POPC   GL157265   0.420  36.117   6.150
 7765POPC   GL257266   0.572  35.987   6.150
 7765POPC   C1A57267   0.441  36.096   6.450
 7765POPC   D2A57268   0.421  36.141   6.750
 7765POPC   C3A57269   0.485  36.099   7.050
 7765POPC   C4A57270   0.464  36.095   7.350
 7765POPC   C1B57271   0.657  35.990   6.450
 7765POPC   C2B57272   0.631  35.904   6.750
 7765POPC   C3B57273   0.562  35.911   7.050
 7765POPC   C4B57274   0.620  35.927   7.350
 7766POPC   NC357275  34.604  40.736   5.550
 7766POPC   PO457276  34.559  40.761   5.850
 7766POPC   GL157277  34.600  40.787   6.150
 7766POPC   GL257278  34.680  40.884   6.150
 7766POPC   C1A57279  34.546  40.736   6.450
 7766POPC   D2A57280  34.604  40.769   6.750
 7766POPC   C3A57281  34.618  40.826   7.050
 7766POPC   C4A57282  34.542  40.740   7.350
 7766POPC   C1B57283  34.766  40.877   6.450
 7766POPC   C2B57284  34.806  40.936   6.750
 7766POPC   C3B57285  34.768  40.874   7.050
 7766POPC   C4B57286  34.790  40.924   7.350
 7767POPC   NC357287  16.736  15.145   5.550
 7767POPC   PO457288  16.723  15.209   5.850
 7767POPC   GL157289  16.747  15.149   6.150
 7767POPC   GL257290  16.790  15.032   6.150
 7767POPC   C1A57291  16.684  15.152   6.450
 7767POPC   D2A57292  16.762  15.153   6.750
 7767POPC   C3A57293  16.771  15.226   7.050
 7767POPC   C4A57294  16.731  15.226   7.350
 7767POPC   C1B57295  16.799  14.978   6.450
 7767POPC   C2B57296  16.794  14.955   6.750
 7767POPC   C3B57297  16.737  14.939   7.050
 7767POPC   C4B57298  16.789  14.922   7.350
 7768POPC   NC357299  40.758  22.122   5.550
 7768POPC   PO457300  40.788  22.204   5.850
 7768POPC   GL157301  40.771  22.204   6.150
 7768POPC   GL257302  40.898  22.171   6.150
 7768POPC   C1A57303  40.777  22.127   6.450
 7768POPC   D2A57304  40.829  22.181   6.750
 7768POPC   C3A57305  40.733  22.146   7.050
 7768POPC   C4A57306  40.791  22.126   7.350
 7768POPC   C1B57307  40.968  22.239   6.450
 7768POPC   C2B57308  40.994  22.230   6.750
 7768POPC   C3B57309  41.029  22.287   7.050
 7768POPC   C4B57310  41.041  22.234   7.350
 7769POPC   NC357311  35.340  40.020   5.550
 7769POPC   PO457312  35.309  40.018   5.850
 7769POPC   GL157313  35.351  40.006   6.150
 7769POPC   GL257314  35.502  39.937   6.150
 7769POPC   C1A57315  35.373  39.974   6.450
 7769POPC   D2A57316  35.379  39.967   6.750
 7769POPC   C3A57317  35.399  40.044   7.050
 7769POPC   C4A57318  35.388  40.002   7.350
 7769POPC   C1B57319  35.575  39.990   6.450
 7769POPC   C2B57320  35.573  39.936   6.750
 7769POPC   C3B57321  35.574  39.958   7.050
 7769POPC   C4B57322  35.605  39.960   7.350
 7770POPC   NC357323  21.361  25.285   5.550
 7770POPC   PO457324  21.381  25.286   5.850
 7770POPC   GL157325  21.352  25.253   6.150
 7770POPC   GL257326  21.351  25.361   6.150
 7770POPC   C1A57327  21.362  25.296   6.450
 7770POPC   D2A57328  21.378  25.258   6.750
 7770POPC   C3A57329  21.350  25.272   7.050
 7770POPC   C4A57330  21.360  25.286   7.350
 7770POPC   C1B57331  21.390  25.514   6.450
 7770POPC   C2B57332  21.376  25.559   6.750
 7770POPC   C3B57333  21.385  25.557   7.050
 7770POPC   C4B57334  21.425  25.493   7.350
 7771POPC   NC357335  21.429  10.555   5.550
 7771POPC   PO457336  21.408  10.489   5.850
 7771POPC   GL157337  21.425  10.504   6.150
 7771POPC   GL257338  21.303  10.548   6.150
 7771POPC   C1A57339  21.350  10.510   6.450
 7771POPC   D2A57340  21.418  10.500   6.750
 7771POPC   C3A57341  21.357  10.569   7.050
 7771POPC   C4A57342  21.368  10.505   7.350
 7771POPC   C1B57343  21.129  10.646   6.450
 7771POPC   C2B57344  21.159  10.607   6.750
 7771POPC   C3B57345  21.128  10.686   7.050
 7771POPC   C4B57346  21.193  10.667   7.350
 7772POPC   NC357347  30.738  22.139   5.550
 7772POPC   PO457348  30.669  22.169   5.850
 7772POPC   GL157349  30.732  22.179   6.150
 7772POPC   GL257350  30.785  22.223   6.150
 7772POPC   C1A57351  30.648  22.192   6.450
 7772POPC   D2A57352  30.697  22.123   6.750
 7772POPC   C3A57353  30.666  22.161   7.050
 7772POPC   C4A57354  30.729  22.138   7.350
 7772POPC   C1B57355  30.918  22.247   6.450
 7772POPC   C2B57356  30.927  22.230   6.750
 7772POPC   C3B57357  30.918  22.286   7.050
 7772POPC   C4B57358  30.954  22.287   7.350
 7773POPC   NC357359  43.906  27.579   5.550
 7773POPC   PO457360  43.860  27.637   5.850
 7773POPC   GL157361  43.908  27.581   6.150
 7773POPC   GL257362  44.017  27.567   6.150
 7773POPC   C1A57363  43.903  27.635   6.450
 7773POPC   D2A57364  43.909  27.624   6.750
 7773POPC   C3A57365  43.888  27.603   7.050
 7773POPC   C4A57366  43.904  27.559   7.350
 7773POPC   C1B57367  44.129  27.482   6.450
 7773POPC   C2B57368  44.092  27.441   6.750
 7773POPC   C3B57369  44.107  27.502   7.050
 7773POPC   C4B57370  44.066  27.435   7.350
 7774POPC   NC357371  12.859  32.298   5.550
 7774POPC   PO457372  12.814  32.275   5.850
 7774POPC   GL157373  12.882  32.294   6.150
 7774POPC   GL257374  12.981  32.313   6.150
 7774POPC   C1A57375  12.891  32.260   6.450
 7774POPC   D2A57376  12.873  32.252   6.750
 7774POPC   C3A57377  12.848  32.287   7.050
 7774POPC   C4A57378  12.813  32.234   7.350
 7774POPC   C1B57379  13.000  32.484   6.450
 7774POPC   C2B57380  13.017  32.440   6.750
 7774POPC   C3B57381  13.064  32.414   7.050
 7774POPC   C4B57382  12.969  32.452   7.350
 7775POPC   NC357383   5.882  33.793   5.550
 7775POPC   PO457384   5.847  33.809   5.850
 7775POPC   GL157385   5.835  33.840   6.150
 7775POPC   GL257386   5.768  33.865   6.150
 7775POPC   C1A57387   5.826  33.801   6.450
 7775POPC   D2A57388   5.875  33.813   6.750
 7775POPC   C3A57389   5.918  33.770   7.050
 7775POPC   C4A57390   5.861  33.780   7.350
 7775POPC   C1B57391   5.740  33.991   6.450
 7775POPC   C2B57392   5.711  33.946   6.750
 7775POPC   C3B57393   5.747  33.985   7.050
 7775POPC   C4B57394   5.688  34.024   7.350
 7776POPC   NC357395   2.780  22.984   5.550
 7776POPC   PO457396   2.719  22.946   5.850
 7776POPC   GL157397   2.783  22.949   6.150
 7776POPC   GL257398   2.851  23.046   6.150
 7776POPC   C1A57399   2.762  22.932   6.450
 7776POPC   D2A57400   2.801  22.982   6.750
 7776POPC   C3A57401   2.723  22.947   7.050
 7776POPC   C4A57402   2.742  22.904   7.350
 7776POPC   C1B57403   2.971  23.081   6.450
 7776POPC   C2B57404   2.958  23.090   6.750
 7776POPC   C3B57405   2.928  23.095   7.050
 7776POPC   C4B57406   2.891  23.131   7.350
 7777POPC   NC357407  44.612  20.658   5.550
 7777POPC   PO457408  44.641  20.603   5.850
 7777POPC   GL157409  44.627  20.563   6.150
 7777POPC   GL257410  44.561  20.519   6.150
 7777POPC   C1A57411  44.681  20.592   6.450
 7777POPC   D2A57412  44.632  20.638   6.750
 7777POPC   C3A57413  44.622  20.596   7.050
 7777POPC   C4A57414  44.649  20.612   7.350
 7777POPC   C1B57415  44.448  20.472   6.450
 7777POPC   C2B57416  44.509  20.468   6.750
 7777POPC   C3B57417  44.501  20.460   7.050
 7777POPC   C4B57418  44.459  20.445   7.350
 7778POPC   NC357419   7.453  15.190   5.550
 7778POPC   PO457420   7.390  15.206   5.850
 7778POPC   GL157421   7.463  15.209   6.150
 7778POPC   GL257422   7.325  15.081   6.150
 7778POPC   C1A57423   7.445  15.138   6.450
 7778POPC   D2A57424   7.421  15.200   6.750
 7778POPC   C3A57425   7.381  15.130   7.050
 7778POPC   C4A57426   7.397  15.187   7.350
 7778POPC   C1B57427   7.208  15.029   6.450
 7778POPC   C2B57428   7.200  15.027   6.750
 7778POPC   C3B57429   7.174  15.010   7.050
 7778POPC   C4B57430   7.220  15.074   7.350
 7779POPC   NC357431  12.092   1.221   5.550
 7779POPC   PO457432  12.111   1.233   5.850
 7779POPC   GL157433  12.094   1.228   6.150
 7779POPC   GL257434  12.064   1.087   6.150
 7779POPC   C1A57435  12.118   1.236   6.450
 7779POPC   D2A57436  12.111   1.232   6.750
 7779POPC   C3A57437  12.081   1.189   7.050
 7779POPC   C4A57438  12.069   1.165   7.350
 7779POPC   C1B57439  12.034   0.954   6.450
 7779POPC   C2B57440  12.073   1.002   6.750
 7779POPC   C3B57441  11.984   1.014   7.050
 7779POPC   C4B57442  12.046   0.995   7.350
 7780POPC   NC357443   3.530   5.052   5.550
 7780POPC   PO457444   3.584   5.103   5.850
 7780POPC   GL157445   3.503   5.077   6.150
 7780POPC   GL257446   3.583   5.167   6.150
 7780POPC   C1A57447   3.539   5.076   6.450
 7780POPC   D2A57448   3.518   5.045   6.750
 7780POPC   C3A57449   3.503   5.070   7.050
 7780POPC   C4A57450   3.530   5.124   7.350
 7780POPC   C1B57451   3.617   5.305   6.450
 7780POPC   C2B57452   3.556   5.338   6.750
 7780POPC   C3B57453   3.577   5.320   7.050
 7780POPC   C4B57454   3.595   5.329   7.350
 7781POPC   NC357455  12.031  24.500   5.550
 7781POPC   PO457456  12.106  24.531   5.850
 7781POPC   GL157457  12.034  24.467   6.150
 7781POPC   GL257458  12.226  24.494   6.150
 7781POPC   C1A57459  12.116  24.493   6.450
 7781POPC   D2A57460  12.087  24.484   6.750
 7781POPC   C3A57461  12.066  24.480   7.050
 7781POPC   C4A57462  12.041  24.477   7.350
 7781POPC   C1B57463  12.277  24.416   6.450
 7781POPC   C2B57464  12.318  24.416   6.750
 7781POPC   C3B57465  12.356  24.423   7.050
 7781POPC   C4B57466  12.363  24.459   7.350
 7782POPC   NC357467   6.621  26.034   5.550
 7782POPC   PO457468   6.648  26.091   5.850
 7782POPC   GL157469   6.610  26.087   6.150
 7782POPC   GL257470   6.746  26.039   6.150
 7782POPC   C1A57471   6.681  25.995   6.450
 7782POPC   D2A57472   6.654  26.044   6.750
 7782POPC   C3A57473   6.608  26.086   7.050
 7782POPC   C4A57474   6.605  26.007   7.350
 7782POPC   C1B57475   6.839  26.012   6.450
 7782POPC   C2B57476   6.918  25.983   6.750
 7782POPC   C3B57477   6.870  25.933   7.050
 7782POPC   C4B57478   6.884  26.019   7.350
 7783POPC   NC357479  22.170   3.546   5.550
 7783POPC   PO457480  22.183   3.573   5.850
 7783POPC   GL157481  22.135   3.511   6.150
 7783POPC   GL257482  22.129   3.462   6.150
 7783POPC   C1A57483  22.125   3.519   6.450
 7783POPC   D2A57484  22.201   3.556   6.750
 7783POPC   C3A57485  22.130   3.561   7.050
 7783POPC   C4A57486  22.211   3.557   7.350
 7783POPC   C1B57487  22.142   3.280   6.450
 7783POPC   C2B57488  22.111   3.285   6.750
 7783POPC   C3B57489  22.115   3.289   7.050
 7783POPC   C4B57490  22.098   3.270   7.350
 7784POPC   NC357491  24.446  31.491   5.550
 7784POPC   PO457492  24.468  31.475   5.850
 7784POPC   GL157493  24.468  31.512   6.150
 7784POPC   GL257494  24.438  31.387   6.150
 7784POPC   C1A57495  24.532  31.495   6.450
 7784POPC   D2A57496  24.529  31.449   6.750
 7784POPC   C3A57497  24.456  31.450   7.050
 7784POPC   C4A57498  24.478  31.457   7.350
 7784POPC   C1B57499  24.377  31.263   6.450
 7784POPC   C2B57500  24.350  31.296   6.750
 7784POPC   C3B57501  24.314  31.291   7.050
 7784POPC   C4B57502  24.351  31.247   7.350
 7785POPC   NC357503  24.445  34.528   5.550
 7785POPC   PO457504  24.483  34.540   5.850
 7785POPC   GL157505  24.459  34.609   6.150
 7785POPC   GL257506  24.616  34.585   6.150
 7785POPC   C1A57507  24.495  34.593   6.450
 7785POPC   D2A57508  24.538  34.584   6.750
 7785POPC   C3A57509  24.516  34.537   7.050
 7785POPC   C4A57510  24.540  34.538   7.350
 7785POPC   C1B57511  24.768  34.478   6.450
 7785POPC   C2B57512  24.730  34.501   6.750
 7785POPC   C3B57513  24.773  34.485   7.050
 7785POPC   C4B57514  24.710  34.546   7.350
 7786POPC   NC357515  35.365  35.398   5.550
 7786POPC   PO457516  35.351  35.373   5.850
 7786POPC   GL157517  35.360  35.320   6.150
 7786POPC   GL257518  35.273  35.323   6.150
 7786POPC   C1A57519  35.361  35.305   6.450
 7786POPC   D2A57520  35.393  35.327   6.750
 7786POPC   C3A57521  35.385  35.346   7.050
 7786POPC   C4A57522  35.356  35.345   7.350
 7786POPC   C1B57523  35.110  35.312   6.450
 7786POPC   C2B57524  35.092  35.337   6.750
 7786POPC   C3B57525  35.088  35.372   7.050
 7786POPC   C4B57526  35.138  35.286   7.350
 7787POPC   NC357527   3.556   9.779   5.550
 7787POPC   PO457528   3.512   9.748   5.850
 7787POPC   GL157529   3.516   9.741   6.150
 7787POPC   GL257530   3.689   9.725   6.150
 7787POPC   C1A57531   3.553   9.798   6.450
 7787POPC   D2A57532   3.527   9.770   6.750
 7787POPC   C3A57533   3.563   9.793   7.050
 7787POPC   C4A57534   3.591   9.757   7.350
 7787POPC   C1B57535   3.799   9.656   6.450
 7787POPC   C2B57536   3.817   9.638   6.750
 7787POPC   C3B57537   3.806   9.642   7.050
 7787POPC   C4B57538   3.820   9.692   7.350
 7788POPC   NC357539  11.270   8.968   5.550
 7788POPC   PO457540  11.291   8.978   5.850
 7788POPC   GL157541  11.305   9.010   6.150
 7788POPC   GL257542  11.343   8.838   6.150
 7788POPC   C1A57543  11.267   9.017   6.450
 7788POPC   D2A57544  11.318   9.006   6.750
 7788POPC   C3A57545  11.256   9.011   7.050
 7788POPC   C4A57546  11.339   8.944   7.350
 7788POPC   C1B57547  11.359   8.743   6.450
 7788POPC   C2B57548  11.343   8.741   6.750
 7788POPC   C3B57549  11.397   8.776   7.050
 7788POPC   C4B57550  11.399   8.722   7.350
 7789POPC   NC357551  15.978   5.127   5.550
 7789POPC   PO457552  15.967   5.098   5.850
 7789POPC   GL157553  15.947   5.054   6.150
 7789POPC   GL257554  15.866   5.051   6.150
 7789POPC   C1A57555  15.972   5.078   6.450
 7789POPC   D2A57556  15.955   5.103   6.750
 7789POPC   C3A57557  15.928   5.049   7.050
 7789POPC   C4A57558  15.974   5.071   7.350
 7789POPC   C1B57559  15.707   5.122   6.450
 7789POPC   C2B57560  15.662   5.114   6.750
 7789POPC   C3B57561  15.675   5.087   7.050
 7789POPC   C4B57562  15.739   5.103   7.350
 7790POPC   NC357563  16.697  17.540   5.550
 7790POPC   PO457564  16.682  17.477   5.850
 7790POPC   GL157565  16.695  17.516   6.150
 7790POPC   GL257566  16.827  17.647   6.150
 7790POPC   C1A57567  16.682  17.465   6.450
 7790POPC   D2A57568  16.734  17.476   6.750
 7790POPC   C3A57569  16.752  17.484   7.050
 7790POPC   C4A57570  16.754  17.463   7.350
 7790POPC   C1B57571  16.890  17.694   6.450
 7790POPC   C2B57572  16.852  17.694   6.750
 7790POPC   C3B57573  16.899  17.681   7.050
 7790POPC   C4B57574  16.925  17.683   7.350
 7791POPC   NC357575   3.520  10.510   5.550
 7791POPC   PO457576   3.530  10.563   5.850
 7791POPC   GL157577   3.550  10.537   6.150
 7791POPC   GL257578   3.373  10.461   6.150
 7791POPC   C1A57579   3.525  10.540   6.450
 7791POPC   D2A57580   3.543  10.564   6.750
 7791POPC   C3A57581   3.550  10.539   7.050
 7791POPC   C4A57582   3.531  10.542   7.350
 7791POPC   C1B57583   3.308  10.525   6.450
 7791POPC   C2B57584   3.259  10.456   6.750
 7791POPC   C3B57585   3.270  10.537   7.050
 7791POPC   C4B57586   3.326  10.460   7.350
 7792POPC   NC357587  14.379   1.985   5.550
 7792POPC   PO457588  14.427   1.956   5.850
 7792POPC   GL157589  14.443   1.954   6.150
 7792POPC   GL257590  14.525   2.085   6.150
 7792POPC   C1A57591  14.434   1.979   6.450
 7792POPC   D2A57592  14.424   1.972   6.750
 7792POPC   C3A57593  14.439   1.970   7.050
 7792POPC   C4A57594  14.373   1.978   7.350
 7792POPC   C1B57595  14.565   2.105   6.450
 7792POPC   C2B57596  14.647   2.109   6.750
 7792POPC   C3B57597  14.631   2.170   7.050
 7792POPC   C4B57598  14.575   2.088   7.350
 7793POPC   NC357599  12.859  28.338   5.550
 7793POPC   PO457600  12.860  28.326   5.850
 7793POPC   GL157601  12.814  28.410   6.150
 7793POPC   GL257602  12.935  28.238   6.150
 7793POPC   C1A57603  12.847  28.321   6.450
 7793POPC   D2A57604  12.868  28.331   6.750
 7793POPC   C3A57605  12.852  28.358   7.050
 7793POPC   C4A57606  12.872  28.362   7.350
 7793POPC   C1B57607  12.906  28.135   6.450
 7793POPC   C2B57608  12.878  28.134   6.750
 7793POPC   C3B57609  12.958  28.090   7.050
 7793POPC   C4B57610  12.974  28.121   7.350
 7794POPC   NC357611  22.978  12.854   5.550
 7794POPC   PO457612  22.958  12.837   5.850
 7794POPC   GL157613  22.941  12.850   6.150
 7794POPC   GL257614  23.073  12.811   6.150
 7794POPC   C1A57615  22.922  12.864   6.450
 7794POPC   D2A57616  22.891  12.852   6.750
 7794POPC   C3A57617  22.965  12.802   7.050
 7794POPC   C4A57618  22.974  12.898   7.350
 7794POPC   C1B57619  23.152  12.840   6.450
 7794POPC   C2B57620  23.149  12.766   6.750
 7794POPC   C3B57621  23.161  12.797   7.050
 7794POPC   C4B57622  23.143  12.752   7.350
 7795POPC   NC357623  36.863   1.195   5.550
 7795POPC   PO457624  36.871   1.195   5.850
 7795POPC   GL157625  36.881   1.169   6.150
 7795POPC   GL257626  36.974   1.106   6.150
 7795POPC   C1A57627  36.939   1.192   6.450
 7795POPC   D2A57628  36.886   1.260   6.750
 7795POPC   C3A57629  36.881   1.242   7.050
 7795POPC   C4A57630  36.938   1.180   7.350
 7795POPC   C1B57631  37.004   0.952   6.450
 7795POPC   C2B57632  37.026   1.025   6.750
 7795POPC   C3B57633  37.017   0.956   7.050
 7795POPC   C4B57634  36.975   0.941   7.350
 7796POPC   NC357635  16.718  13.594   5.550
 7796POPC   PO457636  16.766  13.658   5.850
 7796POPC   GL157637  16.714  13.673   6.150
 7796POPC   GL257638  16.583  13.645   6.150
 7796POPC   C1A57639  16.781  13.650   6.450
 7796POPC   D2A57640  16.690  13.603   6.750
 7796POPC   C3A57641  16.765  13.639   7.050
 7796POPC   C4A57642  16.731  13.620   7.350
 7796POPC   C1B57643  16.532  13.729   6.450
 7796POPC   C2B57644  16.515  13.675   6.750
 7796POPC   C3B57645  16.536  13.743   7.050
 7796POPC   C4B57646  16.536  13.680   7.350
 7797POPC   NC357647  27.545  37.656   5.550
 7797POPC   PO457648  27.577  37.696   5.850
 7797POPC   GL157649  27.547  37.637   6.150
 7797POPC   GL257650  27.549  37.760   6.150
 7797POPC   C1A57651  27.634  37.653   6.450
 7797POPC   D2A57652  27.564  37.653   6.750
 7797POPC   C3A57653  27.565  37.638   7.050
 7797POPC   C4A57654  27.616  37.633   7.350
 7797POPC   C1B57655  27.529  37.969   6.450
 7797POPC   C2B57656  27.603  37.934   6.750
 7797POPC   C3B57657  27.593  37.889   7.050
 7797POPC   C4B57658  27.602  37.911   7.350
 7798POPC   NC357659  41.583  30.660   5.550
 7798POPC   PO457660  41.581  30.725   5.850
 7798POPC   GL157661  41.571  30.730   6.150
 7798POPC   GL257662  41.571  30.781   6.150
 7798POPC   C1A57663  41.568  30.699   6.450
 7798POPC   D2A57664  41.575  30.733   6.750
 7798POPC   C3A57665  41.550  30.706   7.050
 7798POPC   C4A57666  41.589  30.685   7.350
 7798POPC   C1B57667  41.610  30.897   6.450
 7798POPC   C2B57668  41.679  30.945   6.750
 7798POPC   C3B57669  41.600  30.954   7.050
 7798POPC   C4B57670  41.635  30.975   7.350
 7799POPC   NC357671  43.841   8.187   5.550
 7799POPC   PO457672  43.843   8.195   5.850
 7799POPC   GL157673  43.875   8.179   6.150
 7799POPC   GL257674  43.753   8.130   6.150
 7799POPC   C1A57675  43.842   8.203   6.450
 7799POPC   D2A57676  43.846   8.181   6.750
 7799POPC   C3A57677  43.892   8.151   7.050
 7799POPC   C4A57678  43.889   8.215   7.350
 7799POPC   C1B57679  43.621   8.148   6.450
 7799POPC   C2B57680  43.685   8.115   6.750
 7799POPC   C3B57681  43.688   8.134   7.050
 7799POPC   C4B57682  43.655   8.085   7.350
 7800POPC   NC357683  15.191  43.874   5.550
 7800POPC   PO457684  15.217  43.866   5.850
 7800POPC   GL157685  15.135  43.885   6.150
 7800POPC   GL257686  15.124  44.020   6.150
 7800POPC   C1A57687  15.143  43.933   6.450
 7800POPC   D2A57688  15.178  43.890   6.750
 7800POPC   C3A57689  15.223  43.860   7.050
 7800POPC   C4A57690  15.162  43.866   7.350
 7800POPC   C1B57691  15.165  44.141   6.450
 7800POPC   C2B57692  15.147  44.118   6.750
 7800POPC   C3B57693  15.151  44.173   7.050
 7800POPC   C4B57694  15.114  44.144   7.350
 7801POPC   NC357695   0.402  41.514   5.550
 7801POPC   PO457696   0.467  41.555   5.850
 7801POPC   GL157697   0.431  41.603   6.150
 7801POPC   GL257698   0.435  41.726   6.150
 7801POPC   C1A57699   0.473  41.563   6.450
 7801POPC   D2A57700   0.395  41.600   6.750
 7801POPC   C3A57701   0.416  41.604   7.050
 7801POPC   C4A57702   0.476  41.536   7.350
 7801POPC   C1B57703   0.391  41.800   6.450
 7801POPC   C2B57704   0.381  41.776   6.750
 7801POPC   C3B57705   0.390  41.842   7.050
 7801POPC   C4B57706   0.328  41.826   7.350
 7802POPC   NC357707  28.323  32.296   5.550
 7802POPC   PO457708  28.413  32.276   5.850
 7802POPC   GL157709  28.365  32.266   6.150
 7802POPC   GL257710  28.482  32.299   6.150
 7802POPC   C1A57711  28.378  32.294   6.450
 7802POPC   D2A57712  28.350  32.269   6.750
 7802POPC   C3A57713  28.349  32.289   7.050
 7802POPC   C4A57714  28.325  32.212   7.350
 7802POPC   C1B57715  28.645  32.327   6.450
 7802POPC   C2B57716  28.631  32.307   6.750
 7802POPC   C3B57717  28.630  32.311   7.050
 7802POPC   C4B57718  28.646  32.321   7.350
 7803POPC   NC357719  15.993  21.434   5.550
 7803POPC   PO457720  15.957  21.432   5.850
 7803POPC   GL157721  15.963  21.425   6.150
 7803POPC   GL257722  15.796  21.438   6.150
 7803POPC   C1A57723  15.914  21.422   6.450
 7803POPC   D2A57724  15.938  21.370   6.750
 7803POPC   C3A57725  16.004  21.339   7.050
 7803POPC   C4A57726  15.982  21.360   7.350
 7803POPC   C1B57727  15.753  21.451   6.450
 7803POPC   C2B57728  15.706  21.403   6.750
 7803POPC   C3B57729  15.753  21.453   7.050
 7803POPC   C4B57730  15.692  21.403   7.350
 7804POPC   NC357731   4.344  13.654   5.550
 7804POPC   PO457732   4.343  13.648   5.850
 7804POPC   GL157733   4.335  13.638   6.150
 7804POPC   GL257734   4.381  13.734   6.150
 7804POPC   C1A57735   4.335  13.598   6.450
 7804POPC   D2A57736   4.321  13.634   6.750
 7804POPC   C3A57737   4.340  13.648   7.050
 7804POPC   C4A57738   4.332  13.587   7.350
 7804POPC   C1B57739   4.467  13.815   6.450
 7804POPC   C2B57740   4.433  13.879   6.750
 7804POPC   C3B57741   4.446  13.803   7.050
 7804POPC   C4B57742   4.410  13.806   7.350
 7805POPC   NC357743  10.498  43.135   5.550
 7805POPC   PO457744  10.489  43.086   5.850
 7805POPC   GL157745  10.477  43.160   6.150
 7805POPC   GL257746  10.433  43.148   6.150
 7805POPC   C1A57747  10.524  43.125   6.450
 7805POPC   D2A57748  10.479  43.102   6.750
 7805POPC   C3A57749  10.559  43.151   7.050
 7805POPC   C4A57750  10.499  43.103   7.350
 7805POPC   C1B57751  10.252  43.093   6.450
 7805POPC   C2B57752  10.254  43.092   6.750
 7805POPC   C3B57753  10.304  43.075   7.050
 7805POPC   C4B57754  10.253  43.046   7.350
 7806POPC   NC357755   8.930  31.483   5.550
 7806POPC   PO457756   8.936  31.492   5.850
 7806POPC   GL157757   9.006  31.448   6.150
 7806POPC   GL257758   8.955  31.400   6.150
 7806POPC   C1A57759   8.934  31.518   6.450
 7806POPC   D2A57760   8.958  31.469   6.750
 7806POPC   C3A57761   8.982  31.521   7.050
 7806POPC   C4A57762   8.999  31.481   7.350
 7806POPC   C1B57763   8.898  31.285   6.450
 7806POPC   C2B57764   8.912  31.262   6.750
 7806POPC   C3B57765   8.876  31.253   7.050
 7806POPC   C4B57766   8.869  31.197   7.350
 7807POPC   NC357767  42.287   0.456   5.550
 7807POPC   PO457768  42.326   0.433   5.850
 7807POPC   GL157769  42.378   0.413   6.150
 7807POPC   GL257770  42.324   0.348   6.150
 7807POPC   C1A57771  42.362   0.468   6.450
 7807POPC   D2A57772  42.376   0.398   6.750
 7807POPC   C3A57773  42.375   0.403   7.050
 7807POPC   C4A57774  42.344   0.408   7.350
 7807POPC   C1B57775  42.334   0.142   6.450
 7807POPC   C2B57776  42.265   0.180   6.750
 7807POPC   C3B57777  42.312   0.241   7.050
 7807POPC   C4B57778  42.256   0.212   7.350
 7808POPC   NC357779  19.094  12.843   5.550
 7808POPC   PO457780  19.025  12.867   5.850
 7808POPC   GL157781  19.071  12.886   6.150
 7808POPC   GL257782  19.128  12.995   6.150
 7808POPC   C1A57783  19.064  12.843   6.450
 7808POPC   D2A57784  19.063  12.901   6.750
 7808POPC   C3A57785  19.085  12.899   7.050
 7808POPC   C4A57786  19.033  12.802   7.350
 7808POPC   C1B57787  19.166  13.085   6.450
 7808POPC   C2B57788  19.161  13.063   6.750
 7808POPC   C3B57789  19.182  13.084   7.050
 7808POPC   C4B57790  19.186  13.069   7.350
 7809POPC   NC357791  34.621   4.275   5.550
 7809POPC   PO457792  34.617   4.295   5.850
 7809POPC   GL157793  34.606   4.344   6.150
 7809POPC   GL257794  34.567   4.188   6.150
 7809POPC   C1A57795  34.613   4.347   6.450
 7809POPC   D2A57796  34.528   4.288   6.750
 7809POPC   C3A57797  34.560   4.354   7.050
 7809POPC   C4A57798  34.527   4.293   7.350
 7809POPC   C1B57799  34.676   4.056   6.450
 7809POPC   C2B57800  34.609   4.032   6.750
 7809POPC   C3B57801  34.632   4.025   7.050
 7809POPC   C4B57802  34.668   4.079   7.350
 7810POPC   NC357803  26.059  15.950   5.550
 7810POPC   PO457804  26.013  15.954   5.850
 7810POPC   GL157805  26.001  15.985   6.150
 7810POPC   GL257806  25.942  16.005   6.150
 7810POPC   C1A57807  26.089  15.918   6.450
 7810POPC   D2A57808  26.032  15.977   6.750
 7810POPC   C3A57809  26.088  15.911   7.050
 7810POPC   C4A57810  26.069  15.959   7.350
 7810POPC   C1B57811  25.833  15.990   6.450
 7810POPC   C2B57812  25.810  16.029   6.750
 7810POPC   C3B57813  25.810  16.021   7.050
 7810POPC   C4B57814  25.765  16.035   7.350
 7811POPC   NC357815  19.874  21.366   5.550
 7811POPC   PO457816  19.855  21.410   5.850
 7811POPC   GL157817  19.823  21.407   6.150
 7811POPC   GL257818  19.819  21.491   6.150
 7811POPC   C1A57819  19.859  21.425   6.450
 7811POPC   D2A57820  19.827  21.389   6.750
 7811POPC   C3A57821  19.850  21.416   7.050
 7811POPC   C4A57822  19.788  21.392   7.350
 7811POPC   C1B57823  19.765  21.665   6.450
 7811POPC   C2B57824  19.757  21.609   6.750
 7811POPC   C3B57825  19.763  21.576   7.050
 7811POPC   C4B57826  19.734  21.611   7.350
 7812POPC   NC357827  33.818  11.251   5.550
 7812POPC   PO457828  33.825  11.348   5.850
 7812POPC   GL157829  33.837  11.341   6.150
 7812POPC   GL257830  33.746  11.246   6.150
 7812POPC   C1A57831  33.795  11.277   6.450
 7812POPC   D2A57832  33.849  11.299   6.750
 7812POPC   C3A57833  33.829  11.265   7.050
 7812POPC   C4A57834  33.800  11.294   7.350
 7812POPC   C1B57835  33.683  11.143   6.450
 7812POPC   C2B57836  33.642  11.145   6.750
 7812POPC   C3B57837  33.685  11.141   7.050
 7812POPC   C4B57838  33.690  11.064   7.350
 7813POPC   NC357839  30.674  42.376   5.550
 7813POPC   PO457840  30.716  42.307   5.850
 7813POPC   GL157841  30.709  42.341   6.150
 7813POPC   GL257842  30.687  42.458   6.150
 7813POPC   C1A57843  30.726  42.305   6.450
 7813POPC   D2A57844  30.693  42.355   6.750
 7813POPC   C3A57845  30.648  42.327   7.050
 7813POPC   C4A57846  30.655  42.335   7.350
 7813POPC   C1B57847  30.593  42.587   6.450
 7813POPC   C2B57848  30.603  42.583   6.750
 7813POPC   C3B57849  30.591  42.560   7.050
 7813POPC   C4B57850  30.573  42.552   7.350
 7814POPC   NC357851  27.558  36.174   5.550
 7814POPC   PO457852  27.588  36.097   5.850
 7814POPC   GL157853  27.550  36.130   6.150
 7814POPC   GL257854  27.637  36.013   6.150
 7814POPC   C1A57855  27.544  36.168   6.450
 7814POPC   D2A57856  27.561  36.137   6.750
 7814POPC   C3A57857  27.586  36.128   7.050
 7814POPC   C4A57858  27.589  36.132   7.350
 7814POPC   C1B57859  27.682  35.933   6.450
 7814POPC   C2B57860  27.672  35.889   6.750
 7814POPC   C3B57861  27.713  35.911   7.050
 7814POPC   C4B57862  27.692  35.931   7.350
 7815POPC   NC357863  24.518   6.668   5.550
 7815POPC   PO457864  24.461   6.619   5.850
 7815POPC   GL157865  24.534   6.656   6.150
 7815POPC   GL257866  24.464   6.728   6.150
 7815POPC   C1A57867  24.485   6.668   6.450
 7815POPC   D2A57868  24.534   6.674   6.750
 7815POPC   C3A57869  24.508   6.624   7.050
 7815POPC   C4A57870  24.465   6.663   7.350
 7815POPC   C1B57871  24.479   6.868   6.450
 7815POPC   C2B57872  24.465   6.882   6.750
 7815POPC   C3B57873  24.451   6.871   7.050
 7815POPC   C4B57874  24.447   6.901   7.350
 7816POPC   NC357875  27.568  24.470   5.550
 7816POPC   PO457876  27.616  24.469   5.850
 7816POPC   GL157877  27.596  24.533   6.150
 7816POPC   GL257878  27.755  24.471   6.150
 7816POPC   C1A57879  27.597  24.514   6.450
 7816POPC   D2A57880  27.614  24.530   6.750
 7816POPC   C3A57881  27.608  24.448   7.050
 7816POPC   C4A57882  27.565  24.520   7.350
 7816POPC   C1B57883  27.820  24.488   6.450
 7816POPC   C2B57884  27.816  24.511   6.750
 7816POPC   C3B57885  27.809  24.498   7.050
 7816POPC   C4B57886  27.809  24.514   7.350
 7817POPC   NC357887  12.094  40.001   5.550
 7817POPC   PO457888  12.088  40.000   5.850
 7817POPC   GL157889  12.067  39.973   6.150
 7817POPC   GL257890  11.997  39.930   6.150
 7817POPC   C1A57891  12.034  39.984   6.450
 7817POPC   D2A57892  12.125  39.970   6.750
 7817POPC   C3A57893  12.048  40.021   7.050
 7817POPC   C4A57894  12.111  40.000   7.350
 7817POPC   C1B57895  11.837  39.811   6.450
 7817POPC   C2B57896  11.914  39.852   6.750
 7817POPC   C3B57897  11.851  39.808   7.050
 7817POPC   C4B57898  11.898  39.809   7.350
 7818POPC   NC357899  10.485  33.047   5.550
 7818POPC   PO457900  10.567  33.066   5.850
 7818POPC   GL157901  10.564  33.056   6.150
 7818POPC   GL257902  10.409  32.966   6.150
 7818POPC   C1A57903  10.482  33.064   6.450
 7818POPC   D2A57904  10.502  32.979   6.750
 7818POPC   C3A57905  10.479  33.031   7.050
 7818POPC   C4A57906  10.533  32.987   7.350
 7818POPC   C1B57907  10.368  32.816   6.450
 7818POPC   C2B57908  10.347  32.893   6.750
 7818POPC   C3B57909  10.330  32.876   7.050
 7818POPC   C4B57910  10.300  32.866   7.350
 7819POPC   NC357911   9.761  11.346   5.550
 7819POPC   PO457912   9.733  11.334   5.850
 7819POPC   GL157913   9.699  11.344   6.150
 7819POPC   GL257914   9.859  11.355   6.150
 7819POPC   C1A57915   9.743  11.312   6.450
 7819POPC   D2A57916   9.777  11.281   6.750
 7819POPC   C3A57917   9.756  11.303   7.050
 7819POPC   C4A57918   9.771  11.326   7.350
 7819POPC   C1B57919  10.012  11.415   6.450
 7819POPC   C2B57920  10.011  11.430   6.750
 7819POPC   C3B57921   9.976  11.356   7.050
 7819POPC   C4B57922  10.002  11.389   7.350
 7820POPC   NC357923  26.027  40.757   5.550
 7820POPC   PO457924  26.006  40.778   5.850
 7820POPC   GL157925  26.091  40.808   6.150
 7820POPC   GL257926  25.991  40.887   6.150
 7820POPC   C1A57927  26.054  40.743   6.450
 7820POPC   D2A57928  26.057  40.819   6.750
 7820POPC   C3A57929  26.082  40.786   7.050
 7820POPC   C4A57930  26.030  40.759   7.350
 7820POPC   C1B57931  25.993  41.042   6.450
 7820POPC   C2B57932  26.037  41.051   6.750
 7820POPC   C3B57933  25.977  41.062   7.050
 7820POPC   C4B57934  26.034  41.060   7.350
 7821POPC   NC357935  22.205   9.016   5.550
 7821POPC   PO457936  22.174   8.975   5.850
 7821POPC   GL157937  22.171   8.927   6.150
 7821POPC   GL257938  22.059   8.910   6.150
 7821POPC   C1A57939  22.211   8.965   6.450
 7821POPC   D2A57940  22.176   8.962   6.750
 7821POPC   C3A57941  22.199   8.991   7.050
 7821POPC   C4A57942  22.145   8.954   7.350
 7821POPC   C1B57943  22.047   8.734   6.450
 7821POPC   C2B57944  22.076   8.797   6.750
 7821POPC   C3B57945  22.004   8.742   7.050
 7821POPC   C4B57946  22.093   8.746   7.350
 7822POPC   NC357947  23.683  21.389   5.550
 7822POPC   PO457948  23.744  21.386   5.850
 7822POPC   GL157949  23.725  21.436   6.150
 7822POPC   GL257950  23.783  21.336   6.150
 7822POPC   C1A57951  23.731  21.429   6.450
 7822POPC   D2A57952  23.713  21.392   6.750
 7822POPC   C3A57953  23.706  21.375   7.050
 7822POPC   C4A57954  23.683  21.401   7.350
 7822POPC   C1B57955  23.925  21.215   6.450
 7822POPC   C2B57956  23.855  21.193   6.750
 7822POPC   C3B57957  23.909  21.244   7.050
 7822POPC   C4B57958  23.904  21.205   7.350
 7823POPC   NC357959  27.575  42.295   5.550
 7823POPC   PO457960  27.569  42.375   5.850
 7823POPC   GL157961  27.588  42.382   6.150
 7823POPC   GL257962  27.646  42.445   6.150
 7823POPC   C1A57963  27.587  42.317   6.450
 7823POPC   D2A57964  27.635  42.348   6.750
 7823POPC   C3A57965  27.608  42.381   7.050
 7823POPC   C4A57966  27.568  42.378   7.350
 7823POPC   C1B57967  27.591  42.543   6.450
 7823POPC   C2B57968  27.621  42.630   6.750
 7823POPC   C3B57969  27.642  42.574   7.050
 7823POPC   C4B57970  27.576  42.594   7.350
 7824POPC   NC357971  16.729   6.660   5.550
 7824POPC   PO457972  16.689   6.643   5.850
 7824POPC   GL157973  16.774   6.692   6.150
 7824POPC   GL257974  16.778   6.487   6.150
 7824POPC   C1A57975  16.763   6.612   6.450
 7824POPC   D2A57976  16.773   6.618   6.750
 7824POPC   C3A57977  16.729   6.662   7.050
 7824POPC   C4A57978  16.777   6.645   7.350
 7824POPC   C1B57979  16.783   6.442   6.450
 7824POPC   C2B57980  16.811   6.422   6.750
 7824POPC   C3B57981  16.770   6.400   7.050
 7824POPC   C4B57982  16.751   6.365   7.350
 7825POPC   NC357983  21.365  32.974   5.550
 7825POPC   PO457984  21.407  33.040   5.850
 7825POPC   GL157985  21.401  33.002   6.150
 7825POPC   GL257986  21.306  32.946   6.150
 7825POPC   C1A57987  21.386  32.997   6.450
 7825POPC   D2A57988  21.377  33.018   6.750
 7825POPC   C3A57989  21.361  33.018   7.050
 7825POPC   C4A57990  21.403  33.031   7.350
 7825POPC   C1B57991  21.168  32.870   6.450
 7825POPC   C2B57992  21.141  32.922   6.750
 7825POPC   C3B57993  21.181  32.920   7.050
 7825POPC   C4B57994  21.174  32.884   7.350
 7826POPC   NC357995   5.917   6.623   5.550
 7826POPC   PO457996   5.916   6.623   5.850
 7826POPC   GL157997   5.904   6.631   6.150
 7826POPC   GL257998   5.964   6.758   6.150
 7826POPC   C1A57999   5.851   6.662   6.450
 7826POPC   D2A58000   5.899   6.647   6.750
 7826POPC   C3A58001   5.823   6.668   7.050
 7826POPC   C4A58002   5.856   6.625   7.350
 7826POPC   C1B58003   6.009   6.783   6.450
 7826POPC   C2B58004   6.012   6.849   6.750
 7826POPC   C3B58005   6.044   6.854   7.050
 7826POPC   C4B58006   6.088   6.824   7.350
 7827POPC   NC358007  38.494  25.233   5.550
 7827POPC   PO458008  38.449  25.294   5.850
 7827POPC   GL158009  38.489  25.273   6.150
 7827POPC   GL258010  38.504  25.162   6.150
 7827POPC   C1A58011  38.453  25.272   6.450
 7827POPC   D2A58012  38.422  25.259   6.750
 7827POPC   C3A58013  38.470  25.236   7.050
 7827POPC   C4A58014  38.474  25.226   7.350
 7827POPC   C1B58015  38.471  24.985   6.450
 7827POPC   C2B58016  38.504  24.982   6.750
 7827POPC   C3B58017  38.452  24.995   7.050
 7827POPC   C4B58018  38.520  24.994   7.350
 7828POPC   NC358019  12.849  15.984   5.550
 7828POPC   PO458020  12.809  15.937   5.850
 7828POPC   GL158021  12.845  15.905   6.150
 7828POPC   GL258022  12.924  16.066   6.150
 7828POPC   C1A58023  12.860  15.954   6.450
 7828POPC   D2A58024  12.889  15.934   6.750
 7828POPC   C3A58025  12.831  15.946   7.050
 7828POPC   C4A58026  12.805  15.970   7.350
 7828POPC   C1B58027  12.934  16.218   6.450
 7828POPC   C2B58028  12.980  16.241   6.750
 7828POPC   C3B58029  12.914  16.199   7.050
 7828POPC   C4B58030  12.948  16.161   7.350
 7829POPC   NC358031  12.057   1.982   5.550
 7829POPC   PO458032  12.035   1.963   5.850
 7829POPC   GL158033  12.122   1.961   6.150
 7829POPC   GL258034  12.218   1.891   6.150
 7829POPC   C1A58035  12.048   2.028   6.450
 7829POPC   D2A58036  12.095   1.955   6.750
 7829POPC   C3A58037  12.111   2.013   7.050
 7829POPC   C4A58038  12.115   1.993   7.350
 7829POPC   C1B58039  12.325   1.895   6.450
 7829POPC   C2B58040  12.308   1.930   6.750
 7829POPC   C3B58041  12.277   1.926   7.050
 7829POPC   C4B58042  12.335   1.879   7.350
 7830POPC   NC358043  25.304  16.689   5.550
 7830POPC   PO458044  25.220  16.692   5.850
 7830POPC   GL158045  25.296  16.691   6.150
 7830POPC   GL258046  25.167  16.863   6.150
 7830POPC   C1A58047  25.237  16.703   6.450
 7830POPC   D2A58048  25.265  16.739   6.750
 7830POPC   C3A58049  25.275  16.724   7.050
 7830POPC   C4A58050  25.312  16.690   7.350
 7830POPC   C1B58051  25.118  16.898   6.450
 7830POPC   C2B58052  25.164  16.958   6.750
 7830POPC   C3B58053  25.121  16.962   7.050
 7830POPC   C4B58054  25.088  16.954   7.350
 7831POPC   NC358055  27.635  16.682   5.550
 7831POPC   PO458056  27.575  16.713   5.850
 7831POPC   GL158057  27.607  16.752   6.150
 7831POPC   GL258058  27.606  16.889   6.150
 7831POPC   C1A58059  27.552  16.717   6.450
 7831POPC   D2A58060  27.590  16.689   6.750
 7831POPC   C3A58061  27.601  16.765   7.050
 7831POPC   C4A58062  27.632  16.780   7.350
 7831POPC   C1B58063  27.482  16.975   6.450
 7831POPC   C2B58064  27.573  16.987   6.750
 7831POPC   C3B58065  27.552  16.966   7.050
 7831POPC   C4B58066  27.567  16.970   7.350
 7832POPC   NC358067   8.202  36.883   5.550
 7832POPC   PO458068   8.148  36.894   5.850
 7832POPC   GL158069   8.197  36.907   6.150
 7832POPC   GL258070   8.270  36.973   6.150
 7832POPC   C1A58071   8.164  36.885   6.450
 7832POPC   D2A58072   8.167  36.949   6.750
 7832POPC   C3A58073   8.186  36.896   7.050
 7832POPC   C4A58074   8.201  36.914   7.350
 7832POPC   C1B58075   8.376  37.136   6.450
 7832POPC   C2B58076   8.367  37.092   6.750
 7832POPC   C3B58077   8.308  37.070   7.050
 7832POPC   C4B58078   8.373  37.127   7.350
 7833POPC   NC358079  26.789  18.263   5.550
 7833POPC   PO458080  26.806  18.250   5.850
 7833POPC   GL158081  26.772  18.260   6.150
 7833POPC   GL258082  26.737  18.267   6.150
 7833POPC   C1A58083  26.866  18.279   6.450
 7833POPC   D2A58084  26.866  18.264   6.750
 7833POPC   C3A58085  26.772  18.312   7.050
 7833POPC   C4A58086  26.848  18.278   7.350
 7833POPC   C1B58087  26.564  18.235   6.450
 7833POPC   C2B58088  26.564  18.204   6.750
 7833POPC   C3B58089  26.553  18.244   7.050
 7833POPC   C4B58090  26.619  18.190   7.350
 7834POPC   NC358091   0.401   1.993   5.550
 7834POPC   PO458092   0.419   2.016   5.850
 7834POPC   GL158093   0.467   1.983   6.150
 7834POPC   GL258094   0.492   2.075   6.150
 7834POPC   C1A58095   0.447   2.034   6.450
 7834POPC   D2A58096   0.471   2.011   6.750
 7834POPC   C3A58097   0.389   1.969   7.050
 7834POPC   C4A58098   0.406   2.007   7.350
 7834POPC   C1B58099   0.660   2.191   6.450
 7834POPC   C2B58100   0.582   2.199   6.750
 7834POPC   C3B58101   0.640   2.204   7.050
 7834POPC   C4B58102   0.574   2.167   7.350
 7835POPC   NC358103   1.185  15.223   5.550
 7835POPC   PO458104   1.244  15.145   5.850
 7835POPC   GL158105   1.250  15.177   6.150
 7835POPC   GL258106   1.288  15.105   6.150
 7835POPC   C1A58107   1.246  15.218   6.450
 7835POPC   D2A58108   1.173  15.209   6.750
 7835POPC   C3A58109   1.227  15.170   7.050
 7835POPC   C4A58110   1.172  15.173   7.350
 7835POPC   C1B58111   1.280  14.898   6.450
 7835POPC   C2B58112   1.309  14.956   6.750
 7835POPC   C3B58113   1.254  14.977   7.050
 7835POPC   C4B58114   1.273  14.933   7.350
 7836POPC   NC358115   4.337   3.500   5.550
 7836POPC   PO458116   4.310   3.561   5.850
 7836POPC   GL158117   4.285   3.581   6.150
 7836POPC   GL258118   4.338   3.372   6.150
 7836POPC   C1A58119   4.332   3.517   6.450
 7836POPC   D2A58120   4.284   3.540   6.750
 7836POPC   C3A58121   4.326   3.514   7.050
 7836POPC   C4A58122   4.328   3.553   7.350
 7836POPC   C1B58123   4.331   3.342   6.450
 7836POPC   C2B58124   4.260   3.333   6.750
 7836POPC   C3B58125   4.283   3.333   7.050
 7836POPC   C4B58126   4.248   3.336   7.350
 7837POPC   NC358127   1.944  22.945   5.550
 7837POPC   PO458128   2.007  22.977   5.850
 7837POPC   GL158129   2.022  22.952   6.150
 7837POPC   GL258130   2.023  23.028   6.150
 7837POPC   C1A58131   2.019  22.944   6.450
 7837POPC   D2A58132   1.961  22.902   6.750
 7837POPC   C3A58133   1.977  22.973   7.050
 7837POPC   C4A58134   2.039  22.898   7.350
 7837POPC   C1B58135   2.188  23.178   6.450
 7837POPC   C2B58136   2.095  23.161   6.750
 7837POPC   C3B58137   2.188  23.157   7.050
 7837POPC   C4B58138   2.111  23.175   7.350
 7838POPC   NC358139  14.354  19.025   5.550
 7838POPC   PO458140  14.403  19.096   5.850
 7838POPC   GL158141  14.424  19.073   6.150
 7838POPC   GL258142  14.515  19.115   6.150
 7838POPC   C1A58143  14.443  19.069   6.450
 7838POPC   D2A58144  14.359  19.048   6.750
 7838POPC   C3A58145  14.395  19.058   7.050
 7838POPC   C4A58146  14.375  19.108   7.350
 7838POPC   C1B58147  14.585  19.172   6.450
 7838POPC   C2B58148  14.591  19.223   6.750
 7838POPC   C3B58149  14.599  19.243   7.050
 7838POPC   C4B58150  14.551  19.175   7.350
 7839POPC   NC358151  20.600   5.057   5.550
 7839POPC   PO458152  20.576   5.126   5.850
 7839POPC   GL158153  20.572   5.117   6.150
 7839POPC   GL258154  20.623   5.169   6.150
 7839POPC   C1A58155  20.593   5.054   6.450
 7839POPC   D2A58156  20.569   5.075   6.750
 7839POPC   C3A58157  20.617   5.123   7.050
 7839POPC   C4A58158  20.602   5.044   7.350
 7839POPC   C1B58159  20.584   5.337   6.450
 7839POPC   C2B58160  20.547   5.385   6.750
 7839POPC   C3B58161  20.623   5.361   7.050
 7839POPC   C4B58162  20.636   5.338   7.350
 7840POPC   NC358163  19.059  14.404   5.550
 7840POPC   PO458164  19.080  14.430   5.850
 7840POPC   GL158165  19.106  14.432   6.150
 7840POPC   GL258166  18.962  14.452   6.150
 7840POPC   C1A58167  19.053  14.436   6.450
 7840POPC   D2A58168  19.081  14.373   6.750
 7840POPC   C3A58169  19.019  14.408   7.050
 7840POPC   C4A58170  19.092  14.402   7.350
 7840POPC   C1B58171  18.779  14.411   6.450
 7840POPC   C2B58172  18.794  14.485   6.750
 7840POPC   C3B58173  18.767  14.404   7.050
 7840POPC   C4B58174  18.771  14.395   7.350
 7841POPC   NC358175  12.027  33.028   5.550
 7841POPC   PO458176  12.123  33.004   5.850
 7841POPC   GL158177  12.047  33.062   6.150
 7841POPC   GL258178  12.163  32.998   6.150
 7841POPC   C1A58179  12.027  32.977   6.450
 7841POPC   D2A58180  12.069  33.006   6.750
 7841POPC   C3A58181  12.041  32.985   7.050
 7841POPC   C4A58182  12.062  33.064   7.350
 7841POPC   C1B58183  12.315  33.066   6.450
 7841POPC   C2B58184  12.281  33.117   6.750
 7841POPC   C3B58185  12.325  33.055   7.050
 7841POPC   C4B58186  12.337  33.101   7.350
 7842POPC   NC358187  31.482  16.704   5.550
 7842POPC   PO458188  31.445  16.730   5.850
 7842POPC   GL158189  31.507  16.750   6.150
 7842POPC   GL258190  31.382  16.770   6.150
 7842POPC   C1A58191  31.520  16.763   6.450
 7842POPC   D2A58192  31.451  16.713   6.750
 7842POPC   C3A58193  31.480  16.767   7.050
 7842POPC   C4A58194  31.470  16.774   7.350
 7842POPC   C1B58195  31.232  16.902   6.450
 7842POPC   C2B58196  31.243  16.842   6.750
 7842POPC   C3B58197  31.233  16.898   7.050
 7842POPC   C4B58198  31.277  16.886   7.350
 7843POPC   NC358199  36.131   2.761   5.550
 7843POPC   PO458200  36.148   2.725   5.850
 7843POPC   GL158201  36.173   2.778   6.150
 7843POPC   GL258202  36.249   2.867   6.150
 7843POPC   C1A58203  36.132   2.768   6.450
 7843POPC   D2A58204  36.124   2.742   6.750
 7843POPC   C3A58205  36.137   2.722   7.050
 7843POPC   C4A58206  36.149   2.800   7.350
 7843POPC   C1B58207  36.362   2.935   6.450
 7843POPC   C2B58208  36.308   2.884   6.750
 7843POPC   C3B58209  36.306   2.897   7.050
 7843POPC   C4B58210  36.305   2.879   7.350
 7844POPC   NC358211   2.763  34.553   5.550
 7844POPC   PO458212   2.731  34.607   5.850
 7844POPC   GL158213   2.807  34.542   6.150
 7844POPC   GL258214   2.801  34.698   6.150
 7844POPC   C1A58215   2.773  34.575   6.450
 7844POPC   D2A58216   2.731  34.545   6.750
 7844POPC   C3A58217   2.742  34.604   7.050
 7844POPC   C4A58218   2.803  34.541   7.350
 7844POPC   C1B58219   2.876  34.865   6.450
 7844POPC   C2B58220   2.804  34.804   6.750
 7844POPC   C3B58221   2.813  34.799   7.050
 7844POPC   C4B58222   2.810  34.864   7.350
 7845POPC   NC358223   5.913  18.275   5.550
 7845POPC   PO458224   5.851  18.299   5.850
 7845POPC   GL158225   5.852  18.235   6.150
 7845POPC   GL258226   5.977  18.414   6.150
 7845POPC   C1A58227   5.865  18.319   6.450
 7845POPC   D2A58228   5.854  18.254   6.750
 7845POPC   C3A58229   5.917  18.295   7.050
 7845POPC   C4A58230   5.916  18.329   7.350
 7845POPC   C1B58231   6.010  18.495   6.450
 7845POPC   C2B58232   6.025  18.524   6.750
 7845POPC   C3B58233   6.006  18.507   7.050
 7845POPC   C4B58234   5.952  18.537   7.350
 7846POPC   NC358235  23.708  29.929   5.550
 7846POPC   PO458236  23.700  29.943   5.850
 7846POPC   GL158237  23.739  29.886   6.150
 7846POPC   GL258238  23.843  29.948   6.150
 7846POPC   C1A58239  23.750  29.891   6.450
 7846POPC   D2A58240  23.702  29.917   6.750
 7846POPC   C3A58241  23.747  29.967   7.050
 7846POPC   C4A58242  23.725  29.951   7.350
 7846POPC   C1B58243  23.912  29.980   6.450
 7846POPC   C2B58244  23.902  29.970   6.750
 7846POPC   C3B58245  23.911  30.031   7.050
 7846POPC   C4B58246  23.953  30.008   7.350
 7847POPC   NC358247  38.474   2.807   5.550
 7847POPC   PO458248  38.409   2.781   5.850
 7847POPC   GL158249  38.432   2.717   6.150
 7847POPC   GL258250  38.529   2.728   6.150
 7847POPC   C1A58251  38.473   2.794   6.450
 7847POPC   D2A58252  38.476   2.813   6.750
 7847POPC   C3A58253  38.458   2.805   7.050
 7847POPC   C4A58254  38.412   2.762   7.350
 7847POPC   C1B58255  38.675   2.662   6.450
 7847POPC   C2B58256  38.608   2.584   6.750
 7847POPC   C3B58257  38.613   2.618   7.050
 7847POPC   C4B58258  38.651   2.637   7.350
 7848POPC   NC358259  39.274  13.664   5.550
 7848POPC   PO458260  39.210  13.633   5.850
 7848POPC   GL158261  39.257  13.648   6.150
 7848POPC   GL258262  39.133  13.720   6.150
 7848POPC   C1A58263  39.207  13.668   6.450
 7848POPC   D2A58264  39.232  13.593   6.750
 7848POPC   C3A58265  39.245  13.632   7.050
 7848POPC   C4A58266  39.186  13.617   7.350
 7848POPC   C1B58267  39.075  13.783   6.450
 7848POPC   C2B58268  39.085  13.774   6.750
 7848POPC   C3B58269  39.026  13.814   7.050
 7848POPC   C4B58270  39.008  13.834   7.350
 7849POPC   NC358271   3.495  33.059   5.550
 7849POPC   PO458272   3.522  32.979   5.850
 7849POPC   GL158273   3.515  33.025   6.150
 7849POPC   GL258274   3.469  33.049   6.150
 7849POPC   C1A58275   3.496  33.009   6.450
 7849POPC   D2A58276   3.589  33.060   6.750
 7849POPC   C3A58277   3.571  33.069   7.050
 7849POPC   C4A58278   3.573  33.066   7.350
 7849POPC   C1B58279   3.325  33.124   6.450
 7849POPC   C2B58280   3.341  33.134   6.750
 7849POPC   C3B58281   3.353  33.125   7.050
 7849POPC   C4B58282   3.329  33.125   7.350
 7850POPC   NC358283  13.674   9.788   5.550
 7850POPC   PO458284  13.655   9.796   5.850
 7850POPC   GL158285  13.579   9.786   6.150
 7850POPC   GL258286  13.638   9.662   6.150
 7850POPC   C1A58287  13.597   9.770   6.450
 7850POPC   D2A58288  13.622   9.767   6.750
 7850POPC   C3A58289  13.607   9.709   7.050
 7850POPC   C4A58290  13.674   9.714   7.350
 7850POPC   C1B58291  13.616   9.541   6.450
 7850POPC   C2B58292  13.698   9.518   6.750
 7850POPC   C3B58293  13.677   9.493   7.050
 7850POPC   C4B58294  13.657   9.467   7.350
 7851POPC   NC358295   5.055  13.580   5.550
 7851POPC   PO458296   5.085  13.641   5.850
 7851POPC   GL158297   5.077  13.620   6.150
 7851POPC   GL258298   5.228  13.549   6.150
 7851POPC   C1A58299   5.130  13.627   6.450
 7851POPC   D2A58300   5.097  13.638   6.750
 7851POPC   C3A58301   5.088  13.597   7.050
 7851POPC   C4A58302   5.126  13.623   7.350
 7851POPC   C1B58303   5.315  13.574   6.450
 7851POPC   C2B58304   5.322  13.543   6.750
 7851POPC   C3B58305   5.304  13.572   7.050
 7851POPC   C4B58306   5.273  13.536   7.350
 7852POPC   NC358307  36.166  26.033   5.550
 7852POPC   PO458308  36.082  26.051   5.850
 7852POPC   GL158309  36.171  25.994   6.150
 7852POPC   GL258310  36.023  25.960   6.150
 7852POPC   C1A58311  36.124  26.026   6.450
 7852POPC   D2A58312  36.169  26.071   6.750
 7852POPC   C3A58313  36.086  26.023   7.050
 7852POPC   C4A58314  36.087  26.080   7.350
 7852POPC   C1B58315  35.885  25.958   6.450
 7852POPC   C2B58316  35.857  25.900   6.750
 7852POPC   C3B58317  35.930  25.942   7.050
 7852POPC   C4B58318  35.909  25.905   7.350
 7853POPC   NC358319  35.397  21.365   5.550
 7853POPC   PO458320  35.320  21.427   5.850
 7853POPC   GL158321  35.317  21.362   6.150
 7853POPC   GL258322  35.395  21.490   6.150
 7853POPC   C1A58323  35.379  21.382   6.450
 7853POPC   D2A58324  35.318  21.430   6.750
 7853POPC   C3A58325  35.312  21.375   7.050
 7853POPC   C4A58326  35.302  21.416   7.350
 7853POPC   C1B58327  35.477  21.624   6.450
 7853POPC   C2B58328  35.440  21.603   6.750
 7853POPC   C3B58329  35.418  21.564   7.050
 7853POPC   C4B58330  35.500  21.587   7.350
 7854POPC   NC358331  43.115  29.147   5.550
 7854POPC   PO458332  43.116  29.142   5.850
 7854POPC   GL158333  43.131  29.171   6.150
 7854POPC   GL258334  43.128  29.062   6.150
 7854POPC   C1A58335  43.069  29.174   6.450
 7854POPC   D2A58336  43.111  29.187   6.750
 7854POPC   C3A58337  43.086  29.188   7.050
 7854POPC   C4A58338  43.071  29.105   7.350
 7854POPC   C1B58339  43.175  28.959   6.450
 7854POPC   C2B58340  43.202  28.867   6.750
 7854POPC   C3B58341  43.243  28.935   7.050
 7854POPC   C4B58342  43.173  28.889   7.350
 7855POPC   NC358343  15.928  36.157   5.550
 7855POPC   PO458344  15.908  36.106   5.850
 7855POPC   GL158345  15.931  36.091   6.150
 7855POPC   GL258346  15.909  36.246   6.150
 7855POPC   C1A58347  15.923  36.174   6.450
 7855POPC   D2A58348  15.931  36.152   6.750
 7855POPC   C3A58349  15.980  36.130   7.050
 7855POPC   C4A58350  15.912  36.110   7.350
 7855POPC   C1B58351  15.786  36.267   6.450
 7855POPC   C2B58352  15.765  36.333   6.750
 7855POPC   C3B58353  15.789  36.349   7.050
 7855POPC   C4B58354  15.753  36.282   7.350
 7856POPC   NC358355  11.291   5.139   5.550
 7856POPC   PO458356  11.294   5.069   5.850
 7856POPC   GL158357  11.349   5.077   6.150
 7856POPC   GL258358  11.406   5.060   6.150
 7856POPC   C1A58359  11.291   5.054   6.450
 7856POPC   D2A58360  11.288   5.084   6.750
 7856POPC   C3A58361  11.346   5.075   7.050
 7856POPC   C4A58362  11.266   5.071   7.350
 7856POPC   C1B58363  11.540   4.955   6.450
 7856POPC   C2B58364  11.533   4.918   6.750
 7856POPC   C3B58365  11.526   4.907   7.050
 7856POPC   C4B58366  11.501   4.940   7.350
 7857POPC   NC358367  19.025  39.227   5.550
 7857POPC   PO458368  19.099  39.199   5.850
 7857POPC   GL158369  19.016  39.257   6.150
 7857POPC   GL258370  19.137  39.186   6.150
 7857POPC   C1A58371  19.031  39.215   6.450
 7857POPC   D2A58372  19.082  39.239   6.750
 7857POPC   C3A58373  19.101  39.206   7.050
 7857POPC   C4A58374  19.018  39.252   7.350
 7857POPC   C1B58375  19.317  39.146   6.450
 7857POPC   C2B58376  19.350  39.167   6.750
 7857POPC   C3B58377  19.305  39.214   7.050
 7857POPC   C4B58378  19.262  39.236   7.350
 7858POPC   NC358379   8.241  10.482   5.550
 7858POPC   PO458380   8.159  10.562   5.850
 7858POPC   GL158381   8.219  10.498   6.150
 7858POPC   GL258382   8.194  10.394   6.150
 7858POPC   C1A58383   8.204  10.541   6.450
 7858POPC   D2A58384   8.205  10.512   6.750
 7858POPC   C3A58385   8.218  10.504   7.050
 7858POPC   C4A58386   8.224  10.534   7.350
 7858POPC   C1B58387   8.221  10.309   6.450
 7858POPC   C2B58388   8.220  10.282   6.750
 7858POPC   C3B58389   8.164  10.262   7.050
 7858POPC   C4B58390   8.228  10.232   7.350
 7859POPC   NC358391   9.014  13.637   5.550
 7859POPC   PO458392   8.941  13.602   5.850
 7859POPC   GL158393   9.013  13.594   6.150
 7859POPC   GL258394   8.892  13.528   6.150
 7859POPC   C1A58395   8.941  13.611   6.450
 7859POPC   D2A58396   9.019  13.590   6.750
 7859POPC   C3A58397   8.965  13.586   7.050
 7859POPC   C4A58398   8.954  13.615   7.350
 7859POPC   C1B58399   8.900  13.369   6.450
 7859POPC   C2B58400   8.938  13.437   6.750
 7859POPC   C3B58401   8.941  13.386   7.050
 7859POPC   C4B58402   8.860  13.372   7.350
 7860POPC   NC358403   1.180  12.049   5.550
 7860POPC   PO458404   1.216  12.055   5.850
 7860POPC   GL158405   1.212  12.115   6.150
 7860POPC   GL258406   1.382  12.057   6.150
 7860POPC   C1A58407   1.210  12.029   6.450
 7860POPC   D2A58408   1.181  12.032   6.750
 7860POPC   C3A58409   1.210  12.074   7.050
 7860POPC   C4A58410   1.185  12.070   7.350
 7860POPC   C1B58411   1.430  12.063   6.450
 7860POPC   C2B58412   1.483  12.026   6.750
 7860POPC   C3B58413   1.434  12.026   7.050
 7860POPC   C4B58414   1.418  12.085   7.350
 7861POPC   NC358415  13.636   4.273   5.550
 7861POPC   PO458416  13.604   4.285   5.850
 7861POPC   GL158417  13.611   4.284   6.150
 7861POPC   GL258418  13.742   4.340   6.150
 7861POPC   C1A58419  13.630   4.282   6.450
 7861POPC   D2A58420  13.662   4.346   6.750
 7861POPC   C3A58421  13.579   4.337   7.050
 7861POPC   C4A58422  13.672   4.332   7.350
 7861POPC   C1B58423  13.866   4.321   6.450
 7861POPC   C2B58424  13.912   4.261   6.750
 7861POPC   C3B58425  13.860   4.295   7.050
 7861POPC   C4B58426  13.909   4.298   7.350
 7862POPC   NC358427  19.882  13.598   5.550
 7862POPC   PO458428  19.826  13.647   5.850
 7862POPC   GL158429  19.831  13.631   6.150
 7862POPC   GL258430  19.933  13.535   6.150
 7862POPC   C1A58431  19.851  13.659   6.450
 7862POPC   D2A58432  19.879  13.594   6.750
 7862POPC   C3A58433  19.876  13.674   7.050
 7862POPC   C4A58434  19.794  13.585   7.350
 7862POPC   C1B58435  20.020  13.421   6.450
 7862POPC   C2B58436  20.015  13.418   6.750
 7862POPC   C3B58437  19.967  13.447   7.050
 7862POPC   C4B58438  20.014  13.492   7.350
 7863POPC   NC358439  35.382  30.733   5.550
 7863POPC   PO458440  35.331  30.711   5.850
 7863POPC   GL158441  35.336  30.651   6.150
 7863POPC   GL258442  35.490  30.765   6.150
 7863POPC   C1A58443  35.329  30.708   6.450
 7863POPC   D2A58444  35.331  30.719   6.750
 7863POPC   C3A58445  35.383  30.647   7.050
 7863POPC   C4A58446  35.338  30.734   7.350
 7863POPC   C1B58447  35.553  30.825   6.450
 7863POPC   C2B58448  35.571  30.824   6.750
 7863POPC   C3B58449  35.516  30.847   7.050
 7863POPC   C4B58450  35.569  30.914   7.350
 7864POPC   NC358451  12.833   8.168   5.550
 7864POPC   PO458452  12.898   8.176   5.850
 7864POPC   GL158453  12.814   8.159   6.150
 7864POPC   GL258454  12.976   8.088   6.150
 7864POPC   C1A58455  12.856   8.224   6.450
 7864POPC   D2A58456  12.809   8.183   6.750
 7864POPC   C3A58457  12.894   8.191   7.050
 7864POPC   C4A58458  12.878   8.151   7.350
 7864POPC   C1B58459  13.049   8.029   6.450
 7864POPC   C2B58460  12.988   7.996   6.750
 7864POPC   C3B58461  13.034   8.038   7.050
 7864POPC   C4B58462  13.070   8.016   7.350
 7865POPC   NC358463  43.095  11.321   5.550
 7865POPC   PO458464  43.065  11.263   5.850
 7865POPC   GL158465  43.087  11.276   6.150
 7865POPC   GL258466  43.035  11.260   6.150
 7865POPC   C1A58467  43.095  11.277   6.450
 7865POPC   D2A58468  43.061  11.317   6.750
 7865POPC   C3A58469  43.073  11.304   7.050
 7865POPC   C4A58470  43.085  11.349   7.350
 7865POPC   C1B58471  42.914  11.250   6.450
 7865POPC   C2B58472  42.877  11.218   6.750
 7865POPC   C3B58473  42.862  11.263   7.050
 7865POPC   C4B58474  42.917  11.191   7.350
 7866POPC   NC358475  30.656  13.641   5.550
 7866POPC   PO458476  30.673  13.590   5.850
 7866POPC   GL158477  30.737  13.642   6.150
 7866POPC   GL258478  30.610  13.472   6.150
 7866POPC   C1A58479  30.723  13.594   6.450
 7866POPC   D2A58480  30.707  13.595   6.750
 7866POPC   C3A58481  30.679  13.596   7.050
 7866POPC   C4A58482  30.743  13.602   7.350
 7866POPC   C1B58483  30.617  13.354   6.450
 7866POPC   C2B58484  30.569  13.424   6.750
 7866POPC   C3B58485  30.585  13.429   7.050
 7866POPC   C4B58486  30.570  13.362   7.350
 7867POPC   NC358487  22.893  33.024   5.550
 7867POPC   PO458488  22.898  32.984   5.850
 7867POPC   GL158489  22.906  32.997   6.150
 7867POPC   GL258490  22.976  32.864   6.150
 7867POPC   C1A58491  22.964  33.066   6.450
 7867POPC   D2A58492  22.915  33.018   6.750
 7867POPC   C3A58493  22.963  33.067   7.050
 7867POPC   C4A58494  22.938  33.022   7.350
 7867POPC   C1B58495  22.959  32.813   6.450
 7867POPC   C2B58496  23.032  32.777   6.750
 7867POPC   C3B58497  22.968  32.762   7.050
 7867POPC   C4B58498  22.949  32.736   7.350
 7868POPC   NC358499  32.286  41.519   5.550
 7868POPC   PO458500  32.295  41.554   5.850
 7868POPC   GL158501  32.212  41.513   6.150
 7868POPC   GL258502  32.183  41.645   6.150
 7868POPC   C1A58503  32.282  41.563   6.450
 7868POPC   D2A58504  32.289  41.522   6.750
 7868POPC   C3A58505  32.199  41.531   7.050
 7868POPC   C4A58506  32.242  41.515   7.350
 7868POPC   C1B58507  32.014  41.705   6.450
 7868POPC   C2B58508  32.042  41.741   6.750
 7868POPC   C3B58509  32.077  41.658   7.050
 7868POPC   C4B58510  32.041  41.704   7.350
 7869POPC   NC358511  37.660   8.998   5.550
 7869POPC   PO458512  37.640   9.007   5.850
 7869POPC   GL158513  37.685   8.993   6.150
 7869POPC   GL258514  37.754   9.051   6.150
 7869POPC   C1A58515  37.727   8.999   6.450
 7869POPC   D2A58516  37.669   8.968   6.750
 7869POPC   C3A58517  37.714   8.983   7.050
 7869POPC   C4A58518  37.697   9.018   7.350
 7869POPC   C1B58519  37.922   9.054   6.450
 7869POPC   C2B58520  37.881   9.112   6.750
 7869POPC   C3B58521  37.882   9.136   7.050
 7869POPC   C4B58522  37.913   9.121   7.350
 7870POPC   NC358523  22.930   7.441   5.550
 7870POPC   PO458524  22.912   7.410   5.850
 7870POPC   GL158525  22.966   7.391   6.150
 7870POPC   GL258526  22.895   7.590   6.150
 7870POPC   C1A58527  22.900   7.460   6.450
 7870POPC   D2A58528  22.923   7.402   6.750
 7870POPC   C3A58529  22.926   7.391   7.050
 7870POPC   C4A58530  22.904   7.469   7.350
 7870POPC   C1B58531  22.854   7.702   6.450
 7870POPC   C2B58532  22.876   7.658   6.750
 7870POPC   C3B58533  22.857   7.702   7.050
 7870POPC   C4B58534  22.862   7.687   7.350
 7871POPC   NC358535   0.393  37.640   5.550
 7871POPC   PO458536   0.444  37.714   5.850
 7871POPC   GL158537   0.437  37.720   6.150
 7871POPC   GL258538   0.470  37.842   6.150
 7871POPC   C1A58539   0.461  37.683   6.450
 7871POPC   D2A58540   0.466  37.681   6.750
 7871POPC   C3A58541   0.405  37.722   7.050
 7871POPC   C4A58542   0.471  37.704   7.350
 7871POPC   C1B58543   0.414  37.932   6.450
 7871POPC   C2B58544   0.498  37.880   6.750
 7871POPC   C3B58545   0.456  37.975   7.050
 7871POPC   C4B58546   0.458  37.944   7.350
 7872POPC   NC358547  32.289  13.593   5.550
 7872POPC   PO458548  32.296  13.635   5.850
 7872POPC   GL158549  32.295  13.594   6.150
 7872POPC   GL258550  32.179  13.724   6.150
 7872POPC   C1A58551  32.209  13.619   6.450
 7872POPC   D2A58552  32.260  13.628   6.750
 7872POPC   C3A58553  32.265  13.599   7.050
 7872POPC   C4A58554  32.268  13.591   7.350
 7872POPC   C1B58555  32.066  13.800   6.450
 7872POPC   C2B58556  32.072  13.811   6.750
 7872POPC   C3B58557  32.112  13.851   7.050
 7872POPC   C4B58558  32.047  13.827   7.350
 7873POPC   NC358559  25.293  19.841   5.550
 7873POPC   PO458560  25.254  19.849   5.850
 7873POPC   GL158561  25.253  19.823   6.150
 7873POPC   GL258562  25.141  19.845   6.150
 7873POPC   C1A58563  25.315  19.797   6.450
 7873POPC   D2A58564  25.266  19.801   6.750
 7873POPC   C3A58565  25.311  19.842   7.050
 7873POPC   C4A58566  25.225  19.824   7.350
 7873POPC   C1B58567  25.042  19.806   6.450
 7873POPC   C2B58568  25.014  19.794   6.750
 7873POPC   C3B58569  25.043  19.828   7.050
 7873POPC   C4B58570  24.979  19.778   7.350
 7874POPC   NC358571  27.624  21.420   5.550
 7874POPC   PO458572  27.614  21.388   5.850
 7874POPC   GL158573  27.605  21.357   6.150
 7874POPC   GL258574  27.520  21.496   6.150
 7874POPC   C1A58575  27.568  21.387   6.450
 7874POPC   D2A58576  27.630  21.431   6.750
 7874POPC   C3A58577  27.630  21.416   7.050
 7874POPC   C4A58578  27.627  21.396   7.350
 7874POPC   C1B58579  27.518  21.597   6.450
 7874POPC   C2B58580  27.556  21.673   6.750
 7874POPC   C3B58581  27.523  21.589   7.050
 7874POPC   C4B58582  27.530  21.628   7.350
 7875POPC   NC358583  25.271  13.589   5.550
 7875POPC   PO458584  25.237  13.588   5.850
 7875POPC   GL158585  25.308  13.672   6.150
 7875POPC   GL258586  25.396  13.622   6.150
 7875POPC   C1A58587  25.311  13.671   6.450
 7875POPC   D2A58588  25.226  13.643   6.750
 7875POPC   C3A58589  25.252  13.633   7.050
 7875POPC   C4A58590  25.233  13.625   7.350
 7875POPC   C1B58591  25.538  13.503   6.450
 7875POPC   C2B58592  25.476  13.515   6.750
 7875POPC   C3B58593  25.545  13.526   7.050
 7875POPC   C4B58594  25.482  13.518   7.350
 7876POPC   NC358595  33.759  26.805   5.550
 7876POPC   PO458596  33.756  26.858   5.850
 7876POPC   GL158597  33.790  26.808   6.150
 7876POPC   GL258598  33.972  26.796   6.150
 7876POPC   C1A58599  33.765  26.831   6.450
 7876POPC   D2A58600  33.801  26.787   6.750
 7876POPC   C3A58601  33.775  26.794   7.050
 7876POPC   C4A58602  33.764  26.858   7.350
 7876POPC   C1B58603  34.086  26.879   6.450
 7876POPC   C2B58604  34.028  26.846   6.750
 7876POPC   C3B58605  34.093  26.800   7.050
 7876POPC   C4B58606  34.061  26.819   7.350
 7877POPC   NC358607  29.970   5.859   5.550
 7877POPC   PO458608  29.943   5.867   5.850
 7877POPC   GL158609  29.882   5.852   6.150
 7877POPC   GL258610  29.797   5.849   6.150
 7877POPC   C1A58611  29.964   5.857   6.450
 7877POPC   D2A58612  29.899   5.912   6.750
 7877POPC   C3A58613  29.896   5.914   7.050
 7877POPC   C4A58614  29.951   5.874   7.350
 7877POPC   C1B58615  29.675   5.866   6.450
 7877POPC   C2B58616  29.629   5.896   6.750
 7877POPC   C3B58617  29.692   5.907   7.050
 7877POPC   C4B58618  29.689   5.901   7.350
 7878POPC   NC358619  40.784  19.835   5.550
 7878POPC   PO458620  40.786  19.813   5.850
 7878POPC   GL158621  40.779  19.851   6.150
 7878POPC   GL258622  40.898  19.857   6.150
 7878POPC   C1A58623  40.777  19.830   6.450
 7878POPC   D2A58624  40.810  19.843   6.750
 7878POPC   C3A58625  40.816  19.794   7.050
 7878POPC   C4A58626  40.761  19.799   7.350
 7878POPC   C1B58627  41.051  19.850   6.450
 7878POPC   C2B58628  41.037  19.881   6.750
 7878POPC   C3B58629  40.994  19.814   7.050
 7878POPC   C4B58630  41.013  19.820   7.350
 7879POPC   NC358631  43.857  25.306   5.550
 7879POPC   PO458632  43.891  25.242   5.850
 7879POPC   GL158633  43.874  25.244   6.150
 7879POPC   GL258634  43.776  25.315   6.150
 7879POPC   C1A58635  43.913  25.303   6.450
 7879POPC   D2A58636  43.854  25.231   6.750
 7879POPC   C3A58637  43.895  25.306   7.050
 7879POPC   C4A58638  43.852  25.270   7.350
 7879POPC   C1B58639  43.617  25.314   6.450
 7879POPC   C2B58640  43.598  25.295   6.750
 7879POPC   C3B58641  43.645  25.261   7.050
 7879POPC   C4B58642  43.632  25.291   7.350
 7880POPC   NC358643  40.043  35.334   5.550
 7880POPC   PO458644  39.971  35.386   5.850
 7880POPC   GL158645  39.980  35.303   6.150
 7880POPC   GL258646  39.888  35.306   6.150
 7880POPC   C1A58647  39.980  35.328   6.450
 7880POPC   D2A58648  40.028  35.332   6.750
 7880POPC   C3A58649  39.975  35.359   7.050
 7880POPC   C4A58650  39.986  35.383   7.350
 7880POPC   C1B58651  39.822  35.157   6.450
 7880POPC   C2B58652  39.786  35.223   6.750
 7880POPC   C3B58653  39.847  35.156   7.050
 7880POPC   C4B58654  39.779  35.181   7.350
 7881POPC   NC358655  43.124  12.824   5.550
 7881POPC   PO458656  43.100  12.882   5.850
 7881POPC   GL158657  43.087  12.848   6.150
 7881POPC   GL258658  43.043  12.685   6.150
 7881POPC   C1A58659  43.117  12.804   6.450
 7881POPC   D2A58660  43.132  12.899   6.750
 7881POPC   C3A58661  43.102  12.901   7.050
 7881POPC   C4A58662  43.110  12.888   7.350
 7881POPC   C1B58663  43.024  12.652   6.450
 7881POPC   C2B58664  43.041  12.573   6.750
 7881POPC   C3B58665  43.055  12.655   7.050
 7881POPC   C4B58666  43.051  12.557   7.350
 7882POPC   NC358667  42.308   2.770   5.550
 7882POPC   PO458668  42.355   2.809   5.850
 7882POPC   GL158669  42.313   2.734   6.150
 7882POPC   GL258670  42.265   2.896   6.150
 7882POPC   C1A58671  42.364   2.729   6.450
 7882POPC   D2A58672  42.285   2.745   6.750
 7882POPC   C3A58673  42.346   2.755   7.050
 7882POPC   C4A58674  42.292   2.747   7.350
 7882POPC   C1B58675  42.291   2.976   6.450
 7882POPC   C2B58676  42.291   3.035   6.750
 7882POPC   C3B58677  42.276   2.981   7.050
 7882POPC   C4B58678  42.308   3.028   7.350
 7883POPC   NC358679   8.929  22.154   5.550
 7883POPC   PO458680   8.982  22.145   5.850
 7883POPC   GL158681   8.952  22.138   6.150
 7883POPC   GL258682   8.882  22.186   6.150
 7883POPC   C1A58683   8.928  22.200   6.450
 7883POPC   D2A58684   8.939  22.115   6.750
 7883POPC   C3A58685   8.969  22.202   7.050
 7883POPC   C4A58686   8.973  22.137   7.350
 7883POPC   C1B58687   8.740  22.320   6.450
 7883POPC   C2B58688   8.760  22.283   6.750
 7883POPC   C3B58689   8.717  22.316   7.050
 7883POPC   C4B58690   8.752  22.321   7.350
 7884POPC   NC358691  41.581  12.081   5.550
 7884POPC   PO458692  41.607  12.099   5.850
 7884POPC   GL158693  41.562  12.069   6.150
 7884POPC   GL258694  41.680  12.131   6.150
 7884POPC   C1A58695  41.511  12.126   6.450
 7884POPC   D2A58696  41.537  12.100   6.750
 7884POPC   C3A58697  41.534  12.123   7.050
 7884POPC   C4A58698  41.549  12.032   7.350
 7884POPC   C1B58699  41.799  12.186   6.450
 7884POPC   C2B58700  41.847  12.147   6.750
 7884POPC   C3B58701  41.829  12.182   7.050
 7884POPC   C4B58702  41.811  12.132   7.350
 7885POPC   NC358703  28.351  20.624   5.550
 7885POPC   PO458704  28.409  20.624   5.850
 7885POPC   GL158705  28.374  20.598   6.150
 7885POPC   GL258706  28.399  20.722   6.150
 7885POPC   C1A58707  28.334  20.590   6.450
 7885POPC   D2A58708  28.348  20.606   6.750
 7885POPC   C3A58709  28.321  20.600   7.050
 7885POPC   C4A58710  28.387  20.628   7.350
 7885POPC   C1B58711  28.441  20.831   6.450
 7885POPC   C2B58712  28.426  20.803   6.750
 7885POPC   C3B58713  28.410  20.843   7.050
 7885POPC   C4B58714  28.484  20.826   7.350
 7886POPC   NC358715   8.965  35.356   5.550
 7886POPC   PO458716   8.940  35.334   5.850
 7886POPC   GL158717   8.951  35.352   6.150
 7886POPC   GL258718   8.971  35.213   6.150
 7886POPC   C1A58719   8.982  35.339   6.450
 7886POPC   D2A58720   8.948  35.347   6.750
 7886POPC   C3A58721   8.946  35.388   7.050
 7886POPC   C4A58722   8.988  35.370   7.350
 7886POPC   C1B58723   8.947  35.090   6.450
 7886POPC   C2B58724   8.945  35.109   6.750
 7886POPC   C3B58725   9.003  35.098   7.050
 7886POPC   C4B58726   8.982  35.134   7.350
 7887POPC   NC358727  26.799   2.026   5.550
 7887POPC   PO458728  26.775   1.945   5.850
 7887POPC   GL158729  26.833   1.948   6.150
 7887POPC   GL258730  26.698   1.979   6.150
 7887POPC   C1A58731  26.779   1.943   6.450
 7887POPC   D2A58732  26.861   1.999   6.750
 7887POPC   C3A58733  26.792   2.039   7.050
 7887POPC   C4A58734  26.816   2.024   7.350
 7887POPC   C1B58735  26.582   2.107   6.450
 7887POPC   C2B58736  26.531   2.092   6.750
 7887POPC   C3B58737  26.617   2.056   7.050
 7887POPC   C4B58738  26.535   2.103   7.350
 7888POPC   NC358739  16.781  28.364   5.550
 7888POPC   PO458740  16.710  28.409   5.850
 7888POPC   GL158741  16.737  28.364   6.150
 7888POPC   GL258742  16.610  28.257   6.150
 7888POPC   C1A58743  16.776  28.396   6.450
 7888POPC   D2A58744  16.693  28.364   6.750
 7888POPC   C3A58745  16.756  28.335   7.050
 7888POPC   C4A58746  16.776  28.416   7.350
 7888POPC   C1B58747  16.587  28.217   6.450
 7888POPC   C2B58748  16.561  28.196   6.750
 7888POPC   C3B58749  16.575  28.131   7.050
 7888POPC   C4B58750  16.559  28.126   7.350
 7889POPC   NC358751  39.981  16.698   5.550
 7889POPC   PO458752  39.999  16.727   5.850
 7889POPC   GL158753  40.010  16.685   6.150
 7889POPC   GL258754  40.163  16.695   6.150
 7889POPC   C1A58755  40.041  16.702   6.450
 7889POPC   D2A58756  40.000  16.775   6.750
 7889POPC   C3A58757  39.958  16.728   7.050
 7889POPC   C4A58758  40.040  16.755   7.350
 7889POPC   C1B58759  40.301  16.746   6.450
 7889POPC   C2B58760  40.302  16.710   6.750
 7889POPC   C3B58761  40.230  16.703   7.050
 7889POPC   C4B58762  40.214  16.796   7.350
 7890POPC   NC358763  22.913  29.140   5.550
 7890POPC   PO458764  22.917  29.113   5.850
 7890POPC   GL158765  22.892  29.191   6.150
 7890POPC   GL258766  22.934  29.223   6.150
 7890POPC   C1A58767  22.928  29.166   6.450
 7890POPC   D2A58768  22.906  29.158   6.750
 7890POPC   C3A58769  22.933  29.135   7.050
 7890POPC   C4A58770  22.972  29.105   7.350
 7890POPC   C1B58771  22.966  29.368   6.450
 7890POPC   C2B58772  22.943  29.392   6.750
 7890POPC   C3B58773  22.925  29.401   7.050
 7890POPC   C4B58774  22.883  29.409   7.350
 7891POPC   NC358775  32.983  40.753   5.550
 7891POPC   PO458776  33.008  40.747   5.850
 7891POPC   GL158777  33.064  40.831   6.150
 7891POPC   GL258778  32.987  40.675   6.150
 7891POPC   C1A58779  33.065  40.801   6.450
 7891POPC   D2A58780  32.989  40.813   6.750
 7891POPC   C3A58781  33.041  40.752   7.050
 7891POPC   C4A58782  33.012  40.832   7.350
 7891POPC   C1B58783  32.944  40.593   6.450
 7891POPC   C2B58784  32.925  40.512   6.750
 7891POPC   C3B58785  32.948  40.596   7.050
 7891POPC   C4B58786  32.967  40.523   7.350
 7892POPC   NC358787  37.717   3.590   5.550
 7892POPC   PO458788  37.685   3.532   5.850
 7892POPC   GL158789  37.682   3.578   6.150
 7892POPC   GL258790  37.656   3.624   6.150
 7892POPC   C1A58791  37.663   3.529   6.450
 7892POPC   D2A58792  37.693   3.572   6.750
 7892POPC   C3A58793  37.706   3.503   7.050
 7892POPC   C4A58794  37.725   3.565   7.350
 7892POPC   C1B58795  37.645   3.753   6.450
 7892POPC   C2B58796  37.675   3.800   6.750
 7892POPC   C3B58797  37.650   3.806   7.050
 7892POPC   C4B58798  37.647   3.808   7.350
 7893POPC   NC358799  15.928  44.659   5.550
 7893POPC   PO458800  15.941  44.693   5.850
 7893POPC   GL158801  16.005  44.704   6.150
 7893POPC   GL258802  15.831  44.707   6.150
 7893POPC   C1A58803  15.955  44.684   6.450
 7893POPC   D2A58804  15.962  44.644   6.750
 7893POPC   C3A58805  15.995  44.682   7.050
 7893POPC   C4A58806  16.004  44.691   7.350
 7893POPC   C1B58807  15.738  44.794   6.450
 7893POPC   C2B58808  15.815  44.853   6.750
 7893POPC   C3B58809  15.797  44.858   7.050
 7893POPC   C4B58810  15.754  44.867   7.350
 7894POPC   NC358811  10.525  43.912   5.550
 7894POPC   PO458812  10.493  43.925   5.850
 7894POPC   GL158813  10.532  43.838   6.150
 7894POPC   GL258814  10.616  43.752   6.150
 7894POPC   C1A58815  10.549  43.896   6.450
 7894POPC   D2A58816  10.526  43.916   6.750
 7894POPC   C3A58817  10.496  43.868   7.050
 7894POPC   C4A58818  10.523  43.898   7.350
 7894POPC   C1B58819  10.706  43.671   6.450
 7894POPC   C2B58820  10.751  43.760   6.750
 7894POPC   C3B58821  10.659  43.675   7.050
 7894POPC   C4B58822  10.660  43.735   7.350
 7895POPC   NC358823   8.213  13.602   5.550
 7895POPC   PO458824   8.228  13.621   5.850
 7895POPC   GL158825   8.198  13.675   6.150
 7895POPC   GL258826   8.213  13.750   6.150
 7895POPC   C1A58827   8.238  13.672   6.450
 7895POPC   D2A58828   8.152  13.579   6.750
 7895POPC   C3A58829   8.154  13.642   7.050
 7895POPC   C4A58830   8.186  13.648   7.350
 7895POPC   C1B58831   8.301  13.854   6.450
 7895POPC   C2B58832   8.277  13.873   6.750
 7895POPC   C3B58833   8.327  13.888   7.050
 7895POPC   C4B58834   8.288  13.877   7.350
 7896POPC   NC358835   9.774   1.182   5.550
 7896POPC   PO458836   9.776   1.184   5.850
 7896POPC   GL158837   9.706   1.213   6.150
 7896POPC   GL258838   9.841   1.353   6.150
 7896POPC   C1A58839   9.770   1.178   6.450
 7896POPC   D2A58840   9.751   1.245   6.750
 7896POPC   C3A58841   9.782   1.206   7.050
 7896POPC   C4A58842   9.724   1.231   7.350
 7896POPC   C1B58843   9.884   1.418   6.450
 7896POPC   C2B58844   9.967   1.384   6.750
 7896POPC   C3B58845   9.877   1.352   7.050
 7896POPC   C4B58846   9.916   1.433   7.350
 7897POPC   NC358847  21.399  22.160   5.550
 7897POPC   PO458848  21.408  22.121   5.850
 7897POPC   GL158849  21.355  22.155   6.150
 7897POPC   GL258850  21.468  22.237   6.150
 7897POPC   C1A58851  21.414  22.184   6.450
 7897POPC   D2A58852  21.374  22.120   6.750
 7897POPC   C3A58853  21.433  22.135   7.050
 7897POPC   C4A58854  21.340  22.162   7.350
 7897POPC   C1B58855  21.571  22.381   6.450
 7897POPC   C2B58856  21.548  22.348   6.750
 7897POPC   C3B58857  21.555  22.374   7.050
 7897POPC   C4B58858  21.530  22.353   7.350
 7898POPC   NC358859  31.464  22.119   5.550
 7898POPC   PO458860  31.469  22.177   5.850
 7898POPC   GL158861  31.488  22.134   6.150
 7898POPC   GL258862  31.491  22.270   6.150
 7898POPC   C1A58863  31.470  22.113   6.450
 7898POPC   D2A58864  31.481  22.147   6.750
 7898POPC   C3A58865  31.504  22.128   7.050
 7898POPC   C4A58866  31.518  22.174   7.350
 7898POPC   C1B58867  31.614  22.422   6.450
 7898POPC   C2B58868  31.557  22.354   6.750
 7898POPC   C3B58869  31.610  22.353   7.050
 7898POPC   C4B58870  31.615  22.353   7.350
 7899POPC   NC358871  33.781  15.907   5.550
 7899POPC   PO458872  33.829  15.968   5.850
 7899POPC   GL158873  33.804  15.908   6.150
 7899POPC   GL258874  33.919  15.927   6.150
 7899POPC   C1A58875  33.805  15.910   6.450
 7899POPC   D2A58876  33.755  15.997   6.750
 7899POPC   C3A58877  33.791  15.944   7.050
 7899POPC   C4A58878  33.835  15.976   7.350
 7899POPC   C1B58879  34.015  15.968   6.450
 7899POPC   C2B58880  34.017  16.004   6.750
 7899POPC   C3B58881  34.015  15.961   7.050
 7899POPC   C4B58882  34.067  15.963   7.350
 7900POPC   NC358883  12.073  25.252   5.550
 7900POPC   PO458884  12.067  25.219   5.850
 7900POPC   GL158885  12.036  25.311   6.150
 7900POPC   GL258886  12.007  25.308   6.150
 7900POPC   C1A58887  12.102  25.264   6.450
 7900POPC   D2A58888  12.075  25.272   6.750
 7900POPC   C3A58889  12.084  25.311   7.050
 7900POPC   C4A58890  12.084  25.230   7.350
 7900POPC   C1B58891  11.804  25.296   6.450
 7900POPC   C2B58892  11.858  25.364   6.750
 7900POPC   C3B58893  11.821  25.296   7.050
 7900POPC   C4B58894  11.884  25.362   7.350
 7901POPC   NC358895  29.963   7.373   5.550
 7901POPC   PO458896  29.947   7.388   5.850
 7901POPC   GL158897  29.939   7.413   6.150
 7901POPC   GL258898  30.002   7.348   6.150
 7901POPC   C1A58899  29.913   7.444   6.450
 7901POPC   D2A58900  29.955   7.407   6.750
 7901POPC   C3A58901  29.939   7.371   7.050
 7901POPC   C4A58902  29.927   7.395   7.350
 7901POPC   C1B58903  30.167   7.311   6.450
 7901POPC   C2B58904  30.103   7.310   6.750
 7901POPC   C3B58905  30.169   7.279   7.050
 7901POPC   C4B58906  30.143   7.270   7.350
 7902POPC   NC358907  27.603  31.496   5.550
 7902POPC   PO458908  27.599  31.431   5.850
 7902POPC   GL158909  27.594  31.450   6.150
 7902POPC   GL258910  27.693  31.486   6.150
 7902POPC   C1A58911  27.551  31.431   6.450
 7902POPC   D2A58912  27.614  31.510   6.750
 7902POPC   C3A58913  27.565  31.443   7.050
 7902POPC   C4A58914  27.549  31.449   7.350
 7902POPC   C1B58915  27.865  31.572   6.450
 7902POPC   C2B58916  27.810  31.613   6.750
 7902POPC   C3B58917  27.849  31.541   7.050
 7902POPC   C4B58918  27.853  31.558   7.350
 7903POPC   NC358919  30.705   5.831   5.550
 7903POPC   PO458920  30.689   5.870   5.850
 7903POPC   GL158921  30.714   5.857   6.150
 7903POPC   GL258922  30.547   5.790   6.150
 7903POPC   C1A58923  30.703   5.825   6.450
 7903POPC   D2A58924  30.664   5.877   6.750
 7903POPC   C3A58925  30.688   5.913   7.050
 7903POPC   C4A58926  30.715   5.908   7.350
 7903POPC   C1B58927  30.433   5.774   6.450
 7903POPC   C2B58928  30.455   5.769   6.750
 7903POPC   C3B58929  30.502   5.700   7.050
 7903POPC   C4B58930  30.502   5.699   7.350
 7904POPC   NC358931  16.682  35.361   5.550
 7904POPC   PO458932  16.709  35.305   5.850
 7904POPC   GL158933  16.759  35.306   6.150
 7904POPC   GL258934  16.794  35.452   6.150
 7904POPC   C1A58935  16.721  35.312   6.450
 7904POPC   D2A58936  16.683  35.313   6.750
 7904POPC   C3A58937  16.749  35.320   7.050
 7904POPC   C4A58938  16.714  35.344   7.350
 7904POPC   C1B58939  16.761  35.560   6.450
 7904POPC   C2B58940  16.826  35.624   6.750
 7904POPC   C3B58941  16.766  35.624   7.050
 7904POPC   C4B58942  16.816  35.575   7.350
 7905POPC   NC358943  12.854  41.596   5.550
 7905POPC   PO458944  12.892  41.553   5.850
 7905POPC   GL158945  12.817  41.527   6.150
 7905POPC   GL258946  12.690  41.574   6.150
 7905POPC   C1A58947  12.858  41.511   6.450
 7905POPC   D2A58948  12.848  41.515   6.750
 7905POPC   C3A58949  12.848  41.572   7.050
 7905POPC   C4A58950  12.834  41.598   7.350
 7905POPC   C1B58951  12.650  41.619   6.450
 7905POPC   C2B58952  12.617  41.634   6.750
 7905POPC   C3B58953  12.638  41.630   7.050
 7905POPC   C4B58954  12.597  41.599   7.350
 7906POPC   NC358955  22.898  11.259   5.550
 7906POPC   PO458956  22.982  11.333   5.850
 7906POPC   GL158957  22.953  11.333   6.150
 7906POPC   GL258958  22.936  11.146   6.150
 7906POPC   C1A58959  22.985  11.331   6.450
 7906POPC   D2A58960  22.889  11.311   6.750
 7906POPC   C3A58961  22.899  11.349   7.050
 7906POPC   C4A58962  22.967  11.348   7.350
 7906POPC   C1B58963  22.851  11.082   6.450
 7906POPC   C2B58964  22.877  11.094   6.750
 7906POPC   C3B58965  22.911  11.047   7.050
 7906POPC   C4B58966  22.856  11.021   7.350
 7907POPC   NC358967  26.810  21.356   5.550
 7907POPC   PO458968  26.823  21.376   5.850
 7907POPC   GL158969  26.778  21.424   6.150
 7907POPC   GL258970  26.867  21.290   6.150
 7907POPC   C1A58971  26.803  21.390   6.450
 7907POPC   D2A58972  26.838  21.364   6.750
 7907POPC   C3A58973  26.770  21.400   7.050
 7907POPC   C4A58974  26.865  21.420   7.350
 7907POPC   C1B58975  26.977  21.175   6.450
 7907POPC   C2B58976  27.014  21.184   6.750
 7907POPC   C3B58977  26.925  21.183   7.050
 7907POPC   C4B58978  27.011  21.235   7.350
 7908POPC   NC358979  42.330  19.883   5.550
 7908POPC   PO458980  42.326  19.852   5.850
 7908POPC   GL158981  42.358  19.808   6.150
 7908POPC   GL258982  42.367  19.691   6.150
 7908POPC   C1A58983  42.286  19.824   6.450
 7908POPC   D2A58984  42.349  19.863   6.750
 7908POPC   C3A58985  42.298  19.880   7.050
 7908POPC   C4A58986  42.365  19.856   7.350
 7908POPC   C1B58987  42.521  19.650   6.450
 7908POPC   C2B58988  42.461  19.627   6.750
 7908POPC   C3B58989  42.507  19.638   7.050
 7908POPC   C4B58990  42.485  19.674   7.350
 7909POPC   NC358991  15.959  10.501   5.550
 7909POPC   PO458992  15.926  10.523   5.850
 7909POPC   GL158993  15.973  10.553   6.150
 7909POPC   GL258994  15.906  10.580   6.150
 7909POPC   C1A58995  15.960  10.498   6.450
 7909POPC   D2A58996  15.929  10.557   6.750
 7909POPC   C3A58997  16.001  10.517   7.050
 7909POPC   C4A58998  15.944  10.524   7.350
 7909POPC   C1B58999  15.713  10.722   6.450
 7909POPC   C2B59000  15.763  10.651   6.750
 7909POPC   C3B59001  15.734  10.665   7.050
 7909POPC   C4B59002  15.780  10.688   7.350
 7910POPC   NC359003   8.968  25.259   5.550
 7910POPC   PO459004   8.953  25.294   5.850
 7910POPC   GL159005   8.959  25.244   6.150
 7910POPC   GL259006   8.896  25.212   6.150
 7910POPC   C1A59007   8.969  25.234   6.450
 7910POPC   D2A59008   8.946  25.306   6.750
 7910POPC   C3A59009   8.982  25.278   7.050
 7910POPC   C4A59010   9.009  25.278   7.350
 7910POPC   C1B59011   8.765  25.096   6.450
 7910POPC   C2B59012   8.773  25.115   6.750
 7910POPC   C3B59013   8.809  25.080   7.050
 7910POPC   C4B59014   8.819  25.074   7.350
 7911POPC   NC359015  44.624  16.688   5.550
 7911POPC   PO459016  44.612  16.771   5.850
 7911POPC   GL159017  44.653  16.775   6.150
 7911POPC   GL259018  44.816  16.750   6.150
 7911POPC   C1A59019  44.632  16.769   6.450
 7911POPC   D2A59020  44.695  16.771   6.750
 7911POPC   C3A59021  44.612  16.777   7.050
 7911POPC   C4A59022  44.685  16.721   7.350
 7911POPC   C1B59023  44.828  16.827   6.450
 7911POPC   C2B59024  44.867  16.866   6.750
 7911POPC   C3B59025  44.913  16.814   7.050
 7911POPC   C4B59026  44.874  16.876   7.350
 7912POPC   NC359027  16.731  19.020   5.550
 7912POPC   PO459028  16.736  19.043   5.850
 7912POPC   GL159029  16.763  19.020   6.150
 7912POPC   GL259030  16.859  19.129   6.150
 7912POPC   C1A59031  16.706  19.045   6.450
 7912POPC   D2A59032  16.721  19.103   6.750
 7912POPC   C3A59033  16.764  19.082   7.050
 7912POPC   C4A59034  16.755  19.075   7.350
 7912POPC   C1B59035  16.929  19.227   6.450
 7912POPC   C2B59036  16.860  19.282   6.750
 7912POPC   C3B59037  16.904  19.269   7.050
 7912POPC   C4B59038  16.888  19.225   7.350
 7913POPC   NC359039  39.186  18.306   5.550
 7913POPC   PO459040  39.278  18.279   5.850
 7913POPC   GL159041  39.210  18.302   6.150
 7913POPC   GL259042  39.193  18.377   6.150
 7913POPC   C1A59043  39.280  18.284   6.450
 7913POPC   D2A59044  39.275  18.248   6.750
 7913POPC   C3A59045  39.193  18.282   7.050
 7913POPC   C4A59046  39.232  18.246   7.350
 7913POPC   C1B59047  39.171  18.480   6.450
 7913POPC   C2B59048  39.160  18.538   6.750
 7913POPC   C3B59049  39.118  18.500   7.050
 7913POPC   C4B59050  39.109  18.486   7.350
 7914POPC   NC359051  37.684  34.604   5.550
 7914POPC   PO459052  37.657  34.528   5.850
 7914POPC   GL159053  37.709  34.613   6.150
 7914POPC   GL259054  37.584  34.473   6.150
 7914POPC   C1A59055  37.677  34.537   6.450
 7914POPC   D2A59056  37.690  34.552   6.750
 7914POPC   C3A59057  37.676  34.593   7.050
 7914POPC   C4A59058  37.660  34.569   7.350
 7914POPC   C1B59059  37.601  34.389   6.450
 7914POPC   C2B59060  37.614  34.314   6.750
 7914POPC   C3B59061  37.568  34.366   7.050
 7914POPC   C4B59062  37.581  34.342   7.350
 7915POPC   NC359063  27.632   2.764   5.550
 7915POPC   PO459064  27.621   2.788   5.850
 7915POPC   GL159065  27.561   2.773   6.150
 7915POPC   GL259066  27.474   2.880   6.150
 7915POPC   C1A59067  27.635   2.746   6.450
 7915POPC   D2A59068  27.551   2.806   6.750
 7915POPC   C3A59069  27.586   2.773   7.050
 7915POPC   C4A59070  27.599   2.723   7.350
 7915POPC   C1B59071  27.457   3.011   6.450
 7915POPC   C2B59072  27.484   2.952   6.750
 7915POPC   C3B59073  27.435   2.962   7.050
 7915POPC   C4B59074  27.416   2.961   7.350
 7916POPC   NC359075  26.037  29.183   5.550
 7916POPC   PO459076  26.044  29.107   5.850
 7916POPC   GL159077  26.026  29.183   6.150
 7916POPC   GL259078  26.031  29.293   6.150
 7916POPC   C1A59079  26.004  29.137   6.450
 7916POPC   D2A59080  26.007  29.107   6.750
 7916POPC   C3A59081  26.079  29.124   7.050
 7916POPC   C4A59082  26.021  29.116   7.350
 7916POPC   C1B59083  26.108  29.392   6.450
 7916POPC   C2B59084  26.086  29.408   6.750
 7916POPC   C3B59085  26.120  29.368   7.050
 7916POPC   C4B59086  26.051  29.414   7.350
 7917POPC   NC359087   4.310  30.738   5.550
 7917POPC   PO459088   4.309  30.714   5.850
 7917POPC   GL159089   4.315  30.744   6.150
 7917POPC   GL259090   4.238  30.679   6.150
 7917POPC   C1A59091   4.336  30.724   6.450
 7917POPC   D2A59092   4.301  30.731   6.750
 7917POPC   C3A59093   4.351  30.672   7.050
 7917POPC   C4A59094   4.321  30.653   7.350
 7917POPC   C1B59095   4.112  30.619   6.450
 7917POPC   C2B59096   4.062  30.650   6.750
 7917POPC   C3B59097   4.029  30.708   7.050
 7917POPC   C4B59098   4.062  30.641   7.350
 7918POPC   NC359099  42.374  39.993   5.550
 7918POPC   PO459100  42.295  39.967   5.850
 7918POPC   GL159101  42.311  40.051   6.150
 7918POPC   GL259102  42.430  40.058   6.150
 7918POPC   C1A59103  42.383  40.054   6.450
 7918POPC   D2A59104  42.334  39.978   6.750
 7918POPC   C3A59105  42.327  40.001   7.050
 7918POPC   C4A59106  42.308  40.053   7.350
 7918POPC   C1B59107  42.509  40.134   6.450
 7918POPC   C2B59108  42.528  40.154   6.750
 7918POPC   C3B59109  42.581  40.117   7.050
 7918POPC   C4B59110  42.518  40.148   7.350
 7919POPC   NC359111  44.614  32.275   5.550
 7919POPC   PO459112  44.704  32.276   5.850
 7919POPC   GL159113  44.654  32.293   6.150
 7919POPC   GL259114  44.637  32.166   6.150
 7919POPC   C1A59115  44.707  32.229   6.450
 7919POPC   D2A59116  44.624  32.211   6.750
 7919POPC   C3A59117  44.638  32.244   7.050
 7919POPC   C4A59118  44.711  32.252   7.350
 7919POPC   C1B59119  44.607  32.015   6.450
 7919POPC   C2B59120  44.660  32.004   6.750
 7919POPC   C3B59121  44.636  31.954   7.050
 7919POPC   C4B59122  44.604  32.050   7.350
 7920POPC   NC359123  15.170  36.104   5.550
 7920POPC   PO459124  15.185  36.153   5.850
 7920POPC   GL159125  15.193  36.130   6.150
 7920POPC   GL259126  15.048  36.215   6.150
 7920POPC   C1A59127  15.149  36.090   6.450
 7920POPC   D2A59128  15.190  36.084   6.750
 7920POPC   C3A59129  15.212  36.109   7.050
 7920POPC   C4A59130  15.159  36.122   7.350
 7920POPC   C1B59131  14.959  36.309   6.450
 7920POPC   C2B59132  14.981  36.262   6.750
 7920POPC   C3B59133  14.991  36.342   7.050
 7920POPC   C4B59134  14.958  36.282   7.350
 7921POPC   NC359135  30.694  43.892   5.550
 7921POPC   PO459136  30.655  43.901   5.850
 7921POPC   GL159137  30.731  43.899   6.150
 7921POPC   GL259138  30.569  43.870   6.150
 7921POPC   C1A59139  30.708  43.880   6.450
 7921POPC   D2A59140  30.681  43.869   6.750
 7921POPC   C3A59141  30.693  43.917   7.050
 7921POPC   C4A59142  30.696  43.934   7.350
 7921POPC   C1B59143  30.520  43.738   6.450
 7921POPC   C2B59144  30.439  43.806   6.750
 7921POPC   C3B59145  30.451  43.823   7.050
 7921POPC   C4B59146  30.478  43.808   7.350
 7922POPC   NC359147  22.117  42.336   5.550
 7922POPC   PO459148  22.186  42.380   5.850
 7922POPC   GL159149  22.135  42.339   6.150
 7922POPC   GL259150  22.182  42.181   6.150
 7922POPC   C1A59151  22.186  42.334   6.450
 7922POPC   D2A59152  22.137  42.317   6.750
 7922POPC   C3A59153  22.172  42.338   7.050
 7922POPC   C4A59154  22.121  42.353   7.350
 7922POPC   C1B59155  22.157  42.042   6.450
 7922POPC   C2B59156  22.124  42.070   6.750
 7922POPC   C3B59157  22.124  42.040   7.050
 7922POPC   C4B59158  22.166  42.104   7.350
 7923POPC   NC359159  42.364   6.681   5.550
 7923POPC   PO459160  42.321   6.626   5.850
 7923POPC   GL159161  42.347   6.677   6.150
 7923POPC   GL259162  42.238   6.693   6.150
 7923POPC   C1A59163  42.337   6.668   6.450
 7923POPC   D2A59164  42.350   6.680   6.750
 7923POPC   C3A59165  42.325   6.686   7.050
 7923POPC   C4A59166  42.370   6.692   7.350
 7923POPC   C1B59167  42.096   6.735   6.450
 7923POPC   C2B59168  42.142   6.692   6.750
 7923POPC   C3B59169  42.126   6.692   7.050
 7923POPC   C4B59170  42.102   6.748   7.350
 7924POPC   NC359171  23.678  31.478   5.550
 7924POPC   PO459172  23.675  31.462   5.850
 7924POPC   GL159173  23.745  31.513   6.150
 7924POPC   GL259174  23.672  31.611   6.150
 7924POPC   C1A59175  23.718  31.497   6.450
 7924POPC   D2A59176  23.689  31.473   6.750
 7924POPC   C3A59177  23.715  31.435   7.050
 7924POPC   C4A59178  23.698  31.428   7.350
 7924POPC   C1B59179  23.563  31.665   6.450
 7924POPC   C2B59180  23.604  31.635   6.750
 7924POPC   C3B59181  23.601  31.632   7.050
 7924POPC   C4B59182  23.573  31.634   7.350
 7925POPC   NC359183  29.161  37.646   5.550
 7925POPC   PO459184  29.148  37.639   5.850
 7925POPC   GL159185  29.170  37.652   6.150
 7925POPC   GL259186  29.295  37.642   6.150
 7925POPC   C1A59187  29.181  37.660   6.450
 7925POPC   D2A59188  29.108  37.646   6.750
 7925POPC   C3A59189  29.183  37.658   7.050
 7925POPC   C4A59190  29.194  37.729   7.350
 7925POPC   C1B59191  29.347  37.518   6.450
 7925POPC   C2B59192  29.380  37.542   6.750
 7925POPC   C3B59193  29.365  37.580   7.050
 7925POPC   C4B59194  29.304  37.513   7.350
 7926POPC   NC359195  22.895   1.971   5.550
 7926POPC   PO459196  22.983   2.003   5.850
 7926POPC   GL159197  22.969   2.018   6.150
 7926POPC   GL259198  23.070   1.852   6.150
 7926POPC   C1A59199  22.942   2.025   6.450
 7926POPC   D2A59200  22.980   1.965   6.750
 7926POPC   C3A59201  22.954   2.039   7.050
 7926POPC   C4A59202  22.912   1.946   7.350
 7926POPC   C1B59203  23.112   1.801   6.450
 7926POPC   C2B59204  23.061   1.857   6.750
 7926POPC   C3B59205  23.130   1.849   7.050
 7926POPC   C4B59206  23.070   1.796   7.350
 7927POPC   NC359207  42.362  16.770   5.550
 7927POPC   PO459208  42.340  16.724   5.850
 7927POPC   GL159209  42.354  16.747   6.150
 7927POPC   GL259210  42.442  16.716   6.150
 7927POPC   C1A59211  42.348  16.763   6.450
 7927POPC   D2A59212  42.367  16.775   6.750
 7927POPC   C3A59213  42.371  16.756   7.050
 7927POPC   C4A59214  42.353  16.687   7.350
 7927POPC   C1B59215  42.543  16.806   6.450
 7927POPC   C2B59216  42.537  16.827   6.750
 7927POPC   C3B59217  42.557  16.780   7.050
 7927POPC   C4B59218  42.542  16.753   7.350
 7928POPC   NC359219  20.618  20.638   5.550
 7928POPC   PO459220  20.596  20.572   5.850
 7928POPC   GL159221  20.623  20.628   6.150
 7928POPC   GL259222  20.512  20.502   6.150
 7928POPC   C1A59223  20.585  20.612   6.450
 7928POPC   D2A59224  20.591  20.605   6.750
 7928POPC   C3A59225  20.643  20.579   7.050
 7928POPC   C4A59226  20.626  20.637   7.350
 7928POPC   C1B59227  20.410  20.474   6.450
 7928POPC   C2B59228  20.423  20.444   6.750
 7928POPC   C3B59229  20.426  20.443   7.050
 7928POPC   C4B59230  20.435  20.389   7.350
 7929POPC   NC359231  12.879  12.114   5.550
 7929POPC   PO459232  12.855  12.067   5.850
 7929POPC   GL159233  12.848  12.063   6.150
 7929POPC   GL259234  12.910  12.194   6.150
 7929POPC   C1A59235  12.885  12.071   6.450
 7929POPC   D2A59236  12.900  12.029   6.750
 7929POPC   C3A59237  12.851  12.057   7.050
 7929POPC   C4A59238  12.898  12.030   7.350
 7929POPC   C1B59239  13.026  12.237   6.450
 7929POPC   C2B59240  13.032  12.263   6.750
 7929POPC   C3B59241  13.055  12.202   7.050
 7929POPC   C4B59242  13.054  12.255   7.350
 7930POPC   NC359243   3.577  21.401   5.550
 7930POPC   PO459244   3.579  21.436   5.850
 7930POPC   GL159245   3.544  21.374   6.150
 7930POPC   GL259246   3.640  21.448   6.150
 7930POPC   C1A59247   3.539  21.339   6.450
 7930POPC   D2A59248   3.563  21.370   6.750
 7930POPC   C3A59249   3.589  21.378   7.050
 7930POPC   C4A59250   3.583  21.339   7.350
 7930POPC   C1B59251   3.714  21.571   6.450
 7930POPC   C2B59252   3.745  21.563   6.750
 7930POPC   C3B59253   3.686  21.607   7.050
 7930POPC   C4B59254   3.710  21.612   7.350
 7931POPC   NC359255  15.963   1.972   5.550
 7931POPC   PO459256  15.951   1.972   5.850
 7931POPC   GL159257  15.923   2.023   6.150
 7931POPC   GL259258  15.907   2.150   6.150
 7931POPC   C1A59259  15.976   1.988   6.450
 7931POPC   D2A59260  15.916   1.990   6.750
 7931POPC   C3A59261  15.969   1.973   7.050
 7931POPC   C4A59262  15.909   2.039   7.350
 7931POPC   C1B59263  15.868   2.214   6.450
 7931POPC   C2B59264  15.920   2.217   6.750
 7931POPC   C3B59265  15.884   2.275   7.050
 7931POPC   C4B59266  15.879   2.214   7.350
 7932POPC   NC359267  35.371   2.719   5.550
 7932POPC   PO459268  35.317   2.806   5.850
 7932POPC   GL159269  35.368   2.721   6.150
 7932POPC   GL259270  35.513   2.762   6.150
 7932POPC   C1A59271  35.374   2.755   6.450
 7932POPC   D2A59272  35.399   2.718   6.750
 7932POPC   C3A59273  35.302   2.740   7.050
 7932POPC   C4A59274  35.330   2.735   7.350
 7932POPC   C1B59275  35.590   2.803   6.450
 7932POPC   C2B59276  35.639   2.817   6.750
 7932POPC   C3B59277  35.570   2.865   7.050
 7932POPC   C4B59278  35.640   2.852   7.350
 7933POPC   NC359279  33.829  30.652   5.550
 7933POPC   PO459280  33.825  30.697   5.850
 7933POPC   GL159281  33.823  30.739   6.150
 7933POPC   GL259282  33.704  30.790   6.150
 7933POPC   C1A59283  33.842  30.679   6.450
 7933POPC   D2A59284  33.774  30.702   6.750
 7933POPC   C3A59285  33.758  30.673   7.050
 7933POPC   C4A59286  33.792  30.677   7.350
 7933POPC   C1B59287  33.666  30.912   6.450
 7933POPC   C2B59288  33.722  30.894   6.750
 7933POPC   C3B59289  33.682  30.956   7.050
 7933POPC   C4B59290  33.700  30.878   7.350
 7934POPC   NC359291  39.187  22.980   5.550
 7934POPC   PO459292  39.221  22.986   5.850
 7934POPC   GL159293  39.251  22.961   6.150
 7934POPC   GL259294  39.179  23.022   6.150
 7934POPC   C1A59295  39.205  22.980   6.450
 7934POPC   D2A59296  39.226  22.943   6.750
 7934POPC   C3A59297  39.243  22.899   7.050
 7934POPC   C4A59298  39.228  22.984   7.350
 7934POPC   C1B59299  39.136  23.122   6.450
 7934POPC   C2B59300  39.191  23.129   6.750
 7934POPC   C3B59301  39.159  23.199   7.050
 7934POPC   C4B59302  39.183  23.217   7.350
 7935POPC   NC359303  22.179  19.852   5.550
 7935POPC   PO459304  22.129  19.822   5.850
 7935POPC   GL159305  22.147  19.785   6.150
 7935POPC   GL259306  22.013  19.774   6.150
 7935POPC   C1A59307  22.117  19.828   6.450
 7935POPC   D2A59308  22.150  19.852   6.750
 7935POPC   C3A59309  22.166  19.809   7.050
 7935POPC   C4A59310  22.141  19.870   7.350
 7935POPC   C1B59311  21.955  19.677   6.450
 7935POPC   C2B59312  21.939  19.663   6.750
 7935POPC   C3B59313  21.958  19.705   7.050
 7935POPC   C4B59314  21.961  19.752   7.350
 7936POPC   NC359315  41.582  31.450   5.550
 7936POPC   PO459316  41.581  31.485   5.850
 7936POPC   GL159317  41.546  31.501   6.150
 7936POPC   GL259318  41.550  31.358   6.150
 7936POPC   C1A59319  41.583  31.439   6.450
 7936POPC   D2A59320  41.545  31.460   6.750
 7936POPC   C3A59321  41.572  31.459   7.050
 7936POPC   C4A59322  41.529  31.502   7.350
 7936POPC   C1B59323  41.485  31.239   6.450
 7936POPC   C2B59324  41.478  31.265   6.750
 7936POPC   C3B59325  41.474  31.207   7.050
 7936POPC   C4B59326  41.427  31.239   7.350
 7937POPC   NC359327  10.521  20.608   5.550
 7937POPC   PO459328  10.485  20.589   5.850
 7937POPC   GL159329  10.501  20.589   6.150
 7937POPC   GL259330  10.472  20.469   6.150
 7937POPC   C1A59331  10.526  20.614   6.450
 7937POPC   D2A59332  10.474  20.573   6.750
 7937POPC   C3A59333  10.560  20.654   7.050
 7937POPC   C4A59334  10.515  20.569   7.350
 7937POPC   C1B59335  10.483  20.339   6.450
 7937POPC   C2B59336  10.459  20.421   6.750
 7937POPC   C3B59337  10.437  20.399   7.050
 7937POPC   C4B59338  10.462  20.367   7.350
 7938POPC   NC359339  19.081   7.428   5.550
 7938POPC   PO459340  19.067   7.433   5.850
 7938POPC   GL159341  19.057   7.457   6.150
 7938POPC   GL259342  19.095   7.262   6.150
 7938POPC   C1A59343  19.042   7.402   6.450
 7938POPC   D2A59344  19.096   7.422   6.750
 7938POPC   C3A59345  19.042   7.452   7.050
 7938POPC   C4A59346  19.072   7.425   7.350
 7938POPC   C1B59347  19.167   7.169   6.450
 7938POPC   C2B59348  19.096   7.169   6.750
 7938POPC   C3B59349  19.097   7.191   7.050
 7938POPC   C4B59350  19.093   7.180   7.350
 7939POPC   NC359351  36.175   7.371   5.550
 7939POPC   PO459352  36.110   7.455   5.850
 7939POPC   GL159353  36.140   7.423   6.150
 7939POPC   GL259354  36.111   7.284   6.150
 7939POPC   C1A59355  36.115   7.380   6.450
 7939POPC   D2A59356  36.092   7.444   6.750
 7939POPC   C3A59357  36.099   7.417   7.050
 7939POPC   C4A59358  36.124   7.418   7.350
 7939POPC   C1B59359  36.189   7.165   6.450
 7939POPC   C2B59360  36.174   7.160   6.750
 7939POPC   C3B59361  36.220   7.204   7.050
 7939POPC   C4B59362  36.223   7.218   7.350
 7940POPC   NC359363  38.473  39.227   5.550
 7940POPC   PO459364  38.406  39.242   5.850
 7940POPC   GL159365  38.481  39.246   6.150
 7940POPC   GL259366  38.381  39.350   6.150
 7940POPC   C1A59367  38.487  39.273   6.450
 7940POPC   D2A59368  38.499  39.265   6.750
 7940POPC   C3A59369  38.423  39.212   7.050
 7940POPC   C4A59370  38.460  39.245   7.350
 7940POPC   C1B59371  38.347  39.472   6.450
 7940POPC   C2B59372  38.311  39.468   6.750
 7940POPC   C3B59373  38.261  39.442   7.050
 7940POPC   C4B59374  38.294  39.399   7.350
 7941POPC   NC359375  27.595   2.037   5.550
 7941POPC   PO459376  27.622   2.020   5.850
 7941POPC   GL159377  27.622   2.010   6.150
 7941POPC   GL259378  27.641   1.838   6.150
 7941POPC   C1A59379  27.569   1.987   6.450
 7941POPC   D2A59380  27.590   2.036   6.750
 7941POPC   C3A59381  27.615   2.022   7.050
 7941POPC   C4A59382  27.580   2.009   7.350
 7941POPC   C1B59383  27.693   1.822   6.450
 7941POPC   C2B59384  27.688   1.789   6.750
 7941POPC   C3B59385  27.687   1.771   7.050
 7941POPC   C4B59386  27.693   1.788   7.350
 7942POPC   NC359387  32.226  34.592   5.550
 7942POPC   PO459388  32.290  34.537   5.850
 7942POPC   GL159389  32.281  34.592   6.150
 7942POPC   GL259390  32.158  34.465   6.150
 7942POPC   C1A59391  32.289  34.556   6.450
 7942POPC   D2A59392  32.222  34.541   6.750
 7942POPC   C3A59393  32.208  34.536   7.050
 7942POPC   C4A59394  32.285  34.546   7.350
 7942POPC   C1B59395  32.063  34.425   6.450
 7942POPC   C2B59396  32.007  34.472   6.750
 7942POPC   C3B59397  32.059  34.445   7.050
 7942POPC   C4B59398  32.045  34.444   7.350
 7943POPC   NC359399  42.289  36.129   5.550
 7943POPC   PO459400  42.308  36.139   5.850
 7943POPC   GL159401  42.377  36.102   6.150
 7943POPC   GL259402  42.400  36.209   6.150
 7943POPC   C1A59403  42.347  36.108   6.450
 7943POPC   D2A59404  42.381  36.084   6.750
 7943POPC   C3A59405  42.300  36.119   7.050
 7943POPC   C4A59406  42.349  36.084   7.350
 7943POPC   C1B59407  42.585  36.266   6.450
 7943POPC   C2B59408  42.510  36.210   6.750
 7943POPC   C3B59409  42.547  36.262   7.050
 7943POPC   C4B59410  42.513  36.289   7.350
 7944POPC   NC359411  26.815  29.875   5.550
 7944POPC   PO459412  26.797  29.934   5.850
 7944POPC   GL159413  26.776  29.960   6.150
 7944POPC   GL259414  26.967  30.003   6.150
 7944POPC   C1A59415  26.787  29.963   6.450
 7944POPC   D2A59416  26.819  29.970   6.750
 7944POPC   C3A59417  26.859  29.954   7.050
 7944POPC   C4A59418  26.836  29.923   7.350
 7944POPC   C1B59419  27.078  30.080   6.450
 7944POPC   C2B59420  27.056  30.008   6.750
 7944POPC   C3B59421  27.013  30.091   7.050
 7944POPC   C4B59422  27.042  30.017   7.350
 7945POPC   NC359423  33.047   9.711   5.550
 7945POPC   PO459424  32.977   9.781   5.850
 7945POPC   GL159425  33.010   9.755   6.150
 7945POPC   GL259426  33.057   9.870   6.150
 7945POPC   C1A59427  32.982   9.728   6.450
 7945POPC   D2A59428  33.042   9.752   6.750
 7945POPC   C3A59429  32.991   9.755   7.050
 7945POPC   C4A59430  33.021   9.788   7.350
 7945POPC   C1B59431  33.035  10.028   6.450
 7945POPC   C2B59432  33.026   9.982   6.750
 7945POPC   C3B59433  32.984   9.960   7.050
 7945POPC   C4B59434  33.027   9.954   7.350
 7946POPC   NC359435  36.104  40.028   5.550
 7946POPC   PO459436  36.125  39.965   5.850
 7946POPC   GL159437  36.131  40.049   6.150
 7946POPC   GL259438  36.116  39.936   6.150
 7946POPC   C1A59439  36.135  39.979   6.450
 7946POPC   D2A59440  36.118  39.993   6.750
 7946POPC   C3A59441  36.172  39.983   7.050
 7946POPC   C4A59442  36.159  39.975   7.350
 7946POPC   C1B59443  36.049  39.804   6.450
 7946POPC   C2B59444  36.062  39.801   6.750
 7946POPC   C3B59445  36.085  39.810   7.050
 7946POPC   C4B59446  36.096  39.741   7.350
 7947POPC   NC359447   7.427  33.058   5.550
 7947POPC   PO459448   7.390  33.026   5.850
 7947POPC   GL159449   7.375  33.059   6.150
 7947POPC   GL259450   7.569  33.045   6.150
 7947POPC   C1A59451   7.426  33.013   6.450
 7947POPC   D2A59452   7.393  33.010   6.750
 7947POPC   C3A59453   7.391  33.060   7.050
 7947POPC   C4A59454   7.435  33.044   7.350
 7947POPC   C1B59455   7.711  32.973   6.450
 7947POPC   C2B59456   7.687  32.978   6.750
 7947POPC   C3B59457   7.655  32.976   7.050
 7947POPC   C4B59458   7.670  33.022   7.350
 7948POPC   NC359459   8.957   0.481   5.550
 7948POPC   PO459460   8.954   0.466   5.850
 7948POPC   GL159461   9.017   0.419   6.150
 7948POPC   GL259462   9.019   0.522   6.150
 7948POPC   C1A59463   8.996   0.481   6.450
 7948POPC   D2A59464   8.966   0.433   6.750
 7948POPC   C3A59465   8.992   0.404   7.050
 7948POPC   C4A59466   9.009   0.459   7.350
 7948POPC   C1B59467   9.064   0.710   6.450
 7948POPC   C2B59468   9.061   0.644   6.750
 7948POPC   C3B59469   9.053   0.681   7.050
 7948POPC   C4B59470   9.055   0.723   7.350
 7949POPC   NC359471   4.328  26.060   5.550
 7949POPC   PO459472   4.359  26.078   5.850
 7949POPC   GL159473   4.278  26.032   6.150
 7949POPC   GL259474   4.244  26.130   6.150
 7949POPC   C1A59475   4.269  26.009   6.450
 7949POPC   D2A59476   4.318  26.057   6.750
 7949POPC   C3A59477   4.280  26.020   7.050
 7949POPC   C4A59478   4.331  25.997   7.350
 7949POPC   C1B59479   4.155  26.158   6.450
 7949POPC   C2B59480   4.125  26.161   6.750
 7949POPC   C3B59481   4.102  26.173   7.050
 7949POPC   C4B59482   4.135  26.155   7.350
 7950POPC   NC359483   5.907  34.609   5.550
 7950POPC   PO459484   5.828  34.614   5.850
 7950POPC   GL159485   5.895  34.551   6.150
 7950POPC   GL259486   5.976  34.558   6.150
 7950POPC   C1A59487   5.916  34.536   6.450
 7950POPC   D2A59488   5.913  34.528   6.750
 7950POPC   C3A59489   5.845  34.549   7.050
 7950POPC   C4A59490   5.843  34.539   7.350
 7950POPC   C1B59491   6.090  34.508   6.450
 7950POPC   C2B59492   6.095  34.511   6.750
 7950POPC   C3B59493   6.164  34.512   7.050
 7950POPC   C4B59494   6.136  34.556   7.350
 7951POPC   NC359495   4.364  18.307   5.550
 7951POPC   PO459496   4.275  18.282   5.850
 7951POPC   GL159497   4.344  18.272   6.150
 7951POPC   GL259498   4.194  18.333   6.150
 7951POPC   C1A59499   4.341  18.282   6.450
 7951POPC   D2A59500   4.352  18.305   6.750
 7951POPC   C3A59501   4.337  18.250   7.050
 7951POPC   C4A59502   4.309  18.268   7.350
 7951POPC   C1B59503   4.144  18.358   6.450
 7951POPC   C2B59504   4.113  18.420   6.750
 7951POPC   C3B59505   4.060  18.379   7.050
 7951POPC   C4B59506   4.105  18.381   7.350
 7952POPC   NC359507  37.661  30.718   5.550
 7952POPC   PO459508  37.678  30.741   5.850
 7952POPC   GL159509  37.632  30.715   6.150
 7952POPC   GL259510  37.687  30.567   6.150
 7952POPC   C1A59511  37.727  30.650   6.450
 7952POPC   D2A59512  37.658  30.742   6.750
 7952POPC   C3A59513  37.681  30.726   7.050
 7952POPC   C4A59514  37.640  30.658   7.350
 7952POPC   C1B59515  37.614  30.420   6.450
 7952POPC   C2B59516  37.661  30.488   6.750
 7952POPC   C3B59517  37.653  30.497   7.050
 7952POPC   C4B59518  37.613  30.483   7.350
 7953POPC   NC359519   1.228  16.685   5.550
 7953POPC   PO459520   1.208  16.755   5.850
 7953POPC   GL159521   1.249  16.710   6.150
 7953POPC   GL259522   1.240  16.895   6.150
 7953POPC   C1A59523   1.230  16.750   6.450
 7953POPC   D2A59524   1.206  16.773   6.750
 7953POPC   C3A59525   1.241  16.776   7.050
 7953POPC   C4A59526   1.261  16.697   7.350
 7953POPC   C1B59527   1.257  16.983   6.450
 7953POPC   C2B59528   1.277  16.964   6.750
 7953POPC   C3B59529   1.232  16.969   7.050
 7953POPC   C4B59530   1.292  17.012   7.350
 7954POPC   NC359531  22.946  10.555   5.550
 7954POPC   PO459532  22.943  10.535   5.850
 7954POPC   GL159533  22.907  10.485   6.150
 7954POPC   GL259534  22.832  10.385   6.150
 7954POPC   C1A59535  22.899  10.476   6.450
 7954POPC   D2A59536  22.891  10.479   6.750
 7954POPC   C3A59537  22.976  10.522   7.050
 7954POPC   C4A59538  22.951  10.535   7.350
 7954POPC   C1B59539  22.824  10.314   6.450
 7954POPC   C2B59540  22.867  10.285   6.750
 7954POPC   C3B59541  22.824  10.337   7.050
 7954POPC   C4B59542  22.834  10.287   7.350
 7955POPC   NC359543  13.629  20.653   5.550
 7955POPC   PO459544  13.675  20.656   5.850
 7955POPC   GL159545  13.593  20.623   6.150
 7955POPC   GL259546  13.619  20.442   6.150
 7955POPC   C1A59547  13.581  20.577   6.450
 7955POPC   D2A59548  13.590  20.565   6.750
 7955POPC   C3A59549  13.611  20.563   7.050
 7955POPC   C4A59550  13.649  20.589   7.350
 7955POPC   C1B59551  13.673  20.354   6.450
 7955POPC   C2B59552  13.683  20.351   6.750
 7955POPC   C3B59553  13.677  20.345   7.050
 7955POPC   C4B59554  13.659  20.367   7.350
 7956POPC   NC359555  15.908  29.191   5.550
 7956POPC   PO459556  15.943  29.114   5.850
 7956POPC   GL159557  15.963  29.193   6.150
 7956POPC   GL259558  15.874  29.224   6.150
 7956POPC   C1A59559  15.958  29.120   6.450
 7956POPC   D2A59560  15.943  29.097   6.750
 7956POPC   C3A59561  15.987  29.193   7.050
 7956POPC   C4A59562  15.959  29.162   7.350
 7956POPC   C1B59563  15.838  29.325   6.450
 7956POPC   C2B59564  15.789  29.346   6.750
 7956POPC   C3B59565  15.827  29.317   7.050
 7956POPC   C4B59566  15.841  29.362   7.350
 7957POPC   NC359567  42.381  37.630   5.550
 7957POPC   PO459568  42.337  37.686   5.850
 7957POPC   GL159569  42.347  37.657   6.150
 7957POPC   GL259570  42.287  37.578   6.150
 7957POPC   C1A59571  42.291  37.691   6.450
 7957POPC   D2A59572  42.366  37.698   6.750
 7957POPC   C3A59573  42.354  37.693   7.050
 7957POPC   C4A59574  42.300  37.698   7.350
 7957POPC   C1B59575  42.348  37.454   6.450
 7957POPC   C2B59576  42.331  37.405   6.750
 7957POPC   C3B59577  42.377  37.424   7.050
 7957POPC   C4B59578  42.350  37.423   7.350
 7958POPC   NC359579  16.682  11.345   5.550
 7958POPC   PO459580  16.697  11.282   5.850
 7958POPC   GL159581  16.735  11.324   6.150
 7958POPC   GL259582  16.708  11.461   6.150
 7958POPC   C1A59583  16.742  11.319   6.450
 7958POPC   D2A59584  16.740  11.329   6.750
 7958POPC   C3A59585  16.749  11.317   7.050
 7958POPC   C4A59586  16.767  11.265   7.350
 7958POPC   C1B59587  16.660  11.560   6.450
 7958POPC   C2B59588  16.733  11.524   6.750
 7958POPC   C3B59589  16.757  11.506   7.050
 7958POPC   C4B59590  16.676  11.577   7.350
 7959POPC   NC359591   7.395   1.952   5.550
 7959POPC   PO459592   7.397   2.016   5.850
 7959POPC   GL159593   7.440   1.996   6.150
 7959POPC   GL259594   7.505   2.006   6.150
 7959POPC   C1A59595   7.418   1.975   6.450
 7959POPC   D2A59596   7.417   1.956   6.750
 7959POPC   C3A59597   7.415   2.037   7.050
 7959POPC   C4A59598   7.461   1.967   7.350
 7959POPC   C1B59599   7.701   2.132   6.450
 7959POPC   C2B59600   7.638   2.050   6.750
 7959POPC   C3B59601   7.690   2.068   7.050
 7959POPC   C4B59602   7.670   2.076   7.350
 7960POPC   NC359603   0.416   5.854   5.550
 7960POPC   PO459604   0.407   5.824   5.850
 7960POPC   GL159605   0.411   5.861   6.150
 7960POPC   GL259606   0.474   6.006   6.150
 7960POPC   C1A59607   0.442   5.906   6.450
 7960POPC   D2A59608   0.444   5.913   6.750
 7960POPC   C3A59609   0.433   5.853   7.050
 7960POPC   C4A59610   0.428   5.868   7.350
 7960POPC   C1B59611   0.534   6.075   6.450
 7960POPC   C2B59612   0.536   6.138   6.750
 7960POPC   C3B59613   0.557   6.054   7.050
 7960POPC   C4B59614   0.532   6.040   7.350
 7961POPC   NC359615   6.615  16.697   5.550
 7961POPC   PO459616   6.596  16.769   5.850
 7961POPC   GL159617   6.608  16.689   6.150
 7961POPC   GL259618   6.722  16.751   6.150
 7961POPC   C1A59619   6.677  16.725   6.450
 7961POPC   D2A59620   6.638  16.715   6.750
 7961POPC   C3A59621   6.611  16.711   7.050
 7961POPC   C4A59622   6.629  16.778   7.350
 7961POPC   C1B59623   6.911  16.831   6.450
 7961POPC   C2B59624   6.863  16.807   6.750
 7961POPC   C3B59625   6.927  16.831   7.050
 7961POPC   C4B59626   6.918  16.834   7.350
 7962POPC   NC359627  43.838  42.372   5.550
 7962POPC   PO459628  43.885  42.329   5.850
 7962POPC   GL159629  43.873  42.287   6.150
 7962POPC   GL259630  44.032  42.336   6.150
 7962POPC   C1A59631  43.924  42.330   6.450
 7962POPC   D2A59632  43.866  42.318   6.750
 7962POPC   C3A59633  43.842  42.298   7.050
 7962POPC   C4A59634  43.866  42.354   7.350
 7962POPC   C1B59635  44.130  42.378   6.450
 7962POPC   C2B59636  44.179  42.324   6.750
 7962POPC   C3B59637  44.123  42.378   7.050
 7962POPC   C4B59638  44.144  42.288   7.350
 7963POPC   NC359639   8.189   6.638   5.550
 7963POPC   PO459640   8.179   6.632   5.850
 7963POPC   GL159641   8.196   6.626   6.150
 7963POPC   GL259642   8.266   6.606   6.150
 7963POPC   C1A59643   8.241   6.620   6.450
 7963POPC   D2A59644   8.177   6.621   6.750
 7963POPC   C3A59645   8.245   6.600   7.050
 7963POPC   C4A59646   8.155   6.632   7.350
 7963POPC   C1B59647   8.452   6.471   6.450
 7963POPC   C2B59648   8.453   6.530   6.750
 7963POPC   C3B59649   8.406   6.548   7.050
 7963POPC   C4B59650   8.462   6.556   7.350
 7964POPC   NC359651  40.002   3.539   5.550
 7964POPC   PO459652  40.054   3.572   5.850
 7964POPC   GL159653  39.990   3.529   6.150
 7964POPC   GL259654  39.865   3.488   6.150
 7964POPC   C1A59655  39.963   3.556   6.450
 7964POPC   D2A59656  40.018   3.520   6.750
 7964POPC   C3A59657  40.014   3.590   7.050
 7964POPC   C4A59658  40.006   3.515   7.350
 7964POPC   C1B59659  39.810   3.411   6.450
 7964POPC   C2B59660  39.814   3.408   6.750
 7964POPC   C3B59661  39.853   3.407   7.050
 7964POPC   C4B59662  39.773   3.360   7.350
 7965POPC   NC359663  21.426  29.927   5.550
 7965POPC   PO459664  21.426  29.956   5.850
 7965POPC   GL159665  21.417  29.906   6.150
 7965POPC   GL259666  21.314  30.067   6.150
 7965POPC   C1A59667  21.379  29.954   6.450
 7965POPC   D2A59668  21.363  29.958   6.750
 7965POPC   C3A59669  21.393  29.952   7.050
 7965POPC   C4A59670  21.371  29.954   7.350
 7965POPC   C1B59671  21.263  30.093   6.450
 7965POPC   C2B59672  21.201  30.169   6.750
 7965POPC   C3B59673  21.247  30.162   7.050
 7965POPC   C4B59674  21.266  30.077   7.350
 7966POPC   NC359675  11.251  28.409   5.550
 7966POPC   PO459676  11.327  28.350   5.850
 7966POPC   GL159677  11.322  28.331   6.150
 7966POPC   GL259678  11.153  28.459   6.150
 7966POPC   C1A59679  11.304  28.358   6.450
 7966POPC   D2A59680  11.332  28.345   6.750
 7966POPC   C3A59681  11.333  28.401   7.050
 7966POPC   C4A59682  11.327  28.385   7.350
 7966POPC   C1B59683  11.092  28.486   6.450
 7966POPC   C2B59684  11.068  28.470   6.750
 7966POPC   C3B59685  11.039  28.486   7.050
 7966POPC   C4B59686  11.088  28.452   7.350
 7967POPC   NC359687  23.764   1.164   5.550
 7967POPC   PO459688  23.685   1.232   5.850
 7967POPC   GL159689  23.720   1.250   6.150
 7967POPC   GL259690  23.713   1.147   6.150
 7967POPC   C1A59691  23.688   1.258   6.450
 7967POPC   D2A59692  23.679   1.193   6.750
 7967POPC   C3A59693  23.682   1.220   7.050
 7967POPC   C4A59694  23.690   1.174   7.350
 7967POPC   C1B59695  23.578   0.996   6.450
 7967POPC   C2B59696  23.587   0.951   6.750
 7967POPC   C3B59697  23.593   0.994   7.050
 7967POPC   C4B59698  23.587   0.988   7.350
 7968POPC   NC359699  10.553  13.588   5.550
 7968POPC   PO459700  10.478  13.619   5.850
 7968POPC   GL159701  10.528  13.675   6.150
 7968POPC   GL259702  10.563  13.773   6.150
 7968POPC   C1A59703  10.544  13.587   6.450
 7968POPC   D2A59704  10.532  13.654   6.750
 7968POPC   C3A59705  10.496  13.640   7.050
 7968POPC   C4A59706  10.549  13.642   7.350
 7968POPC   C1B59707  10.657  13.874   6.450
 7968POPC   C2B59708  10.725  13.787   6.750
 7968POPC   C3B59709  10.628  13.861   7.050
 7968POPC   C4B59710  10.713  13.861   7.350
 7969POPC   NC359711  30.670  40.763   5.550
 7969POPC   PO459712  30.725  40.829   5.850
 7969POPC   GL159713  30.680  40.781   6.150
 7969POPC   GL259714  30.563  40.810   6.150
 7969POPC   C1A59715  30.738  40.766   6.450
 7969POPC   D2A59716  30.708  40.750   6.750
 7969POPC   C3A59717  30.710  40.740   7.050
 7969POPC   C4A59718  30.664  40.756   7.350
 7969POPC   C1B59719  30.446  40.917   6.450
 7969POPC   C2B59720  30.499  40.865   6.750
 7969POPC   C3B59721  30.493  40.881   7.050
 7969POPC   C4B59722  30.442  40.894   7.350
 7970POPC   NC359723  28.343  42.339   5.550
 7970POPC   PO459724  28.325  42.374   5.850
 7970POPC   GL159725  28.401  42.368   6.150
 7970POPC   GL259726  28.398  42.218   6.150
 7970POPC   C1A59727  28.364  42.377   6.450
 7970POPC   D2A59728  28.395  42.287   6.750
 7970POPC   C3A59729  28.381  42.351   7.050
 7970POPC   C4A59730  28.413  42.364   7.350
 7970POPC   C1B59731  28.363  42.060   6.450
 7970POPC   C2B59732  28.381  42.091   6.750
 7970POPC   C3B59733  28.424  42.049   7.050
 7970POPC   C4B59734  28.367  42.096   7.350
 7971POPC   NC359735  14.406  33.797   5.550
 7971POPC   PO459736  14.433  33.805   5.850
 7971POPC   GL159737  14.393  33.822   6.150
 7971POPC   GL259738  14.407  33.728   6.150
 7971POPC   C1A59739  14.361  33.772   6.450
 7971POPC   D2A59740  14.364  33.778   6.750
 7971POPC   C3A59741  14.402  33.766   7.050
 7971POPC   C4A59742  14.440  33.844   7.350
 7971POPC   C1B59743  14.299  33.569   6.450
 7971POPC   C2B59744  14.314  33.512   6.750
 7971POPC   C3B59745  14.384  33.607   7.050
 7971POPC   C4B59746  14.314  33.560   7.350
 7972POPC   NC359747   6.596  34.600   5.550
 7972POPC   PO459748   6.622  34.597   5.850
 7972POPC   GL159749   6.640  34.613   6.150
 7972POPC   GL259750   6.758  34.445   6.150
 7972POPC   C1A59751   6.630  34.584   6.450
 7972POPC   D2A59752   6.628  34.622   6.750
 7972POPC   C3A59753   6.647  34.550   7.050
 7972POPC   C4A59754   6.605  34.543   7.350
 7972POPC   C1B59755   6.784  34.373   6.450
 7972POPC   C2B59756   6.851  34.435   6.750
 7972POPC   C3B59757   6.818  34.426   7.050
 7972POPC   C4B59758   6.850  34.354   7.350
 7973POPC   NC359759  13.615  15.908   5.550
 7973POPC   PO459760  13.649  15.984   5.850
 7973POPC   GL159761  13.642  15.978   6.150
 7973POPC   GL259762  13.548  15.796   6.150
 7973POPC   C1A59763  13.597  15.964   6.450
 7973POPC   D2A59764  13.589  15.949   6.750
 7973POPC   C3A59765  13.609  16.000   7.050
 7973POPC   C4A59766  13.591  15.938   7.350
 7973POPC   C1B59767  13.484  15.719   6.450
 7973POPC   C2B59768  13.540  15.695   6.750
 7973POPC   C3B59769  13.526  15.701   7.050
 7973POPC   C4B59770  13.499  15.752   7.350
 7974POPC   NC359771  43.123   1.947   5.550
 7974POPC   PO459772  43.102   2.006   5.850
 7974POPC   GL159773  43.070   1.999   6.150
 7974POPC   GL259774  42.986   1.916   6.150
 7974POPC   C1A59775  43.160   1.940   6.450
 7974POPC   D2A59776  43.130   1.972   6.750
 7974POPC   C3A59777  43.104   1.989   7.050
 7974POPC   C4A59778  43.114   1.998   7.350
 7974POPC   C1B59779  42.911   1.829   6.450
 7974POPC   C2B59780  42.869   1.904   6.750
 7974POPC   C3B59781  42.924   1.875   7.050
 7974POPC   C4B59782  42.935   1.904   7.350
 7975POPC   NC359783  33.010  24.450   5.550
 7975POPC   PO459784  33.028  24.474   5.850
 7975POPC   GL159785  33.027  24.537   6.150
 7975POPC   GL259786  33.013  24.328   6.150
 7975POPC   C1A59787  32.991  24.483   6.450
 7975POPC   D2A59788  33.065  24.499   6.750
 7975POPC   C3A59789  33.000  24.513   7.050
 7975POPC   C4A59790  33.073  24.533   7.350
 7975POPC   C1B59791  32.959  24.237   6.450
 7975POPC   C2B59792  32.996  24.225   6.750
 7975POPC   C3B59793  32.931  24.284   7.050
 7975POPC   C4B59794  32.934  24.297   7.350
 7976POPC   NC359795  30.745  29.947   5.550
 7976POPC   PO459796  30.651  29.922   5.850
 7976POPC   GL159797  30.728  29.907   6.150
 7976POPC   GL259798  30.721  30.080   6.150
 7976POPC   C1A59799  30.735  29.947   6.450
 7976POPC   D2A59800  30.653  29.933   6.750
 7976POPC   C3A59801  30.703  29.877   7.050
 7976POPC   C4A59802  30.689  29.953   7.350
 7976POPC   C1B59803  30.795  30.127   6.450
 7976POPC   C2B59804  30.740  30.142   6.750
 7976POPC   C3B59805  30.814  30.170   7.050
 7976POPC   C4B59806  30.754  30.148   7.350
 7977POPC   NC359807   5.869  33.023   5.550
 7977POPC   PO459808   5.879  33.063   5.850
 7977POPC   GL159809   5.853  32.977   6.150
 7977POPC   GL259810   5.796  32.960   6.150
 7977POPC   C1A59811   5.856  33.065   6.450
 7977POPC   D2A59812   5.871  32.974   6.750
 7977POPC   C3A59813   5.852  33.019   7.050
 7977POPC   C4A59814   5.877  33.005   7.350
 7977POPC   C1B59815   5.764  32.845   6.450
 7977POPC   C2B59816   5.757  32.825   6.750
 7977POPC   C3B59817   5.777  32.760   7.050
 7977POPC   C4B59818   5.752  32.798   7.350
 7978POPC   NC359819  24.470  11.252   5.550
 7978POPC   PO459820  24.532  11.271   5.850
 7978POPC   GL159821  24.489  11.266   6.150
 7978POPC   GL259822  24.475  11.227   6.150
 7978POPC   C1A59823  24.501  11.331   6.450
 7978POPC   D2A59824  24.522  11.302   6.750
 7978POPC   C3A59825  24.489  11.270   7.050
 7978POPC   C4A59826  24.493  11.302   7.350
 7978POPC   C1B59827  24.376  11.025   6.450
 7978POPC   C2B59828  24.424  11.105   6.750
 7978POPC   C3B59829  24.403  11.086   7.050
 7978POPC   C4B59830  24.366  11.110   7.350
 7979POPC   NC359831   3.564  26.036   5.550
 7979POPC   PO459832   3.532  26.024   5.850
 7979POPC   GL159833   3.545  26.016   6.150
 7979POPC   GL259834   3.665  25.972   6.150
 7979POPC   C1A59835   3.577  26.039   6.450
 7979POPC   D2A59836   3.495  26.061   6.750
 7979POPC   C3A59837   3.574  26.021   7.050
 7979POPC   C4A59838   3.518  26.003   7.350
 7979POPC   C1B59839   3.740  25.812   6.450
 7979POPC   C2B59840   3.656  25.845   6.750
 7979POPC   C3B59841   3.704  25.801   7.050
 7979POPC   C4B59842   3.715  25.851   7.350
 7980POPC   NC359843  35.323  19.091   5.550
 7980POPC   PO459844  35.364  19.027   5.850
 7980POPC   GL159845  35.335  19.050   6.150
 7980POPC   GL259846  35.280  19.002   6.150
 7980POPC   C1A59847  35.356  19.044   6.450
 7980POPC   D2A59848  35.364  19.071   6.750
 7980POPC   C3A59849  35.385  19.082   7.050
 7980POPC   C4A59850  35.353  19.030   7.350
 7980POPC   C1B59851  35.101  18.966   6.450
 7980POPC   C2B59852  35.117  18.969   6.750
 7980POPC   C3B59853  35.137  19.034   7.050
 7980POPC   C4B59854  35.129  19.038   7.350
 7981POPC   NC359855  21.374  14.433   5.550
 7981POPC   PO459856  21.435  14.443   5.850
 7981POPC   GL159857  21.432  14.402   6.150
 7981POPC   GL259858  21.245  14.355   6.150
 7981POPC   C1A59859  21.406  14.368   6.450
 7981POPC   D2A59860  21.421  14.429   6.750
 7981POPC   C3A59861  21.407  14.418   7.050
 7981POPC   C4A59862  21.428  14.375   7.350
 7981POPC   C1B59863  21.154  14.348   6.450
 7981POPC   C2B59864  21.162  14.310   6.750
 7981POPC   C3B59865  21.134  14.302   7.050
 7981POPC   C4B59866  21.193  14.356   7.350
 7982POPC   NC359867  40.003  26.864   5.550
 7982POPC   PO459868  40.013  26.771   5.850
 7982POPC   GL159869  40.042  26.838   6.150
 7982POPC   GL259870  40.081  26.882   6.150
 7982POPC   C1A59871  39.995  26.798   6.450
 7982POPC   D2A59872  40.039  26.862   6.750
 7982POPC   C3A59873  40.026  26.842   7.050
 7982POPC   C4A59874  40.032  26.809   7.350
 7982POPC   C1B59875  40.157  27.081   6.450
 7982POPC   C2B59876  40.140  27.039   6.750
 7982POPC   C3B59877  40.121  27.033   7.050
 7982POPC   C4B59878  40.140  27.080   7.350
 7983POPC   NC359879  17.549  32.208   5.550
 7983POPC   PO459880  17.467  32.220   5.850
 7983POPC   GL159881  17.502  32.269   6.150
 7983POPC   GL259882  17.640  32.201   6.150
 7983POPC   C1A59883  17.489  32.215   6.450
 7983POPC   D2A59884  17.500  32.258   6.750
 7983POPC   C3A59885  17.498  32.250   7.050
 7983POPC   C4A59886  17.504  32.209   7.350
 7983POPC   C1B59887  17.801  32.282   6.450
 7983POPC   C2B59888  17.748  32.242   6.750
 7983POPC   C3B59889  17.737  32.197   7.050
 7983POPC   C4B59890  17.783  32.196   7.350
 7984POPC   NC359891  30.690  37.635   5.550
 7984POPC   PO459892  30.723  37.668   5.850
 7984POPC   GL159893  30.725  37.650   6.150
 7984POPC   GL259894  30.693  37.824   6.150
 7984POPC   C1A59895  30.715  37.642   6.450
 7984POPC   D2A59896  30.648  37.710   6.750
 7984POPC   C3A59897  30.734  37.685   7.050
 7984POPC   C4A59898  30.706  37.727   7.350
 7984POPC   C1B59899  30.719  37.966   6.450
 7984POPC   C2B59900  30.674  37.891   6.750
 7984POPC   C3B59901  30.743  37.976   7.050
 7984POPC   C4B59902  30.704  37.942   7.350
 7985POPC   NC359903  22.122  26.015   5.550
 7985POPC   PO459904  22.168  26.023   5.850
 7985POPC   GL159905  22.159  26.028   6.150
 7985POPC   GL259906  22.209  26.134   6.150
 7985POPC   C1A59907  22.132  26.018   6.450
 7985POPC   D2A59908  22.195  26.052   6.750
 7985POPC   C3A59909  22.124  26.053   7.050
 7985POPC   C4A59910  22.209  26.087   7.350
 7985POPC   C1B59911  22.194  26.267   6.450
 7985POPC   C2B59912  22.153  26.300   6.750
 7985POPC   C3B59913  22.137  26.281   7.050
 7985POPC   C4B59914  22.128  26.305   7.350
 7986POPC   NC359915   1.217  12.894   5.550
 7986POPC   PO459916   1.232  12.867   5.850
 7986POPC   GL159917   1.220  12.869   6.150
 7986POPC   GL259918   1.112  12.980   6.150
 7986POPC   C1A59919   1.178  12.868   6.450
 7986POPC   D2A59920   1.226  12.811   6.750
 7986POPC   C3A59921   1.179  12.819   7.050
 7986POPC   C4A59922   1.244  12.896   7.350
 7986POPC   C1B59923   1.125  13.046   6.450
 7986POPC   C2B59924   1.099  13.069   6.750
 7986POPC   C3B59925   1.099  13.046   7.050
 7986POPC   C4B59926   1.109  13.057   7.350
 7987POPC   NC359927  15.206   9.784   5.550
 7987POPC   PO459928  15.148   9.723   5.850
 7987POPC   GL159929  15.222   9.726   6.150
 7987POPC   GL259930  15.319   9.810   6.150
 7987POPC   C1A59931  15.157   9.729   6.450
 7987POPC   D2A59932  15.223   9.736   6.750
 7987POPC   C3A59933  15.176   9.707   7.050
 7987POPC   C4A59934  15.137   9.728   7.350
 7987POPC   C1B59935  15.446   9.849   6.450
 7987POPC   C2B59936  15.393   9.913   6.750
 7987POPC   C3B59937  15.383   9.904   7.050
 7987POPC   C4B59938  15.375   9.901   7.350
 7988POPC   NC359939  44.624   4.359   5.550
 7988POPC   PO459940  44.692   4.296   5.850
 7988POPC   GL159941  44.643   4.323   6.150
 7988POPC   GL259942  44.748   4.303   6.150
 7988POPC   C1A59943  44.646   4.364   6.450
 7988POPC   D2A59944  44.647   4.350   6.750
 7988POPC   C3A59945  44.640   4.362   7.050
 7988POPC   C4A59946  44.711   4.322   7.350
 7988POPC   C1B59947  44.880   4.409   6.450
 7988POPC   C2B59948  44.890   4.389   6.750
 7988POPC   C3B59949  44.948   4.387   7.050
 7988POPC   C4B59950  44.904   4.380   7.350
 7989POPC   NC359951  19.865  26.044   5.550
 7989POPC   PO459952  19.817  26.054   5.850
 7989POPC   GL159953  19.876  26.088   6.150
 7989POPC   GL259954  19.923  26.189   6.150
 7989POPC   C1A59955  19.841  26.004   6.450
 7989POPC   D2A59956  19.818  26.026   6.750
 7989POPC   C3A59957  19.838  25.994   7.050
 7989POPC   C4A59958  19.870  26.087   7.350
 7989POPC   C1B59959  19.868  26.321   6.450
 7989POPC   C2B59960  19.904  26.326   6.750
 7989POPC   C3B59961  19.922  26.279   7.050
 7989POPC   C4B59962  19.912  26.260   7.350
 7990POPC   NC359963  19.036   2.017   5.550
 7990POPC   PO459964  19.039   1.968   5.850
 7990POPC   GL159965  19.093   1.969   6.150
 7990POPC   GL259966  19.126   2.101   6.150
 7990POPC   C1A59967  19.065   1.982   6.450
 7990POPC   D2A59968  19.090   2.029   6.750
 7990POPC   C3A59969  19.019   1.995   7.050
 7990POPC   C4A59970  19.091   1.950   7.350
 7990POPC   C1B59971  19.274   2.142   6.450
 7990POPC   C2B59972  19.291   2.120   6.750
 7990POPC   C3B59973  19.292   2.136   7.050
 7990POPC   C4B59974  19.256   2.112   7.350
 7991POPC   NC359975   9.002  29.904   5.550
 7991POPC   PO459976   8.958  29.896   5.850
 7991POPC   GL159977   8.937  29.880   6.150
 7991POPC   GL259978   9.106  29.834   6.150
 7991POPC   C1A59979   8.965  29.933   6.450
 7991POPC   D2A59980   8.977  29.921   6.750
 7991POPC   C3A59981   8.994  29.928   7.050
 7991POPC   C4A59982   8.936  29.914   7.350
 7991POPC   C1B59983   9.222  29.822   6.450
 7991POPC   C2B59984   9.155  29.855   6.750
 7991POPC   C3B59985   9.173  29.793   7.050
 7991POPC   C4B59986   9.225  29.800   7.350
 7992POPC   NC359987   4.299  10.553   5.550
 7992POPC   PO459988   4.280  10.570   5.850
 7992POPC   GL159989   4.286  10.495   6.150
 7992POPC   GL259990   4.251  10.425   6.150
 7992POPC   C1A59991   4.343  10.533   6.450
 7992POPC   D2A59992   4.267  10.548   6.750
 7992POPC   C3A59993   4.274  10.573   7.050
 7992POPC   C4A59994   4.299  10.487   7.350
 7992POPC   C1B59995   4.216  10.304   6.450
 7992POPC   C2B59996   4.281  10.241   6.750
 7992POPC   C3B59997   4.254  10.248   7.050
 7992POPC   C4B59998   4.224  10.313   7.350
 7993POPC   NC359999  34.562   5.851   5.550
 7993POPC   PO460000  34.578   5.911   5.850
 7993POPC   GL160001  34.592   5.848   6.150
 7993POPC   GL260002  34.494   5.968   6.150
 7993POPC   C1A60003  34.548   5.890   6.450
 7993POPC   D2A60004  34.567   5.842   6.750
 7993POPC   C3A60005  34.564   5.910   7.050
 7993POPC   C4A60006  34.537   5.858   7.350
 7993POPC   C1B60007  34.353   6.064   6.450
 7993POPC   C2B60008  34.365   6.008   6.750
 7993POPC   C3B60009  34.377   6.070   7.050
 7993POPC   C4B60010  34.389   6.062   7.350
 7994POPC   NC360011  21.377   7.432   5.550
 7994POPC   PO460012  21.380   7.458   5.850
 7994POPC   GL160013  21.352   7.378   6.150
 7994POPC   GL260014  21.431   7.315   6.150
 7994POPC   C1A60015  21.411   7.448   6.450
 7994POPC   D2A60016  21.385   7.439   6.750
 7994POPC   C3A60017  21.419   7.378   7.050
 7994POPC   C4A60018  21.352   7.455   7.350
 7994POPC   C1B60019  21.560   7.190   6.450
 7994POPC   C2B60020  21.560   7.212   6.750
 7994POPC   C3B60021  21.522   7.258   7.050
 7994POPC   C4B60022  21.495   7.236   7.350
 7995POPC   NC360023  29.140   9.018   5.550
 7995POPC   PO460024  29.110   8.965   5.850
 7995POPC   GL160025  29.109   8.931   6.150
 7995POPC   GL260026  29.281   8.969   6.150
 7995POPC   C1A60027  29.164   8.963   6.450
 7995POPC   D2A60028  29.150   8.947   6.750
 7995POPC   C3A60029  29.132   8.980   7.050
 7995POPC   C4A60030  29.122   9.005   7.350
 7995POPC   C1B60031  29.364   8.901   6.450
 7995POPC   C2B60032  29.397   8.839   6.750
 7995POPC   C3B60033  29.382   8.838   7.050
 7995POPC   C4B60034  29.367   8.885   7.350
 7996POPC   NC360035  25.994  16.701   5.550
 7996POPC   PO460036  26.090  16.703   5.850
 7996POPC   GL160037  26.068  16.757   6.150
 7996POPC   GL260038  25.927  16.819   6.150
 7996POPC   C1A60039  26.021  16.745   6.450
 7996POPC   D2A60040  26.052  16.768   6.750
 7996POPC   C3A60041  26.050  16.705   7.050
 7996POPC   C4A60042  25.998  16.766   7.350
 7996POPC   C1B60043  25.804  16.867   6.450
 7996POPC   C2B60044  25.860  16.810   6.750
 7996POPC   C3B60045  25.820  16.882   7.050
 7996POPC   C4B60046  25.820  16.832   7.350
 7997POPC   NC360047  35.393   9.717   5.550
 7997POPC   PO460048  35.391   9.716   5.850
 7997POPC   GL160049  35.324   9.753   6.150
 7997POPC   GL260050  35.411   9.828   6.150
 7997POPC   C1A60051  35.322   9.727   6.450
 7997POPC   D2A60052  35.365   9.718   6.750
 7997POPC   C3A60053  35.312   9.737   7.050
 7997POPC   C4A60054  35.340   9.739   7.350
 7997POPC   C1B60055  35.473   9.908   6.450
 7997POPC   C2B60056  35.509   9.960   6.750
 7997POPC   C3B60057  35.544   9.919   7.050
 7997POPC   C4B60058  35.522   9.908   7.350
 7998POPC   NC360059  15.943  41.541   5.550
 7998POPC   PO460060  15.924  41.601   5.850
 7998POPC   GL160061  15.944  41.553   6.150
 7998POPC   GL260062  15.814  41.633   6.150
 7998POPC   C1A60063  15.966  41.573   6.450
 7998POPC   D2A60064  15.961  41.562   6.750
 7998POPC   C3A60065  15.979  41.564   7.050
 7998POPC   C4A60066  16.000  41.591   7.350
 7998POPC   C1B60067  15.713  41.682   6.450
 7998POPC   C2B60068  15.679  41.657   6.750
 7998POPC   C3B60069  15.724  41.637   7.050
 7998POPC   C4B60070  15.751  41.707   7.350
 7999POPC   NC360071  30.699  17.549   5.550
 7999POPC   PO460072  30.726  17.552   5.850
 7999POPC   GL160073  30.656  17.513   6.150
 7999POPC   GL260074  30.659  17.435   6.150
 7999POPC   C1A60075  30.719  17.481   6.450
 7999POPC   D2A60076  30.648  17.475   6.750
 7999POPC   C3A60077  30.711  17.537   7.050
 7999POPC   C4A60078  30.705  17.538   7.350
 7999POPC   C1B60079  30.604  17.323   6.450
 7999POPC   C2B60080  30.609  17.245   6.750
 7999POPC   C3B60081  30.591  17.308   7.050
 7999POPC   C4B60082  30.583  17.306   7.350
 8000POPC   NC360083  25.282   7.429   5.550
 8000POPC   PO460084  25.278   7.391   5.850
 8000POPC   GL160085  25.237   7.459   6.150
 8000POPC   GL260086  25.129   7.380   6.150
 8000POPC   C1A60087  25.224   7.434   6.450
 8000POPC   D2A60088  25.235   7.436   6.750
 8000POPC   C3A60089  25.274   7.395   7.050
 8000POPC   C4A60090  25.217   7.423   7.350
 8000POPC   C1B60091  25.025   7.301   6.450
 8000POPC   C2B60092  25.102   7.247   6.750
 8000POPC   C3B60093  25.094   7.303   7.050
 8000POPC   C4B60094  25.048   7.223   7.350
 8001POPC   NC360095  30.715  15.939   5.550
 8001POPC   PO460096  30.700  15.943   5.850
 8001POPC   GL160097  30.745  15.923   6.150
 8001POPC   GL260098  30.667  16.112   6.150
 8001POPC   C1A60099  30.719  15.989   6.450
 8001POPC   D2A60100  30.709  16.000   6.750
 8001POPC   C3A60101  30.687  15.989   7.050
 8001POPC   C4A60102  30.685  15.917   7.350
 8001POPC   C1B60103  30.724  16.235   6.450
 8001POPC   C2B60104  30.729  16.213   6.750
 8001POPC   C3B60105  30.755  16.186   7.050
 8001POPC   C4B60106  30.768  16.245   7.350
 8002POPC   NC360107  30.736  39.239   5.550
 8002POPC   PO460108  30.650  39.257   5.850
 8002POPC   GL160109  30.716  39.264   6.150
 8002POPC   GL260110  30.845  39.289   6.150
 8002POPC   C1A60111  30.714  39.195   6.450
 8002POPC   D2A60112  30.649  39.257   6.750
 8002POPC   C3A60113  30.652  39.240   7.050
 8002POPC   C4A60114  30.653  39.265   7.350
 8002POPC   C1B60115  30.927  39.302   6.450
 8002POPC   C2B60116  30.952  39.307   6.750
 8002POPC   C3B60117  30.967  39.227   7.050
 8002POPC   C4B60118  30.982  39.213   7.350
 8003POPC   NC360119  10.548  22.970   5.550
 8003POPC   PO460120  10.545  22.945   5.850
 8003POPC   GL160121  10.544  22.908   6.150
 8003POPC   GL260122  10.510  23.095   6.150
 8003POPC   C1A60123  10.533  22.925   6.450
 8003POPC   D2A60124  10.554  22.960   6.750
 8003POPC   C3A60125  10.563  22.900   7.050
 8003POPC   C4A60126  10.536  22.899   7.350
 8003POPC   C1B60127  10.503  23.158   6.450
 8003POPC   C2B60128  10.510  23.199   6.750
 8003POPC   C3B60129  10.516  23.225   7.050
 8003POPC   C4B60130  10.513  23.162   7.350
 8004POPC   NC360131  17.509  22.942   5.550
 8004POPC   PO460132  17.458  22.915   5.850
 8004POPC   GL160133  17.483  22.933   6.150
 8004POPC   GL260134  17.474  23.023   6.150
 8004POPC   C1A60135  17.487  22.912   6.450
 8004POPC   D2A60136  17.556  22.966   6.750
 8004POPC   C3A60137  17.500  22.961   7.050
 8004POPC   C4A60138  17.472  22.918   7.350
 8004POPC   C1B60139  17.565  23.213   6.450
 8004POPC   C2B60140  17.582  23.191   6.750
 8004POPC   C3B60141  17.529  23.228   7.050
 8004POPC   C4B60142  17.526  23.169   7.350
 8005POPC   NC360143  11.257  13.591   5.550
 8005POPC   PO460144  11.257  13.675   5.850
 8005POPC   GL160145  11.275  13.608   6.150
 8005POPC   GL260146  11.395  13.589   6.150
 8005POPC   C1A60147  11.301  13.603   6.450
 8005POPC   D2A60148  11.280  13.591   6.750
 8005POPC   C3A60149  11.299  13.619   7.050
 8005POPC   C4A60150  11.271  13.632   7.350
 8005POPC   C1B60151  11.548  13.425   6.450
 8005POPC   C2B60152  11.539  13.525   6.750
 8005POPC   C3B60153  11.498  13.445   7.050
 8005POPC   C4B60154  11.471  13.430   7.350
 8006POPC   NC360155   8.996  37.729   5.550
 8006POPC   PO460156   8.974  37.698   5.850
 8006POPC   GL160157   9.022  37.703   6.150
 8006POPC   GL260158   9.020  37.783   6.150
 8006POPC   C1A60159   8.977  37.727   6.450
 8006POPC   D2A60160   8.931  37.665   6.750
 8006POPC   C3A60161   8.976  37.692   7.050
 8006POPC   C4A60162   9.012  37.722   7.350
 8006POPC   C1B60163   9.020  37.966   6.450
 8006POPC   C2B60164   9.011  37.954   6.750
 8006POPC   C3B60165   9.051  37.913   7.050
 8006POPC   C4B60166   9.003  37.935   7.350
 8007POPC   NC360167  15.984  12.818   5.550
 8007POPC   PO460168  15.995  12.815   5.850
 8007POPC   GL160169  15.990  12.856   6.150
 8007POPC   GL260170  15.854  12.907   6.150
 8007POPC   C1A60171  15.995  12.899   6.450
 8007POPC   D2A60172  15.984  12.820   6.750
 8007POPC   C3A60173  15.958  12.872   7.050
 8007POPC   C4A60174  15.983  12.889   7.350
 8007POPC   C1B60175  15.759  12.988   6.450
 8007POPC   C2B60176  15.783  13.006   6.750
 8007POPC   C3B60177  15.721  13.004   7.050
 8007POPC   C4B60178  15.714  13.016   7.350
 8008POPC   NC360179  20.606  36.132   5.550
 8008POPC   PO460180  20.584  36.126   5.850
 8008POPC   GL160181  20.614  36.111   6.150
 8008POPC   GL260182  20.478  36.187   6.150
 8008POPC   C1A60183  20.640  36.117   6.450
 8008POPC   D2A60184  20.620  36.110   6.750
 8008POPC   C3A60185  20.601  36.157   7.050
 8008POPC   C4A60186  20.621  36.157   7.350
 8008POPC   C1B60187  20.473  36.267   6.450
 8008POPC   C2B60188  20.482  36.279   6.750
 8008POPC   C3B60189  20.388  36.279   7.050
 8008POPC   C4B60190  20.448  36.315   7.350
 8009POPC   NC360191  26.859   1.206   5.550
 8009POPC   PO460192  26.856   1.258   5.850
 8009POPC   GL160193  26.794   1.230   6.150
 8009POPC   GL260194  26.898   1.281   6.150
 8009POPC   C1A60195  26.844   1.220   6.450
 8009POPC   D2A60196  26.779   1.171   6.750
 8009POPC   C3A60197  26.830   1.242   7.050
 8009POPC   C4A60198  26.810   1.173   7.350
 8009POPC   C1B60199  27.009   1.302   6.450
 8009POPC   C2B60200  27.063   1.339   6.750
 8009POPC   C3B60201  27.031   1.310   7.050
 8009POPC   C4B60202  27.034   1.316   7.350
 8010POPC   NC360203  33.031   2.758   5.550
 8010POPC   PO460204  33.038   2.731   5.850
 8010POPC   GL160205  33.060   2.796   6.150
 8010POPC   GL260206  33.136   2.689   6.150
 8010POPC   C1A60207  32.975   2.736   6.450
 8010POPC   D2A60208  33.045   2.716   6.750
 8010POPC   C3A60209  33.030   2.778   7.050
 8010POPC   C4A60210  33.030   2.731   7.350
 8010POPC   C1B60211  33.271   2.621   6.450
 8010POPC   C2B60212  33.227   2.643   6.750
 8010POPC   C3B60213  33.281   2.628   7.050
 8010POPC   C4B60214  33.255   2.609   7.350
 8011POPC   NC360215  26.022  41.567   5.550
 8011POPC   PO460216  26.023  41.527   5.850
 8011POPC   GL160217  26.043  41.512   6.150
 8011POPC   GL260218  26.106  41.467   6.150
 8011POPC   C1A60219  26.063  41.555   6.450
 8011POPC   D2A60220  26.059  41.591   6.750
 8011POPC   C3A60221  26.022  41.539   7.050
 8011POPC   C4A60222  26.031  41.578   7.350
 8011POPC   C1B60223  26.225  41.477   6.450
 8011POPC   C2B60224  26.318  41.439   6.750
 8011POPC   C3B60225  26.273  41.431   7.050
 8011POPC   C4B60226  26.219  41.491   7.350
 8012POPC   NC360227  43.104  12.118   5.550
 8012POPC   PO460228  43.151  12.091   5.850
 8012POPC   GL160229  43.119  12.040   6.150
 8012POPC   GL260230  43.104  11.973   6.150
 8012POPC   C1A60231  43.131  12.044   6.450
 8012POPC   D2A60232  43.092  12.046   6.750
 8012POPC   C3A60233  43.098  12.111   7.050
 8012POPC   C4A60234  43.108  12.063   7.350
 8012POPC   C1B60235  43.045  11.800   6.450
 8012POPC   C2B60236  43.062  11.800   6.750
 8012POPC   C3B60237  43.063  11.820   7.050
 8012POPC   C4B60238  43.094  11.797   7.350
 8013POPC   NC360239   6.639   9.723   5.550
 8013POPC   PO460240   6.676   9.781   5.850
 8013POPC   GL160241   6.666   9.777   6.150
 8013POPC   GL260242   6.528   9.661   6.150
 8013POPC   C1A60243   6.610   9.716   6.450
 8013POPC   D2A60244   6.694   9.705   6.750
 8013POPC   C3A60245   6.694   9.744   7.050
 8013POPC   C4A60246   6.667   9.784   7.350
 8013POPC   C1B60247   6.421   9.614   6.450
 8013POPC   C2B60248   6.456   9.613   6.750
 8013POPC   C3B60249   6.472   9.629   7.050
 8013POPC   C4B60250   6.451   9.553   7.350
 8014POPC   NC360251   8.226  19.076   5.550
 8014POPC   PO460252   8.188  19.102   5.850
 8014POPC   GL160253   8.226  19.017   6.150
 8014POPC   GL260254   8.215  18.926   6.150
 8014POPC   C1A60255   8.230  19.089   6.450
 8014POPC   D2A60256   8.231  19.057   6.750
 8014POPC   C3A60257   8.187  19.042   7.050
 8014POPC   C4A60258   8.178  19.023   7.350
 8014POPC   C1B60259   8.147  18.794   6.450
 8014POPC   C2B60260   8.139  18.857   6.750
 8014POPC   C3B60261   8.186  18.854   7.050
 8014POPC   C4B60262   8.224  18.833   7.350
 8015POPC   NC360263  29.124   2.768   5.550
 8015POPC   PO460264  29.185   2.754   5.850
 8015POPC   GL160265  29.156   2.779   6.150
 8015POPC   GL260266  29.269   2.851   6.150
 8015POPC   C1A60267  29.134   2.738   6.450
 8015POPC   D2A60268  29.111   2.731   6.750
 8015POPC   C3A60269  29.184   2.748   7.050
 8015POPC   C4A60270  29.107   2.719   7.350
 8015POPC   C1B60271  29.360   2.911   6.450
 8015POPC   C2B60272  29.357   2.874   6.750
 8015POPC   C3B60273  29.322   2.926   7.050
 8015POPC   C4B60274  29.367   2.871   7.350
 8016POPC   NC360275   5.085   7.470   5.550
 8016POPC   PO460276   5.070   7.423   5.850
 8016POPC   GL160277   5.110   7.445   6.150
 8016POPC   GL260278   5.157   7.302   6.150
 8016POPC   C1A60279   5.068   7.414   6.450
 8016POPC   D2A60280   5.045   7.464   6.750
 8016POPC   C3A60281   5.081   7.441   7.050
 8016POPC   C4A60282   5.120   7.460   7.350
 8016POPC   C1B60283   5.191   7.178   6.450
 8016POPC   C2B60284   5.184   7.224   6.750
 8016POPC   C3B60285   5.158   7.160   7.050
 8016POPC   C4B60286   5.198   7.170   7.350
 8017POPC   NC360287   9.761  27.602   5.550
 8017POPC   PO460288   9.744  27.593   5.850
 8017POPC   GL160289   9.731  27.605   6.150
 8017POPC   GL260290   9.876  27.725   6.150
 8017POPC   C1A60291   9.738  27.549   6.450
 8017POPC   D2A60292   9.720  27.564   6.750
 8017POPC   C3A60293   9.742  27.590   7.050
 8017POPC   C4A60294   9.789  27.604   7.350
 8017POPC   C1B60295   9.916  27.740   6.450
 8017POPC   C2B60296   9.967  27.767   6.750
 8017POPC   C3B60297   9.927  27.816   7.050
 8017POPC   C4B60298   9.879  27.724   7.350
 8018POPC   NC360299  26.066   0.404   5.550
 8018POPC   PO460300  26.035   0.436   5.850
 8018POPC   GL160301  26.064   0.422   6.150
 8018POPC   GL260302  26.053   0.545   6.150
 8018POPC   C1A60303  26.052   0.411   6.450
 8018POPC   D2A60304  26.036   0.397   6.750
 8018POPC   C3A60305  26.042   0.404   7.050
 8018POPC   C4A60306  26.061   0.434   7.350
 8018POPC   C1B60307  26.042   0.648   6.450
 8018POPC   C2B60308  25.978   0.696   6.750
 8018POPC   C3B60309  25.990   0.721   7.050
 8018POPC   C4B60310  26.044   0.638   7.350
 8019POPC   NC360311  22.938  27.641   5.550
 8019POPC   PO460312  22.986  27.566   5.850
 8019POPC   GL160313  22.910  27.618   6.150
 8019POPC   GL260314  22.856  27.530   6.150
 8019POPC   C1A60315  22.968  27.562   6.450
 8019POPC   D2A60316  22.951  27.553   6.750
 8019POPC   C3A60317  22.979  27.618   7.050
 8019POPC   C4A60318  22.899  27.603   7.350
 8019POPC   C1B60319  22.750  27.501   6.450
 8019POPC   C2B60320  22.696  27.475   6.750
 8019POPC   C3B60321  22.671  27.486   7.050
 8019POPC   C4B60322  22.677  27.482   7.350
 8020POPC   NC360323  11.250  43.099   5.550
 8020POPC   PO460324  11.346  43.065   5.850
 8020POPC   GL160325  11.275  43.122   6.150
 8020POPC   GL260326  11.194  42.993   6.150
 8020POPC   C1A60327  11.328  43.079   6.450
 8020POPC   D2A60328  11.332  43.115   6.750
 8020POPC   C3A60329  11.301  43.114   7.050
 8020POPC   C4A60330  11.278  43.148   7.350
 8020POPC   C1B60331  11.126  42.907   6.450
 8020POPC   C2B60332  11.088  42.960   6.750
 8020POPC   C3B60333  11.158  42.991   7.050
 8020POPC   C4B60334  11.152  42.987   7.350
 8021POPC   NC360335  22.904  26.789   5.550
 8021POPC   PO460336  22.982  26.821   5.850
 8021POPC   GL160337  22.933  26.791   6.150
 8021POPC   GL260338  22.824  26.886   6.150
 8021POPC   C1A60339  22.899  26.784   6.450
 8021POPC   D2A60340  22.987  26.780   6.750
 8021POPC   C3A60341  22.959  26.792   7.050
 8021POPC   C4A60342  22.958  26.790   7.350
 8021POPC   C1B60343  22.705  27.001   6.450
 8021POPC   C2B60344  22.751  26.933   6.750
 8021POPC   C3B60345  22.690  26.936   7.050
 8021POPC   C4B60346  22.761  26.974   7.350
 8022POPC   NC360347  36.148   1.211   5.550
 8022POPC   PO460348  36.145   1.230   5.850
 8022POPC   GL160349  36.140   1.195   6.150
 8022POPC   GL260350  36.087   1.156   6.150
 8022POPC   C1A60351  36.134   1.209   6.450
 8022POPC   D2A60352  36.081   1.241   6.750
 8022POPC   C3A60353  36.090   1.229   7.050
 8022POPC   C4A60354  36.099   1.246   7.350
 8022POPC   C1B60355  35.975   1.039   6.450
 8022POPC   C2B60356  35.940   0.989   6.750
 8022POPC   C3B60357  35.998   0.997   7.050
 8022POPC   C4B60358  35.981   0.988   7.350
 8023POPC   NC360359  34.549  19.082   5.550
 8023POPC   PO460360  34.539  19.095   5.850
 8023POPC   GL160361  34.548  19.082   6.150
 8023POPC   GL260362  34.506  19.081   6.150
 8023POPC   C1A60363  34.608  19.028   6.450
 8023POPC   D2A60364  34.537  19.085   6.750
 8023POPC   C3A60365  34.617  19.067   7.050
 8023POPC   C4A60366  34.555  19.035   7.350
 8023POPC   C1B60367  34.373  19.213   6.450
 8023POPC   C2B60368  34.347  19.183   6.750
 8023POPC   C3B60369  34.362  19.226   7.050
 8023POPC   C4B60370  34.404  19.137   7.350
 8024POPC   NC360371  19.074  34.596   5.550
 8024POPC   PO460372  19.026  34.598   5.850
 8024POPC   GL160373  19.088  34.553   6.150
 8024POPC   GL260374  18.986  34.475   6.150
 8024POPC   C1A60375  19.091  34.567   6.450
 8024POPC   D2A60376  19.099  34.587   6.750
 8024POPC   C3A60377  19.038  34.568   7.050
 8024POPC   C4A60378  19.097  34.549   7.350
 8024POPC   C1B60379  18.980  34.351   6.450
 8024POPC   C2B60380  18.946  34.398   6.750
 8024POPC   C3B60381  18.934  34.379   7.050
 8024POPC   C4B60382  18.967  34.388   7.350
 8025POPC   NC360383  12.044  20.658   5.550
 8025POPC   PO460384  12.121  20.622   5.850
 8025POPC   GL160385  12.120  20.566   6.150
 8025POPC   GL260386  12.184  20.559   6.150
 8025POPC   C1A60387  12.033  20.578   6.450
 8025POPC   D2A60388  12.101  20.592   6.750
 8025POPC   C3A60389  12.049  20.615   7.050
 8025POPC   C4A60390  12.117  20.566   7.350
 8025POPC   C1B60391  12.310  20.578   6.450
 8025POPC   C2B60392  12.363  20.594   6.750
 8025POPC   C3B60393  12.362  20.589   7.050
 8025POPC   C4B60394  12.298  20.585   7.350
 8026POPC   NC360395  13.648   1.945   5.550
 8026POPC   PO460396  13.667   2.026   5.850
 8026POPC   GL160397  13.605   1.961   6.150
 8026POPC   GL260398  13.686   2.059   6.150
 8026POPC   C1A60399  13.601   1.989   6.450
 8026POPC   D2A60400  13.630   1.997   6.750
 8026POPC   C3A60401  13.653   1.973   7.050
 8026POPC   C4A60402  13.625   1.962   7.350
 8026POPC   C1B60403  13.794   2.151   6.450
 8026POPC   C2B60404  13.785   2.198   6.750
 8026POPC   C3B60405  13.822   2.176   7.050
 8026POPC   C4B60406  13.747   2.223   7.350
 8027POPC   NC360407  14.355  35.367   5.550
 8027POPC   PO460408  14.370  35.342   5.850
 8027POPC   GL160409  14.413  35.356   6.150
 8027POPC   GL260410  14.446  35.461   6.150
 8027POPC   C1A60411  14.398  35.374   6.450
 8027POPC   D2A60412  14.398  35.382   6.750
 8027POPC   C3A60413  14.409  35.353   7.050
 8027POPC   C4A60414  14.367  35.392   7.350
 8027POPC   C1B60415  14.401  35.647   6.450
 8027POPC   C2B60416  14.483  35.636   6.750
 8027POPC   C3B60417  14.464  35.617   7.050
 8027POPC   C4B60418  14.483  35.593   7.350
 8028POPC   NC360419  19.846  22.897   5.550
 8028POPC   PO460420  19.866  22.954   5.850
 8028POPC   GL160421  19.835  22.891   6.150
 8028POPC   GL260422  19.693  23.036   6.150
 8028POPC   C1A60423  19.836  22.910   6.450
 8028POPC   D2A60424  19.848  22.957   6.750
 8028POPC   C3A60425  19.841  22.983   7.050
 8028POPC   C4A60426  19.856  22.975   7.350
 8028POPC   C1B60427  19.610  23.112   6.450
 8028POPC   C2B60428  19.601  23.041   6.750
 8028POPC   C3B60429  19.667  23.027   7.050
 8028POPC   C4B60430  19.659  23.085   7.350
 8029POPC   NC360431  16.733  44.694   5.550
 8029POPC   PO460432  16.709  44.615   5.850
 8029POPC   GL160433  16.685  44.619   6.150
 8029POPC   GL260434  16.656  44.753   6.150
 8029POPC   C1A60435  16.745  44.672   6.450
 8029POPC   D2A60436  16.754  44.616   6.750
 8029POPC   C3A60437  16.773  44.625   7.050
 8029POPC   C4A60438  16.681  44.631   7.350
 8029POPC   C1B60439  16.517  44.725   6.450
 8029POPC   C2B60440  16.530  44.808   6.750
 8029POPC   C3B60441  16.453  44.756   7.050
 8029POPC   C4B60442  16.514  44.744   7.350
 8030POPC   NC360443  19.102  20.588   5.550
 8030POPC   PO460444  19.014  20.634   5.850
 8030POPC   GL160445  19.030  20.608   6.150
 8030POPC   GL260446  19.220  20.626   6.150
 8030POPC   C1A60447  19.066  20.581   6.450
 8030POPC   D2A60448  19.034  20.570   6.750
 8030POPC   C3A60449  19.103  20.595   7.050
 8030POPC   C4A60450  19.101  20.569   7.350
 8030POPC   C1B60451  19.336  20.676   6.450
 8030POPC   C2B60452  19.313  20.667   6.750
 8030POPC   C3B60453  19.274  20.607   7.050
 8030POPC   C4B60454  19.332  20.652   7.350
 8031POPC   NC360455   9.780  12.816   5.550
 8031POPC   PO460456   9.706  12.826   5.850
 8031POPC   GL160457   9.784  12.847   6.150
 8031POPC   GL260458   9.838  12.861   6.150
 8031POPC   C1A60459   9.737  12.848   6.450
 8031POPC   D2A60460   9.794  12.816   6.750
 8031POPC   C3A60461   9.789  12.812   7.050
 8031POPC   C4A60462   9.726  12.860   7.350
 8031POPC   C1B60463  10.011  12.860   6.450
 8031POPC   C2B60464   9.978  12.895   6.750
 8031POPC   C3B60465   9.972  12.852   7.050
 8031POPC   C4B60466  10.033  12.824   7.350
 8032POPC   NC360467  29.891  36.855   5.550
 8032POPC   PO460468  29.934  36.930   5.850
 8032POPC   GL160469  29.963  36.879   6.150
 8032POPC   GL260470  29.825  36.843   6.150
 8032POPC   C1A60471  29.875  36.921   6.450
 8032POPC   D2A60472  29.945  36.855   6.750
 8032POPC   C3A60473  29.901  36.880   7.050
 8032POPC   C4A60474  29.916  36.892   7.350
 8032POPC   C1B60475  29.689  36.708   6.450
 8032POPC   C2B60476  29.748  36.762   6.750
 8032POPC   C3B60477  29.701  36.788   7.050
 8032POPC   C4B60478  29.767  36.739   7.350
 8033POPC   NC360479  33.835  22.171   5.550
 8033POPC   PO460480  33.786  22.127   5.850
 8033POPC   GL160481  33.785  22.169   6.150
 8033POPC   GL260482  33.698  22.243   6.150
 8033POPC   C1A60483  33.763  22.165   6.450
 8033POPC   D2A60484  33.845  22.176   6.750
 8033POPC   C3A60485  33.755  22.172   7.050
 8033POPC   C4A60486  33.765  22.160   7.350
 8033POPC   C1B60487  33.613  22.287   6.450
 8033POPC   C2B60488  33.597  22.249   6.750
 8033POPC   C3B60489  33.516  22.256   7.050
 8033POPC   C4B60490  33.611  22.271   7.350
 8034POPC   NC360491  36.113  42.346   5.550
 8034POPC   PO460492  36.176  42.353   5.850
 8034POPC   GL160493  36.118  42.323   6.150
 8034POPC   GL260494  36.107  42.490   6.150
 8034POPC   C1A60495  36.113  42.346   6.450
 8034POPC   D2A60496  36.096  42.311   6.750
 8034POPC   C3A60497  36.139  42.372   7.050
 8034POPC   C4A60498  36.177  42.291   7.350
 8034POPC   C1B60499  36.054  42.563   6.450
 8034POPC   C2B60500  36.075  42.540   6.750
 8034POPC   C3B60501  36.088  42.545   7.050
 8034POPC   C4B60502  36.026  42.570   7.350
 8035POPC   NC360503   8.191   0.417   5.550
 8035POPC   PO460504   8.164   0.428   5.850
 8035POPC   GL160505   8.236   0.442   6.150
 8035POPC   GL260506   8.109   0.357   6.150
 8035POPC   C1A60507   8.210   0.465   6.450
 8035POPC   D2A60508   8.237   0.404   6.750
 8035POPC   C3A60509   8.193   0.466   7.050
 8035POPC   C4A60510   8.226   0.457   7.350
 8035POPC   C1B60511   8.070   0.198   6.450
 8035POPC   C2B60512   8.069   0.248   6.750
 8035POPC   C3B60513   8.151   0.227   7.050
 8035POPC   C4B60514   8.075   0.211   7.350
 8036POPC   NC360515  17.462  33.003   5.550
 8036POPC   PO460516  17.553  33.033   5.850
 8036POPC   GL160517  17.554  33.015   6.150
 8036POPC   GL260518  17.399  33.092   6.150
 8036POPC   C1A60519  17.529  32.975   6.450
 8036POPC   D2A60520  17.502  33.061   6.750
 8036POPC   C3A60521  17.471  33.058   7.050
 8036POPC   C4A60522  17.551  33.001   7.350
 8036POPC   C1B60523  17.331  33.164   6.450
 8036POPC   C2B60524  17.271  33.163   6.750
 8036POPC   C3B60525  17.260  33.095   7.050
 8036POPC   C4B60526  17.255  33.166   7.350
 8037POPC   NC360527   9.785  42.328   5.550
 8037POPC   PO460528   9.777  42.357   5.850
 8037POPC   GL160529   9.726  42.312   6.150
 8037POPC   GL260530   9.738  42.199   6.150
 8037POPC   C1A60531   9.765  42.321   6.450
 8037POPC   D2A60532   9.706  42.316   6.750
 8037POPC   C3A60533   9.789  42.320   7.050
 8037POPC   C4A60534   9.751  42.336   7.350
 8037POPC   C1B60535   9.668  42.105   6.450
 8037POPC   C2B60536   9.613  42.154   6.750
 8037POPC   C3B60537   9.684  42.124   7.050
 8037POPC   C4B60538   9.603  42.097   7.350
 8038POPC   NC360539   7.423  32.275   5.550
 8038POPC   PO460540   7.407  32.218   5.850
 8038POPC   GL160541   7.448  32.296   6.150
 8038POPC   GL260542   7.309  32.156   6.150
 8038POPC   C1A60543   7.450  32.235   6.450
 8038POPC   D2A60544   7.426  32.199   6.750
 8038POPC   C3A60545   7.415  32.278   7.050
 8038POPC   C4A60546   7.469  32.218   7.350
 8038POPC   C1B60547   7.253  31.995   6.450
 8038POPC   C2B60548   7.290  32.048   6.750
 8038POPC   C3B60549   7.261  32.005   7.050
 8038POPC   C4B60550   7.259  32.032   7.350
 8039POPC   NC360551  19.015  29.892   5.550
 8039POPC   PO460552  19.041  29.895   5.850
 8039POPC   GL160553  19.025  29.884   6.150
 8039POPC   GL260554  19.133  29.847   6.150
 8039POPC   C1A60555  19.059  29.921   6.450
 8039POPC   D2A60556  19.102  29.880   6.750
 8039POPC   C3A60557  19.084  29.963   7.050
 8039POPC   C4A60558  19.024  29.960   7.350
 8039POPC   C1B60559  19.174  29.750   6.450
 8039POPC   C2B60560  19.214  29.712   6.750
 8039POPC   C3B60561  19.228  29.714   7.050
 8039POPC   C4B60562  19.194  29.753   7.350
 8040POPC   NC360563  43.116  40.000   5.550
 8040POPC   PO460564  43.150  40.044   5.850
 8040POPC   GL160565  43.141  39.958   6.150
 8040POPC   GL260566  43.167  39.916   6.150
 8040POPC   C1A60567  43.085  39.994   6.450
 8040POPC   D2A60568  43.097  39.994   6.750
 8040POPC   C3A60569  43.085  39.983   7.050
 8040POPC   C4A60570  43.143  39.975   7.350
 8040POPC   C1B60571  43.280  39.879   6.450
 8040POPC   C2B60572  43.350  39.883   6.750
 8040POPC   C3B60573  43.290  39.839   7.050
 8040POPC   C4B60574  43.364  39.831   7.350
 8041POPC   NC360575  13.672  29.888   5.550
 8041POPC   PO460576  13.651  29.949   5.850
 8041POPC   GL160577  13.667  29.930   6.150
 8041POPC   GL260578  13.625  29.806   6.150
 8041POPC   C1A60579  13.580  29.902   6.450
 8041POPC   D2A60580  13.604  29.883   6.750
 8041POPC   C3A60581  13.677  29.929   7.050
 8041POPC   C4A60582  13.590  29.910   7.350
 8041POPC   C1B60583  13.592  29.710   6.450
 8041POPC   C2B60584  13.641  29.677   6.750
 8041POPC   C3B60585  13.665  29.687   7.050
 8041POPC   C4B60586  13.607  29.670   7.350
 8042POPC   NC360587  42.289  11.312   5.550
 8042POPC   PO460588  42.324  11.318   5.850
 8042POPC   GL160589  42.318  11.342   6.150
 8042POPC   GL260590  42.410  11.200   6.150
 8042POPC   C1A60591  42.363  11.261   6.450
 8042POPC   D2A60592  42.325  11.344   6.750
 8042POPC   C3A60593  42.312  11.322   7.050
 8042POPC   C4A60594  42.311  11.303   7.350
 8042POPC   C1B60595  42.519  11.167   6.450
 8042POPC   C2B60596  42.554  11.156   6.750
 8042POPC   C3B60597  42.561  11.171   7.050
 8042POPC   C4B60598  42.504  11.131   7.350
 8043POPC   NC360599  25.228  26.846   5.550
 8043POPC   PO460600  25.233  26.843   5.850
 8043POPC   GL160601  25.284  26.819   6.150
 8043POPC   GL260602  25.167  26.748   6.150
 8043POPC   C1A60603  25.294  26.857   6.450
 8043POPC   D2A60604  25.305  26.779   6.750
 8043POPC   C3A60605  25.219  26.783   7.050
 8043POPC   C4A60606  25.250  26.864   7.350
 8043POPC   C1B60607  25.051  26.698   6.450
 8043POPC   C2B60608  25.107  26.606   6.750
 8043POPC   C3B60609  25.064  26.624   7.050
 8043POPC   C4B60610  25.108  26.650   7.350
 8044POPC   NC360611  16.744  32.218   5.550
 8044POPC   PO460612  16.765  32.277   5.850
 8044POPC   GL160613  16.749  32.281   6.150
 8044POPC   GL260614  16.705  32.117   6.150
 8044POPC   C1A60615  16.767  32.277   6.450
 8044POPC   D2A60616  16.706  32.241   6.750
 8044POPC   C3A60617  16.770  32.229   7.050
 8044POPC   C4A60618  16.759  32.213   7.350
 8044POPC   C1B60619  16.650  32.015   6.450
 8044POPC   C2B60620  16.702  31.987   6.750
 8044POPC   C3B60621  16.649  31.991   7.050
 8044POPC   C4B60622  16.718  32.020   7.350
 8045POPC   NC360623  23.681  28.326   5.550
 8045POPC   PO460624  23.752  28.403   5.850
 8045POPC   GL160625  23.723  28.416   6.150
 8045POPC   GL260626  23.813  28.462   6.150
 8045POPC   C1A60627  23.728  28.365   6.450
 8045POPC   D2A60628  23.712  28.388   6.750
 8045POPC   C3A60629  23.750  28.327   7.050
 8045POPC   C4A60630  23.728  28.366   7.350
 8045POPC   C1B60631  23.872  28.574   6.450
 8045POPC   C2B60632  23.879  28.597   6.750
 8045POPC   C3B60633  23.849  28.549   7.050
 8045POPC   C4B60634  23.836  28.580   7.350
 8046POPC   NC360635  30.678   5.123   5.550
 8046POPC   PO460636  30.665   5.081   5.850
 8046POPC   GL160637  30.661   5.073   6.150
 8046POPC   GL260638  30.691   5.174   6.150
 8046POPC   C1A60639  30.696   5.078   6.450
 8046POPC   D2A60640  30.696   5.054   6.750
 8046POPC   C3A60641  30.723   5.129   7.050
 8046POPC   C4A60642  30.679   5.045   7.350
 8046POPC   C1B60643  30.626   5.373   6.450
 8046POPC   C2B60644  30.696   5.331   6.750
 8046POPC   C3B60645  30.642   5.339   7.050
 8046POPC   C4B60646  30.694   5.374   7.350
 8047POPC   NC360647  10.516  44.644   5.550
 8047POPC   PO460648  10.553  44.630   5.850
 8047POPC   GL160649  10.483  44.669   6.150
 8047POPC   GL260650  10.615  44.796   6.150
 8047POPC   C1A60651  10.503  44.657   6.450
 8047POPC   D2A60652  10.549  44.636   6.750
 8047POPC   C3A60653  10.505  44.678   7.050
 8047POPC   C4A60654  10.480  44.656   7.350
 8047POPC   C1B60655  10.667  44.851   6.450
 8047POPC   C2B60656  10.631  44.856   6.750
 8047POPC   C3B60657  10.718  44.842   7.050
 8047POPC   C4B60658  10.658  44.845   7.350
 8048POPC   NC360659  10.574  39.987   5.550
 8048POPC   PO460660  10.534  40.002   5.850
 8048POPC   GL160661  10.492  40.049   6.150
 8048POPC   GL260662  10.596  39.909   6.150
 8048POPC   C1A60663  10.496  39.960   6.450
 8048POPC   D2A60664  10.566  40.043   6.750
 8048POPC   C3A60665  10.508  39.998   7.050
 8048POPC   C4A60666  10.483  40.007   7.350
 8048POPC   C1B60667  10.663  39.784   6.450
 8048POPC   C2B60668  10.667  39.784   6.750
 8048POPC   C3B60669  10.738  39.852   7.050
 8048POPC   C4B60670  10.681  39.790   7.350
 8049POPC   NC360671  12.805   8.929   5.550
 8049POPC   PO460672  12.870   8.955   5.850
 8049POPC   GL160673  12.813   8.953   6.150
 8049POPC   GL260674  12.920   9.067   6.150
 8049POPC   C1A60675  12.845   9.007   6.450
 8049POPC   D2A60676  12.881   8.971   6.750
 8049POPC   C3A60677  12.889   8.985   7.050
 8049POPC   C4A60678  12.840   9.005   7.350
 8049POPC   C1B60679  12.948   9.170   6.450
 8049POPC   C2B60680  12.983   9.186   6.750
 8049POPC   C3B60681  13.009   9.235   7.050
 8049POPC   C4B60682  12.990   9.239   7.350
 8050POPC   NC360683  19.873  40.762   5.550
 8050POPC   PO460684  19.855  40.746   5.850
 8050POPC   GL160685  19.823  40.815   6.150
 8050POPC   GL260686  19.791  40.887   6.150
 8050POPC   C1A60687  19.810  40.802   6.450
 8050POPC   D2A60688  19.855  40.807   6.750
 8050POPC   C3A60689  19.800  40.738   7.050
 8050POPC   C4A60690  19.839  40.756   7.350
 8050POPC   C1B60691  19.704  41.020   6.450
 8050POPC   C2B60692  19.712  41.019   6.750
 8050POPC   C3B60693  19.751  41.008   7.050
 8050POPC   C4B60694  19.704  40.973   7.350
 8051POPC   NC360695   1.953  19.801   5.550
 8051POPC   PO460696   2.000  19.863   5.850
 8051POPC   GL160697   2.032  19.865   6.150
 8051POPC   GL260698   2.060  19.981   6.150
 8051POPC   C1A60699   2.024  19.792   6.450
 8051POPC   D2A60700   2.026  19.866   6.750
 8051POPC   C3A60701   1.988  19.815   7.050
 8051POPC   C4A60702   1.979  19.806   7.350
 8051POPC   C1B60703   2.067  20.074   6.450
 8051POPC   C2B60704   2.094  20.110   6.750
 8051POPC   C3B60705   2.034  20.044   7.050
 8051POPC   C4B60706   2.114  20.095   7.350
 8052POPC   NC360707  25.216  32.199   5.550
 8052POPC   PO460708  25.268  32.272   5.850
 8052POPC   GL160709  25.264  32.218   6.150
 8052POPC   GL260710  25.248  32.150   6.150
 8052POPC   C1A60711  25.242  32.199   6.450
 8052POPC   D2A60712  25.286  32.220   6.750
 8052POPC   C3A60713  25.231  32.215   7.050
 8052POPC   C4A60714  25.280  32.295   7.350
 8052POPC   C1B60715  25.268  32.005   6.450
 8052POPC   C2B60716  25.268  31.984   6.750
 8052POPC   C3B60717  25.241  31.993   7.050
 8052POPC   C4B60718  25.248  31.966   7.350
 8053POPC   NC360719   5.887   1.202   5.550
 8053POPC   PO460720   5.904   1.239   5.850
 8053POPC   GL160721   5.896   1.169   6.150
 8053POPC   GL260722   5.893   1.337   6.150
 8053POPC   C1A60723   5.835   1.198   6.450
 8053POPC   D2A60724   5.833   1.172   6.750
 8053POPC   C3A60725   5.847   1.221   7.050
 8053POPC   C4A60726   5.846   1.191   7.350
 8053POPC   C1B60727   5.828   1.486   6.450
 8053POPC   C2B60728   5.880   1.437   6.750
 8053POPC   C3B60729   5.807   1.510   7.050
 8053POPC   C4B60730   5.889   1.415   7.350
 8054POPC   NC360731   3.530  44.665   5.550
 8054POPC   PO460732   3.516  44.712   5.850
 8054POPC   GL160733   3.520  44.659   6.150
 8054POPC   GL260734   3.621  44.636   6.150
 8054POPC   C1A60735   3.501  44.690   6.450
 8054POPC   D2A60736   3.568  44.684   6.750
 8054POPC   C3A60737   3.522  44.637   7.050
 8054POPC   C4A60738   3.527  44.643   7.350
 8054POPC   C1B60739   3.762  44.632   6.450
 8054POPC   C2B60740   3.839  44.664   6.750
 8054POPC   C3B60741   3.765  44.654   7.050
 8054POPC   C4B60742   3.836  44.614   7.350
 8055POPC   NC360743  20.581   3.530   5.550
 8055POPC   PO460744  20.626   3.501   5.850
 8055POPC   GL160745  20.573   3.582   6.150
 8055POPC   GL260746  20.478   3.471   6.150
 8055POPC   C1A60747  20.658   3.563   6.450
 8055POPC   D2A60748  20.589   3.527   6.750
 8055POPC   C3A60749  20.599   3.541   7.050
 8055POPC   C4A60750  20.575   3.590   7.350
 8055POPC   C1B60751  20.436   3.418   6.450
 8055POPC   C2B60752  20.404   3.426   6.750
 8055POPC   C3B60753  20.346   3.407   7.050
 8055POPC   C4B60754  20.347   3.392   7.350
 8056POPC   NC360755  29.959  19.106   5.550
 8056POPC   PO460756  29.941  19.019   5.850
 8056POPC   GL160757  29.955  19.055   6.150
 8056POPC   GL260758  29.884  19.115   6.150
 8056POPC   C1A60759  29.950  19.086   6.450
 8056POPC   D2A60760  29.916  19.017   6.750
 8056POPC   C3A60761  29.964  19.085   7.050
 8056POPC   C4A60762  29.888  19.099   7.350
 8056POPC   C1B60763  29.751  19.222   6.450
 8056POPC   C2B60764  29.746  19.282   6.750
 8056POPC   C3B60765  29.804  19.217   7.050
 8056POPC   C4B60766  29.802  19.305   7.350
 8057POPC   NC360767  32.257   6.621   5.550
 8057POPC   PO460768  32.234   6.626   5.850
 8057POPC   GL160769  32.272   6.666   6.150
 8057POPC   GL260770  32.119   6.677   6.150
 8057POPC   C1A60771  32.212   6.628   6.450
 8057POPC   D2A60772  32.245   6.647   6.750
 8057POPC   C3A60773  32.230   6.685   7.050
 8057POPC   C4A60774  32.284   6.681   7.350
 8057POPC   C1B60775  32.041   6.738   6.450
 8057POPC   C2B60776  32.051   6.743   6.750
 8057POPC   C3B60777  31.990   6.715   7.050
 8057POPC   C4B60778  32.016   6.779   7.350
 8058POPC   NC360779  42.362  21.352   5.550
 8058POPC   PO460780  42.316  21.410   5.850
 8058POPC   GL160781  42.356  21.337   6.150
 8058POPC   GL260782  42.357  21.304   6.150
 8058POPC   C1A60783  42.329  21.396   6.450
 8058POPC   D2A60784  42.355  21.370   6.750
 8058POPC   C3A60785  42.307  21.371   7.050
 8058POPC   C4A60786  42.300  21.410   7.350
 8058POPC   C1B60787  42.426  21.127   6.450
 8058POPC   C2B60788  42.444  21.181   6.750
 8058POPC   C3B60789  42.465  21.120   7.050
 8058POPC   C4B60790  42.455  21.192   7.350
 8059POPC   NC360791   3.522  20.637   5.550
 8059POPC   PO460792   3.567  20.618   5.850
 8059POPC   GL160793   3.586  20.603   6.150
 8059POPC   GL260794   3.473  20.735   6.150
 8059POPC   C1A60795   3.505  20.625   6.450
 8059POPC   D2A60796   3.529  20.623   6.750
 8059POPC   C3A60797   3.510  20.635   7.050
 8059POPC   C4A60798   3.507  20.598   7.350
 8059POPC   C1B60799   3.497  20.807   6.450
 8059POPC   C2B60800   3.446  20.815   6.750
 8059POPC   C3B60801   3.507  20.876   7.050
 8059POPC   C4B60802   3.490  20.816   7.350
 8060POPC   NC360803  22.141   8.231   5.550
 8060POPC   PO460804  22.119   8.230   5.850
 8060POPC   GL160805  22.122   8.220   6.150
 8060POPC   GL260806  22.117   8.068   6.150
 8060POPC   C1A60807  22.127   8.148   6.450
 8060POPC   D2A60808  22.135   8.167   6.750
 8060POPC   C3A60809  22.153   8.217   7.050
 8060POPC   C4A60810  22.124   8.151   7.350
 8060POPC   C1B60811  22.128   7.899   6.450
 8060POPC   C2B60812  22.119   7.976   6.750
 8060POPC   C3B60813  22.135   7.990   7.050
 8060POPC   C4B60814  22.114   7.988   7.350
 8061POPC   NC360815   7.414  30.712   5.550
 8061POPC   PO460816   7.456  30.689   5.850
 8061POPC   GL160817   7.428  30.739   6.150
 8061POPC   GL260818   7.398  30.523   6.150
 8061POPC   C1A60819   7.421  30.648   6.450
 8061POPC   D2A60820   7.458  30.648   6.750
 8061POPC   C3A60821   7.452  30.737   7.050
 8061POPC   C4A60822   7.397  30.718   7.350
 8061POPC   C1B60823   7.436  30.440   6.450
 8061POPC   C2B60824   7.464  30.493   6.750
 8061POPC   C3B60825   7.410  30.439   7.050
 8061POPC   C4B60826   7.384  30.477   7.350
 8062POPC   NC360827   9.777  26.810   5.550
 8062POPC   PO460828   9.705  26.836   5.850
 8062POPC   GL160829   9.742  26.783   6.150
 8062POPC   GL260830   9.636  26.724   6.150
 8062POPC   C1A60831   9.732  26.855   6.450
 8062POPC   D2A60832   9.728  26.802   6.750
 8062POPC   C3A60833   9.780  26.839   7.050
 8062POPC   C4A60834   9.713  26.849   7.350
 8062POPC   C1B60835   9.604  26.645   6.450
 8062POPC   C2B60836   9.619  26.648   6.750
 8062POPC   C3B60837   9.597  26.609   7.050
 8062POPC   C4B60838   9.608  26.595   7.350
 8063POPC   NC360839  15.978  40.830   5.550
 8063POPC   PO460840  15.948  40.810   5.850
 8063POPC   GL160841  15.958  40.795   6.150
 8063POPC   GL260842  15.893  40.772   6.150
 8063POPC   C1A60843  15.961  40.768   6.450
 8063POPC   D2A60844  15.918  40.766   6.750
 8063POPC   C3A60845  15.997  40.817   7.050
 8063POPC   C4A60846  16.004  40.781   7.350
 8063POPC   C1B60847  15.736  40.627   6.450
 8063POPC   C2B60848  15.730  40.641   6.750
 8063POPC   C3B60849  15.751  40.693   7.050
 8063POPC   C4B60850  15.744  40.668   7.350
 8064POPC   NC360851  27.554  26.025   5.550
 8064POPC   PO460852  27.545  26.040   5.850
 8064POPC   GL160853  27.552  26.079   6.150
 8064POPC   GL260854  27.534  25.992   6.150
 8064POPC   C1A60855  27.629  26.072   6.450
 8064POPC   D2A60856  27.642  26.006   6.750
 8064POPC   C3A60857  27.567  26.080   7.050
 8064POPC   C4A60858  27.626  26.042   7.350
 8064POPC   C1B60859  27.411  25.897   6.450
 8064POPC   C2B60860  27.410  25.897   6.750
 8064POPC   C3B60861  27.449  25.899   7.050
 8064POPC   C4B60862  27.380  25.833   7.350
 8065POPC   NC360863  20.579  16.715   5.550
 8065POPC   PO460864  20.573  16.746   5.850
 8065POPC   GL160865  20.588  16.738   6.150
 8065POPC   GL260866  20.487  16.815   6.150
 8065POPC   C1A60867  20.589  16.776   6.450
 8065POPC   D2A60868  20.619  16.735   6.750
 8065POPC   C3A60869  20.575  16.685   7.050
 8065POPC   C4A60870  20.568  16.685   7.350
 8065POPC   C1B60871  20.420  16.854   6.450
 8065POPC   C2B60872  20.390  16.882   6.750
 8065POPC   C3B60873  20.438  16.910   7.050
 8065POPC   C4B60874  20.458  16.906   7.350
 8066POPC   NC360875  36.120  40.790   5.550
 8066POPC   PO460876  36.134  40.759   5.850
 8066POPC   GL160877  36.123  40.779   6.150
 8066POPC   GL260878  35.957  40.729   6.150
 8066POPC   C1A60879  36.122  40.799   6.450
 8066POPC   D2A60880  36.103  40.776   6.750
 8066POPC   C3A60881  36.088  40.818   7.050
 8066POPC   C4A60882  36.172  40.764   7.350
 8066POPC   C1B60883  35.874  40.734   6.450
 8066POPC   C2B60884  35.886  40.738   6.750
 8066POPC   C3B60885  35.882  40.757   7.050
 8066POPC   C4B60886  35.895  40.708   7.350
 8067POPC   NC360887  36.142  16.753   5.550
 8067POPC   PO460888  36.129  16.779   5.850
 8067POPC   GL160889  36.084  16.704   6.150
 8067POPC   GL260890  36.041  16.774   6.150
 8067POPC   C1A60891  36.160  16.745   6.450
 8067POPC   D2A60892  36.089  16.764   6.750
 8067POPC   C3A60893  36.102  16.763   7.050
 8067POPC   C4A60894  36.103  16.713   7.350
 8067POPC   C1B60895  35.943  16.831   6.450
 8067POPC   C2B60896  35.923  16.914   6.750
 8067POPC   C3B60897  35.957  16.833   7.050
 8067POPC   C4B60898  35.889  16.823   7.350
 8068POPC   NC360899   1.233  15.930   5.550
 8068POPC   PO460900   1.199  16.001   5.850
 8068POPC   GL160901   1.245  15.959   6.150
 8068POPC   GL260902   1.157  15.797   6.150
 8068POPC   C1A60903   1.248  15.937   6.450
 8068POPC   D2A60904   1.256  15.959   6.750
 8068POPC   C3A60905   1.224  15.983   7.050
 8068POPC   C4A60906   1.167  15.970   7.350
 8068POPC   C1B60907   1.227  15.735   6.450
 8068POPC   C2B60908   1.159  15.690   6.750
 8068POPC   C3B60909   1.225  15.736   7.050
 8068POPC   C4B60910   1.185  15.698   7.350
 8069POPC   NC360911  22.935  37.674   5.550
 8069POPC   PO460912  22.892  37.677   5.850
 8069POPC   GL160913  22.980  37.721   6.150
 8069POPC   GL260914  23.093  37.586   6.150
 8069POPC   C1A60915  22.929  37.728   6.450
 8069POPC   D2A60916  22.959  37.692   6.750
 8069POPC   C3A60917  22.891  37.661   7.050
 8069POPC   C4A60918  22.985  37.676   7.350
 8069POPC   C1B60919  23.111  37.539   6.450
 8069POPC   C2B60920  23.130  37.527   6.750
 8069POPC   C3B60921  23.148  37.610   7.050
 8069POPC   C4B60922  23.152  37.547   7.350
 8070POPC   NC360923   7.388  36.109   5.550
 8070POPC   PO460924   7.428  36.079   5.850
 8070POPC   GL160925   7.406  36.136   6.150
 8070POPC   GL260926   7.369  36.091   6.150
 8070POPC   C1A60927   7.421  36.123   6.450
 8070POPC   D2A60928   7.404  36.110   6.750
 8070POPC   C3A60929   7.373  36.098   7.050
 8070POPC   C4A60930   7.430  36.092   7.350
 8070POPC   C1B60931   7.272  35.934   6.450
 8070POPC   C2B60932   7.262  35.932   6.750
 8070POPC   C3B60933   7.234  35.984   7.050
 8070POPC   C4B60934   7.180  35.958   7.350
 8071POPC   NC360935   0.454  23.684   5.550
 8071POPC   PO460936   0.484  23.733   5.850
 8071POPC   GL160937   0.445  23.666   6.150
 8071POPC   GL260938   0.410  23.856   6.150
 8071POPC   C1A60939   0.391  23.687   6.450
 8071POPC   D2A60940   0.449  23.683   6.750
 8071POPC   C3A60941   0.444  23.721   7.050
 8071POPC   C4A60942   0.467  23.757   7.350
 8071POPC   C1B60943   0.474  24.003   6.450
 8071POPC   C2B60944   0.428  23.923   6.750
 8071POPC   C3B60945   0.499  23.962   7.050
 8071POPC   C4B60946   0.521  23.922   7.350
 8072POPC   NC360947  17.464  40.814   5.550
 8072POPC   PO460948  17.487  40.742   5.850
 8072POPC   GL160949  17.521  40.801   6.150
 8072POPC   GL260950  17.536  40.696   6.150
 8072POPC   C1A60951  17.534  40.801   6.450
 8072POPC   D2A60952  17.547  40.758   6.750
 8072POPC   C3A60953  17.521  40.774   7.050
 8072POPC   C4A60954  17.543  40.784   7.350
 8072POPC   C1B60955  17.525  40.560   6.450
 8072POPC   C2B60956  17.477  40.573   6.750
 8072POPC   C3B60957  17.505  40.545   7.050
 8072POPC   C4B60958  17.461  40.532   7.350
 8073POPC   NC360959  33.809  12.029   5.550
 8073POPC   PO460960  33.797  12.082   5.850
 8073POPC   GL160961  33.751  12.055   6.150
 8073POPC   GL260962  33.698  12.184   6.150
 8073POPC   C1A60963  33.784  12.092   6.450
 8073POPC   D2A60964  33.836  12.066   6.750
 8073POPC   C3A60965  33.769  12.031   7.050
 8073POPC   C4A60966  33.750  12.121   7.350
 8073POPC   C1B60967  33.597  12.186   6.450
 8073POPC   C2B60968  33.633  12.217   6.750
 8073POPC   C3B60969  33.569  12.199   7.050
 8073POPC   C4B60970  33.619  12.275   7.350
 8074POPC   NC360971  26.862  35.376   5.550
 8074POPC   PO460972  26.816  35.343   5.850
 8074POPC   GL160973  26.820  35.361   6.150
 8074POPC   GL260974  26.872  35.217   6.150
 8074POPC   C1A60975  26.824  35.401   6.450
 8074POPC   D2A60976  26.773  35.378   6.750
 8074POPC   C3A60977  26.807  35.311   7.050
 8074POPC   C4A60978  26.828  35.391   7.350
 8074POPC   C1B60979  26.842  35.141   6.450
 8074POPC   C2B60980  26.828  35.135   6.750
 8074POPC   C3B60981  26.795  35.103   7.050
 8074POPC   C4B60982  26.835  35.109   7.350
 8075POPC   NC360983   8.988  43.108   5.550
 8075POPC   PO460984   8.975  43.145   5.850
 8075POPC   GL160985   9.013  43.127   6.150
 8075POPC   GL260986   8.930  43.243   6.150
 8075POPC   C1A60987   8.966  43.076   6.450
 8075POPC   D2A60988   8.969  43.154   6.750
 8075POPC   C3A60989   8.967  43.105   7.050
 8075POPC   C4A60990   9.004  43.134   7.350
 8075POPC   C1B60991   8.917  43.397   6.450
 8075POPC   C2B60992   8.885  43.377   6.750
 8075POPC   C3B60993   8.882  43.371   7.050
 8075POPC   C4B60994   8.887  43.337   7.350
 8076POPC   NC360995  28.399  41.601   5.550
 8076POPC   PO460996  28.386  41.591   5.850
 8076POPC   GL160997  28.402  41.567   6.150
 8076POPC   GL260998  28.444  41.600   6.150
 8076POPC   C1A60999  28.398  41.553   6.450
 8076POPC   D2A61000  28.369  41.543   6.750
 8076POPC   C3A61001  28.394  41.581   7.050
 8076POPC   C4A61002  28.373  41.565   7.350
 8076POPC   C1B61003  28.633  41.679   6.450
 8076POPC   C2B61004  28.634  41.690   6.750
 8076POPC   C3B61005  28.608  41.686   7.050
 8076POPC   C4B61006  28.606  41.638   7.350
 8077POPC   NC361007   8.202  12.106   5.550
 8077POPC   PO461008   8.227  12.077   5.850
 8077POPC   GL161009   8.213  12.036   6.150
 8077POPC   GL261010   8.253  12.215   6.150
 8077POPC   C1A61011   8.193  12.107   6.450
 8077POPC   D2A61012   8.243  12.064   6.750
 8077POPC   C3A61013   8.221  12.090   7.050
 8077POPC   C4A61014   8.170  12.055   7.350
 8077POPC   C1B61015   8.217  12.356   6.450
 8077POPC   C2B61016   8.266  12.299   6.750
 8077POPC   C3B61017   8.245  12.318   7.050
 8077POPC   C4B61018   8.254  12.352   7.350
 8078POPC   NC361019   2.759  26.844   5.550
 8078POPC   PO461020   2.797  26.811   5.850
 8078POPC   GL161021   2.810  26.844   6.150
 8078POPC   GL261022   2.755  26.970   6.150
 8078POPC   C1A61023   2.796  26.857   6.450
 8078POPC   D2A61024   2.783  26.846   6.750
 8078POPC   C3A61025   2.795  26.778   7.050
 8078POPC   C4A61026   2.800  26.827   7.350
 8078POPC   C1B61027   2.812  27.099   6.450
 8078POPC   C2B61028   2.806  27.093   6.750
 8078POPC   C3B61029   2.778  27.025   7.050
 8078POPC   C4B61030   2.817  27.068   7.350
 8079POPC   NC361031  21.405  32.275   5.550
 8079POPC   PO461032  21.434  32.203   5.850
 8079POPC   GL161033  21.376  32.267   6.150
 8079POPC   GL261034  21.257  32.285   6.150
 8079POPC   C1A61035  21.427  32.285   6.450
 8079POPC   D2A61036  21.374  32.272   6.750
 8079POPC   C3A61037  21.358  32.267   7.050
 8079POPC   C4A61038  21.403  32.234   7.350
 8079POPC   C1B61039  21.097  32.223   6.450
 8079POPC   C2B61040  21.096  32.243   6.750
 8079POPC   C3B61041  21.163  32.239   7.050
 8079POPC   C4B61042  21.098  32.264   7.350
 8080POPC   NC361043  31.453   4.352   5.550
 8080POPC   PO461044  31.455   4.330   5.850
 8080POPC   GL161045  31.499   4.326   6.150
 8080POPC   GL261046  31.403   4.371   6.150
 8080POPC   C1A61047  31.475   4.356   6.450
 8080POPC   D2A61048  31.500   4.312   6.750
 8080POPC   C3A61049  31.425   4.294   7.050
 8080POPC   C4A61050  31.502   4.303   7.350
 8080POPC   C1B61051  31.215   4.397   6.450
 8080POPC   C2B61052  31.251   4.458   6.750
 8080POPC   C3B61053  31.196   4.443   7.050
 8080POPC   C4B61054  31.276   4.371   7.350
 8081POPC   NC361055  14.419  30.662   5.550
 8081POPC   PO461056  14.393  30.704   5.850
 8081POPC   GL161057  14.368  30.651   6.150
 8081POPC   GL261058  14.304  30.740   6.150
 8081POPC   C1A61059  14.368  30.677   6.450
 8081POPC   D2A61060  14.378  30.677   6.750
 8081POPC   C3A61061  14.419  30.661   7.050
 8081POPC   C4A61062  14.398  30.685   7.350
 8081POPC   C1B61063  14.184  30.813   6.450
 8081POPC   C2B61064  14.219  30.766   6.750
 8081POPC   C3B61065  14.155  30.783   7.050
 8081POPC   C4B61066  14.152  30.805   7.350
 8082POPC   NC361067  40.008  29.109   5.550
 8082POPC   PO461068  39.981  29.192   5.850
 8082POPC   GL161069  40.039  29.168   6.150
 8082POPC   GL261070  40.112  29.163   6.150
 8082POPC   C1A61071  40.032  29.121   6.450
 8082POPC   D2A61072  40.014  29.165   6.750
 8082POPC   C3A61073  39.971  29.190   7.050
 8082POPC   C4A61074  39.973  29.135   7.350
 8082POPC   C1B61075  40.254  29.122   6.450
 8082POPC   C2B61076  40.295  29.122   6.750
 8082POPC   C3B61077  40.269  29.122   7.050
 8082POPC   C4B61078  40.276  29.135   7.350
 8083POPC   NC361079  34.580  43.098   5.550
 8083POPC   PO461080  34.589  43.143   5.850
 8083POPC   GL161081  34.614  43.110   6.150
 8083POPC   GL261082  34.572  43.234   6.150
 8083POPC   C1A61083  34.539  43.158   6.450
 8083POPC   D2A61084  34.583  43.072   6.750
 8083POPC   C3A61085  34.552  43.154   7.050
 8083POPC   C4A61086  34.598  43.123   7.350
 8083POPC   C1B61087  34.538  43.301   6.450
 8083POPC   C2B61088  34.478  43.347   6.750
 8083POPC   C3B61089  34.484  43.357   7.050
 8083POPC   C4B61090  34.466  43.328   7.350
 8084POPC   NC361091  23.669  33.073   5.550
 8084POPC   PO461092  23.694  32.980   5.850
 8084POPC   GL161093  23.762  32.988   6.150
 8084POPC   GL261094  23.809  32.920   6.150
 8084POPC   C1A61095  23.705  33.038   6.450
 8084POPC   D2A61096  23.710  32.976   6.750
 8084POPC   C3A61097  23.730  33.059   7.050
 8084POPC   C4A61098  23.704  33.026   7.350
 8084POPC   C1B61099  23.880  32.781   6.450
 8084POPC   C2B61100  23.873  32.803   6.750
 8084POPC   C3B61101  23.806  32.766   7.050
 8084POPC   C4B61102  23.802  32.842   7.350
 8085POPC   NC361103  29.879   3.518   5.550
 8085POPC   PO461104  29.881   3.525   5.850
 8085POPC   GL161105  29.959   3.576   6.150
 8085POPC   GL261106  29.871   3.619   6.150
 8085POPC   C1A61107  29.905   3.555   6.450
 8085POPC   D2A61108  29.959   3.558   6.750
 8085POPC   C3A61109  29.946   3.584   7.050
 8085POPC   C4A61110  29.903   3.575   7.350
 8085POPC   C1B61111  29.842   3.777   6.450
 8085POPC   C2B61112  29.814   3.775   6.750
 8085POPC   C3B61113  29.779   3.725   7.050
 8085POPC   C4B61114  29.848   3.774   7.350
 8086POPC   NC361115   8.147  11.333   5.550
 8086POPC   PO461116   8.244  11.322   5.850
 8086POPC   GL161117   8.166  11.269   6.150
 8086POPC   GL261118   8.252  11.173   6.150
 8086POPC   C1A61119   8.237  11.253   6.450
 8086POPC   D2A61120   8.240  11.336   6.750
 8086POPC   C3A61121   8.246  11.257   7.050
 8086POPC   C4A61122   8.158  11.320   7.350
 8086POPC   C1B61123   8.407  11.125   6.450
 8086POPC   C2B61124   8.371  11.093   6.750
 8086POPC   C3B61125   8.388  11.140   7.050
 8086POPC   C4B61126   8.327  11.079   7.350
 8087POPC   NC361127  44.628  39.999   5.550
 8087POPC   PO461128  44.619  40.023   5.850
 8087POPC   GL161129  44.621  40.016   6.150
 8087POPC   GL261130  44.802  39.942   6.150
 8087POPC   C1A61131  44.654  40.027   6.450
 8087POPC   D2A61132  44.628  39.989   6.750
 8087POPC   C3A61133  44.643  40.045   7.050
 8087POPC   C4A61134  44.660  39.983   7.350
 8087POPC   C1B61135  44.863  39.829   6.450
 8087POPC   C2B61136  44.870  39.796   6.750
 8087POPC   C3B61137  44.868  39.809   7.050
 8087POPC   C4B61138  44.872  39.809   7.350
 8088POPC   NC361139  23.751   3.501   5.550
 8088POPC   PO461140  23.670   3.576   5.850
 8088POPC   GL161141  23.708   3.551   6.150
 8088POPC   GL261142  23.779   3.598   6.150
 8088POPC   C1A61143  23.729   3.538   6.450
 8088POPC   D2A61144  23.665   3.505   6.750
 8088POPC   C3A61145  23.723   3.529   7.050
 8088POPC   C4A61146  23.761   3.583   7.350
 8088POPC   C1B61147  23.896   3.751   6.450
 8088POPC   C2B61148  23.862   3.720   6.750
 8088POPC   C3B61149  23.894   3.664   7.050
 8088POPC   C4B61150  23.905   3.666   7.350
 8089POPC   NC361151  28.393  28.331   5.550
 8089POPC   PO461152  28.407  28.332   5.850
 8089POPC   GL161153  28.374  28.366   6.150
 8089POPC   GL261154  28.448  28.275   6.150
 8089POPC   C1A61155  28.384  28.340   6.450
 8089POPC   D2A61156  28.373  28.358   6.750
 8089POPC   C3A61157  28.355  28.388   7.050
 8089POPC   C4A61158  28.354  28.391   7.350
 8089POPC   C1B61159  28.504  28.173   6.450
 8089POPC   C2B61160  28.547  28.176   6.750
 8089POPC   C3B61161  28.523  28.223   7.050
 8089POPC   C4B61162  28.575  28.142   7.350
 8090POPC   NC361163  20.630  26.803   5.550
 8090POPC   PO461164  20.600  26.867   5.850
 8090POPC   GL161165  20.660  26.771   6.150
 8090POPC   GL261166  20.652  26.923   6.150
 8090POPC   C1A61167  20.658  26.817   6.450
 8090POPC   D2A61168  20.640  26.818   6.750
 8090POPC   C3A61169  20.602  26.847   7.050
 8090POPC   C4A61170  20.614  26.850   7.350
 8090POPC   C1B61171  20.801  27.037   6.450
 8090POPC   C2B61172  20.765  27.017   6.750
 8090POPC   C3B61173  20.781  27.039   7.050
 8090POPC   C4B61174  20.784  27.045   7.350
 8091POPC   NC361175   6.669  29.966   5.550
 8091POPC   PO461176   6.681  29.957   5.850
 8091POPC   GL161177   6.690  29.955   6.150
 8091POPC   GL261178   6.736  30.014   6.150
 8091POPC   C1A61179   6.648  29.875   6.450
 8091POPC   D2A61180   6.668  29.927   6.750
 8091POPC   C3A61181   6.605  29.933   7.050
 8091POPC   C4A61182   6.623  29.882   7.350
 8091POPC   C1B61183   6.814  30.024   6.450
 8091POPC   C2B61184   6.882  30.101   6.750
 8091POPC   C3B61185   6.824  30.096   7.050
 8091POPC   C4B61186   6.807  30.086   7.350
 8092POPC   NC361187  35.314  36.127   5.550
 8092POPC   PO461188  35.350  36.117   5.850
 8092POPC   GL161189  35.377  36.104   6.150
 8092POPC   GL261190  35.509  36.061   6.150
 8092POPC   C1A61191  35.360  36.086   6.450
 8092POPC   D2A61192  35.310  36.169   6.750
 8092POPC   C3A61193  35.340  36.129   7.050
 8092POPC   C4A61194  35.313  36.089   7.350
 8092POPC   C1B61195  35.613  35.988   6.450
 8092POPC   C2B61196  35.618  36.067   6.750
 8092POPC   C3B61197  35.614  36.021   7.050
 8092POPC   C4B61198  35.567  35.998   7.350
 8093POPC   NC361199   7.463  22.907   5.550
 8093POPC   PO461200   7.468  22.933   5.850
 8093POPC   GL161201   7.453  22.902   6.150
 8093POPC   GL261202   7.474  23.010   6.150
 8093POPC   C1A61203   7.453  22.944   6.450
 8093POPC   D2A61204   7.402  22.928   6.750
 8093POPC   C3A61205   7.396  22.929   7.050
 8093POPC   C4A61206   7.446  22.938   7.350
 8093POPC   C1B61207   7.576  23.062   6.450
 8093POPC   C2B61208   7.644  23.069   6.750
 8093POPC   C3B61209   7.574  23.129   7.050
 8093POPC   C4B61210   7.650  23.095   7.350
 8094POPC   NC361211  30.683  28.363   5.550
 8094POPC   PO461212  30.729  28.343   5.850
 8094POPC   GL161213  30.670  28.408   6.150
 8094POPC   GL261214  30.748  28.256   6.150
 8094POPC   C1A61215  30.747  28.416   6.450
 8094POPC   D2A61216  30.697  28.407   6.750
 8094POPC   C3A61217  30.675  28.345   7.050
 8094POPC   C4A61218  30.729  28.405   7.350
 8094POPC   C1B61219  30.760  28.102   6.450
 8094POPC   C2B61220  30.765  28.094   6.750
 8094POPC   C3B61221  30.829  28.140   7.050
 8094POPC   C4B61222  30.797  28.095   7.350
 8095POPC   NC361223  36.921  22.203   5.550
 8095POPC   PO461224  36.935  22.169   5.850
 8095POPC   GL161225  36.935  22.179   6.150
 8095POPC   GL261226  36.959  22.003   6.150
 8095POPC   C1A61227  36.905  22.121   6.450
 8095POPC   D2A61228  36.869  22.190   6.750
 8095POPC   C3A61229  36.927  22.143   7.050
 8095POPC   C4A61230  36.924  22.156   7.350
 8095POPC   C1B61231  36.999  21.920   6.450
 8095POPC   C2B61232  37.022  21.907   6.750
 8095POPC   C3B61233  37.026  21.911   7.050
 8095POPC   C4B61234  36.977  21.925   7.350
 8096POPC   NC361235  35.317  39.199   5.550
 8096POPC   PO461236  35.362  39.239   5.850
 8096POPC   GL161237  35.397  39.210   6.150
 8096POPC   GL261238  35.202  39.296   6.150
 8096POPC   C1A61239  35.340  39.246   6.450
 8096POPC   D2A61240  35.380  39.201   6.750
 8096POPC   C3A61241  35.325  39.216   7.050
 8096POPC   C4A61242  35.402  39.205   7.350
 8096POPC   C1B61243  35.132  39.349   6.450
 8096POPC   C2B61244  35.081  39.309   6.750
 8096POPC   C3B61245  35.119  39.321   7.050
 8096POPC   C4B61246  35.127  39.347   7.350
 8097POPC   NC361247   1.218  33.842   5.550
 8097POPC   PO461248   1.196  33.820   5.850
 8097POPC   GL161249   1.240  33.792   6.150
 8097POPC   GL261250   1.205  33.642   6.150
 8097POPC   C1A61251   1.245  33.814   6.450
 8097POPC   D2A61252   1.184  33.769   6.750
 8097POPC   C3A61253   1.254  33.831   7.050
 8097POPC   C4A61254   1.249  33.760   7.350
 8097POPC   C1B61255   1.233  33.567   6.450
 8097POPC   C2B61256   1.160  33.575   6.750
 8097POPC   C3B61257   1.177  33.528   7.050
 8097POPC   C4B61258   1.145  33.504   7.350
 8098POPC   NC361259  29.190  27.641   5.550
 8098POPC   PO461260  29.120  27.596   5.850
 8098POPC   GL161261  29.153  27.614   6.150
 8098POPC   GL261262  29.255  27.633   6.150
 8098POPC   C1A61263  29.172  27.582   6.450
 8098POPC   D2A61264  29.125  27.545   6.750
 8098POPC   C3A61265  29.095  27.582   7.050
 8098POPC   C4A61266  29.095  27.639   7.350
 8098POPC   C1B61267  29.428  27.634   6.450
 8098POPC   C2B61268  29.391  27.644   6.750
 8098POPC   C3B61269  29.396  27.582   7.050
 8098POPC   C4B61270  29.376  27.575   7.350
 8099POPC   NC361271  13.653  42.285   5.550
 8099POPC   PO461272  13.637  42.285   5.850
 8099POPC   GL161273  13.602  42.309   6.150
 8099POPC   GL261274  13.651  42.415   6.150
 8099POPC   C1A61275  13.609  42.291   6.450
 8099POPC   D2A61276  13.630  42.299   6.750
 8099POPC   C3A61277  13.579  42.295   7.050
 8099POPC   C4A61278  13.654  42.359   7.350
 8099POPC   C1B61279  13.658  42.558   6.450
 8099POPC   C2B61280  13.657  42.565   6.750
 8099POPC   C3B61281  13.704  42.532   7.050
 8099POPC   C4B61282  13.652  42.531   7.350
 8100POPC   NC361283  27.614  40.736   5.550
 8100POPC   PO461284  27.605  40.754   5.850
 8100POPC   GL161285  27.599  40.771   6.150
 8100POPC   GL261286  27.533  40.931   6.150
 8100POPC   C1A61287  27.592  40.741   6.450
 8100POPC   D2A61288  27.550  40.830   6.750
 8100POPC   C3A61289  27.596  40.814   7.050
 8100POPC   C4A61290  27.547  40.793   7.350
 8100POPC   C1B61291  27.502  41.049   6.450
 8100POPC   C2B61292  27.512  41.047   6.750
 8100POPC   C3B61293  27.537  41.059   7.050
 8100POPC   C4B61294  27.557  41.007   7.350
 8101POPC   NC361295  15.953  23.749   5.550
 8101POPC   PO461296  15.950  23.665   5.850
 8101POPC   GL161297  15.917  23.741   6.150
 8101POPC   GL261298  15.840  23.604   6.150
 8101POPC   C1A61299  15.951  23.692   6.450
 8101POPC   D2A61300  15.939  23.741   6.750
 8101POPC   C3A61301  15.960  23.726   7.050
 8101POPC   C4A61302  15.979  23.709   7.350
 8101POPC   C1B61303  15.769  23.547   6.450
 8101POPC   C2B61304  15.795  23.575   6.750
 8101POPC   C3B61305  15.785  23.570   7.050
 8101POPC   C4B61306  15.830  23.551   7.350
 8102POPC   NC361307  14.433  13.641   5.550
 8102POPC   PO461308  14.390  13.669   5.850
 8102POPC   GL161309  14.439  13.599   6.150
 8102POPC   GL261310  14.509  13.678   6.150
 8102POPC   C1A61311  14.412  13.633   6.450
 8102POPC   D2A61312  14.420  13.642   6.750
 8102POPC   C3A61313  14.441  13.649   7.050
 8102POPC   C4A61314  14.452  13.603   7.350
 8102POPC   C1B61315  14.646  13.646   6.450
 8102POPC   C2B61316  14.672  13.605   6.750
 8102POPC   C3B61317  14.666  13.670   7.050
 8102POPC   C4B61318  14.608  13.669   7.350
 8103POPC   NC361319  34.534  37.680   5.550
 8103POPC   PO461320  34.559  37.690   5.850
 8103POPC   GL161321  34.560  37.689   6.150
 8103POPC   GL261322  34.498  37.646   6.150
 8103POPC   C1A61323  34.590  37.689   6.450
 8103POPC   D2A61324  34.610  37.645   6.750
 8103POPC   C3A61325  34.592  37.657   7.050
 8103POPC   C4A61326  34.584  37.657   7.350
 8103POPC   C1B61327  34.387  37.565   6.450
 8103POPC   C2B61328  34.315  37.546   6.750
 8103POPC   C3B61329  34.351  37.577   7.050
 8103POPC   C4B61330  34.377  37.531   7.350
 8104POPC   NC361331  22.964   3.575   5.550
 8104POPC   PO461332  22.925   3.581   5.850
 8104POPC   GL161333  22.981   3.553   6.150
 8104POPC   GL261334  22.881   3.667   6.150
 8104POPC   C1A61335  22.936   3.576   6.450
 8104POPC   D2A61336  22.943   3.498   6.750
 8104POPC   C3A61337  22.940   3.526   7.050
 8104POPC   C4A61338  22.982   3.578   7.350
 8104POPC   C1B61339  22.811   3.755   6.450
 8104POPC   C2B61340  22.852   3.781   6.750
 8104POPC   C3B61341  22.833   3.719   7.050
 8104POPC   C4B61342  22.820   3.769   7.350
 8105POPC   NC361343  36.151  43.102   5.550
 8105POPC   PO461344  36.166  43.125   5.850
 8105POPC   GL161345  36.136  43.134   6.150
 8105POPC   GL261346  36.265  43.057   6.150
 8105POPC   C1A61347  36.096  43.159   6.450
 8105POPC   D2A61348  36.123  43.097   6.750
 8105POPC   C3A61349  36.092  43.137   7.050
 8105POPC   C4A61350  36.083  43.074   7.350
 8105POPC   C1B61351  36.340  42.925   6.450
 8105POPC   C2B61352  36.379  42.968   6.750
 8105POPC   C3B61353  36.341  42.958   7.050
 8105POPC   C4B61354  36.330  42.985   7.350
 8106POPC   NC361355  38.469  26.784   5.550
 8106POPC   PO461356  38.437  26.772   5.850
 8106POPC   GL161357  38.453  26.811   6.150
 8106POPC   GL261358  38.323  26.754   6.150
 8106POPC   C1A61359  38.471  26.774   6.450
 8106POPC   D2A61360  38.490  26.866   6.750
 8106POPC   C3A61361  38.432  26.804   7.050
 8106POPC   C4A61362  38.470  26.839   7.350
 8106POPC   C1B61363  38.256  26.717   6.450
 8106POPC   C2B61364  38.217  26.762   6.750
 8106POPC   C3B61365  38.191  26.746   7.050
 8106POPC   C4B61366  38.196  26.713   7.350
 8107POPC   NC361367  32.246  15.197   5.550
 8107POPC   PO461368  32.199  15.137   5.850
 8107POPC   GL161369  32.260  15.177   6.150
 8107POPC   GL261370  32.209  15.319   6.150
 8107POPC   C1A61371  32.269  15.200   6.450
 8107POPC   D2A61372  32.285  15.167   6.750
 8107POPC   C3A61373  32.259  15.193   7.050
 8107POPC   C4A61374  32.247  15.225   7.350
 8107POPC   C1B61375  32.135  15.412   6.450
 8107POPC   C2B61376  32.142  15.436   6.750
 8107POPC   C3B61377  32.159  15.458   7.050
 8107POPC   C4B61378  32.222  15.450   7.350
 8108POPC   NC361379   5.118  31.452   5.550
 8108POPC   PO461380   5.131  31.454   5.850
 8108POPC   GL161381   5.116  31.455   6.150
 8108POPC   GL261382   5.198  31.344   6.150
 8108POPC   C1A61383   5.129  31.506   6.450
 8108POPC   D2A61384   5.085  31.435   6.750
 8108POPC   C3A61385   5.098  31.518   7.050
 8108POPC   C4A61386   5.141  31.463   7.350
 8108POPC   C1B61387   5.219  31.211   6.450
 8108POPC   C2B61388   5.190  31.212   6.750
 8108POPC   C3B61389   5.161  31.261   7.050
 8108POPC   C4B61390   5.205  31.254   7.350
 8109POPC   NC361391  13.663  33.843   5.550
 8109POPC   PO461392  13.589  33.759   5.850
 8109POPC   GL161393  13.624  33.757   6.150
 8109POPC   GL261394  13.698  33.862   6.150
 8109POPC   C1A61395  13.659  33.773   6.450
 8109POPC   D2A61396  13.582  33.753   6.750
 8109POPC   C3A61397  13.585  33.832   7.050
 8109POPC   C4A61398  13.614  33.809   7.350
 8109POPC   C1B61399  13.744  34.041   6.450
 8109POPC   C2B61400  13.777  34.058   6.750
 8109POPC   C3B61401  13.789  34.009   7.050
 8109POPC   C4B61402  13.769  34.064   7.350
 8110POPC   NC361403   3.561  41.558   5.550
 8110POPC   PO461404   3.549  41.578   5.850
 8110POPC   GL161405   3.589  41.515   6.150
 8110POPC   GL261406   3.660  41.621   6.150
 8110POPC   C1A61407   3.548  41.590   6.450
 8110POPC   D2A61408   3.514  41.527   6.750
 8110POPC   C3A61409   3.551  41.552   7.050
 8110POPC   C4A61410   3.547  41.562   7.350
 8110POPC   C1B61411   3.732  41.729   6.450
 8110POPC   C2B61412   3.742  41.776   6.750
 8110POPC   C3B61413   3.721  41.791   7.050
 8110POPC   C4B61414   3.661  41.709   7.350
 8111POPC   NC361415  32.272   7.419   5.550
 8111POPC   PO461416  32.242   7.412   5.850
 8111POPC   GL161417  32.270   7.376   6.150
 8111POPC   GL261418  32.301   7.560   6.150
 8111POPC   C1A61419  32.202   7.433   6.450
 8111POPC   D2A61420  32.210   7.442   6.750
 8111POPC   C3A61421  32.267   7.426   7.050
 8111POPC   C4A61422  32.223   7.389   7.350
 8111POPC   C1B61423  32.336   7.628   6.450
 8111POPC   C2B61424  32.380   7.639   6.750
 8111POPC   C3B61425  32.385   7.659   7.050
 8111POPC   C4B61426  32.299   7.693   7.350
 8112POPC   NC361427  28.371   1.190   5.550
 8112POPC   PO461428  28.335   1.184   5.850
 8112POPC   GL161429  28.394   1.175   6.150
 8112POPC   GL261430  28.433   1.166   6.150
 8112POPC   C1A61431  28.410   1.210   6.450
 8112POPC   D2A61432  28.371   1.190   6.750
 8112POPC   C3A61433  28.349   1.179   7.050
 8112POPC   C4A61434  28.386   1.226   7.350
 8112POPC   C1B61435  28.592   0.994   6.450
 8112POPC   C2B61436  28.511   1.002   6.750
 8112POPC   C3B61437  28.538   1.079   7.050
 8112POPC   C4B61438  28.564   0.984   7.350
 8113POPC   NC361439   5.132   1.239   5.550
 8113POPC   PO461440   5.122   1.170   5.850
 8113POPC   GL161441   5.101   1.239   6.150
 8113POPC   GL261442   5.239   1.188   6.150
 8113POPC   C1A61443   5.062   1.237   6.450
 8113POPC   D2A61444   5.071   1.224   6.750
 8113POPC   C3A61445   5.053   1.256   7.050
 8113POPC   C4A61446   5.072   1.248   7.350
 8113POPC   C1B61447   5.300   1.198   6.450
 8113POPC   C2B61448   5.382   1.260   6.750
 8113POPC   C3B61449   5.300   1.189   7.050
 8113POPC   C4B61450   5.323   1.216   7.350
 8114POPC   NC361451  44.620  15.177   5.550
 8114POPC   PO461452  44.627  15.181   5.850
 8114POPC   GL161453  44.614  15.216   6.150
 8114POPC   GL261454  44.596  15.062   6.150
 8114POPC   C1A61455  44.617  15.162   6.450
 8114POPC   D2A61456  44.670  15.219   6.750
 8114POPC   C3A61457  44.661  15.162   7.050
 8114POPC   C4A61458  44.675  15.158   7.350
 8114POPC   C1B61459  44.613  14.921   6.450
 8114POPC   C2B61460  44.611  14.933   6.750
 8114POPC   C3B61461  44.615  14.909   7.050
 8114POPC   C4B61462  44.552  14.946   7.350
 8115POPC   NC361463  11.301  34.570   5.550
 8115POPC   PO461464  11.256  34.607   5.850
 8115POPC   GL161465  11.320  34.542   6.150
 8115POPC   GL261466  11.446  34.675   6.150
 8115POPC   C1A61467  11.261  34.534   6.450
 8115POPC   D2A61468  11.311  34.610   6.750
 8115POPC   C3A61469  11.280  34.547   7.050
 8115POPC   C4A61470  11.280  34.625   7.350
 8115POPC   C1B61471  11.475  34.707   6.450
 8115POPC   C2B61472  11.474  34.704   6.750
 8115POPC   C3B61473  11.466  34.694   7.050
 8115POPC   C4B61474  11.544  34.694   7.350
 8116POPC   NC361475  40.021  40.766   5.550
 8116POPC   PO461476  40.032  40.832   5.850
 8116POPC   GL161477  39.974  40.735   6.150
 8116POPC   GL261478  40.144  40.841   6.150
 8116POPC   C1A61479  39.975  40.818   6.450
 8116POPC   D2A61480  40.052  40.806   6.750
 8116POPC   C3A61481  39.996  40.744   7.050
 8116POPC   C4A61482  39.996  40.790   7.350
 8116POPC   C1B61483  40.211  40.928   6.450
 8116POPC   C2B61484  40.220  41.002   6.750
 8116POPC   C3B61485  40.207  40.929   7.050
 8116POPC   C4B61486  40.223  40.929   7.350
 8117POPC   NC361487  14.405  24.453   5.550
 8117POPC   PO461488  14.393  24.525   5.850
 8117POPC   GL161489  14.377  24.529   6.150
 8117POPC   GL261490  14.353  24.382   6.150
 8117POPC   C1A61491  14.378  24.465   6.450
 8117POPC   D2A61492  14.440  24.538   6.750
 8117POPC   C3A61493  14.387  24.506   7.050
 8117POPC   C4A61494  14.440  24.467   7.350
 8117POPC   C1B61495  14.258  24.281   6.450
 8117POPC   C2B61496  14.292  24.238   6.750
 8117POPC   C3B61497  14.333  24.287   7.050
 8117POPC   C4B61498  14.239  24.302   7.350
 8118POPC   NC361499  22.193  34.610   5.550
 8118POPC   PO461500  22.179  34.541   5.850
 8118POPC   GL161501  22.155  34.563   6.150
 8118POPC   GL261502  22.068  34.617   6.150
 8118POPC   C1A61503  22.115  34.577   6.450
 8118POPC   D2A61504  22.129  34.575   6.750
 8118POPC   C3A61505  22.206  34.614   7.050
 8118POPC   C4A61506  22.212  34.559   7.350
 8118POPC   C1B61507  21.964  34.695   6.450
 8118POPC   C2B61508  21.893  34.653   6.750
 8118POPC   C3B61509  21.908  34.669   7.050
 8118POPC   C4B61510  21.912  34.642   7.350
 8119POPC   NC361511  31.433  34.569   5.550
 8119POPC   PO461512  31.507  34.570   5.850
 8119POPC   GL161513  31.451  34.584   6.150
 8119POPC   GL261514  31.445  34.501   6.150
 8119POPC   C1A61515  31.442  34.622   6.450
 8119POPC   D2A61516  31.456  34.612   6.750
 8119POPC   C3A61517  31.431  34.536   7.050
 8119POPC   C4A61518  31.522  34.535   7.350
 8119POPC   C1B61519  31.409  34.329   6.450
 8119POPC   C2B61520  31.391  34.309   6.750
 8119POPC   C3B61521  31.356  34.316   7.050
 8119POPC   C4B61522  31.388  34.313   7.350
 8120POPC   NC361523   1.181  26.802   5.550
 8120POPC   PO461524   1.212  26.787   5.850
 8120POPC   GL161525   1.234  26.854   6.150
 8120POPC   GL261526   1.340  26.859   6.150
 8120POPC   C1A61527   1.233  26.794   6.450
 8120POPC   D2A61528   1.190  26.780   6.750
 8120POPC   C3A61529   1.203  26.833   7.050
 8120POPC   C4A61530   1.246  26.770   7.350
 8120POPC   C1B61531   1.451  26.867   6.450
 8120POPC   C2B61532   1.475  26.887   6.750
 8120POPC   C3B61533   1.493  26.861   7.050
 8120POPC   C4B61534   1.435  26.920   7.350
 8121POPC   NC361535  36.928  39.991   5.550
 8121POPC   PO461536  36.855  40.049   5.850
 8121POPC   GL161537  36.940  40.041   6.150
 8121POPC   GL261538  36.906  39.881   6.150
 8121POPC   C1A61539  36.924  40.018   6.450
 8121POPC   D2A61540  36.952  39.984   6.750
 8121POPC   C3A61541  36.940  40.047   7.050
 8121POPC   C4A61542  36.936  40.009   7.350
 8121POPC   C1B61543  36.864  39.757   6.450
 8121POPC   C2B61544  36.892  39.744   6.750
 8121POPC   C3B61545  36.859  39.782   7.050
 8121POPC   C4B61546  36.878  39.787   7.350
 8122POPC   NC361547   9.770  26.054   5.550
 8122POPC   PO461548   9.766  26.026   5.850
 8122POPC   GL161549   9.750  25.995   6.150
 8122POPC   GL261550   9.812  26.094   6.150
 8122POPC   C1A61551   9.709  26.018   6.450
 8122POPC   D2A61552   9.719  26.082   6.750
 8122POPC   C3A61553   9.783  26.047   7.050
 8122POPC   C4A61554   9.729  26.039   7.350
 8122POPC   C1B61555   9.936  26.222   6.450
 8122POPC   C2B61556   9.998  26.131   6.750
 8122POPC   C3B61557   9.949  26.218   7.050
 8122POPC   C4B61558   9.983  26.193   7.350
 8123POPC   NC361559  29.927   8.944   5.550
 8123POPC   PO461560  29.872   8.991   5.850
 8123POPC   GL161561  29.938   8.982   6.150
 8123POPC   GL261562  29.943   9.089   6.150
 8123POPC   C1A61563  29.962   9.004   6.450
 8123POPC   D2A61564  29.966   8.990   6.750
 8123POPC   C3A61565  29.887   8.986   7.050
 8123POPC   C4A61566  29.937   8.997   7.350
 8123POPC   C1B61567  30.008   9.255   6.450
 8123POPC   C2B61568  30.055   9.184   6.750
 8123POPC   C3B61569  30.037   9.216   7.050
 8123POPC   C4B61570  30.053   9.177   7.350
 8124POPC   NC361571  37.695  26.770   5.550
 8124POPC   PO461572  37.665  26.842   5.850
 8124POPC   GL161573  37.671  26.807   6.150
 8124POPC   GL261574  37.762  26.714   6.150
 8124POPC   C1A61575  37.641  26.831   6.450
 8124POPC   D2A61576  37.671  26.859   6.750
 8124POPC   C3A61577  37.633  26.814   7.050
 8124POPC   C4A61578  37.662  26.774   7.350
 8124POPC   C1B61579  37.838  26.714   6.450
 8124POPC   C2B61580  37.849  26.647   6.750
 8124POPC   C3B61581  37.913  26.639   7.050
 8124POPC   C4B61582  37.858  26.660   7.350
 8125POPC   NC361583   4.310  31.508   5.550
 8125POPC   PO461584   4.335  31.470   5.850
 8125POPC   GL161585   4.282  31.472   6.150
 8125POPC   GL261586   4.335  31.307   6.150
 8125POPC   C1A61587   4.321  31.492   6.450
 8125POPC   D2A61588   4.269  31.479   6.750
 8125POPC   C3A61589   4.274  31.442   7.050
 8125POPC   C4A61590   4.360  31.448   7.350
 8125POPC   C1B61591   4.291  31.192   6.450
 8125POPC   C2B61592   4.289  31.192   6.750
 8125POPC   C3B61593   4.315  31.220   7.050
 8125POPC   C4B61594   4.256  31.231   7.350
 8126POPC   NC361595  41.608  32.263   5.550
 8126POPC   PO461596  41.601  32.282   5.850
 8126POPC   GL161597  41.570  32.280   6.150
 8126POPC   GL261598  41.423  32.224   6.150
 8126POPC   C1A61599  41.514  32.265   6.450
 8126POPC   D2A61600  41.580  32.214   6.750
 8126POPC   C3A61601  41.525  32.297   7.050
 8126POPC   C4A61602  41.588  32.225   7.350
 8126POPC   C1B61603  41.331  32.302   6.450
 8126POPC   C2B61604  41.335  32.286   6.750
 8126POPC   C3B61605  41.355  32.273   7.050
 8126POPC   C4B61606  41.351  32.315   7.350
 8127POPC   NC361607  17.538  24.442   5.550
 8127POPC   PO461608  17.506  24.454   5.850
 8127POPC   GL161609  17.541  24.512   6.150
 8127POPC   GL261610  17.561  24.350   6.150
 8127POPC   C1A61611  17.542  24.445   6.450
 8127POPC   D2A61612  17.458  24.483   6.750
 8127POPC   C3A61613  17.468  24.531   7.050
 8127POPC   C4A61614  17.460  24.511   7.350
 8127POPC   C1B61615  17.541  24.205   6.450
 8127POPC   C2B61616  17.562  24.290   6.750
 8127POPC   C3B61617  17.558  24.215   7.050
 8127POPC   C4B61618  17.610  24.234   7.350
 8128POPC   NC361619  29.904  40.039   5.550
 8128POPC   PO461620  29.888  39.984   5.850
 8128POPC   GL161621  29.884  40.003   6.150
 8128POPC   GL261622  30.014  40.045   6.150
 8128POPC   C1A61623  29.894  40.029   6.450
 8128POPC   D2A61624  29.894  39.981   6.750
 8128POPC   C3A61625  29.929  39.985   7.050
 8128POPC   C4A61626  29.965  40.007   7.350
 8128POPC   C1B61627  30.150  40.006   6.450
 8128POPC   C2B61628  30.124  40.027   6.750
 8128POPC   C3B61629  30.194  40.059   7.050
 8128POPC   C4B61630  30.210  40.009   7.350
 8129POPC   NC361631   9.756  21.379   5.550
 8129POPC   PO461632   9.755  21.405   5.850
 8129POPC   GL161633   9.787  21.429   6.150
 8129POPC   GL261634   9.664  21.345   6.150
 8129POPC   C1A61635   9.747  21.355   6.450
 8129POPC   D2A61636   9.710  21.379   6.750
 8129POPC   C3A61637   9.754  21.425   7.050
 8129POPC   C4A61638   9.756  21.342   7.350
 8129POPC   C1B61639   9.570  21.277   6.450
 8129POPC   C2B61640   9.512  21.217   6.750
 8129POPC   C3B61641   9.542  21.275   7.050
 8129POPC   C4B61642   9.532  21.201   7.350
 8130POPC   NC361643  22.967   5.123   5.550
 8130POPC   PO461644  22.928   5.125   5.850
 8130POPC   GL161645  22.941   5.104   6.150
 8130POPC   GL261646  23.018   4.949   6.150
 8130POPC   C1A61647  22.977   5.135   6.450
 8130POPC   D2A61648  22.930   5.096   6.750
 8130POPC   C3A61649  22.905   5.073   7.050
 8130POPC   C4A61650  22.906   5.095   7.350
 8130POPC   C1B61651  23.117   4.888   6.450
 8130POPC   C2B61652  23.086   4.866   6.750
 8130POPC   C3B61653  23.121   4.873   7.050
 8130POPC   C4B61654  23.110   4.862   7.350
 8131POPC   NC361655   8.189  44.699   5.550
 8131POPC   PO461656   8.190  44.616   5.850
 8131POPC   GL161657   8.236  44.701   6.150
 8131POPC   GL261658   8.328  44.595   6.150
 8131POPC   C1A61659   8.177  44.619   6.450
 8131POPC   D2A61660   8.173  44.641   6.750
 8131POPC   C3A61661   8.182  44.700   7.050
 8131POPC   C4A61662   8.216  44.699   7.350
 8131POPC   C1B61663   8.383  44.527   6.450
 8131POPC   C2B61664   8.391  44.586   6.750
 8131POPC   C3B61665   8.400  44.542   7.050
 8131POPC   C4B61666   8.452  44.570   7.350
 8132POPC   NC361667   7.377  11.320   5.550
 8132POPC   PO461668   7.398  11.344   5.850
 8132POPC   GL161669   7.419  11.291   6.150
 8132POPC   GL261670   7.266  11.360   6.150
 8132POPC   C1A61671   7.394  11.272   6.450
 8132POPC   D2A61672   7.460  11.301   6.750
 8132POPC   C3A61673   7.464  11.307   7.050
 8132POPC   C4A61674   7.443  11.290   7.350
 8132POPC   C1B61675   7.164  11.410   6.450
 8132POPC   C2B61676   7.223  11.446   6.750
 8132POPC   C3B61677   7.214  11.472   7.050
 8132POPC   C4B61678   7.252  11.474   7.350
 8133POPC   NC361679  22.166  11.315   5.550
 8133POPC   PO461680  22.176  11.328   5.850
 8133POPC   GL161681  22.146  11.278   6.150
 8133POPC   GL261682  22.024  11.255   6.150
 8133POPC   C1A61683  22.143  11.336   6.450
 8133POPC   D2A61684  22.175  11.323   6.750
 8133POPC   C3A61685  22.119  11.312   7.050
 8133POPC   C4A61686  22.142  11.339   7.350
 8133POPC   C1B61687  21.929  11.170   6.450
 8133POPC   C2B61688  21.898  11.221   6.750
 8133POPC   C3B61689  21.941  11.177   7.050
 8133POPC   C4B61690  21.986  11.228   7.350
 8134POPC   NC361691  20.592  29.175   5.550
 8134POPC   PO461692  20.604  29.138   5.850
 8134POPC   GL161693  20.580  29.193   6.150
 8134POPC   GL261694  20.776  29.141   6.150
 8134POPC   C1A61695  20.660  29.151   6.450
 8134POPC   D2A61696  20.603  29.112   6.750
 8134POPC   C3A61697  20.577  29.143   7.050
 8134POPC   C4A61698  20.627  29.147   7.350
 8134POPC   C1B61699  20.818  29.063   6.450
 8134POPC   C2B61700  20.849  29.114   6.750
 8134POPC   C3B61701  20.851  29.059   7.050
 8134POPC   C4B61702  20.846  29.104   7.350
 8135POPC   NC361703  37.693   5.102   5.550
 8135POPC   PO461704  37.722   5.077   5.850
 8135POPC   GL161705  37.719   5.117   6.150
 8135POPC   GL261706  37.641   4.976   6.150
 8135POPC   C1A61707  37.675   5.060   6.450
 8135POPC   D2A61708  37.681   5.067   6.750
 8135POPC   C3A61709  37.719   5.090   7.050
 8135POPC   C4A61710  37.684   5.131   7.350
 8135POPC   C1B61711  37.652   4.852   6.450
 8135POPC   C2B61712  37.662   4.869   6.750
 8135POPC   C3B61713  37.653   4.823   7.050
 8135POPC   C4B61714  37.653   4.877   7.350
 8136POPC   NC361715  36.171  22.968   5.550
 8136POPC   PO461716  36.126  22.944   5.850
 8136POPC   GL161717  36.128  22.969   6.150
 8136POPC   GL261718  36.050  22.844   6.150
 8136POPC   C1A61719  36.169  22.899   6.450
 8136POPC   D2A61720  36.170  22.960   6.750
 8136POPC   C3A61721  36.081  22.895   7.050
 8136POPC   C4A61722  36.135  22.905   7.350
 8136POPC   C1B61723  35.924  22.810   6.450
 8136POPC   C2B61724  35.882  22.845   6.750
 8136POPC   C3B61725  35.925  22.869   7.050
 8136POPC   C4B61726  35.880  22.808   7.350
 8137POPC   NC361727  12.833   7.393   5.550
 8137POPC   PO461728  12.825   7.452   5.850
 8137POPC   GL161729  12.872   7.383   6.150
 8137POPC   GL261730  12.793   7.321   6.150
 8137POPC   C1A61731  12.821   7.382   6.450
 8137POPC   D2A61732  12.897   7.432   6.750
 8137POPC   C3A61733  12.854   7.391   7.050
 8137POPC   C4A61734  12.842   7.376   7.350
 8137POPC   C1B61735  12.597   7.272   6.450
 8137POPC   C2B61736  12.609   7.263   6.750
 8137POPC   C3B61737  12.611   7.305   7.050
 8137POPC   C4B61738  12.622   7.337   7.350
 8138POPC   NC361739  37.666  33.784   5.550
 8138POPC   PO461740  37.729  33.832   5.850
 8138POPC   GL161741  37.633  33.770   6.150
 8138POPC   GL261742  37.627  33.855   6.150
 8138POPC   C1A61743  37.636  33.833   6.450
 8138POPC   D2A61744  37.690  33.796   6.750
 8138POPC   C3A61745  37.643  33.755   7.050
 8138POPC   C4A61746  37.635  33.835   7.350
 8138POPC   C1B61747  37.473  33.984   6.450
 8138POPC   C2B61748  37.509  33.955   6.750
 8138POPC   C3B61749  37.490  33.975   7.050
 8138POPC   C4B61750  37.497  34.002   7.350
 8139POPC   NC361751   1.999  18.272   5.550
 8139POPC   PO461752   2.039  18.306   5.850
 8139POPC   GL161753   2.031  18.332   6.150
 8139POPC   GL261754   1.822  18.267   6.150
 8139POPC   C1A61755   1.997  18.319   6.450
 8139POPC   D2A61756   1.970  18.297   6.750
 8139POPC   C3A61757   2.005  18.324   7.050
 8139POPC   C4A61758   1.958  18.255   7.350
 8139POPC   C1B61759   1.696  18.237   6.450
 8139POPC   C2B61760   1.778  18.303   6.750
 8139POPC   C3B61761   1.783  18.271   7.050
 8139POPC   C4B61762   1.729  18.235   7.350
 8140POPC   NC361763  44.624  23.665   5.550
 8140POPC   PO461764  44.633  23.699   5.850
 8140POPC   GL161765  44.701  23.699   6.150
 8140POPC   GL261766  44.494  23.703   6.150
 8140POPC   C1A61767  44.710  23.721   6.450
 8140POPC   D2A61768  44.655  23.700   6.750
 8140POPC   C3A61769  44.655  23.731   7.050
 8140POPC   C4A61770  44.700  23.714   7.350
 8140POPC   C1B61771  44.466  23.622   6.450
 8140POPC   C2B61772  44.444  23.628   6.750
 8140POPC   C3B61773  44.412  23.611   7.050
 8140POPC   C4B61774  44.437  23.631   7.350
 8141POPC   NC361775  30.684  41.578   5.550
 8141POPC   PO461776  30.710  41.525   5.850
 8141POPC   GL161777  30.704  41.529   6.150
 8141POPC   GL261778  30.621  41.429   6.150
 8141POPC   C1A61779  30.661  41.514   6.450
 8141POPC   D2A61780  30.664  41.593   6.750
 8141POPC   C3A61781  30.739  41.596   7.050
 8141POPC   C4A61782  30.675  41.560   7.350
 8141POPC   C1B61783  30.523  41.367   6.450
 8141POPC   C2B61784  30.558  41.353   6.750
 8141POPC   C3B61785  30.568  41.400   7.050
 8141POPC   C4B61786  30.498  41.383   7.350
 8142POPC   NC361787  29.953  40.783   5.550
 8142POPC   PO461788  29.951  40.767   5.850
 8142POPC   GL161789  29.901  40.782   6.150
 8142POPC   GL261790  30.092  40.773   6.150
 8142POPC   C1A61791  29.970  40.743   6.450
 8142POPC   D2A61792  29.913  40.791   6.750
 8142POPC   C3A61793  29.935  40.826   7.050
 8142POPC   C4A61794  29.896  40.784   7.350
 8142POPC   C1B61795  30.189  40.751   6.450
 8142POPC   C2B61796  30.210  40.740   6.750
 8142POPC   C3B61797  30.192  40.738   7.050
 8142POPC   C4B61798  30.175  40.735   7.350
 8143POPC   NC361799  26.038  22.195   5.550
 8143POPC   PO461800  26.012  22.140   5.850
 8143POPC   GL161801  26.000  22.160   6.150
 8143POPC   GL261802  26.091  22.079   6.150
 8143POPC   C1A61803  26.064  22.141   6.450
 8143POPC   D2A61804  26.064  22.150   6.750
 8143POPC   C3A61805  26.005  22.167   7.050
 8143POPC   C4A61806  26.044  22.191   7.350
 8143POPC   C1B61807  26.106  21.891   6.450
 8143POPC   C2B61808  26.175  21.917   6.750
 8143POPC   C3B61809  26.172  21.924   7.050
 8143POPC   C4B61810  26.194  21.918   7.350
 8144POPC   NC361811  22.947  14.395   5.550
 8144POPC   PO461812  22.957  14.419   5.850
 8144POPC   GL161813  22.901  14.447   6.150
 8144POPC   GL261814  22.867  14.344   6.150
 8144POPC   C1A61815  22.897  14.401   6.450
 8144POPC   D2A61816  22.889  14.365   6.750
 8144POPC   C3A61817  22.972  14.393   7.050
 8144POPC   C4A61818  22.891  14.372   7.350
 8144POPC   C1B61819  22.720  14.241   6.450
 8144POPC   C2B61820  22.750  14.278   6.750
 8144POPC   C3B61821  22.714  14.332   7.050
 8144POPC   C4B61822  22.715  14.328   7.350
 8145POPC   NC361823  36.170  15.165   5.550
 8145POPC   PO461824  36.144  15.204   5.850
 8145POPC   GL161825  36.095  15.227   6.150
 8145POPC   GL261826  36.094  15.336   6.150
 8145POPC   C1A61827  36.088  15.226   6.450
 8145POPC   D2A61828  36.086  15.175   6.750
 8145POPC   C3A61829  36.100  15.148   7.050
 8145POPC   C4A61830  36.161  15.203   7.350
 8145POPC   C1B61831  36.107  15.397   6.450
 8145POPC   C2B61832  36.177  15.472   6.750
 8145POPC   C3B61833  36.156  15.475   7.050
 8145POPC   C4B61834  36.107  15.400   7.350
 8146POPC   NC361835  43.069  37.654   5.550
 8146POPC   PO461836  43.142  37.672   5.850
 8146POPC   GL161837  43.142  37.656   6.150
 8146POPC   GL261838  43.200  37.569   6.150
 8146POPC   C1A61839  43.089  37.700   6.450
 8146POPC   D2A61840  43.112  37.722   6.750
 8146POPC   C3A61841  43.135  37.640   7.050
 8146POPC   C4A61842  43.128  37.714   7.350
 8146POPC   C1B61843  43.208  37.435   6.450
 8146POPC   C2B61844  43.241  37.476   6.750
 8146POPC   C3B61845  43.280  37.470   7.050
 8146POPC   C4B61846  43.242  37.476   7.350
 8147POPC   NC361847  22.147  28.364   5.550
 8147POPC   PO461848  22.191  28.351   5.850
 8147POPC   GL161849  22.128  28.415   6.150
 8147POPC   GL261850  22.259  28.464   6.150
 8147POPC   C1A61851  22.156  28.376   6.450
 8147POPC   D2A61852  22.196  28.366   6.750
 8147POPC   C3A61853  22.112  28.351   7.050
 8147POPC   C4A61854  22.147  28.332   7.350
 8147POPC   C1B61855  22.349  28.492   6.450
 8147POPC   C2B61856  22.349  28.477   6.750
 8147POPC   C3B61857  22.430  28.494   7.050
 8147POPC   C4B61858  22.349  28.533   7.350
 8148POPC   NC361859  33.057   2.011   5.550
 8148POPC   PO461860  33.003   1.998   5.850
 8148POPC   GL161861  32.977   1.954   6.150
 8148POPC   GL261862  33.099   2.133   6.150
 8148POPC   C1A61863  33.067   1.956   6.450
 8148POPC   D2A61864  33.023   2.019   6.750
 8148POPC   C3A61865  33.027   1.967   7.050
 8148POPC   C4A61866  33.033   1.957   7.350
 8148POPC   C1B61867  33.158   2.216   6.450
 8148POPC   C2B61868  33.150   2.251   6.750
 8148POPC   C3B61869  33.113   2.250   7.050
 8148POPC   C4B61870  33.145   2.225   7.350
 8149POPC   NC361871   2.807  15.181   5.550
 8149POPC   PO461872   2.767  15.222   5.850
 8149POPC   GL161873   2.799  15.141   6.150
 8149POPC   GL261874   2.614  15.162   6.150
 8149POPC   C1A61875   2.811  15.186   6.450
 8149POPC   D2A61876   2.742  15.213   6.750
 8149POPC   C3A61877   2.781  15.136   7.050
 8149POPC   C4A61878   2.766  15.215   7.350
 8149POPC   C1B61879   2.485  15.265   6.450
 8149POPC   C2B61880   2.511  15.282   6.750
 8149POPC   C3B61881   2.502  15.200   7.050
 8149POPC   C4B61882   2.475  15.195   7.350
 8150POPC   NC361883  17.472  12.864   5.550
 8150POPC   PO461884  17.506  12.820   5.850
 8150POPC   GL161885  17.503  12.874   6.150
 8150POPC   GL261886  17.561  12.949   6.150
 8150POPC   C1A61887  17.551  12.850   6.450
 8150POPC   D2A61888  17.458  12.821   6.750
 8150POPC   C3A61889  17.483  12.849   7.050
 8150POPC   C4A61890  17.554  12.802   7.350
 8150POPC   C1B61891  17.653  12.994   6.450
 8150POPC   C2B61892  17.645  13.013   6.750
 8150POPC   C3B61893  17.658  12.981   7.050
 8150POPC   C4B61894  17.716  13.057   7.350
 8151POPC   NC361895   9.723  33.831   5.550
 8151POPC   PO461896   9.757  33.752   5.850
 8151POPC   GL161897   9.719  33.759   6.150
 8151POPC   GL261898   9.852  33.894   6.150
 8151POPC   C1A61899   9.778  33.757   6.450
 8151POPC   D2A61900   9.746  33.785   6.750
 8151POPC   C3A61901   9.740  33.771   7.050
 8151POPC   C4A61902   9.732  33.825   7.350
 8151POPC   C1B61903   9.893  33.956   6.450
 8151POPC   C2B61904   9.907  34.010   6.750
 8151POPC   C3B61905   9.919  33.959   7.050
 8151POPC   C4B61906   9.972  34.020   7.350
 8152POPC   NC361907  12.883  31.495   5.550
 8152POPC   PO461908  12.822  31.463   5.850
 8152POPC   GL161909  12.841  31.485   6.150
 8152POPC   GL261910  12.900  31.350   6.150
 8152POPC   C1A61911  12.867  31.437   6.450
 8152POPC   D2A61912  12.899  31.445   6.750
 8152POPC   C3A61913  12.865  31.498   7.050
 8152POPC   C4A61914  12.809  31.484   7.350
 8152POPC   C1B61915  13.027  31.296   6.450
 8152POPC   C2B61916  13.004  31.352   6.750
 8152POPC   C3B61917  13.079  31.286   7.050
 8152POPC   C4B61918  13.092  31.332   7.350
 8153POPC   NC361919  14.374   8.205   5.550
 8153POPC   PO461920  14.422   8.196   5.850
 8153POPC   GL161921  14.420   8.225   6.150
 8153POPC   GL261922  14.333   8.083   6.150
 8153POPC   C1A61923  14.414   8.183   6.450
 8153POPC   D2A61924  14.355   8.183   6.750
 8153POPC   C3A61925  14.430   8.228   7.050
 8153POPC   C4A61926  14.427   8.209   7.350
 8153POPC   C1B61927  14.358   8.000   6.450
 8153POPC   C2B61928  14.290   7.955   6.750
 8153POPC   C3B61929  14.313   7.989   7.050
 8153POPC   C4B61930  14.326   7.950   7.350
 8154POPC   NC361931  20.645  38.468   5.550
 8154POPC   PO461932  20.622  38.483   5.850
 8154POPC   GL161933  20.653  38.416   6.150
 8154POPC   GL261934  20.489  38.480   6.150
 8154POPC   C1A61935  20.587  38.451   6.450
 8154POPC   D2A61936  20.660  38.446   6.750
 8154POPC   C3A61937  20.622  38.485   7.050
 8154POPC   C4A61938  20.632  38.472   7.350
 8154POPC   C1B61939  20.335  38.492   6.450
 8154POPC   C2B61940  20.340  38.464   6.750
 8154POPC   C3B61941  20.333  38.456   7.050
 8154POPC   C4B61942  20.406  38.475   7.350
 8155POPC   NC361943  19.097  19.857   5.550
 8155POPC   PO461944  19.067  19.789   5.850
 8155POPC   GL161945  19.057  19.856   6.150
 8155POPC   GL261946  18.908  19.788   6.150
 8155POPC   C1A61947  19.041  19.785   6.450
 8155POPC   D2A61948  19.091  19.875   6.750
 8155POPC   C3A61949  19.013  19.863   7.050
 8155POPC   C4A61950  19.107  19.839   7.350
 8155POPC   C1B61951  18.826  19.714   6.450
 8155POPC   C2B61952  18.824  19.722   6.750
 8155POPC   C3B61953  18.852  19.746   7.050
 8155POPC   C4B61954  18.785  19.795   7.350
 8156POPC   NC361955  36.875   0.447   5.550
 8156POPC   PO461956  36.935   0.468   5.850
 8156POPC   GL161957  36.948   0.444   6.150
 8156POPC   GL261958  36.813   0.562   6.150
 8156POPC   C1A61959  36.859   0.439   6.450
 8156POPC   D2A61960  36.918   0.452   6.750
 8156POPC   C3A61961  36.937   0.391   7.050
 8156POPC   C4A61962  36.859   0.398   7.350
 8156POPC   C1B61963  36.731   0.693   6.450
 8156POPC   C2B61964  36.746   0.684   6.750
 8156POPC   C3B61965  36.725   0.610   7.050
 8156POPC   C4B61966  36.802   0.613   7.350
 8157POPC   NC361967  10.511  10.521   5.550
 8157POPC   PO461968  10.517  10.535   5.850
 8157POPC   GL161969  10.514  10.544   6.150
 8157POPC   GL261970  10.647  10.636   6.150
 8157POPC   C1A61971  10.553  10.525   6.450
 8157POPC   D2A61972  10.484  10.480   6.750
 8157POPC   C3A61973  10.491  10.477   7.050
 8157POPC   C4A61974  10.496  10.540   7.350
 8157POPC   C1B61975  10.717  10.619   6.450
 8157POPC   C2B61976  10.781  10.694   6.750
 8157POPC   C3B61977  10.705  10.609   7.050
 8157POPC   C4B61978  10.709  10.628   7.350
 8158POPC   NC361979  38.459  37.705   5.550
 8158POPC   PO461980  38.415  37.677   5.850
 8158POPC   GL161981  38.420  37.667   6.150
 8158POPC   GL261982  38.535  37.589   6.150
 8158POPC   C1A61983  38.501  37.703   6.450
 8158POPC   D2A61984  38.439  37.712   6.750
 8158POPC   C3A61985  38.438  37.725   7.050
 8158POPC   C4A61986  38.426  37.654   7.350
 8158POPC   C1B61987  38.625  37.474   6.450
 8158POPC   C2B61988  38.571  37.464   6.750
 8158POPC   C3B61989  38.580  37.510   7.050
 8158POPC   C4B61990  38.600  37.507   7.350
 8159POPC   NC361991   1.251   7.379   5.550
 8159POPC   PO461992   1.221   7.409   5.850
 8159POPC   GL161993   1.164   7.386   6.150
 8159POPC   GL261994   1.177   7.308   6.150
 8159POPC   C1A61995   1.207   7.425   6.450
 8159POPC   D2A61996   1.260   7.371   6.750
 8159POPC   C3A61997   1.213   7.421   7.050
 8159POPC   C4A61998   1.238   7.460   7.350
 8159POPC   C1B61999   1.097   7.223   6.450
 8159POPC   C2B62000   1.078   7.175   6.750
 8159POPC   C3B62001   1.081   7.190   7.050
 8159POPC   C4B62002   1.165   7.170   7.350
 8160POPC   NC362003  20.612  40.785   5.550
 8160POPC   PO462004  20.612  40.798   5.850
 8160POPC   GL162005  20.624  40.821   6.150
 8160POPC   GL262006  20.680  40.848   6.150
 8160POPC   C1A62007  20.577  40.793   6.450
 8160POPC   D2A62008  20.609  40.791   6.750
 8160POPC   C3A62009  20.606  40.753   7.050
 8160POPC   C4A62010  20.573  40.768   7.350
 8160POPC   C1B62011  20.789  40.932   6.450
 8160POPC   C2B62012  20.764  41.001   6.750
 8160POPC   C3B62013  20.821  40.943   7.050
 8160POPC   C4B62014  20.816  40.993   7.350
 8161POPC   NC362015  28.360   4.324   5.550
 8161POPC   PO462016  28.319   4.324   5.850
 8161POPC   GL162017  28.333   4.273   6.150
 8161POPC   GL262018  28.400   4.449   6.150
 8161POPC   C1A62019  28.398   4.356   6.450
 8161POPC   D2A62020  28.360   4.287   6.750
 8161POPC   C3A62021  28.352   4.289   7.050
 8161POPC   C4A62022  28.320   4.284   7.350
 8161POPC   C1B62023  28.425   4.588   6.450
 8161POPC   C2B62024  28.465   4.517   6.750
 8161POPC   C3B62025  28.471   4.591   7.050
 8161POPC   C4B62026  28.412   4.594   7.350
 8162POPC   NC362027   1.175  29.873   5.550
 8162POPC   PO462028   1.192  29.943   5.850
 8162POPC   GL162029   1.183  29.912   6.150
 8162POPC   GL262030   1.326  29.849   6.150
 8162POPC   C1A62031   1.242  29.898   6.450
 8162POPC   D2A62032   1.233  29.946   6.750
 8162POPC   C3A62033   1.188  29.957   7.050
 8162POPC   C4A62034   1.237  29.903   7.350
 8162POPC   C1B62035   1.416  29.833   6.450
 8162POPC   C2B62036   1.490  29.836   6.750
 8162POPC   C3B62037   1.469  29.837   7.050
 8162POPC   C4B62038   1.444  29.857   7.350
 8163POPC   NC362039   4.353   5.074   5.550
 8163POPC   PO462040   4.357   5.053   5.850
 8163POPC   GL162041   4.361   5.104   6.150
 8163POPC   GL262042   4.160   5.119   6.150
 8163POPC   C1A62043   4.332   5.125   6.450
 8163POPC   D2A62044   4.358   5.054   6.750
 8163POPC   C3A62045   4.283   5.117   7.050
 8163POPC   C4A62046   4.316   5.123   7.350
 8163POPC   C1B62047   4.110   5.007   6.450
 8163POPC   C2B62048   4.117   5.082   6.750
 8163POPC   C3B62049   4.111   5.021   7.050
 8163POPC   C4B62050   4.109   5.069   7.350
 8164POPC   NC362051  32.997  36.081   5.550
 8164POPC   PO462052  33.067  36.108   5.850
 8164POPC   GL162053  32.995  36.142   6.150
 8164POPC   GL262054  32.897  36.210   6.150
 8164POPC   C1A62055  33.048  36.102   6.450
 8164POPC   D2A62056  32.994  36.081   6.750
 8164POPC   C3A62057  33.044  36.153   7.050
 8164POPC   C4A62058  33.042  36.114   7.350
 8164POPC   C1B62059  32.792  36.272   6.450
 8164POPC   C2B62060  32.825  36.282   6.750
 8164POPC   C3B62061  32.815  36.247   7.050
 8164POPC   C4B62062  32.774  36.223   7.350
 8165POPC   NC362063   4.336  21.407   5.550
 8165POPC   PO462064   4.367  21.337   5.850
 8165POPC   GL162065   4.277  21.343   6.150
 8165POPC   GL262066   4.346  21.249   6.150
 8165POPC   C1A62067   4.337  21.389   6.450
 8165POPC   D2A62068   4.364  21.418   6.750
 8165POPC   C3A62069   4.342  21.381   7.050
 8165POPC   C4A62070   4.303  21.425   7.350
 8165POPC   C1B62071   4.380  21.193   6.450
 8165POPC   C2B62072   4.362  21.126   6.750
 8165POPC   C3B62073   4.436  21.103   7.050
 8165POPC   C4B62074   4.369  21.167   7.350
 8166POPC   NC362075  29.166   5.069   5.550
 8166POPC   PO462076  29.146   5.104   5.850
 8166POPC   GL162077  29.131   5.119   6.150
 8166POPC   GL262078  29.036   5.126   6.150
 8166POPC   C1A62079  29.105   5.138   6.450
 8166POPC   D2A62080  29.128   5.141   6.750
 8166POPC   C3A62081  29.179   5.126   7.050
 8166POPC   C4A62082  29.119   5.096   7.350
 8166POPC   C1B62083  28.917   5.030   6.450
 8166POPC   C2B62084  28.869   5.079   6.750
 8166POPC   C3B62085  28.930   5.097   7.050
 8166POPC   C4B62086  28.939   5.022   7.350
 8167POPC   NC362087   3.577  34.538   5.550
 8167POPC   PO462088   3.583  34.605   5.850
 8167POPC   GL162089   3.576  34.593   6.150
 8167POPC   GL262090   3.481  34.684   6.150
 8167POPC   C1A62091   3.564  34.549   6.450
 8167POPC   D2A62092   3.502  34.584   6.750
 8167POPC   C3A62093   3.512  34.577   7.050
 8167POPC   C4A62094   3.567  34.562   7.350
 8167POPC   C1B62095   3.432  34.847   6.450
 8167POPC   C2B62096   3.427  34.805   6.750
 8167POPC   C3B62097   3.435  34.819   7.050
 8167POPC   C4B62098   3.419  34.776   7.350
 8168POPC   NC362099  38.432   9.746   5.550
 8168POPC   PO462100  38.454   9.796   5.850
 8168POPC   GL162101  38.471   9.796   6.150
 8168POPC   GL262102  38.409   9.584   6.150
 8168POPC   C1A62103  38.412   9.706   6.450
 8168POPC   D2A62104  38.414   9.762   6.750
 8168POPC   C3A62105  38.426   9.790   7.050
 8168POPC   C4A62106  38.475   9.782   7.350
 8168POPC   C1B62107  38.405   9.507   6.450
 8168POPC   C2B62108  38.450   9.458   6.750
 8168POPC   C3B62109  38.449   9.552   7.050
 8168POPC   C4B62110  38.415   9.458   7.350
 8169POPC   NC362111  29.896  44.691   5.550
 8169POPC   PO462112  29.968  44.647   5.850
 8169POPC   GL162113  29.926  44.663   6.150
 8169POPC   GL262114  30.002  44.736   6.150
 8169POPC   C1A62115  29.904  44.663   6.450
 8169POPC   D2A62116  29.877  44.705   6.750
 8169POPC   C3A62117  29.919  44.670   7.050
 8169POPC   C4A62118  29.933  44.625   7.350
 8169POPC   C1B62119  30.084  44.832   6.450
 8169POPC   C2B62120  30.063  44.819   6.750
 8169POPC   C3B62121  30.074  44.867   7.050
 8169POPC   C4B62122  30.121  44.809   7.350
 8170POPC   NC362123  43.121  42.358   5.550
 8170POPC   PO462124  43.065  42.322   5.850
 8170POPC   GL162125  43.095  42.328   6.150
 8170POPC   GL262126  42.944  42.290   6.150
 8170POPC   C1A62127  43.062  42.349   6.450
 8170POPC   D2A62128  43.157  42.349   6.750
 8170POPC   C3A62129  43.140  42.310   7.050
 8170POPC   C4A62130  43.140  42.334   7.350
 8170POPC   C1B62131  42.860  42.334   6.450
 8170POPC   C2B62132  42.821  42.252   6.750
 8170POPC   C3B62133  42.825  42.320   7.050
 8170POPC   C4B62134  42.849  42.255   7.350
 8171POPC   NC362135   8.159  26.810   5.550
 8171POPC   PO462136   8.209  26.850   5.850
 8171POPC   GL162137   8.160  26.849   6.150
 8171POPC   GL262138   8.155  26.888   6.150
 8171POPC   C1A62139   8.164  26.851   6.450
 8171POPC   D2A62140   8.155  26.816   6.750
 8171POPC   C3A62141   8.209  26.775   7.050
 8171POPC   C4A62142   8.201  26.820   7.350
 8171POPC   C1B62143   8.023  27.038   6.450
 8171POPC   C2B62144   8.064  26.950   6.750
 8171POPC   C3B62145   8.060  26.980   7.050
 8171POPC   C4B62146   8.031  27.012   7.350
 8172POPC   NC362147  23.709  34.554   5.550
 8172POPC   PO462148  23.754  34.621   5.850
 8172POPC   GL162149  23.751  34.620   6.150
 8172POPC   GL262150  23.846  34.570   6.150
 8172POPC   C1A62151  23.748  34.529   6.450
 8172POPC   D2A62152  23.717  34.566   6.750
 8172POPC   C3A62153  23.756  34.572   7.050
 8172POPC   C4A62154  23.711  34.616   7.350
 8172POPC   C1B62155  23.925  34.536   6.450
 8172POPC   C2B62156  23.919  34.554   6.750
 8172POPC   C3B62157  23.946  34.613   7.050
 8172POPC   C4B62158  23.990  34.556   7.350
 8173POPC   NC362159   0.425  39.981   5.550
 8173POPC   PO462160   0.391  40.034   5.850
 8173POPC   GL162161   0.392  39.964   6.150
 8173POPC   GL262162   0.271  40.026   6.150
 8173POPC   C1A62163   0.487  40.037   6.450
 8173POPC   D2A62164   0.488  40.023   6.750
 8173POPC   C3A62165   0.453  39.966   7.050
 8173POPC   C4A62166   0.457  40.045   7.350
 8173POPC   C1B62167   0.184  39.984   6.450
 8173POPC   C2B62168   0.197  40.006   6.750
 8173POPC   C3B62169   0.230  39.934   7.050
 8173POPC   C4B62170   0.218  39.929   7.350
 8174POPC   NC362171  43.858  32.279   5.550
 8174POPC   PO462172  43.885  32.255   5.850
 8174POPC   GL162173  43.934  32.214   6.150
 8174POPC   GL262174  43.969  32.306   6.150
 8174POPC   C1A62175  43.858  32.201   6.450
 8174POPC   D2A62176  43.929  32.217   6.750
 8174POPC   C3A62177  43.876  32.297   7.050
 8174POPC   C4A62178  43.913  32.255   7.350
 8174POPC   C1B62179  44.066  32.355   6.450
 8174POPC   C2B62180  44.033  32.375   6.750
 8174POPC   C3B62181  44.102  32.374   7.050
 8174POPC   C4B62182  44.124  32.417   7.350
 8175POPC   NC362183  24.459  21.388   5.550
 8175POPC   PO462184  24.457  21.407   5.850
 8175POPC   GL162185  24.534  21.339   6.150
 8175POPC   GL262186  24.620  21.379   6.150
 8175POPC   C1A62187  24.468  21.346   6.450
 8175POPC   D2A62188  24.518  21.372   6.750
 8175POPC   C3A62189  24.503  21.432   7.050
 8175POPC   C4A62190  24.470  21.340   7.350
 8175POPC   C1B62191  24.787  21.359   6.450
 8175POPC   C2B62192  24.727  21.357   6.750
 8175POPC   C3B62193  24.784  21.428   7.050
 8175POPC   C4B62194  24.753  21.399   7.350
 8176POPC   NC362195  22.957  43.883   5.550
 8176POPC   PO462196  22.963  43.873   5.850
 8176POPC   GL162197  22.972  43.908   6.150
 8176POPC   GL262198  23.012  43.817   6.150
 8176POPC   C1A62199  22.987  43.907   6.450
 8176POPC   D2A62200  22.939  43.858   6.750
 8176POPC   C3A62201  22.978  43.897   7.050
 8176POPC   C4A62202  22.987  43.866   7.350
 8176POPC   C1B62203  23.205  43.723   6.450
 8176POPC   C2B62204  23.122  43.725   6.750
 8176POPC   C3B62205  23.181  43.802   7.050
 8176POPC   C4B62206  23.127  43.799   7.350
 8177POPC   NC362207  21.394  26.777   5.550
 8177POPC   PO462208  21.342  26.867   5.850
 8177POPC   GL162209  21.413  26.814   6.150
 8177POPC   GL262210  21.249  26.839   6.150
 8177POPC   C1A62211  21.407  26.805   6.450
 8177POPC   D2A62212  21.344  26.824   6.750
 8177POPC   C3A62213  21.344  26.842   7.050
 8177POPC   C4A62214  21.420  26.792   7.350
 8177POPC   C1B62215  21.192  26.889   6.450
 8177POPC   C2B62216  21.207  26.904   6.750
 8177POPC   C3B62217  21.118  26.972   7.050
 8177POPC   C4B62218  21.179  26.968   7.350
 8178POPC   NC362219   2.747  20.653   5.550
 8178POPC   PO462220   2.798  20.565   5.850
 8178POPC   GL162221   2.802  20.633   6.150
 8178POPC   GL262222   2.855  20.563   6.150
 8178POPC   C1A62223   2.733  20.637   6.450
 8178POPC   D2A62224   2.810  20.590   6.750
 8178POPC   C3A62225   2.795  20.627   7.050
 8178POPC   C4A62226   2.810  20.634   7.350
 8178POPC   C1B62227   2.910  20.426   6.450
 8178POPC   C2B62228   2.969  20.394   6.750
 8178POPC   C3B62229   3.000  20.441   7.050
 8178POPC   C4B62230   2.911  20.441   7.350
 8179POPC   NC362231  19.857  20.634   5.550
 8179POPC   PO462232  19.797  20.590   5.850
 8179POPC   GL162233  19.857  20.616   6.150
 8179POPC   GL262234  19.886  20.642   6.150
 8179POPC   C1A62235  19.874  20.600   6.450
 8179POPC   D2A62236  19.831  20.646   6.750
 8179POPC   C3A62237  19.854  20.571   7.050
 8179POPC   C4A62238  19.806  20.611   7.350
 8179POPC   C1B62239  20.070  20.780   6.450
 8179POPC   C2B62240  20.048  20.761   6.750
 8179POPC   C3B62241  19.995  20.815   7.050
 8179POPC   C4B62242  20.009  20.810   7.350
 8180POPC   NC362243  33.820  34.558   5.550
 8180POPC   PO462244  33.848  34.569   5.850
 8180POPC   GL162245  33.766  34.557   6.150
 8180POPC   GL262246  33.744  34.649   6.150
 8180POPC   C1A62247  33.822  34.591   6.450
 8180POPC   D2A62248  33.805  34.597   6.750
 8180POPC   C3A62249  33.762  34.600   7.050
 8180POPC   C4A62250  33.836  34.609   7.350
 8180POPC   C1B62251  33.604  34.708   6.450
 8180POPC   C2B62252  33.587  34.753   6.750
 8180POPC   C3B62253  33.559  34.703   7.050
 8180POPC   C4B62254  33.588  34.684   7.350
 8181POPC   NC362255  36.125  43.907   5.550
 8181POPC   PO462256  36.106  43.927   5.850
 8181POPC   GL162257  36.175  43.892   6.150
 8181POPC   GL262258  36.039  43.833   6.150
 8181POPC   C1A62259  36.100  43.911   6.450
 8181POPC   D2A62260  36.130  43.862   6.750
 8181POPC   C3A62261  36.130  43.922   7.050
 8181POPC   C4A62262  36.093  43.923   7.350
 8181POPC   C1B62263  35.919  43.872   6.450
 8181POPC   C2B62264  35.840  43.851   6.750
 8181POPC   C3B62265  35.846  43.849   7.050
 8181POPC   C4B62266  35.877  43.819   7.350
 8182POPC   NC362267  32.230   5.106   5.550
 8182POPC   PO462268  32.271   5.054   5.850
 8182POPC   GL162269  32.209   5.071   6.150
 8182POPC   GL262270  32.134   5.126   6.150
 8182POPC   C1A62271  32.272   5.059   6.450
 8182POPC   D2A62272  32.207   5.133   6.750
 8182POPC   C3A62273  32.217   5.055   7.050
 8182POPC   C4A62274  32.249   5.076   7.350
 8182POPC   C1B62275  32.047   5.266   6.450
 8182POPC   C2B62276  32.065   5.228   6.750
 8182POPC   C3B62277  32.101   5.277   7.050
 8182POPC   C4B62278  32.010   5.208   7.350
 8183POPC   NC362279  32.282  26.826   5.550
 8183POPC   PO462280  32.293  26.848   5.850
 8183POPC   GL162281  32.214  26.810   6.150
 8183POPC   GL262282  32.336  26.704   6.150
 8183POPC   C1A62283  32.253  26.831   6.450
 8183POPC   D2A62284  32.266  26.786   6.750
 8183POPC   C3A62285  32.234  26.813   7.050
 8183POPC   C4A62286  32.223  26.834   7.350
 8183POPC   C1B62287  32.368  26.578   6.450
 8183POPC   C2B62288  32.368  26.656   6.750
 8183POPC   C3B62289  32.416  26.641   7.050
 8183POPC   C4B62290  32.369  26.604   7.350
 8184POPC   NC362291  19.021  33.825   5.550
 8184POPC   PO462292  19.009  33.816   5.850
 8184POPC   GL162293  19.023  33.818   6.150
 8184POPC   GL262294  18.941  33.679   6.150
 8184POPC   C1A62295  19.060  33.828   6.450
 8184POPC   D2A62296  19.082  33.766   6.750
 8184POPC   C3A62297  19.060  33.772   7.050
 8184POPC   C4A62298  19.020  33.808   7.350
 8184POPC   C1B62299  18.815  33.635   6.450
 8184POPC   C2B62300  18.907  33.659   6.750
 8184POPC   C3B62301  18.908  33.670   7.050
 8184POPC   C4B62302  18.908  33.679   7.350
 8185POPC   NC362303  24.494  23.724   5.550
 8185POPC   PO462304  24.527  23.712   5.850
 8185POPC   GL162305  24.488  23.743   6.150
 8185POPC   GL262306  24.564  23.591   6.150
 8185POPC   C1A62307  24.463  23.763   6.450
 8185POPC   D2A62308  24.469  23.756   6.750
 8185POPC   C3A62309  24.530  23.690   7.050
 8185POPC   C4A62310  24.487  23.756   7.350
 8185POPC   C1B62311  24.649  23.566   6.450
 8185POPC   C2B62312  24.655  23.520   6.750
 8185POPC   C3B62313  24.706  23.568   7.050
 8185POPC   C4B62314  24.641  23.535   7.350
 8186POPC   NC362315  42.349   7.453   5.550
 8186POPC   PO462316  42.299   7.438   5.850
 8186POPC   GL162317  42.328   7.420   6.150
 8186POPC   GL262318  42.245   7.465   6.150
 8186POPC   C1A62319  42.346   7.417   6.450
 8186POPC   D2A62320  42.384   7.390   6.750
 8186POPC   C3A62321  42.323   7.459   7.050
 8186POPC   C4A62322  42.327   7.417   7.350
 8186POPC   C1B62323  42.153   7.571   6.450
 8186POPC   C2B62324  42.143   7.627   6.750
 8186POPC   C3B62325  42.157   7.579   7.050
 8186POPC   C4B62326  42.166   7.613   7.350
 8187POPC   NC362327   6.660  36.897   5.550
 8187POPC   PO462328   6.641  36.929   5.850
 8187POPC   GL162329   6.624  36.923   6.150
 8187POPC   GL262330   6.648  37.049   6.150
 8187POPC   C1A62331   6.653  36.873   6.450
 8187POPC   D2A62332   6.665  36.878   6.750
 8187POPC   C3A62333   6.688  36.874   7.050
 8187POPC   C4A62334   6.625  36.929   7.350
 8187POPC   C1B62335   6.694  37.175   6.450
 8187POPC   C2B62336   6.648  37.161   6.750
 8187POPC   C3B62337   6.662  37.144   7.050
 8187POPC   C4B62338   6.720  37.137   7.350
 8188POPC   NC362339  29.893  15.130   5.550
 8188POPC   PO462340  29.916  15.209   5.850
 8188POPC   GL162341  29.912  15.167   6.150
 8188POPC   GL262342  29.834  15.165   6.150
 8188POPC   C1A62343  29.967  15.227   6.450
 8188POPC   D2A62344  29.882  15.176   6.750
 8188POPC   C3A62345  29.881  15.162   7.050
 8188POPC   C4A62346  29.902  15.185   7.350
 8188POPC   C1B62347  29.656  15.187   6.450
 8188POPC   C2B62348  29.646  15.197   6.750
 8188POPC   C3B62349  29.655  15.147   7.050
 8188POPC   C4B62350  29.627  15.175   7.350
 8189POPC   NC362351   8.208  29.943   5.550
 8189POPC   PO462352   8.190  29.928   5.850
 8189POPC   GL162353   8.187  29.910   6.150
 8189POPC   GL262354   8.300  29.852   6.150
 8189POPC   C1A62355   8.147  29.967   6.450
 8189POPC   D2A62356   8.197  29.968   6.750
 8189POPC   C3A62357   8.190  29.933   7.050
 8189POPC   C4A62358   8.233  29.951   7.350
 8189POPC   C1B62359   8.360  29.759   6.450
 8189POPC   C2B62360   8.319  29.671   6.750
 8189POPC   C3B62361   8.318  29.762   7.050
 8189POPC   C4B62362   8.361  29.709   7.350
 8190POPC   NC362363  30.736  26.860   5.550
 8190POPC   PO462364  30.711  26.787   5.850
 8190POPC   GL162365  30.670  26.830   6.150
 8190POPC   GL262366  30.774  26.703   6.150
 8190POPC   C1A62367  30.691  26.833   6.450
 8190POPC   D2A62368  30.690  26.792   6.750
 8190POPC   C3A62369  30.683  26.829   7.050
 8190POPC   C4A62370  30.719  26.781   7.350
 8190POPC   C1B62371  30.860  26.657   6.450
 8190POPC   C2B62372  30.854  26.650   6.750
 8190POPC   C3B62373  30.844  26.632   7.050
 8190POPC   C4B62374  30.832  26.640   7.350
 8191POPC   NC362375  43.136  19.861   5.550
 8191POPC   PO462376  43.158  19.862   5.850
 8191POPC   GL162377  43.088  19.789   6.150
 8191POPC   GL262378  43.028  19.709   6.150
 8191POPC   C1A62379  43.093  19.834   6.450
 8191POPC   D2A62380  43.076  19.800   6.750
 8191POPC   C3A62381  43.137  19.881   7.050
 8191POPC   C4A62382  43.160  19.882   7.350
 8191POPC   C1B62383  43.012  19.641   6.450
 8191POPC   C2B62384  42.952  19.619   6.750
 8191POPC   C3B62385  42.936  19.622   7.050
 8191POPC   C4B62386  42.961  19.582   7.350
 8192POPC   NC362387   3.568   0.480   5.550
 8192POPC   PO462388   3.554   0.412   5.850
 8192POPC   GL162389   3.523   0.410   6.150
 8192POPC   GL262390   3.615   0.560   6.150
 8192POPC   C1A62391   3.557   0.431   6.450
 8192POPC   D2A62392   3.527   0.438   6.750
 8192POPC   C3A62393   3.505   0.480   7.050
 8192POPC   C4A62394   3.513   0.472   7.350
 8192POPC   C1B62395   3.714   0.544   6.450
 8192POPC   C2B62396   3.701   0.604   6.750
 8192POPC   C3B62397   3.779   0.552   7.050
 8192POPC   C4B62398   3.712   0.565   7.350
 8193POPC   NC362399  33.825   3.496   5.550
 8193POPC   PO462400  33.770   3.575   5.850
 8193POPC   GL162401  33.826   3.535   6.150
 8193POPC   GL262402  33.627   3.532   6.150
 8193POPC   C1A62403  33.821   3.525   6.450
 8193POPC   D2A62404  33.806   3.507   6.750
 8193POPC   C3A62405  33.764   3.545   7.050
 8193POPC   C4A62406  33.766   3.514   7.350
 8193POPC   C1B62407  33.530   3.520   6.450
 8193POPC   C2B62408  33.546   3.566   6.750
 8193POPC   C3B62409  33.541   3.586   7.050
 8193POPC   C4B62410  33.543   3.543   7.350
 8194POPC   NC362411  44.672  42.383   5.550
 8194POPC   PO462412  44.627  42.352   5.850
 8194POPC   GL162413  44.643  42.314   6.150
 8194POPC   GL262414  44.724  42.434   6.150
 8194POPC   C1A62415  44.658  42.358   6.450
 8194POPC   D2A62416  44.675  42.375   6.750
 8194POPC   C3A62417  44.648  42.336   7.050
 8194POPC   C4A62418  44.650  42.321   7.350
 8194POPC   C1B62419  44.862  42.457   6.450
 8194POPC   C2B62420  44.869  42.462   6.750
 8194POPC   C3B62421  44.872  42.501   7.050
 8194POPC   C4B62422  44.804  42.483   7.350
 8195POPC   NC362423  43.095  22.958   5.550
 8195POPC   PO462424  43.138  22.911   5.850
 8195POPC   GL162425  43.122  22.944   6.150
 8195POPC   GL262426  43.255  22.972   6.150
 8195POPC   C1A62427  43.095  22.987   6.450
 8195POPC   D2A62428  43.140  22.984   6.750
 8195POPC   C3A62429  43.133  22.960   7.050
 8195POPC   C4A62430  43.068  22.953   7.350
 8195POPC   C1B62431  43.287  23.139   6.450
 8195POPC   C2B62432  43.317  23.121   6.750
 8195POPC   C3B62433  43.313  23.093   7.050
 8195POPC   C4B62434  43.359  23.049   7.350
 8196POPC   NC362435  16.687  26.036   5.550
 8196POPC   PO462436  16.687  26.068   5.850
 8196POPC   GL162437  16.707  26.013   6.150
 8196POPC   GL262438  16.756  26.177   6.150
 8196POPC   C1A62439  16.730  26.056   6.450
 8196POPC   D2A62440  16.776  26.063   6.750
 8196POPC   C3A62441  16.778  26.037   7.050
 8196POPC   C4A62442  16.685  26.041   7.350
 8196POPC   C1B62443  16.868  26.282   6.450
 8196POPC   C2B62444  16.891  26.291   6.750
 8196POPC   C3B62445  16.896  26.248   7.050
 8196POPC   C4B62446  16.839  26.276   7.350
 8197POPC   NC362447  13.625   2.805   5.550
 8197POPC   PO462448  13.650   2.717   5.850
 8197POPC   GL162449  13.622   2.791   6.150
 8197POPC   GL262450  13.456   2.786   6.150
 8197POPC   C1A62451  13.578   2.791   6.450
 8197POPC   D2A62452  13.677   2.796   6.750
 8197POPC   C3A62453  13.673   2.743   7.050
 8197POPC   C4A62454  13.602   2.728   7.350
 8197POPC   C1B62455  13.349   2.761   6.450
 8197POPC   C2B62456  13.369   2.676   6.750
 8197POPC   C3B62457  13.394   2.725   7.050
 8197POPC   C4B62458  13.388   2.740   7.350
 8198POPC   NC362459  32.241  38.414   5.550
 8198POPC   PO462460  32.237  38.422   5.850
 8198POPC   GL162461  32.224  38.410   6.150
 8198POPC   GL262462  32.247  38.538   6.150
 8198POPC   C1A62463  32.254  38.469   6.450
 8198POPC   D2A62464  32.208  38.450   6.750
 8198POPC   C3A62465  32.214  38.471   7.050
 8198POPC   C4A62466  32.260  38.456   7.350
 8198POPC   C1B62467  32.270  38.698   6.450
 8198POPC   C2B62468  32.255  38.678   6.750
 8198POPC   C3B62469  32.279  38.660   7.050
 8198POPC   C4B62470  32.241  38.723   7.350
 8199POPC   NC362471   5.127  21.342   5.550
 8199POPC   PO462472   5.117  21.391   5.850
 8199POPC   GL162473   5.096  21.363   6.150
 8199POPC   GL262474   4.920  21.341   6.150
 8199POPC   C1A62475   5.123  21.428   6.450
 8199POPC   D2A62476   5.130  21.421   6.750
 8199POPC   C3A62477   5.121  21.344   7.050
 8199POPC   C4A62478   5.136  21.369   7.350
 8199POPC   C1B62479   4.863  21.422   6.450
 8199POPC   C2B62480   4.850  21.408   6.750
 8199POPC   C3B62481   4.882  21.396   7.050
 8199POPC   C4B62482   4.830  21.409   7.350
 8200POPC   NC362483   8.187  15.152   5.550
 8200POPC   PO462484   8.168  15.180   5.850
 8200POPC   GL162485   8.244  15.173   6.150
 8200POPC   GL262486   8.070  15.185   6.150
 8200POPC   C1A62487   8.164  15.164   6.450
 8200POPC   D2A62488   8.179  15.228   6.750
 8200POPC   C3A62489   8.195  15.191   7.050
 8200POPC   C4A62490   8.191  15.219   7.350
 8200POPC   C1B62491   7.933  15.205   6.450
 8200POPC   C2B62492   7.963  15.205   6.750
 8200POPC   C3B62493   7.965  15.188   7.050
 8200POPC   C4B62494   7.902  15.206   7.350
 8201POPC   NC362495  13.612  30.721   5.550
 8201POPC   PO462496  13.612  30.648   5.850
 8201POPC   GL162497  13.588  30.679   6.150
 8201POPC   GL262498  13.729  30.541   6.150
 8201POPC   C1A62499  13.598  30.696   6.450
 8201POPC   D2A62500  13.651  30.729   6.750
 8201POPC   C3A62501  13.580  30.724   7.050
 8201POPC   C4A62502  13.600  30.723   7.350
 8201POPC   C1B62503  13.722  30.506   6.450
 8201POPC   C2B62504  13.724  30.447   6.750
 8201POPC   C3B62505  13.715  30.481   7.050
 8201POPC   C4B62506  13.682  30.437   7.350
 8202POPC   NC362507  16.743  30.729   5.550
 8202POPC   PO462508  16.685  30.701   5.850
 8202POPC   GL162509  16.716  30.685   6.150
 8202POPC   GL262510  16.651  30.542   6.150
 8202POPC   C1A62511  16.734  30.656   6.450
 8202POPC   D2A62512  16.720  30.713   6.750
 8202POPC   C3A62513  16.722  30.727   7.050
 8202POPC   C4A62514  16.682  30.734   7.350
 8202POPC   C1B62515  16.632  30.489   6.450
 8202POPC   C2B62516  16.572  30.533   6.750
 8202POPC   C3B62517  16.572  30.454   7.050
 8202POPC   C4B62518  16.640  30.504   7.350
 8203POPC   NC362519   9.759  19.846   5.550
 8203POPC   PO462520   9.747  19.804   5.850
 8203POPC   GL162521   9.748  19.874   6.150
 8203POPC   GL262522   9.714  19.669   6.150
 8203POPC   C1A62523   9.765  19.825   6.450
 8203POPC   D2A62524   9.704  19.815   6.750
 8203POPC   C3A62525   9.721  19.799   7.050
 8203POPC   C4A62526   9.756  19.851   7.350
 8203POPC   C1B62527   9.696  19.592   6.450
 8203POPC   C2B62528   9.690  19.580   6.750
 8203POPC   C3B62529   9.698  19.595   7.050
 8203POPC   C4B62530   9.696  19.538   7.350
 8204POPC   NC362531  35.341  41.540   5.550
 8204POPC   PO462532  35.392  41.600   5.850
 8204POPC   GL162533  35.360  41.541   6.150
 8204POPC   GL262534  35.186  41.562   6.150
 8204POPC   C1A62535  35.392  41.587   6.450
 8204POPC   D2A62536  35.355  41.529   6.750
 8204POPC   C3A62537  35.401  41.591   7.050
 8204POPC   C4A62538  35.326  41.539   7.350
 8204POPC   C1B62539  35.127  41.643   6.450
 8204POPC   C2B62540  35.086  41.600   6.750
 8204POPC   C3B62541  35.086  41.636   7.050
 8204POPC   C4B62542  35.131  41.637   7.350
 8205POPC   NC362543  36.177  22.129   5.550
 8205POPC   PO462544  36.095  22.174   5.850
 8205POPC   GL162545  36.168  22.194   6.150
 8205POPC   GL262546  36.137  22.085   6.150
 8205POPC   C1A62547  36.153  22.186   6.450
 8205POPC   D2A62548  36.175  22.121   6.750
 8205POPC   C3A62549  36.160  22.155   7.050
 8205POPC   C4A62550  36.171  22.169   7.350
 8205POPC   C1B62551  36.045  21.902   6.450
 8205POPC   C2B62552  36.082  21.925   6.750
 8205POPC   C3B62553  36.090  21.938   7.050
 8205POPC   C4B62554  36.058  21.886   7.350
 8206POPC   NC362555  17.477  10.536   5.550
 8206POPC   PO462556  17.466  10.571   5.850
 8206POPC   GL162557  17.514  10.544   6.150
 8206POPC   GL262558  17.629  10.478   6.150
 8206POPC   C1A62559  17.514  10.497   6.450
 8206POPC   D2A62560  17.547  10.503   6.750
 8206POPC   C3A62561  17.484  10.555   7.050
 8206POPC   C4A62562  17.506  10.499   7.350
 8206POPC   C1B62563  17.747  10.479   6.450
 8206POPC   C2B62564  17.721  10.408   6.750
 8206POPC   C3B62565  17.755  10.438   7.050
 8206POPC   C4B62566  17.743  10.432   7.350
 8207POPC   NC362567  26.033  26.850   5.550
 8207POPC   PO462568  26.017  26.811   5.850
 8207POPC   GL162569  26.033  26.817   6.150
 8207POPC   GL262570  26.133  26.867   6.150
 8207POPC   C1A62571  26.073  26.856   6.450
 8207POPC   D2A62572  26.074  26.829   6.750
 8207POPC   C3A62573  26.017  26.825   7.050
 8207POPC   C4A62574  26.018  26.785   7.350
 8207POPC   C1B62575  26.251  26.828   6.450
 8207POPC   C2B62576  26.316  26.890   6.750
 8207POPC   C3B62577  26.329  26.902   7.050
 8207POPC   C4B62578  26.283  26.872   7.350
 8208POPC   NC362579   5.843  30.720   5.550
 8208POPC   PO462580   5.857  30.690   5.850
 8208POPC   GL162581   5.914  30.691   6.150
 8208POPC   GL262582   6.018  30.590   6.150
 8208POPC   C1A62583   5.874  30.677   6.450
 8208POPC   D2A62584   5.874  30.730   6.750
 8208POPC   C3A62585   5.866  30.735   7.050
 8208POPC   C4A62586   5.900  30.661   7.350
 8208POPC   C1B62587   6.044  30.547   6.450
 8208POPC   C2B62588   6.104  30.538   6.750
 8208POPC   C3B62589   6.044  30.532   7.050
 8208POPC   C4B62590   6.071  30.550   7.350
 8209POPC   NC362591  13.609  28.329   5.550
 8209POPC   PO462592  13.648  28.341   5.850
 8209POPC   GL162593  13.674  28.377   6.150
 8209POPC   GL262594  13.687  28.259   6.150
 8209POPC   C1A62595  13.596  28.322   6.450
 8209POPC   D2A62596  13.600  28.344   6.750
 8209POPC   C3A62597  13.579  28.342   7.050
 8209POPC   C4A62598  13.584  28.366   7.350
 8209POPC   C1B62599  13.763  28.174   6.450
 8209POPC   C2B62600  13.833  28.182   6.750
 8209POPC   C3B62601  13.775  28.201   7.050
 8209POPC   C4B62602  13.771  28.236   7.350
 8210POPC   NC362603   4.301  22.968   5.550
 8210POPC   PO462604   4.281  22.908   5.850
 8210POPC   GL162605   4.328  22.982   6.150
 8210POPC   GL262606   4.222  22.949   6.150
 8210POPC   C1A62607   4.321  22.924   6.450
 8210POPC   D2A62608   4.324  22.972   6.750
 8210POPC   C3A62609   4.308  22.951   7.050
 8210POPC   C4A62610   4.334  22.938   7.350
 8210POPC   C1B62611   4.028  22.977   6.450
 8210POPC   C2B62612   4.029  22.964   6.750
 8210POPC   C3B62613   4.051  22.911   7.050
 8210POPC   C4B62614   4.053  22.952   7.350
 8211POPC   NC362615  10.524  21.371   5.550
 8211POPC   PO462616  10.501  21.405   5.850
 8211POPC   GL162617  10.551  21.343   6.150
 8211POPC   GL262618  10.675  21.358   6.150
 8211POPC   C1A62619  10.547  21.392   6.450
 8211POPC   D2A62620  10.479  21.420   6.750
 8211POPC   C3A62621  10.483  21.413   7.050
 8211POPC   C4A62622  10.549  21.364   7.350
 8211POPC   C1B62623  10.743  21.266   6.450
 8211POPC   C2B62624  10.729  21.263   6.750
 8211POPC   C3B62625  10.778  21.291   7.050
 8211POPC   C4B62626  10.752  21.278   7.350
 8212POPC   NC362627  12.068   9.719   5.550
 8212POPC   PO462628  12.077   9.723   5.850
 8212POPC   GL162629  12.041   9.797   6.150
 8212POPC   GL262630  12.048   9.615   6.150
 8212POPC   C1A62631  12.071   9.760   6.450
 8212POPC   D2A62632  12.070   9.727   6.750
 8212POPC   C3A62633  12.086   9.702   7.050
 8212POPC   C4A62634  12.067   9.711   7.350
 8212POPC   C1B62635  11.952   9.481   6.450
 8212POPC   C2B62636  11.933   9.507   6.750
 8212POPC   C3B62637  11.975   9.567   7.050
 8212POPC   C4B62638  11.966   9.505   7.350
 8213POPC   NC362639  31.463  36.155   5.550
 8213POPC   PO462640  31.508  36.140   5.850
 8213POPC   GL162641  31.426  36.078   6.150
 8213POPC   GL262642  31.502  36.030   6.150
 8213POPC   C1A62643  31.435  36.083   6.450
 8213POPC   D2A62644  31.450  36.101   6.750
 8213POPC   C3A62645  31.503  36.080   7.050
 8213POPC   C4A62646  31.515  36.126   7.350
 8213POPC   C1B62647  31.591  35.875   6.450
 8213POPC   C2B62648  31.532  35.905   6.750
 8213POPC   C3B62649  31.612  35.917   7.050
 8213POPC   C4B62650  31.550  35.859   7.350
 8214POPC   NC362651  31.447  19.863   5.550
 8214POPC   PO462652  31.498  19.869   5.850
 8214POPC   GL162653  31.491  19.813   6.150
 8214POPC   GL262654  31.596  19.889   6.150
 8214POPC   C1A62655  31.506  19.815   6.450
 8214POPC   D2A62656  31.431  19.830   6.750
 8214POPC   C3A62657  31.504  19.857   7.050
 8214POPC   C4A62658  31.423  19.867   7.350
 8214POPC   C1B62659  31.689  20.034   6.450
 8214POPC   C2B62660  31.683  20.007   6.750
 8214POPC   C3B62661  31.619  20.002   7.050
 8214POPC   C4B62662  31.645  20.026   7.350
 8215POPC   NC362663  32.981  42.359   5.550
 8215POPC   PO462664  32.979  42.332   5.850
 8215POPC   GL162665  33.047  42.381   6.150
 8215POPC   GL262666  32.895  42.271   6.150
 8215POPC   C1A62667  33.035  42.354   6.450
 8215POPC   D2A62668  32.986  42.355   6.750
 8215POPC   C3A62669  33.030  42.320   7.050
 8215POPC   C4A62670  32.985  42.383   7.350
 8215POPC   C1B62671  32.810  42.232   6.450
 8215POPC   C2B62672  32.818  42.233   6.750
 8215POPC   C3B62673  32.780  42.273   7.050
 8215POPC   C4B62674  32.825  42.196   7.350
 8216POPC   NC362675   8.204   5.831   5.550
 8216POPC   PO462676   8.176   5.885   5.850
 8216POPC   GL162677   8.200   5.854   6.150
 8216POPC   GL262678   8.358   5.923   6.150
 8216POPC   C1A62679   8.180   5.820   6.450
 8216POPC   D2A62680   8.232   5.904   6.750
 8216POPC   C3A62681   8.190   5.911   7.050
 8216POPC   C4A62682   8.220   5.865   7.350
 8216POPC   C1B62683   8.466   5.898   6.450
 8216POPC   C2B62684   8.422   5.972   6.750
 8216POPC   C3B62685   8.407   5.893   7.050
 8216POPC   C4B62686   8.406   5.982   7.350
 8217POPC   NC362687  26.778  23.756   5.550
 8217POPC   PO462688  26.831  23.712   5.850
 8217POPC   GL162689  26.847  23.713   6.150
 8217POPC   GL262690  26.862  23.866   6.150
 8217POPC   C1A62691  26.813  23.740   6.450
 8217POPC   D2A62692  26.797  23.720   6.750
 8217POPC   C3A62693  26.850  23.688   7.050
 8217POPC   C4A62694  26.799  23.731   7.350
 8217POPC   C1B62695  26.955  23.967   6.450
 8217POPC   C2B62696  26.953  23.969   6.750
 8217POPC   C3B62697  26.943  23.944   7.050
 8217POPC   C4B62698  26.976  23.929   7.350
 8218POPC   NC362699  37.704  43.130   5.550
 8218POPC   PO462700  37.636  43.140   5.850
 8218POPC   GL162701  37.640  43.118   6.150
 8218POPC   GL262702  37.786  43.158   6.150
 8218POPC   C1A62703  37.693  43.098   6.450
 8218POPC   D2A62704  37.705  43.103   6.750
 8218POPC   C3A62705  37.673  43.108   7.050
 8218POPC   C4A62706  37.657  43.149   7.350
 8218POPC   C1B62707  37.970  43.144   6.450
 8218POPC   C2B62708  37.961  43.140   6.750
 8218POPC   C3B62709  37.886  43.161   7.050
 8218POPC   C4B62710  37.928  43.102   7.350
 8219POPC   NC362711   1.182  39.270   5.550
 8219POPC   PO462712   1.213  39.210   5.850
 8219POPC   GL162713   1.180  39.236   6.150
 8219POPC   GL262714   1.107  39.246   6.150
 8219POPC   C1A62715   1.164  39.191   6.450
 8219POPC   D2A62716   1.257  39.195   6.750
 8219POPC   C3A62717   1.172  39.231   7.050
 8219POPC   C4A62718   1.181  39.208   7.350
 8219POPC   C1B62719   1.015  39.365   6.450
 8219POPC   C2B62720   0.989  39.354   6.750
 8219POPC   C3B62721   0.970  39.321   7.050
 8219POPC   C4B62722   0.971  39.344   7.350
 8220POPC   NC362723   4.313  19.865   5.550
 8220POPC   PO462724   4.363  19.803   5.850
 8220POPC   GL162725   4.269  19.871   6.150
 8220POPC   GL262726   4.236  19.965   6.150
 8220POPC   C1A62727   4.274  19.823   6.450
 8220POPC   D2A62728   4.327  19.785   6.750
 8220POPC   C3A62729   4.356  19.856   7.050
 8220POPC   C4A62730   4.333  19.870   7.350
 8220POPC   C1B62731   4.147  20.007   6.450
 8220POPC   C2B62732   4.202  19.997   6.750
 8220POPC   C3B62733   4.159  20.076   7.050
 8220POPC   C4B62734   4.207  20.001   7.350
 8221POPC   NC362735  26.815  28.329   5.550
 8221POPC   PO462736  26.838  28.390   5.850
 8221POPC   GL162737  26.769  28.386   6.150
 8221POPC   GL262738  26.748  28.258   6.150
 8221POPC   C1A62739  26.823  28.372   6.450
 8221POPC   D2A62740  26.839  28.342   6.750
 8221POPC   C3A62741  26.776  28.392   7.050
 8221POPC   C4A62742  26.841  28.339   7.350
 8221POPC   C1B62743  26.659  28.223   6.450
 8221POPC   C2B62744  26.594  28.197   6.750
 8221POPC   C3B62745  26.624  28.241   7.050
 8221POPC   C4B62746  26.664  28.191   7.350
 8222POPC   NC362747   2.778  12.847   5.550
 8222POPC   PO462748   2.755  12.849   5.850
 8222POPC   GL162749   2.777  12.831   6.150
 8222POPC   GL262750   2.771  12.961   6.150
 8222POPC   C1A62751   2.734  12.849   6.450
 8222POPC   D2A62752   2.814  12.867   6.750
 8222POPC   C3A62753   2.812  12.898   7.050
 8222POPC   C4A62754   2.790  12.840   7.350
 8222POPC   C1B62755   2.807  13.072   6.450
 8222POPC   C2B62756   2.813  13.084   6.750
 8222POPC   C3B62757   2.851  13.052   7.050
 8222POPC   C4B62758   2.804  13.115   7.350
 8223POPC   NC362759   2.804  15.974   5.550
 8223POPC   PO462760   2.754  15.936   5.850
 8223POPC   GL162761   2.756  15.963   6.150
 8223POPC   GL262762   2.886  16.063   6.150
 8223POPC   C1A62763   2.765  15.974   6.450
 8223POPC   D2A62764   2.753  15.992   6.750
 8223POPC   C3A62765   2.804  15.955   7.050
 8223POPC   C4A62766   2.778  15.942   7.350
 8223POPC   C1B62767   2.918  16.151   6.450
 8223POPC   C2B62768   2.925  16.154   6.750
 8223POPC   C3B62769   2.991  16.098   7.050
 8223POPC   C4B62770   2.954  16.139   7.350
 8224POPC   NC362771  19.816  31.506   5.550
 8224POPC   PO462772  19.810  31.458   5.850
 8224POPC   GL162773  19.842  31.518   6.150
 8224POPC   GL262774  19.966  31.511   6.150
 8224POPC   C1A62775  19.813  31.456   6.450
 8224POPC   D2A62776  19.884  31.504   6.750
 8224POPC   C3A62777  19.822  31.493   7.050
 8224POPC   C4A62778  19.882  31.474   7.350
 8224POPC   C1B62779  20.047  31.587   6.450
 8224POPC   C2B62780  20.075  31.625   6.750
 8224POPC   C3B62781  20.025  31.648   7.050
 8224POPC   C4B62782  20.042  31.656   7.350
 8225POPC   NC362783  41.512  22.897   5.550
 8225POPC   PO462784  41.519  22.906   5.850
 8225POPC   GL162785  41.588  22.953   6.150
 8225POPC   GL262786  41.557  23.018   6.150
 8225POPC   C1A62787  41.514  22.921   6.450
 8225POPC   D2A62788  41.538  22.914   6.750
 8225POPC   C3A62789  41.529  22.911   7.050
 8225POPC   C4A62790  41.594  22.970   7.350
 8225POPC   C1B62791  41.630  23.166   6.450
 8225POPC   C2B62792  41.620  23.222   6.750
 8225POPC   C3B62793  41.609  23.150   7.050
 8225POPC   C4B62794  41.573  23.180   7.350
 8226POPC   NC362795  31.493   5.076   5.550
 8226POPC   PO462796  31.509   5.114   5.850
 8226POPC   GL162797  31.433   5.085   6.150
 8226POPC   GL262798  31.400   4.965   6.150
 8226POPC   C1A62799  31.515   5.082   6.450
 8226POPC   D2A62800  31.476   5.139   6.750
 8226POPC   C3A62801  31.477   5.050   7.050
 8226POPC   C4A62802  31.431   5.109   7.350
 8226POPC   C1B62803  31.301   4.833   6.450
 8226POPC   C2B62804  31.320   4.889   6.750
 8226POPC   C3B62805  31.399   4.881   7.050
 8226POPC   C4B62806  31.390   4.872   7.350
 8227POPC   NC362807   0.467  15.961   5.550
 8227POPC   PO462808   0.409  15.914   5.850
 8227POPC   GL162809   0.429  15.940   6.150
 8227POPC   GL262810   0.398  16.024   6.150
 8227POPC   C1A62811   0.456  15.906   6.450
 8227POPC   D2A62812   0.396  15.924   6.750
 8227POPC   C3A62813   0.390  15.914   7.050
 8227POPC   C4A62814   0.431  15.980   7.350
 8227POPC   C1B62815   0.311  16.208   6.450
 8227POPC   C2B62816   0.298  16.166   6.750
 8227POPC   C3B62817   0.322  16.171   7.050
 8227POPC   C4B62818   0.279  16.167   7.350
 8228POPC   NC362819  20.651  29.922   5.550
 8228POPC   PO462820  20.599  29.931   5.850
 8228POPC   GL162821  20.612  29.964   6.150
 8228POPC   GL262822  20.639  30.019   6.150
 8228POPC   C1A62823  20.604  29.941   6.450
 8228POPC   D2A62824  20.580  29.970   6.750
 8228POPC   C3A62825  20.590  29.949   7.050
 8228POPC   C4A62826  20.619  29.939   7.350
 8228POPC   C1B62827  20.738  30.164   6.450
 8228POPC   C2B62828  20.684  30.198   6.750
 8228POPC   C3B62829  20.738  30.156   7.050
 8228POPC   C4B62830  20.687  30.117   7.350
 8229POPC   NC362831   9.783  25.216   5.550
 8229POPC   PO462832   9.790  25.306   5.850
 8229POPC   GL162833   9.721  25.255   6.150
 8229POPC   GL262834   9.645  25.197   6.150
 8229POPC   C1A62835   9.701  25.245   6.450
 8229POPC   D2A62836   9.741  25.261   6.750
 8229POPC   C3A62837   9.739  25.239   7.050
 8229POPC   C4A62838   9.767  25.226   7.350
 8229POPC   C1B62839   9.579  25.053   6.450
 8229POPC   C2B62840   9.561  25.087   6.750
 8229POPC   C3B62841   9.609  25.029   7.050
 8229POPC   C4B62842   9.554  25.031   7.350
 8230POPC   NC362843  19.864  11.309   5.550
 8230POPC   PO462844  19.820  11.318   5.850
 8230POPC   GL162845  19.790  11.284   6.150
 8230POPC   GL262846  19.907  11.436   6.150
 8230POPC   C1A62847  19.799  11.302   6.450
 8230POPC   D2A62848  19.865  11.272   6.750
 8230POPC   C3A62849  19.881  11.291   7.050
 8230POPC   C4A62850  19.826  11.283   7.350
 8230POPC   C1B62851  19.988  11.522   6.450
 8230POPC   C2B62852  19.997  11.522   6.750
 8230POPC   C3B62853  19.953  11.553   7.050
 8230POPC   C4B62854  20.024  11.508   7.350
 8231POPC   NC362855  39.969  21.413   5.550
 8231POPC   PO462856  39.973  21.382   5.850
 8231POPC   GL162857  40.043  21.347   6.150
 8231POPC   GL262858  39.955  21.512   6.150
 8231POPC   C1A62859  39.998  21.432   6.450
 8231POPC   D2A62860  40.000  21.338   6.750
 8231POPC   C3A62861  40.023  21.342   7.050
 8231POPC   C4A62862  39.964  21.362   7.350
 8231POPC   C1B62863  39.859  21.569   6.450
 8231POPC   C2B62864  39.855  21.569   6.750
 8231POPC   C3B62865  39.789  21.545   7.050
 8231POPC   C4B62866  39.870  21.601   7.350
 8232POPC   NC362867  30.728  44.693   5.550
 8232POPC   PO462868  30.712  44.631   5.850
 8232POPC   GL162869  30.726  44.646   6.150
 8232POPC   GL262870  30.810  44.592   6.150
 8232POPC   C1A62871  30.722  44.641   6.450
 8232POPC   D2A62872  30.665  44.704   6.750
 8232POPC   C3A62873  30.671  44.631   7.050
 8232POPC   C4A62874  30.683  44.709   7.350
 8232POPC   C1B62875  30.866  44.478   6.450
 8232POPC   C2B62876  30.854  44.428   6.750
 8232POPC   C3B62877  30.852  44.443   7.050
 8232POPC   C4B62878  30.830  44.444   7.350
 8233POPC   NC362879   1.943  29.899   5.550
 8233POPC   PO462880   1.962  29.964   5.850
 8233POPC   GL162881   2.030  29.941   6.150
 8233POPC   GL262882   1.915  30.006   6.150
 8233POPC   C1A62883   1.956  29.916   6.450
 8233POPC   D2A62884   1.996  29.897   6.750
 8233POPC   C3A62885   2.038  29.948   7.050
 8233POPC   C4A62886   1.976  29.939   7.350
 8233POPC   C1B62887   1.929  30.131   6.450
 8233POPC   C2B62888   1.980  30.208   6.750
 8233POPC   C3B62889   1.956  30.213   7.050
 8233POPC   C4B62890   1.915  30.176   7.350
 8234POPC   NC362891  21.362  12.095   5.550
 8234POPC   PO462892  21.375  12.120   5.850
 8234POPC   GL162893  21.342  12.114   6.150
 8234POPC   GL262894  21.366  12.184   6.150
 8234POPC   C1A62895  21.397  12.092   6.450
 8234POPC   D2A62896  21.431  12.047   6.750
 8234POPC   C3A62897  21.406  12.049   7.050
 8234POPC   C4A62898  21.357  12.042   7.350
 8234POPC   C1B62899  21.420  12.370   6.450
 8234POPC   C2B62900  21.380  12.338   6.750
 8234POPC   C3B62901  21.397  12.335   7.050
 8234POPC   C4B62902  21.447  12.292   7.350
 8235POPC   NC362903  13.674  21.364   5.550
 8235POPC   PO462904  13.650  21.430   5.850
 8235POPC   GL162905  13.594  21.349   6.150
 8235POPC   GL262906  13.552  21.488   6.150
 8235POPC   C1A62907  13.658  21.345   6.450
 8235POPC   D2A62908  13.644  21.421   6.750
 8235POPC   C3A62909  13.632  21.363   7.050
 8235POPC   C4A62910  13.657  21.421   7.350
 8235POPC   C1B62911  13.514  21.583   6.450
 8235POPC   C2B62912  13.543  21.654   6.750
 8235POPC   C3B62913  13.536  21.631   7.050
 8235POPC   C4B62914  13.545  21.596   7.350
 8236POPC   NC362915  39.271  12.120   5.550
 8236POPC   PO462916  39.216  12.124   5.850
 8236POPC   GL162917  39.217  12.082   6.150
 8236POPC   GL262918  39.206  12.163   6.150
 8236POPC   C1A62919  39.228  12.075   6.450
 8236POPC   D2A62920  39.216  12.120   6.750
 8236POPC   C3A62921  39.226  12.070   7.050
 8236POPC   C4A62922  39.194  12.077   7.350
 8236POPC   C1B62923  39.144  12.287   6.450
 8236POPC   C2B62924  39.101  12.280   6.750
 8236POPC   C3B62925  39.067  12.290   7.050
 8236POPC   C4B62926  39.063  12.250   7.350
 8237POPC   NC362927  17.523  27.595   5.550
 8237POPC   PO462928  17.532  27.595   5.850
 8237POPC   GL162929  17.557  27.561   6.150
 8237POPC   GL262930  17.565  27.700   6.150
 8237POPC   C1A62931  17.482  27.593   6.450
 8237POPC   D2A62932  17.487  27.608   6.750
 8237POPC   C3A62933  17.547  27.623   7.050
 8237POPC   C4A62934  17.529  27.638   7.350
 8237POPC   C1B62935  17.667  27.725   6.450
 8237POPC   C2B62936  17.716  27.741   6.750
 8237POPC   C3B62937  17.739  27.759   7.050
 8237POPC   C4B62938  17.708  27.763   7.350
 8238POPC   NC362939  12.831  29.884   5.550
 8238POPC   PO462940  12.807  29.894   5.850
 8238POPC   GL162941  12.873  29.933   6.150
 8238POPC   GL262942  13.008  29.971   6.150
 8238POPC   C1A62943  12.879  29.890   6.450
 8238POPC   D2A62944  12.875  29.918   6.750
 8238POPC   C3A62945  12.874  29.915   7.050
 8238POPC   C4A62946  12.879  29.949   7.350
 8238POPC   C1B62947  13.058  29.993   6.450
 8238POPC   C2B62948  13.066  30.020   6.750
 8238POPC   C3B62949  13.077  29.993   7.050
 8238POPC   C4B62950  13.035  29.989   7.350
 8239POPC   NC362951  28.371  16.765   5.550
 8239POPC   PO462952  28.363  16.745   5.850
 8239POPC   GL162953  28.380  16.753   6.150
 8239POPC   GL262954  28.385  16.875   6.150
 8239POPC   C1A62955  28.349  16.726   6.450
 8239POPC   D2A62956  28.376  16.716   6.750
 8239POPC   C3A62957  28.330  16.683   7.050
 8239POPC   C4A62958  28.413  16.697   7.350
 8239POPC   C1B62959  28.465  16.987   6.450
 8239POPC   C2B62960  28.434  16.913   6.750
 8239POPC   C3B62961  28.495  16.940   7.050
 8239POPC   C4B62962  28.469  16.963   7.350
 8240POPC   NC362963  41.595   2.808   5.550
 8240POPC   PO462964  41.534   2.790   5.850
 8240POPC   GL162965  41.561   2.808   6.150
 8240POPC   GL262966  41.438   2.777   6.150
 8240POPC   C1A62967  41.546   2.740   6.450
 8240POPC   D2A62968  41.529   2.772   6.750
 8240POPC   C3A62969  41.546   2.788   7.050
 8240POPC   C4A62970  41.532   2.727   7.350
 8240POPC   C1B62971  41.299   2.700   6.450
 8240POPC   C2B62972  41.299   2.718   6.750
 8240POPC   C3B62973  41.279   2.701   7.050
 8240POPC   C4B62974  41.322   2.723   7.350
 8241POPC   NC362975  36.905  43.107   5.550
 8241POPC   PO462976  36.953  43.114   5.850
 8241POPC   GL162977  36.880  43.123   6.150
 8241POPC   GL262978  37.055  43.040   6.150
 8241POPC   C1A62979  36.891  43.090   6.450
 8241POPC   D2A62980  36.878  43.116   6.750
 8241POPC   C3A62981  36.888  43.146   7.050
 8241POPC   C4A62982  36.857  43.072   7.350
 8241POPC   C1B62983  37.107  43.069   6.450
 8241POPC   C2B62984  37.155  43.042   6.750
 8241POPC   C3B62985  37.110  43.083   7.050
 8241POPC   C4B62986  37.108  43.029   7.350
 8242POPC   NC362987  22.918  32.266   5.550
 8242POPC   PO462988  22.981  32.286   5.850
 8242POPC   GL162989  22.895  32.290   6.150
 8242POPC   GL262990  23.063  32.107   6.150
 8242POPC   C1A62991  22.970  32.202   6.450
 8242POPC   D2A62992  22.920  32.236   6.750
 8242POPC   C3A62993  22.978  32.231   7.050
 8242POPC   C4A62994  22.909  32.212   7.350
 8242POPC   C1B62995  23.081  32.082   6.450
 8242POPC   C2B62996  23.130  32.076   6.750
 8242POPC   C3B62997  23.142  32.088   7.050
 8242POPC   C4B62998  23.134  32.081   7.350
 8243POPC   NC362999  16.748  39.247   5.550
 8243POPC   PO463000  16.741  39.257   5.850
 8243POPC   GL163001  16.703  39.268   6.150
 8243POPC   GL263002  16.796  39.188   6.150
 8243POPC   C1A63003  16.689  39.231   6.450
 8243POPC   D2A63004  16.686  39.225   6.750
 8243POPC   C3A63005  16.742  39.260   7.050
 8243POPC   C4A63006  16.750  39.184   7.350
 8243POPC   C1B63007  16.934  39.103   6.450
 8243POPC   C2B63008  16.982  39.112   6.750
 8243POPC   C3B63009  16.901  39.092   7.050
 8243POPC   C4B63010  16.926  39.102   7.350
 8244POPC   NC363011  26.090  14.430   5.550
 8244POPC   PO463012  26.063  14.438   5.850
 8244POPC   GL163013  26.002  14.419   6.150
 8244POPC   GL263014  25.926  14.260   6.150
 8244POPC   C1A63015  26.034  14.421   6.450
 8244POPC   D2A63016  26.090  14.387   6.750
 8244POPC   C3A63017  26.011  14.372   7.050
 8244POPC   C4A63018  26.079  14.402   7.350
 8244POPC   C1B63019  25.897  14.165   6.450
 8244POPC   C2B63020  25.875  14.168   6.750
 8244POPC   C3B63021  25.881  14.203   7.050
 8244POPC   C4B63022  25.849  14.194   7.350
 8245POPC   NC363023  44.710   8.956   5.550
 8245POPC   PO463024  44.646   8.999   5.850
 8245POPC   GL163025  44.615   8.944   6.150
 8245POPC   GL263026  44.790   8.969   6.150
 8245POPC   C1A63027  44.619   9.022   6.450
 8245POPC   D2A63028  44.692   8.993   6.750
 8245POPC   C3A63029  44.649   8.984   7.050
 8245POPC   C4A63030  44.677   8.982   7.350
 8245POPC   C1B63031  44.877   8.922   6.450
 8245POPC   C2B63032  44.939   8.864   6.750
 8245POPC   C3B63033  44.902   8.871   7.050
 8245POPC   C4B63034  44.862   8.917   7.350
 8246POPC   NC363035  18.278   1.252   5.550
 8246POPC   PO463036  18.270   1.192   5.850
 8246POPC   GL163037  18.304   1.237   6.150
 8246POPC   GL263038  18.312   1.132   6.150
 8246POPC   C1A63039  18.263   1.253   6.450
 8246POPC   D2A63040  18.303   1.199   6.750
 8246POPC   C3A63041  18.273   1.254   7.050
 8246POPC   C4A63042  18.244   1.241   7.350
 8246POPC   C1B63043  18.324   0.950   6.450
 8246POPC   C2B63044  18.337   1.010   6.750
 8246POPC   C3B63045  18.295   0.934   7.050
 8246POPC   C4B63046  18.321   0.958   7.350
 8247POPC   NC363047  13.584  12.885   5.550
 8247POPC   PO463048  13.619  12.846   5.850
 8247POPC   GL163049  13.650  12.887   6.150
 8247POPC   GL263050  13.595  12.726   6.150
 8247POPC   C1A63051  13.634  12.859   6.450
 8247POPC   D2A63052  13.649  12.860   6.750
 8247POPC   C3A63053  13.667  12.874   7.050
 8247POPC   C4A63054  13.624  12.828   7.350
 8247POPC   C1B63055  13.554  12.630   6.450
 8247POPC   C2B63056  13.605  12.566   6.750
 8247POPC   C3B63057  13.555  12.660   7.050
 8247POPC   C4B63058  13.568  12.566   7.350
 8248POPC   NC363059  25.307   3.543   5.550
 8248POPC   PO463060  25.271   3.520   5.850
 8248POPC   GL163061  25.312   3.514   6.150
 8248POPC   GL263062  25.223   3.639   6.150
 8248POPC   C1A63063  25.280   3.549   6.450
 8248POPC   D2A63064  25.246   3.572   6.750
 8248POPC   C3A63065  25.229   3.510   7.050
 8248POPC   C4A63066  25.266   3.539   7.350
 8248POPC   C1B63067  25.199   3.790   6.450
 8248POPC   C2B63068  25.239   3.829   6.750
 8248POPC   C3B63069  25.245   3.810   7.050
 8248POPC   C4B63070  25.203   3.808   7.350
 8249POPC   NC363071  40.049  19.824   5.550
 8249POPC   PO463072  39.995  19.785   5.850
 8249POPC   GL163073  40.019  19.795   6.150
 8249POPC   GL263074  39.963  19.930   6.150
 8249POPC   C1A63075  40.054  19.856   6.450
 8249POPC   D2A63076  39.998  19.875   6.750
 8249POPC   C3A63077  40.057  19.873   7.050
 8249POPC   C4A63078  40.054  19.858   7.350
 8249POPC   C1B63079  39.958  20.061   6.450
 8249POPC   C2B63080  40.023  20.061   6.750
 8249POPC   C3B63081  39.985  20.096   7.050
 8249POPC   C4B63082  40.025  20.048   7.350
 8250POPC   NC363083  12.029  15.965   5.550
 8250POPC   PO463084  12.042  15.943   5.850
 8250POPC   GL163085  12.104  15.918   6.150
 8250POPC   GL263086  11.929  15.932   6.150
 8250POPC   C1A63087  12.039  15.971   6.450
 8250POPC   D2A63088  12.092  15.921   6.750
 8250POPC   C3A63089  12.035  16.003   7.050
 8250POPC   C4A63090  12.052  15.986   7.350
 8250POPC   C1B63091  11.841  15.954   6.450
 8250POPC   C2B63092  11.865  15.951   6.750
 8250POPC   C3B63093  11.862  15.937   7.050
 8250POPC   C4B63094  11.801  16.012   7.350
 8251POPC   NC363095  23.675  29.176   5.550
 8251POPC   PO463096  23.672  29.154   5.850
 8251POPC   GL163097  23.669  29.144   6.150
 8251POPC   GL263098  23.686  29.218   6.150
 8251POPC   C1A63099  23.754  29.148   6.450
 8251POPC   D2A63100  23.754  29.166   6.750
 8251POPC   C3A63101  23.706  29.135   7.050
 8251POPC   C4A63102  23.727  29.172   7.350
 8251POPC   C1B63103  23.668  29.362   6.450
 8251POPC   C2B63104  23.635  29.402   6.750
 8251POPC   C3B63105  23.646  29.373   7.050
 8251POPC   C4B63106  23.667  29.373   7.350
 8252POPC   NC363107  32.217  21.356   5.550
 8252POPC   PO463108  32.214  21.422   5.850
 8252POPC   GL163109  32.251  21.419   6.150
 8252POPC   GL263110  32.167  21.384   6.150
 8252POPC   C1A63111  32.292  21.380   6.450
 8252POPC   D2A63112  32.278  21.369   6.750
 8252POPC   C3A63113  32.230  21.354   7.050
 8252POPC   C4A63114  32.212  21.357   7.350
 8252POPC   C1B63115  31.973  21.443   6.450
 8252POPC   C2B63116  32.042  21.422   6.750
 8252POPC   C3B63117  31.958  21.486   7.050
 8252POPC   C4B63118  32.039  21.429   7.350
 8253POPC   NC363119  25.263  31.439   5.550
 8253POPC   PO463120  25.276  31.449   5.850
 8253POPC   GL163121  25.262  31.447   6.150
 8253POPC   GL263122  25.198  31.454   6.150
 8253POPC   C1A63123  25.275  31.520   6.450
 8253POPC   D2A63124  25.254  31.514   6.750
 8253POPC   C3A63125  25.223  31.477   7.050
 8253POPC   C4A63126  25.251  31.500   7.350
 8253POPC   C1B63127  25.053  31.346   6.450
 8253POPC   C2B63128  25.058  31.334   6.750
 8253POPC   C3B63129  25.008  31.337   7.050
 8253POPC   C4B63130  25.070  31.428   7.350
 8254POPC   NC363131  24.468  13.638   5.550
 8254POPC   PO463132  24.519  13.647   5.850
 8254POPC   GL163133  24.488  13.677   6.150
 8254POPC   GL263134  24.476  13.717   6.150
 8254POPC   C1A63135  24.447  13.675   6.450
 8254POPC   D2A63136  24.517  13.633   6.750
 8254POPC   C3A63137  24.479  13.647   7.050
 8254POPC   C4A63138  24.452  13.599   7.350
 8254POPC   C1B63139  24.455  13.901   6.450
 8254POPC   C2B63140  24.529  13.847   6.750
 8254POPC   C3B63141  24.506  13.922   7.050
 8254POPC   C4B63142  24.518  13.915   7.350
 8255POPC   NC363143  23.750  14.396   5.550
 8255POPC   PO463144  23.725  14.434   5.850
 8255POPC   GL163145  23.728  14.437   6.150
 8255POPC   GL263146  23.646  14.296   6.150
 8255POPC   C1A63147  23.704  14.370   6.450
 8255POPC   D2A63148  23.669  14.449   6.750
 8255POPC   C3A63149  23.684  14.355   7.050
 8255POPC   C4A63150  23.735  14.447   7.350
 8255POPC   C1B63151  23.487  14.239   6.450
 8255POPC   C2B63152  23.542  14.253   6.750
 8255POPC   C3B63153  23.522  14.250   7.050
 8255POPC   C4B63154  23.467  14.242   7.350
 8256POPC   NC363155   5.833  44.625   5.550
 8256POPC   PO463156   5.898  44.673   5.850
 8256POPC   GL163157   5.913  44.666   6.150
 8256POPC   GL263158   5.972  44.712   6.150
 8256POPC   C1A63159   5.843  44.671   6.450
 8256POPC   D2A63160   5.890  44.712   6.750
 8256POPC   C3A63161   5.870  44.668   7.050
 8256POPC   C4A63162   5.876  44.618   7.350
 8256POPC   C1B63163   6.082  44.895   6.450
 8256POPC   C2B63164   6.059  44.858   6.750
 8256POPC   C3B63165   6.004  44.878   7.050
 8256POPC   C4B63166   5.990  44.851   7.350
 8257POPC   NC363167  38.484  30.651   5.550
 8257POPC   PO463168  38.421  30.649   5.850
 8257POPC   GL163169  38.442  30.744   6.150
 8257POPC   GL263170  38.613  30.746   6.150
 8257POPC   C1A63171  38.503  30.652   6.450
 8257POPC   D2A63172  38.470  30.735   6.750
 8257POPC   C3A63173  38.463  30.724   7.050
 8257POPC   C4A63174  38.417  30.678   7.350
 8257POPC   C1B63175  38.689  30.771   6.450
 8257POPC   C2B63176  38.682  30.761   6.750
 8257POPC   C3B63177  38.690  30.781   7.050
 8257POPC   C4B63178  38.699  30.728   7.350
 8258POPC   NC363179   0.457   4.319   5.550
 8258POPC   PO463180   0.431   4.283   5.850
 8258POPC   GL163181   0.464   4.350   6.150
 8258POPC   GL263182   0.300   4.249   6.150
 8258POPC   C1A63183   0.481   4.351   6.450
 8258POPC   D2A63184   0.474   4.366   6.750
 8258POPC   C3A63185   0.397   4.324   7.050
 8258POPC   C4A63186   0.420   4.338   7.350
 8258POPC   C1B63187   0.233   4.111   6.450
 8258POPC   C2B63188   0.275   4.110   6.750
 8258POPC   C3B63189   0.204   4.109   7.050
 8258POPC   C4B63190   0.289   4.112   7.350
 8259POPC   NC363191   7.387  29.906   5.550
 8259POPC   PO463192   7.381  29.945   5.850
 8259POPC   GL163193   7.463  29.878   6.150
 8259POPC   GL263194   7.317  30.046   6.150
 8259POPC   C1A63195   7.453  29.920   6.450
 8259POPC   D2A63196   7.398  29.904   6.750
 8259POPC   C3A63197   7.446  29.871   7.050
 8259POPC   C4A63198   7.467  29.895   7.350
 8259POPC   C1B63199   7.285  30.146   6.450
 8259POPC   C2B63200   7.220  30.078   6.750
 8259POPC   C3B63201   7.241  30.125   7.050
 8259POPC   C4B63202   7.236  30.117   7.350
 8260POPC   NC363203  20.656   8.999   5.550
 8260POPC   PO463204  20.648   9.001   5.850
 8260POPC   GL163205  20.642   8.931   6.150
 8260POPC   GL263206  20.658   9.087   6.150
 8260POPC   C1A63207  20.595   8.999   6.450
 8260POPC   D2A63208  20.647   8.925   6.750
 8260POPC   C3A63209  20.615   8.935   7.050
 8260POPC   C4A63210  20.653   9.001   7.350
 8260POPC   C1B63211  20.759   9.249   6.450
 8260POPC   C2B63212  20.691   9.194   6.750
 8260POPC   C3B63213  20.746   9.214   7.050
 8260POPC   C4B63214  20.672   9.249   7.350
 8261POPC   NC363215  40.817  19.024   5.550
 8261POPC   PO463216  40.750  19.101   5.850
 8261POPC   GL163217  40.784  19.076   6.150
 8261POPC   GL263218  40.848  19.166   6.150
 8261POPC   C1A63219  40.788  19.041   6.450
 8261POPC   D2A63220  40.742  19.090   6.750
 8261POPC   C3A63221  40.813  19.036   7.050
 8261POPC   C4A63222  40.781  19.035   7.350
 8261POPC   C1B63223  40.967  19.244   6.450
 8261POPC   C2B63224  40.997  19.175   6.750
 8261POPC   C3B63225  40.983  19.192   7.050
 8261POPC   C4B63226  40.969  19.202   7.350
 8262POPC   NC363227   6.658  13.598   5.550
 8262POPC   PO463228   6.675  13.669   5.850
 8262POPC   GL163229   6.687  13.638   6.150
 8262POPC   GL263230   6.739  13.704   6.150
 8262POPC   C1A63231   6.690  13.581   6.450
 8262POPC   D2A63232   6.679  13.588   6.750
 8262POPC   C3A63233   6.626  13.646   7.050
 8262POPC   C4A63234   6.655  13.603   7.350
 8262POPC   C1B63235   6.835  13.771   6.450
 8262POPC   C2B63236   6.825  13.731   6.750
 8262POPC   C3B63237   6.878  13.701   7.050
 8262POPC   C4B63238   6.877  13.772   7.350
 8263POPC   NC363239   2.032  15.975   5.550
 8263POPC   PO463240   2.033  15.994   5.850
 8263POPC   GL163241   2.013  15.927   6.150
 8263POPC   GL263242   1.848  16.033   6.150
 8263POPC   C1A63243   2.029  15.918   6.450
 8263POPC   D2A63244   1.942  15.999   6.750
 8263POPC   C3A63245   1.948  15.943   7.050
 8263POPC   C4A63246   2.000  15.992   7.350
 8263POPC   C1B63247   1.704  16.031   6.450
 8263POPC   C2B63248   1.732  16.033   6.750
 8263POPC   C3B63249   1.725  16.063   7.050
 8263POPC   C4B63250   1.771  16.010   7.350
 8264POPC   NC363251  14.408   5.063   5.550
 8264POPC   PO463252  14.382   5.071   5.850
 8264POPC   GL163253  14.444   5.133   6.150
 8264POPC   GL263254  14.464   5.215   6.150
 8264POPC   C1A63255  14.422   5.093   6.450
 8264POPC   D2A63256  14.430   5.050   6.750
 8264POPC   C3A63257  14.384   5.122   7.050
 8264POPC   C4A63258  14.453   5.119   7.350
 8264POPC   C1B63259  14.636   5.307   6.450
 8264POPC   C2B63260  14.556   5.295   6.750
 8264POPC   C3B63261  14.569   5.296   7.050
 8264POPC   C4B63262  14.593   5.271   7.350
 8265POPC   NC363263  36.917  35.393   5.550
 8265POPC   PO463264  36.944  35.352   5.850
 8265POPC   GL163265  36.948  35.303   6.150
 8265POPC   GL263266  36.898  35.245   6.150
 8265POPC   C1A63267  36.878  35.327   6.450
 8265POPC   D2A63268  36.945  35.398   6.750
 8265POPC   C3A63269  36.876  35.312   7.050
 8265POPC   C4A63270  36.869  35.319   7.350
 8265POPC   C1B63271  36.875  35.087   6.450
 8265POPC   C2B63272  36.827  35.111   6.750
 8265POPC   C3B63273  36.814  35.093   7.050
 8265POPC   C4B63274  36.835  35.066   7.350
 8266POPC   NC363275  37.665  19.094   5.550
 8266POPC   PO463276  37.666  19.024   5.850
 8266POPC   GL163277  37.663  19.090   6.150
 8266POPC   GL263278  37.593  19.068   6.150
 8266POPC   C1A63279  37.710  19.037   6.450
 8266POPC   D2A63280  37.644  19.087   6.750
 8266POPC   C3A63281  37.712  19.030   7.050
 8266POPC   C4A63282  37.642  19.043   7.350
 8266POPC   C1B63283  37.431  19.157   6.450
 8266POPC   C2B63284  37.414  19.215   6.750
 8266POPC   C3B63285  37.438  19.198   7.050
 8266POPC   C4B63286  37.405  19.155   7.350
 8267POPC   NC363287   9.752  37.701   5.550
 8267POPC   PO463288   9.789  37.682   5.850
 8267POPC   GL163289   9.774  37.692   6.150
 8267POPC   GL263290   9.706  37.771   6.150
 8267POPC   C1A63291   9.779  37.663   6.450
 8267POPC   D2A63292   9.718  37.726   6.750
 8267POPC   C3A63293   9.723  37.656   7.050
 8267POPC   C4A63294   9.737  37.677   7.350
 8267POPC   C1B63295   9.573  37.870   6.450
 8267POPC   C2B63296   9.603  37.812   6.750
 8267POPC   C3B63297   9.557  37.846   7.050
 8267POPC   C4B63298   9.618  37.852   7.350
 8268POPC   NC363299  14.405   8.978   5.550
 8268POPC   PO463300  14.359   8.926   5.850
 8268POPC   GL163301  14.367   8.932   6.150
 8268POPC   GL263302  14.488   8.975   6.150
 8268POPC   C1A63303  14.442   8.984   6.450
 8268POPC   D2A63304  14.450   9.020   6.750
 8268POPC   C3A63305  14.373   8.969   7.050
 8268POPC   C4A63306  14.385   8.977   7.350
 8268POPC   C1B63307  14.671   9.041   6.450
 8268POPC   C2B63308  14.601   9.097   6.750
 8268POPC   C3B63309  14.596   9.075   7.050
 8268POPC   C4B63310  14.646   9.022   7.350
 8269POPC   NC363311   7.465  18.271   5.550
 8269POPC   PO463312   7.409  18.311   5.850
 8269POPC   GL163313   7.433  18.256   6.150
 8269POPC   GL263314   7.459  18.199   6.150
 8269POPC   C1A63315   7.403  18.272   6.450
 8269POPC   D2A63316   7.448  18.259   6.750
 8269POPC   C3A63317   7.408  18.274   7.050
 8269POPC   C4A63318   7.409  18.263   7.350
 8269POPC   C1B63319   7.405  18.033   6.450
 8269POPC   C2B63320   7.461  18.032   6.750
 8269POPC   C3B63321   7.370  17.998   7.050
 8269POPC   C4B63322   7.383  18.061   7.350
 8270POPC   NC363323  24.535  20.604   5.550
 8270POPC   PO463324  24.527  20.622   5.850
 8270POPC   GL163325  24.469  20.563   6.150
 8270POPC   GL263326  24.504  20.687   6.150
 8270POPC   C1A63327  24.536  20.599   6.450
 8270POPC   D2A63328  24.522  20.638   6.750
 8270POPC   C3A63329  24.498  20.586   7.050
 8270POPC   C4A63330  24.456  20.570   7.350
 8270POPC   C1B63331  24.407  20.901   6.450
 8270POPC   C2B63332  24.459  20.875   6.750
 8270POPC   C3B63333  24.455  20.900   7.050
 8270POPC   C4B63334  24.436  20.853   7.350
 8271POPC   NC363335  26.816  38.440   5.550
 8271POPC   PO463336  26.790  38.496   5.850
 8271POPC   GL163337  26.809  38.409   6.150
 8271POPC   GL263338  26.696  38.481   6.150
 8271POPC   C1A63339  26.854  38.471   6.450
 8271POPC   D2A63340  26.833  38.477   6.750
 8271POPC   C3A63341  26.802  38.422   7.050
 8271POPC   C4A63342  26.819  38.427   7.350
 8271POPC   C1B63343  26.655  38.577   6.450
 8271POPC   C2B63344  26.636  38.593   6.750
 8271POPC   C3B63345  26.612  38.598   7.050
 8271POPC   C4B63346  26.619  38.639   7.350
 8272POPC   NC363347  10.566  12.071   5.550
 8272POPC   PO463348  10.488  12.057   5.850
 8272POPC   GL163349  10.529  12.031   6.150
 8272POPC   GL263350  10.400  12.013   6.150
 8272POPC   C1A63351  10.573  12.078   6.450
 8272POPC   D2A63352  10.497  12.118   6.750
 8272POPC   C3A63353  10.565  12.072   7.050
 8272POPC   C4A63354  10.497  12.050   7.350
 8272POPC   C1B63355  10.333  12.017   6.450
 8272POPC   C2B63356  10.274  12.003   6.750
 8272POPC   C3B63357  10.310  11.966   7.050
 8272POPC   C4B63358  10.272  12.043   7.350
 8273POPC   NC363359  10.547  26.023   5.550
 8273POPC   PO463360  10.487  26.065   5.850
 8273POPC   GL163361  10.550  26.051   6.150
 8273POPC   GL263362  10.476  26.109   6.150
 8273POPC   C1A63363  10.486  26.052   6.450
 8273POPC   D2A63364  10.552  26.082   6.750
 8273POPC   C3A63365  10.537  26.051   7.050
 8273POPC   C4A63366  10.544  26.010   7.350
 8273POPC   C1B63367  10.399  26.245   6.450
 8273POPC   C2B63368  10.354  26.179   6.750
 8273POPC   C3B63369  10.337  26.181   7.050
 8273POPC   C4B63370  10.373  26.191   7.350
 8274POPC   NC363371  22.171  20.619   5.550
 8274POPC   PO463372  22.204  20.649   5.850
 8274POPC   GL163373  22.147  20.659   6.150
 8274POPC   GL263374  22.034  20.633   6.150
 8274POPC   C1A63375  22.114  20.658   6.450
 8274POPC   D2A63376  22.122  20.618   6.750
 8274POPC   C3A63377  22.160  20.572   7.050
 8274POPC   C4A63378  22.139  20.575   7.350
 8274POPC   C1B63379  21.963  20.724   6.450
 8274POPC   C2B63380  21.923  20.723   6.750
 8274POPC   C3B63381  21.943  20.693   7.050
 8274POPC   C4B63382  21.992  20.759   7.350
 8275POPC   NC363383  36.939  28.345   5.550
 8275POPC   PO463384  36.929  28.366   5.850
 8275POPC   GL163385  36.867  28.349   6.150
 8275POPC   GL263386  37.043  28.400   6.150
 8275POPC   C1A63387  36.906  28.391   6.450
 8275POPC   D2A63388  36.949  28.347   6.750
 8275POPC   C3A63389  36.864  28.393   7.050
 8275POPC   C4A63390  36.858  28.385   7.350
 8275POPC   C1B63391  37.118  28.488   6.450
 8275POPC   C2B63392  37.105  28.476   6.750
 8275POPC   C3B63393  37.135  28.478   7.050
 8275POPC   C4B63394  37.148  28.419   7.350
 8276POPC   NC363395  43.128   2.731   5.550
 8276POPC   PO463396  43.090   2.795   5.850
 8276POPC   GL163397  43.080   2.794   6.150
 8276POPC   GL263398  43.153   2.857   6.150
 8276POPC   C1A63399  43.079   2.717   6.450
 8276POPC   D2A63400  43.107   2.736   6.750
 8276POPC   C3A63401  43.087   2.769   7.050
 8276POPC   C4A63402  43.152   2.786   7.350
 8276POPC   C1B63403  43.235   3.037   6.450
 8276POPC   C2B63404  43.263   3.015   6.750
 8276POPC   C3B63405  43.234   2.946   7.050
 8276POPC   C4B63406  43.238   2.956   7.350
 8277POPC   NC363407   7.406  33.772   5.550
 8277POPC   PO463408   7.437  33.778   5.850
 8277POPC   GL163409   7.401  33.818   6.150
 8277POPC   GL263410   7.346  33.733   6.150
 8277POPC   C1A63411   7.435  33.814   6.450
 8277POPC   D2A63412   7.415  33.848   6.750
 8277POPC   C3A63413   7.443  33.821   7.050
 8277POPC   C4A63414   7.432  33.840   7.350
 8277POPC   C1B63415   7.220  33.788   6.450
 8277POPC   C2B63416   7.208  33.771   6.750
 8277POPC   C3B63417   7.172  33.773   7.050
 8277POPC   C4B63418   7.136  33.771   7.350
 8278POPC   NC363419  36.951  29.933   5.550
 8278POPC   PO463420  36.941  29.928   5.850
 8278POPC   GL163421  36.880  29.939   6.150
 8278POPC   GL263422  36.772  29.874   6.150
 8278POPC   C1A63423  36.868  29.878   6.450
 8278POPC   D2A63424  36.952  29.963   6.750
 8278POPC   C3A63425  36.942  29.872   7.050
 8278POPC   C4A63426  36.925  29.910   7.350
 8278POPC   C1B63427  36.649  29.897   6.450
 8278POPC   C2B63428  36.691  29.853   6.750
 8278POPC   C3B63429  36.696  29.839   7.050
 8278POPC   C4B63430  36.684  29.814   7.350
 8279POPC   NC363431   8.157  30.710   5.550
 8279POPC   PO463432   8.204  30.657   5.850
 8279POPC   GL163433   8.211  30.706   6.150
 8279POPC   GL263434   8.107  30.606   6.150
 8279POPC   C1A63435   8.226  30.689   6.450
 8279POPC   D2A63436   8.186  30.655   6.750
 8279POPC   C3A63437   8.168  30.717   7.050
 8279POPC   C4A63438   8.184  30.686   7.350
 8279POPC   C1B63439   8.027  30.555   6.450
 8279POPC   C2B63440   7.979  30.545   6.750
 8279POPC   C3B63441   8.051  30.579   7.050
 8279POPC   C4B63442   7.979  30.533   7.350
 8280POPC   NC363443  43.131  36.167   5.550
 8280POPC   PO463444  43.121  36.158   5.850
 8280POPC   GL163445  43.140  36.175   6.150
 8280POPC   GL263446  43.105  36.007   6.150
 8280POPC   C1A63447  43.131  36.110   6.450
 8280POPC   D2A63448  43.127  36.120   6.750
 8280POPC   C3A63449  43.123  36.165   7.050
 8280POPC   C4A63450  43.154  36.091   7.350
 8280POPC   C1B63451  42.997  35.921   6.450
 8280POPC   C2B63452  43.047  35.871   6.750
 8280POPC   C3B63453  43.003  35.892   7.050
 8280POPC   C4B63454  43.004  35.897   7.350
 8281POPC   NC363455  27.597  28.337   5.550
 8281POPC   PO463456  27.578  28.359   5.850
 8281POPC   GL163457  27.642  28.410   6.150
 8281POPC   GL263458  27.538  28.204   6.150
 8281POPC   C1A63459  27.559  28.347   6.450
 8281POPC   D2A63460  27.548  28.344   6.750
 8281POPC   C3A63461  27.623  28.407   7.050
 8281POPC   C4A63462  27.610  28.417   7.350
 8281POPC   C1B63463  27.483  28.092   6.450
 8281POPC   C2B63464  27.509  28.159   6.750
 8281POPC   C3B63465  27.466  28.097   7.050
 8281POPC   C4B63466  27.454  28.157   7.350
 8282POPC   NC363467   1.189  20.613   5.550
 8282POPC   PO463468   1.174  20.620   5.850
 8282POPC   GL163469   1.209  20.633   6.150
 8282POPC   GL263470   1.326  20.696   6.150
 8282POPC   C1A63471   1.217  20.617   6.450
 8282POPC   D2A63472   1.209  20.658   6.750
 8282POPC   C3A63473   1.257  20.603   7.050
 8282POPC   C4A63474   1.174  20.579   7.350
 8282POPC   C1B63475   1.367  20.818   6.450
 8282POPC   C2B63476   1.386  20.758   6.750
 8282POPC   C3B63477   1.394  20.745   7.050
 8282POPC   C4B63478   1.407  20.744   7.350
 8283POPC   NC363479   3.539  33.772   5.550
 8283POPC   PO463480   3.561  33.791   5.850
 8283POPC   GL163481   3.540  33.825   6.150
 8283POPC   GL263482   3.604  33.700   6.150
 8283POPC   C1A63483   3.505  33.832   6.450
 8283POPC   D2A63484   3.571  33.799   6.750
 8283POPC   C3A63485   3.588  33.848   7.050
 8283POPC   C4A63486   3.538  33.824   7.350
 8283POPC   C1B63487   3.748  33.589   6.450
 8283POPC   C2B63488   3.653  33.647   6.750
 8283POPC   C3B63489   3.712  33.622   7.050
 8283POPC   C4B63490   3.727  33.624   7.350
 8284POPC   NC363491  40.003   8.933   5.550
 8284POPC   PO463492  40.050   9.002   5.850
 8284POPC   GL163493  40.018   8.995   6.150
 8284POPC   GL263494  40.078   8.873   6.150
 8284POPC   C1A63495  40.007   8.977   6.450
 8284POPC   D2A63496  40.046   8.986   6.750
 8284POPC   C3A63497  40.025   8.971   7.050
 8284POPC   C4A63498  39.982   8.930   7.350
 8284POPC   C1B63499  40.183   8.745   6.450
 8284POPC   C2B63500  40.188   8.802   6.750
 8284POPC   C3B63501  40.205   8.743   7.050
 8284POPC   C4B63502  40.138   8.807   7.350
 8285POPC   NC363503  41.573  34.527   5.550
 8285POPC   PO463504  41.541  34.594   5.850
 8285POPC   GL163505  41.589  34.622   6.150
 8285POPC   GL263506  41.646  34.587   6.150
 8285POPC   C1A63507  41.552  34.616   6.450
 8285POPC   D2A63508  41.554  34.583   6.750
 8285POPC   C3A63509  41.551  34.557   7.050
 8285POPC   C4A63510  41.569  34.570   7.350
 8285POPC   C1B63511  41.773  34.645   6.450
 8285POPC   C2B63512  41.825  34.566   6.750
 8285POPC   C3B63513  41.822  34.632   7.050
 8285POPC   C4B63514  41.854  34.610   7.350
 8286POPC   NC363515  25.299   0.464   5.550
 8286POPC   PO463516  25.230   0.454   5.850
 8286POPC   GL163517  25.307   0.408   6.150
 8286POPC   GL263518  25.390   0.483   6.150
 8286POPC   C1A63519  25.228   0.486   6.450
 8286POPC   D2A63520  25.249   0.438   6.750
 8286POPC   C3A63521  25.244   0.464   7.050
 8286POPC   C4A63522  25.295   0.408   7.350
 8286POPC   C1B63523  25.497   0.453   6.450
 8286POPC   C2B63524  25.522   0.474   6.750
 8286POPC   C3B63525  25.535   0.507   7.050
 8286POPC   C4B63526  25.465   0.503   7.350
 8287POPC   NC363527  31.493  43.842   5.550
 8287POPC   PO463528  31.454  43.888   5.850
 8287POPC   GL163529  31.425  43.887   6.150
 8287POPC   GL263530  31.493  43.800   6.150
 8287POPC   C1A63531  31.452  43.840   6.450
 8287POPC   D2A63532  31.468  43.896   6.750
 8287POPC   C3A63533  31.507  43.839   7.050
 8287POPC   C4A63534  31.501  43.862   7.350
 8287POPC   C1B63535  31.506  43.690   6.450
 8287POPC   C2B63536  31.561  43.623   6.750
 8287POPC   C3B63537  31.487  43.613   7.050
 8287POPC   C4B63538  31.487  43.676   7.350
 8288POPC   NC363539  13.648  13.655   5.550
 8288POPC   PO463540  13.676  13.613   5.850
 8288POPC   GL163541  13.611  13.590   6.150
 8288POPC   GL263542  13.659  13.772   6.150
 8288POPC   C1A63543  13.630  13.634   6.450
 8288POPC   D2A63544  13.651  13.592   6.750
 8288POPC   C3A63545  13.588  13.590   7.050
 8288POPC   C4A63546  13.672  13.597   7.350
 8288POPC   C1B63547  13.668  13.874   6.450
 8288POPC   C2B63548  13.609  13.869   6.750
 8288POPC   C3B63549  13.620  13.912   7.050
 8288POPC   C4B63550  13.629  13.923   7.350
 8289POPC   NC363551  30.719  12.076   5.550
 8289POPC   PO463552  30.729  12.088   5.850
 8289POPC   GL163553  30.692  12.070   6.150
 8289POPC   GL263554  30.709  12.218   6.150
 8289POPC   C1A63555  30.734  12.080   6.450
 8289POPC   D2A63556  30.717  12.076   6.750
 8289POPC   C3A63557  30.685  12.122   7.050
 8289POPC   C4A63558  30.656  12.069   7.350
 8289POPC   C1B63559  30.753  12.367   6.450
 8289POPC   C2B63560  30.789  12.301   6.750
 8289POPC   C3B63561  30.798  12.292   7.050
 8289POPC   C4B63562  30.745  12.299   7.350
 8290POPC   NC363563  11.256   0.425   5.550
 8290POPC   PO463564  11.322   0.453   5.850
 8290POPC   GL163565  11.281   0.468   6.150
 8290POPC   GL263566  11.280   0.268   6.150
 8290POPC   C1A63567  11.313   0.437   6.450
 8290POPC   D2A63568  11.341   0.411   6.750
 8290POPC   C3A63569  11.283   0.396   7.050
 8290POPC   C4A63570  11.285   0.415   7.350
 8290POPC   C1B63571  11.382   0.172   6.450
 8290POPC   C2B63572  11.321   0.191   6.750
 8290POPC   C3B63573  11.349   0.202   7.050
 8290POPC   C4B63574  11.348   0.236   7.350
 8291POPC   NC363575   1.250  43.101   5.550
 8291POPC   PO463576   1.167  43.139   5.850
 8291POPC   GL163577   1.223  43.133   6.150
 8291POPC   GL263578   1.345  43.191   6.150
 8291POPC   C1A63579   1.195  43.100   6.450
 8291POPC   D2A63580   1.189  43.132   6.750
 8291POPC   C3A63581   1.193  43.068   7.050
 8291POPC   C4A63582   1.197  43.063   7.350
 8291POPC   C1B63583   1.407  43.298   6.450
 8291POPC   C2B63584   1.398  43.348   6.750
 8291POPC   C3B63585   1.338  43.314   7.050
 8291POPC   C4B63586   1.328  43.330   7.350
 8292POPC   NC363587  21.430  41.598   5.550
 8292POPC   PO463588  21.394  41.575   5.850
 8292POPC   GL163589  21.345  41.532   6.150
 8292POPC   GL263590  21.463  41.408   6.150
 8292POPC   C1A63591  21.371  41.526   6.450
 8292POPC   D2A63592  21.358  41.598   6.750
 8292POPC   C3A63593  21.340  41.534   7.050
 8292POPC   C4A63594  21.362  41.512   7.350
 8292POPC   C1B63595  21.504  41.279   6.450
 8292POPC   C2B63596  21.412  41.368   6.750
 8292POPC   C3B63597  21.446  41.324   7.050
 8292POPC   C4B63598  21.484  41.277   7.350
 8293POPC   NC363599  11.274  24.478   5.550
 8293POPC   PO463600  11.253  24.521   5.850
 8293POPC   GL163601  11.253  24.458   6.150
 8293POPC   GL263602  11.378  24.386   6.150
 8293POPC   C1A63603  11.275  24.469   6.450
 8293POPC   D2A63604  11.284  24.512   6.750
 8293POPC   C3A63605  11.343  24.509   7.050
 8293POPC   C4A63606  11.272  24.448   7.350
 8293POPC   C1B63607  11.407  24.289   6.450
 8293POPC   C2B63608  11.401  24.219   6.750
 8293POPC   C3B63609  11.398  24.270   7.050
 8293POPC   C4B63610  11.446  24.269   7.350
 8294POPC   NC363611  39.194  21.429   5.550
 8294POPC   PO463612  39.217  21.435   5.850
 8294POPC   GL163613  39.222  21.418   6.150
 8294POPC   GL263614  39.098  21.458   6.150
 8294POPC   C1A63615  39.232  21.403   6.450
 8294POPC   D2A63616  39.272  21.398   6.750
 8294POPC   C3A63617  39.236  21.365   7.050
 8294POPC   C4A63618  39.224  21.409   7.350
 8294POPC   C1B63619  39.034  21.475   6.450
 8294POPC   C2B63620  39.017  21.418   6.750
 8294POPC   C3B63621  38.955  21.445   7.050
 8294POPC   C4B63622  38.990  21.459   7.350
 8295POPC   NC363623  43.118  10.482   5.550
 8295POPC   PO463624  43.105  10.482   5.850
 8295POPC   GL163625  43.112  10.526   6.150
 8295POPC   GL263626  43.042  10.620   6.150
 8295POPC   C1A63627  43.077  10.552   6.450
 8295POPC   D2A63628  43.064  10.501   6.750
 8295POPC   C3A63629  43.143  10.536   7.050
 8295POPC   C4A63630  43.087  10.506   7.350
 8295POPC   C1B63631  42.887  10.715   6.450
 8295POPC   C2B63632  42.948  10.704   6.750
 8295POPC   C3B63633  42.908  10.664   7.050
 8295POPC   C4B63634  42.904  10.709   7.350
 8296POPC   NC363635  36.859  20.649   5.550
 8296POPC   PO463636  36.922  20.577   5.850
 8296POPC   GL163637  36.859  20.561   6.150
 8296POPC   GL263638  36.766  20.651   6.150
 8296POPC   C1A63639  36.859  20.594   6.450
 8296POPC   D2A63640  36.927  20.626   6.750
 8296POPC   C3A63641  36.946  20.604   7.050
 8296POPC   C4A63642  36.906  20.635   7.350
 8296POPC   C1B63643  36.633  20.651   6.450
 8296POPC   C2B63644  36.669  20.686   6.750
 8296POPC   C3B63645  36.692  20.730   7.050
 8296POPC   C4B63646  36.628  20.703   7.350
 8297POPC   NC363647  28.330  40.775   5.550
 8297POPC   PO463648  28.407  40.738   5.850
 8297POPC   GL163649  28.350  40.812   6.150
 8297POPC   GL263650  28.381  40.950   6.150
 8297POPC   C1A63651  28.341  40.735   6.450
 8297POPC   D2A63652  28.393  40.743   6.750
 8297POPC   C3A63653  28.370  40.823   7.050
 8297POPC   C4A63654  28.359  40.827   7.350
 8297POPC   C1B63655  28.300  41.037   6.450
 8297POPC   C2B63656  28.272  40.985   6.750
 8297POPC   C3B63657  28.289  40.991   7.050
 8297POPC   C4B63658  28.302  40.997   7.350
 8298POPC   NC363659  28.337   5.129   5.550
 8298POPC   PO463660  28.328   5.047   5.850
 8298POPC   GL163661  28.360   5.143   6.150
 8298POPC   GL263662  28.409   4.942   6.150
 8298POPC   C1A63663  28.394   5.043   6.450
 8298POPC   D2A63664  28.361   5.068   6.750
 8298POPC   C3A63665  28.321   5.133   7.050
 8298POPC   C4A63666  28.399   5.113   7.350
 8298POPC   C1B63667  28.334   4.794   6.450
 8298POPC   C2B63668  28.363   4.794   6.750
 8298POPC   C3B63669  28.310   4.842   7.050
 8298POPC   C4B63670  28.396   4.879   7.350
 8299POPC   NC363671  20.609  13.634   5.550
 8299POPC   PO463672  20.588  13.610   5.850
 8299POPC   GL163673  20.612  13.583   6.150
 8299POPC   GL263674  20.730  13.747   6.150
 8299POPC   C1A63675  20.600  13.651   6.450
 8299POPC   D2A63676  20.656  13.660   6.750
 8299POPC   C3A63677  20.585  13.612   7.050
 8299POPC   C4A63678  20.584  13.590   7.350
 8299POPC   C1B63679  20.755  13.777   6.450
 8299POPC   C2B63680  20.732  13.767   6.750
 8299POPC   C3B63681  20.788  13.823   7.050
 8299POPC   C4B63682  20.829  13.793   7.350
 8300POPC   NC363683  29.948   2.747   5.550
 8300POPC   PO463684  29.890   2.779   5.850
 8300POPC   GL163685  29.969   2.735   6.150
 8300POPC   GL263686  30.072   2.780   6.150
 8300POPC   C1A63687  29.888   2.755   6.450
 8300POPC   D2A63688  29.935   2.755   6.750
 8300POPC   C3A63689  29.900   2.779   7.050
 8300POPC   C4A63690  29.884   2.726   7.350
 8300POPC   C1B63691  30.200   2.765   6.450
 8300POPC   C2B63692  30.154   2.751   6.750
 8300POPC   C3B63693  30.151   2.727   7.050
 8300POPC   C4B63694  30.195   2.735   7.350
 8301POPC   NC363695  26.064  33.035   5.550
 8301POPC   PO463696  26.027  33.066   5.850
 8301POPC   GL163697  26.040  33.006   6.150
 8301POPC   GL263698  25.940  32.988   6.150
 8301POPC   C1A63699  26.025  33.008   6.450
 8301POPC   D2A63700  26.054  33.020   6.750
 8301POPC   C3A63701  26.063  32.979   7.050
 8301POPC   C4A63702  26.070  32.981   7.350
 8301POPC   C1B63703  25.869  32.912   6.450
 8301POPC   C2B63704  25.871  32.866   6.750
 8301POPC   C3B63705  25.888  32.920   7.050
 8301POPC   C4B63706  25.862  32.878   7.350
 8302POPC   NC363707   5.070  26.858   5.550
 8302POPC   PO463708   5.131  26.785   5.850
 8302POPC   GL163709   5.143  26.774   6.150
 8302POPC   GL263710   5.118  26.901   6.150
 8302POPC   C1A63711   5.142  26.822   6.450
 8302POPC   D2A63712   5.099  26.834   6.750
 8302POPC   C3A63713   5.088  26.836   7.050
 8302POPC   C4A63714   5.120  26.797   7.350
 8302POPC   C1B63715   5.184  27.042   6.450
 8302POPC   C2B63716   5.137  27.088   6.750
 8302POPC   C3B63717   5.129  27.020   7.050
 8302POPC   C4B63718   5.193  27.072   7.350
 8303POPC   NC363719  20.611  12.852   5.550
 8303POPC   PO463720  20.638  12.867   5.850
 8303POPC   GL163721  20.575  12.878   6.150
 8303POPC   GL263722  20.444  12.778   6.150
 8303POPC   C1A63723  20.615  12.848   6.450
 8303POPC   D2A63724  20.566  12.811   6.750
 8303POPC   C3A63725  20.566  12.809   7.050
 8303POPC   C4A63726  20.604  12.830   7.350
 8303POPC   C1B63727  20.341  12.809   6.450
 8303POPC   C2B63728  20.383  12.804   6.750
 8303POPC   C3B63729  20.337  12.749   7.050
 8303POPC   C4B63730  20.409  12.764   7.350
 8304POPC   NC363731  14.430  17.538   5.550
 8304POPC   PO463732  14.417  17.490   5.850
 8304POPC   GL163733  14.424  17.504   6.150
 8304POPC   GL263734  14.534  17.602   6.150
 8304POPC   C1A63735  14.395  17.489   6.450
 8304POPC   D2A63736  14.447  17.555   6.750
 8304POPC   C3A63737  14.379  17.486   7.050
 8304POPC   C4A63738  14.398  17.496   7.350
 8304POPC   C1B63739  14.600  17.639   6.450
 8304POPC   C2B63740  14.617  17.695   6.750
 8304POPC   C3B63741  14.573  17.617   7.050
 8304POPC   C4B63742  14.573  17.628   7.350
 8305POPC   NC363743   4.336   9.722   5.550
 8305POPC   PO463744   4.316   9.789   5.850
 8305POPC   GL163745   4.293   9.716   6.150
 8305POPC   GL263746   4.405   9.667   6.150
 8305POPC   C1A63747   4.296   9.733   6.450
 8305POPC   D2A63748   4.311   9.742   6.750
 8305POPC   C3A63749   4.273   9.773   7.050
 8305POPC   C4A63750   4.358   9.704   7.350
 8305POPC   C1B63751   4.499   9.602   6.450
 8305POPC   C2B63752   4.433   9.538   6.750
 8305POPC   C3B63753   4.448   9.521   7.050
 8305POPC   C4B63754   4.445   9.597   7.350
 8306POPC   NC363755  38.466  34.560   5.550
 8306POPC   PO463756  38.450  34.532   5.850
 8306POPC   GL163757  38.418  34.581   6.150
 8306POPC   GL263758  38.416  34.422   6.150
 8306POPC   C1A63759  38.501  34.620   6.450
 8306POPC   D2A63760  38.418  34.571   6.750
 8306POPC   C3A63761  38.504  34.554   7.050
 8306POPC   C4A63762  38.445  34.533   7.350
 8306POPC   C1B63763  38.340  34.329   6.450
 8306POPC   C2B63764  38.391  34.383   6.750
 8306POPC   C3B63765  38.354  34.351   7.050
 8306POPC   C4B63766  38.366  34.330   7.350
 8307POPC   NC363767   4.276  41.516   5.550
 8307POPC   PO463768   4.332  41.601   5.850
 8307POPC   GL163769   4.337  41.509   6.150
 8307POPC   GL263770   4.461  41.553   6.150
 8307POPC   C1A63771   4.277  41.540   6.450
 8307POPC   D2A63772   4.290  41.553   6.750
 8307POPC   C3A63773   4.314  41.592   7.050
 8307POPC   C4A63774   4.308  41.576   7.350
 8307POPC   C1B63775   4.553  41.543   6.450
 8307POPC   C2B63776   4.546  41.534   6.750
 8307POPC   C3B63777   4.594  41.609   7.050
 8307POPC   C4B63778   4.564  41.551   7.350
 8308POPC   NC363779  43.892  13.643   5.550
 8308POPC   PO463780  43.927  13.649   5.850
 8308POPC   GL163781  43.841  13.653   6.150
 8308POPC   GL263782  44.025  13.559   6.150
 8308POPC   C1A63783  43.902  13.646   6.450
 8308POPC   D2A63784  43.895  13.619   6.750
 8308POPC   C3A63785  43.864  13.608   7.050
 8308POPC   C4A63786  43.906  13.657   7.350
 8308POPC   C1B63787  44.148  13.535   6.450
 8308POPC   C2B63788  44.151  13.497   6.750
 8308POPC   C3B63789  44.067  13.542   7.050
 8308POPC   C4B63790  44.081  13.487   7.350
 8309POPC   NC363791  19.094   9.763   5.550
 8309POPC   PO463792  19.086   9.736   5.850
 8309POPC   GL163793  19.012   9.776   6.150
 8309POPC   GL263794  18.943   9.699   6.150
 8309POPC   C1A63795  19.024   9.714   6.450
 8309POPC   D2A63796  19.029   9.742   6.750
 8309POPC   C3A63797  19.074   9.705   7.050
 8309POPC   C4A63798  19.076   9.719   7.350
 8309POPC   C1B63799  18.787   9.600   6.450
 8309POPC   C2B63800  18.826   9.681   6.750
 8309POPC   C3B63801  18.848   9.665   7.050
 8309POPC   C4B63802  18.839   9.669   7.350
 8310POPC   NC363803  41.555  29.918   5.550
 8310POPC   PO463804  41.599  29.964   5.850
 8310POPC   GL163805  41.549  29.943   6.150
 8310POPC   GL263806  41.455  29.822   6.150
 8310POPC   C1A63807  41.592  29.928   6.450
 8310POPC   D2A63808  41.535  29.882   6.750
 8310POPC   C3A63809  41.578  29.943   7.050
 8310POPC   C4A63810  41.532  29.901   7.350
 8310POPC   C1B63811  41.365  29.735   6.450
 8310POPC   C2B63812  41.457  29.706   6.750
 8310POPC   C3B63813  41.420  29.767   7.050
 8310POPC   C4B63814  41.392  29.743   7.350
 8311POPC   NC363815  19.051   5.913   5.550
 8311POPC   PO463816  19.069   5.866   5.850
 8311POPC   GL163817  19.066   5.836   6.150
 8311POPC   GL263818  18.946   5.833   6.150
 8311POPC   C1A63819  19.099   5.916   6.450
 8311POPC   D2A63820  19.049   5.836   6.750
 8311POPC   C3A63821  19.016   5.904   7.050
 8311POPC   C4A63822  19.022   5.838   7.350
 8311POPC   C1B63823  18.817   5.812   6.450
 8311POPC   C2B63824  18.838   5.817   6.750
 8311POPC   C3B63825  18.821   5.817   7.050
 8311POPC   C4B63826  18.820   5.794   7.350
 8312POPC   NC363827  35.367  22.147   5.550
 8312POPC   PO463828  35.341  22.194   5.850
 8312POPC   GL163829  35.400  22.179   6.150
 8312POPC   GL263830  35.429  22.235   6.150
 8312POPC   C1A63831  35.370  22.133   6.450
 8312POPC   D2A63832  35.335  22.212   6.750
 8312POPC   C3A63833  35.385  22.143   7.050
 8312POPC   C4A63834  35.315  22.169   7.350
 8312POPC   C1B63835  35.603  22.298   6.450
 8312POPC   C2B63836  35.566  22.246   6.750
 8312POPC   C3B63837  35.540  22.255   7.050
 8312POPC   C4B63838  35.605  22.268   7.350
 8313POPC   NC363839   5.860  37.633   5.550
 8313POPC   PO463840   5.857  37.690   5.850
 8313POPC   GL163841   5.844  37.702   6.150
 8313POPC   GL263842   5.838  37.509   6.150
 8313POPC   C1A63843   5.836  37.629   6.450
 8313POPC   D2A63844   5.848  37.653   6.750
 8313POPC   C3A63845   5.857  37.661   7.050
 8313POPC   C4A63846   5.822  37.710   7.350
 8313POPC   C1B63847   5.829  37.426   6.450
 8313POPC   C2B63848   5.787  37.432   6.750
 8313POPC   C3B63849   5.847  37.470   7.050
 8313POPC   C4B63850   5.788  37.397   7.350
 8314POPC   NC363851  40.734  32.258   5.550
 8314POPC   PO463852  40.804  32.262   5.850
 8314POPC   GL163853  40.772  32.238   6.150
 8314POPC   GL263854  40.843  32.384   6.150
 8314POPC   C1A63855  40.735  32.267   6.450
 8314POPC   D2A63856  40.772  32.239   6.750
 8314POPC   C3A63857  40.804  32.290   7.050
 8314POPC   C4A63858  40.756  32.285   7.350
 8314POPC   C1B63859  40.970  32.438   6.450
 8314POPC   C2B63860  40.897  32.456   6.750
 8314POPC   C3B63861  40.895  32.436   7.050
 8314POPC   C4B63862  40.943  32.424   7.350
 8315POPC   NC363863   1.978  28.360   5.550
 8315POPC   PO463864   1.996  28.350   5.850
 8315POPC   GL163865   2.011  28.366   6.150
 8315POPC   GL263866   2.076  28.286   6.150
 8315POPC   C1A63867   2.027  28.350   6.450
 8315POPC   D2A63868   2.017  28.329   6.750
 8315POPC   C3A63869   1.979  28.367   7.050
 8315POPC   C4A63870   1.956  28.406   7.350
 8315POPC   C1B63871   2.214  28.185   6.450
 8315POPC   C2B63872   2.211  28.185   6.750
 8315POPC   C3B63873   2.218  28.182   7.050
 8315POPC   C4B63874   2.224  28.195   7.350
 8316POPC   NC363875  29.963  27.599   5.550
 8316POPC   PO463876  29.945  27.559   5.850
 8316POPC   GL163877  29.963  27.553   6.150
 8316POPC   GL263878  29.905  27.515   6.150
 8316POPC   C1A63879  29.948  27.578   6.450
 8316POPC   D2A63880  29.950  27.582   6.750
 8316POPC   C3A63881  29.897  27.611   7.050
 8316POPC   C4A63882  29.910  27.622   7.350
 8316POPC   C1B63883  29.821  27.401   6.450
 8316POPC   C2B63884  29.806  27.393   6.750
 8316POPC   C3B63885  29.769  27.328   7.050
 8316POPC   C4B63886  29.827  27.389   7.350
 8317POPC   NC363887  31.471  39.965   5.550
 8317POPC   PO463888  31.431  40.001   5.850
 8317POPC   GL163889  31.513  39.986   6.150
 8317POPC   GL263890  31.314  39.978   6.150
 8317POPC   C1A63891  31.437  39.962   6.450
 8317POPC   D2A63892  31.453  39.975   6.750
 8317POPC   C3A63893  31.434  39.968   7.050
 8317POPC   C4A63894  31.472  40.000   7.350
 8317POPC   C1B63895  31.235  40.018   6.450
 8317POPC   C2B63896  31.251  39.984   6.750
 8317POPC   C3B63897  31.268  39.951   7.050
 8317POPC   C4B63898  31.255  39.988   7.350
 8318POPC   NC363899   6.630   0.450   5.550
 8318POPC   PO463900   6.666   0.430   5.850
 8318POPC   GL163901   6.604   0.439   6.150
 8318POPC   GL263902   6.529   0.392   6.150
 8318POPC   C1A63903   6.651   0.472   6.450
 8318POPC   D2A63904   6.613   0.424   6.750
 8318POPC   C3A63905   6.612   0.410   7.050
 8318POPC   C4A63906   6.597   0.461   7.350
 8318POPC   C1B63907   6.385   0.282   6.450
 8318POPC   C2B63908   6.420   0.333   6.750
 8318POPC   C3B63909   6.414   0.319   7.050
 8318POPC   C4B63910   6.447   0.355   7.350
 8319POPC   NC363911  33.773  20.581   5.550
 8319POPC   PO463912  33.828  20.581   5.850
 8319POPC   GL163913  33.840  20.601   6.150
 8319POPC   GL263914  33.885  20.617   6.150
 8319POPC   C1A63915  33.841  20.647   6.450
 8319POPC   D2A63916  33.775  20.591   6.750
 8319POPC   C3A63917  33.775  20.650   7.050
 8319POPC   C4A63918  33.809  20.637   7.350
 8319POPC   C1B63919  34.004  20.643   6.450
 8319POPC   C2B63920  34.070  20.630   6.750
 8319POPC   C3B63921  34.020  20.585   7.050
 8319POPC   C4B63922  34.009  20.651   7.350
 8320POPC   NC363923  29.941  15.927   5.550
 8320POPC   PO463924  29.872  15.978   5.850
 8320POPC   GL163925  29.925  15.921   6.150
 8320POPC   GL263926  30.004  15.813   6.150
 8320POPC   C1A63927  29.890  15.978   6.450
 8320POPC   D2A63928  29.950  15.985   6.750
 8320POPC   C3A63929  29.899  15.975   7.050
 8320POPC   C4A63930  29.939  15.937   7.350
 8320POPC   C1B63931  30.044  15.739   6.450
 8320POPC   C2B63932  30.016  15.730   6.750
 8320POPC   C3B63933  30.063  15.760   7.050
 8320POPC   C4B63934  30.065  15.720   7.350
 8321POPC   NC363935  37.723  14.424   5.550
 8321POPC   PO463936  37.650  14.447   5.850
 8321POPC   GL163937  37.630  14.442   6.150
 8321POPC   GL263938  37.566  14.442   6.150
 8321POPC   C1A63939  37.718  14.424   6.450
 8321POPC   D2A63940  37.678  14.375   6.750
 8321POPC   C3A63941  37.658  14.437   7.050
 8321POPC   C4A63942  37.703  14.358   7.350
 8321POPC   C1B63943  37.395  14.463   6.450
 8321POPC   C2B63944  37.441  14.433   6.750
 8321POPC   C3B63945  37.460  14.444   7.050
 8321POPC   C4B63946  37.466  14.440   7.350
 8322POPC   NC363947  36.094   3.527   5.550
 8322POPC   PO463948  36.154   3.571   5.850
 8322POPC   GL163949  36.162   3.568   6.150
 8322POPC   GL263950  36.242   3.456   6.150
 8322POPC   C1A63951  36.140   3.575   6.450
 8322POPC   D2A63952  36.174   3.528   6.750
 8322POPC   C3A63953  36.156   3.542   7.050
 8322POPC   C4A63954  36.105   3.502   7.350
 8322POPC   C1B63955  36.263   3.387   6.450
 8322POPC   C2B63956  36.260   3.325   6.750
 8322POPC   C3B63957  36.327   3.389   7.050
 8322POPC   C4B63958  36.276   3.336   7.350
 8323POPC   NC363959   0.442  30.652   5.550
 8323POPC   PO463960   0.439  30.674   5.850
 8323POPC   GL163961   0.420  30.675   6.150
 8323POPC   GL263962   0.344  30.563   6.150
 8323POPC   C1A63963   0.466  30.650   6.450
 8323POPC   D2A63964   0.402  30.746   6.750
 8323POPC   C3A63965   0.453  30.674   7.050
 8323POPC   C4A63966   0.439  30.712   7.350
 8323POPC   C1B63967   0.281  30.491   6.450
 8323POPC   C2B63968   0.261  30.525   6.750
 8323POPC   C3B63969   0.324  30.504   7.050
 8323POPC   C4B63970   0.320  30.461   7.350
 8324POPC   NC363971  10.508  14.396   5.550
 8324POPC   PO463972  10.532  14.362   5.850
 8324POPC   GL163973  10.504  14.360   6.150
 8324POPC   GL263974  10.585  14.274   6.150
 8324POPC   C1A63975  10.506  14.359   6.450
 8324POPC   D2A63976  10.552  14.365   6.750
 8324POPC   C3A63977  10.491  14.405   7.050
 8324POPC   C4A63978  10.568  14.405   7.350
 8324POPC   C1B63979  10.711  14.203   6.450
 8324POPC   C2B63980  10.660  14.180   6.750
 8324POPC   C3B63981  10.688  14.214   7.050
 8324POPC   C4B63982  10.710  14.180   7.350
 8325POPC   NC363983  23.703   8.154   5.550
 8325POPC   PO463984  23.729   8.199   5.850
 8325POPC   GL163985  23.720   8.151   6.150
 8325POPC   GL263986  23.773   8.280   6.150
 8325POPC   C1A63987  23.727   8.167   6.450
 8325POPC   D2A63988  23.707   8.155   6.750
 8325POPC   C3A63989  23.697   8.229   7.050
 8325POPC   C4A63990  23.746   8.195   7.350
 8325POPC   C1B63991  23.853   8.378   6.450
 8325POPC   C2B63992  23.884   8.365   6.750
 8325POPC   C3B63993  23.920   8.383   7.050
 8325POPC   C4B63994  23.893   8.333   7.350
 8326POPC   NC363995  15.948  22.200   5.550
 8326POPC   PO463996  15.923  22.189   5.850
 8326POPC   GL163997  15.918  22.166   6.150
 8326POPC   GL263998  15.894  22.050   6.150
 8326POPC   C1A63999  15.934  22.194   6.450
 8326POPC   D2A64000  15.983  22.188   6.750
 8326POPC   C3A64001  15.993  22.124   7.050
 8326POPC   C4A64002  15.934  22.194   7.350
 8326POPC   C1B64003  15.820  21.922   6.450
 8326POPC   C2B64004  15.779  21.934   6.750
 8326POPC   C3B64005  15.825  21.991   7.050
 8326POPC   C4B64006  15.826  21.918   7.350
 8327POPC   NC364007  33.772  12.892   5.550
 8327POPC   PO464008  33.755  12.895   5.850
 8327POPC   GL164009  33.782  12.838   6.150
 8327POPC   GL264010  33.849  13.001   6.150
 8327POPC   C1A64011  33.830  12.843   6.450
 8327POPC   D2A64012  33.765  12.860   6.750
 8327POPC   C3A64013  33.761  12.807   7.050
 8327POPC   C4A64014  33.825  12.891   7.350
 8327POPC   C1B64015  33.849  13.064   6.450
 8327POPC   C2B64016  33.863  13.054   6.750
 8327POPC   C3B64017  33.885  13.086   7.050
 8327POPC   C4B64018  33.844  13.124   7.350
 8328POPC   NC364019  26.042  27.611   5.550
 8328POPC   PO464020  26.034  27.633   5.850
 8328POPC   GL164021  26.078  27.630   6.150
 8328POPC   GL264022  25.891  27.637   6.150
 8328POPC   C1A64023  26.056  27.566   6.450
 8328POPC   D2A64024  26.088  27.576   6.750
 8328POPC   C3A64025  26.069  27.556   7.050
 8328POPC   C4A64026  26.050  27.632   7.350
 8328POPC   C1B64027  25.802  27.671   6.450
 8328POPC   C2B64028  25.865  27.746   6.750
 8328POPC   C3B64029  25.776  27.686   7.050
 8328POPC   C4B64030  25.836  27.749   7.350
 8329POPC   NC364031  21.375  33.771   5.550
 8329POPC   PO464032  21.411  33.818   5.850
 8329POPC   GL164033  21.348  33.760   6.150
 8329POPC   GL264034  21.494  33.829   6.150
 8329POPC   C1A64035  21.376  33.822   6.450
 8329POPC   D2A64036  21.337  33.826   6.750
 8329POPC   C3A64037  21.391  33.840   7.050
 8329POPC   C4A64038  21.400  33.800   7.350
 8329POPC   C1B64039  21.587  33.792   6.450
 8329POPC   C2B64040  21.660  33.835   6.750
 8329POPC   C3B64041  21.624  33.786   7.050
 8329POPC   C4B64042  21.647  33.820   7.350
 8330POPC   NC364043  19.809  37.714   5.550
 8330POPC   PO464044  19.815  37.646   5.850
 8330POPC   GL164045  19.869  37.639   6.150
 8330POPC   GL264046  19.827  37.575   6.150
 8330POPC   C1A64047  19.817  37.679   6.450
 8330POPC   D2A64048  19.867  37.655   6.750
 8330POPC   C3A64049  19.845  37.638   7.050
 8330POPC   C4A64050  19.820  37.639   7.350
 8330POPC   C1B64051  19.783  37.420   6.450
 8330POPC   C2B64052  19.782  37.395   6.750
 8330POPC   C3B64053  19.749  37.440   7.050
 8330POPC   C4B64054  19.742  37.473   7.350
 8331POPC   NC364055  38.411  15.928   5.550
 8331POPC   PO464056  38.423  15.950   5.850
 8331POPC   GL164057  38.488  15.912   6.150
 8331POPC   GL264058  38.362  15.921   6.150
 8331POPC   C1A64059  38.448  15.969   6.450
 8331POPC   D2A64060  38.427  15.962   6.750
 8331POPC   C3A64061  38.472  15.986   7.050
 8331POPC   C4A64062  38.489  16.003   7.350
 8331POPC   C1B64063  38.170  15.883   6.450
 8331POPC   C2B64064  38.174  15.954   6.750
 8331POPC   C3B64065  38.235  15.903   7.050
 8331POPC   C4B64066  38.181  15.868   7.350
 8332POPC   NC364067  18.296  39.281   5.550
 8332POPC   PO464068  18.312  39.189   5.850
 8332POPC   GL164069  18.254  39.194   6.150
 8332POPC   GL264070  18.203  39.198   6.150
 8332POPC   C1A64071  18.324  39.211   6.450
 8332POPC   D2A64072  18.248  39.237   6.750
 8332POPC   C3A64073  18.267  39.218   7.050
 8332POPC   C4A64074  18.316  39.279   7.350
 8332POPC   C1B64075  18.061  39.276   6.450
 8332POPC   C2B64076  18.075  39.213   6.750
 8332POPC   C3B64077  18.070  39.232   7.050
 8332POPC   C4B64078  17.996  39.298   7.350
 8333POPC   NC364079  37.651   4.317   5.550
 8333POPC   PO464080  37.701   4.333   5.850
 8333POPC   GL164081  37.642   4.308   6.150
 8333POPC   GL264082  37.554   4.256   6.150
 8333POPC   C1A64083  37.650   4.306   6.450
 8333POPC   D2A64084  37.690   4.345   6.750
 8333POPC   C3A64085  37.658   4.320   7.050
 8333POPC   C4A64086  37.688   4.283   7.350
 8333POPC   C1B64087  37.554   4.155   6.450
 8333POPC   C2B64088  37.549   4.150   6.750
 8333POPC   C3B64089  37.524   4.117   7.050
 8333POPC   C4B64090  37.538   4.131   7.350
 8334POPC   NC364091   9.708   2.036   5.550
 8334POPC   PO464092   9.744   1.984   5.850
 8334POPC   GL164093   9.743   1.953   6.150
 8334POPC   GL264094   9.652   1.995   6.150
 8334POPC   C1A64095   9.794   1.951   6.450
 8334POPC   D2A64096   9.734   1.985   6.750
 8334POPC   C3A64097   9.723   2.002   7.050
 8334POPC   C4A64098   9.755   2.015   7.350
 8334POPC   C1B64099   9.471   1.986   6.450
 8334POPC   C2B64100   9.458   1.920   6.750
 8334POPC   C3B64101   9.461   1.935   7.050
 8334POPC   C4B64102   9.488   1.913   7.350
 8335POPC   NC364103   3.520  40.745   5.550
 8335POPC   PO464104   3.520  40.748   5.850
 8335POPC   GL164105   3.556  40.764   6.150
 8335POPC   GL264106   3.599  40.637   6.150
 8335POPC   C1A64107   3.558  40.766   6.450
 8335POPC   D2A64108   3.581  40.797   6.750
 8335POPC   C3A64109   3.519  40.800   7.050
 8335POPC   C4A64110   3.580  40.780   7.350
 8335POPC   C1B64111   3.623  40.580   6.450
 8335POPC   C2B64112   3.590  40.576   6.750
 8335POPC   C3B64113   3.610  40.594   7.050
 8335POPC   C4B64114   3.644  40.586   7.350
 8336POPC   NC364115  12.069  44.668   5.550
 8336POPC   PO464116  12.119  44.682   5.850
 8336POPC   GL164117  12.093  44.656   6.150
 8336POPC   GL264118  12.187  44.660   6.150
 8336POPC   C1A64119  12.113  44.681   6.450
 8336POPC   D2A64120  12.116  44.661   6.750
 8336POPC   C3A64121  12.070  44.631   7.050
 8336POPC   C4A64122  12.048  44.686   7.350
 8336POPC   C1B64123  12.335  44.699   6.450
 8336POPC   C2B64124  12.319  44.707   6.750
 8336POPC   C3B64125  12.274  44.697   7.050
 8336POPC   C4B64126  12.357  44.719   7.350
 8337POPC   NC364127  20.572  25.293   5.550
 8337POPC   PO464128  20.579  25.287   5.850
 8337POPC   GL164129  20.638  25.229   6.150
 8337POPC   GL264130  20.491  25.321   6.150
 8337POPC   C1A64131  20.621  25.275   6.450
 8337POPC   D2A64132  20.619  25.306   6.750
 8337POPC   C3A64133  20.609  25.240   7.050
 8337POPC   C4A64134  20.619  25.238   7.350
 8337POPC   C1B64135  20.370  25.410   6.450
 8337POPC   C2B64136  20.403  25.447   6.750
 8337POPC   C3B64137  20.424  25.422   7.050
 8337POPC   C4B64138  20.356  25.380   7.350
 8338POPC   NC364139  38.485  38.410   5.550
 8338POPC   PO464140  38.501  38.469   5.850
 8338POPC   GL164141  38.502  38.473   6.150
 8338POPC   GL264142  38.323  38.424   6.150
 8338POPC   C1A64143  38.456  38.491   6.450
 8338POPC   D2A64144  38.409  38.485   6.750
 8338POPC   C3A64145  38.476  38.480   7.050
 8338POPC   C4A64146  38.493  38.408   7.350
 8338POPC   C1B64147  38.238  38.445   6.450
 8338POPC   C2B64148  38.168  38.448   6.750
 8338POPC   C3B64149  38.197  38.409   7.050
 8338POPC   C4B64150  38.219  38.457   7.350
 8339POPC   NC364151  18.318  38.437   5.550
 8339POPC   PO464152  18.238  38.432   5.850
 8339POPC   GL164153  18.288  38.478   6.150
 8339POPC   GL264154  18.397  38.386   6.150
 8339POPC   C1A64155  18.245  38.442   6.450
 8339POPC   D2A64156  18.251  38.502   6.750
 8339POPC   C3A64157  18.253  38.455   7.050
 8339POPC   C4A64158  18.254  38.441   7.350
 8339POPC   C1B64159  18.435  38.300   6.450
 8339POPC   C2B64160  18.461  38.253   6.750
 8339POPC   C3B64161  18.450  38.250   7.050
 8339POPC   C4B64162  18.433  38.310   7.350
 8340POPC   NC364163  44.659  15.942   5.550
 8340POPC   PO464164  44.636  15.907   5.850
 8340POPC   GL164165  44.677  15.965   6.150
 8340POPC   GL264166  44.558  15.875   6.150
 8340POPC   C1A64167  44.622  15.968   6.450
 8340POPC   D2A64168  44.700  15.961   6.750
 8340POPC   C3A64169  44.708  15.922   7.050
 8340POPC   C4A64170  44.670  15.948   7.350
 8340POPC   C1B64171  44.568  15.718   6.450
 8340POPC   C2B64172  44.496  15.706   6.750
 8340POPC   C3B64173  44.500  15.726   7.050
 8340POPC   C4B64174  44.504  15.772   7.350
 8341POPC   NC364175  37.637  12.888   5.550
 8341POPC   PO464176  37.706  12.836   5.850
 8341POPC   GL164177  37.680  12.814   6.150
 8341POPC   GL264178  37.826  12.891   6.150
 8341POPC   C1A64179  37.668  12.898   6.450
 8341POPC   D2A64180  37.717  12.828   6.750
 8341POPC   C3A64181  37.661  12.850   7.050
 8341POPC   C4A64182  37.669  12.877   7.350
 8341POPC   C1B64183  37.888  12.963   6.450
 8341POPC   C2B64184  37.883  12.980   6.750
 8341POPC   C3B64185  37.880  13.028   7.050
 8341POPC   C4B64186  37.895  13.040   7.350
 8342POPC   NC364187   5.046  16.751   5.550
 8342POPC   PO464188   5.047  16.748   5.850
 8342POPC   GL164189   5.072  16.685   6.150
 8342POPC   GL264190   5.093  16.890   6.150
 8342POPC   C1A64191   5.095  16.682   6.450
 8342POPC   D2A64192   5.066  16.764   6.750
 8342POPC   C3A64193   5.137  16.750   7.050
 8342POPC   C4A64194   5.063  16.756   7.350
 8342POPC   C1B64195   5.189  17.017   6.450
 8342POPC   C2B64196   5.133  16.935   6.750
 8342POPC   C3B64197   5.178  16.999   7.050
 8342POPC   C4B64198   5.115  16.944   7.350
 8343POPC   NC364199   8.936   5.828   5.550
 8343POPC   PO464200   8.989   5.918   5.850
 8343POPC   GL164201   8.939   5.832   6.150
 8343POPC   GL264202   8.953   6.010   6.150
 8343POPC   C1A64203   8.961   5.852   6.450
 8343POPC   D2A64204   8.988   5.902   6.750
 8343POPC   C3A64205   9.022   5.870   7.050
 8343POPC   C4A64206   8.991   5.833   7.350
 8343POPC   C1B64207   8.993   6.079   6.450
 8343POPC   C2B64208   8.992   6.089   6.750
 8343POPC   C3B64209   9.010   6.092   7.050
 8343POPC   C4B64210   8.965   6.087   7.350
 8344POPC   NC364211   5.865  31.451   5.550
 8344POPC   PO464212   5.828  31.439   5.850
 8344POPC   GL164213   5.821  31.437   6.150
 8344POPC   GL264214   5.848  31.393   6.150
 8344POPC   C1A64215   5.838  31.457   6.450
 8344POPC   D2A64216   5.853  31.481   6.750
 8344POPC   C3A64217   5.820  31.482   7.050
 8344POPC   C4A64218   5.874  31.464   7.350
 8344POPC   C1B64219   5.729  31.217   6.450
 8344POPC   C2B64220   5.690  31.216   6.750
 8344POPC   C3B64221   5.735  31.271   7.050
 8344POPC   C4B64222   5.727  31.298   7.350
 8345POPC   NC364223  36.923  23.695   5.550
 8345POPC   PO464224  36.948  23.673   5.850
 8345POPC   GL164225  36.889  23.733   6.150
 8345POPC   GL264226  36.974  23.804   6.150
 8345POPC   C1A64227  36.934  23.725   6.450
 8345POPC   D2A64228  36.928  23.686   6.750
 8345POPC   C3A64229  36.856  23.750   7.050
 8345POPC   C4A64230  36.865  23.743   7.350
 8345POPC   C1B64231  37.168  23.854   6.450
 8345POPC   C2B64232  37.134  23.824   6.750
 8345POPC   C3B64233  37.106  23.824   7.050
 8345POPC   C4B64234  37.173  23.853   7.350
 8346POPC   NC364235  41.586  18.292   5.550
 8346POPC   PO464236  41.597  18.300   5.850
 8346POPC   GL164237  41.518  18.296   6.150
 8346POPC   GL264238  41.665  18.174   6.150
 8346POPC   C1A64239  41.549  18.281   6.450
 8346POPC   D2A64240  41.509  18.294   6.750
 8346POPC   C3A64241  41.558  18.268   7.050
 8346POPC   C4A64242  41.583  18.264   7.350
 8346POPC   C1B64243  41.666  18.074   6.450
 8346POPC   C2B64244  41.733  18.060   6.750
 8346POPC   C3B64245  41.745  18.128   7.050
 8346POPC   C4B64246  41.753  18.123   7.350
 8347POPC   NC364247   5.128  33.054   5.550
 8347POPC   PO464248   5.092  33.031   5.850
 8347POPC   GL164249   5.046  33.010   6.150
 8347POPC   GL264250   5.209  33.075   6.150
 8347POPC   C1A64251   5.105  33.012   6.450
 8347POPC   D2A64252   5.091  32.980   6.750
 8347POPC   C3A64253   5.128  33.052   7.050
 8347POPC   C4A64254   5.132  32.991   7.350
 8347POPC   C1B64255   5.345  33.147   6.450
 8347POPC   C2B64256   5.285  33.093   6.750
 8347POPC   C3B64257   5.327  33.090   7.050
 8347POPC   C4B64258   5.285  33.105   7.350
 8348POPC   NC364259  15.176  13.630   5.550
 8348POPC   PO464260  15.153  13.591   5.850
 8348POPC   GL164261  15.223  13.653   6.150
 8348POPC   GL264262  15.109  13.674   6.150
 8348POPC   C1A64263  15.186  13.594   6.450
 8348POPC   D2A64264  15.156  13.638   6.750
 8348POPC   C3A64265  15.189  13.620   7.050
 8348POPC   C4A64266  15.156  13.656   7.350
 8348POPC   C1B64267  14.977  13.793   6.450
 8348POPC   C2B64268  14.980  13.780   6.750
 8348POPC   C3B64269  15.028  13.826   7.050
 8348POPC   C4B64270  15.007  13.848   7.350
 8349POPC   NC364271  38.411  12.867   5.550
 8349POPC   PO464272  38.492  12.818   5.850
 8349POPC   GL164273  38.505  12.835   6.150
 8349POPC   GL264274  38.607  12.882   6.150
 8349POPC   C1A64275  38.422  12.871   6.450
 8349POPC   D2A64276  38.461  12.875   6.750
 8349POPC   C3A64277  38.471  12.842   7.050
 8349POPC   C4A64278  38.476  12.857   7.350
 8349POPC   C1B64279  38.730  12.916   6.450
 8349POPC   C2B64280  38.634  13.004   6.750
 8349POPC   C3B64281  38.653  12.987   7.050
 8349POPC   C4B64282  38.680  12.974   7.350
 8350POPC   NC364283  43.902  33.063   5.550
 8350POPC   PO464284  43.894  33.002   5.850
 8350POPC   GL164285  43.868  32.982   6.150
 8350POPC   GL264286  43.857  32.887   6.150
 8350POPC   C1A64287  43.929  32.980   6.450
 8350POPC   D2A64288  43.898  33.025   6.750
 8350POPC   C3A64289  43.850  33.060   7.050
 8350POPC   C4A64290  43.897  32.983   7.350
 8350POPC   C1B64291  43.925  32.744   6.450
 8350POPC   C2B64292  43.931  32.755   6.750
 8350POPC   C3B64293  43.910  32.809   7.050
 8350POPC   C4B64294  43.912  32.732   7.350
 8351POPC   NC364295   4.327  34.604   5.550
 8351POPC   PO464296   4.290  34.545   5.850
 8351POPC   GL164297   4.348  34.578   6.150
 8351POPC   GL264298   4.227  34.518   6.150
 8351POPC   C1A64299   4.353  34.554   6.450
 8351POPC   D2A64300   4.353  34.560   6.750
 8351POPC   C3A64301   4.302  34.603   7.050
 8351POPC   C4A64302   4.279  34.623   7.350
 8351POPC   C1B64303   4.098  34.514   6.450
 8351POPC   C2B64304   4.108  34.544   6.750
 8351POPC   C3B64305   4.066  34.566   7.050
 8351POPC   C4B64306   4.047  34.543   7.350
 8352POPC   NC364307  19.051   3.539   5.550
 8352POPC   PO464308  19.065   3.498   5.850
 8352POPC   GL164309  19.084   3.560   6.150
 8352POPC   GL264310  18.905   3.483   6.150
 8352POPC   C1A64311  19.093   3.576   6.450
 8352POPC   D2A64312  19.107   3.585   6.750
 8352POPC   C3A64313  19.073   3.575   7.050
 8352POPC   C4A64314  19.063   3.521   7.350
 8352POPC   C1B64315  18.787   3.477   6.450
 8352POPC   C2B64316  18.795   3.510   6.750
 8352POPC   C3B64317  18.836   3.462   7.050
 8352POPC   C4B64318  18.786   3.531   7.350
 8353POPC   NC364319  35.361  20.613   5.550
 8353POPC   PO464320  35.380  20.634   5.850
 8353POPC   GL164321  35.322  20.627   6.150
 8353POPC   GL264322  35.413  20.724   6.150
 8353POPC   C1A64323  35.323  20.597   6.450
 8353POPC   D2A64324  35.394  20.630   6.750
 8353POPC   C3A64325  35.323  20.606   7.050
 8353POPC   C4A64326  35.364  20.618   7.350
 8353POPC   C1B64327  35.524  20.746   6.450
 8353POPC   C2B64328  35.545  20.783   6.750
 8353POPC   C3B64329  35.515  20.731   7.050
 8353POPC   C4B64330  35.506  20.784   7.350
 8354POPC   NC364331  33.029  35.321   5.550
 8354POPC   PO464332  33.002  35.339   5.850
 8354POPC   GL164333  33.030  35.313   6.150
 8354POPC   GL264334  32.942  35.291   6.150
 8354POPC   C1A64335  33.070  35.339   6.450
 8354POPC   D2A64336  33.003  35.327   6.750
 8354POPC   C3A64337  33.053  35.400   7.050
 8354POPC   C4A64338  33.043  35.316   7.350
 8354POPC   C1B64339  32.782  35.295   6.450
 8354POPC   C2B64340  32.749  35.279   6.750
 8354POPC   C3B64341  32.804  35.310   7.050
 8354POPC   C4B64342  32.773  35.278   7.350
 8355POPC   NC364343  32.226  16.735   5.550
 8355POPC   PO464344  32.238  16.774   5.850
 8355POPC   GL164345  32.223  16.706   6.150
 8355POPC   GL264346  32.421  16.744   6.150
 8355POPC   C1A64347  32.226  16.741   6.450
 8355POPC   D2A64348  32.242  16.694   6.750
 8355POPC   C3A64349  32.262  16.738   7.050
 8355POPC   C4A64350  32.281  16.707   7.350
 8355POPC   C1B64351  32.513  16.757   6.450
 8355POPC   C2B64352  32.511  16.753   6.750
 8355POPC   C3B64353  32.489  16.703   7.050
 8355POPC   C4B64354  32.473  16.695   7.350
 8356POPC   NC364355  16.686   0.414   5.550
 8356POPC   PO464356  16.757   0.434   5.850
 8356POPC   GL164357  16.754   0.487   6.150
 8356POPC   GL264358  16.881   0.379   6.150
 8356POPC   C1A64359  16.753   0.408   6.450
 8356POPC   D2A64360  16.688   0.465   6.750
 8356POPC   C3A64361  16.777   0.460   7.050
 8356POPC   C4A64362  16.773   0.414   7.350
 8356POPC   C1B64363  16.911   0.277   6.450
 8356POPC   C2B64364  16.906   0.279   6.750
 8356POPC   C3B64365  16.933   0.332   7.050
 8356POPC   C4B64366  16.900   0.312   7.350
 8357POPC   NC364367  21.432  38.449   5.550
 8357POPC   PO464368  21.426  38.445   5.850
 8357POPC   GL164369  21.397  38.470   6.150
 8357POPC   GL264370  21.476  38.372   6.150
 8357POPC   C1A64371  21.360  38.490   6.450
 8357POPC   D2A64372  21.381  38.415   6.750
 8357POPC   C3A64373  21.342  38.435   7.050
 8357POPC   C4A64374  21.369  38.473   7.350
 8357POPC   C1B64375  21.665  38.402   6.450
 8357POPC   C2B64376  21.651  38.363   6.750
 8357POPC   C3B64377  21.634  38.337   7.050
 8357POPC   C4B64378  21.588  38.378   7.350
 8358POPC   NC364379  22.148   6.622   5.550
 8358POPC   PO464380  22.171   6.687   5.850
 8358POPC   GL164381  22.209   6.658   6.150
 8358POPC   GL264382  22.052   6.631   6.150
 8358POPC   C1A64383  22.187   6.643   6.450
 8358POPC   D2A64384  22.118   6.666   6.750
 8358POPC   C3A64385  22.174   6.622   7.050
 8358POPC   C4A64386  22.143   6.600   7.350
 8358POPC   C1B64387  21.904   6.682   6.450
 8358POPC   C2B64388  21.899   6.696   6.750
 8358POPC   C3B64389  21.879   6.718   7.050
 8358POPC   C4B64390  21.916   6.738   7.350
 8359POPC   NC364391  22.145  37.698   5.550
 8359POPC   PO464392  22.157  37.689   5.850
 8359POPC   GL164393  22.133  37.680   6.150
 8359POPC   GL264394  22.112  37.767   6.150
 8359POPC   C1A64395  22.210  37.683   6.450
 8359POPC   D2A64396  22.171  37.646   6.750
 8359POPC   C3A64397  22.176  37.685   7.050
 8359POPC   C4A64398  22.175  37.655   7.350
 8359POPC   C1B64399  22.109  37.890   6.450
 8359POPC   C2B64400  22.099  37.965   6.750
 8359POPC   C3B64401  22.064  37.922   7.050
 8359POPC   C4B64402  22.100  37.910   7.350
 8360POPC   NC364403  20.602  40.009   5.550
 8360POPC   PO464404  20.657  39.988   5.850
 8360POPC   GL164405  20.660  39.967   6.150
 8360POPC   GL264406  20.656  40.161   6.150
 8360POPC   C1A64407  20.612  39.959   6.450
 8360POPC   D2A64408  20.660  40.051   6.750
 8360POPC   C3A64409  20.561  40.050   7.050
 8360POPC   C4A64410  20.653  39.989   7.350
 8360POPC   C1B64411  20.716  40.249   6.450
 8360POPC   C2B64412  20.727  40.208   6.750
 8360POPC   C3B64413  20.773  40.195   7.050
 8360POPC   C4B64414  20.765  40.202   7.350
 8361POPC   NC364415  24.507  41.586   5.550
 8361POPC   PO464416  24.532  41.584   5.850
 8361POPC   GL164417  24.499  41.561   6.150
 8361POPC   GL264418  24.606  41.527   6.150
 8361POPC   C1A64419  24.477  41.589   6.450
 8361POPC   D2A64420  24.488  41.559   6.750
 8361POPC   C3A64421  24.485  41.553   7.050
 8361POPC   C4A64422  24.464  41.591   7.350
 8361POPC   C1B64423  24.787  41.522   6.450
 8361POPC   C2B64424  24.779  41.524   6.750
 8361POPC   C3B64425  24.723  41.605   7.050
 8361POPC   C4B64426  24.715  41.556   7.350
 8362POPC   NC364427  36.139  20.644   5.550
 8362POPC   PO464428  36.083  20.632   5.850
 8362POPC   GL164429  36.116  20.585   6.150
 8362POPC   GL264430  36.017  20.677   6.150
 8362POPC   C1A64431  36.160  20.606   6.450
 8362POPC   D2A64432  36.087  20.606   6.750
 8362POPC   C3A64433  36.093  20.618   7.050
 8362POPC   C4A64434  36.146  20.632   7.350
 8362POPC   C1B64435  35.977  20.796   6.450
 8362POPC   C2B64436  35.982  20.799   6.750
 8362POPC   C3B64437  35.932  20.758   7.050
 8362POPC   C4B64438  35.998  20.818   7.350
 8363POPC   NC364439  18.304  28.354   5.550
 8363POPC   PO464440  18.325  28.408   5.850
 8363POPC   GL164441  18.304  28.323   6.150
 8363POPC   GL264442  18.299  28.457   6.150
 8363POPC   C1A64443  18.324  28.417   6.450
 8363POPC   D2A64444  18.284  28.398   6.750
 8363POPC   C3A64445  18.323  28.350   7.050
 8363POPC   C4A64446  18.331  28.379   7.350
 8363POPC   C1B64447  18.179  28.588   6.450
 8363POPC   C2B64448  18.183  28.605   6.750
 8363POPC   C3B64449  18.254  28.566   7.050
 8363POPC   C4B64450  18.242  28.645   7.350
 8364POPC   NC364451  44.664   5.837   5.550
 8364POPC   PO464452  44.647   5.902   5.850
 8364POPC   GL164453  44.623   5.889   6.150
 8364POPC   GL264454  44.579   5.975   6.150
 8364POPC   C1A64455  44.681   5.825   6.450
 8364POPC   D2A64456  44.645   5.848   6.750
 8364POPC   C3A64457  44.628   5.852   7.050
 8364POPC   C4A64458  44.616   5.909   7.350
 8364POPC   C1B64459  44.583   6.059   6.450
 8364POPC   C2B64460  44.631   6.069   6.750
 8364POPC   C3B64461  44.598   6.128   7.050
 8364POPC   C4B64462  44.618   6.083   7.350
 8365POPC   NC364463  12.836  43.907   5.550
 8365POPC   PO464464  12.862  43.884   5.850
 8365POPC   GL164465  12.889  43.877   6.150
 8365POPC   GL264466  12.975  43.823   6.150
 8365POPC   C1A64467  12.885  43.842   6.450
 8365POPC   D2A64468  12.870  43.850   6.750
 8365POPC   C3A64469  12.898  43.918   7.050
 8365POPC   C4A64470  12.813  43.922   7.350
 8365POPC   C1B64471  13.021  43.676   6.450
 8365POPC   C2B64472  13.007  43.746   6.750
 8365POPC   C3B64473  13.044  43.696   7.050
 8365POPC   C4B64474  13.052  43.682   7.350
 8366POPC   NC364475  34.578   8.194   5.550
 8366POPC   PO464476  34.586   8.173   5.850
 8366POPC   GL164477  34.563   8.198   6.150
 8366POPC   GL264478  34.736   8.179   6.150
 8366POPC   C1A64479  34.566   8.195   6.450
 8366POPC   D2A64480  34.610   8.228   6.750
 8366POPC   C3A64481  34.556   8.180   7.050
 8366POPC   C4A64482  34.600   8.243   7.350
 8366POPC   C1B64483  34.804   8.162   6.450
 8366POPC   C2B64484  34.765   8.115   6.750
 8366POPC   C3B64485  34.855   8.106   7.050
 8366POPC   C4B64486  34.814   8.150   7.350
 8367POPC   NC364487   2.005  29.111   5.550
 8367POPC   PO464488   1.966  29.098   5.850
 8367POPC   GL164489   1.964  29.116   6.150
 8367POPC   GL264490   1.827  29.158   6.150
 8367POPC   C1A64491   1.945  29.187   6.450
 8367POPC   D2A64492   1.980  29.138   6.750
 8367POPC   C3A64493   1.956  29.190   7.050
 8367POPC   C4A64494   1.994  29.133   7.350
 8367POPC   C1B64495   1.778  29.066   6.450
 8367POPC   C2B64496   1.724  29.043   6.750
 8367POPC   C3B64497   1.735  29.033   7.050
 8367POPC   C4B64498   1.737  29.076   7.350
 8368POPC   NC364499  32.268  43.878   5.550
 8368POPC   PO464500  32.226  43.931   5.850
 8368POPC   GL164501  32.276  43.858   6.150
 8368POPC   GL264502  32.313  43.795   6.150
 8368POPC   C1A64503  32.225  43.879   6.450
 8368POPC   D2A64504  32.215  43.890   6.750
 8368POPC   C3A64505  32.236  43.868   7.050
 8368POPC   C4A64506  32.240  43.897   7.350
 8368POPC   C1B64507  32.394  43.667   6.450
 8368POPC   C2B64508  32.353  43.697   6.750
 8368POPC   C3B64509  32.404  43.701   7.050
 8368POPC   C4B64510  32.422  43.695   7.350
 8369POPC   NC364511   9.759  34.554   5.550
 8369POPC   PO464512   9.731  34.576   5.850
 8369POPC   GL164513   9.775  34.546   6.150
 8369POPC   GL264514   9.803  34.493   6.150
 8369POPC   C1A64515   9.699  34.538   6.450
 8369POPC   D2A64516   9.783  34.576   6.750
 8369POPC   C3A64517   9.729  34.564   7.050
 8369POPC   C4A64518   9.726  34.582   7.350
 8369POPC   C1B64519   9.824  34.311   6.450
 8369POPC   C2B64520   9.822  34.356   6.750
 8369POPC   C3B64521   9.867  34.341   7.050
 8369POPC   C4B64522   9.880  34.315   7.350
 8370POPC   NC364523  16.775  42.303   5.550
 8370POPC   PO464524  16.780  42.380   5.850
 8370POPC   GL164525  16.693  42.319   6.150
 8370POPC   GL264526  16.608  42.302   6.150
 8370POPC   C1A64527  16.767  42.295   6.450
 8370POPC   D2A64528  16.747  42.308   6.750
 8370POPC   C3A64529  16.755  42.357   7.050
 8370POPC   C4A64530  16.723  42.374   7.350
 8370POPC   C1B64531  16.432  42.310   6.450
 8370POPC   C2B64532  16.461  42.345   6.750
 8370POPC   C3B64533  16.472  42.335   7.050
 8370POPC   C4B64534  16.468  42.376   7.350
 8371POPC   NC364535   0.423  29.175   5.550
 8371POPC   PO464536   0.408  29.150   5.850
 8371POPC   GL164537   0.436  29.166   6.150
 8371POPC   GL264538   0.328  29.262   6.150
 8371POPC   C1A64539   0.431  29.126   6.450
 8371POPC   D2A64540   0.436  29.121   6.750
 8371POPC   C3A64541   0.483  29.159   7.050
 8371POPC   C4A64542   0.404  29.166   7.350
 8371POPC   C1B64543   0.264  29.311   6.450
 8371POPC   C2B64544   0.278  29.364   6.750
 8371POPC   C3B64545   0.267  29.309   7.050
 8371POPC   C4B64546   0.299  29.304   7.350
 8372POPC   NC364547  40.052  32.280   5.550
 8372POPC   PO464548  39.958  32.278   5.850
 8372POPC   GL164549  39.982  32.276   6.150
 8372POPC   GL264550  39.909  32.201   6.150
 8372POPC   C1A64551  40.045  32.262   6.450
 8372POPC   D2A64552  40.031  32.251   6.750
 8372POPC   C3A64553  40.010  32.294   7.050
 8372POPC   C4A64554  40.046  32.229   7.350
 8372POPC   C1B64555  39.821  32.197   6.450
 8372POPC   C2B64556  39.771  32.130   6.750
 8372POPC   C3B64557  39.802  32.186   7.050
 8372POPC   C4B64558  39.760  32.131   7.350
 8373POPC   NC364559   1.218  13.672   5.550
 8373POPC   PO464560   1.182  13.601   5.850
 8373POPC   GL164561   1.190  13.648   6.150
 8373POPC   GL264562   1.065  13.615   6.150
 8373POPC   C1A64563   1.220  13.645   6.450
 8373POPC   D2A64564   1.213  13.583   6.750
 8373POPC   C3A64565   1.247  13.654   7.050
 8373POPC   C4A64566   1.262  13.623   7.350
 8373POPC   C1B64567   0.948  13.524   6.450
 8373POPC   C2B64568   1.030  13.539   6.750
 8373POPC   C3B64569   0.987  13.473   7.050
 8373POPC   C4B64570   1.019  13.559   7.350
 8374POPC   NC364571   1.174   8.211   5.550
 8374POPC   PO464572   1.248   8.182   5.850
 8374POPC   GL164573   1.240   8.156   6.150
 8374POPC   GL264574   1.250   8.338   6.150
 8374POPC   C1A64575   1.260   8.233   6.450
 8374POPC   D2A64576   1.206   8.173   6.750
 8374POPC   C3A64577   1.241   8.203   7.050
 8374POPC   C4A64578   1.174   8.203   7.350
 8374POPC   C1B64579   1.330   8.444   6.450
 8374POPC   C2B64580   1.329   8.399   6.750
 8374POPC   C3B64581   1.253   8.441   7.050
 8374POPC   C4B64582   1.248   8.478   7.350
 8375POPC   NC364583  34.581  36.884   5.550
 8375POPC   PO464584  34.603  36.887   5.850
 8375POPC   GL164585  34.625  36.871   6.150
 8375POPC   GL264586  34.556  36.752   6.150
 8375POPC   C1A64587  34.625  36.939   6.450
 8375POPC   D2A64588  34.530  36.884   6.750
 8375POPC   C3A64589  34.542  36.907   7.050
 8375POPC   C4A64590  34.526  36.860   7.350
 8375POPC   C1B64591  34.622  36.661   6.450
 8375POPC   C2B64592  34.615  36.682   6.750
 8375POPC   C3B64593  34.602  36.677   7.050
 8375POPC   C4B64594  34.675  36.677   7.350
 8376POPC   NC364595   5.867  10.573   5.550
 8376POPC   PO464596   5.851  10.480   5.850
 8376POPC   GL164597   5.846  10.486   6.150
 8376POPC   GL264598   5.903  10.633   6.150
 8376POPC   C1A64599   5.820  10.568   6.450
 8376POPC   D2A64600   5.845  10.517   6.750
 8376POPC   C3A64601   5.832  10.523   7.050
 8376POPC   C4A64602   5.895  10.557   7.350
 8376POPC   C1B64603   5.908  10.793   6.450
 8376POPC   C2B64604   5.889  10.816   6.750
 8376POPC   C3B64605   5.881  10.821   7.050
 8376POPC   C4B64606   5.857  10.796   7.350
 8377POPC   NC364607  43.064  17.498   5.550
 8377POPC   PO464608  43.136  17.525   5.850
 8377POPC   GL164609  43.074  17.504   6.150
 8377POPC   GL264610  43.073  17.402   6.150
 8377POPC   C1A64611  43.102  17.505   6.450
 8377POPC   D2A64612  43.112  17.554   6.750
 8377POPC   C3A64613  43.117  17.490   7.050
 8377POPC   C4A64614  43.131  17.534   7.350
 8377POPC   C1B64615  43.171  17.260   6.450
 8377POPC   C2B64616  43.110  17.290   6.750
 8377POPC   C3B64617  43.100  17.226   7.050
 8377POPC   C4B64618  43.172  17.285   7.350
 8378POPC   NC364619  21.347  40.033   5.550
 8378POPC   PO464620  21.391  40.001   5.850
 8378POPC   GL164621  21.385  40.034   6.150
 8378POPC   GL264622  21.353  40.065   6.150
 8378POPC   C1A64623  21.381  40.047   6.450
 8378POPC   D2A64624  21.364  40.010   6.750
 8378POPC   C3A64625  21.436  39.962   7.050
 8378POPC   C4A64626  21.436  40.037   7.350
 8378POPC   C1B64627  21.290  40.201   6.450
 8378POPC   C2B64628  21.221  40.162   6.750
 8378POPC   C3B64629  21.256  40.171   7.050
 8378POPC   C4B64630  21.222  40.204   7.350
 8379POPC   NC364631  28.336   6.685   5.550
 8379POPC   PO464632  28.400   6.641   5.850
 8379POPC   GL164633  28.410   6.647   6.150
 8379POPC   GL264634  28.290   6.528   6.150
 8379POPC   C1A64635  28.353   6.658   6.450
 8379POPC   D2A64636  28.334   6.677   6.750
 8379POPC   C3A64637  28.397   6.606   7.050
 8379POPC   C4A64638  28.364   6.613   7.350
 8379POPC   C1B64639  28.160   6.459   6.450
 8379POPC   C2B64640  28.135   6.486   6.750
 8379POPC   C3B64641  28.134   6.540   7.050
 8379POPC   C4B64642  28.125   6.452   7.350
 8380POPC   NC364643  29.944  37.662   5.550
 8380POPC   PO464644  29.957  37.710   5.850
 8380POPC   GL164645  29.885  37.656   6.150
 8380POPC   GL264646  29.804  37.702   6.150
 8380POPC   C1A64647  29.942  37.727   6.450
 8380POPC   D2A64648  29.903  37.703   6.750
 8380POPC   C3A64649  29.899  37.692   7.050
 8380POPC   C4A64650  29.921  37.707   7.350
 8380POPC   C1B64651  29.633  37.645   6.450
 8380POPC   C2B64652  29.706  37.614   6.750
 8380POPC   C3B64653  29.701  37.646   7.050
 8380POPC   C4B64654  29.632  37.626   7.350
 8381POPC   NC364655   5.077  15.200   5.550
 8381POPC   PO464656   5.071  15.136   5.850
 8381POPC   GL164657   5.077  15.167   6.150
 8381POPC   GL264658   5.225  15.077   6.150
 8381POPC   C1A64659   5.093  15.145   6.450
 8381POPC   D2A64660   5.127  15.182   6.750
 8381POPC   C3A64661   5.062  15.167   7.050
 8381POPC   C4A64662   5.087  15.159   7.350
 8381POPC   C1B64663   5.306  14.986   6.450
 8381POPC   C2B64664   5.284  15.002   6.750
 8381POPC   C3B64665   5.308  15.045   7.050
 8381POPC   C4B64666   5.265  15.063   7.350
 8382POPC   NC364667  33.846   9.732   5.550
 8382POPC   PO464668  33.750   9.763   5.850
 8382POPC   GL164669  33.799   9.745   6.150
 8382POPC   GL264670  33.897   9.682   6.150
 8382POPC   C1A64671  33.827   9.774   6.450
 8382POPC   D2A64672  33.801   9.780   6.750
 8382POPC   C3A64673  33.784   9.750   7.050
 8382POPC   C4A64674  33.766   9.792   7.350
 8382POPC   C1B64675  33.874   9.568   6.450
 8382POPC   C2B64676  33.897   9.500   6.750
 8382POPC   C3B64677  33.920   9.543   7.050
 8382POPC   C4B64678  33.873   9.549   7.350
 8383POPC   NC364679   3.510  36.894   5.550
 8383POPC   PO464680   3.576  36.919   5.850
 8383POPC   GL164681   3.552  36.942   6.150
 8383POPC   GL264682   3.605  36.971   6.150
 8383POPC   C1A64683   3.570  36.904   6.450
 8383POPC   D2A64684   3.561  36.857   6.750
 8383POPC   C3A64685   3.582  36.903   7.050
 8383POPC   C4A64686   3.557  36.874   7.350
 8383POPC   C1B64687   3.759  37.036   6.450
 8383POPC   C2B64688   3.758  37.064   6.750
 8383POPC   C3B64689   3.746  37.087   7.050
 8383POPC   C4B64690   3.744  37.042   7.350
 8384POPC   NC364691  33.792  21.347   5.550
 8384POPC   PO464692  33.830  21.349   5.850
 8384POPC   GL164693  33.795  21.412   6.150
 8384POPC   GL264694  33.757  21.478   6.150
 8384POPC   C1A64695  33.803  21.410   6.450
 8384POPC   D2A64696  33.825  21.346   6.750
 8384POPC   C3A64697  33.764  21.432   7.050
 8384POPC   C4A64698  33.773  21.430   7.350
 8384POPC   C1B64699  33.656  21.646   6.450
 8384POPC   C2B64700  33.651  21.587   6.750
 8384POPC   C3B64701  33.681  21.619   7.050
 8384POPC   C4B64702  33.657  21.577   7.350
 8385POPC   NC364703  40.775  36.900   5.550
 8385POPC   PO464704  40.786  36.909   5.850
 8385POPC   GL164705  40.746  36.873   6.150
 8385POPC   GL264706  40.815  36.959   6.150
 8385POPC   C1A64707  40.749  36.902   6.450
 8385POPC   D2A64708  40.816  36.892   6.750
 8385POPC   C3A64709  40.762  36.931   7.050
 8385POPC   C4A64710  40.831  36.890   7.350
 8385POPC   C1B64711  40.979  37.134   6.450
 8385POPC   C2B64712  40.890  37.057   6.750
 8385POPC   C3B64713  40.889  37.109   7.050
 8385POPC   C4B64714  40.974  37.099   7.350
 8386POPC   NC364715  14.394  11.307   5.550
 8386POPC   PO464716  14.444  11.316   5.850
 8386POPC   GL164717  14.372  11.271   6.150
 8386POPC   GL264718  14.451  11.159   6.150
 8386POPC   C1A64719  14.401  11.275   6.450
 8386POPC   D2A64720  14.418  11.269   6.750
 8386POPC   C3A64721  14.416  11.330   7.050
 8386POPC   C4A64722  14.434  11.345   7.350
 8386POPC   C1B64723  14.539  11.104   6.450
 8386POPC   C2B64724  14.588  11.059   6.750
 8386POPC   C3B64725  14.513  11.094   7.050
 8386POPC   C4B64726  14.598  11.079   7.350
 8387POPC   NC364727  11.285  31.463   5.550
 8387POPC   PO464728  11.271  31.433   5.850
 8387POPC   GL164729  11.292  31.485   6.150
 8387POPC   GL264730  11.276  31.619   6.150
 8387POPC   C1A64731  11.318  31.438   6.450
 8387POPC   D2A64732  11.276  31.431   6.750
 8387POPC   C3A64733  11.310  31.451   7.050
 8387POPC   C4A64734  11.292  31.502   7.350
 8387POPC   C1B64735  11.196  31.708   6.450
 8387POPC   C2B64736  11.233  31.711   6.750
 8387POPC   C3B64737  11.222  31.743   7.050
 8387POPC   C4B64738  11.183  31.673   7.350
 8388POPC   NC364739  30.723  38.465   5.550
 8388POPC   PO464740  30.714  38.442   5.850
 8388POPC   GL164741  30.660  38.481   6.150
 8388POPC   GL264742  30.664  38.313   6.150
 8388POPC   C1A64743  30.676  38.483   6.450
 8388POPC   D2A64744  30.718  38.474   6.750
 8388POPC   C3A64745  30.746  38.420   7.050
 8388POPC   C4A64746  30.732  38.442   7.350
 8388POPC   C1B64747  30.733  38.211   6.450
 8388POPC   C2B64748  30.647  38.208   6.750
 8388POPC   C3B64749  30.706  38.253   7.050
 8388POPC   C4B64750  30.666  38.213   7.350
 8389POPC   NC364751   1.164   5.064   5.550
 8389POPC   PO464752   1.198   5.096   5.850
 8389POPC   GL164753   1.251   5.095   6.150
 8389POPC   GL264754   1.151   5.199   6.150
 8389POPC   C1A64755   1.205   5.113   6.450
 8389POPC   D2A64756   1.223   5.089   6.750
 8389POPC   C3A64757   1.198   5.055   7.050
 8389POPC   C4A64758   1.242   5.065   7.350
 8389POPC   C1B64759   1.176   5.285   6.450
 8389POPC   C2B64760   1.194   5.300   6.750
 8389POPC   C3B64761   1.196   5.300   7.050
 8389POPC   C4B64762   1.178   5.320   7.350
 8390POPC   NC364763  34.562  26.799   5.550
 8390POPC   PO464764  34.562  26.836   5.850
 8390POPC   GL164765  34.542  26.843   6.150
 8390POPC   GL264766  34.498  26.884   6.150
 8390POPC   C1A64767  34.563  26.789   6.450
 8390POPC   D2A64768  34.551  26.865   6.750
 8390POPC   C3A64769  34.600  26.769   7.050
 8390POPC   C4A64770  34.615  26.833   7.350
 8390POPC   C1B64771  34.304  26.856   6.450
 8390POPC   C2B64772  34.310  26.827   6.750
 8390POPC   C3B64773  34.361  26.906   7.050
 8390POPC   C4B64774  34.351  26.888   7.350
 8391POPC   NC364775  13.671  43.140   5.550
 8391POPC   PO464776  13.596  43.075   5.850
 8391POPC   GL164777  13.605  43.140   6.150
 8391POPC   GL264778  13.590  43.165   6.150
 8391POPC   C1A64779  13.614  43.065   6.450
 8391POPC   D2A64780  13.581  43.159   6.750
 8391POPC   C3A64781  13.671  43.159   7.050
 8391POPC   C4A64782  13.624  43.107   7.350
 8391POPC   C1B64783  13.451  43.303   6.450
 8391POPC   C2B64784  13.530  43.289   6.750
 8391POPC   C3B64785  13.492  43.275   7.050
 8391POPC   C4B64786  13.444  43.330   7.350
 8392POPC   NC364787  17.466  17.549   5.550
 8392POPC   PO464788  17.521  17.476   5.850
 8392POPC   GL164789  17.488  17.530   6.150
 8392POPC   GL264790  17.483  17.362   6.150
 8392POPC   C1A64791  17.461  17.509   6.450
 8392POPC   D2A64792  17.464  17.502   6.750
 8392POPC   C3A64793  17.500  17.531   7.050
 8392POPC   C4A64794  17.470  17.497   7.350
 8392POPC   C1B64795  17.389  17.255   6.450
 8392POPC   C2B64796  17.360  17.254   6.750
 8392POPC   C3B64797  17.353  17.316   7.050
 8392POPC   C4B64798  17.409  17.266   7.350
 8393POPC   NC364799  24.492  36.152   5.550
 8393POPC   PO464800  24.487  36.113   5.850
 8393POPC   GL164801  24.460  36.089   6.150
 8393POPC   GL264802  24.419  36.038   6.150
 8393POPC   C1A64803  24.529  36.171   6.450
 8393POPC   D2A64804  24.499  36.153   6.750
 8393POPC   C3A64805  24.456  36.119   7.050
 8393POPC   C4A64806  24.440  36.164   7.350
 8393POPC   C1B64807  24.308  35.948   6.450
 8393POPC   C2B64808  24.350  36.003   6.750
 8393POPC   C3B64809  24.282  35.906   7.050
 8393POPC   C4B64810  24.319  35.923   7.350
 8394POPC   NC364811  25.241   1.202   5.550
 8394POPC   PO464812  25.271   1.251   5.850
 8394POPC   GL164813  25.311   1.206   6.150
 8394POPC   GL264814  25.326   1.326   6.150
 8394POPC   C1A64815  25.266   1.200   6.450
 8394POPC   D2A64816  25.276   1.231   6.750
 8394POPC   C3A64817  25.266   1.248   7.050
 8394POPC   C4A64818  25.216   1.254   7.350
 8394POPC   C1B64819  25.375   1.414   6.450
 8394POPC   C2B64820  25.372   1.447   6.750
 8394POPC   C3B64821  25.388   1.499   7.050
 8394POPC   C4B64822  25.371   1.461   7.350
 8395POPC   NC364823  41.579  33.048   5.550
 8395POPC   PO464824  41.509  33.029   5.850
 8395POPC   GL164825  41.545  33.032   6.150
 8395POPC   GL264826  41.510  33.197   6.150
 8395POPC   C1A64827  41.510  33.026   6.450
 8395POPC   D2A64828  41.556  33.027   6.750
 8395POPC   C3A64829  41.540  33.001   7.050
 8395POPC   C4A64830  41.592  32.978   7.350
 8395POPC   C1B64831  41.603  33.309   6.450
 8395POPC   C2B64832  41.534  33.247   6.750
 8395POPC   C3B64833  41.576  33.260   7.050
 8395POPC   C4B64834  41.546  33.272   7.350
 8396POPC   NC364835  44.694  28.379   5.550
 8396POPC   PO464836  44.687  28.343   5.850
 8396POPC   GL164837  44.650  28.365   6.150
 8396POPC   GL264838  44.607  28.255   6.150
 8396POPC   C1A64839  44.681  28.325   6.450
 8396POPC   D2A64840  44.711  28.361   6.750
 8396POPC   C3A64841  44.688  28.357   7.050
 8396POPC   C4A64842  44.702  28.414   7.350
 8396POPC   C1B64843  44.444  28.183   6.450
 8396POPC   C2B64844  44.462  28.141   6.750
 8396POPC   C3B64845  44.509  28.216   7.050
 8396POPC   C4B64846  44.468  28.204   7.350
 8397POPC   NC364847   9.725  24.534   5.550
 8397POPC   PO464848   9.788  24.456   5.850
 8397POPC   GL164849   9.707  24.513   6.150
 8397POPC   GL264850   9.803  24.579   6.150
 8397POPC   C1A64851   9.703  24.487   6.450
 8397POPC   D2A64852   9.779  24.507   6.750
 8397POPC   C3A64853   9.735  24.522   7.050
 8397POPC   C4A64854   9.794  24.503   7.350
 8397POPC   C1B64855   9.791  24.771   6.450
 8397POPC   C2B64856   9.798  24.736   6.750
 8397POPC   C3B64857   9.772  24.736   7.050
 8397POPC   C4B64858   9.739  24.703   7.350
 8398POPC   NC364859  29.889  10.514   5.550
 8398POPC   PO464860  29.900  10.475   5.850
 8398POPC   GL164861  29.894  10.514   6.150
 8398POPC   GL264862  29.811  10.512   6.150
 8398POPC   C1A64863  29.913  10.549   6.450
 8398POPC   D2A64864  29.946  10.477   6.750
 8398POPC   C3A64865  29.933  10.491   7.050
 8398POPC   C4A64866  29.968  10.547   7.350
 8398POPC   C1B64867  29.713  10.519   6.450
 8398POPC   C2B64868  29.705  10.518   6.750
 8398POPC   C3B64869  29.722  10.499   7.050
 8398POPC   C4B64870  29.671  10.502   7.350
 8399POPC   NC364871  35.380  17.459   5.550
 8399POPC   PO464872  35.320  17.528   5.850
 8399POPC   GL164873  35.311  17.548   6.150
 8399POPC   GL264874  35.182  17.520   6.150
 8399POPC   C1A64875  35.370  17.546   6.450
 8399POPC   D2A64876  35.380  17.556   6.750
 8399POPC   C3A64877  35.366  17.540   7.050
 8399POPC   C4A64878  35.392  17.510   7.350
 8399POPC   C1B64879  35.075  17.420   6.450
 8399POPC   C2B64880  35.072  17.445   6.750
 8399POPC   C3B64881  35.139  17.440   7.050
 8399POPC   C4B64882  35.082  17.477   7.350
 8400POPC   NC364883   4.288  43.154   5.550
 8400POPC   PO464884   4.281  43.098   5.850
 8400POPC   GL164885   4.327  43.145   6.150
 8400POPC   GL264886   4.390  42.968   6.150
 8400POPC   C1A64887   4.337  43.075   6.450
 8400POPC   D2A64888   4.325  43.125   6.750
 8400POPC   C3A64889   4.320  43.134   7.050
 8400POPC   C4A64890   4.354  43.094   7.350
 8400POPC   C1B64891   4.366  42.839   6.450
 8400POPC   C2B64892   4.431  42.841   6.750
 8400POPC   C3B64893   4.420  42.901   7.050
 8400POPC   C4B64894   4.387  42.831   7.350
 8401POPC   NC364895  23.676   9.762   5.550
 8401POPC   PO464896  23.671   9.698   5.850
 8401POPC   GL164897  23.745   9.760   6.150
 8401POPC   GL264898  23.867   9.655   6.150
 8401POPC   C1A64899  23.713   9.782   6.450
 8401POPC   D2A64900  23.762   9.795   6.750
 8401POPC   C3A64901  23.711   9.754   7.050
 8401POPC   C4A64902  23.719   9.764   7.350
 8401POPC   C1B64903  23.963   9.588   6.450
 8401POPC   C2B64904  23.906   9.629   6.750
 8401POPC   C3B64905  23.958   9.619   7.050
 8401POPC   C4B64906  23.957   9.597   7.350
 8402POPC   NC364907   8.162  24.460   5.550
 8402POPC   PO464908   8.231  24.497   5.850
 8402POPC   GL164909   8.228  24.494   6.150
 8402POPC   GL264910   8.213  24.392   6.150
 8402POPC   C1A64911   8.180  24.450   6.450
 8402POPC   D2A64912   8.201  24.456   6.750
 8402POPC   C3A64913   8.154  24.520   7.050
 8402POPC   C4A64914   8.200  24.529   7.350
 8402POPC   C1B64915   8.207  24.229   6.450
 8402POPC   C2B64916   8.200  24.228   6.750
 8402POPC   C3B64917   8.165  24.226   7.050
 8402POPC   C4B64918   8.169  24.274   7.350
 8403POPC   NC364919  26.810  15.918   5.550
 8403POPC   PO464920  26.821  15.985   5.850
 8403POPC   GL164921  26.802  15.924   6.150
 8403POPC   GL264922  26.911  16.038   6.150
 8403POPC   C1A64923  26.829  15.977   6.450
 8403POPC   D2A64924  26.772  15.936   6.750
 8403POPC   C3A64925  26.770  15.908   7.050
 8403POPC   C4A64926  26.826  15.950   7.350
 8403POPC   C1B64927  27.104  16.054   6.450
 8403POPC   C2B64928  27.037  16.044   6.750
 8403POPC   C3B64929  27.030  16.067   7.050
 8403POPC   C4B64930  27.105  15.991   7.350
 8404POPC   NC364931  34.558  40.012   5.550
 8404POPC   PO464932  34.619  39.978   5.850
 8404POPC   GL164933  34.549  40.022   6.150
 8404POPC   GL264934  34.523  39.886   6.150
 8404POPC   C1A64935  34.587  40.054   6.450
 8404POPC   D2A64936  34.559  39.965   6.750
 8404POPC   C3A64937  34.596  40.033   7.050
 8404POPC   C4A64938  34.554  39.998   7.350
 8404POPC   C1B64939  34.548  39.735   6.450
 8404POPC   C2B64940  34.598  39.755   6.750
 8404POPC   C3B64941  34.535  39.779   7.050
 8404POPC   C4B64942  34.525  39.755   7.350
 8405POPC   NC364943   8.963  12.071   5.550
 8405POPC   PO464944   8.965  12.079   5.850
 8405POPC   GL164945   8.992  12.105   6.150
 8405POPC   GL264946   9.030  12.206   6.150
 8405POPC   C1A64947   8.983  12.032   6.450
 8405POPC   D2A64948   9.015  12.060   6.750
 8405POPC   C3A64949   8.925  12.092   7.050
 8405POPC   C4A64950   8.959  12.076   7.350
 8405POPC   C1B64951   8.977  12.364   6.450
 8405POPC   C2B64952   9.016  12.309   6.750
 8405POPC   C3B64953   8.995  12.296   7.050
 8405POPC   C4B64954   9.029  12.298   7.350
 8406POPC   NC364955  12.846  21.411   5.550
 8406POPC   PO464956  12.861  21.339   5.850
 8406POPC   GL164957  12.809  21.392   6.150
 8406POPC   GL264958  12.848  21.515   6.150
 8406POPC   C1A64959  12.820  21.383   6.450
 8406POPC   D2A64960  12.842  21.403   6.750
 8406POPC   C3A64961  12.865  21.379   7.050
 8406POPC   C4A64962  12.822  21.431   7.350
 8406POPC   C1B64963  12.846  21.681   6.450
 8406POPC   C2B64964  12.856  21.682   6.750
 8406POPC   C3B64965  12.900  21.618   7.050
 8406POPC   C4B64966  12.920  21.674   7.350
 8407POPC   NC364967  32.281   8.955   5.550
 8407POPC   PO464968  32.234   8.948   5.850
 8407POPC   GL164969  32.248   9.021   6.150
 8407POPC   GL264970  32.346   8.856   6.150
 8407POPC   C1A64971  32.220   8.992   6.450
 8407POPC   D2A64972  32.293   8.959   6.750
 8407POPC   C3A64973  32.203   8.980   7.050
 8407POPC   C4A64974  32.294   8.986   7.350
 8407POPC   C1B64975  32.422   8.858   6.450
 8407POPC   C2B64976  32.398   8.786   6.750
 8407POPC   C3B64977  32.411   8.836   7.050
 8407POPC   C4B64978  32.415   8.801   7.350
 8408POPC   NC364979  15.929  36.953   5.550
 8408POPC   PO464980  15.936  36.907   5.850
 8408POPC   GL164981  16.004  36.953   6.150
 8408POPC   GL264982  15.879  36.801   6.150
 8408POPC   C1A64983  15.933  36.950   6.450
 8408POPC   D2A64984  15.951  36.865   6.750
 8408POPC   C3A64985  15.992  36.893   7.050
 8408POPC   C4A64986  15.944  36.904   7.350
 8408POPC   C1B64987  15.797  36.709   6.450
 8408POPC   C2B64988  15.787  36.707   6.750
 8408POPC   C3B64989  15.858  36.653   7.050
 8408POPC   C4B64990  15.793  36.739   7.350
 8409POPC   NC364991  11.300   9.787   5.550
 8409POPC   PO464992  11.271   9.707   5.850
 8409POPC   GL164993  11.278   9.777   6.150
 8409POPC   GL264994  11.395   9.890   6.150
 8409POPC   C1A64995  11.278   9.785   6.450
 8409POPC   D2A64996  11.324   9.752   6.750
 8409POPC   C3A64997  11.338   9.754   7.050
 8409POPC   C4A64998  11.344   9.777   7.350
 8409POPC   C1B64999  11.393   9.998   6.450
 8409POPC   C2B65000  11.400   9.972   6.750
 8409POPC   C3B65001  11.465   9.939   7.050
 8409POPC   C4B65002  11.387   9.933   7.350
 8410POPC   NC365003  12.059  22.974   5.550
 8410POPC   PO465004  12.094  22.987   5.850
 8410POPC   GL165005  12.121  22.944   6.150
 8410POPC   GL265006  12.035  23.103   6.150
 8410POPC   C1A65007  12.125  22.911   6.450
 8410POPC   D2A65008  12.070  22.941   6.750
 8410POPC   C3A65009  12.118  22.925   7.050
 8410POPC   C4A65010  12.067  22.926   7.350
 8410POPC   C1B65011  12.077  23.159   6.450
 8410POPC   C2B65012  12.074  23.186   6.750
 8410POPC   C3B65013  12.063  23.136   7.050
 8410POPC   C4B65014  12.070  23.170   7.350
 8411POPC   NC365015  43.876  14.377   5.550
 8411POPC   PO465016  43.925  14.375   5.850
 8411POPC   GL165017  43.893  14.354   6.150
 8411POPC   GL265018  43.838  14.503   6.150
 8411POPC   C1A65019  43.920  14.424   6.450
 8411POPC   D2A65020  43.900  14.446   6.750
 8411POPC   C3A65021  43.880  14.360   7.050
 8411POPC   C4A65022  43.880  14.380   7.350
 8411POPC   C1B65023  43.825  14.635   6.450
 8411POPC   C2B65024  43.816  14.620   6.750
 8411POPC   C3B65025  43.818  14.676   7.050
 8411POPC   C4B65026  43.884  14.629   7.350
 8412POPC   NC365027   1.962  39.227   5.550
 8412POPC   PO465028   1.991  39.221   5.850
 8412POPC   GL165029   1.965  39.206   6.150
 8412POPC   GL265030   1.883  39.196   6.150
 8412POPC   C1A65031   2.024  39.234   6.450
 8412POPC   D2A65032   2.038  39.193   6.750
 8412POPC   C3A65033   1.969  39.270   7.050
 8412POPC   C4A65034   2.008  39.224   7.350
 8412POPC   C1B65035   1.802  39.095   6.450
 8412POPC   C2B65036   1.783  39.140   6.750
 8412POPC   C3B65037   1.754  39.069   7.050
 8412POPC   C4B65038   1.803  39.096   7.350
 8413POPC   NC365039  44.677   1.988   5.550
 8413POPC   PO465040  44.658   2.022   5.850
 8413POPC   GL165041  44.651   1.981   6.150
 8413POPC   GL265042  44.576   1.953   6.150
 8413POPC   C1A65043  44.613   1.951   6.450
 8413POPC   D2A65044  44.646   2.028   6.750
 8413POPC   C3A65045  44.680   1.982   7.050
 8413POPC   C4A65046  44.672   1.969   7.350
 8413POPC   C1B65047  44.385   1.923   6.450
 8413POPC   C2B65048  44.415   1.873   6.750
 8413POPC   C3B65049  44.414   1.921   7.050
 8413POPC   C4B65050  44.412   1.931   7.350
 8414POPC   NC365051  11.251   8.204   5.550
 8414POPC   PO465052  11.312   8.203   5.850
 8414POPC   GL165053  11.336   8.184   6.150
 8414POPC   GL265054  11.287   8.118   6.150
 8414POPC   C1A65055  11.266   8.240   6.450
 8414POPC   D2A65056  11.291   8.171   6.750
 8414POPC   C3A65057  11.300   8.234   7.050
 8414POPC   C4A65058  11.304   8.198   7.350
 8414POPC   C1B65059  11.229   7.926   6.450
 8414POPC   C2B65060  11.259   7.950   6.750
 8414POPC   C3B65061  11.310   7.993   7.050
 8414POPC   C4B65062  11.240   7.920   7.350
 8415POPC   NC365063  14.409  12.087   5.550
 8415POPC   PO465064  14.408  12.048   5.850
 8415POPC   GL165065  14.368  12.077   6.150
 8415POPC   GL265066  14.440  11.978   6.150
 8415POPC   C1A65067  14.393  12.081   6.450
 8415POPC   D2A65068  14.435  12.118   6.750
 8415POPC   C3A65069  14.398  12.119   7.050
 8415POPC   C4A65070  14.453  12.080   7.350
 8415POPC   C1B65071  14.563  11.898   6.450
 8415POPC   C2B65072  14.529  11.839   6.750
 8415POPC   C3B65073  14.553  11.895   7.050
 8415POPC   C4B65074  14.531  11.840   7.350
 8416POPC   NC365075   8.190  33.781   5.550
 8416POPC   PO465076   8.233  33.770   5.850
 8416POPC   GL165077   8.161  33.800   6.150
 8416POPC   GL265078   8.303  33.847   6.150
 8416POPC   C1A65079   8.149  33.762   6.450
 8416POPC   D2A65080   8.148  33.841   6.750
 8416POPC   C3A65081   8.170  33.781   7.050
 8416POPC   C4A65082   8.179  33.786   7.350
 8416POPC   C1B65083   8.400  33.907   6.450
 8416POPC   C2B65084   8.461  33.856   6.750
 8416POPC   C3B65085   8.432  33.872   7.050
 8416POPC   C4B65086   8.435  33.866   7.350
 8417POPC   NC365087   5.124  19.014   5.550
 8417POPC   PO465088   5.142  19.100   5.850
 8417POPC   GL165089   5.115  19.037   6.150
 8417POPC   GL265090   5.095  18.910   6.150
 8417POPC   C1A65091   5.101  19.016   6.450
 8417POPC   D2A65092   5.104  19.041   6.750
 8417POPC   C3A65093   5.063  19.074   7.050
 8417POPC   C4A65094   5.068  19.101   7.350
 8417POPC   C1B65095   5.127  18.779   6.450
 8417POPC   C2B65096   5.137  18.773   6.750
 8417POPC   C3B65097   5.103  18.768   7.050
 8417POPC   C4B65098   5.156  18.808   7.350
 8418POPC   NC365099   9.736   0.480   5.550
 8418POPC   PO465100   9.733   0.443   5.850
 8418POPC   GL165101   9.767   0.483   6.150
 8418POPC   GL265102   9.754   0.327   6.150
 8418POPC   C1A65103   9.709   0.394   6.450
 8418POPC   D2A65104   9.704   0.483   6.750
 8418POPC   C3A65105   9.752   0.392   7.050
 8418POPC   C4A65106   9.782   0.395   7.350
 8418POPC   C1B65107   9.664   0.150   6.450
 8418POPC   C2B65108   9.662   0.246   6.750
 8418POPC   C3B65109   9.631   0.244   7.050
 8418POPC   C4B65110   9.654   0.245   7.350
 8419POPC   NC365111   0.431  21.349   5.550
 8419POPC   PO465112   0.429  21.388   5.850
 8419POPC   GL165113   0.472  21.381   6.150
 8419POPC   GL265114   0.337  21.442   6.150
 8419POPC   C1A65115   0.448  21.403   6.450
 8419POPC   D2A65116   0.455  21.389   6.750
 8419POPC   C3A65117   0.451  21.412   7.050
 8419POPC   C4A65118   0.442  21.399   7.350
 8419POPC   C1B65119   0.199  21.397   6.450
 8419POPC   C2B65120   0.169  21.368   6.750
 8419POPC   C3B65121   0.168  21.400   7.050
 8419POPC   C4B65122   0.229  21.450   7.350
 8420POPC   NC365123  24.481  15.947   5.550
 8420POPC   PO465124  24.498  15.947   5.850
 8420POPC   GL165125  24.458  15.990   6.150
 8420POPC   GL265126  24.355  15.939   6.150
 8420POPC   C1A65127  24.502  16.004   6.450
 8420POPC   D2A65128  24.488  15.996   6.750
 8420POPC   C3A65129  24.526  15.947   7.050
 8420POPC   C4A65130  24.514  15.993   7.350
 8420POPC   C1B65131  24.203  15.973   6.450
 8420POPC   C2B65132  24.229  15.930   6.750
 8420POPC   C3B65133  24.203  15.928   7.050
 8420POPC   C4B65134  24.228  15.997   7.350
 8421POPC   NC365135  11.315   2.746   5.550
 8421POPC   PO465136  11.328   2.738   5.850
 8421POPC   GL165137  11.252   2.718   6.150
 8421POPC   GL265138  11.421   2.830   6.150
 8421POPC   C1A65139  11.254   2.798   6.450
 8421POPC   D2A65140  11.340   2.726   6.750
 8421POPC   C3A65141  11.283   2.721   7.050
 8421POPC   C4A65142  11.332   2.803   7.350
 8421POPC   C1B65143  11.481   2.928   6.450
 8421POPC   C2B65144  11.453   2.993   6.750
 8421POPC   C3B65145  11.448   2.949   7.050
 8421POPC   C4B65146  11.476   2.993   7.350
 8422POPC   NC365147  38.477  20.634   5.550
 8422POPC   PO465148  38.505  20.605   5.850
 8422POPC   GL165149  38.496  20.624   6.150
 8422POPC   GL265150  38.488  20.557   6.150
 8422POPC   C1A65151  38.491  20.622   6.450
 8422POPC   D2A65152  38.416  20.573   6.750
 8422POPC   C3A65153  38.412  20.576   7.050
 8422POPC   C4A65154  38.490  20.608   7.350
 8422POPC   C1B65155  38.556  20.398   6.450
 8422POPC   C2B65156  38.619  20.380   6.750
 8422POPC   C3B65157  38.649  20.378   7.050
 8422POPC   C4B65158  38.590  20.442   7.350
 8423POPC   NC365159  10.491   5.098   5.550
 8423POPC   PO465160  10.565   5.118   5.850
 8423POPC   GL165161  10.557   5.062   6.150
 8423POPC   GL265162  10.516   5.005   6.150
 8423POPC   C1A65163  10.533   5.055   6.450
 8423POPC   D2A65164  10.564   5.056   6.750
 8423POPC   C3A65165  10.532   5.139   7.050
 8423POPC   C4A65166  10.527   5.117   7.350
 8423POPC   C1B65167  10.553   4.896   6.450
 8423POPC   C2B65168  10.626   4.891   6.750
 8423POPC   C3B65169  10.600   4.878   7.050
 8423POPC   C4B65170  10.574   4.902   7.350
 8424POPC   NC365171   2.021   0.453   5.550
 8424POPC   PO465172   2.017   0.455   5.850
 8424POPC   GL165173   1.958   0.401   6.150
 8424POPC   GL265174   1.864   0.400   6.150
 8424POPC   C1A65175   2.010   0.473   6.450
 8424POPC   D2A65176   1.997   0.450   6.750
 8424POPC   C3A65177   1.948   0.419   7.050
 8424POPC   C4A65178   1.969   0.477   7.350
 8424POPC   C1B65179   1.773   0.488   6.450
 8424POPC   C2B65180   1.690   0.465   6.750
 8424POPC   C3B65181   1.768   0.415   7.050
 8424POPC   C4B65182   1.782   0.448   7.350
 8425POPC   NC365183  21.398   5.913   5.550
 8425POPC   PO465184  21.435   5.880   5.850
 8425POPC   GL165185  21.358   5.842   6.150
 8425POPC   GL265186  21.483   5.912   6.150
 8425POPC   C1A65187  21.436   5.873   6.450
 8425POPC   D2A65188  21.362   5.891   6.750
 8425POPC   C3A65189  21.431   5.906   7.050
 8425POPC   C4A65190  21.434   5.896   7.350
 8425POPC   C1B65191  21.595   5.930   6.450
 8425POPC   C2B65192  21.679   5.946   6.750
 8425POPC   C3B65193  21.660   5.853   7.050
 8425POPC   C4B65194  21.600   5.941   7.350
 8426POPC   NC365195  22.122  33.758   5.550
 8426POPC   PO465196  22.183  33.812   5.850
 8426POPC   GL165197  22.184  33.752   6.150
 8426POPC   GL265198  22.052  33.866   6.150
 8426POPC   C1A65199  22.176  33.811   6.450
 8426POPC   D2A65200  22.143  33.838   6.750
 8426POPC   C3A65201  22.190  33.835   7.050
 8426POPC   C4A65202  22.126  33.761   7.350
 8426POPC   C1B65203  21.950  33.882   6.450
 8426POPC   C2B65204  21.922  33.934   6.750
 8426POPC   C3B65205  21.963  33.908   7.050
 8426POPC   C4B65206  21.905  33.885   7.350
 8427POPC   NC365207   0.402   6.690   5.550
 8427POPC   PO465208   0.459   6.660   5.850
 8427POPC   GL165209   0.433   6.649   6.150
 8427POPC   GL265210   0.299   6.737   6.150
 8427POPC   C1A65211   0.486   6.667   6.450
 8427POPC   D2A65212   0.455   6.676   6.750
 8427POPC   C3A65213   0.430   6.628   7.050
 8427POPC   C4A65214   0.457   6.665   7.350
 8427POPC   C1B65215   0.214   6.829   6.450
 8427POPC   C2B65216   0.233   6.810   6.750
 8427POPC   C3B65217   0.211   6.791   7.050
 8427POPC   C4B65218   0.300   6.818   7.350
 8428POPC   NC365219  13.586  29.101   5.550
 8428POPC   PO465220  13.665  29.114   5.850
 8428POPC   GL165221  13.662  29.105   6.150
 8428POPC   GL265222  13.632  29.274   6.150
 8428POPC   C1A65223  13.589  29.147   6.450
 8428POPC   D2A65224  13.600  29.112   6.750
 8428POPC   C3A65225  13.620  29.123   7.050
 8428POPC   C4A65226  13.581  29.146   7.350
 8428POPC   C1B65227  13.627  29.379   6.450
 8428POPC   C2B65228  13.678  29.353   6.750
 8428POPC   C3B65229  13.645  29.436   7.050
 8428POPC   C4B65230  13.635  29.357   7.350
 8429POPC   NC365231  33.013  34.623   5.550
 8429POPC   PO465232  32.996  34.622   5.850
 8429POPC   GL165233  32.993  34.601   6.150
 8429POPC   GL265234  32.945  34.532   6.150
 8429POPC   C1A65235  33.064  34.592   6.450
 8429POPC   D2A65236  32.992  34.584   6.750
 8429POPC   C3A65237  33.019  34.551   7.050
 8429POPC   C4A65238  32.990  34.618   7.350
 8429POPC   C1B65239  32.790  34.404   6.450
 8429POPC   C2B65240  32.827  34.457   6.750
 8429POPC   C3B65241  32.874  34.411   7.050
 8429POPC   C4B65242  32.836  34.416   7.350
 8430POPC   NC365243  44.660  17.533   5.550
 8430POPC   PO465244  44.660  17.502   5.850
 8430POPC   GL165245  44.684  17.508   6.150
 8430POPC   GL265246  44.740  17.382   6.150
 8430POPC   C1A65247  44.701  17.507   6.450
 8430POPC   D2A65248  44.615  17.537   6.750
 8430POPC   C3A65249  44.687  17.468   7.050
 8430POPC   C4A65250  44.649  17.492   7.350
 8430POPC   C1B65251  44.877  17.376   6.450
 8430POPC   C2B65252  44.885  17.362   6.750
 8430POPC   C3B65253  44.805  17.318   7.050
 8430POPC   C4B65254  44.805  17.336   7.350
 8431POPC   NC365255  29.123  29.192   5.550
 8431POPC   PO465256  29.166  29.171   5.850
 8431POPC   GL165257  29.106  29.188   6.150
 8431POPC   GL265258  29.214  29.028   6.150
 8431POPC   C1A65259  29.141  29.180   6.450
 8431POPC   D2A65260  29.101  29.101   6.750
 8431POPC   C3A65261  29.168  29.140   7.050
 8431POPC   C4A65262  29.117  29.095   7.350
 8431POPC   C1B65263  29.277  29.005   6.450
 8431POPC   C2B65264  29.280  28.978   6.750
 8431POPC   C3B65265  29.297  28.989   7.050
 8431POPC   C4B65266  29.351  28.949   7.350
 8432POPC   NC365267  14.371  42.359   5.550
 8432POPC   PO465268  14.384  42.330   5.850
 8432POPC   GL165269  14.437  42.301   6.150
 8432POPC   GL265270  14.517  42.410   6.150
 8432POPC   C1A65271  14.375  42.299   6.450
 8432POPC   D2A65272  14.441  42.379   6.750
 8432POPC   C3A65273  14.388  42.324   7.050
 8432POPC   C4A65274  14.359  42.312   7.350
 8432POPC   C1B65275  14.531  42.507   6.450
 8432POPC   C2B65276  14.497  42.597   6.750
 8432POPC   C3B65277  14.568  42.580   7.050
 8432POPC   C4B65278  14.562  42.507   7.350
 8433POPC   NC365279  43.092  26.844   5.550
 8433POPC   PO465280  43.138  26.842   5.850
 8433POPC   GL165281  43.136  26.860   6.150
 8433POPC   GL265282  43.085  26.753   6.150
 8433POPC   C1A65283  43.112  26.831   6.450
 8433POPC   D2A65284  43.082  26.812   6.750
 8433POPC   C3A65285  43.160  26.823   7.050
 8433POPC   C4A65286  43.096  26.840   7.350
 8433POPC   C1B65287  42.977  26.561   6.450
 8433POPC   C2B65288  42.989  26.596   6.750
 8433POPC   C3B65289  43.014  26.595   7.050
 8433POPC   C4B65290  42.960  26.634   7.350
 8434POPC   NC365291   8.214   4.292   5.550
 8434POPC   PO465292   8.217   4.329   5.850
 8434POPC   GL165293   8.205   4.312   6.150
 8434POPC   GL265294   8.332   4.190   6.150
 8434POPC   C1A65295   8.167   4.358   6.450
 8434POPC   D2A65296   8.216   4.282   6.750
 8434POPC   C3A65297   8.240   4.310   7.050
 8434POPC   C4A65298   8.148   4.279   7.350
 8434POPC   C1B65299   8.422   4.197   6.450
 8434POPC   C2B65300   8.339   4.144   6.750
 8434POPC   C3B65301   8.393   4.137   7.050
 8434POPC   C4B65302   8.377   4.114   7.350
 8435POPC   NC365303  17.482  36.090   5.550
 8435POPC   PO465304  17.523  36.172   5.850
 8435POPC   GL165305  17.497  36.126   6.150
 8435POPC   GL265306  17.637  36.160   6.150
 8435POPC   C1A65307  17.553  36.098   6.450
 8435POPC   D2A65308  17.509  36.177   6.750
 8435POPC   C3A65309  17.471  36.152   7.050
 8435POPC   C4A65310  17.513  36.163   7.350
 8435POPC   C1B65311  17.725  36.254   6.450
 8435POPC   C2B65312  17.755  36.302   6.750
 8435POPC   C3B65313  17.712  36.285   7.050
 8435POPC   C4B65314  17.686  36.221   7.350
 8436POPC   NC365315   9.707  22.145   5.550
 8436POPC   PO465316   9.723  22.202   5.850
 8436POPC   GL165317   9.735  22.199   6.150
 8436POPC   GL265318   9.726  22.234   6.150
 8436POPC   C1A65319   9.732  22.132   6.450
 8436POPC   D2A65320   9.771  22.137   6.750
 8436POPC   C3A65321   9.726  22.209   7.050
 8436POPC   C4A65322   9.702  22.206   7.350
 8436POPC   C1B65323   9.572  22.386   6.450
 8436POPC   C2B65324   9.612  22.356   6.750
 8436POPC   C3B65325   9.608  22.374   7.050
 8436POPC   C4B65326   9.638  22.402   7.350
 8437POPC   NC365327  40.039  43.929   5.550
 8437POPC   PO465328  40.007  43.857   5.850
 8437POPC   GL165329  39.995  43.870   6.150
 8437POPC   GL265330  40.140  44.000   6.150
 8437POPC   C1A65331  40.025  43.930   6.450
 8437POPC   D2A65332  40.003  43.893   6.750
 8437POPC   C3A65333  40.014  43.919   7.050
 8437POPC   C4A65334  40.010  43.878   7.350
 8437POPC   C1B65335  40.211  44.054   6.450
 8437POPC   C2B65336  40.221  44.086   6.750
 8437POPC   C3B65337  40.167  44.014   7.050
 8437POPC   C4B65338  40.189  44.087   7.350
 8438POPC   NC365339  38.419  28.375   5.550
 8438POPC   PO465340  38.425  28.386   5.850
 8438POPC   GL165341  38.478  28.332   6.150
 8438POPC   GL265342  38.421  28.241   6.150
 8438POPC   C1A65343  38.488  28.350   6.450
 8438POPC   D2A65344  38.495  28.410   6.750
 8438POPC   C3A65345  38.497  28.345   7.050
 8438POPC   C4A65346  38.503  28.355   7.350
 8438POPC   C1B65347  38.421  28.079   6.450
 8438POPC   C2B65348  38.463  28.164   6.750
 8438POPC   C3B65349  38.470  28.097   7.050
 8438POPC   C4B65350  38.396  28.147   7.350
 8439POPC   NC365351   7.452  19.873   5.550
 8439POPC   PO465352   7.378  19.877   5.850
 8439POPC   GL165353   7.456  19.804   6.150
 8439POPC   GL265354   7.336  19.718   6.150
 8439POPC   C1A65355   7.380  19.847   6.450
 8439POPC   D2A65356   7.407  19.867   6.750
 8439POPC   C3A65357   7.452  19.882   7.050
 8439POPC   C4A65358   7.444  19.813   7.350
 8439POPC   C1B65359   7.273  19.711   6.450
 8439POPC   C2B65360   7.199  19.617   6.750
 8439POPC   C3B65361   7.199  19.694   7.050
 8439POPC   C4B65362   7.279  19.711   7.350
 8440POPC   NC365363  11.262  26.827   5.550
 8440POPC   PO465364  11.253  26.796   5.850
 8440POPC   GL165365  11.251  26.786   6.150
 8440POPC   GL265366  11.364  26.744   6.150
 8440POPC   C1A65367  11.280  26.857   6.450
 8440POPC   D2A65368  11.347  26.774   6.750
 8440POPC   C3A65369  11.254  26.781   7.050
 8440POPC   C4A65370  11.252  26.846   7.350
 8440POPC   C1B65371  11.372  26.625   6.450
 8440POPC   C2B65372  11.412  26.590   6.750
 8440POPC   C3B65373  11.424  26.557   7.050
 8440POPC   C4B65374  11.402  26.578   7.350
 8441POPC   NC365375  40.798   4.295   5.550
 8441POPC   PO465376  40.754   4.347   5.850
 8441POPC   GL165377  40.764   4.325   6.150
 8441POPC   GL265378  40.899   4.306   6.150
 8441POPC   C1A65379  40.829   4.350   6.450
 8441POPC   D2A65380  40.755   4.304   6.750
 8441POPC   C3A65381  40.798   4.347   7.050
 8441POPC   C4A65382  40.810   4.365   7.350
 8441POPC   C1B65383  41.010   4.289   6.450
 8441POPC   C2B65384  41.002   4.242   6.750
 8441POPC   C3B65385  40.995   4.218   7.050
 8441POPC   C4B65386  41.046   4.295   7.350
 8442POPC   NC365387   1.233  40.743   5.550
 8442POPC   PO465388   1.238  40.825   5.850
 8442POPC   GL165389   1.206  40.738   6.150
 8442POPC   GL265390   1.277  40.884   6.150
 8442POPC   C1A65391   1.201  40.735   6.450
 8442POPC   D2A65392   1.262  40.758   6.750
 8442POPC   C3A65393   1.207  40.757   7.050
 8442POPC   C4A65394   1.231  40.821   7.350
 8442POPC   C1B65395   1.352  40.999   6.450
 8442POPC   C2B65396   1.378  40.953   6.750
 8442POPC   C3B65397   1.438  40.920   7.050
 8442POPC   C4B65398   1.437  40.992   7.350
 8443POPC   NC365399  37.651  44.690   5.550
 8443POPC   PO465400  37.664  44.657   5.850
 8443POPC   GL165401  37.693  44.671   6.150
 8443POPC   GL265402  37.838  44.636   6.150
 8443POPC   C1A65403  37.687  44.621   6.450
 8443POPC   D2A65404  37.644  44.712   6.750
 8443POPC   C3A65405  37.681  44.674   7.050
 8443POPC   C4A65406  37.672  44.618   7.350
 8443POPC   C1B65407  37.935  44.572   6.450
 8443POPC   C2B65408  37.851  44.519   6.750
 8443POPC   C3B65409  37.885  44.576   7.050
 8443POPC   C4B65410  37.931  44.500   7.350
 8444POPC   NC365411  13.677  16.689   5.550
 8444POPC   PO465412  13.670  16.741   5.850
 8444POPC   GL165413  13.647  16.710   6.150
 8444POPC   GL265414  13.642  16.635   6.150
 8444POPC   C1A65415  13.674  16.765   6.450
 8444POPC   D2A65416  13.579  16.712   6.750
 8444POPC   C3A65417  13.594  16.761   7.050
 8444POPC   C4A65418  13.629  16.770   7.350
 8444POPC   C1B65419  13.602  16.508   6.450
 8444POPC   C2B65420  13.622  16.528   6.750
 8444POPC   C3B65421  13.532  16.510   7.050
 8444POPC   C4B65422  13.550  16.529   7.350
 8445POPC   NC365423  20.622  33.830   5.550
 8445POPC   PO465424  20.575  33.808   5.850
 8445POPC   GL165425  20.626  33.849   6.150
 8445POPC   GL265426  20.738  33.711   6.150
 8445POPC   C1A65427  20.626  33.775   6.450
 8445POPC   D2A65428  20.631  33.764   6.750
 8445POPC   C3A65429  20.603  33.794   7.050
 8445POPC   C4A65430  20.561  33.816   7.350
 8445POPC   C1B65431  20.812  33.643   6.450
 8445POPC   C2B65432  20.793  33.671   6.750
 8445POPC   C3B65433  20.807  33.688   7.050
 8445POPC   C4B65434  20.827  33.684   7.350
 8446POPC   NC365435  39.257  39.196   5.550
 8446POPC   PO465436  39.243  39.212   5.850
 8446POPC   GL165437  39.275  39.255   6.150
 8446POPC   GL265438  39.294  39.369   6.150
 8446POPC   C1A65439  39.189  39.208   6.450
 8446POPC   D2A65440  39.223  39.196   6.750
 8446POPC   C3A65441  39.228  39.246   7.050
 8446POPC   C4A65442  39.201  39.212   7.350
 8446POPC   C1B65443  39.349  39.424   6.450
 8446POPC   C2B65444  39.405  39.415   6.750
 8446POPC   C3B65445  39.324  39.397   7.050
 8446POPC   C4B65446  39.324  39.455   7.350
 8447POPC   NC365447  16.758   4.329   5.550
 8447POPC   PO465448  16.686   4.283   5.850
 8447POPC   GL165449  16.760   4.277   6.150
 8447POPC   GL265450  16.658   4.438   6.150
 8447POPC   C1A65451  16.702   4.365   6.450
 8447POPC   D2A65452  16.739   4.323   6.750
 8447POPC   C3A65453  16.721   4.357   7.050
 8447POPC   C4A65454  16.715   4.278   7.350
 8447POPC   C1B65455  16.605   4.509   6.450
 8447POPC   C2B65456  16.643   4.514   6.750
 8447POPC   C3B65457  16.651   4.504   7.050
 8447POPC   C4B65458  16.609   4.568   7.350
 8448POPC   NC365459  44.635  33.040   5.550
 8448POPC   PO465460  44.651  33.009   5.850
 8448POPC   GL165461  44.664  32.983   6.150
 8448POPC   GL265462  44.773  32.990   6.150
 8448POPC   C1A65463  44.660  33.051   6.450
 8448POPC   D2A65464  44.627  33.027   6.750
 8448POPC   C3A65465  44.612  33.072   7.050
 8448POPC   C4A65466  44.699  33.006   7.350
 8448POPC   C1B65467  44.856  32.906   6.450
 8448POPC   C2B65468  44.898  32.935   6.750
 8448POPC   C3B65469  44.931  32.915   7.050
 8448POPC   C4B65470  44.864  32.906   7.350
 8449POPC   NC365471   6.626  15.996   5.550
 8449POPC   PO465472   6.649  15.926   5.850
 8449POPC   GL165473   6.692  15.910   6.150
 8449POPC   GL265474   6.762  16.046   6.150
 8449POPC   C1A65475   6.620  15.950   6.450
 8449POPC   D2A65476   6.655  15.967   6.750
 8449POPC   C3A65477   6.693  15.994   7.050
 8449POPC   C4A65478   6.675  15.995   7.350
 8449POPC   C1B65479   6.867  16.101   6.450
 8449POPC   C2B65480   6.796  16.160   6.750
 8449POPC   C3B65481   6.803  16.122   7.050
 8449POPC   C4B65482   6.855  16.127   7.350
 8450POPC   NC365483  10.522  12.846   5.550
 8450POPC   PO465484  10.546  12.815   5.850
 8450POPC   GL165485  10.527  12.899   6.150
 8450POPC   GL265486  10.416  12.749   6.150
 8450POPC   C1A65487  10.540  12.900   6.450
 8450POPC   D2A65488  10.564  12.814   6.750
 8450POPC   C3A65489  10.497  12.888   7.050
 8450POPC   C4A65490  10.504  12.850   7.350
 8450POPC   C1B65491  10.340  12.637   6.450
 8450POPC   C2B65492  10.429  12.640   6.750
 8450POPC   C3B65493  10.374  12.695   7.050
 8450POPC   C4B65494  10.358  12.650   7.350
 8451POPC   NC365495  12.111  13.655   5.550
 8451POPC   PO465496  12.101  13.620   5.850
 8451POPC   GL165497  12.098  13.676   6.150
 8451POPC   GL265498  12.139  13.513   6.150
 8451POPC   C1A65499  12.104  13.619   6.450
 8451POPC   D2A65500  12.038  13.650   6.750
 8451POPC   C3A65501  12.056  13.661   7.050
 8451POPC   C4A65502  12.095  13.607   7.350
 8451POPC   C1B65503  12.155  13.430   6.450
 8451POPC   C2B65504  12.203  13.396   6.750
 8451POPC   C3B65505  12.210  13.439   7.050
 8451POPC   C4B65506  12.187  13.393   7.350
 8452POPC   NC365507  18.314  14.379   5.550
 8452POPC   PO465508  18.296  14.433   5.850
 8452POPC   GL165509  18.311  14.437   6.150
 8452POPC   GL265510  18.402  14.325   6.150
 8452POPC   C1A65511  18.253  14.447   6.450
 8452POPC   D2A65512  18.264  14.437   6.750
 8452POPC   C3A65513  18.331  14.442   7.050
 8452POPC   C4A65514  18.266  14.381   7.350
 8452POPC   C1B65515  18.448  14.282   6.450
 8452POPC   C2B65516  18.456  14.320   6.750
 8452POPC   C3B65517  18.474  14.300   7.050
 8452POPC   C4B65518  18.472  14.255   7.350
 8453POPC   NC365519  22.162   5.868   5.550
 8453POPC   PO465520  22.168   5.826   5.850
 8453POPC   GL165521  22.122   5.894   6.150
 8453POPC   GL265522  22.103   5.969   6.150
 8453POPC   C1A65523  22.121   5.830   6.450
 8453POPC   D2A65524  22.192   5.910   6.750
 8453POPC   C3A65525  22.185   5.850   7.050
 8453POPC   C4A65526  22.199   5.913   7.350
 8453POPC   C1B65527  21.986   6.077   6.450
 8453POPC   C2B65528  22.035   6.034   6.750
 8453POPC   C3B65529  22.025   6.040   7.050
 8453POPC   C4B65530  21.987   6.104   7.350
 8454POPC   NC365531  22.202  32.221   5.550
 8454POPC   PO465532  22.167  32.232   5.850
 8454POPC   GL165533  22.128  32.230   6.150
 8454POPC   GL265534  22.128  32.148   6.150
 8454POPC   C1A65535  22.153  32.203   6.450
 8454POPC   D2A65536  22.166  32.234   6.750
 8454POPC   C3A65537  22.176  32.229   7.050
 8454POPC   C4A65538  22.184  32.262   7.350
 8454POPC   C1B65539  22.174  32.012   6.450
 8454POPC   C2B65540  22.200  32.047   6.750
 8454POPC   C3B65541  22.188  32.026   7.050
 8454POPC   C4B65542  22.203  32.032   7.350
 8455POPC   NC365543  39.991  36.078   5.550
 8455POPC   PO465544  39.995  36.165   5.850
 8455POPC   GL165545  40.010  36.131   6.150
 8455POPC   GL265546  39.995  35.984   6.150
 8455POPC   C1A65547  40.038  36.153   6.450
 8455POPC   D2A65548  39.981  36.158   6.750
 8455POPC   C3A65549  39.991  36.175   7.050
 8455POPC   C4A65550  40.037  36.129   7.350
 8455POPC   C1B65551  39.945  35.870   6.450
 8455POPC   C2B65552  40.003  35.886   6.750
 8455POPC   C3B65553  40.011  35.839   7.050
 8455POPC   C4B65554  39.942  35.882   7.350
 8456POPC   NC365555  22.904   8.966   5.550
 8456POPC   PO465556  22.933   9.017   5.850
 8456POPC   GL165557  22.900   8.987   6.150
 8456POPC   GL265558  22.957   8.845   6.150
 8456POPC   C1A65559  22.968   9.019   6.450
 8456POPC   D2A65560  22.959   8.933   6.750
 8456POPC   C3A65561  22.945   8.982   7.050
 8456POPC   C4A65562  22.907   8.995   7.350
 8456POPC   C1B65563  22.959   8.726   6.450
 8456POPC   C2B65564  23.051   8.702   6.750
 8456POPC   C3B65565  22.994   8.698   7.050
 8456POPC   C4B65566  23.026   8.750   7.350
 8457POPC   NC365567  12.856  40.797   5.550
 8457POPC   PO465568  12.856  40.781   5.850
 8457POPC   GL165569  12.865  40.747   6.150
 8457POPC   GL265570  12.921  40.695   6.150
 8457POPC   C1A65571  12.812  40.827   6.450
 8457POPC   D2A65572  12.886  40.799   6.750
 8457POPC   C3A65573  12.803  40.791   7.050
 8457POPC   C4A65574  12.849  40.811   7.350
 8457POPC   C1B65575  13.104  40.682   6.450
 8457POPC   C2B65576  13.071  40.700   6.750
 8457POPC   C3B65577  13.104  40.731   7.050
 8457POPC   C4B65578  13.128  40.645   7.350
 8458POPC   NC365579  25.258  20.618   5.550
 8458POPC   PO465580  25.313  20.636   5.850
 8458POPC   GL165581  25.259  20.564   6.150
 8458POPC   GL265582  25.352  20.600   6.150
 8458POPC   C1A65583  25.302  20.578   6.450
 8458POPC   D2A65584  25.249  20.577   6.750
 8458POPC   C3A65585  25.276  20.644   7.050
 8458POPC   C4A65586  25.257  20.611   7.350
 8458POPC   C1B65587  25.468  20.544   6.450
 8458POPC   C2B65588  25.547  20.586   6.750
 8458POPC   C3B65589  25.549  20.572   7.050
 8458POPC   C4B65590  25.512  20.581   7.350
 8459POPC   NC365591  29.165  29.932   5.550
 8459POPC   PO465592  29.194  29.946   5.850
 8459POPC   GL165593  29.153  29.898   6.150
 8459POPC   GL265594  29.116  29.857   6.150
 8459POPC   C1A65595  29.105  29.942   6.450
 8459POPC   D2A65596  29.136  29.948   6.750
 8459POPC   C3A65597  29.187  29.950   7.050
 8459POPC   C4A65598  29.101  29.962   7.350
 8459POPC   C1B65599  29.017  29.756   6.450
 8459POPC   C2B65600  29.022  29.709   6.750
 8459POPC   C3B65601  28.999  29.718   7.050
 8459POPC   C4B65602  29.028  29.692   7.350
 8460POPC   NC365603   1.213  38.457   5.550
 8460POPC   PO465604   1.250  38.435   5.850
 8460POPC   GL165605   1.201  38.425   6.150
 8460POPC   GL265606   1.196  38.340   6.150
 8460POPC   C1A65607   1.201  38.485   6.450
 8460POPC   D2A65608   1.198  38.431   6.750
 8460POPC   C3A65609   1.197  38.482   7.050
 8460POPC   C4A65610   1.255  38.438   7.350
 8460POPC   C1B65611   1.182  38.193   6.450
 8460POPC   C2B65612   1.208  38.260   6.750
 8460POPC   C3B65613   1.209  38.223   7.050
 8460POPC   C4B65614   1.163  38.238   7.350
 8461POPC   NC365615   9.011  15.180   5.550
 8461POPC   PO465616   9.012  15.148   5.850
 8461POPC   GL165617   8.957  15.228   6.150
 8461POPC   GL265618   8.873  15.090   6.150
 8461POPC   C1A65619   9.012  15.215   6.450
 8461POPC   D2A65620   8.984  15.161   6.750
 8461POPC   C3A65621   9.003  15.204   7.050
 8461POPC   C4A65622   9.018  15.178   7.350
 8461POPC   C1B65623   8.766  15.032   6.450
 8461POPC   C2B65624   8.724  15.041   6.750
 8461POPC   C3B65625   8.764  15.060   7.050
 8461POPC   C4B65626   8.784  15.040   7.350
 8462POPC   NC365627   8.211  22.197   5.550
 8462POPC   PO465628   8.225  22.163   5.850
 8462POPC   GL165629   8.159  22.139   6.150
 8462POPC   GL265630   8.250  22.299   6.150
 8462POPC   C1A65631   8.181  22.178   6.450
 8462POPC   D2A65632   8.215  22.156   6.750
 8462POPC   C3A65633   8.216  22.152   7.050
 8462POPC   C4A65634   8.207  22.166   7.350
 8462POPC   C1B65635   8.350  22.332   6.450
 8462POPC   C2B65636   8.333  22.319   6.750
 8462POPC   C3B65637   8.367  22.329   7.050
 8462POPC   C4B65638   8.325  22.323   7.350
 8463POPC   NC365639  39.979  31.518   5.550
 8463POPC   PO465640  39.967  31.429   5.850
 8463POPC   GL165641  40.050  31.448   6.150
 8463POPC   GL265642  39.975  31.621   6.150
 8463POPC   C1A65643  39.990  31.448   6.450
 8463POPC   D2A65644  39.989  31.461   6.750
 8463POPC   C3A65645  39.999  31.446   7.050
 8463POPC   C4A65646  40.031  31.454   7.350
 8463POPC   C1B65647  40.002  31.755   6.450
 8463POPC   C2B65648  39.983  31.736   6.750
 8463POPC   C3B65649  39.926  31.764   7.050
 8463POPC   C4B65650  40.003  31.720   7.350
 8464POPC   NC365651  28.377  39.251   5.550
 8464POPC   PO465652  28.329  39.241   5.850
 8464POPC   GL165653  28.344  39.239   6.150
 8464POPC   GL265654  28.420  39.350   6.150
 8464POPC   C1A65655  28.392  39.214   6.450
 8464POPC   D2A65656  28.383  39.242   6.750
 8464POPC   C3A65657  28.364  39.199   7.050
 8464POPC   C4A65658  28.382  39.187   7.350
 8464POPC   C1B65659  28.558  39.464   6.450
 8464POPC   C2B65660  28.472  39.464   6.750
 8464POPC   C3B65661  28.542  39.469   7.050
 8464POPC   C4B65662  28.541  39.471   7.350
 8465POPC   NC365663  39.186  29.155   5.550
 8465POPC   PO465664  39.277  29.123   5.850
 8465POPC   GL165665  39.255  29.144   6.150
 8465POPC   GL265666  39.230  29.291   6.150
 8465POPC   C1A65667  39.231  29.169   6.450
 8465POPC   D2A65668  39.219  29.155   6.750
 8465POPC   C3A65669  39.233  29.108   7.050
 8465POPC   C4A65670  39.270  29.138   7.350
 8465POPC   C1B65671  39.218  29.368   6.450
 8465POPC   C2B65672  39.140  29.405   6.750
 8465POPC   C3B65673  39.238  29.393   7.050
 8465POPC   C4B65674  39.221  29.357   7.350
 8466POPC   NC365675   8.195   3.513   5.550
 8466POPC   PO465676   8.201   3.501   5.850
 8466POPC   GL165677   8.234   3.531   6.150
 8466POPC   GL265678   8.092   3.655   6.150
 8466POPC   C1A65679   8.149   3.573   6.450
 8466POPC   D2A65680   8.244   3.521   6.750
 8466POPC   C3A65681   8.171   3.574   7.050
 8466POPC   C4A65682   8.192   3.549   7.350
 8466POPC   C1B65683   8.006   3.759   6.450
 8466POPC   C2B65684   7.983   3.714   6.750
 8466POPC   C3B65685   7.979   3.752   7.050
 8466POPC   C4B65686   8.026   3.697   7.350
 8467POPC   NC365687  14.442  22.936   5.550
 8467POPC   PO465688  14.424  22.972   5.850
 8467POPC   GL165689  14.446  22.943   6.150
 8467POPC   GL265690  14.563  22.946   6.150
 8467POPC   C1A65691  14.451  22.902   6.450
 8467POPC   D2A65692  14.418  22.954   6.750
 8467POPC   C3A65693  14.429  22.929   7.050
 8467POPC   C4A65694  14.431  22.946   7.350
 8467POPC   C1B65695  14.590  23.043   6.450
 8467POPC   C2B65696  14.649  23.054   6.750
 8467POPC   C3B65697  14.616  23.073   7.050
 8467POPC   C4B65698  14.634  23.033   7.350
 8468POPC   NC365699  39.242  43.112   5.550
 8468POPC   PO465700  39.217  43.114   5.850
 8468POPC   GL165701  39.221  43.068   6.150
 8468POPC   GL265702  39.205  42.991   6.150
 8468POPC   C1A65703  39.220  43.130   6.450
 8468POPC   D2A65704  39.245  43.110   6.750
 8468POPC   C3A65705  39.270  43.142   7.050
 8468POPC   C4A65706  39.182  43.079   7.350
 8468POPC   C1B65707  39.172  42.838   6.450
 8468POPC   C2B65708  39.208  42.915   6.750
 8468POPC   C3B65709  39.192  42.909   7.050
 8468POPC   C4B65710  39.210  42.851   7.350
 8469POPC   NC365711  13.638   0.443   5.550
 8469POPC   PO465712  13.640   0.461   5.850
 8469POPC   GL165713  13.607   0.431   6.150
 8469POPC   GL265714  13.723   0.482   6.150
 8469POPC   C1A65715  13.588   0.399   6.450
 8469POPC   D2A65716  13.612   0.467   6.750
 8469POPC   C3A65717  13.628   0.445   7.050
 8469POPC   C4A65718  13.648   0.474   7.350
 8469POPC   C1B65719  13.831   0.417   6.450
 8469POPC   C2B65720  13.876   0.417   6.750
 8469POPC   C3B65721  13.838   0.440   7.050
 8469POPC   C4B65722  13.840   0.502   7.350
 8470POPC   NC365723  33.017  22.114   5.550
 8470POPC   PO465724  32.989  22.122   5.850
 8470POPC   GL165725  33.040  22.176   6.150
 8470POPC   GL265726  33.054  22.063   6.150
 8470POPC   C1A65727  33.060  22.138   6.450
 8470POPC   D2A65728  33.050  22.170   6.750
 8470POPC   C3A65729  33.072  22.126   7.050
 8470POPC   C4A65730  32.986  22.165   7.350
 8470POPC   C1B65731  33.092  21.902   6.450
 8470POPC   C2B65732  33.013  21.888   6.750
 8470POPC   C3B65733  33.101  21.944   7.050
 8470POPC   C4B65734  33.025  21.934   7.350
 8471POPC   NC365735   2.015  34.531   5.550
 8471POPC   PO465736   2.020  34.610   5.850
 8471POPC   GL165737   1.946  34.547   6.150
 8471POPC   GL265738   1.990  34.715   6.150
 8471POPC   C1A65739   1.940  34.562   6.450
 8471POPC   D2A65740   1.954  34.591   6.750
 8471POPC   C3A65741   2.030  34.539   7.050
 8471POPC   C4A65742   2.036  34.544   7.350
 8471POPC   C1B65743   2.056  34.788   6.450
 8471POPC   C2B65744   2.010  34.797   6.750
 8471POPC   C3B65745   2.034  34.830   7.050
 8471POPC   C4B65746   2.025  34.776   7.350
 8472POPC   NC365747   6.638  24.458   5.550
 8472POPC   PO465748   6.685  24.503   5.850
 8472POPC   GL165749   6.655  24.513   6.150
 8472POPC   GL265750   6.617  24.411   6.150
 8472POPC   C1A65751   6.603  24.472   6.450
 8472POPC   D2A65752   6.675  24.450   6.750
 8472POPC   C3A65753   6.654  24.502   7.050
 8472POPC   C4A65754   6.623  24.513   7.350
 8472POPC   C1B65755   6.543  24.237   6.450
 8472POPC   C2B65756   6.524  24.296   6.750
 8472POPC   C3B65757   6.523  24.299   7.050
 8472POPC   C4B65758   6.535  24.288   7.350
 8473POPC   NC365759  42.351  42.340   5.550
 8473POPC   PO465760  42.365  42.307   5.850
 8473POPC   GL165761  42.313  42.299   6.150
 8473POPC   GL265762  42.288  42.260   6.150
 8473POPC   C1A65763  42.299  42.304   6.450
 8473POPC   D2A65764  42.333  42.321   6.750
 8473POPC   C3A65765  42.335  42.289   7.050
 8473POPC   C4A65766  42.339  42.286   7.350
 8473POPC   C1B65767  42.130  42.133   6.450
 8473POPC   C2B65768  42.154  42.181   6.750
 8473POPC   C3B65769  42.160  42.141   7.050
 8473POPC   C4B65770  42.157  42.094   7.350
 8474POPC   NC365771  22.959   2.723   5.550
 8474POPC   PO465772  22.906   2.775   5.850
 8474POPC   GL165773  22.954   2.748   6.150
 8474POPC   GL265774  22.884   2.895   6.150
 8474POPC   C1A65775  22.892   2.720   6.450
 8474POPC   D2A65776  22.969   2.800   6.750
 8474POPC   C3A65777  22.917   2.721   7.050
 8474POPC   C4A65778  22.922   2.724   7.350
 8474POPC   C1B65779  22.807   2.983   6.450
 8474POPC   C2B65780  22.736   2.947   6.750
 8474POPC   C3B65781  22.776   2.909   7.050
 8474POPC   C4B65782  22.764   2.953   7.350
 8475POPC   NC365783  14.374  37.633   5.550
 8475POPC   PO465784  14.446  37.697   5.850
 8475POPC   GL165785  14.439  37.729   6.150
 8475POPC   GL265786  14.326  37.535   6.150
 8475POPC   C1A65787  14.402  37.712   6.450
 8475POPC   D2A65788  14.387  37.711   6.750
 8475POPC   C3A65789  14.444  37.689   7.050
 8475POPC   C4A65790  14.380  37.632   7.350
 8475POPC   C1B65791  14.291  37.481   6.450
 8475POPC   C2B65792  14.267  37.458   6.750
 8475POPC   C3B65793  14.234  37.463   7.050
 8475POPC   C4B65794  14.234  37.454   7.350
 8476POPC   NC365795  36.118   5.062   5.550
 8476POPC   PO465796  36.084   5.098   5.850
 8476POPC   GL165797  36.099   5.053   6.150
 8476POPC   GL265798  36.096   4.925   6.150
 8476POPC   C1A65799  36.154   5.124   6.450
 8476POPC   D2A65800  36.177   5.111   6.750
 8476POPC   C3A65801  36.160   5.071   7.050
 8476POPC   C4A65802  36.116   5.070   7.350
 8476POPC   C1B65803  36.118   4.830   6.450
 8476POPC   C2B65804  36.046   4.832   6.750
 8476POPC   C3B65805  36.054   4.894   7.050
 8476POPC   C4B65806  36.125   4.878   7.350
 8477POPC   NC365807  31.482   9.758   5.550
 8477POPC   PO465808  31.434   9.796   5.850
 8477POPC   GL165809  31.482   9.718   6.150
 8477POPC   GL265810  31.499   9.608   6.150
 8477POPC   C1A65811  31.450   9.756   6.450
 8477POPC   D2A65812  31.424   9.749   6.750
 8477POPC   C3A65813  31.507   9.785   7.050
 8477POPC   C4A65814  31.492   9.764   7.350
 8477POPC   C1B65815  31.552   9.474   6.450
 8477POPC   C2B65816  31.563   9.540   6.750
 8477POPC   C3B65817  31.508   9.498   7.050
 8477POPC   C4B65818  31.523   9.458   7.350
 8478POPC   NC365819  35.331  29.105   5.550
 8478POPC   PO465820  35.386  29.131   5.850
 8478POPC   GL165821  35.390  29.187   6.150
 8478POPC   GL265822  35.251  29.201   6.150
 8478POPC   C1A65823  35.361  29.099   6.450
 8478POPC   D2A65824  35.335  29.104   6.750
 8478POPC   C3A65825  35.357  29.108   7.050
 8478POPC   C4A65826  35.304  29.157   7.350
 8478POPC   C1B65827  35.171  29.281   6.450
 8478POPC   C2B65828  35.219  29.336   6.750
 8478POPC   C3B65829  35.219  29.363   7.050
 8478POPC   C4B65830  35.186  29.356   7.350
 8479POPC   NC365831  17.535  44.693   5.550
 8479POPC   PO465832  17.499  44.681   5.850
 8479POPC   GL165833  17.535  44.627   6.150
 8479POPC   GL265834  17.609  44.553   6.150
 8479POPC   C1A65835  17.503  44.679   6.450
 8479POPC   D2A65836  17.492  44.646   6.750
 8479POPC   C3A65837  17.526  44.636   7.050
 8479POPC   C4A65838  17.500  44.621   7.350
 8479POPC   C1B65839  17.687  44.578   6.450
 8479POPC   C2B65840  17.687  44.519   6.750
 8479POPC   C3B65841  17.671  44.527   7.050
 8479POPC   C4B65842  17.755  44.543   7.350
 8480POPC   NC365843  30.677  36.125   5.550
 8480POPC   PO465844  30.724  36.093   5.850
 8480POPC   GL165845  30.710  36.161   6.150
 8480POPC   GL265846  30.850  36.102   6.150
 8480POPC   C1A65847  30.716  36.140   6.450
 8480POPC   D2A65848  30.651  36.094   6.750
 8480POPC   C3A65849  30.742  36.169   7.050
 8480POPC   C4A65850  30.712  36.161   7.350
 8480POPC   C1B65851  30.951  36.142   6.450
 8480POPC   C2B65852  30.947  36.159   6.750
 8480POPC   C3B65853  30.965  36.089   7.050
 8480POPC   C4B65854  30.917  36.143   7.350
 8481POPC   NC365855  32.993   3.582   5.550
 8481POPC   PO465856  33.031   3.559   5.850
 8481POPC   GL165857  32.980   3.495   6.150
 8481POPC   GL265858  33.185   3.592   6.150
 8481POPC   C1A65859  32.989   3.573   6.450
 8481POPC   D2A65860  32.976   3.555   6.750
 8481POPC   C3A65861  33.012   3.545   7.050
 8481POPC   C4A65862  33.024   3.503   7.350
 8481POPC   C1B65863  33.238   3.561   6.450
 8481POPC   C2B65864  33.226   3.626   6.750
 8481POPC   C3B65865  33.278   3.552   7.050
 8481POPC   C4B65866  33.223   3.607   7.350
 8482POPC   NC365867  20.621  37.689   5.550
 8482POPC   PO465868  20.580  37.649   5.850
 8482POPC   GL165869  20.658  37.727   6.150
 8482POPC   GL265870  20.773  37.719   6.150
 8482POPC   C1A65871  20.611  37.653   6.450
 8482POPC   D2A65872  20.645  37.686   6.750
 8482POPC   C3A65873  20.584  37.650   7.050
 8482POPC   C4A65874  20.594  37.666   7.350
 8482POPC   C1B65875  20.903  37.672   6.450
 8482POPC   C2B65876  20.839  37.687   6.750
 8482POPC   C3B65877  20.898  37.686   7.050
 8482POPC   C4B65878  20.826  37.683   7.350
 8483POPC   NC365879  16.690  27.642   5.550
 8483POPC   PO465880  16.744  27.556   5.850
 8483POPC   GL165881  16.769  27.629   6.150
 8483POPC   GL265882  16.858  27.619   6.150
 8483POPC   C1A65883  16.736  27.597   6.450
 8483POPC   D2A65884  16.686  27.613   6.750
 8483POPC   C3A65885  16.683  27.609   7.050
 8483POPC   C4A65886  16.774  27.597   7.350
 8483POPC   C1B65887  16.959  27.639   6.450
 8483POPC   C2B65888  16.970  27.636   6.750
 8483POPC   C3B65889  17.020  27.662   7.050
 8483POPC   C4B65890  16.967  27.595   7.350
 8484POPC   NC365891  30.681   8.965   5.550
 8484POPC   PO465892  30.676   8.937   5.850
 8484POPC   GL165893  30.656   8.945   6.150
 8484POPC   GL265894  30.744   9.103   6.150
 8484POPC   C1A65895  30.720   8.940   6.450
 8484POPC   D2A65896  30.654   8.932   6.750
 8484POPC   C3A65897  30.710   8.984   7.050
 8484POPC   C4A65898  30.693   8.980   7.350
 8484POPC   C1B65899  30.866   9.102   6.450
 8484POPC   C2B65900  30.920   9.193   6.750
 8484POPC   C3B65901  30.839   9.117   7.050
 8484POPC   C4B65902  30.884   9.193   7.350
 8485POPC   NC365903  32.983  41.606   5.550
 8485POPC   PO465904  33.063  41.602   5.850
 8485POPC   GL165905  33.061  41.593   6.150
 8485POPC   GL265906  32.927  41.687   6.150
 8485POPC   C1A65907  33.067  41.561   6.450
 8485POPC   D2A65908  33.050  41.513   6.750
 8485POPC   C3A65909  32.992  41.545   7.050
 8485POPC   C4A65910  33.018  41.515   7.350
 8485POPC   C1B65911  32.912  41.725   6.450
 8485POPC   C2B65912  32.901  41.800   6.750
 8485POPC   C3B65913  32.855  41.793   7.050
 8485POPC   C4B65914  32.875  41.810   7.350
 8486POPC   NC365915  12.900   4.274   5.550
 8486POPC   PO465916  12.892   4.307   5.850
 8486POPC   GL165917  12.832   4.349   6.150
 8486POPC   GL265918  12.801   4.154   6.150
 8486POPC   C1A65919  12.863   4.346   6.450
 8486POPC   D2A65920  12.866   4.309   6.750
 8486POPC   C3A65921  12.835   4.337   7.050
 8486POPC   C4A65922  12.844   4.293   7.350
 8486POPC   C1B65923  12.780   4.138   6.450
 8486POPC   C2B65924  12.746   4.138   6.750
 8486POPC   C3B65925  12.763   4.043   7.050
 8486POPC   C4B65926  12.750   4.115   7.350
 8487POPC   NC365927  33.783  37.678   5.550
 8487POPC   PO465928  33.775  37.679   5.850
 8487POPC   GL165929  33.790  37.638   6.150
 8487POPC   GL265930  33.963  37.611   6.150
 8487POPC   C1A65931  33.816  37.702   6.450
 8487POPC   D2A65932  33.792  37.715   6.750
 8487POPC   C3A65933  33.846  37.633   7.050
 8487POPC   C4A65934  33.803  37.673   7.350
 8487POPC   C1B65935  34.069  37.604   6.450
 8487POPC   C2B65936  34.011  37.645   6.750
 8487POPC   C3B65937  34.032  37.595   7.050
 8487POPC   C4B65938  34.003  37.666   7.350
 8488POPC   NC365939  19.870  23.666   5.550
 8488POPC   PO465940  19.847  23.709   5.850
 8488POPC   GL165941  19.847  23.692   6.150
 8488POPC   GL265942  19.847  23.837   6.150
 8488POPC   C1A65943  19.883  23.676   6.450
 8488POPC   D2A65944  19.863  23.676   6.750
 8488POPC   C3A65945  19.860  23.761   7.050
 8488POPC   C4A65946  19.858  23.713   7.350
 8488POPC   C1B65947  19.922  23.932   6.450
 8488POPC   C2B65948  19.898  23.928   6.750
 8488POPC   C3B65949  19.916  23.927   7.050
 8488POPC   C4B65950  19.910  23.908   7.350
 8489POPC   NC365951  27.543   4.305   5.550
 8489POPC   PO465952  27.598   4.364   5.850
 8489POPC   GL165953  27.573   4.288   6.150
 8489POPC   GL265954  27.451   4.331   6.150
 8489POPC   C1A65955  27.621   4.349   6.450
 8489POPC   D2A65956  27.558   4.284   6.750
 8489POPC   C3A65957  27.590   4.276   7.050
 8489POPC   C4A65958  27.545   4.363   7.350
 8489POPC   C1B65959  27.358   4.247   6.450
 8489POPC   C2B65960  27.348   4.277   6.750
 8489POPC   C3B65961  27.368   4.254   7.050
 8489POPC   C4B65962  27.390   4.301   7.350
 8490POPC   NC365963  17.509  29.947   5.550
 8490POPC   PO465964  17.458  29.895   5.850
 8490POPC   GL165965  17.541  29.915   6.150
 8490POPC   GL265966  17.582  29.936   6.150
 8490POPC   C1A65967  17.527  29.895   6.450
 8490POPC   D2A65968  17.470  29.892   6.750
 8490POPC   C3A65969  17.497  29.953   7.050
 8490POPC   C4A65970  17.504  29.957   7.350
 8490POPC   C1B65971  17.773  30.030   6.450
 8490POPC   C2B65972  17.773  30.026   6.750
 8490POPC   C3B65973  17.732  30.059   7.050
 8490POPC   C4B65974  17.683  30.021   7.350
 8491POPC   NC365975  39.970   4.327   5.550
 8491POPC   PO465976  40.003   4.340   5.850
 8491POPC   GL165977  39.971   4.273   6.150
 8491POPC   GL265978  39.908   4.410   6.150
 8491POPC   C1A65979  39.974   4.310   6.450
 8491POPC   D2A65980  39.964   4.299   6.750
 8491POPC   C3A65981  39.964   4.327   7.050
 8491POPC   C4A65982  39.958   4.274   7.350
 8491POPC   C1B65983  39.895   4.517   6.450
 8491POPC   C2B65984  39.871   4.509   6.750
 8491POPC   C3B65985  39.873   4.499   7.050
 8491POPC   C4B65986  39.874   4.578   7.350
 8492POPC   NC365987  19.796  17.534   5.550
 8492POPC   PO465988  19.854  17.555   5.850
 8492POPC   GL165989  19.847  17.498   6.150
 8492POPC   GL265990  19.710  17.491   6.150
 8492POPC   C1A65991  19.858  17.544   6.450
 8492POPC   D2A65992  19.869  17.491   6.750
 8492POPC   C3A65993  19.824  17.474   7.050
 8492POPC   C4A65994  19.796  17.531   7.350
 8492POPC   C1B65995  19.579  17.470   6.450
 8492POPC   C2B65996  19.619  17.441   6.750
 8492POPC   C3B65997  19.555  17.467   7.050
 8492POPC   C4B65998  19.586  17.500   7.350
 8493POPC   NC365999  11.262  20.582   5.550
 8493POPC   PO466000  11.330  20.564   5.850
 8493POPC   GL166001  11.314  20.586   6.150
 8493POPC   GL266002  11.336  20.532   6.150
 8493POPC   C1A66003  11.272  20.655   6.450
 8493POPC   D2A66004  11.318  20.563   6.750
 8493POPC   C3A66005  11.325  20.609   7.050
 8493POPC   C4A66006  11.332  20.599   7.350
 8493POPC   C1B66007  11.352  20.384   6.450
 8493POPC   C2B66008  11.350  20.341   6.750
 8493POPC   C3B66009  11.354  20.332   7.050
 8493POPC   C4B66010  11.319  20.379   7.350
 8494POPC   NC366011  30.670  32.989   5.550
 8494POPC   PO466012  30.694  32.991   5.850
 8494POPC   GL166013  30.700  32.988   6.150
 8494POPC   GL266014  30.571  33.101   6.150
 8494POPC   C1A66015  30.647  33.057   6.450
 8494POPC   D2A66016  30.726  33.025   6.750
 8494POPC   C3A66017  30.647  32.988   7.050
 8494POPC   C4A66018  30.721  33.023   7.350
 8494POPC   C1B66019  30.474  33.130   6.450
 8494POPC   C2B66020  30.437  33.143   6.750
 8494POPC   C3B66021  30.441  33.156   7.050
 8494POPC   C4B66022  30.446  33.156   7.350
 8495POPC   NC366023  18.316  11.324   5.550
 8495POPC   PO466024  18.315  11.327   5.850
 8495POPC   GL166025  18.316  11.314   6.150
 8495POPC   GL266026  18.211  11.407   6.150
 8495POPC   C1A66027  18.238  11.306   6.450
 8495POPC   D2A66028  18.267  11.327   6.750
 8495POPC   C3A66029  18.309  11.289   7.050
 8495POPC   C4A66030  18.325  11.325   7.350
 8495POPC   C1B66031  18.116  11.451   6.450
 8495POPC   C2B66032  18.040  11.406   6.750
 8495POPC   C3B66033  18.096  11.461   7.050
 8495POPC   C4B66034  18.097  11.416   7.350
 8496POPC   NC366035  41.560   5.827   5.550
 8496POPC   PO466036  41.593   5.870   5.850
 8496POPC   GL166037  41.532   5.902   6.150
 8496POPC   GL266038  41.517   5.971   6.150
 8496POPC   C1A66039  41.563   5.846   6.450
 8496POPC   D2A66040  41.540   5.889   6.750
 8496POPC   C3A66041  41.598   5.874   7.050
 8496POPC   C4A66042  41.566   5.840   7.350
 8496POPC   C1B66043  41.513   6.085   6.450
 8496POPC   C2B66044  41.453   6.067   6.750
 8496POPC   C3B66045  41.518   6.102   7.050
 8496POPC   C4B66046  41.532   6.137   7.350
 8497POPC   NC366047  36.165  21.390   5.550
 8497POPC   PO466048  36.131  21.427   5.850
 8497POPC   GL166049  36.122  21.376   6.150
 8497POPC   GL266050  36.210  21.493   6.150
 8497POPC   C1A66051  36.090  21.411   6.450
 8497POPC   D2A66052  36.155  21.387   6.750
 8497POPC   C3A66053  36.084  21.396   7.050
 8497POPC   C4A66054  36.083  21.375   7.350
 8497POPC   C1B66055  36.329  21.542   6.450
 8497POPC   C2B66056  36.335  21.536   6.750
 8497POPC   C3B66057  36.249  21.564   7.050
 8497POPC   C4B66058  36.307  21.599   7.350
 8498POPC   NC366059  12.823  15.168   5.550
 8498POPC   PO466060  12.885  15.218   5.850
 8498POPC   GL166061  12.873  15.174   6.150
 8498POPC   GL266062  12.931  15.123   6.150
 8498POPC   C1A66063  12.831  15.214   6.450
 8498POPC   D2A66064  12.879  15.139   6.750
 8498POPC   C3A66065  12.897  15.138   7.050
 8498POPC   C4A66066  12.802  15.209   7.350
 8498POPC   C1B66067  13.134  15.108   6.450
 8498POPC   C2B66068  13.100  15.106   6.750
 8498POPC   C3B66069  13.090  15.098   7.050
 8498POPC   C4B66070  13.077  15.082   7.350
 8499POPC   NC366071   5.865  36.177   5.550
 8499POPC   PO466072   5.873  36.119   5.850
 8499POPC   GL166073   5.854  36.116   6.150
 8499POPC   GL266074   5.868  36.226   6.150
 8499POPC   C1A66075   5.847  36.112   6.450
 8499POPC   D2A66076   5.850  36.084   6.750
 8499POPC   C3A66077   5.874  36.162   7.050
 8499POPC   C4A66078   5.852  36.110   7.350
 8499POPC   C1B66079   5.860  36.400   6.450
 8499POPC   C2B66080   5.923  36.369   6.750
 8499POPC   C3B66081   5.856  36.404   7.050
 8499POPC   C4B66082   5.851  36.355   7.350
 8500POPC   NC366083  32.229  22.962   5.550
 8500POPC   PO466084  32.217  22.979   5.850
 8500POPC   GL166085  32.204  22.964   6.150
 8500POPC   GL266086  32.415  22.979   6.150
 8500POPC   C1A66087  32.201  22.978   6.450
 8500POPC   D2A66088  32.256  22.964   6.750
 8500POPC   C3A66089  32.205  22.961   7.050
 8500POPC   C4A66090  32.211  22.973   7.350
 8500POPC   C1B66091  32.453  23.014   6.450
 8500POPC   C2B66092  32.483  22.984   6.750
 8500POPC   C3B66093  32.455  23.016   7.050
 8500POPC   C4B66094  32.486  22.969   7.350
 8501POPC   NC366095  33.825   8.939   5.550
 8501POPC   PO466096  33.788   8.930   5.850
 8501POPC   GL166097  33.843   8.951   6.150
 8501POPC   GL266098  33.729   8.900   6.150
 8501POPC   C1A66099  33.812   8.963   6.450
 8501POPC   D2A66100  33.797   8.977   6.750
 8501POPC   C3A66101  33.835   9.008   7.050
 8501POPC   C4A66102  33.841   8.936   7.350
 8501POPC   C1B66103  33.590   8.808   6.450
 8501POPC   C2B66104  33.580   8.845   6.750
 8501POPC   C3B66105  33.629   8.821   7.050
 8501POPC   C4B66106  33.548   8.782   7.350
 8502POPC   NC366107  13.627  10.514   5.550
 8502POPC   PO466108  13.630  10.559   5.850
 8502POPC   GL166109  13.634  10.543   6.150
 8502POPC   GL266110  13.733  10.570   6.150
 8502POPC   C1A66111  13.593  10.476   6.450
 8502POPC   D2A66112  13.649  10.563   6.750
 8502POPC   C3A66113  13.620  10.503   7.050
 8502POPC   C4A66114  13.638  10.485   7.350
 8502POPC   C1B66115  13.853  10.685   6.450
 8502POPC   C2B66116  13.796  10.638   6.750
 8502POPC   C3B66117  13.817  10.661   7.050
 8502POPC   C4B66118  13.857  10.641   7.350
 8503POPC   NC366119  21.422   8.210   5.550
 8503POPC   PO466120  21.401   8.198   5.850
 8503POPC   GL166121  21.360   8.150   6.150
 8503POPC   GL266122  21.546   8.180   6.150
 8503POPC   C1A66123  21.405   8.192   6.450
 8503POPC   D2A66124  21.418   8.196   6.750
 8503POPC   C3A66125  21.353   8.151   7.050
 8503POPC   C4A66126  21.414   8.242   7.350
 8503POPC   C1B66127  21.647   8.142   6.450
 8503POPC   C2B66128  21.606   8.123   6.750
 8503POPC   C3B66129  21.659   8.075   7.050
 8503POPC   C4B66130  21.623   8.115   7.350
 8504POPC   NC366131  18.247   5.867   5.550
 8504POPC   PO466132  18.284   5.902   5.850
 8504POPC   GL166133  18.294   5.884   6.150
 8504POPC   GL266134  18.438   5.892   6.150
 8504POPC   C1A66135  18.245   5.872   6.450
 8504POPC   D2A66136  18.331   5.912   6.750
 8504POPC   C3A66137  18.305   5.883   7.050
 8504POPC   C4A66138  18.272   5.820   7.350
 8504POPC   C1B66139  18.564   5.905   6.450
 8504POPC   C2B66140  18.573   5.861   6.750
 8504POPC   C3B66141  18.580   5.830   7.050
 8504POPC   C4B66142  18.485   5.892   7.350
 8505POPC   NC366143   0.390  31.437   5.550
 8505POPC   PO466144   0.455  31.505   5.850
 8505POPC   GL166145   0.468  31.505   6.150
 8505POPC   GL266146   0.498  31.411   6.150
 8505POPC   C1A66147   0.466  31.519   6.450
 8505POPC   D2A66148   0.407  31.467   6.750
 8505POPC   C3A66149   0.421  31.465   7.050
 8505POPC   C4A66150   0.438  31.510   7.350
 8505POPC   C1B66151   0.564  31.340   6.450
 8505POPC   C2B66152   0.645  31.249   6.750
 8505POPC   C3B66153   0.573  31.298   7.050
 8505POPC   C4B66154   0.565  31.258   7.350
 8506POPC   NC366155  26.864   6.675   5.550
 8506POPC   PO466156  26.775   6.621   5.850
 8506POPC   GL166157  26.775   6.684   6.150
 8506POPC   GL266158  26.875   6.786   6.150
 8506POPC   C1A66159  26.856   6.692   6.450
 8506POPC   D2A66160  26.855   6.602   6.750
 8506POPC   C3A66161  26.821   6.637   7.050
 8506POPC   C4A66162  26.848   6.595   7.350
 8506POPC   C1B66163  26.890   6.888   6.450
 8506POPC   C2B66164  26.918   6.838   6.750
 8506POPC   C3B66165  26.901   6.882   7.050
 8506POPC   C4B66166  26.952   6.831   7.350
 8507POPC   NC366167  20.598   8.173   5.550
 8507POPC   PO466168  20.600   8.238   5.850
 8507POPC   GL166169  20.576   8.243   6.150
 8507POPC   GL266170  20.629   8.318   6.150
 8507POPC   C1A66171  20.630   8.163   6.450
 8507POPC   D2A66172  20.651   8.225   6.750
 8507POPC   C3A66173  20.581   8.233   7.050
 8507POPC   C4A66174  20.569   8.174   7.350
 8507POPC   C1B66175  20.650   8.393   6.450
 8507POPC   C2B66176  20.634   8.458   6.750
 8507POPC   C3B66177  20.657   8.412   7.050
 8507POPC   C4B66178  20.670   8.406   7.350
 8508POPC   NC366179  26.078  34.542   5.550
 8508POPC   PO466180  26.075  34.555   5.850
 8508POPC   GL166181  26.082  34.596   6.150
 8508POPC   GL266182  25.944  34.489   6.150
 8508POPC   C1A66183  26.007  34.615   6.450
 8508POPC   D2A66184  26.030  34.619   6.750
 8508POPC   C3A66185  26.078  34.546   7.050
 8508POPC   C4A66186  26.038  34.566   7.350
 8508POPC   C1B66187  25.863  34.379   6.450
 8508POPC   C2B66188  25.927  34.330   6.750
 8508POPC   C3B66189  25.928  34.364   7.050
 8508POPC   C4B66190  25.856  34.369   7.350
 8509POPC   NC366191  15.220  41.512   5.550
 8509POPC   PO466192  15.168  41.591   5.850
 8509POPC   GL166193  15.177  41.556   6.150
 8509POPC   GL266194  15.178  41.633   6.150
 8509POPC   C1A66195  15.153  41.546   6.450
 8509POPC   D2A66196  15.207  41.530   6.750
 8509POPC   C3A66197  15.175  41.533   7.050
 8509POPC   C4A66198  15.180  41.550   7.350
 8509POPC   C1B66199  15.262  41.773   6.450
 8509POPC   C2B66200  15.301  41.838   6.750
 8509POPC   C3B66201  15.224  41.814   7.050
 8509POPC   C4B66202  15.257  41.808   7.350
 8510POPC   NC366203  41.533   9.782   5.550
 8510POPC   PO466204  41.594   9.778   5.850
 8510POPC   GL166205  41.517   9.711   6.150
 8510POPC   GL266206  41.391   9.811   6.150
 8510POPC   C1A66207  41.572   9.699   6.450
 8510POPC   D2A66208  41.564   9.730   6.750
 8510POPC   C3A66209  41.587   9.704   7.050
 8510POPC   C4A66210  41.587   9.749   7.350
 8510POPC   C1B66211  41.273   9.821   6.450
 8510POPC   C2B66212  41.271   9.859   6.750
 8510POPC   C3B66213  41.285   9.785   7.050
 8510POPC   C4B66214  41.324   9.786   7.350
 8511POPC   NC366215   2.740  33.832   5.550
 8511POPC   PO466216   2.734  33.790   5.850
 8511POPC   GL166217   2.727  33.779   6.150
 8511POPC   GL266218   2.897  33.827   6.150
 8511POPC   C1A66219   2.796  33.809   6.450
 8511POPC   D2A66220   2.722  33.763   6.750
 8511POPC   C3A66221   2.807  33.840   7.050
 8511POPC   C4A66222   2.717  33.795   7.350
 8511POPC   C1B66223   3.026  33.824   6.450
 8511POPC   C2B66224   3.042  33.801   6.750
 8511POPC   C3B66225   3.040  33.771   7.050
 8511POPC   C4B66226   3.033  33.815   7.350
 8512POPC   NC366227  41.579  35.330   5.550
 8512POPC   PO466228  41.548  35.386   5.850
 8512POPC   GL166229  41.579  35.348   6.150
 8512POPC   GL266230  41.589  35.493   6.150
 8512POPC   C1A66231  41.579  35.304   6.450
 8512POPC   D2A66232  41.559  35.361   6.750
 8512POPC   C3A66233  41.521  35.308   7.050
 8512POPC   C4A66234  41.556  35.328   7.350
 8512POPC   C1B66235  41.744  35.598   6.450
 8512POPC   C2B66236  41.741  35.563   6.750
 8512POPC   C3B66237  41.743  35.547   7.050
 8512POPC   C4B66238  41.740  35.580   7.350
 8513POPC   NC366239  15.931  19.081   5.550
 8513POPC   PO466240  15.944  19.087   5.850
 8513POPC   GL166241  15.994  19.065   6.150
 8513POPC   GL266242  16.082  19.059   6.150
 8513POPC   C1A66243  15.921  19.015   6.450
 8513POPC   D2A66244  15.950  19.036   6.750
 8513POPC   C3A66245  15.915  19.108   7.050
 8513POPC   C4A66246  15.978  19.036   7.350
 8513POPC   C1B66247  16.181  19.146   6.450
 8513POPC   C2B66248  16.168  19.127   6.750
 8513POPC   C3B66249  16.204  19.140   7.050
 8513POPC   C4B66250  16.198  19.171   7.350
 8514POPC   NC366251  22.942  40.036   5.550
 8514POPC   PO466252  22.926  40.001   5.850
 8514POPC   GL166253  22.906  39.964   6.150
 8514POPC   GL266254  22.843  40.094   6.150
 8514POPC   C1A66255  22.970  39.974   6.450
 8514POPC   D2A66256  22.892  40.031   6.750
 8514POPC   C3A66257  22.954  39.990   7.050
 8514POPC   C4A66258  22.982  40.026   7.350
 8514POPC   C1B66259  22.682  40.128   6.450
 8514POPC   C2B66260  22.664  40.142   6.750
 8514POPC   C3B66261  22.699  40.079   7.050
 8514POPC   C4B66262  22.664  40.062   7.350
 8515POPC   NC366263  20.605  27.575   5.550
 8515POPC   PO466264  20.607  27.581   5.850
 8515POPC   GL166265  20.605  27.597   6.150
 8515POPC   GL266266  20.657  27.759   6.150
 8515POPC   C1A66267  20.608  27.554   6.450
 8515POPC   D2A66268  20.573  27.613   6.750
 8515POPC   C3A66269  20.582  27.550   7.050
 8515POPC   C4A66270  20.629  27.547   7.350
 8515POPC   C1B66271  20.686  27.803   6.450
 8515POPC   C2B66272  20.709  27.818   6.750
 8515POPC   C3B66273  20.714  27.828   7.050
 8515POPC   C4B66274  20.656  27.823   7.350
 8516POPC   NC366275   5.052   2.012   5.550
 8516POPC   PO466276   5.047   1.952   5.850
 8516POPC   GL166277   5.140   1.996   6.150
 8516POPC   GL266278   4.986   2.092   6.150
 8516POPC   C1A66279   5.120   1.950   6.450
 8516POPC   D2A66280   5.069   2.012   6.750
 8516POPC   C3A66281   5.143   1.972   7.050
 8516POPC   C4A66282   5.048   2.010   7.350
 8516POPC   C1B66283   4.925   2.091   6.450
 8516POPC   C2B66284   4.917   2.150   6.750
 8516POPC   C3B66285   4.864   2.160   7.050
 8516POPC   C4B66286   4.853   2.157   7.350
 8517POPC   NC366287  39.967  12.877   5.550
 8517POPC   PO466288  40.052  12.803   5.850
 8517POPC   GL166289  40.013  12.806   6.150
 8517POPC   GL266290  40.113  12.840   6.150
 8517POPC   C1A66291  39.970  12.858   6.450
 8517POPC   D2A66292  40.000  12.850   6.750
 8517POPC   C3A66293  39.987  12.836   7.050
 8517POPC   C4A66294  40.022  12.803   7.350
 8517POPC   C1B66295  40.213  12.872   6.450
 8517POPC   C2B66296  40.227  12.864   6.750
 8517POPC   C3B66297  40.245  12.873   7.050
 8517POPC   C4B66298  40.215  12.897   7.350
 8518POPC   NC366299  44.621  19.829   5.550
 8518POPC   PO466300  44.681  19.814   5.850
 8518POPC   GL166301  44.636  19.850   6.150
 8518POPC   GL266302  44.679  19.997   6.150
 8518POPC   C1A66303  44.626  19.787   6.450
 8518POPC   D2A66304  44.684  19.820   6.750
 8518POPC   C3A66305  44.707  19.836   7.050
 8518POPC   C4A66306  44.633  19.801   7.350
 8518POPC   C1B66307  44.639  20.076   6.450
 8518POPC   C2B66308  44.621  20.044   6.750
 8518POPC   C3B66309  44.653  20.048   7.050
 8518POPC   C4B66310  44.666  20.052   7.350
 8519POPC   NC366311  29.932  34.595   5.550
 8519POPC   PO466312  29.965  34.584   5.850
 8519POPC   GL166313  29.888  34.575   6.150
 8519POPC   GL266314  29.932  34.653   6.150
 8519POPC   C1A66315  29.883  34.561   6.450
 8519POPC   D2A66316  29.958  34.532   6.750
 8519POPC   C3A66317  29.905  34.528   7.050
 8519POPC   C4A66318  29.903  34.567   7.350
 8519POPC   C1B66319  29.921  34.830   6.450
 8519POPC   C2B66320  29.919  34.778   6.750
 8519POPC   C3B66321  29.923  34.843   7.050
 8519POPC   C4B66322  29.953  34.824   7.350
 8520POPC   NC366323   4.286  24.440   5.550
 8520POPC   PO466324   4.331  24.515   5.850
 8520POPC   GL166325   4.287  24.467   6.150
 8520POPC   GL266326   4.216  24.380   6.150
 8520POPC   C1A66327   4.356  24.533   6.450
 8520POPC   D2A66328   4.304  24.443   6.750
 8520POPC   C3A66329   4.366  24.443   7.050
 8520POPC   C4A66330   4.326  24.486   7.350
 8520POPC   C1B66331   4.236  24.236   6.450
 8520POPC   C2B66332   4.166  24.260   6.750
 8520POPC   C3B66333   4.191  24.237   7.050
 8520POPC   C4B66334   4.225  24.267   7.350
 8521POPC   NC366335  29.962  16.762   5.550
 8521POPC   PO466336  29.951  16.702   5.850
 8521POPC   GL166337  29.970  16.765   6.150
 8521POPC   GL266338  29.994  16.808   6.150
 8521POPC   C1A66339  29.939  16.748   6.450
 8521POPC   D2A66340  29.936  16.682   6.750
 8521POPC   C3A66341  29.962  16.746   7.050
 8521POPC   C4A66342  29.895  16.699   7.350
 8521POPC   C1B66343  29.986  16.993   6.450
 8521POPC   C2B66344  30.022  16.923   6.750
 8521POPC   C3B66345  30.045  16.916   7.050
 8521POPC   C4B66346  30.058  16.985   7.350
 8522POPC   NC366347   1.168   1.947   5.550
 8522POPC   PO466348   1.214   1.953   5.850
 8522POPC   GL166349   1.193   1.988   6.150
 8522POPC   GL266350   1.145   2.076   6.150
 8522POPC   C1A66351   1.238   1.957   6.450
 8522POPC   D2A66352   1.209   2.008   6.750
 8522POPC   C3A66353   1.262   1.969   7.050
 8522POPC   C4A66354   1.244   1.946   7.350
 8522POPC   C1B66355   1.085   2.185   6.450
 8522POPC   C2B66356   1.064   2.182   6.750
 8522POPC   C3B66357   1.068   2.176   7.050
 8522POPC   C4B66358   1.123   2.244   7.350
 8523POPC   NC366359  33.017  12.802   5.550
 8523POPC   PO466360  32.986  12.871   5.850
 8523POPC   GL166361  32.981  12.812   6.150
 8523POPC   GL266362  33.105  12.814   6.150
 8523POPC   C1A66363  33.047  12.890   6.450
 8523POPC   D2A66364  32.979  12.810   6.750
 8523POPC   C3A66365  33.004  12.845   7.050
 8523POPC   C4A66366  33.021  12.810   7.350
 8523POPC   C1B66367  33.246  12.663   6.450
 8523POPC   C2B66368  33.186  12.655   6.750
 8523POPC   C3B66369  33.221  12.730   7.050
 8523POPC   C4B66370  33.229  12.669   7.350
 8524POPC   NC366371   7.438  26.045   5.550
 8524POPC   PO466372   7.426  26.059   5.850
 8524POPC   GL166373   7.432  26.025   6.150
 8524POPC   GL266374   7.469  25.878   6.150
 8524POPC   C1A66375   7.411  26.075   6.450
 8524POPC   D2A66376   7.470  26.031   6.750
 8524POPC   C3A66377   7.402  26.032   7.050
 8524POPC   C4A66378   7.395  26.050   7.350
 8524POPC   C1B66379   7.464  25.765   6.450
 8524POPC   C2B66380   7.519  25.851   6.750
 8524POPC   C3B66381   7.477  25.827   7.050
 8524POPC   C4B66382   7.524  25.819   7.350
 8525POPC   NC366383   8.939  33.043   5.550
 8525POPC   PO466384   8.953  33.070   5.850
 8525POPC   GL166385   8.965  33.014   6.150
 8525POPC   GL266386   8.943  33.144   6.150
 8525POPC   C1A66387   9.000  33.010   6.450
 8525POPC   D2A66388   8.988  32.980   6.750
 8525POPC   C3A66389   8.947  33.061   7.050
 8525POPC   C4A66390   9.018  32.984   7.350
 8525POPC   C1B66391   8.851  33.228   6.450
 8525POPC   C2B66392   8.822  33.258   6.750
 8525POPC   C3B66393   8.910  33.280   7.050
 8525POPC   C4B66394   8.892  33.282   7.350
 8526POPC   NC366395   2.752   5.909   5.550
 8526POPC   PO466396   2.811   5.844   5.850
 8526POPC   GL166397   2.719   5.902   6.150
 8526POPC   GL266398   2.637   5.783   6.150
 8526POPC   C1A66399   2.803   5.916   6.450
 8526POPC   D2A66400   2.776   5.872   6.750
 8526POPC   C3A66401   2.765   5.877   7.050
 8526POPC   C4A66402   2.792   5.896   7.350
 8526POPC   C1B66403   2.597   5.697   6.450
 8526POPC   C2B66404   2.537   5.746   6.750
 8526POPC   C3B66405   2.566   5.725   7.050
 8526POPC   C4B66406   2.582   5.744   7.350
 8527POPC   NC366407  31.522   8.998   5.550
 8527POPC   PO466408  31.520   8.961   5.850
 8527POPC   GL166409  31.474   8.935   6.150
 8527POPC   GL266410  31.356   8.983   6.150
 8527POPC   C1A66411  31.449   9.014   6.450
 8527POPC   D2A66412  31.477   8.968   6.750
 8527POPC   C3A66413  31.476   8.964   7.050
 8527POPC   C4A66414  31.464   8.931   7.350
 8527POPC   C1B66415  31.282   9.091   6.450
 8527POPC   C2B66416  31.271   9.093   6.750
 8527POPC   C3B66417  31.237   9.061   7.050
 8527POPC   C4B66418  31.250   9.051   7.350
 8528POPC   NC366419   8.963  26.838   5.550
 8528POPC   PO466420   8.987  26.823   5.850
 8528POPC   GL166421   9.005  26.807   6.150
 8528POPC   GL266422   8.931  26.696   6.150
 8528POPC   C1A66423   8.959  26.781   6.450
 8528POPC   D2A66424   8.978  26.847   6.750
 8528POPC   C3A66425   8.953  26.809   7.050
 8528POPC   C4A66426   9.020  26.790   7.350
 8528POPC   C1B66427   8.847  26.598   6.450
 8528POPC   C2B66428   8.811  26.595   6.750
 8528POPC   C3B66429   8.850  26.564   7.050
 8528POPC   C4B66430   8.856  26.619   7.350
 8529POPC   NC366431  15.969   3.557   5.550
 8529POPC   PO466432  15.988   3.510   5.850
 8529POPC   GL166433  15.951   3.538   6.150
 8529POPC   GL266434  15.836   3.469   6.150
 8529POPC   C1A66435  15.988   3.543   6.450
 8529POPC   D2A66436  15.999   3.587   6.750
 8529POPC   C3A66437  15.968   3.553   7.050
 8529POPC   C4A66438  16.000   3.528   7.350
 8529POPC   C1B66439  15.767   3.390   6.450
 8529POPC   C2B66440  15.786   3.355   6.750
 8529POPC   C3B66441  15.768   3.337   7.050
 8529POPC   C4B66442  15.783   3.361   7.350
 8530POPC   NC366443  29.902   9.724   5.550
 8530POPC   PO466444  29.917   9.794   5.850
 8530POPC   GL166445  29.926   9.762   6.150
 8530POPC   GL266446  29.858   9.872   6.150
 8530POPC   C1A66447  29.903   9.738   6.450
 8530POPC   D2A66448  29.904   9.742   6.750
 8530POPC   C3A66449  29.931   9.719   7.050
 8530POPC   C4A66450  29.921   9.788   7.350
 8530POPC   C1B66451  29.784   9.938   6.450
 8530POPC   C2B66452  29.704   9.923   6.750
 8530POPC   C3B66453  29.777   9.897   7.050
 8530POPC   C4B66454  29.765   9.952   7.350
 8531POPC   NC366455   8.998   4.276   5.550
 8531POPC   PO466456   9.013   4.293   5.850
 8531POPC   GL166457   8.927   4.282   6.150
 8531POPC   GL266458   8.856   4.359   6.150
 8531POPC   C1A66459   8.974   4.291   6.450
 8531POPC   D2A66460   8.941   4.291   6.750
 8531POPC   C3A66461   8.993   4.322   7.050
 8531POPC   C4A66462   8.946   4.302   7.350
 8531POPC   C1B66463   8.820   4.524   6.450
 8531POPC   C2B66464   8.800   4.467   6.750
 8531POPC   C3B66465   8.792   4.451   7.050
 8531POPC   C4B66466   8.752   4.517   7.350
 8532POPC   NC366467  42.377  36.952   5.550
 8532POPC   PO466468  42.377  36.889   5.850
 8532POPC   GL166469  42.326  36.904   6.150
 8532POPC   GL266470  42.409  36.778   6.150
 8532POPC   C1A66471  42.315  36.934   6.450
 8532POPC   D2A66472  42.368  36.902   6.750
 8532POPC   C3A66473  42.362  36.949   7.050
 8532POPC   C4A66474  42.309  36.899   7.350
 8532POPC   C1B66475  42.497  36.709   6.450
 8532POPC   C2B66476  42.491  36.723   6.750
 8532POPC   C3B66477  42.501  36.683   7.050
 8532POPC   C4B66478  42.533  36.704   7.350
 8533POPC   NC366479  24.493   2.815   5.550
 8533POPC   PO466480  24.460   2.720   5.850
 8533POPC   GL166481  24.461   2.784   6.150
 8533POPC   GL266482  24.548   2.863   6.150
 8533POPC   C1A66483  24.490   2.746   6.450
 8533POPC   D2A66484  24.506   2.757   6.750
 8533POPC   C3A66485  24.446   2.729   7.050
 8533POPC   C4A66486  24.443   2.716   7.350
 8533POPC   C1B66487  24.652   2.960   6.450
 8533POPC   C2B66488  24.584   2.987   6.750
 8533POPC   C3B66489  24.595   3.012   7.050
 8533POPC   C4B66490  24.647   2.982   7.350
 8534POPC   NC366491  26.011   7.402   5.550
 8534POPC   PO466492  26.028   7.427   5.850
 8534POPC   GL166493  26.012   7.408   6.150
 8534POPC   GL266494  26.068   7.266   6.150
 8534POPC   C1A66495  25.992   7.404   6.450
 8534POPC   D2A66496  26.084   7.417   6.750
 8534POPC   C3A66497  26.078   7.413   7.050
 8534POPC   C4A66498  26.021   7.459   7.350
 8534POPC   C1B66499  26.075   7.199   6.450
 8534POPC   C2B66500  26.020   7.146   6.750
 8534POPC   C3B66501  26.060   7.148   7.050
 8534POPC   C4B66502  26.006   7.134   7.350
 8535POPC   NC366503  34.573  20.637   5.550
 8535POPC   PO466504  34.553  20.641   5.850
 8535POPC   GL166505  34.545  20.610   6.150
 8535POPC   GL266506  34.542  20.450   6.150
 8535POPC   C1A66507  34.560  20.597   6.450
 8535POPC   D2A66508  34.585  20.650   6.750
 8535POPC   C3A66509  34.573  20.591   7.050
 8535POPC   C4A66510  34.608  20.624   7.350
 8535POPC   C1B66511  34.623  20.334   6.450
 8535POPC   C2B66512  34.632  20.336   6.750
 8535POPC   C3B66513  34.548  20.328   7.050
 8535POPC   C4B66514  34.545  20.366   7.350
 8536POPC   NC366515  26.821  43.933   5.550
 8536POPC   PO466516  26.800  43.882   5.850
 8536POPC   GL166517  26.768  43.921   6.150
 8536POPC   GL266518  26.724  43.941   6.150
 8536POPC   C1A66519  26.776  43.847   6.450
 8536POPC   D2A66520  26.820  43.932   6.750
 8536POPC   C3A66521  26.804  43.924   7.050
 8536POPC   C4A66522  26.859  43.869   7.350
 8536POPC   C1B66523  26.616  44.035   6.450
 8536POPC   C2B66524  26.604  44.019   6.750
 8536POPC   C3B66525  26.644  44.061   7.050
 8536POPC   C4B66526  26.636  44.041   7.350
 8537POPC   NC366527  41.572  26.855   5.550
 8537POPC   PO466528  41.581  26.781   5.850
 8537POPC   GL166529  41.521  26.866   6.150
 8537POPC   GL266530  41.645  26.754   6.150
 8537POPC   C1A66531  41.509  26.820   6.450
 8537POPC   D2A66532  41.581  26.792   6.750
 8537POPC   C3A66533  41.539  26.784   7.050
 8537POPC   C4A66534  41.599  26.812   7.350
 8537POPC   C1B66535  41.797  26.689   6.450
 8537POPC   C2B66536  41.741  26.624   6.750
 8537POPC   C3B66537  41.751  26.643   7.050
 8537POPC   C4B66538  41.761  26.662   7.350
 8538POPC   NC366539   4.277  19.015   5.550
 8538POPC   PO466540   4.290  19.050   5.850
 8538POPC   GL166541   4.354  19.012   6.150
 8538POPC   GL266542   4.203  18.964   6.150
 8538POPC   C1A66543   4.339  19.063   6.450
 8538POPC   D2A66544   4.312  19.093   6.750
 8538POPC   C3A66545   4.302  19.019   7.050
 8538POPC   C4A66546   4.338  19.062   7.350
 8538POPC   C1B66547   4.162  18.863   6.450
 8538POPC   C2B66548   4.103  18.923   6.750
 8538POPC   C3B66549   4.092  18.911   7.050
 8538POPC   C4B66550   4.121  18.841   7.350
 8539POPC   NC366551   5.123  39.979   5.550
 8539POPC   PO466552   5.077  40.051   5.850
 8539POPC   GL166553   5.076  39.991   6.150
 8539POPC   GL266554   5.065  40.132   6.150
 8539POPC   C1A66555   5.141  40.016   6.450
 8539POPC   D2A66556   5.108  39.989   6.750
 8539POPC   C3A66557   5.080  40.037   7.050
 8539POPC   C4A66558   5.047  40.018   7.350
 8539POPC   C1B66559   5.138  40.305   6.450
 8539POPC   C2B66560   5.150  40.239   6.750
 8539POPC   C3B66561   5.109  40.246   7.050
 8539POPC   C4B66562   5.062  40.263   7.350
 8540POPC   NC366563   5.864  19.800   5.550
 8540POPC   PO466564   5.895  19.861   5.850
 8540POPC   GL166565   5.878  19.878   6.150
 8540POPC   GL266566   5.987  19.797   6.150
 8540POPC   C1A66567   5.861  19.857   6.450
 8540POPC   D2A66568   5.860  19.810   6.750
 8540POPC   C3A66569   5.909  19.839   7.050
 8540POPC   C4A66570   5.889  19.821   7.350
 8540POPC   C1B66571   6.019  19.677   6.450
 8540POPC   C2B66572   6.060  19.678   6.750
 8540POPC   C3B66573   6.013  19.649   7.050
 8540POPC   C4B66574   6.093  19.661   7.350
 8541POPC   NC366575  31.522  42.360   5.550
 8541POPC   PO466576  31.469  42.369   5.850
 8541POPC   GL166577  31.509  42.327   6.150
 8541POPC   GL266578  31.363  42.245   6.150
 8541POPC   C1A66579  31.426  42.317   6.450
 8541POPC   D2A66580  31.430  42.340   6.750
 8541POPC   C3A66581  31.485  42.380   7.050
 8541POPC   C4A66582  31.486  42.305   7.350
 8541POPC   C1B66583  31.273  42.167   6.450
 8541POPC   C2B66584  31.234  42.177   6.750
 8541POPC   C3B66585  31.320  42.173   7.050
 8541POPC   C4B66586  31.260  42.176   7.350
 8542POPC   NC366587   9.780  20.599   5.550
 8542POPC   PO466588   9.765  20.573   5.850
 8542POPC   GL166589   9.794  20.615   6.150
 8542POPC   GL266590   9.656  20.716   6.150
 8542POPC   C1A66591   9.761  20.586   6.450
 8542POPC   D2A66592   9.698  20.653   6.750
 8542POPC   C3A66593   9.739  20.626   7.050
 8542POPC   C4A66594   9.726  20.599   7.350
 8542POPC   C1B66595   9.489  20.730   6.450
 8542POPC   C2B66596   9.573  20.760   6.750
 8542POPC   C3B66597   9.529  20.765   7.050
 8542POPC   C4B66598   9.488  20.776   7.350
 8543POPC   NC366599  25.244  29.960   5.550
 8543POPC   PO466600  25.266  29.964   5.850
 8543POPC   GL166601  25.281  29.927   6.150
 8543POPC   GL266602  25.175  29.926   6.150
 8543POPC   C1A66603  25.228  29.930   6.450
 8543POPC   D2A66604  25.223  29.970   6.750
 8543POPC   C3A66605  25.228  29.968   7.050
 8543POPC   C4A66606  25.313  29.928   7.350
 8543POPC   C1B66607  25.007  29.855   6.450
 8543POPC   C2B66608  24.985  29.868   6.750
 8543POPC   C3B66609  25.031  29.868   7.050
 8543POPC   C4B66610  25.008  29.834   7.350
 8544POPC   NC366611  15.911   9.778   5.550
 8544POPC   PO466612  15.993   9.766   5.850
 8544POPC   GL166613  15.997   9.705   6.150
 8544POPC   GL266614  15.836   9.670   6.150
 8544POPC   C1A66615  15.960   9.752   6.450
 8544POPC   D2A66616  15.932   9.700   6.750
 8544POPC   C3A66617  15.990   9.704   7.050
 8544POPC   C4A66618  15.915   9.752   7.350
 8544POPC   C1B66619  15.791   9.602   6.450
 8544POPC   C2B66620  15.761   9.608   6.750
 8544POPC   C3B66621  15.834   9.591   7.050
 8544POPC   C4B66622  15.786   9.602   7.350
 8545POPC   NC366623   4.267  43.925   5.550
 8545POPC   PO466624   4.276  43.842   5.850
 8545POPC   GL166625   4.354  43.839   6.150
 8545POPC   GL266626   4.476  43.905   6.150
 8545POPC   C1A66627   4.311  43.847   6.450
 8545POPC   D2A66628   4.354  43.923   6.750
 8545POPC   C3A66629   4.299  43.855   7.050
 8545POPC   C4A66630   4.315  43.895   7.350
 8545POPC   C1B66631   4.559  43.921   6.450
 8545POPC   C2B66632   4.507  43.937   6.750
 8545POPC   C3B66633   4.516  43.940   7.050
 8545POPC   C4B66634   4.525  43.931   7.350
 8546POPC   NC366635  24.458  36.920   5.550
 8546POPC   PO466636  24.487  36.936   5.850
 8546POPC   GL166637  24.460  36.940   6.150
 8546POPC   GL266638  24.564  36.991   6.150
 8546POPC   C1A66639  24.471  36.887   6.450
 8546POPC   D2A66640  24.463  36.873   6.750
 8546POPC   C3A66641  24.534  36.866   7.050
 8546POPC   C4A66642  24.467  36.889   7.350
 8546POPC   C1B66643  24.645  37.143   6.450
 8546POPC   C2B66644  24.642  37.073   6.750
 8546POPC   C3B66645  24.652  37.065   7.050
 8546POPC   C4B66646  24.633  37.111   7.350
 8547POPC   NC366647  20.639  32.251   5.550
 8547POPC   PO466648  20.605  32.297   5.850
 8547POPC   GL166649  20.648  32.222   6.150
 8547POPC   GL266650  20.663  32.342   6.150
 8547POPC   C1A66651  20.594  32.278   6.450
 8547POPC   D2A66652  20.630  32.213   6.750
 8547POPC   C3A66653  20.561  32.244   7.050
 8547POPC   C4A66654  20.614  32.259   7.350
 8547POPC   C1B66655  20.726  32.472   6.450
 8547POPC   C2B66656  20.785  32.406   6.750
 8547POPC   C3B66657  20.728  32.482   7.050
 8547POPC   C4B66658  20.739  32.485   7.350
 8548POPC   NC366659  21.382  23.666   5.550
 8548POPC   PO466660  21.365  23.734   5.850
 8548POPC   GL166661  21.428  23.750   6.150
 8548POPC   GL266662  21.470  23.796   6.150
 8548POPC   C1A66663  21.405  23.716   6.450
 8548POPC   D2A66664  21.419  23.717   6.750
 8548POPC   C3A66665  21.340  23.672   7.050
 8548POPC   C4A66666  21.436  23.724   7.350
 8548POPC   C1B66667  21.454  23.989   6.450
 8548POPC   C2B66668  21.508  23.936   6.750
 8548POPC   C3B66669  21.509  23.903   7.050
 8548POPC   C4B66670  21.495  23.929   7.350
 8549POPC   NC366671  39.196  15.974   5.550
 8549POPC   PO466672  39.211  15.916   5.850
 8549POPC   GL166673  39.263  15.974   6.150
 8549POPC   GL266674  39.101  16.074   6.150
 8549POPC   C1A66675  39.197  15.975   6.450
 8549POPC   D2A66676  39.272  15.945   6.750
 8549POPC   C3A66677  39.216  15.996   7.050
 8549POPC   C4A66678  39.245  15.978   7.350
 8549POPC   C1B66679  39.009  16.095   6.450
 8549POPC   C2B66680  39.055  16.111   6.750
 8549POPC   C3B66681  39.012  16.075   7.050
 8549POPC   C4B66682  39.005  16.135   7.350
 8550POPC   NC366683   4.296  17.544   5.550
 8550POPC   PO466684   4.337  17.542   5.850
 8550POPC   GL166685   4.350  17.532   6.150
 8550POPC   GL266686   4.360  17.430   6.150
 8550POPC   C1A66687   4.348  17.471   6.450
 8550POPC   D2A66688   4.317  17.535   6.750
 8550POPC   C3A66689   4.300  17.515   7.050
 8550POPC   C4A66690   4.308  17.523   7.350
 8550POPC   C1B66691   4.465  17.306   6.450
 8550POPC   C2B66692   4.467  17.268   6.750
 8550POPC   C3B66693   4.405  17.279   7.050
 8550POPC   C4B66694   4.459  17.290   7.350
 8551POPC   NC366695   0.392   7.436   5.550
 8551POPC   PO466696   0.414   7.424   5.850
 8551POPC   GL166697   0.455   7.421   6.150
 8551POPC   GL266698   0.430   7.339   6.150
 8551POPC   C1A66699   0.468   7.410   6.450
 8551POPC   D2A66700   0.421   7.380   6.750
 8551POPC   C3A66701   0.448   7.461   7.050
 8551POPC   C4A66702   0.424   7.373   7.350
 8551POPC   C1B66703   0.452   7.192   6.450
 8551POPC   C2B66704   0.452   7.170   6.750
 8551POPC   C3B66705   0.504   7.177   7.050
 8551POPC   C4B66706   0.525   7.190   7.350
 8552POPC   NC366707   2.767   0.465   5.550
 8552POPC   PO466708   2.734   0.427   5.850
 8552POPC   GL166709   2.723   0.439   6.150
 8552POPC   GL266710   2.840   0.335   6.150
 8552POPC   C1A66711   2.809   0.447   6.450
 8552POPC   D2A66712   2.786   0.389   6.750
 8552POPC   C3A66713   2.716   0.391   7.050
 8552POPC   C4A66714   2.815   0.397   7.350
 8552POPC   C1B66715   2.940   0.355   6.450
 8552POPC   C2B66716   3.010   0.324   6.750
 8552POPC   C3B66717   2.968   0.281   7.050
 8552POPC   C4B66718   2.995   0.354   7.350
 8553POPC   NC366719  18.295  13.664   5.550
 8553POPC   PO466720  18.259  13.624   5.850
 8553POPC   GL166721  18.324  13.604   6.150
 8553POPC   GL266722  18.264  13.502   6.150
 8553POPC   C1A66723  18.256  13.668   6.450
 8553POPC   D2A66724  18.312  13.629   6.750
 8553POPC   C3A66725  18.235  13.622   7.050
 8553POPC   C4A66726  18.252  13.655   7.350
 8553POPC   C1B66727  18.282  13.366   6.450
 8553POPC   C2B66728  18.289  13.342   6.750
 8553POPC   C3B66729  18.263  13.339   7.050
 8553POPC   C4B66730  18.275  13.405   7.350
 8554POPC   NC366731  12.066   7.437   5.550
 8554POPC   PO466732  12.072   7.462   5.850
 8554POPC   GL166733  12.116   7.371   6.150
 8554POPC   GL266734  12.014   7.331   6.150
 8554POPC   C1A66735  12.031   7.399   6.450
 8554POPC   D2A66736  12.110   7.435   6.750
 8554POPC   C3A66737  12.040   7.384   7.050
 8554POPC   C4A66738  12.049   7.420   7.350
 8554POPC   C1B66739  11.866   7.261   6.450
 8554POPC   C2B66740  11.889   7.243   6.750
 8554POPC   C3B66741  11.914   7.285   7.050
 8554POPC   C4B66742  11.871   7.220   7.350
 8555POPC   NC366743  18.327  22.198   5.550
 8555POPC   PO466744  18.316  22.124   5.850
 8555POPC   GL166745  18.233  22.148   6.150
 8555POPC   GL266746  18.251  22.239   6.150
 8555POPC   C1A66747  18.269  22.183   6.450
 8555POPC   D2A66748  18.239  22.131   6.750
 8555POPC   C3A66749  18.248  22.159   7.050
 8555POPC   C4A66750  18.247  22.129   7.350
 8555POPC   C1B66751  18.157  22.364   6.450
 8555POPC   C2B66752  18.118  22.342   6.750
 8555POPC   C3B66753  18.133  22.351   7.050
 8555POPC   C4B66754  18.112  22.338   7.350
 8556POPC   NC366755  29.188  33.023   5.550
 8556POPC   PO466756  29.136  33.072   5.850
 8556POPC   GL166757  29.165  33.070   6.150
 8556POPC   GL266758  29.015  33.008   6.150
 8556POPC   C1A66759  29.112  33.001   6.450
 8556POPC   D2A66760  29.188  32.992   6.750
 8556POPC   C3A66761  29.096  33.054   7.050
 8556POPC   C4A66762  29.164  33.024   7.350
 8556POPC   C1B66763  28.895  33.064   6.450
 8556POPC   C2B66764  28.941  33.019   6.750
 8556POPC   C3B66765  28.923  33.092   7.050
 8556POPC   C4B66766  28.941  33.022   7.350
 8557POPC   NC366767  10.529   5.876   5.550
 8557POPC   PO466768  10.489   5.917   5.850
 8557POPC   GL166769  10.494   5.908   6.150
 8557POPC   GL266770  10.370   5.885   6.150
 8557POPC   C1A66771  10.568   5.883   6.450
 8557POPC   D2A66772  10.485   5.843   6.750
 8557POPC   C3A66773  10.539   5.829   7.050
 8557POPC   C4A66774  10.480   5.893   7.350
 8557POPC   C1B66775  10.232   5.903   6.450
 8557POPC   C2B66776  10.290   5.850   6.750
 8557POPC   C3B66777  10.229   5.898   7.050
 8557POPC   C4B66778  10.267   5.918   7.350
 8558POPC   NC366779  28.351   5.889   5.550
 8558POPC   PO466780  28.346   5.855   5.850
 8558POPC   GL166781  28.401   5.850   6.150
 8558POPC   GL266782  28.246   5.961   6.150
 8558POPC   C1A66783  28.401   5.843   6.450
 8558POPC   D2A66784  28.325   5.828   6.750
 8558POPC   C3A66785  28.349   5.883   7.050
 8558POPC   C4A66786  28.330   5.878   7.350
 8558POPC   C1B66787  28.124   6.007   6.450
 8558POPC   C2B66788  28.196   5.999   6.750
 8558POPC   C3B66789  28.139   6.002   7.050
 8558POPC   C4B66790  28.202   5.982   7.350
 8559POPC   NC366791   2.775  18.317   5.550
 8559POPC   PO466792   2.762  18.270   5.850
 8559POPC   GL166793   2.717  18.242   6.150
 8559POPC   GL266794   2.849  18.331   6.150
 8559POPC   C1A66795   2.777  18.234   6.450
 8559POPC   D2A66796   2.799  18.238   6.750
 8559POPC   C3A66797   2.753  18.283   7.050
 8559POPC   C4A66798   2.724  18.308   7.350
 8559POPC   C1B66799   2.955  18.378   6.450
 8559POPC   C2B66800   2.955  18.357   6.750
 8559POPC   C3B66801   2.943  18.450   7.050
 8559POPC   C4B66802   2.955  18.371   7.350
 8560POPC   NC366803  43.875  43.153   5.550
 8560POPC   PO466804  43.854  43.126   5.850
 8560POPC   GL166805  43.923  43.070   6.150
 8560POPC   GL266806  43.819  43.246   6.150
 8560POPC   C1A66807  43.923  43.077   6.450
 8560POPC   D2A66808  43.839  43.098   6.750
 8560POPC   C3A66809  43.839  43.090   7.050
 8560POPC   C4A66810  43.875  43.102   7.350
 8560POPC   C1B66811  43.731  43.286   6.450
 8560POPC   C2B66812  43.705  43.324   6.750
 8560POPC   C3B66813  43.744  43.337   7.050
 8560POPC   C4B66814  43.703  43.332   7.350
 8561POPC   NC366815   4.268   2.006   5.550
 8561POPC   PO466816   4.338   1.941   5.850
 8561POPC   GL166817   4.297   1.945   6.150
 8561POPC   GL266818   4.306   1.916   6.150
 8561POPC   C1A66819   4.339   1.998   6.450
 8561POPC   D2A66820   4.353   1.964   6.750
 8561POPC   C3A66821   4.364   2.008   7.050
 8561POPC   C4A66822   4.282   2.038   7.350
 8561POPC   C1B66823   4.215   1.751   6.450
 8561POPC   C2B66824   4.307   1.766   6.750
 8561POPC   C3B66825   4.245   1.717   7.050
 8561POPC   C4B66826   4.249   1.794   7.350
 8562POPC   NC366827  37.728  36.866   5.550
 8562POPC   PO466828  37.669  36.946   5.850
 8562POPC   GL166829  37.719  36.932   6.150
 8562POPC   GL266830  37.632  36.986   6.150
 8562POPC   C1A66831  37.698  36.920   6.450
 8562POPC   D2A66832  37.672  36.892   6.750
 8562POPC   C3A66833  37.640  36.854   7.050
 8562POPC   C4A66834  37.673  36.889   7.350
 8562POPC   C1B66835  37.697  37.179   6.450
 8562POPC   C2B66836  37.654  37.108   6.750
 8562POPC   C3B66837  37.629  37.198   7.050
 8562POPC   C4B66838  37.656  37.164   7.350
 8563POPC   NC366839  11.325  40.745   5.550
 8563POPC   PO466840  11.338  40.795   5.850
 8563POPC   GL166841  11.338  40.832   6.150
 8563POPC   GL266842  11.221  40.738   6.150
 8563POPC   C1A66843  11.346  40.749   6.450
 8563POPC   D2A66844  11.308  40.807   6.750
 8563POPC   C3A66845  11.252  40.758   7.050
 8563POPC   C4A66846  11.290  40.806   7.350
 8563POPC   C1B66847  11.093  40.662   6.450
 8563POPC   C2B66848  11.068  40.647   6.750
 8563POPC   C3B66849  11.109  40.641   7.050
 8563POPC   C4B66850  11.113  40.725   7.350
 8564POPC   NC366851  43.141  15.969   5.550
 8564POPC   PO466852  43.087  15.929   5.850
 8564POPC   GL166853  43.096  15.939   6.150
 8564POPC   GL266854  42.989  15.846   6.150
 8564POPC   C1A66855  43.108  15.985   6.450
 8564POPC   D2A66856  43.102  15.906   6.750
 8564POPC   C3A66857  43.138  15.988   7.050
 8564POPC   C4A66858  43.150  15.992   7.350
 8564POPC   C1B66859  42.939  15.727   6.450
 8564POPC   C2B66860  42.956  15.790   6.750
 8564POPC   C3B66861  42.953  15.723   7.050
 8564POPC   C4B66862  42.916  15.753   7.350
 8565POPC   NC366863  15.988   8.936   5.550
 8565POPC   PO466864  15.975   8.982   5.850
 8565POPC   GL166865  15.941   8.924   6.150
 8565POPC   GL266866  15.794   8.986   6.150
 8565POPC   C1A66867  15.932   8.948   6.450
 8565POPC   D2A66868  15.970   9.012   6.750
 8565POPC   C3A66869  15.911   8.994   7.050
 8565POPC   C4A66870  15.929   8.926   7.350
 8565POPC   C1B66871  15.715   8.905   6.450
 8565POPC   C2B66872  15.704   8.958   6.750
 8565POPC   C3B66873  15.716   8.872   7.050
 8565POPC   C4B66874  15.681   8.964   7.350
 8566POPC   NC366875  40.736  26.817   5.550
 8566POPC   PO466876  40.753  26.829   5.850
 8566POPC   GL166877  40.743  26.795   6.150
 8566POPC   GL266878  40.676  26.951   6.150
 8566POPC   C1A66879  40.804  26.795   6.450
 8566POPC   D2A66880  40.815  26.815   6.750
 8566POPC   C3A66881  40.789  26.782   7.050
 8566POPC   C4A66882  40.819  26.805   7.350
 8566POPC   C1B66883  40.610  27.020   6.450
 8566POPC   C2B66884  40.653  27.023   6.750
 8566POPC   C3B66885  40.617  26.950   7.050
 8566POPC   C4B66886  40.606  26.951   7.350
 8567POPC   NC366887   8.935  23.718   5.550
 8567POPC   PO466888   8.992  23.737   5.850
 8567POPC   GL166889   8.954  23.739   6.150
 8567POPC   GL266890   9.119  23.795   6.150
 8567POPC   C1A66891   8.963  23.757   6.450
 8567POPC   D2A66892   8.980  23.714   6.750
 8567POPC   C3A66893   8.940  23.741   7.050
 8567POPC   C4A66894   8.982  23.732   7.350
 8567POPC   C1B66895   9.174  23.785   6.450
 8567POPC   C2B66896   9.229  23.774   6.750
 8567POPC   C3B66897   9.205  23.840   7.050
 8567POPC   C4B66898   9.158  23.850   7.350
 8568POPC   NC366899  11.278  22.951   5.550
 8568POPC   PO466900  11.276  22.931   5.850
 8568POPC   GL166901  11.324  22.909   6.150
 8568POPC   GL266902  11.416  22.904   6.150
 8568POPC   C1A66903  11.268  22.893   6.450
 8568POPC   D2A66904  11.340  22.939   6.750
 8568POPC   C3A66905  11.299  22.952   7.050
 8568POPC   C4A66906  11.279  22.938   7.350
 8568POPC   C1B66907  11.503  22.761   6.450
 8568POPC   C2B66908  11.520  22.759   6.750
 8568POPC   C3B66909  11.450  22.792   7.050
 8568POPC   C4B66910  11.468  22.782   7.350
 8569POPC   NC366911  29.145   5.871   5.550
 8569POPC   PO466912  29.163   5.907   5.850
 8569POPC   GL166913  29.169   5.912   6.150
 8569POPC   GL266914  29.229   5.998   6.150
 8569POPC   C1A66915  29.161   5.829   6.450
 8569POPC   D2A66916  29.157   5.864   6.750
 8569POPC   C3A66917  29.157   5.913   7.050
 8569POPC   C4A66918  29.113   5.917   7.350
 8569POPC   C1B66919  29.313   6.040   6.450
 8569POPC   C2B66920  29.319   6.049   6.750
 8569POPC   C3B66921  29.326   6.025   7.050
 8569POPC   C4B66922  29.253   6.069   7.350
 8570POPC   NC366923  23.726   5.085   5.550
 8570POPC   PO466924  23.718   5.051   5.850
 8570POPC   GL166925  23.691   5.046   6.150
 8570POPC   GL266926  23.579   5.078   6.150
 8570POPC   C1A66927  23.727   5.141   6.450
 8570POPC   D2A66928  23.722   5.044   6.750
 8570POPC   C3A66929  23.684   5.120   7.050
 8570POPC   C4A66930  23.727   5.064   7.350
 8570POPC   C1B66931  23.519   5.017   6.450
 8570POPC   C2B66932  23.429   5.067   6.750
 8570POPC   C3B66933  23.513   5.008   7.050
 8570POPC   C4B66934  23.436   4.983   7.350
 8571POPC   NC366935  15.943   6.649   5.550
 8571POPC   PO466936  15.988   6.623   5.850
 8571POPC   GL166937  15.994   6.627   6.150
 8571POPC   GL266938  15.984   6.766   6.150
 8571POPC   C1A66939  15.955   6.679   6.450
 8571POPC   D2A66940  16.003   6.693   6.750
 8571POPC   C3A66941  15.956   6.689   7.050
 8571POPC   C4A66942  16.004   6.624   7.350
 8571POPC   C1B66943  16.078   6.909   6.450
 8571POPC   C2B66944  16.037   6.864   6.750
 8571POPC   C3B66945  16.051   6.879   7.050
 8571POPC   C4B66946  16.042   6.851   7.350
 8572POPC   NC366947  29.879  43.087   5.550
 8572POPC   PO466948  29.952  43.141   5.850
 8572POPC   GL166949  29.882  43.097   6.150
 8572POPC   GL266950  29.865  43.243   6.150
 8572POPC   C1A66951  29.963  43.096   6.450
 8572POPC   D2A66952  29.901  43.150   6.750
 8572POPC   C3A66953  29.894  43.097   7.050
 8572POPC   C4A66954  29.900  43.107   7.350
 8572POPC   C1B66955  29.870  43.381   6.450
 8572POPC   C2B66956  29.876  43.404   6.750
 8572POPC   C3B66957  29.886  43.389   7.050
 8572POPC   C4B66958  29.838  43.388   7.350
 8573POPC   NC366959  39.261  12.854   5.550
 8573POPC   PO466960  39.211  12.877   5.850
 8573POPC   GL166961  39.228  12.837   6.150
 8573POPC   GL266962  39.388  12.843   6.150
 8573POPC   C1A66963  39.225  12.860   6.450
 8573POPC   D2A66964  39.224  12.877   6.750
 8573POPC   C3A66965  39.222  12.878   7.050
 8573POPC   C4A66966  39.199  12.879   7.350
 8573POPC   C1B66967  39.429  12.742   6.450
 8573POPC   C2B66968  39.409  12.784   6.750
 8573POPC   C3B66969  39.470  12.760   7.050
 8573POPC   C4B66970  39.437  12.706   7.350
 8574POPC   NC366971  30.665  10.545   5.550
 8574POPC   PO466972  30.679  10.504   5.850
 8574POPC   GL166973  30.694  10.481   6.150
 8574POPC   GL266974  30.646  10.436   6.150
 8574POPC   C1A66975  30.680  10.570   6.450
 8574POPC   D2A66976  30.737  10.498   6.750
 8574POPC   C3A66977  30.702  10.560   7.050
 8574POPC   C4A66978  30.661  10.539   7.350
 8574POPC   C1B66979  30.545  10.263   6.450
 8574POPC   C2B66980  30.622  10.344   6.750
 8574POPC   C3B66981  30.618  10.276   7.050
 8574POPC   C4B66982  30.621  10.268   7.350
 8575POPC   NC366983  33.762  43.110   5.550
 8575POPC   PO466984  33.837  43.068   5.850
 8575POPC   GL166985  33.839  43.076   6.150
 8575POPC   GL266986  33.667  43.070   6.150
 8575POPC   C1A66987  33.755  43.135   6.450
 8575POPC   D2A66988  33.806  43.088   6.750
 8575POPC   C3A66989  33.780  43.146   7.050
 8575POPC   C4A66990  33.807  43.137   7.350
 8575POPC   C1B66991  33.578  42.957   6.450
 8575POPC   C2B66992  33.613  42.992   6.750
 8575POPC   C3B66993  33.538  42.944   7.050
 8575POPC   C4B66994  33.548  42.955   7.350
 8576POPC   NC366995  43.888  31.519   5.550
 8576POPC   PO466996  43.848  31.484   5.850
 8576POPC   GL166997  43.922  31.475   6.150
 8576POPC   GL266998  43.786  31.587   6.150
 8576POPC   C1A66999  43.934  31.522   6.450
 8576POPC   D2A67000  43.932  31.451   6.750
 8576POPC   C3A67001  43.852  31.424   7.050
 8576POPC   C4A67002  43.890  31.514   7.350
 8576POPC   C1B67003  43.721  31.726   6.450
 8576POPC   C2B67004  43.781  31.634   6.750
 8576POPC   C3B67005  43.743  31.709   7.050
 8576POPC   C4B67006  43.766  31.688   7.350
 8577POPC   NC367007  24.507  14.409   5.550
 8577POPC   PO467008  24.493  14.391   5.850
 8577POPC   GL167009  24.454  14.368   6.150
 8577POPC   GL267010  24.412  14.463   6.150
 8577POPC   C1A67011  24.461  14.366   6.450
 8577POPC   D2A67012  24.489  14.378   6.750
 8577POPC   C3A67013  24.519  14.407   7.050
 8577POPC   C4A67014  24.525  14.371   7.350
 8577POPC   C1B67015  24.214  14.443   6.450
 8577POPC   C2B67016  24.289  14.394   6.750
 8577POPC   C3B67017  24.245  14.461   7.050
 8577POPC   C4B67018  24.242  14.467   7.350
 8578POPC   NC367019  16.004   4.359   5.550
 8578POPC   PO467020  15.939   4.350   5.850
 8578POPC   GL167021  15.946   4.360   6.150
 8578POPC   GL267022  16.101   4.395   6.150
 8578POPC   C1A67023  15.975   4.290   6.450
 8578POPC   D2A67024  15.990   4.318   6.750
 8578POPC   C3A67025  15.910   4.318   7.050
 8578POPC   C4A67026  15.906   4.356   7.350
 8578POPC   C1B67027  16.218   4.464   6.450
 8578POPC   C2B67028  16.187   4.390   6.750
 8578POPC   C3B67029  16.128   4.406   7.050
 8578POPC   C4B67030  16.196   4.484   7.350
 8579POPC   NC367031  14.411   0.393   5.550
 8579POPC   PO467032  14.394   0.479   5.850
 8579POPC   GL167033  14.389   0.460   6.150
 8579POPC   GL267034  14.456   0.403   6.150
 8579POPC   C1A67035  14.371   0.457   6.450
 8579POPC   D2A67036  14.411   0.479   6.750
 8579POPC   C3A67037  14.372   0.397   7.050
 8579POPC   C4A67038  14.375   0.433   7.350
 8579POPC   C1B67039  14.563   0.321   6.450
 8579POPC   C2B67040  14.575   0.304   6.750
 8579POPC   C3B67041  14.638   0.240   7.050
 8579POPC   C4B67042  14.572   0.275   7.350
 8580POPC   NC367043  28.355  44.685   5.550
 8580POPC   PO467044  28.345  44.647   5.850
 8580POPC   GL167045  28.374  44.711   6.150
 8580POPC   GL267046  28.388  44.518   6.150
 8580POPC   C1A67047  28.377  44.694   6.450
 8580POPC   D2A67048  28.358  44.668   6.750
 8580POPC   C3A67049  28.349  44.707   7.050
 8580POPC   C4A67050  28.407  44.668   7.350
 8580POPC   C1B67051  28.466  44.441   6.450
 8580POPC   C2B67052  28.426  44.445   6.750
 8580POPC   C3B67053  28.462  44.449   7.050
 8580POPC   C4B67054  28.409  44.410   7.350
 8581POPC   NC367055  23.738   7.382   5.550
 8581POPC   PO467056  23.759   7.377   5.850
 8581POPC   GL167057  23.693   7.463   6.150
 8581POPC   GL267058  23.736   7.289   6.150
 8581POPC   C1A67059  23.718   7.457   6.450
 8581POPC   D2A67060  23.748   7.456   6.750
 8581POPC   C3A67061  23.691   7.431   7.050
 8581POPC   C4A67062  23.696   7.462   7.350
 8581POPC   C1B67063  23.743   7.156   6.450
 8581POPC   C2B67064  23.774   7.143   6.750
 8581POPC   C3B67065  23.776   7.134   7.050
 8581POPC   C4B67066  23.812   7.169   7.350
 8582POPC   NC367067  12.857  22.193   5.550
 8582POPC   PO467068  12.849  22.187   5.850
 8582POPC   GL167069  12.864  22.200   6.150
 8582POPC   GL267070  12.735  22.202   6.150
 8582POPC   C1A67071  12.886  22.187   6.450
 8582POPC   D2A67072  12.842  22.149   6.750
 8582POPC   C3A67073  12.809  22.160   7.050
 8582POPC   C4A67074  12.887  22.141   7.350
 8582POPC   C1B67075  12.587  22.154   6.450
 8582POPC   C2B67076  12.569  22.131   6.750
 8582POPC   C3B67077  12.572  22.151   7.050
 8582POPC   C4B67078  12.624  22.174   7.350
 8583POPC   NC367079  33.787  38.446   5.550
 8583POPC   PO467080  33.837  38.478   5.850
 8583POPC   GL167081  33.801  38.418   6.150
 8583POPC   GL267082  33.880  38.444   6.150
 8583POPC   C1A67083  33.777  38.428   6.450
 8583POPC   D2A67084  33.806  38.430   6.750
 8583POPC   C3A67085  33.757  38.490   7.050
 8583POPC   C4A67086  33.846  38.469   7.350
 8583POPC   C1B67087  34.058  38.426   6.450
 8583POPC   C2B67088  34.061  38.464   6.750
 8583POPC   C3B67089  34.089  38.450   7.050
 8583POPC   C4B67090  34.041  38.486   7.350
 8584POPC   NC367091  12.030  23.713   5.550
 8584POPC   PO467092  12.076  23.735   5.850
 8584POPC   GL167093  12.031  23.701   6.150
 8584POPC   GL267094  12.190  23.762   6.150
 8584POPC   C1A67095  12.037  23.680   6.450
 8584POPC   D2A67096  12.086  23.679   6.750
 8584POPC   C3A67097  12.073  23.744   7.050
 8584POPC   C4A67098  12.055  23.739   7.350
 8584POPC   C1B67099  12.346  23.795   6.450
 8584POPC   C2B67100  12.306  23.708   6.750
 8584POPC   C3B67101  12.335  23.780   7.050
 8584POPC   C4B67102  12.355  23.735   7.350
 8585POPC   NC367103  38.440  31.510   5.550
 8585POPC   PO467104  38.447  31.447   5.850
 8585POPC   GL167105  38.460  31.491   6.150
 8585POPC   GL267106  38.435  31.327   6.150
 8585POPC   C1A67107  38.441  31.505   6.450
 8585POPC   D2A67108  38.456  31.480   6.750
 8585POPC   C3A67109  38.482  31.470   7.050
 8585POPC   C4A67110  38.424  31.489   7.350
 8585POPC   C1B67111  38.334  31.245   6.450
 8585POPC   C2B67112  38.321  31.203   6.750
 8585POPC   C3B67113  38.402  31.255   7.050
 8585POPC   C4B67114  38.372  31.224   7.350
 8586POPC   NC367115  15.970  24.518   5.550
 8586POPC   PO467116  15.933  24.450   5.850
 8586POPC   GL167117  15.989  24.492   6.150
 8586POPC   GL267118  15.868  24.556   6.150
 8586POPC   C1A67119  15.906  24.512   6.450
 8586POPC   D2A67120  15.977  24.535   6.750
 8586POPC   C3A67121  15.916  24.508   7.050
 8586POPC   C4A67122  15.910  24.456   7.350
 8586POPC   C1B67123  15.894  24.770   6.450
 8586POPC   C2B67124  15.911  24.762   6.750
 8586POPC   C3B67125  15.901  24.700   7.050
 8586POPC   C4B67126  15.858  24.728   7.350
 8587POPC   NC367127   1.975   5.098   5.550
 8587POPC   PO467128   1.955   5.045   5.850
 8587POPC   GL167129   1.958   5.069   6.150
 8587POPC   GL267130   1.855   5.109   6.150
 8587POPC   C1A67131   1.989   5.143   6.450
 8587POPC   D2A67132   1.940   5.083   6.750
 8587POPC   C3A67133   1.947   5.139   7.050
 8587POPC   C4A67134   1.990   5.067   7.350
 8587POPC   C1B67135   1.735   5.099   6.450
 8587POPC   C2B67136   1.707   5.070   6.750
 8587POPC   C3B67137   1.774   5.089   7.050
 8587POPC   C4B67138   1.711   5.124   7.350
 8588POPC   NC367139  29.134  13.605   5.550
 8588POPC   PO467140  29.099  13.627   5.850
 8588POPC   GL167141  29.127  13.587   6.150
 8588POPC   GL267142  29.024  13.630   6.150
 8588POPC   C1A67143  29.139  13.664   6.450
 8588POPC   D2A67144  29.175  13.612   6.750
 8588POPC   C3A67145  29.178  13.640   7.050
 8588POPC   C4A67146  29.157  13.589   7.350
 8588POPC   C1B67147  28.902  13.515   6.450
 8588POPC   C2B67148  28.871  13.559   6.750
 8588POPC   C3B67149  28.860  13.593   7.050
 8588POPC   C4B67150  28.888  13.554   7.350
 8589POPC   NC367151   7.452  21.368   5.550
 8589POPC   PO467152   7.444  21.376   5.850
 8589POPC   GL167153   7.388  21.345   6.150
 8589POPC   GL267154   7.410  21.302   6.150
 8589POPC   C1A67155   7.373  21.403   6.450
 8589POPC   D2A67156   7.458  21.431   6.750
 8589POPC   C3A67157   7.416  21.431   7.050
 8589POPC   C4A67158   7.446  21.429   7.350
 8589POPC   C1B67159   7.489  21.147   6.450
 8589POPC   C2B67160   7.484  21.160   6.750
 8589POPC   C3B67161   7.478  21.102   7.050
 8589POPC   C4B67162   7.401  21.176   7.350
 8590POPC   NC367163  15.913  34.585   5.550
 8590POPC   PO467164  15.964  34.592   5.850
 8590POPC   GL167165  15.959  34.574   6.150
 8590POPC   GL267166  15.795  34.594   6.150
 8590POPC   C1A67167  16.003  34.611   6.450
 8590POPC   D2A67168  15.911  34.559   6.750
 8590POPC   C3A67169  15.943  34.587   7.050
 8590POPC   C4A67170  15.909  34.582   7.350
 8590POPC   C1B67171  15.703  34.586   6.450
 8590POPC   C2B67172  15.711  34.567   6.750
 8590POPC   C3B67173  15.741  34.566   7.050
 8590POPC   C4B67174  15.753  34.568   7.350
 8591POPC   NC367175   3.497  39.201   5.550
 8591POPC   PO467176   3.581  39.231   5.850
 8591POPC   GL167177   3.557  39.244   6.150
 8591POPC   GL267178   3.642  39.245   6.150
 8591POPC   C1A67179   3.498  39.253   6.450
 8591POPC   D2A67180   3.569  39.209   6.750
 8591POPC   C3A67181   3.581  39.199   7.050
 8591POPC   C4A67182   3.525  39.182   7.350
 8591POPC   C1B67183   3.829  39.168   6.450
 8591POPC   C2B67184   3.825  39.200   6.750
 8591POPC   C3B67185   3.823  39.165   7.050
 8591POPC   C4B67186   3.750  39.153   7.350
 8592POPC   NC367187  35.377   8.925   5.550
 8592POPC   PO467188  35.308   8.990   5.850
 8592POPC   GL167189  35.395   8.959   6.150
 8592POPC   GL267190  35.227   8.876   6.150
 8592POPC   C1A67191  35.375   8.965   6.450
 8592POPC   D2A67192  35.319   8.978   6.750
 8592POPC   C3A67193  35.310   8.964   7.050
 8592POPC   C4A67194  35.393   9.005   7.350
 8592POPC   C1B67195  35.193   8.735   6.450
 8592POPC   C2B67196  35.231   8.827   6.750
 8592POPC   C3B67197  35.220   8.757   7.050
 8592POPC   C4B67198  35.235   8.775   7.350
 8593POPC   NC367199   0.459  32.246   5.550
 8593POPC   PO467200   0.480  32.229   5.850
 8593POPC   GL167201   0.391  32.287   6.150
 8593POPC   GL267202   0.494  32.359   6.150
 8593POPC   C1A67203   0.477  32.270   6.450
 8593POPC   D2A67204   0.453  32.267   6.750
 8593POPC   C3A67205   0.433  32.206   7.050
 8593POPC   C4A67206   0.432  32.260   7.350
 8593POPC   C1B67207   0.610  32.440   6.450
 8593POPC   C2B67208   0.614  32.437   6.750
 8593POPC   C3B67209   0.545  32.455   7.050
 8593POPC   C4B67210   0.613  32.495   7.350
 8594POPC   NC367211  17.527  34.557   5.550
 8594POPC   PO467212  17.490  34.555   5.850
 8594POPC   GL167213  17.469  34.584   6.150
 8594POPC   GL267214  17.481  34.717   6.150
 8594POPC   C1A67215  17.466  34.546   6.450
 8594POPC   D2A67216  17.474  34.534   6.750
 8594POPC   C3A67217  17.513  34.554   7.050
 8594POPC   C4A67218  17.553  34.625   7.350
 8594POPC   C1B67219  17.573  34.864   6.450
 8594POPC   C2B67220  17.510  34.775   6.750
 8594POPC   C3B67221  17.500  34.842   7.050
 8594POPC   C4B67222  17.514  34.829   7.350
 8595POPC   NC367223  10.531   8.242   5.550
 8595POPC   PO467224  10.495   8.225   5.850
 8595POPC   GL167225  10.475   8.220   6.150
 8595POPC   GL267226  10.660   8.200   6.150
 8595POPC   C1A67227  10.476   8.174   6.450
 8595POPC   D2A67228  10.558   8.242   6.750
 8595POPC   C3A67229  10.492   8.194   7.050
 8595POPC   C4A67230  10.510   8.176   7.350
 8595POPC   C1B67231  10.741   8.206   6.450
 8595POPC   C2B67232  10.817   8.214   6.750
 8595POPC   C3B67233  10.764   8.180   7.050
 8595POPC   C4B67234  10.795   8.227   7.350
 8596POPC   NC367235  29.102  36.927   5.550
 8596POPC   PO467236  29.117  36.884   5.850
 8596POPC   GL167237  29.190  36.949   6.150
 8596POPC   GL267238  29.297  36.818   6.150
 8596POPC   C1A67239  29.153  36.915   6.450
 8596POPC   D2A67240  29.123  36.943   6.750
 8596POPC   C3A67241  29.125  36.898   7.050
 8596POPC   C4A67242  29.190  36.923   7.350
 8596POPC   C1B67243  29.332  36.744   6.450
 8596POPC   C2B67244  29.366  36.810   6.750
 8596POPC   C3B67245  29.374  36.745   7.050
 8596POPC   C4B67246  29.388  36.773   7.350
 8597POPC   NC367247   4.269  39.182   5.550
 8597POPC   PO467248   4.308  39.267   5.850
 8597POPC   GL167249   4.272  39.202   6.150
 8597POPC   GL267250   4.402  39.299   6.150
 8597POPC   C1A67251   4.276  39.251   6.450
 8597POPC   D2A67252   4.364  39.243   6.750
 8597POPC   C3A67253   4.281  39.280   7.050
 8597POPC   C4A67254   4.329  39.209   7.350
 8597POPC   C1B67255   4.452  39.473   6.450
 8597POPC   C2B67256   4.387  39.424   6.750
 8597POPC   C3B67257   4.430  39.438   7.050
 8597POPC   C4B67258   4.440  39.442   7.350
 8598POPC   NC367259   7.437  25.287   5.550
 8598POPC   PO467260   7.401  25.311   5.850
 8598POPC   GL167261   7.444  25.283   6.150
 8598POPC   GL267262   7.257  25.221   6.150
 8598POPC   C1A67263   7.401  25.241   6.450
 8598POPC   D2A67264   7.373  25.282   6.750
 8598POPC   C3A67265   7.406  25.310   7.050
 8598POPC   C4A67266   7.375  25.298   7.350
 8598POPC   C1B67267   7.162  25.227   6.450
 8598POPC   C2B67268   7.220  25.250   6.750
 8598POPC   C3B67269   7.144  25.206   7.050
 8598POPC   C4B67270   7.169  25.269   7.350
 8599POPC   NC367271   5.841  16.696   5.550
 8599POPC   PO467272   5.837  16.729   5.850
 8599POPC   GL167273   5.880  16.773   6.150
 8599POPC   GL267274   5.990  16.732   6.150
 8599POPC   C1A67275   5.864  16.715   6.450
 8599POPC   D2A67276   5.839  16.723   6.750
 8599POPC   C3A67277   5.917  16.705   7.050
 8599POPC   C4A67278   5.873  16.701   7.350
 8599POPC   C1B67279   6.159  16.770   6.450
 8599POPC   C2B67280   6.067  16.778   6.750
 8599POPC   C3B67281   6.094  16.829   7.050
 8599POPC   C4B67282   6.098  16.785   7.350
 8600POPC   NC367283  32.204  27.596   5.550
 8600POPC   PO467284  32.254  27.551   5.850
 8600POPC   GL167285  32.268  27.569   6.150
 8600POPC   GL267286  32.317  27.682   6.150
 8600POPC   C1A67287  32.285  27.616   6.450
 8600POPC   D2A67288  32.283  27.586   6.750
 8600POPC   C3A67289  32.259  27.606   7.050
 8600POPC   C4A67290  32.207  27.600   7.350
 8600POPC   C1B67291  32.469  27.787   6.450
 8600POPC   C2B67292  32.406  27.806   6.750
 8600POPC   C3B67293  32.449  27.737   7.050
 8600POPC   C4B67294  32.435  27.812   7.350
 8601POPC   NC367295   3.522  13.641   5.550
 8601POPC   PO467296   3.515  13.654   5.850
 8601POPC   GL167297   3.558  13.644   6.150
 8601POPC   GL267298   3.611  13.691   6.150
 8601POPC   C1A67299   3.555  13.619   6.450
 8601POPC   D2A67300   3.513  13.659   6.750
 8601POPC   C3A67301   3.562  13.678   7.050
 8601POPC   C4A67302   3.586  13.646   7.350
 8601POPC   C1B67303   3.807  13.761   6.450
 8601POPC   C2B67304   3.795  13.756   6.750
 8601POPC   C3B67305   3.793  13.702   7.050
 8601POPC   C4B67306   3.764  13.725   7.350
 8602POPC   NC367307   7.392  37.693   5.550
 8602POPC   PO467308   7.445  37.725   5.850
 8602POPC   GL167309   7.408  37.665   6.150
 8602POPC   GL267310   7.556  37.730   6.150
 8602POPC   C1A67311   7.406  37.644   6.450
 8602POPC   D2A67312   7.388  37.653   6.750
 8602POPC   C3A67313   7.430  37.634   7.050
 8602POPC   C4A67314   7.438  37.663   7.350
 8602POPC   C1B67315   7.643  37.861   6.450
 8602POPC   C2B67316   7.589  37.828   6.750
 8602POPC   C3B67317   7.647  37.821   7.050
 8602POPC   C4B67318   7.604  37.798   7.350
 8603POPC   NC367319   7.403  23.740   5.550
 8603POPC   PO467320   7.463  23.758   5.850
 8603POPC   GL167321   7.397  23.681   6.150
 8603POPC   GL267322   7.345  23.780   6.150
 8603POPC   C1A67323   7.396  23.707   6.450
 8603POPC   D2A67324   7.416  23.702   6.750
 8603POPC   C3A67325   7.382  23.758   7.050
 8603POPC   C4A67326   7.400  23.726   7.350
 8603POPC   C1B67327   7.140  23.770   6.450
 8603POPC   C2B67328   7.180  23.760   6.750
 8603POPC   C3B67329   7.158  23.783   7.050
 8603POPC   C4B67330   7.144  23.792   7.350
 8604POPC   NC367331  40.754  43.151   5.550
 8604POPC   PO467332  40.776  43.072   5.850
 8604POPC   GL167333  40.780  43.106   6.150
 8604POPC   GL267334  40.824  43.253   6.150
 8604POPC   C1A67335  40.773  43.123   6.450
 8604POPC   D2A67336  40.755  43.076   6.750
 8604POPC   C3A67337  40.823  43.103   7.050
 8604POPC   C4A67338  40.750  43.150   7.350
 8604POPC   C1B67339  40.911  43.312   6.450
 8604POPC   C2B67340  40.901  43.329   6.750
 8604POPC   C3B67341  40.892  43.315   7.050
 8604POPC   C4B67342  40.958  43.278   7.350
 8605POPC   NC367343  43.114  40.807   5.550
 8605POPC   PO467344  43.106  40.785   5.850
 8605POPC   GL167345  43.100  40.750   6.150
 8605POPC   GL267346  42.970  40.784   6.150
 8605POPC   C1A67347  43.074  40.755   6.450
 8605POPC   D2A67348  43.064  40.758   6.750
 8605POPC   C3A67349  43.118  40.812   7.050
 8605POPC   C4A67350  43.129  40.762   7.350
 8605POPC   C1B67351  42.848  40.686   6.450
 8605POPC   C2B67352  42.912  40.703   6.750
 8605POPC   C3B67353  42.911  40.678   7.050
 8605POPC   C4B67354  42.843  40.683   7.350
 8606POPC   NC367355  11.307  21.376   5.550
 8606POPC   PO467356  11.348  21.416   5.850
 8606POPC   GL167357  11.331  21.351   6.150
 8606POPC   GL267358  11.364  21.309   6.150
 8606POPC   C1A67359  11.280  21.434   6.450
 8606POPC   D2A67360  11.337  21.353   6.750
 8606POPC   C3A67361  11.271  21.436   7.050
 8606POPC   C4A67362  11.337  21.403   7.350
 8606POPC   C1B67363  11.413  21.201   6.450
 8606POPC   C2B67364  11.431  21.222   6.750
 8606POPC   C3B67365  11.431  21.170   7.050
 8606POPC   C4B67366  11.448  21.158   7.350
 8607POPC   NC367367  12.889  26.844   5.550
 8607POPC   PO467368  12.856  26.841   5.850
 8607POPC   GL167369  12.850  26.782   6.150
 8607POPC   GL267370  12.989  26.754   6.150
 8607POPC   C1A67371  12.849  26.864   6.450
 8607POPC   D2A67372  12.870  26.806   6.750
 8607POPC   C3A67373  12.901  26.837   7.050
 8607POPC   C4A67374  12.855  26.777   7.350
 8607POPC   C1B67375  13.057  26.740   6.450
 8607POPC   C2B67376  13.049  26.705   6.750
 8607POPC   C3B67377  13.093  26.734   7.050
 8607POPC   C4B67378  13.094  26.789   7.350
 8608POPC   NC367379  25.231   8.947   5.550
 8608POPC   PO467380  25.217   9.000   5.850
 8608POPC   GL167381  25.246   8.977   6.150
 8608POPC   GL267382  25.362   8.963   6.150
 8608POPC   C1A67383  25.266   8.964   6.450
 8608POPC   D2A67384  25.311   8.928   6.750
 8608POPC   C3A67385  25.300   9.003   7.050
 8608POPC   C4A67386  25.279   8.992   7.350
 8608POPC   C1B67387  25.494   8.905   6.450
 8608POPC   C2B67388  25.542   8.919   6.750
 8608POPC   C3B67389  25.485   8.902   7.050
 8608POPC   C4B67390  25.510   8.951   7.350
 8609POPC   NC367391  21.378  24.482   5.550
 8609POPC   PO467392  21.355  24.459   5.850
 8609POPC   GL167393  21.342  24.481   6.150
 8609POPC   GL267394  21.334  24.624   6.150
 8609POPC   C1A67395  21.371  24.526   6.450
 8609POPC   D2A67396  21.401  24.440   6.750
 8609POPC   C3A67397  21.401  24.466   7.050
 8609POPC   C4A67398  21.390  24.452   7.350
 8609POPC   C1B67399  21.283  24.749   6.450
 8609POPC   C2B67400  21.201  24.661   6.750
 8609POPC   C3B67401  21.296  24.657   7.050
 8609POPC   C4B67402  21.272  24.740   7.350
 8610POPC   NC367403  32.975   8.168   5.550
 8610POPC   PO467404  33.013   8.149   5.850
 8610POPC   GL167405  32.978   8.225   6.150
 8610POPC   GL267406  33.124   8.318   6.150
 8610POPC   C1A67407  33.019   8.171   6.450
 8610POPC   D2A67408  33.073   8.200   6.750
 8610POPC   C3A67409  33.015   8.231   7.050
 8610POPC   C4A67410  33.064   8.189   7.350
 8610POPC   C1B67411  33.135   8.383   6.450
 8610POPC   C2B67412  33.141   8.399   6.750
 8610POPC   C3B67413  33.200   8.358   7.050
 8610POPC   C4B67414  33.124   8.396   7.350
 8611POPC   NC367415   8.944  24.484   5.550
 8611POPC   PO467416   8.942  24.534   5.850
 8611POPC   GL167417   8.964  24.507   6.150
 8611POPC   GL267418   8.930  24.563   6.150
 8611POPC   C1A67419   8.953  24.490   6.450
 8611POPC   D2A67420   8.927  24.494   6.750
 8611POPC   C3A67421   8.991  24.484   7.050
 8611POPC   C4A67422   8.991  24.451   7.350
 8611POPC   C1B67423   8.832  24.644   6.450
 8611POPC   C2B67424   8.771  24.718   6.750
 8611POPC   C3B67425   8.849  24.652   7.050
 8611POPC   C4B67426   8.809  24.686   7.350
 8612POPC   NC367427  18.261  35.385   5.550
 8612POPC   PO467428  18.252  35.315   5.850
 8612POPC   GL167429  18.291  35.390   6.150
 8612POPC   GL267430  18.177  35.222   6.150
 8612POPC   C1A67431  18.261  35.306   6.450
 8612POPC   D2A67432  18.314  35.310   6.750
 8612POPC   C3A67433  18.303  35.346   7.050
 8612POPC   C4A67434  18.263  35.390   7.350
 8612POPC   C1B67435  18.112  35.175   6.450
 8612POPC   C2B67436  18.109  35.207   6.750
 8612POPC   C3B67437  18.091  35.196   7.050
 8612POPC   C4B67438  18.123  35.128   7.350
 8613POPC   NC367439  22.986  36.096   5.550
 8613POPC   PO467440  22.968  36.156   5.850
 8613POPC   GL167441  22.889  36.150   6.150
 8613POPC   GL267442  23.045  36.041   6.150
 8613POPC   C1A67443  22.922  36.080   6.450
 8613POPC   D2A67444  22.940  36.136   6.750
 8613POPC   C3A67445  22.980  36.164   7.050
 8613POPC   C4A67446  22.970  36.108   7.350
 8613POPC   C1B67447  23.062  35.914   6.450
 8613POPC   C2B67448  23.105  35.886   6.750
 8613POPC   C3B67449  23.046  35.876   7.050
 8613POPC   C4B67450  23.073  35.889   7.350
 8614POPC   NC367451  14.423   1.192   5.550
 8614POPC   PO467452  14.386   1.202   5.850
 8614POPC   GL167453  14.431   1.232   6.150
 8614POPC   GL267454  14.434   1.326   6.150
 8614POPC   C1A67455  14.416   1.254   6.450
 8614POPC   D2A67456  14.430   1.183   6.750
 8614POPC   C3A67457  14.367   1.189   7.050
 8614POPC   C4A67458  14.398   1.194   7.350
 8614POPC   C1B67459  14.563   1.446   6.450
 8614POPC   C2B67460  14.593   1.443   6.750
 8614POPC   C3B67461  14.537   1.438   7.050
 8614POPC   C4B67462  14.532   1.459   7.350
 8615POPC   NC367463  19.875  29.145   5.550
 8615POPC   PO467464  19.841  29.118   5.850
 8615POPC   GL167465  19.884  29.177   6.150
 8615POPC   GL267466  19.725  29.220   6.150
 8615POPC   C1A67467  19.882  29.175   6.450
 8615POPC   D2A67468  19.832  29.113   6.750
 8615POPC   C3A67469  19.859  29.184   7.050
 8615POPC   C4A67470  19.828  29.171   7.350
 8615POPC   C1B67471  19.618  29.308   6.450
 8615POPC   C2B67472  19.576  29.225   6.750
 8615POPC   C3B67473  19.623  29.242   7.050
 8615POPC   C4B67474  19.601  29.221   7.350
 8616POPC   NC367475  29.970   8.161   5.550
 8616POPC   PO467476  29.928   8.170   5.850
 8616POPC   GL167477  29.926   8.159   6.150
 8616POPC   GL267478  29.869   8.281   6.150
 8616POPC   C1A67479  29.918   8.155   6.450
 8616POPC   D2A67480  29.935   8.230   6.750
 8616POPC   C3A67481  29.963   8.161   7.050
 8616POPC   C4A67482  29.897   8.180   7.350
 8616POPC   C1B67483  29.876   8.462   6.450
 8616POPC   C2B67484  29.796   8.439   6.750
 8616POPC   C3B67485  29.835   8.444   7.050
 8616POPC   C4B67486  29.826   8.418   7.350
 8617POPC   NC367487  23.743  36.887   5.550
 8617POPC   PO467488  23.710  36.859   5.850
 8617POPC   GL167489  23.702  36.949   6.150
 8617POPC   GL267490  23.796  37.046   6.150
 8617POPC   C1A67491  23.750  36.876   6.450
 8617POPC   D2A67492  23.762  36.923   6.750
 8617POPC   C3A67493  23.682  36.924   7.050
 8617POPC   C4A67494  23.731  36.912   7.350
 8617POPC   C1B67495  23.762  37.149   6.450
 8617POPC   C2B67496  23.837  37.123   6.750
 8617POPC   C3B67497  23.778  37.137   7.050
 8617POPC   C4B67498  23.755  37.133   7.350
 8618POPC   NC367499  36.142  17.469   5.550
 8618POPC   PO467500  36.127  17.472   5.850
 8618POPC   GL167501  36.127  17.525   6.150
 8618POPC   GL267502  36.200  17.557   6.150
 8618POPC   C1A67503  36.078  17.550   6.450
 8618POPC   D2A67504  36.092  17.466   6.750
 8618POPC   C3A67505  36.144  17.478   7.050
 8618POPC   C4A67506  36.093  17.479   7.350
 8618POPC   C1B67507  36.339  17.661   6.450
 8618POPC   C2B67508  36.287  17.706   6.750
 8618POPC   C3B67509  36.369  17.631   7.050
 8618POPC   C4B67510  36.320  17.692   7.350
 8619POPC   NC367511  40.819  40.033   5.550
 8619POPC   PO467512  40.791  39.988   5.850
 8619POPC   GL167513  40.733  39.958   6.150
 8619POPC   GL267514  40.842  39.870   6.150
 8619POPC   C1A67515  40.777  40.010   6.450
 8619POPC   D2A67516  40.806  40.056   6.750
 8619POPC   C3A67517  40.779  39.967   7.050
 8619POPC   C4A67518  40.765  40.044   7.350
 8619POPC   C1B67519  40.955  39.804   6.450
 8619POPC   C2B67520  40.946  39.755   6.750
 8619POPC   C3B67521  40.968  39.772   7.050
 8619POPC   C4B67522  40.970  39.803   7.350
 8620POPC   NC367523  25.270  30.735   5.550
 8620POPC   PO467524  25.236  30.717   5.850
 8620POPC   GL167525  25.234  30.671   6.150
 8620POPC   GL267526  25.369  30.633   6.150
 8620POPC   C1A67527  25.249  30.746   6.450
 8620POPC   D2A67528  25.283  30.693   6.750
 8620POPC   C3A67529  25.265  30.719   7.050
 8620POPC   C4A67530  25.312  30.660   7.350
 8620POPC   C1B67531  25.551  30.644   6.450
 8620POPC   C2B67532  25.547  30.621   6.750
 8620POPC   C3B67533  25.560  30.665   7.050
 8620POPC   C4B67534  25.538  30.677   7.350
 8621POPC   NC367535  13.638  36.128   5.550
 8621POPC   PO467536  13.593  36.108   5.850
 8621POPC   GL167537  13.609  36.090   6.150
 8621POPC   GL267538  13.667  36.241   6.150
 8621POPC   C1A67539  13.676  36.157   6.450
 8621POPC   D2A67540  13.587  36.107   6.750
 8621POPC   C3A67541  13.606  36.084   7.050
 8621POPC   C4A67542  13.647  36.164   7.350
 8621POPC   C1B67543  13.701  36.368   6.450
 8621POPC   C2B67544  13.677  36.365   6.750
 8621POPC   C3B67545  13.726  36.373   7.050
 8621POPC   C4B67546  13.679  36.399   7.350
 8622POPC   NC367547  24.519  35.306   5.550
 8622POPC   PO467548  24.512  35.343   5.850
 8622POPC   GL167549  24.506  35.378   6.150
 8622POPC   GL267550  24.476  35.428   6.150
 8622POPC   C1A67551  24.512  35.337   6.450
 8622POPC   D2A67552  24.468  35.328   6.750
 8622POPC   C3A67553  24.503  35.338   7.050
 8622POPC   C4A67554  24.456  35.313   7.350
 8622POPC   C1B67555  24.598  35.602   6.450
 8622POPC   C2B67556  24.593  35.562   6.750
 8622POPC   C3B67557  24.531  35.612   7.050
 8622POPC   C4B67558  24.575  35.581   7.350
 8623POPC   NC367559  11.255  22.206   5.550
 8623POPC   PO467560  11.302  22.164   5.850
 8623POPC   GL167561  11.272  22.150   6.150
 8623POPC   GL267562  11.357  22.116   6.150
 8623POPC   C1A67563  11.347  22.157   6.450
 8623POPC   D2A67564  11.273  22.182   6.750
 8623POPC   C3A67565  11.313  22.140   7.050
 8623POPC   C4A67566  11.329  22.181   7.350
 8623POPC   C1B67567  11.545  22.032   6.450
 8623POPC   C2B67568  11.491  22.021   6.750
 8623POPC   C3B67569  11.536  21.980   7.050
 8623POPC   C4B67570  11.513  22.066   7.350
 8624POPC   NC367571   6.605  11.302   5.550
 8624POPC   PO467572   6.668  11.259   5.850
 8624POPC   GL167573   6.599  11.251   6.150
 8624POPC   GL267574   6.580  11.217   6.150
 8624POPC   C1A67575   6.653  11.289   6.450
 8624POPC   D2A67576   6.612  11.349   6.750
 8624POPC   C3A67577   6.658  11.346   7.050
 8624POPC   C4A67578   6.604  11.261   7.350
 8624POPC   C1B67579   6.584  11.096   6.450
 8624POPC   C2B67580   6.581  11.030   6.750
 8624POPC   C3B67581   6.609  11.052   7.050
 8624POPC   C4B67582   6.622  11.070   7.350
 8625POPC   NC367583  35.371  40.806   5.550
 8625POPC   PO467584  35.329  40.756   5.850
 8625POPC   GL167585  35.370  40.827   6.150
 8625POPC   GL267586  35.436  40.875   6.150
 8625POPC   C1A67587  35.345  40.820   6.450
 8625POPC   D2A67588  35.352  40.780   6.750
 8625POPC   C3A67589  35.357  40.740   7.050
 8625POPC   C4A67590  35.381  40.781   7.350
 8625POPC   C1B67591  35.578  40.992   6.450
 8625POPC   C2B67592  35.510  40.941   6.750
 8625POPC   C3B67593  35.515  40.941   7.050
 8625POPC   C4B67594  35.508  40.996   7.350
 8626POPC   NC367595  15.211  23.674   5.550
 8626POPC   PO467596  15.138  23.748   5.850
 8626POPC   GL167597  15.184  23.746   6.150
 8626POPC   GL267598  15.232  23.820   6.150
 8626POPC   C1A67599  15.143  23.715   6.450
 8626POPC   D2A67600  15.153  23.665   6.750
 8626POPC   C3A67601  15.211  23.760   7.050
 8626POPC   C4A67602  15.209  23.754   7.350
 8626POPC   C1B67603  15.282  23.907   6.450
 8626POPC   C2B67604  15.334  23.889   6.750
 8626POPC   C3B67605  15.333  23.909   7.050
 8626POPC   C4B67606  15.283  23.907   7.350
 8627POPC   NC367607  30.699   7.371   5.550
 8627POPC   PO467608  30.732   7.432   5.850
 8627POPC   GL167609  30.730   7.390   6.150
 8627POPC   GL267610  30.787   7.502   6.150
 8627POPC   C1A67611  30.648   7.425   6.450
 8627POPC   D2A67612  30.734   7.393   6.750
 8627POPC   C3A67613  30.736   7.470   7.050
 8627POPC   C4A67614  30.679   7.380   7.350
 8627POPC   C1B67615  30.934   7.599   6.450
 8627POPC   C2B67616  30.878   7.525   6.750
 8627POPC   C3B67617  30.937   7.587   7.050
 8627POPC   C4B67618  30.915   7.574   7.350
 8628POPC   NC367619  36.881  12.031   5.550
 8628POPC   PO467620  36.867  12.036   5.850
 8628POPC   GL167621  36.932  12.041   6.150
 8628POPC   GL267622  36.784  12.013   6.150
 8628POPC   C1A67623  36.891  12.095   6.450
 8628POPC   D2A67624  36.950  12.120   6.750
 8628POPC   C3A67625  36.907  12.066   7.050
 8628POPC   C4A67626  36.899  12.027   7.350
 8628POPC   C1B67627  36.673  11.955   6.450
 8628POPC   C2B67628  36.695  12.025   6.750
 8628POPC   C3B67629  36.653  11.965   7.050
 8628POPC   C4B67630  36.660  11.962   7.350
 8629POPC   NC367631  26.846  14.395   5.550
 8629POPC   PO467632  26.847  14.367   5.850
 8629POPC   GL167633  26.794  14.433   6.150
 8629POPC   GL267634  26.707  14.430   6.150
 8629POPC   C1A67635  26.782  14.452   6.450
 8629POPC   D2A67636  26.826  14.423   6.750
 8629POPC   C3A67637  26.801  14.378   7.050
 8629POPC   C4A67638  26.846  14.396   7.350
 8629POPC   C1B67639  26.593  14.522   6.450
 8629POPC   C2B67640  26.568  14.485   6.750
 8629POPC   C3B67641  26.593  14.464   7.050
 8629POPC   C4B67642  26.641  14.504   7.350
 8630POPC   NC367643  30.693  27.568   5.550
 8630POPC   PO467644  30.740  27.583   5.850
 8630POPC   GL167645  30.686  27.548   6.150
 8630POPC   GL267646  30.834  27.489   6.150
 8630POPC   C1A67647  30.739  27.571   6.450
 8630POPC   D2A67648  30.675  27.573   6.750
 8630POPC   C3A67649  30.716  27.627   7.050
 8630POPC   C4A67650  30.723  27.605   7.350
 8630POPC   C1B67651  30.929  27.488   6.450
 8630POPC   C2B67652  30.901  27.415   6.750
 8630POPC   C3B67653  30.857  27.427   7.050
 8630POPC   C4B67654  30.869  27.491   7.350
 8631POPC   NC367655  38.464  43.131   5.550
 8631POPC   PO467656  38.451  43.140   5.850
 8631POPC   GL167657  38.413  43.096   6.150
 8631POPC   GL267658  38.590  43.084   6.150
 8631POPC   C1A67659  38.457  43.119   6.450
 8631POPC   D2A67660  38.484  43.068   6.750
 8631POPC   C3A67661  38.429  43.134   7.050
 8631POPC   C4A67662  38.454  43.104   7.350
 8631POPC   C1B67663  38.728  43.098   6.450
 8631POPC   C2B67664  38.672  43.140   6.750
 8631POPC   C3B67665  38.696  43.117   7.050
 8631POPC   C4B67666  38.656  43.139   7.350
 8632POPC   NC367667  11.289  14.451   5.550
 8632POPC   PO467668  11.276  14.429   5.850
 8632POPC   GL167669  11.321  14.386   6.150
 8632POPC   GL267670  11.367  14.527   6.150
 8632POPC   C1A67671  11.251  14.444   6.450
 8632POPC   D2A67672  11.293  14.359   6.750
 8632POPC   C3A67673  11.333  14.375   7.050
 8632POPC   C4A67674  11.271  14.399   7.350
 8632POPC   C1B67675  11.492  14.533   6.450
 8632POPC   C2B67676  11.459  14.590   6.750
 8632POPC   C3B67677  11.538  14.594   7.050
 8632POPC   C4B67678  11.509  14.601   7.350
 8633POPC   NC367679  40.742  38.468   5.550
 8633POPC   PO467680  40.773  38.498   5.850
 8633POPC   GL167681  40.790  38.502   6.150
 8633POPC   GL267682  40.762  38.540   6.150
 8633POPC   C1A67683  40.812  38.449   6.450
 8633POPC   D2A67684  40.770  38.432   6.750
 8633POPC   C3A67685  40.815  38.436   7.050
 8633POPC   C4A67686  40.822  38.493   7.350
 8633POPC   C1B67687  40.799  38.735   6.450
 8633POPC   C2B67688  40.853  38.705   6.750
 8633POPC   C3B67689  40.841  38.695   7.050
 8633POPC   C4B67690  40.842  38.744   7.350
 8634POPC   NC367691  19.793  12.891   5.550
 8634POPC   PO467692  19.846  12.812   5.850
 8634POPC   GL167693  19.864  12.887   6.150
 8634POPC   GL267694  19.795  12.715   6.150
 8634POPC   C1A67695  19.811  12.886   6.450
 8634POPC   D2A67696  19.828  12.826   6.750
 8634POPC   C3A67697  19.870  12.901   7.050
 8634POPC   C4A67698  19.834  12.809   7.350
 8634POPC   C1B67699  19.821  12.588   6.450
 8634POPC   C2B67700  19.827  12.600   6.750
 8634POPC   C3B67701  19.768  12.585   7.050
 8634POPC   C4B67702  19.775  12.626   7.350
 8635POPC   NC367703  15.195   1.967   5.550
 8635POPC   PO467704  15.179   1.998   5.850
 8635POPC   GL167705  15.206   1.975   6.150
 8635POPC   GL267706  15.253   1.833   6.150
 8635POPC   C1A67707  15.196   1.944   6.450
 8635POPC   D2A67708  15.171   1.976   6.750
 8635POPC   C3A67709  15.197   1.965   7.050
 8635POPC   C4A67710  15.152   1.973   7.350
 8635POPC   C1B67711  15.301   1.781   6.450
 8635POPC   C2B67712  15.210   1.710   6.750
 8635POPC   C3B67713  15.264   1.788   7.050
 8635POPC   C4B67714  15.248   1.752   7.350
 8636POPC   NC367715  43.138   5.855   5.550
 8636POPC   PO467716  43.075   5.872   5.850
 8636POPC   GL167717  43.144   5.894   6.150
 8636POPC   GL267718  43.076   6.003   6.150
 8636POPC   C1A67719  43.081   5.859   6.450
 8636POPC   D2A67720  43.119   5.820   6.750
 8636POPC   C3A67721  43.130   5.883   7.050
 8636POPC   C4A67722  43.146   5.878   7.350
 8636POPC   C1B67723  43.071   6.091   6.450
 8636POPC   C2B67724  43.009   6.156   6.750
 8636POPC   C3B67725  43.031   6.118   7.050
 8636POPC   C4B67726  43.015   6.068   7.350
 8637POPC   NC367727  22.184  27.609   5.550
 8637POPC   PO467728  22.180  27.556   5.850
 8637POPC   GL167729  22.121  27.581   6.150
 8637POPC   GL267730  22.226  27.429   6.150
 8637POPC   C1A67731  22.152  27.589   6.450
 8637POPC   D2A67732  22.169  27.584   6.750
 8637POPC   C3A67733  22.165  27.592   7.050
 8637POPC   C4A67734  22.189  27.627   7.350
 8637POPC   C1B67735  22.300  27.386   6.450
 8637POPC   C2B67736  22.301  27.395   6.750
 8637POPC   C3B67737  22.264  27.392   7.050
 8637POPC   C4B67738  22.235  27.361   7.350
 8638POPC   NC367739  27.638  26.818   5.550
 8638POPC   PO467740  27.626  26.858   5.850
 8638POPC   GL167741  27.559  26.820   6.150
 8638POPC   GL267742  27.537  26.885   6.150
 8638POPC   C1A67743  27.618  26.803   6.450
 8638POPC   D2A67744  27.603  26.854   6.750
 8638POPC   C3A67745  27.618  26.855   7.050
 8638POPC   C4A67746  27.629  26.852   7.350
 8638POPC   C1B67747  27.372  26.941   6.450
 8638POPC   C2B67748  27.377  26.923   6.750
 8638POPC   C3B67749  27.410  26.981   7.050
 8638POPC   C4B67750  27.373  27.005   7.350
 8639POPC   NC367751   8.214  36.121   5.550
 8639POPC   PO467752   8.173  36.081   5.850
 8639POPC   GL167753   8.237  36.098   6.150
 8639POPC   GL267754   8.074  36.251   6.150
 8639POPC   C1A67755   8.187  36.132   6.450
 8639POPC   D2A67756   8.195  36.115   6.750
 8639POPC   C3A67757   8.190  36.142   7.050
 8639POPC   C4A67758   8.204  36.110   7.350
 8639POPC   C1B67759   7.968  36.269   6.450
 8639POPC   C2B67760   8.018  36.266   6.750
 8639POPC   C3B67761   8.005  36.266   7.050
 8639POPC   C4B67762   8.036  36.329   7.350
 8640POPC   NC367763  37.687  17.505   5.550
 8640POPC   PO467764  37.701  17.491   5.850
 8640POPC   GL167765  37.695  17.530   6.150
 8640POPC   GL267766  37.604  17.489   6.150
 8640POPC   C1A67767  37.643  17.525   6.450
 8640POPC   D2A67768  37.651  17.508   6.750
 8640POPC   C3A67769  37.718  17.549   7.050
 8640POPC   C4A67770  37.687  17.540   7.350
 8640POPC   C1B67771  37.455  17.380   6.450
 8640POPC   C2B67772  37.420  17.361   6.750
 8640POPC   C3B67773  37.488  17.403   7.050
 8640POPC   C4B67774  37.481  17.417   7.350
 8641POPC   NC367775   8.950  27.588   5.550
 8641POPC   PO467776   8.939  27.553   5.850
 8641POPC   GL167777   8.986  27.592   6.150
 8641POPC   GL267778   8.995  27.516   6.150
 8641POPC   C1A67779   8.990  27.602   6.450
 8641POPC   D2A67780   8.961  27.551   6.750
 8641POPC   C3A67781   8.972  27.568   7.050
 8641POPC   C4A67782   8.999  27.619   7.350
 8641POPC   C1B67783   8.965  27.377   6.450
 8641POPC   C2B67784   9.050  27.307   6.750
 8641POPC   C3B67785   8.968  27.317   7.050
 8641POPC   C4B67786   8.966  27.352   7.350
 8642POPC   NC367787  30.744  19.869   5.550
 8642POPC   PO467788  30.739  19.857   5.850
 8642POPC   GL167789  30.694  19.880   6.150
 8642POPC   GL267790  30.615  19.868   6.150
 8642POPC   C1A67791  30.708  19.831   6.450
 8642POPC   D2A67792  30.686  19.824   6.750
 8642POPC   C3A67793  30.651  19.884   7.050
 8642POPC   C4A67794  30.717  19.803   7.350
 8642POPC   C1B67795  30.423  19.911   6.450
 8642POPC   C2B67796  30.453  19.930   6.750
 8642POPC   C3B67797  30.485  19.904   7.050
 8642POPC   C4B67798  30.496  19.861   7.350
 8643POPC   NC367799  43.109  15.218   5.550
 8643POPC   PO467800  43.091  15.140   5.850
 8643POPC   GL167801  43.116  15.186   6.150
 8643POPC   GL267802  42.976  15.211   6.150
 8643POPC   C1A67803  43.154  15.197   6.450
 8643POPC   D2A67804  43.075  15.174   6.750
 8643POPC   C3A67805  43.108  15.179   7.050
 8643POPC   C4A67806  43.137  15.178   7.350
 8643POPC   C1B67807  42.891  15.221   6.450
 8643POPC   C2B67808  42.882  15.147   6.750
 8643POPC   C3B67809  42.868  15.153   7.050
 8643POPC   C4B67810  42.865  15.233   7.350
 8644POPC   NC367811  26.002   5.911   5.550
 8644POPC   PO467812  26.046   5.911   5.850
 8644POPC   GL167813  26.042   5.848   6.150
 8644POPC   GL267814  26.103   5.714   6.150
 8644POPC   C1A67815  26.016   5.869   6.450
 8644POPC   D2A67816  26.048   5.867   6.750
 8644POPC   C3A67817  26.073   5.918   7.050
 8644POPC   C4A67818  25.995   5.853   7.350
 8644POPC   C1B67819  26.105   5.590   6.450
 8644POPC   C2B67820  26.094   5.609   6.750
 8644POPC   C3B67821  26.130   5.616   7.050
 8644POPC   C4B67822  26.093   5.650   7.350
 8645POPC   NC367823   7.385  29.165   5.550
 8645POPC   PO467824   7.404  29.095   5.850
 8645POPC   GL167825   7.384  29.115   6.150
 8645POPC   GL267826   7.574  29.161   6.150
 8645POPC   C1A67827   7.422  29.183   6.450
 8645POPC   D2A67828   7.374  29.108   6.750
 8645POPC   C3A67829   7.465  29.112   7.050
 8645POPC   C4A67830   7.462  29.131   7.350
 8645POPC   C1B67831   7.653  29.200   6.450
 8645POPC   C2B67832   7.673  29.194   6.750
 8645POPC   C3B67833   7.667  29.128   7.050
 8645POPC   C4B67834   7.647  29.211   7.350
 8646POPC   NC367835  17.464   7.409   5.550
 8646POPC   PO467836  17.503   7.397   5.850
 8646POPC   GL167837  17.525   7.386   6.150
 8646POPC   GL267838  17.421   7.501   6.150
 8646POPC   C1A67839  17.544   7.399   6.450
 8646POPC   D2A67840  17.543   7.407   6.750
 8646POPC   C3A67841  17.497   7.438   7.050
 8646POPC   C4A67842  17.465   7.435   7.350
 8646POPC   C1B67843  17.349   7.561   6.450
 8646POPC   C2B67844  17.265   7.544   6.750
 8646POPC   C3B67845  17.323   7.557   7.050
 8646POPC   C4B67846  17.329   7.524   7.350
 8647POPC   NC367847  29.952   0.476   5.550
 8647POPC   PO467848  29.954   0.435   5.850
 8647POPC   GL167849  29.959   0.406   6.150
 8647POPC   GL267850  29.878   0.540   6.150
 8647POPC   C1A67851  29.927   0.469   6.450
 8647POPC   D2A67852  29.892   0.427   6.750
 8647POPC   C3A67853  29.899   0.452   7.050
 8647POPC   C4A67854  29.889   0.400   7.350
 8647POPC   C1B67855  29.797   0.629   6.450
 8647POPC   C2B67856  29.764   0.620   6.750
 8647POPC   C3B67857  29.765   0.689   7.050
 8647POPC   C4B67858  29.841   0.630   7.350
 8648POPC   NC367859  22.948   9.744   5.550
 8648POPC   PO467860  22.931   9.766   5.850
 8648POPC   GL167861  22.912   9.759   6.150
 8648POPC   GL267862  23.020   9.635   6.150
 8648POPC   C1A67863  22.987   9.771   6.450
 8648POPC   D2A67864  22.973   9.795   6.750
 8648POPC   C3A67865  22.911   9.734   7.050
 8648POPC   C4A67866  22.908   9.766   7.350
 8648POPC   C1B67867  23.111   9.581   6.450
 8648POPC   C2B67868  23.100   9.565   6.750
 8648POPC   C3B67869  23.053   9.576   7.050
 8648POPC   C4B67870  23.078   9.579   7.350
 8649POPC   NC367871  22.207  36.093   5.550
 8649POPC   PO467872  22.191  36.153   5.850
 8649POPC   GL167873  22.148  36.116   6.150
 8649POPC   GL267874  22.237  36.212   6.150
 8649POPC   C1A67875  22.163  36.162   6.450
 8649POPC   D2A67876  22.207  36.160   6.750
 8649POPC   C3A67877  22.119  36.149   7.050
 8649POPC   C4A67878  22.206  36.170   7.350
 8649POPC   C1B67879  22.405  36.247   6.450
 8649POPC   C2B67880  22.356  36.190   6.750
 8649POPC   C3B67881  22.354  36.171   7.050
 8649POPC   C4B67882  22.348  36.207   7.350
 8650POPC   NC367883  33.822  22.963   5.550
 8650POPC   PO467884  33.805  22.975   5.850
 8650POPC   GL167885  33.839  22.922   6.150
 8650POPC   GL267886  33.649  22.863   6.150
 8650POPC   C1A67887  33.787  22.975   6.450
 8650POPC   D2A67888  33.781  22.966   6.750
 8650POPC   C3A67889  33.806  22.905   7.050
 8650POPC   C4A67890  33.829  22.983   7.350
 8650POPC   C1B67891  33.557  22.845   6.450
 8650POPC   C2B67892  33.594  22.794   6.750
 8650POPC   C3B67893  33.592  22.806   7.050
 8650POPC   C4B67894  33.596  22.837   7.350
 8651POPC   NC367895  39.211  36.942   5.550
 8651POPC   PO467896  39.248  36.856   5.850
 8651POPC   GL167897  39.240  36.887   6.150
 8651POPC   GL267898  39.307  36.743   6.150
 8651POPC   C1A67899  39.277  36.865   6.450
 8651POPC   D2A67900  39.222  36.919   6.750
 8651POPC   C3A67901  39.183  36.875   7.050
 8651POPC   C4A67902  39.250  36.905   7.350
 8651POPC   C1B67903  39.303  36.701   6.450
 8651POPC   C2B67904  39.331  36.630   6.750
 8651POPC   C3B67905  39.339  36.658   7.050
 8651POPC   C4B67906  39.345  36.708   7.350
 8652POPC   NC367907  39.244  28.342   5.550
 8652POPC   PO467908  39.278  28.331   5.850
 8652POPC   GL167909  39.246  28.369   6.150
 8652POPC   GL267910  39.357  28.437   6.150
 8652POPC   C1A67911  39.266  28.398   6.450
 8652POPC   D2A67912  39.249  28.396   6.750
 8652POPC   C3A67913  39.194  28.402   7.050
 8652POPC   C4A67914  39.195  28.389   7.350
 8652POPC   C1B67915  39.499  28.499   6.450
 8652POPC   C2B67916  39.442  28.533   6.750
 8652POPC   C3B67917  39.455  28.514   7.050
 8652POPC   C4B67918  39.458  28.494   7.350
 8653POPC   NC367919   4.330   5.887   5.550
 8653POPC   PO467920   4.313   5.879   5.850
 8653POPC   GL167921   4.270   5.883   6.150
 8653POPC   GL267922   4.251   5.936   6.150
 8653POPC   C1A67923   4.324   5.839   6.450
 8653POPC   D2A67924   4.281   5.870   6.750
 8653POPC   C3A67925   4.312   5.856   7.050
 8653POPC   C4A67926   4.279   5.890   7.350
 8653POPC   C1B67927   4.060   5.944   6.450
 8653POPC   C2B67928   4.062   6.015   6.750
 8653POPC   C3B67929   4.114   5.974   7.050
 8653POPC   C4B67930   4.054   6.009   7.350
 8654POPC   NC367931  10.529  29.899   5.550
 8654POPC   PO467932  10.508  29.899   5.850
 8654POPC   GL167933  10.547  29.901   6.150
 8654POPC   GL267934  10.520  30.063   6.150
 8654POPC   C1A67935  10.560  29.945   6.450
 8654POPC   D2A67936  10.566  29.966   6.750
 8654POPC   C3A67937  10.536  29.874   7.050
 8654POPC   C4A67938  10.500  29.938   7.350
 8654POPC   C1B67939  10.615  30.139   6.450
 8654POPC   C2B67940  10.549  30.151   6.750
 8654POPC   C3B67941  10.575  30.191   7.050
 8654POPC   C4B67942  10.613  30.113   7.350
 8655POPC   NC367943   1.943  16.754   5.550
 8655POPC   PO467944   1.965  16.694   5.850
 8655POPC   GL167945   1.979  16.770   6.150
 8655POPC   GL267946   1.863  16.681   6.150
 8655POPC   C1A67947   2.009  16.754   6.450
 8655POPC   D2A67948   1.973  16.733   6.750
 8655POPC   C3A67949   1.950  16.775   7.050
 8655POPC   C4A67950   1.945  16.685   7.350
 8655POPC   C1B67951   1.776  16.624   6.450
 8655POPC   C2B67952   1.793  16.634   6.750
 8655POPC   C3B67953   1.739  16.691   7.050
 8655POPC   C4B67954   1.752  16.656   7.350
 8656POPC   NC367955  22.959  23.685   5.550
 8656POPC   PO467956  22.898  23.702   5.850
 8656POPC   GL167957  22.961  23.715   6.150
 8656POPC   GL267958  22.781  23.783   6.150
 8656POPC   C1A67959  22.933  23.680   6.450
 8656POPC   D2A67960  22.928  23.723   6.750
 8656POPC   C3A67961  22.954  23.703   7.050
 8656POPC   C4A67962  22.952  23.740   7.350
 8656POPC   C1B67963  22.713  23.842   6.450
 8656POPC   C2B67964  22.731  23.871   6.750
 8656POPC   C3B67965  22.675  23.835   7.050
 8656POPC   C4B67966  22.681  23.854   7.350
 8657POPC   NC367967  29.137  34.554   5.550
 8657POPC   PO467968  29.129  34.603   5.850
 8657POPC   GL167969  29.169  34.592   6.150
 8657POPC   GL267970  29.201  34.450   6.150
 8657POPC   C1A67971  29.180  34.582   6.450
 8657POPC   D2A67972  29.122  34.623   6.750
 8657POPC   C3A67973  29.103  34.599   7.050
 8657POPC   C4A67974  29.149  34.579   7.350
 8657POPC   C1B67975  29.227  34.364   6.450
 8657POPC   C2B67976  29.287  34.297   6.750
 8657POPC   C3B67977  29.227  34.381   7.050
 8657POPC   C4B67978  29.274  34.389   7.350
 8658POPC   NC367979  17.535  15.149   5.550
 8658POPC   PO467980  17.519  15.192   5.850
 8658POPC   GL167981  17.487  15.220   6.150
 8658POPC   GL267982  17.493  15.299   6.150
 8658POPC   C1A67983  17.556  15.133   6.450
 8658POPC   D2A67984  17.486  15.194   6.750
 8658POPC   C3A67985  17.545  15.158   7.050
 8658POPC   C4A67986  17.544  15.210   7.350
 8658POPC   C1B67987  17.346  15.448   6.450
 8658POPC   C2B67988  17.378  15.422   6.750
 8658POPC   C3B67989  17.428  15.399   7.050
 8658POPC   C4B67990  17.361  15.415   7.350
 8659POPC   NC367991  15.985  33.001   5.550
 8659POPC   PO467992  15.933  32.997   5.850
 8659POPC   GL167993  15.986  33.043   6.150
 8659POPC   GL267994  16.072  33.109   6.150
 8659POPC   C1A67995  15.982  33.051   6.450
 8659POPC   D2A67996  15.935  33.048   6.750
 8659POPC   C3A67997  15.966  33.071   7.050
 8659POPC   C4A67998  15.926  33.013   7.350
 8659POPC   C1B67999  16.132  33.175   6.450
 8659POPC   C2B68000  16.097  33.159   6.750
 8659POPC   C3B68001  16.101  33.211   7.050
 8659POPC   C4B68002  16.159  33.213   7.350
 8660POPC   NC368003  20.565  23.671   5.550
 8660POPC   PO468004  20.604  23.667   5.850
 8660POPC   GL168005  20.635  23.751   6.150
 8660POPC   GL268006  20.524  23.639   6.150
 8660POPC   C1A68007  20.650  23.688   6.450
 8660POPC   D2A68008  20.632  23.742   6.750
 8660POPC   C3A68009  20.612  23.704   7.050
 8660POPC   C4A68010  20.567  23.740   7.350
 8660POPC   C1B68011  20.395  23.600   6.450
 8660POPC   C2B68012  20.390  23.572   6.750
 8660POPC   C3B68013  20.442  23.617   7.050
 8660POPC   C4B68014  20.364  23.525   7.350
 8661POPC   NC368015  41.605  11.311   5.550
 8661POPC   PO468016  41.601  11.258   5.850
 8661POPC   GL168017  41.520  11.325   6.150
 8661POPC   GL268018  41.626  11.420   6.150
 8661POPC   C1A68019  41.569  11.291   6.450
 8661POPC   D2A68020  41.566  11.340   6.750
 8661POPC   C3A68021  41.534  11.337   7.050
 8661POPC   C4A68022  41.578  11.252   7.350
 8661POPC   C1B68023  41.779  11.407   6.450
 8661POPC   C2B68024  41.737  11.487   6.750
 8661POPC   C3B68025  41.793  11.408   7.050
 8661POPC   C4B68026  41.743  11.423   7.350
 8662POPC   NC368027  29.892  25.296   5.550
 8662POPC   PO468028  29.884  25.268   5.850
 8662POPC   GL168029  29.879  25.308   6.150
 8662POPC   GL268030  30.016  25.193   6.150
 8662POPC   C1A68031  29.914  25.283   6.450
 8662POPC   D2A68032  29.896  25.310   6.750
 8662POPC   C3A68033  29.943  25.228   7.050
 8662POPC   C4A68034  29.899  25.297   7.350
 8662POPC   C1B68035  30.168  25.172   6.450
 8662POPC   C2B68036  30.162  25.201   6.750
 8662POPC   C3B68037  30.183  25.180   7.050
 8662POPC   C4B68038  30.201  25.224   7.350
 8663POPC   NC368039   7.384  28.364   5.550
 8663POPC   PO468040   7.400  28.363   5.850
 8663POPC   GL168041   7.400  28.368   6.150
 8663POPC   GL268042   7.333  28.328   6.150
 8663POPC   C1A68043   7.385  28.416   6.450
 8663POPC   D2A68044   7.395  28.363   6.750
 8663POPC   C3A68045   7.421  28.328   7.050
 8663POPC   C4A68046   7.450  28.401   7.350
 8663POPC   C1B68047   7.136  28.294   6.450
 8663POPC   C2B68048   7.157  28.366   6.750
 8663POPC   C3B68049   7.218  28.335   7.050
 8663POPC   C4B68050   7.210  28.358   7.350
 8664POPC   NC368051  15.194  22.980   5.550
 8664POPC   PO468052  15.170  22.980   5.850
 8664POPC   GL168053  15.164  22.891   6.150
 8664POPC   GL268054  15.095  23.012   6.150
 8664POPC   C1A68055  15.169  22.983   6.450
 8664POPC   D2A68056  15.195  22.982   6.750
 8664POPC   C3A68057  15.202  22.947   7.050
 8664POPC   C4A68058  15.135  22.981   7.350
 8664POPC   C1B68059  15.068  23.147   6.450
 8664POPC   C2B68060  15.054  23.162   6.750
 8664POPC   C3B68061  15.072  23.184   7.050
 8664POPC   C4B68062  15.057  23.186   7.350
 8665POPC   NC368063  33.069  43.905   5.550
 8665POPC   PO468064  33.029  43.862   5.850
 8665POPC   GL168065  33.068  43.924   6.150
 8665POPC   GL268066  32.932  44.000   6.150
 8665POPC   C1A68067  33.014  43.858   6.450
 8665POPC   D2A68068  33.030  43.898   6.750
 8665POPC   C3A68069  33.002  43.873   7.050
 8665POPC   C4A68070  33.046  43.904   7.350
 8665POPC   C1B68071  32.954  44.093   6.450
 8665POPC   C2B68072  32.884  44.154   6.750
 8665POPC   C3B68073  32.911  44.141   7.050
 8665POPC   C4B68074  32.912  44.155   7.350
 8666POPC   NC368075  36.115  24.479   5.550
 8666POPC   PO468076  36.097  24.516   5.850
 8666POPC   GL168077  36.090  24.526   6.150
 8666POPC   GL268078  36.077  24.581   6.150
 8666POPC   C1A68079  36.101  24.500   6.450
 8666POPC   D2A68080  36.159  24.532   6.750
 8666POPC   C3A68081  36.094  24.456   7.050
 8666POPC   C4A68082  36.161  24.514   7.350
 8666POPC   C1B68083  36.029  24.689   6.450
 8666POPC   C2B68084  36.015  24.692   6.750
 8666POPC   C3B68085  36.086  24.771   7.050
 8666POPC   C4B68086  36.027  24.722   7.350
 8667POPC   NC368087  43.112  21.422   5.550
 8667POPC   PO468088  43.114  21.394   5.850
 8667POPC   GL168089  43.160  21.426   6.150
 8667POPC   GL268090  43.041  21.482   6.150
 8667POPC   C1A68091  43.151  21.409   6.450
 8667POPC   D2A68092  43.068  21.429   6.750
 8667POPC   C3A68093  43.152  21.370   7.050
 8667POPC   C4A68094  43.066  21.395   7.350
 8667POPC   C1B68095  43.052  21.627   6.450
 8667POPC   C2B68096  43.020  21.625   6.750
 8667POPC   C3B68097  42.980  21.580   7.050
 8667POPC   C4B68098  43.008  21.582   7.350
 8668POPC   NC368099  27.595  44.673   5.550
 8668POPC   PO468100  27.568  44.696   5.850
 8668POPC   GL168101  27.599  44.687   6.150
 8668POPC   GL268102  27.725  44.581   6.150
 8668POPC   C1A68103  27.586  44.681   6.450
 8668POPC   D2A68104  27.589  44.675   6.750
 8668POPC   C3A68105  27.567  44.664   7.050
 8668POPC   C4A68106  27.600  44.625   7.350
 8668POPC   C1B68107  27.733  44.451   6.450
 8668POPC   C2B68108  27.754  44.487   6.750
 8668POPC   C3B68109  27.750  44.441   7.050
 8668POPC   C4B68110  27.752  44.473   7.350
 8669POPC   NC368111  34.597   0.481   5.550
 8669POPC   PO468112  34.567   0.445   5.850
 8669POPC   GL168113  34.596   0.460   6.150
 8669POPC   GL268114  34.499   0.310   6.150
 8669POPC   C1A68115  34.550   0.431   6.450
 8669POPC   D2A68116  34.578   0.426   6.750
 8669POPC   C3A68117  34.581   0.399   7.050
 8669POPC   C4A68118  34.556   0.417   7.350
 8669POPC   C1B68119  34.482   0.173   6.450
 8669POPC   C2B68120  34.532   0.185   6.750
 8669POPC   C3B68121  34.511   0.196   7.050
 8669POPC   C4B68122  34.507   0.149   7.350
 8670POPC   NC368123   0.408   8.242   5.550
 8670POPC   PO468124   0.428   8.241   5.850
 8670POPC   GL168125   0.407   8.174   6.150
 8670POPC   GL268126   0.513   8.205   6.150
 8670POPC   C1A68127   0.417   8.152   6.450
 8670POPC   D2A68128   0.393   8.209   6.750
 8670POPC   C3A68129   0.473   8.216   7.050
 8670POPC   C4A68130   0.413   8.199   7.350
 8670POPC   C1B68131   0.643   8.148   6.450
 8670POPC   C2B68132   0.644   8.185   6.750
 8670POPC   C3B68133   0.706   8.242   7.050
 8670POPC   C4B68134   0.737   8.218   7.350
 8671POPC   NC368135  35.336  10.523   5.550
 8671POPC   PO468136  35.343  10.526   5.850
 8671POPC   GL168137  35.314  10.501   6.150
 8671POPC   GL268138  35.247  10.418   6.150
 8671POPC   C1A68139  35.343  10.541   6.450
 8671POPC   D2A68140  35.356  10.488   6.750
 8671POPC   C3A68141  35.366  10.514   7.050
 8671POPC   C4A68142  35.384  10.510   7.350
 8671POPC   C1B68143  35.225  10.292   6.450
 8671POPC   C2B68144  35.223  10.332   6.750
 8671POPC   C3B68145  35.202  10.362   7.050
 8671POPC   C4B68146  35.238  10.349   7.350
 8672POPC   NC368147  13.622  23.729   5.550
 8672POPC   PO468148  13.637  23.707   5.850
 8672POPC   GL168149  13.593  23.747   6.150
 8672POPC   GL268150  13.654  23.843   6.150
 8672POPC   C1A68151  13.653  23.752   6.450
 8672POPC   D2A68152  13.642  23.685   6.750
 8672POPC   C3A68153  13.640  23.714   7.050
 8672POPC   C4A68154  13.622  23.749   7.350
 8672POPC   C1B68155  13.680  24.009   6.450
 8672POPC   C2B68156  13.614  23.965   6.750
 8672POPC   C3B68157  13.590  23.996   7.050
 8672POPC   C4B68158  13.643  23.970   7.350
 8673POPC   NC368159  42.374  17.483   5.550
 8673POPC   PO468160  42.368  17.465   5.850
 8673POPC   GL168161  42.346  17.494   6.150
 8673POPC   GL268162  42.242  17.393   6.150
 8673POPC   C1A68163  42.356  17.537   6.450
 8673POPC   D2A68164  42.326  17.525   6.750
 8673POPC   C3A68165  42.379  17.469   7.050
 8673POPC   C4A68166  42.352  17.490   7.350
 8673POPC   C1B68167  42.233  17.246   6.450
 8673POPC   C2B68168  42.188  17.263   6.750
 8673POPC   C3B68169  42.187  17.240   7.050
 8673POPC   C4B68170  42.256  17.281   7.350
 8674POPC   NC368171  30.732  11.272   5.550
 8674POPC   PO468172  30.703  11.260   5.850
 8674POPC   GL168173  30.672  11.333   6.150
 8674POPC   GL268174  30.831  11.358   6.150
 8674POPC   C1A68175  30.661  11.333   6.450
 8674POPC   D2A68176  30.731  11.294   6.750
 8674POPC   C3A68177  30.650  11.261   7.050
 8674POPC   C4A68178  30.654  11.342   7.350
 8674POPC   C1B68179  30.979  11.366   6.450
 8674POPC   C2B68180  30.968  11.342   6.750
 8674POPC   C3B68181  30.898  11.307   7.050
 8674POPC   C4B68182  30.908  11.336   7.350
 8675POPC   NC368183  34.606  29.120   5.550
 8675POPC   PO468184  34.624  29.121   5.850
 8675POPC   GL168185  34.602  29.172   6.150
 8675POPC   GL268186  34.626  29.020   6.150
 8675POPC   C1A68187  34.574  29.180   6.450
 8675POPC   D2A68188  34.530  29.106   6.750
 8675POPC   C3A68189  34.540  29.103   7.050
 8675POPC   C4A68190  34.605  29.120   7.350
 8675POPC   C1B68191  34.584  28.938   6.450
 8675POPC   C2B68192  34.565  28.900   6.750
 8675POPC   C3B68193  34.590  28.932   7.050
 8675POPC   C4B68194  34.609  28.861   7.350
 8676POPC   NC368195   2.801   2.814   5.550
 8676POPC   PO468196   2.736   2.738   5.850
 8676POPC   GL168197   2.729   2.798   6.150
 8676POPC   GL268198   2.636   2.790   6.150
 8676POPC   C1A68199   2.756   2.781   6.450
 8676POPC   D2A68200   2.731   2.725   6.750
 8676POPC   C3A68201   2.764   2.725   7.050
 8676POPC   C4A68202   2.806   2.734   7.350
 8676POPC   C1B68203   2.499   2.736   6.450
 8676POPC   C2B68204   2.473   2.748   6.750
 8676POPC   C3B68205   2.501   2.750   7.050
 8676POPC   C4B68206   2.541   2.782   7.350
 8677POPC   NC368207  13.624   5.123   5.550
 8677POPC   PO468208  13.590   5.120   5.850
 8677POPC   GL168209  13.641   5.120   6.150
 8677POPC   GL268210  13.679   4.986   6.150
 8677POPC   C1A68211  13.604   5.115   6.450
 8677POPC   D2A68212  13.677   5.044   6.750
 8677POPC   C3A68213  13.641   5.056   7.050
 8677POPC   C4A68214  13.651   5.108   7.350
 8677POPC   C1B68215  13.685   4.805   6.450
 8677POPC   C2B68216  13.714   4.874   6.750
 8677POPC   C3B68217  13.675   4.875   7.050
 8677POPC   C4B68218  13.658   4.878   7.350
 8678POPC   NC368219  29.885  14.381   5.550
 8678POPC   PO468220  29.888  14.361   5.850
 8678POPC   GL168221  29.922  14.438   6.150
 8678POPC   GL268222  29.889  14.354   6.150
 8678POPC   C1A68223  29.923  14.377   6.450
 8678POPC   D2A68224  29.871  14.413   6.750
 8678POPC   C3A68225  29.952  14.413   7.050
 8678POPC   C4A68226  29.902  14.375   7.350
 8678POPC   C1B68227  29.733  14.172   6.450
 8678POPC   C2B68228  29.736  14.233   6.750
 8678POPC   C3B68229  29.744  14.203   7.050
 8678POPC   C4B68230  29.727  14.215   7.350
 8679POPC   NC368231  25.291  23.755   5.550
 8679POPC   PO468232  25.302  23.672   5.850
 8679POPC   GL168233  25.248  23.667   6.150
 8679POPC   GL268234  25.337  23.783   6.150
 8679POPC   C1A68235  25.304  23.701   6.450
 8679POPC   D2A68236  25.302  23.683   6.750
 8679POPC   C3A68237  25.244  23.702   7.050
 8679POPC   C4A68238  25.266  23.738   7.350
 8679POPC   C1B68239  25.476  23.932   6.450
 8679POPC   C2B68240  25.474  23.923   6.750
 8679POPC   C3B68241  25.423  23.861   7.050
 8679POPC   C4B68242  25.384  23.922   7.350
 8680POPC   NC368243  12.818  37.667   5.550
 8680POPC   PO468244  12.896  37.655   5.850
 8680POPC   GL168245  12.867  37.716   6.150
 8680POPC   GL268246  12.841  37.567   6.150
 8680POPC   C1A68247  12.862  37.636   6.450
 8680POPC   D2A68248  12.807  37.648   6.750
 8680POPC   C3A68249  12.897  37.704   7.050
 8680POPC   C4A68250  12.810  37.670   7.350
 8680POPC   C1B68251  12.792  37.462   6.450
 8680POPC   C2B68252  12.836  37.433   6.750
 8680POPC   C3B68253  12.772  37.392   7.050
 8680POPC   C4B68254  12.835  37.477   7.350
 8681POPC   NC368255  22.904  26.051   5.550
 8681POPC   PO468256  22.945  26.027   5.850
 8681POPC   GL168257  22.934  26.027   6.150
 8681POPC   GL268258  23.084  26.107   6.150
 8681POPC   C1A68259  22.947  26.030   6.450
 8681POPC   D2A68260  22.917  26.069   6.750
 8681POPC   C3A68261  22.987  25.993   7.050
 8681POPC   C4A68262  22.926  26.036   7.350
 8681POPC   C1B68263  23.217  26.107   6.450
 8681POPC   C2B68264  23.192  26.080   6.750
 8681POPC   C3B68265  23.128  26.093   7.050
 8681POPC   C4B68266  23.170  26.084   7.350
 8682POPC   NC368267  20.652  11.290   5.550
 8682POPC   PO468268  20.634  11.302   5.850
 8682POPC   GL168269  20.624  11.308   6.150
 8682POPC   GL268270  20.536  11.452   6.150
 8682POPC   C1A68271  20.610  11.263   6.450
 8682POPC   D2A68272  20.573  11.255   6.750
 8682POPC   C3A68273  20.561  11.305   7.050
 8682POPC   C4A68274  20.619  11.269   7.350
 8682POPC   C1B68275  20.447  11.486   6.450
 8682POPC   C2B68276  20.525  11.562   6.750
 8682POPC   C3B68277  20.469  11.536   7.050
 8682POPC   C4B68278  20.450  11.470   7.350
 8683POPC   NC368279  33.062   5.832   5.550
 8683POPC   PO468280  32.992   5.866   5.850
 8683POPC   GL168281  33.045   5.820   6.150
 8683POPC   GL268282  32.949   5.900   6.150
 8683POPC   C1A68283  33.043   5.885   6.450
 8683POPC   D2A68284  33.006   5.902   6.750
 8683POPC   C3A68285  33.002   5.902   7.050
 8683POPC   C4A68286  33.040   5.916   7.350
 8683POPC   C1B68287  32.815   6.010   6.450
 8683POPC   C2B68288  32.823   5.983   6.750
 8683POPC   C3B68289  32.832   6.043   7.050
 8683POPC   C4B68290  32.839   6.052   7.350
 8684POPC   NC368291  23.691  26.770   5.550
 8684POPC   PO468292  23.741  26.791   5.850
 8684POPC   GL168293  23.754  26.771   6.150
 8684POPC   GL268294  23.728  26.906   6.150
 8684POPC   C1A68295  23.674  26.774   6.450
 8684POPC   D2A68296  23.727  26.844   6.750
 8684POPC   C3A68297  23.738  26.802   7.050
 8684POPC   C4A68298  23.670  26.776   7.350
 8684POPC   C1B68299  23.794  27.084   6.450
 8684POPC   C2B68300  23.779  27.075   6.750
 8684POPC   C3B68301  23.754  27.099   7.050
 8684POPC   C4B68302  23.807  27.056   7.350
 8685POPC   NC368303  22.148  29.150   5.550
 8685POPC   PO468304  22.202  29.169   5.850
 8685POPC   GL168305  22.204  29.124   6.150
 8685POPC   GL268306  22.237  29.203   6.150
 8685POPC   C1A68307  22.139  29.105   6.450
 8685POPC   D2A68308  22.184  29.131   6.750
 8685POPC   C3A68309  22.123  29.158   7.050
 8685POPC   C4A68310  22.181  29.187   7.350
 8685POPC   C1B68311  22.302  29.358   6.450
 8685POPC   C2B68312  22.260  29.375   6.750
 8685POPC   C3B68313  22.261  29.347   7.050
 8685POPC   C4B68314  22.278  29.398   7.350
 8686POPC   NC368315  44.650  11.272   5.550
 8686POPC   PO468316  44.640  11.271   5.850
 8686POPC   GL168317  44.638  11.328   6.150
 8686POPC   GL268318  44.525  11.295   6.150
 8686POPC   C1A68319  44.651  11.305   6.450
 8686POPC   D2A68320  44.626  11.320   6.750
 8686POPC   C3A68321  44.657  11.288   7.050
 8686POPC   C4A68322  44.640  11.286   7.350
 8686POPC   C1B68323  44.366  11.248   6.450
 8686POPC   C2B68324  44.379  11.237   6.750
 8686POPC   C3B68325  44.378  11.235   7.050
 8686POPC   C4B68326  44.450  11.261   7.350
 8687POPC   NC368327   6.644   2.721   5.550
 8687POPC   PO468328   6.676   2.725   5.850
 8687POPC   GL168329   6.633   2.773   6.150
 8687POPC   GL268330   6.801   2.692   6.150
 8687POPC   C1A68331   6.602   2.767   6.450
 8687POPC   D2A68332   6.644   2.759   6.750
 8687POPC   C3A68333   6.671   2.719   7.050
 8687POPC   C4A68334   6.616   2.723   7.350
 8687POPC   C1B68335   6.879   2.681   6.450
 8687POPC   C2B68336   6.832   2.609   6.750
 8687POPC   C3B68337   6.846   2.591   7.050
 8687POPC   C4B68338   6.897   2.673   7.350
 8688POPC   NC368339  13.632  27.632   5.550
 8688POPC   PO468340  13.635  27.604   5.850
 8688POPC   GL168341  13.640  27.585   6.150
 8688POPC   GL268342  13.492  27.549   6.150
 8688POPC   C1A68343  13.615  27.608   6.450
 8688POPC   D2A68344  13.618  27.555   6.750
 8688POPC   C3A68345  13.627  27.556   7.050
 8688POPC   C4A68346  13.606  27.554   7.350
 8688POPC   C1B68347  13.437  27.434   6.450
 8688POPC   C2B68348  13.465  27.445   6.750
 8688POPC   C3B68349  13.430  27.467   7.050
 8688POPC   C4B68350  13.473  27.424   7.350
 8689POPC   NC368351  24.481  26.836   5.550
 8689POPC   PO468352  24.498  26.768   5.850
 8689POPC   GL168353  24.481  26.799   6.150
 8689POPC   GL268354  24.391  26.727   6.150
 8689POPC   C1A68355  24.481  26.789   6.450
 8689POPC   D2A68356  24.470  26.811   6.750
 8689POPC   C3A68357  24.456  26.821   7.050
 8689POPC   C4A68358  24.507  26.819   7.350
 8689POPC   C1B68359  24.231  26.678   6.450
 8689POPC   C2B68360  24.281  26.691   6.750
 8689POPC   C3B68361  24.269  26.664   7.050
 8689POPC   C4B68362  24.239  26.675   7.350
 8690POPC   NC368363  24.457   2.035   5.550
 8690POPC   PO468364  24.491   2.022   5.850
 8690POPC   GL168365  24.502   1.985   6.150
 8690POPC   GL268366  24.470   2.128   6.150
 8690POPC   C1A68367  24.510   2.000   6.450
 8690POPC   D2A68368  24.493   1.972   6.750
 8690POPC   C3A68369  24.476   2.000   7.050
 8690POPC   C4A68370  24.536   2.000   7.350
 8690POPC   C1B68371  24.537   2.220   6.450
 8690POPC   C2B68372  24.517   2.247   6.750
 8690POPC   C3B68373  24.526   2.262   7.050
 8690POPC   C4B68374  24.539   2.223   7.350
 8691POPC   NC368375  34.529  12.815   5.550
 8691POPC   PO468376  34.555  12.830   5.850
 8691POPC   GL168377  34.551  12.841   6.150
 8691POPC   GL268378  34.494  12.744   6.150
 8691POPC   C1A68379  34.532  12.895   6.450
 8691POPC   D2A68380  34.554  12.863   6.750
 8691POPC   C3A68381  34.624  12.881   7.050
 8691POPC   C4A68382  34.617  12.809   7.350
 8691POPC   C1B68383  34.478  12.582   6.450
 8691POPC   C2B68384  34.437  12.633   6.750
 8691POPC   C3B68385  34.499  12.629   7.050
 8691POPC   C4B68386  34.431  12.621   7.350
 8692POPC   NC368387  12.118  12.891   5.550
 8692POPC   PO468388  12.086  12.865   5.850
 8692POPC   GL168389  12.034  12.881   6.150
 8692POPC   GL268390  12.041  12.685   6.150
 8692POPC   C1A68391  12.038  12.849   6.450
 8692POPC   D2A68392  12.076  12.894   6.750
 8692POPC   C3A68393  12.058  12.818   7.050
 8692POPC   C4A68394  12.089  12.835   7.350
 8692POPC   C1B68395  12.117  12.644   6.450
 8692POPC   C2B68396  12.106  12.582   6.750
 8692POPC   C3B68397  12.123  12.593   7.050
 8692POPC   C4B68398  12.062  12.619   7.350
 8693POPC   NC368399  19.835   6.631   5.550
 8693POPC   PO468400  19.856   6.689   5.850
 8693POPC   GL168401  19.874   6.681   6.150
 8693POPC   GL268402  19.929   6.665   6.150
 8693POPC   C1A68403  19.841   6.659   6.450
 8693POPC   D2A68404  19.823   6.595   6.750
 8693POPC   C3A68405  19.850   6.610   7.050
 8693POPC   C4A68406  19.811   6.655   7.350
 8693POPC   C1B68407  20.067   6.707   6.450
 8693POPC   C2B68408  20.114   6.700   6.750
 8693POPC   C3B68409  20.069   6.756   7.050
 8693POPC   C4B68410  20.079   6.734   7.350
 8694POPC   NC368411  12.810   5.855   5.550
 8694POPC   PO468412  12.894   5.865   5.850
 8694POPC   GL168413  12.815   5.822   6.150
 8694POPC   GL268414  12.853   6.003   6.150
 8694POPC   C1A68415  12.839   5.860   6.450
 8694POPC   D2A68416  12.852   5.834   6.750
 8694POPC   C3A68417  12.898   5.877   7.050
 8694POPC   C4A68418  12.887   5.883   7.350
 8694POPC   C1B68419  12.764   6.068   6.450
 8694POPC   C2B68420  12.856   6.111   6.750
 8694POPC   C3B68421  12.823   6.094   7.050
 8694POPC   C4B68422  12.856   6.101   7.350
 8695POPC   NC368423   5.834  15.163   5.550
 8695POPC   PO468424   5.823  15.160   5.850
 8695POPC   GL168425   5.918  15.182   6.150
 8695POPC   GL268426   6.023  15.251   6.150
 8695POPC   C1A68427   5.908  15.173   6.450
 8695POPC   D2A68428   5.878  15.224   6.750
 8695POPC   C3A68429   5.824  15.146   7.050
 8695POPC   C4A68430   5.822  15.196   7.350
 8695POPC   C1B68431   6.036  15.277   6.450
 8695POPC   C2B68432   6.088  15.344   6.750
 8695POPC   C3B68433   6.079  15.296   7.050
 8695POPC   C4B68434   6.121  15.303   7.350
 8696POPC   NC368435  12.837   2.811   5.550
 8696POPC   PO468436  12.875   2.731   5.850
 8696POPC   GL168437  12.866   2.738   6.150
 8696POPC   GL268438  12.909   2.838   6.150
 8696POPC   C1A68439  12.863   2.734   6.450
 8696POPC   D2A68440  12.814   2.789   6.750
 8696POPC   C3A68441  12.840   2.794   7.050
 8696POPC   C4A68442  12.822   2.763   7.350
 8696POPC   C1B68443  12.982   3.004   6.450
 8696POPC   C2B68444  12.914   3.028   6.750
 8696POPC   C3B68445  12.921   2.944   7.050
 8696POPC   C4B68446  12.919   2.991   7.350
 8697POPC   NC368447  15.987  19.793   5.550
 8697POPC   PO468448  15.916  19.828   5.850
 8697POPC   GL168449  15.947  19.792   6.150
 8697POPC   GL268450  16.021  19.916   6.150
 8697POPC   C1A68451  16.002  19.876   6.450
 8697POPC   D2A68452  15.938  19.828   6.750
 8697POPC   C3A68453  15.921  19.801   7.050
 8697POPC   C4A68454  15.943  19.884   7.350
 8697POPC   C1B68455  16.048  20.059   6.450
 8697POPC   C2B68456  16.018  20.052   6.750
 8697POPC   C3B68457  16.076  20.054   7.050
 8697POPC   C4B68458  16.066  20.029   7.350
 8698POPC   NC368459  22.987  31.509   5.550
 8698POPC   PO468460  22.904  31.459   5.850
 8698POPC   GL168461  22.908  31.444   6.150
 8698POPC   GL268462  22.968  31.559   6.150
 8698POPC   C1A68463  22.960  31.438   6.450
 8698POPC   D2A68464  22.943  31.490   6.750
 8698POPC   C3A68465  22.942  31.426   7.050
 8698POPC   C4A68466  22.957  31.446   7.350
 8698POPC   C1B68467  22.944  31.695   6.450
 8698POPC   C2B68468  22.914  31.737   6.750
 8698POPC   C3B68469  22.916  31.752   7.050
 8698POPC   C4B68470  22.859  31.744   7.350
 8699POPC   NC368471  26.020  31.424   5.550
 8699POPC   PO468472  26.066  31.520   5.850
 8699POPC   GL168473  26.045  31.478   6.150
 8699POPC   GL268474  26.174  31.440   6.150
 8699POPC   C1A68475  26.044  31.456   6.450
 8699POPC   D2A68476  26.002  31.430   6.750
 8699POPC   C3A68477  26.037  31.477   7.050
 8699POPC   C4A68478  26.031  31.505   7.350
 8699POPC   C1B68479  26.300  31.410   6.450
 8699POPC   C2B68480  26.266  31.448   6.750
 8699POPC   C3B68481  26.273  31.422   7.050
 8699POPC   C4B68482  26.306  31.385   7.350
 8700POPC   NC368483  32.290  36.133   5.550
 8700POPC   PO468484  32.290  36.107   5.850
 8700POPC   GL168485  32.215  36.129   6.150
 8700POPC   GL268486  32.310  36.234   6.150
 8700POPC   C1A68487  32.232  36.168   6.450
 8700POPC   D2A68488  32.214  36.142   6.750
 8700POPC   C3A68489  32.264  36.079   7.050
 8700POPC   C4A68490  32.207  36.169   7.350
 8700POPC   C1B68491  32.273  36.356   6.450
 8700POPC   C2B68492  32.318  36.375   6.750
 8700POPC   C3B68493  32.314  36.421   7.050
 8700POPC   C4B68494  32.295  36.362   7.350
 8701POPC   NC368495   2.796  16.764   5.550
 8701POPC   PO468496   2.745  16.736   5.850
 8701POPC   GL168497   2.785  16.717   6.150
 8701POPC   GL268498   2.849  16.769   6.150
 8701POPC   C1A68499   2.797  16.709   6.450
 8701POPC   D2A68500   2.739  16.768   6.750
 8701POPC   C3A68501   2.728  16.683   7.050
 8701POPC   C4A68502   2.734  16.765   7.350
 8701POPC   C1B68503   2.989  16.757   6.450
 8701POPC   C2B68504   2.998  16.745   6.750
 8701POPC   C3B68505   3.007  16.738   7.050
 8701POPC   C4B68506   2.978  16.761   7.350
 8702POPC   NC368507  37.713  29.931   5.550
 8702POPC   PO468508  37.653  29.954   5.850
 8702POPC   GL168509  37.706  29.937   6.150
 8702POPC   GL268510  37.775  29.803   6.150
 8702POPC   C1A68511  37.633  29.962   6.450
 8702POPC   D2A68512  37.654  29.964   6.750
 8702POPC   C3A68513  37.720  29.954   7.050
 8702POPC   C4A68514  37.718  29.918   7.350
 8702POPC   C1B68515  37.827  29.732   6.450
 8702POPC   C2B68516  37.849  29.759   6.750
 8702POPC   C3B68517  37.870  29.783   7.050
 8702POPC   C4B68518  37.899  29.716   7.350
 8703POPC   NC368519  29.154   4.361   5.550
 8703POPC   PO468520  29.134   4.353   5.850
 8703POPC   GL168521  29.120   4.304   6.150
 8703POPC   GL268522  29.154   4.187   6.150
 8703POPC   C1A68523  29.100   4.296   6.450
 8703POPC   D2A68524  29.095   4.341   6.750
 8703POPC   C3A68525  29.124   4.287   7.050
 8703POPC   C4A68526  29.153   4.280   7.350
 8703POPC   C1B68527  29.190   4.112   6.450
 8703POPC   C2B68528  29.194   4.025   6.750
 8703POPC   C3B68529  29.173   4.058   7.050
 8703POPC   C4B68530  29.159   4.040   7.350
 8704POPC   NC368531  10.492  22.152   5.550
 8704POPC   PO468532  10.478  22.211   5.850
 8704POPC   GL168533  10.554  22.115   6.150
 8704POPC   GL268534  10.627  22.199   6.150
 8704POPC   C1A68535  10.547  22.126   6.450
 8704POPC   D2A68536  10.518  22.176   6.750
 8704POPC   C3A68537  10.476  22.133   7.050
 8704POPC   C4A68538  10.496  22.176   7.350
 8704POPC   C1B68539  10.793  22.297   6.450
 8704POPC   C2B68540  10.733  22.304   6.750
 8704POPC   C3B68541  10.738  22.266   7.050
 8704POPC   C4B68542  10.708  22.318   7.350
 8705POPC   NC368543  27.602   8.944   5.550
 8705POPC   PO468544  27.553   8.958   5.850
 8705POPC   GL168545  27.561   8.958   6.150
 8705POPC   GL268546  27.503   8.997   6.150
 8705POPC   C1A68547  27.628   8.938   6.450
 8705POPC   D2A68548  27.629   8.961   6.750
 8705POPC   C3A68549  27.556   9.006   7.050
 8705POPC   C4A68550  27.547   8.956   7.350
 8705POPC   C1B68551  27.339   8.988   6.450
 8705POPC   C2B68552  27.376   9.017   6.750
 8705POPC   C3B68553  27.318   8.990   7.050
 8705POPC   C4B68554  27.343   9.042   7.350
 8706POPC   NC368555  27.637   6.695   5.550
 8706POPC   PO468556  27.594   6.598   5.850
 8706POPC   GL168557  27.615   6.631   6.150
 8706POPC   GL268558  27.452   6.711   6.150
 8706POPC   C1A68559  27.640   6.657   6.450
 8706POPC   D2A68560  27.637   6.623   6.750
 8706POPC   C3A68561  27.618   6.639   7.050
 8706POPC   C4A68562  27.587   6.635   7.350
 8706POPC   C1B68563  27.326   6.669   6.450
 8706POPC   C2B68564  27.325   6.651   6.750
 8706POPC   C3B68565  27.353   6.730   7.050
 8706POPC   C4B68566  27.324   6.714   7.350
 8707POPC   NC368567   2.725   9.746   5.550
 8707POPC   PO468568   2.795   9.742   5.850
 8707POPC   GL168569   2.755   9.699   6.150
 8707POPC   GL268570   2.817   9.791   6.150
 8707POPC   C1A68571   2.734   9.785   6.450
 8707POPC   D2A68572   2.729   9.721   6.750
 8707POPC   C3A68573   2.748   9.724   7.050
 8707POPC   C4A68574   2.747   9.759   7.350
 8707POPC   C1B68575   2.979   9.930   6.450
 8707POPC   C2B68576   2.997   9.893   6.750
 8707POPC   C3B68577   2.984   9.890   7.050
 8707POPC   C4B68578   2.998   9.952   7.350
 8708POPC   NC368579   6.645  19.864   5.550
 8708POPC   PO468580   6.653  19.796   5.850
 8708POPC   GL168581   6.668  19.844   6.150
 8708POPC   GL268582   6.748  19.844   6.150
 8708POPC   C1A68583   6.605  19.871   6.450
 8708POPC   D2A68584   6.614  19.800   6.750
 8708POPC   C3A68585   6.658  19.865   7.050
 8708POPC   C4A68586   6.692  19.862   7.350
 8708POPC   C1B68587   6.839  19.957   6.450
 8708POPC   C2B68588   6.897  19.861   6.750
 8708POPC   C3B68589   6.885  19.937   7.050
 8708POPC   C4B68590   6.864  19.899   7.350
 8709POPC   NC368591  20.652  34.600   5.550
 8709POPC   PO468592  20.602  34.532   5.850
 8709POPC   GL168593  20.647  34.541   6.150
 8709POPC   GL268594  20.582  34.748   6.150
 8709POPC   C1A68595  20.639  34.556   6.450
 8709POPC   D2A68596  20.607  34.585   6.750
 8709POPC   C3A68597  20.659  34.537   7.050
 8709POPC   C4A68598  20.635  34.528   7.350
 8709POPC   C1B68599  20.630  34.800   6.450
 8709POPC   C2B68600  20.598  34.796   6.750
 8709POPC   C3B68601  20.620  34.829   7.050
 8709POPC   C4B68602  20.641  34.850   7.350
 8710POPC   NC368603  15.922  43.084   5.550
 8710POPC   PO468604  15.982  43.160   5.850
 8710POPC   GL168605  15.951  43.092   6.150
 8710POPC   GL268606  15.961  42.945   6.150
 8710POPC   C1A68607  15.906  43.151   6.450
 8710POPC   D2A68608  15.948  43.138   6.750
 8710POPC   C3A68609  15.977  43.121   7.050
 8710POPC   C4A68610  15.949  43.102   7.350
 8710POPC   C1B68611  16.015  42.861   6.450
 8710POPC   C2B68612  16.038  42.837   6.750
 8710POPC   C3B68613  16.042  42.905   7.050
 8710POPC   C4B68614  16.058  42.844   7.350
 8711POPC   NC368615  13.625  31.423   5.550
 8711POPC   PO468616  13.666  31.502   5.850
 8711POPC   GL168617  13.637  31.471   6.150
 8711POPC   GL268618  13.696  31.632   6.150
 8711POPC   C1A68619  13.650  31.479   6.450
 8711POPC   D2A68620  13.607  31.521   6.750
 8711POPC   C3A68621  13.613  31.494   7.050
 8711POPC   C4A68622  13.639  31.471   7.350
 8711POPC   C1B68623  13.679  31.765   6.450
 8711POPC   C2B68624  13.661  31.742   6.750
 8711POPC   C3B68625  13.632  31.746   7.050
 8711POPC   C4B68626  13.659  31.738   7.350
 8712POPC   NC368627  44.676  37.650   5.550
 8712POPC   PO468628  44.688  37.713   5.850
 8712POPC   GL168629  44.651  37.638   6.150
 8712POPC   GL268630  44.762  37.606   6.150
 8712POPC   C1A68631  44.640  37.719   6.450
 8712POPC   D2A68632  44.646  37.653   6.750
 8712POPC   C3A68633  44.675  37.655   7.050
 8712POPC   C4A68634  44.703  37.709   7.350
 8712POPC   C1B68635  44.862  37.599   6.450
 8712POPC   C2B68636  44.871  37.568   6.750
 8712POPC   C3B68637  44.861  37.662   7.050
 8712POPC   C4B68638  44.939  37.659   7.350
 8713POPC   NC368639  17.548  41.601   5.550
 8713POPC   PO468640  17.517  41.572   5.850
 8713POPC   GL168641  17.500  41.582   6.150
 8713POPC   GL268642  17.581  41.662   6.150
 8713POPC   C1A68643  17.474  41.531   6.450
 8713POPC   D2A68644  17.556  41.588   6.750
 8713POPC   C3A68645  17.472  41.533   7.050
 8713POPC   C4A68646  17.521  41.599   7.350
 8713POPC   C1B68647  17.607  41.721   6.450
 8713POPC   C2B68648  17.642  41.731   6.750
 8713POPC   C3B68649  17.663  41.751   7.050
 8713POPC   C4B68650  17.664  41.720   7.350
 8714POPC   NC368651  31.467  36.888   5.550
 8714POPC   PO468652  31.494  36.922   5.850
 8714POPC   GL168653  31.490  36.922   6.150
 8714POPC   GL268654  31.607  36.817   6.150
 8714POPC   C1A68655  31.439  36.868   6.450
 8714POPC   D2A68656  31.448  36.900   6.750
 8714POPC   C3A68657  31.466  36.882   7.050
 8714POPC   C4A68658  31.429  36.863   7.350
 8714POPC   C1B68659  31.669  36.811   6.450
 8714POPC   C2B68660  31.733  36.864   6.750
 8714POPC   C3B68661  31.665  36.850   7.050
 8714POPC   C4B68662  31.660  36.801   7.350
 8715POPC   NC368663  19.858   1.222   5.550
 8715POPC   PO468664  19.868   1.227   5.850
 8715POPC   GL168665  19.879   1.204   6.150
 8715POPC   GL268666  19.833   1.138   6.150
 8715POPC   C1A68667  19.794   1.255   6.450
 8715POPC   D2A68668  19.851   1.230   6.750
 8715POPC   C3A68669  19.823   1.262   7.050
 8715POPC   C4A68670  19.831   1.216   7.350
 8715POPC   C1B68671  19.904   0.984   6.450
 8715POPC   C2B68672  19.818   0.919   6.750
 8715POPC   C3B68673  19.836   0.990   7.050
 8715POPC   C4B68674  19.834   0.992   7.350
 8716POPC   NC368675  12.091  29.156   5.550
 8716POPC   PO468676  12.028  29.164   5.850
 8716POPC   GL168677  12.034  29.125   6.150
 8716POPC   GL268678  12.016  28.998   6.150
 8716POPC   C1A68679  12.041  29.118   6.450
 8716POPC   D2A68680  12.032  29.146   6.750
 8716POPC   C3A68681  12.066  29.101   7.050
 8716POPC   C4A68682  12.030  29.127   7.350
 8716POPC   C1B68683  11.973  28.941   6.450
 8716POPC   C2B68684  11.965  28.872   6.750
 8716POPC   C3B68685  11.939  28.891   7.050
 8716POPC   C4B68686  11.940  28.932   7.350
 8717POPC   NC368687  15.906  31.447   5.550
 8717POPC   PO468688  15.948  31.496   5.850
 8717POPC   GL168689  15.984  31.472   6.150
 8717POPC   GL268690  15.866  31.597   6.150
 8717POPC   C1A68691  15.984  31.509   6.450
 8717POPC   D2A68692  15.923  31.428   6.750
 8717POPC   C3A68693  15.919  31.436   7.050
 8717POPC   C4A68694  15.937  31.477   7.350
 8717POPC   C1B68695  15.817  31.655   6.450
 8717POPC   C2B68696  15.810  31.654   6.750
 8717POPC   C3B68697  15.765  31.693   7.050
 8717POPC   C4B68698  15.795  31.700   7.350
 8718POPC   NC368699  38.434  10.496   5.550
 8718POPC   PO468700  38.451  10.501   5.850
 8718POPC   GL168701  38.409  10.481   6.150
 8718POPC   GL268702  38.552  10.607   6.150
 8718POPC   C1A68703  38.453  10.483   6.450
 8718POPC   D2A68704  38.405  10.550   6.750
 8718POPC   C3A68705  38.476  10.504   7.050
 8718POPC   C4A68706  38.448  10.504   7.350
 8718POPC   C1B68707  38.616  10.675   6.450
 8718POPC   C2B68708  38.688  10.644   6.750
 8718POPC   C3B68709  38.596  10.657   7.050
 8718POPC   C4B68710  38.688  10.718   7.350
 8719POPC   NC368711  19.092  30.654   5.550
 8719POPC   PO468712  19.100  30.703   5.850
 8719POPC   GL168713  19.026  30.740   6.150
 8719POPC   GL268714  19.232  30.740   6.150
 8719POPC   C1A68715  19.054  30.719   6.450
 8719POPC   D2A68716  19.096  30.717   6.750
 8719POPC   C3A68717  19.063  30.669   7.050
 8719POPC   C4A68718  19.019  30.676   7.350
 8719POPC   C1B68719  19.259  30.719   6.450
 8719POPC   C2B68720  19.311  30.723   6.750
 8719POPC   C3B68721  19.258  30.758   7.050
 8719POPC   C4B68722  19.323  30.715   7.350
 8720POPC   NC368723  21.412  12.861   5.550
 8720POPC   PO468724  21.348  12.859   5.850
 8720POPC   GL168725  21.389  12.833   6.150
 8720POPC   GL268726  21.305  12.834   6.150
 8720POPC   C1A68727  21.367  12.847   6.450
 8720POPC   D2A68728  21.363  12.806   6.750
 8720POPC   C3A68729  21.351  12.865   7.050
 8720POPC   C4A68730  21.390  12.881   7.350
 8720POPC   C1B68731  21.180  12.670   6.450
 8720POPC   C2B68732  21.165  12.708   6.750
 8720POPC   C3B68733  21.181  12.760   7.050
 8720POPC   C4B68734  21.205  12.725   7.350
 8721POPC   NC368735  32.284  23.760   5.550
 8721POPC   PO468736  32.262  23.670   5.850
 8721POPC   GL168737  32.275  23.696   6.150
 8721POPC   GL268738  32.327  23.726   6.150
 8721POPC   C1A68739  32.239  23.735   6.450
 8721POPC   D2A68740  32.275  23.741   6.750
 8721POPC   C3A68741  32.238  23.669   7.050
 8721POPC   C4A68742  32.274  23.761   7.350
 8721POPC   C1B68743  32.464  23.731   6.450
 8721POPC   C2B68744  32.478  23.686   6.750
 8721POPC   C3B68745  32.504  23.708   7.050
 8721POPC   C4B68746  32.530  23.746   7.350
 8722POPC   NC368747   8.162  31.503   5.550
 8722POPC   PO468748   8.243  31.447   5.850
 8722POPC   GL168749   8.213  31.474   6.150
 8722POPC   GL268750   8.204  31.363   6.150
 8722POPC   C1A68751   8.205  31.502   6.450
 8722POPC   D2A68752   8.228  31.506   6.750
 8722POPC   C3A68753   8.214  31.430   7.050
 8722POPC   C4A68754   8.173  31.515   7.350
 8722POPC   C1B68755   8.218  31.218   6.450
 8722POPC   C2B68756   8.205  31.228   6.750
 8722POPC   C3B68757   8.244  31.270   7.050
 8722POPC   C4B68758   8.260  31.270   7.350
 8723POPC   NC368759  10.516   3.499   5.550
 8723POPC   PO468760  10.478   3.511   5.850
 8723POPC   GL168761  10.525   3.540   6.150
 8723POPC   GL268762  10.518   3.430   6.150
 8723POPC   C1A68763  10.567   3.512   6.450
 8723POPC   D2A68764  10.556   3.567   6.750
 8723POPC   C3A68765  10.491   3.582   7.050
 8723POPC   C4A68766  10.553   3.526   7.350
 8723POPC   C1B68767  10.568   3.318   6.450
 8723POPC   C2B68768  10.490   3.336   6.750
 8723POPC   C3B68769  10.509   3.308   7.050
 8723POPC   C4B68770  10.475   3.316   7.350
 8724POPC   NC368771  22.147   4.273   5.550
 8724POPC   PO468772  22.195   4.367   5.850
 8724POPC   GL168773  22.133   4.366   6.150
 8724POPC   GL268774  22.272   4.243   6.150
 8724POPC   C1A68775  22.164   4.304   6.450
 8724POPC   D2A68776  22.126   4.310   6.750
 8724POPC   C3A68777  22.133   4.301   7.050
 8724POPC   C4A68778  22.191   4.293   7.350
 8724POPC   C1B68779  22.245   4.135   6.450
 8724POPC   C2B68780  22.265   4.127   6.750
 8724POPC   C3B68781  22.245   4.053   7.050
 8724POPC   C4B68782  22.296   4.113   7.350
 8725POPC   NC368783  10.513  35.306   5.550
 8725POPC   PO468784  10.491  35.369   5.850
 8725POPC   GL168785  10.535  35.336   6.150
 8725POPC   GL268786  10.380  35.373   6.150
 8725POPC   C1A68787  10.491  35.385   6.450
 8725POPC   D2A68788  10.538  35.385   6.750
 8725POPC   C3A68789  10.508  35.353   7.050
 8725POPC   C4A68790  10.498  35.375   7.350
 8725POPC   C1B68791  10.314  35.381   6.450
 8725POPC   C2B68792  10.248  35.345   6.750
 8725POPC   C3B68793  10.303  35.395   7.050
 8725POPC   C4B68794  10.258  35.339   7.350
 8726POPC   NC368795  19.054  26.045   5.550
 8726POPC   PO468796  19.099  26.042   5.850
 8726POPC   GL168797  19.105  26.057   6.150
 8726POPC   GL268798  19.095  25.939   6.150
 8726POPC   C1A68799  19.019  26.057   6.450
 8726POPC   D2A68800  19.055  26.065   6.750
 8726POPC   C3A68801  19.077  26.051   7.050
 8726POPC   C4A68802  19.010  26.071   7.350
 8726POPC   C1B68803  19.173  25.776   6.450
 8726POPC   C2B68804  19.134  25.866   6.750
 8726POPC   C3B68805  19.144  25.808   7.050
 8726POPC   C4B68806  19.183  25.851   7.350
 8727POPC   NC368807  21.359   1.974   5.550
 8727POPC   PO468808  21.418   1.956   5.850
 8727POPC   GL168809  21.341   1.959   6.150
 8727POPC   GL268810  21.339   2.084   6.150
 8727POPC   C1A68811  21.393   2.008   6.450
 8727POPC   D2A68812  21.385   2.000   6.750
 8727POPC   C3A68813  21.406   2.038   7.050
 8727POPC   C4A68814  21.415   1.954   7.350
 8727POPC   C1B68815  21.188   2.183   6.450
 8727POPC   C2B68816  21.231   2.145   6.750
 8727POPC   C3B68817  21.216   2.105   7.050
 8727POPC   C4B68818  21.184   2.149   7.350
 8728POPC   NC368819  15.974   2.786   5.550
 8728POPC   PO468820  15.976   2.761   5.850
 8728POPC   GL168821  15.951   2.777   6.150
 8728POPC   GL268822  15.788   2.755   6.150
 8728POPC   C1A68823  15.912   2.809   6.450
 8728POPC   D2A68824  15.973   2.759   6.750
 8728POPC   C3A68825  15.974   2.719   7.050
 8728POPC   C4A68826  15.948   2.748   7.350
 8728POPC   C1B68827  15.712   2.786   6.450
 8728POPC   C2B68828  15.724   2.837   6.750
 8728POPC   C3B68829  15.691   2.806   7.050
 8728POPC   C4B68830  15.668   2.842   7.350
 8729POPC   NC368831  36.129  12.837   5.550
 8729POPC   PO468832  36.170  12.864   5.850
 8729POPC   GL168833  36.078  12.822   6.150
 8729POPC   GL268834  36.241  12.827   6.150
 8729POPC   C1A68835  36.133  12.883   6.450
 8729POPC   D2A68836  36.080  12.825   6.750
 8729POPC   C3A68837  36.123  12.819   7.050
 8729POPC   C4A68838  36.132  12.869   7.350
 8729POPC   C1B68839  36.364  12.808   6.450
 8729POPC   C2B68840  36.412  12.788   6.750
 8729POPC   C3B68841  36.417  12.866   7.050
 8729POPC   C4B68842  36.359  12.788   7.350
 8730POPC   NC368843   5.106   5.888   5.550
 8730POPC   PO468844   5.116   5.917   5.850
 8730POPC   GL168845   5.109   5.895   6.150
 8730POPC   GL268846   4.957   5.797   6.150
 8730POPC   C1A68847   5.134   5.833   6.450
 8730POPC   D2A68848   5.065   5.842   6.750
 8730POPC   C3A68849   5.058   5.894   7.050
 8730POPC   C4A68850   5.044   5.824   7.350
 8730POPC   C1B68851   4.856   5.860   6.450
 8730POPC   C2B68852   4.848   5.790   6.750
 8730POPC   C3B68853   4.859   5.811   7.050
 8730POPC   C4B68854   4.891   5.793   7.350
 8731POPC   NC368855  26.010  36.942   5.550
 8731POPC   PO468856  26.018  36.889   5.850
 8731POPC   GL168857  25.994  36.945   6.150
 8731POPC   GL268858  26.117  37.044   6.150
 8731POPC   C1A68859  26.033  36.916   6.450
 8731POPC   D2A68860  26.009  36.902   6.750
 8731POPC   C3A68861  26.034  36.877   7.050
 8731POPC   C4A68862  26.085  36.879   7.350
 8731POPC   C1B68863  26.082  37.153   6.450
 8731POPC   C2B68864  26.167  37.143   6.750
 8731POPC   C3B68865  26.166  37.187   7.050
 8731POPC   C4B68866  26.141  37.142   7.350
 8732POPC   NC368867   8.210  12.814   5.550
 8732POPC   PO468868   8.241  12.897   5.850
 8732POPC   GL168869   8.210  12.891   6.150
 8732POPC   GL268870   8.301  12.830   6.150
 8732POPC   C1A68871   8.158  12.840   6.450
 8732POPC   D2A68872   8.222  12.808   6.750
 8732POPC   C3A68873   8.227  12.888   7.050
 8732POPC   C4A68874   8.199  12.844   7.350
 8732POPC   C1B68875   8.426  12.907   6.450
 8732POPC   C2B68876   8.456  12.879   6.750
 8732POPC   C3B68877   8.485  12.843   7.050
 8732POPC   C4B68878   8.420  12.876   7.350
 8733POPC   NC368879  43.156  16.735   5.550
 8733POPC   PO468880  43.081  16.729   5.850
 8733POPC   GL168881  43.158  16.743   6.150
 8733POPC   GL268882  42.976  16.628   6.150
 8733POPC   C1A68883  43.102  16.712   6.450
 8733POPC   D2A68884  43.068  16.706   6.750
 8733POPC   C3A68885  43.113  16.730   7.050
 8733POPC   C4A68886  43.063  16.721   7.350
 8733POPC   C1B68887  42.917  16.524   6.450
 8733POPC   C2B68888  42.937  16.531   6.750
 8733POPC   C3B68889  42.926  16.612   7.050
 8733POPC   C4B68890  42.922  16.586   7.350
 8734POPC   NC368891  37.697  37.722   5.550
 8734POPC   PO468892  37.636  37.707   5.850
 8734POPC   GL168893  37.673  37.649   6.150
 8734POPC   GL268894  37.816  37.749   6.150
 8734POPC   C1A68895  37.676  37.710   6.450
 8734POPC   D2A68896  37.724  37.699   6.750
 8734POPC   C3A68897  37.678  37.693   7.050
 8734POPC   C4A68898  37.669  37.713   7.350
 8734POPC   C1B68899  37.887  37.697   6.450
 8734POPC   C2B68900  37.938  37.730   6.750
 8734POPC   C3B68901  37.896  37.749   7.050
 8734POPC   C4B68902  37.963  37.779   7.350
 8735POPC   NC368903   3.562   2.783   5.550
 8735POPC   PO468904   3.528   2.754   5.850
 8735POPC   GL168905   3.540   2.744   6.150
 8735POPC   GL268906   3.655   2.752   6.150
 8735POPC   C1A68907   3.577   2.779   6.450
 8735POPC   D2A68908   3.574   2.752   6.750
 8735POPC   C3A68909   3.491   2.784   7.050
 8735POPC   C4A68910   3.542   2.765   7.350
 8735POPC   C1B68911   3.810   2.710   6.450
 8735POPC   C2B68912   3.784   2.715   6.750
 8735POPC   C3B68913   3.760   2.676   7.050
 8735POPC   C4B68914   3.810   2.699   7.350
 8736POPC   NC368915  26.013   4.354   5.550
 8736POPC   PO468916  26.078   4.298   5.850
 8736POPC   GL168917  26.075   4.348   6.150
 8736POPC   GL268918  26.131   4.429   6.150
 8736POPC   C1A68919  26.053   4.359   6.450
 8736POPC   D2A68920  26.061   4.294   6.750
 8736POPC   C3A68921  26.072   4.330   7.050
 8736POPC   C4A68922  26.026   4.327   7.350
 8736POPC   C1B68923  26.162   4.469   6.450
 8736POPC   C2B68924  26.188   4.480   6.750
 8736POPC   C3B68925  26.251   4.511   7.050
 8736POPC   C4B68926  26.233   4.526   7.350
 8737POPC   NC368927  31.478  44.618   5.550
 8737POPC   PO468928  31.463  44.619   5.850
 8737POPC   GL168929  31.452  44.694   6.150
 8737POPC   GL268930  31.434  44.736   6.150
 8737POPC   C1A68931  31.496  44.675   6.450
 8737POPC   D2A68932  31.449  44.705   6.750
 8737POPC   C3A68933  31.476  44.683   7.050
 8737POPC   C4A68934  31.427  44.701   7.350
 8737POPC   C1B68935  31.317  44.873   6.450
 8737POPC   C2B68936  31.325  44.818   6.750
 8737POPC   C3B68937  31.338  44.878   7.050
 8737POPC   C4B68938  31.304  44.814   7.350
 8738POPC   NC368939   5.845  42.343   5.550
 8738POPC   PO468940   5.885  42.377   5.850
 8738POPC   GL168941   5.842  42.375   6.150
 8738POPC   GL268942   5.733  42.335   6.150
 8738POPC   C1A68943   5.831  42.352   6.450
 8738POPC   D2A68944   5.865  42.348   6.750
 8738POPC   C3A68945   5.917  42.323   7.050
 8738POPC   C4A68946   5.917  42.314   7.350
 8738POPC   C1B68947   5.584  42.387   6.450
 8738POPC   C2B68948   5.592  42.355   6.750
 8738POPC   C3B68949   5.623  42.365   7.050
 8738POPC   C4B68950   5.604  42.384   7.350
 8739POPC   NC368951   3.516   8.212   5.550
 8739POPC   PO468952   3.524   8.186   5.850
 8739POPC   GL168953   3.521   8.233   6.150
 8739POPC   GL268954   3.535   8.096   6.150
 8739POPC   C1A68955   3.548   8.210   6.450
 8739POPC   D2A68956   3.561   8.238   6.750
 8739POPC   C3A68957   3.552   8.149   7.050
 8739POPC   C4A68958   3.527   8.178   7.350
 8739POPC   C1B68959   3.509   7.916   6.450
 8739POPC   C2B68960   3.485   7.950   6.750
 8739POPC   C3B68961   3.524   7.956   7.050
 8739POPC   C4B68962   3.533   7.904   7.350
 8740POPC   NC368963  25.302  28.325   5.550
 8740POPC   PO468964  25.239  28.323   5.850
 8740POPC   GL168965  25.233  28.346   6.150
 8740POPC   GL268966  25.151  28.243   6.150
 8740POPC   C1A68967  25.281  28.338   6.450
 8740POPC   D2A68968  25.248  28.393   6.750
 8740POPC   C3A68969  25.224  28.360   7.050
 8740POPC   C4A68970  25.275  28.365   7.350
 8740POPC   C1B68971  25.114  28.225   6.450
 8740POPC   C2B68972  25.054  28.198   6.750
 8740POPC   C3B68973  25.087  28.217   7.050
 8740POPC   C4B68974  25.063  28.219   7.350
 8741POPC   NC368975  13.630  39.225   5.550
 8741POPC   PO468976  13.661  39.191   5.850
 8741POPC   GL168977  13.638  39.262   6.150
 8741POPC   GL268978  13.791  39.167   6.150
 8741POPC   C1A68979  13.587  39.227   6.450
 8741POPC   D2A68980  13.578  39.184   6.750
 8741POPC   C3A68981  13.673  39.230   7.050
 8741POPC   C4A68982  13.645  39.183   7.350
 8741POPC   C1B68983  13.852  39.183   6.450
 8741POPC   C2B68984  13.818  39.119   6.750
 8741POPC   C3B68985  13.828  39.142   7.050
 8741POPC   C4B68986  13.898  39.154   7.350
 8742POPC   NC368987  44.688  18.251   5.550
 8742POPC   PO468988  44.693  18.315   5.850
 8742POPC   GL168989  44.614  18.259   6.150
 8742POPC   GL268990  44.513  18.308   6.150
 8742POPC   C1A68991  44.642  18.273   6.450
 8742POPC   D2A68992  44.704  18.253   6.750
 8742POPC   C3A68993  44.639  18.293   7.050
 8742POPC   C4A68994  44.637  18.273   7.350
 8742POPC   C1B68995  44.448  18.228   6.450
 8742POPC   C2B68996  44.456  18.293   6.750
 8742POPC   C3B68997  44.434  18.297   7.050
 8742POPC   C4B68998  44.448  18.306   7.350
 8743POPC   NC368999  39.200  19.814   5.550
 8743POPC   PO469000  39.202  19.786   5.850
 8743POPC   GL169001  39.260  19.872   6.150
 8743POPC   GL269002  39.179  19.736   6.150
 8743POPC   C1A69003  39.251  19.862   6.450
 8743POPC   D2A69004  39.225  19.824   6.750
 8743POPC   C3A69005  39.198  19.839   7.050
 8743POPC   C4A69006  39.267  19.879   7.350
 8743POPC   C1B69007  39.065  19.593   6.450
 8743POPC   C2B69008  39.042  19.665   6.750
 8743POPC   C3B69009  39.058  19.661   7.050
 8743POPC   C4B69010  39.059  19.634   7.350
 8744POPC   NC369011  28.376   7.377   5.550
 8744POPC   PO469012  28.375   7.401   5.850
 8744POPC   GL169013  28.350   7.469   6.150
 8744POPC   GL269014  28.314   7.350   6.150
 8744POPC   C1A69015  28.388   7.455   6.450
 8744POPC   D2A69016  28.354   7.410   6.750
 8744POPC   C3A69017  28.417   7.470   7.050
 8744POPC   C4A69018  28.373   7.419   7.350
 8744POPC   C1B69019  28.220   7.244   6.450
 8744POPC   C2B69020  28.210   7.270   6.750
 8744POPC   C3B69021  28.174   7.280   7.050
 8744POPC   C4B69022  28.206   7.283   7.350
 8745POPC   NC369023   5.087  29.105   5.550
 8745POPC   PO469024   5.135  29.142   5.850
 8745POPC   GL169025   5.099  29.137   6.150
 8745POPC   GL269026   5.205  29.233   6.150
 8745POPC   C1A69027   5.129  29.116   6.450
 8745POPC   D2A69028   5.067  29.178   6.750
 8745POPC   C3A69029   5.065  29.105   7.050
 8745POPC   C4A69030   5.118  29.184   7.350
 8745POPC   C1B69031   5.200  29.367   6.450
 8745POPC   C2B69032   5.258  29.356   6.750
 8745POPC   C3B69033   5.274  29.329   7.050
 8745POPC   C4B69034   5.257  29.347   7.350
 8746POPC   NC369035  33.815   1.177   5.550
 8746POPC   PO469036  33.831   1.176   5.850
 8746POPC   GL169037  33.778   1.176   6.150
 8746POPC   GL269038  33.813   1.338   6.150
 8746POPC   C1A69039  33.776   1.238   6.450
 8746POPC   D2A69040  33.763   1.261   6.750
 8746POPC   C3A69041  33.849   1.171   7.050
 8746POPC   C4A69042  33.805   1.225   7.350
 8746POPC   C1B69043  33.934   1.450   6.450
 8746POPC   C2B69044  33.902   1.460   6.750
 8746POPC   C3B69045  33.877   1.474   7.050
 8746POPC   C4B69046  33.912   1.444   7.350
 8747POPC   NC369047  10.530  23.761   5.550
 8747POPC   PO469048  10.497  23.674   5.850
 8747POPC   GL169049  10.495  23.694   6.150
 8747POPC   GL269050  10.600  23.626   6.150
 8747POPC   C1A69051  10.548  23.763   6.450
 8747POPC   D2A69052  10.489  23.666   6.750
 8747POPC   C3A69053  10.528  23.755   7.050
 8747POPC   C4A69054  10.503  23.669   7.350
 8747POPC   C1B69055  10.562  23.488   6.450
 8747POPC   C2B69056  10.569  23.488   6.750
 8747POPC   C3B69057  10.593  23.484   7.050
 8747POPC   C4B69058  10.596  23.472   7.350
 8748POPC   NC369059  12.851  35.399   5.550
 8748POPC   PO469060  12.822  35.363   5.850
 8748POPC   GL169061  12.877  35.384   6.150
 8748POPC   GL269062  12.947  35.414   6.150
 8748POPC   C1A69063  12.896  35.341   6.450
 8748POPC   D2A69064  12.828  35.315   6.750
 8748POPC   C3A69065  12.810  35.331   7.050
 8748POPC   C4A69066  12.841  35.373   7.350
 8748POPC   C1B69067  13.066  35.395   6.450
 8748POPC   C2B69068  13.066  35.421   6.750
 8748POPC   C3B69069  13.080  35.435   7.050
 8748POPC   C4B69070  13.115  35.385   7.350
 8749POPC   NC369071  21.347  18.281   5.550
 8749POPC   PO469072  21.364  18.238   5.850
 8749POPC   GL169073  21.436  18.263   6.150
 8749POPC   GL269074  21.391  18.449   6.150
 8749POPC   C1A69075  21.406  18.283   6.450
 8749POPC   D2A69076  21.429  18.242   6.750
 8749POPC   C3A69077  21.346  18.268   7.050
 8749POPC   C4A69078  21.425  18.273   7.350
 8749POPC   C1B69079  21.403  18.569   6.450
 8749POPC   C2B69080  21.472  18.526   6.750
 8749POPC   C3B69081  21.463  18.475   7.050
 8749POPC   C4B69082  21.413  18.510   7.350
 8750POPC   NC369083   6.660  30.713   5.550
 8750POPC   PO469084   6.627  30.741   5.850
 8750POPC   GL169085   6.684  30.652   6.150
 8750POPC   GL269086   6.810  30.735   6.150
 8750POPC   C1A69087   6.605  30.738   6.450
 8750POPC   D2A69088   6.653  30.668   6.750
 8750POPC   C3A69089   6.634  30.726   7.050
 8750POPC   C4A69090   6.637  30.736   7.350
 8750POPC   C1B69091   6.899  30.714   6.450
 8750POPC   C2B69092   6.940  30.700   6.750
 8750POPC   C3B69093   6.906  30.710   7.050
 8750POPC   C4B69094   6.893  30.696   7.350
 8751POPC   NC369095   1.979  37.721   5.550
 8751POPC   PO469096   2.010  37.659   5.850
 8751POPC   GL169097   1.974  37.654   6.150
 8751POPC   GL269098   2.114  37.789   6.150
 8751POPC   C1A69099   1.992  37.688   6.450
 8751POPC   D2A69100   1.971  37.677   6.750
 8751POPC   C3A69101   1.942  37.650   7.050
 8751POPC   C4A69102   1.942  37.676   7.350
 8751POPC   C1B69103   2.168  37.856   6.450
 8751POPC   C2B69104   2.153  37.838   6.750
 8751POPC   C3B69105   2.158  37.881   7.050
 8751POPC   C4B69106   2.132  37.841   7.350
 8752POPC   NC369107   9.791  30.738   5.550
 8752POPC   PO469108   9.728  30.680   5.850
 8752POPC   GL169109   9.798  30.654   6.150
 8752POPC   GL269110   9.584  30.693   6.150
 8752POPC   C1A69111   9.710  30.650   6.450
 8752POPC   D2A69112   9.749  30.735   6.750
 8752POPC   C3A69113   9.702  30.741   7.050
 8752POPC   C4A69114   9.728  30.711   7.350
 8752POPC   C1B69115   9.531  30.808   6.450
 8752POPC   C2B69116   9.560  30.802   6.750
 8752POPC   C3B69117   9.537  30.731   7.050
 8752POPC   C4B69118   9.465  30.769   7.350
 8753POPC   NC369119  19.876   8.182   5.550
 8753POPC   PO469120  19.874   8.180   5.850
 8753POPC   GL169121  19.806   8.182   6.150
 8753POPC   GL269122  19.957   8.193   6.150
 8753POPC   C1A69123  19.884   8.184   6.450
 8753POPC   D2A69124  19.819   8.240   6.750
 8753POPC   C3A69125  19.831   8.238   7.050
 8753POPC   C4A69126  19.850   8.159   7.350
 8753POPC   C1B69127  20.120   8.265   6.450
 8753POPC   C2B69128  20.117   8.207   6.750
 8753POPC   C3B69129  20.084   8.270   7.050
 8753POPC   C4B69130  20.045   8.210   7.350
 8754POPC   NC369131  32.225  17.535   5.550
 8754POPC   PO469132  32.238  17.513   5.850
 8754POPC   GL169133  32.296  17.506   6.150
 8754POPC   GL269134  32.163  17.584   6.150
 8754POPC   C1A69135  32.237  17.535   6.450
 8754POPC   D2A69136  32.239  17.537   6.750
 8754POPC   C3A69137  32.220  17.529   7.050
 8754POPC   C4A69138  32.250  17.511   7.350
 8754POPC   C1B69139  32.114  17.696   6.450
 8754POPC   C2B69140  32.150  17.766   6.750
 8754POPC   C3B69141  32.191  17.751   7.050
 8754POPC   C4B69142  32.172  17.701   7.350
 8755POPC   NC369143  15.934  30.722   5.550
 8755POPC   PO469144  15.919  30.742   5.850
 8755POPC   GL169145  16.004  30.654   6.150
 8755POPC   GL269146  16.048  30.712   6.150
 8755POPC   C1A69147  15.917  30.707   6.450
 8755POPC   D2A69148  15.949  30.698   6.750
 8755POPC   C3A69149  15.965  30.704   7.050
 8755POPC   C4A69150  15.967  30.738   7.350
 8755POPC   C1B69151  16.230  30.760   6.450
 8755POPC   C2B69152  16.205  30.788   6.750
 8755POPC   C3B69153  16.173  30.767   7.050
 8755POPC   C4B69154  16.204  30.804   7.350
 8756POPC   NC369155  21.434  22.940   5.550
 8756POPC   PO469156  21.420  22.905   5.850
 8756POPC   GL169157  21.375  22.924   6.150
 8756POPC   GL269158  21.524  22.950   6.150
 8756POPC   C1A69159  21.374  22.912   6.450
 8756POPC   D2A69160  21.436  22.924   6.750
 8756POPC   C3A69161  21.343  22.903   7.050
 8756POPC   C4A69162  21.389  22.906   7.350
 8756POPC   C1B69163  21.643  23.048   6.450
 8756POPC   C2B69164  21.661  23.063   6.750
 8756POPC   C3B69165  21.569  23.038   7.050
 8756POPC   C4B69166  21.572  23.055   7.350
 8757POPC   NC369167  14.441  26.064   5.550
 8757POPC   PO469168  14.406  26.033   5.850
 8757POPC   GL169169  14.436  26.023   6.150
 8757POPC   GL269170  14.545  25.933   6.150
 8757POPC   C1A69171  14.355  25.996   6.450
 8757POPC   D2A69172  14.407  26.050   6.750
 8757POPC   C3A69173  14.377  26.003   7.050
 8757POPC   C4A69174  14.440  26.051   7.350
 8757POPC   C1B69175  14.589  25.919   6.450
 8757POPC   C2B69176  14.595  25.899   6.750
 8757POPC   C3B69177  14.648  25.915   7.050
 8757POPC   C4B69178  14.655  25.903   7.350
 8758POPC   NC369179  17.498  12.125   5.550
 8758POPC   PO469180  17.471  12.103   5.850
 8758POPC   GL169181  17.527  12.101   6.150
 8758POPC   GL269182  17.642  12.053   6.150
 8758POPC   C1A69183  17.542  12.122   6.450
 8758POPC   D2A69184  17.513  12.106   6.750
 8758POPC   C3A69185  17.511  12.115   7.050
 8758POPC   C4A69186  17.519  12.071   7.350
 8758POPC   C1B69187  17.720  11.936   6.450
 8758POPC   C2B69188  17.698  11.916   6.750
 8758POPC   C3B69189  17.754  11.925   7.050
 8758POPC   C4B69190  17.759  11.892   7.350
 8759POPC   NC369191  25.278  42.334   5.550
 8759POPC   PO469192  25.223  42.286   5.850
 8759POPC   GL169193  25.297  42.305   6.150
 8759POPC   GL269194  25.113  42.277   6.150
 8759POPC   C1A69195  25.295  42.302   6.450
 8759POPC   D2A69196  25.273  42.374   6.750
 8759POPC   C3A69197  25.236  42.334   7.050
 8759POPC   C4A69198  25.291  42.366   7.350
 8759POPC   C1B69199  25.065  42.232   6.450
 8759POPC   C2B69200  25.047  42.321   6.750
 8759POPC   C3B69201  25.037  42.282   7.050
 8759POPC   C4B69202  25.033  42.279   7.350
 8760POPC   NC369203  13.625   8.225   5.550
 8760POPC   PO469204  13.618   8.173   5.850
 8760POPC   GL169205  13.599   8.226   6.150
 8760POPC   GL269206  13.526   8.166   6.150
 8760POPC   C1A69207  13.615   8.149   6.450
 8760POPC   D2A69208  13.657   8.159   6.750
 8760POPC   C3A69209  13.593   8.244   7.050
 8760POPC   C4A69210  13.674   8.162   7.350
 8760POPC   C1B69211  13.430   8.072   6.450
 8760POPC   C2B69212  13.404   8.053   6.750
 8760POPC   C3B69213  13.421   8.061   7.050
 8760POPC   C4B69214  13.393   8.042   7.350
 8761POPC   NC369215  32.214  22.179   5.550
 8761POPC   PO469216  32.253  22.165   5.850
 8761POPC   GL169217  32.237  22.121   6.150
 8761POPC   GL269218  32.106  22.185   6.150
 8761POPC   C1A69219  32.282  22.154   6.450
 8761POPC   D2A69220  32.292  22.192   6.750
 8761POPC   C3A69221  32.247  22.195   7.050
 8761POPC   C4A69222  32.273  22.211   7.350
 8761POPC   C1B69223  31.977  22.152   6.450
 8761POPC   C2B69224  31.962  22.154   6.750
 8761POPC   C3B69225  32.019  22.134   7.050
 8761POPC   C4B69226  31.999  22.155   7.350
 8762POPC   NC369227  42.380  19.080   5.550
 8762POPC   PO469228  42.309  19.054   5.850
 8762POPC   GL169229  42.295  19.035   6.150
 8762POPC   GL269230  42.307  19.209   6.150
 8762POPC   C1A69231  42.377  19.033   6.450
 8762POPC   D2A69232  42.291  19.094   6.750
 8762POPC   C3A69233  42.288  19.020   7.050
 8762POPC   C4A69234  42.330  19.028   7.350
 8762POPC   C1B69235  42.313  19.291   6.450
 8762POPC   C2B69236  42.312  19.338   6.750
 8762POPC   C3B69237  42.341  19.341   7.050
 8762POPC   C4B69238  42.353  19.325   7.350
 8763POPC   NC369239   8.937  19.872   5.550
 8763POPC   PO469240   8.999  19.844   5.850
 8763POPC   GL169241   8.930  19.833   6.150
 8763POPC   GL269242   9.014  19.760   6.150
 8763POPC   C1A69243   8.931  19.793   6.450
 8763POPC   D2A69244   8.931  19.787   6.750
 8763POPC   C3A69245   8.975  19.816   7.050
 8763POPC   C4A69246   8.996  19.832   7.350
 8763POPC   C1B69247   9.002  19.609   6.450
 8763POPC   C2B69248   9.032  19.581   6.750
 8763POPC   C3B69249   8.998  19.627   7.050
 8763POPC   C4B69250   8.999  19.595   7.350
 8764POPC   NC369251  16.713  34.601   5.550
 8764POPC   PO469252  16.767  34.547   5.850
 8764POPC   GL169253  16.685  34.530   6.150
 8764POPC   GL269254  16.774  34.482   6.150
 8764POPC   C1A69255  16.701  34.623   6.450
 8764POPC   D2A69256  16.717  34.608   6.750
 8764POPC   C3A69257  16.698  34.538   7.050
 8764POPC   C4A69258  16.687  34.548   7.350
 8764POPC   C1B69259  16.814  34.378   6.450
 8764POPC   C2B69260  16.840  34.372   6.750
 8764POPC   C3B69261  16.857  34.370   7.050
 8764POPC   C4B69262  16.790  34.338   7.350
 8765POPC   NC369263  15.186  17.528   5.550
 8765POPC   PO469264  15.181  17.466   5.850
 8765POPC   GL169265  15.141  17.469   6.150
 8765POPC   GL269266  15.095  17.494   6.150
 8765POPC   C1A69267  15.204  17.495   6.450
 8765POPC   D2A69268  15.215  17.488   6.750
 8765POPC   C3A69269  15.220  17.499   7.050
 8765POPC   C4A69270  15.138  17.481   7.350
 8765POPC   C1B69271  14.979  17.569   6.450
 8765POPC   C2B69272  14.940  17.576   6.750
 8765POPC   C3B69273  14.897  17.572   7.050
 8765POPC   C4B69274  14.944  17.547   7.350
 8766POPC   NC369275   1.969  33.787   5.550
 8766POPC   PO469276   1.966  33.775   5.850
 8766POPC   GL169277   1.967  33.816   6.150
 8766POPC   GL269278   2.088  33.651   6.150
 8766POPC   C1A69279   1.974  33.758   6.450
 8766POPC   D2A69280   1.987  33.775   6.750
 8766POPC   C3A69281   1.965  33.831   7.050
 8766POPC   C4A69282   1.969  33.788   7.350
 8766POPC   C1B69283   2.107  33.581   6.450
 8766POPC   C2B69284   2.171  33.586   6.750
 8766POPC   C3B69285   2.087  33.641   7.050
 8766POPC   C4B69286   2.114  33.633   7.350
 8767POPC   NC369287  39.252  29.927   5.550
 8767POPC   PO469288  39.208  29.967   5.850
 8767POPC   GL169289  39.241  29.941   6.150
 8767POPC   GL269290  39.160  29.835   6.150
 8767POPC   C1A69291  39.201  29.895   6.450
 8767POPC   D2A69292  39.253  29.904   6.750
 8767POPC   C3A69293  39.187  29.898   7.050
 8767POPC   C4A69294  39.191  29.907   7.350
 8767POPC   C1B69295  39.003  29.767   6.450
 8767POPC   C2B69296  38.986  29.750   6.750
 8767POPC   C3B69297  38.972  29.847   7.050
 8767POPC   C4B69298  39.038  29.838   7.350
 8768POPC   NC369299  19.799  10.560   5.550
 8768POPC   PO469300  19.808  10.533   5.850
 8768POPC   GL169301  19.822  10.479   6.150
 8768POPC   GL269302  19.736  10.487   6.150
 8768POPC   C1A69303  19.820  10.484   6.450
 8768POPC   D2A69304  19.856  10.499   6.750
 8768POPC   C3A69305  19.800  10.492   7.050
 8768POPC   C4A69306  19.849  10.535   7.350
 8768POPC   C1B69307  19.557  10.554   6.450
 8768POPC   C2B69308  19.570  10.502   6.750
 8768POPC   C3B69309  19.580  10.568   7.050
 8768POPC   C4B69310  19.586  10.523   7.350
 8769POPC   NC369311  36.870  17.478   5.550
 8769POPC   PO469312  36.914  17.544   5.850
 8769POPC   GL169313  36.929  17.508   6.150
 8769POPC   GL269314  36.776  17.542   6.150
 8769POPC   C1A69315  36.906  17.549   6.450
 8769POPC   D2A69316  36.945  17.490   6.750
 8769POPC   C3A69317  36.932  17.464   7.050
 8769POPC   C4A69318  36.883  17.495   7.350
 8769POPC   C1B69319  36.637  17.603   6.450
 8769POPC   C2B69320  36.639  17.643   6.750
 8769POPC   C3B69321  36.691  17.585   7.050
 8769POPC   C4B69322  36.696  17.593   7.350
 8770POPC   NC369323  19.879   2.810   5.550
 8770POPC   PO469324  19.806   2.772   5.850
 8770POPC   GL169325  19.857   2.780   6.150
 8770POPC   GL269326  19.807   2.864   6.150
 8770POPC   C1A69327  19.808   2.776   6.450
 8770POPC   D2A69328  19.811   2.799   6.750
 8770POPC   C3A69329  19.811   2.762   7.050
 8770POPC   C4A69330  19.787   2.814   7.350
 8770POPC   C1B69331  19.842   3.027   6.450
 8770POPC   C2B69332  19.865   3.045   6.750
 8770POPC   C3B69333  19.857   3.010   7.050
 8770POPC   C4B69334  19.826   3.045   7.350
 8771POPC   NC369335   5.113  30.733   5.550
 8771POPC   PO469336   5.125  30.699   5.850
 8771POPC   GL169337   5.106  30.710   6.150
 8771POPC   GL269338   4.966  30.641   6.150
 8771POPC   C1A69339   5.109  30.669   6.450
 8771POPC   D2A69340   5.083  30.652   6.750
 8771POPC   C3A69341   5.119  30.726   7.050
 8771POPC   C4A69342   5.137  30.704   7.350
 8771POPC   C1B69343   4.837  30.576   6.450
 8771POPC   C2B69344   4.872  30.631   6.750
 8771POPC   C3B69345   4.867  30.638   7.050
 8771POPC   C4B69346   4.858  30.616   7.350
 8772POPC   NC369347  31.468  26.796   5.550
 8772POPC   PO469348  31.470  26.836   5.850
 8772POPC   GL169349  31.435  26.811   6.150
 8772POPC   GL269350  31.599  26.755   6.150
 8772POPC   C1A69351  31.425  26.847   6.450
 8772POPC   D2A69352  31.446  26.844   6.750
 8772POPC   C3A69353  31.461  26.813   7.050
 8772POPC   C4A69354  31.483  26.864   7.350
 8772POPC   C1B69355  31.761  26.739   6.450
 8772POPC   C2B69356  31.675  26.729   6.750
 8772POPC   C3B69357  31.671  26.782   7.050
 8772POPC   C4B69358  31.697  26.817   7.350
 8773POPC   NC369359   2.807  36.918   5.550
 8773POPC   PO469360   2.779  36.873   5.850
 8773POPC   GL169361   2.758  36.877   6.150
 8773POPC   GL269362   2.674  36.988   6.150
 8773POPC   C1A69363   2.814  36.950   6.450
 8773POPC   D2A69364   2.747  36.945   6.750
 8773POPC   C3A69365   2.762  36.951   7.050
 8773POPC   C4A69366   2.774  36.864   7.350
 8773POPC   C1B69367   2.585  37.133   6.450
 8773POPC   C2B69368   2.568  37.121   6.750
 8773POPC   C3B69369   2.562  37.134   7.050
 8773POPC   C4B69370   2.619  37.099   7.350
 8774POPC   NC369371  21.377  19.880   5.550
 8774POPC   PO469372  21.389  19.805   5.850
 8774POPC   GL169373  21.412  19.809   6.150
 8774POPC   GL269374  21.454  19.958   6.150
 8774POPC   C1A69375  21.359  19.884   6.450
 8774POPC   D2A69376  21.420  19.826   6.750
 8774POPC   C3A69377  21.351  19.884   7.050
 8774POPC   C4A69378  21.377  19.804   7.350
 8774POPC   C1B69379  21.446  20.069   6.450
 8774POPC   C2B69380  21.469  20.055   6.750
 8774POPC   C3B69381  21.455  20.066   7.050
 8774POPC   C4B69382  21.460  20.048   7.350
 8775POPC   NC369383   4.303  12.029   5.550
 8775POPC   PO469384   4.308  12.123   5.850
 8775POPC   GL169385   4.299  12.048   6.150
 8775POPC   GL269386   4.418  12.047   6.150
 8775POPC   C1A69387   4.346  12.079   6.450
 8775POPC   D2A69388   4.323  12.041   6.750
 8775POPC   C3A69389   4.353  12.042   7.050
 8775POPC   C4A69390   4.275  12.118   7.350
 8775POPC   C1B69391   4.542  12.064   6.450
 8775POPC   C2B69392   4.590  12.062   6.750
 8775POPC   C3B69393   4.534  12.089   7.050
 8775POPC   C4B69394   4.542  12.043   7.350
 8776POPC   NC369395   5.913  22.978   5.550
 8776POPC   PO469396   5.837  22.968   5.850
 8776POPC   GL169397   5.890  22.950   6.150
 8776POPC   GL269398   5.809  23.105   6.150
 8776POPC   C1A69399   5.897  22.923   6.450
 8776POPC   D2A69400   5.914  22.898   6.750
 8776POPC   C3A69401   5.859  22.932   7.050
 8776POPC   C4A69402   5.878  22.988   7.350
 8776POPC   C1B69403   5.826  23.207   6.450
 8776POPC   C2B69404   5.841  23.171   6.750
 8776POPC   C3B69405   5.879  23.209   7.050
 8776POPC   C4B69406   5.825  23.223   7.350
 8777POPC   NC369407  16.702  36.864   5.550
 8777POPC   PO469408  16.698  36.936   5.850
 8777POPC   GL169409  16.762  36.926   6.150
 8777POPC   GL269410  16.830  36.895   6.150
 8777POPC   C1A69411  16.763  36.877   6.450
 8777POPC   D2A69412  16.715  36.941   6.750
 8777POPC   C3A69413  16.774  36.858   7.050
 8777POPC   C4A69414  16.737  36.946   7.350
 8777POPC   C1B69415  16.955  36.833   6.450
 8777POPC   C2B69416  17.021  36.853   6.750
 8777POPC   C3B69417  16.970  36.861   7.050
 8777POPC   C4B69418  17.000  36.887   7.350
 8778POPC   NC369419  38.466  13.602   5.550
 8778POPC   PO469420  38.452  13.609   5.850
 8778POPC   GL169421  38.505  13.642   6.150
 8778POPC   GL269422  38.549  13.644   6.150
 8778POPC   C1A69423  38.451  13.601   6.450
 8778POPC   D2A69424  38.445  13.581   6.750
 8778POPC   C3A69425  38.488  13.608   7.050
 8778POPC   C4A69426  38.480  13.585   7.350
 8778POPC   C1B69427  38.656  13.688   6.450
 8778POPC   C2B69428  38.652  13.663   6.750
 8778POPC   C3B69429  38.707  13.669   7.050
 8778POPC   C4B69430  38.659  13.643   7.350
 8779POPC   NC369431  44.660   0.478   5.550
 8779POPC   PO469432  44.676   0.445   5.850
 8779POPC   GL169433  44.709   0.421   6.150
 8779POPC   GL269434  44.532   0.527   6.150
 8779POPC   C1A69435  44.692   0.391   6.450
 8779POPC   D2A69436  44.641   0.471   6.750
 8779POPC   C3A69437  44.640   0.406   7.050
 8779POPC   C4A69438  44.640   0.390   7.350
 8779POPC   C1B69439  44.488   0.567   6.450
 8779POPC   C2B69440  44.486   0.583   6.750
 8779POPC   C3B69441  44.482   0.621   7.050
 8779POPC   C4B69442  44.463   0.631   7.350
 8780POPC   NC369443  28.399  18.275   5.550
 8780POPC   PO469444  28.408  18.239   5.850
 8780POPC   GL169445  28.341  18.321   6.150
 8780POPC   GL269446  28.514  18.187   6.150
 8780POPC   C1A69447  28.331  18.311   6.450
 8780POPC   D2A69448  28.324  18.267   6.750
 8780POPC   C3A69449  28.320  18.286   7.050
 8780POPC   C4A69450  28.321  18.324   7.350
 8780POPC   C1B69451  28.625  18.178   6.450
 8780POPC   C2B69452  28.535  18.143   6.750
 8780POPC   C3B69453  28.554  18.117   7.050
 8780POPC   C4B69454  28.614  18.103   7.350
 8781POPC   NC369455  29.108   7.404   5.550
 8781POPC   PO469456  29.132   7.382   5.850
 8781POPC   GL169457  29.110   7.418   6.150
 8781POPC   GL269458  28.987   7.379   6.150
 8781POPC   C1A69459  29.138   7.394   6.450
 8781POPC   D2A69460  29.143   7.405   6.750
 8781POPC   C3A69461  29.178   7.390   7.050
 8781POPC   C4A69462  29.097   7.454   7.350
 8781POPC   C1B69463  28.862   7.352   6.450
 8781POPC   C2B69464  28.931   7.371   6.750
 8781POPC   C3B69465  28.891   7.390   7.050
 8781POPC   C4B69466  28.883   7.411   7.350
 8782POPC   NC369467  23.748   8.933   5.550
 8782POPC   PO469468  23.671   8.946   5.850
 8782POPC   GL169469  23.692   8.939   6.150
 8782POPC   GL269470  23.655   8.916   6.150
 8782POPC   C1A69471  23.667   8.983   6.450
 8782POPC   D2A69472  23.678   8.924   6.750
 8782POPC   C3A69473  23.716   8.991   7.050
 8782POPC   C4A69474  23.757   9.022   7.350
 8782POPC   C1B69475  23.538   8.790   6.450
 8782POPC   C2B69476  23.533   8.851   6.750
 8782POPC   C3B69477  23.534   8.771   7.050
 8782POPC   C4B69478  23.534   8.755   7.350
 8783POPC   NC369479  32.217  11.270   5.550
 8783POPC   PO469480  32.211  11.343   5.850
 8783POPC   GL169481  32.295  11.292   6.150
 8783POPC   GL269482  32.369  11.238   6.150
 8783POPC   C1A69483  32.211  11.285   6.450
 8783POPC   D2A69484  32.234  11.306   6.750
 8783POPC   C3A69485  32.212  11.305   7.050
 8783POPC   C4A69486  32.248  11.300   7.350
 8783POPC   C1B69487  32.429  11.190   6.450
 8783POPC   C2B69488  32.444  11.228   6.750
 8783POPC   C3B69489  32.517  11.229   7.050
 8783POPC   C4B69490  32.460  11.211   7.350
 8784POPC   NC369491  44.667  40.832   5.550
 8784POPC   PO469492  44.678  40.739   5.850
 8784POPC   GL169493  44.704  40.767   6.150
 8784POPC   GL269494  44.755  40.883   6.150
 8784POPC   C1A69495  44.641  40.793   6.450
 8784POPC   D2A69496  44.622  40.804   6.750
 8784POPC   C3A69497  44.626  40.751   7.050
 8784POPC   C4A69498  44.691  40.797   7.350
 8784POPC   C1B69499  44.730  41.034   6.450
 8784POPC   C2B69500  44.724  41.046   6.750
 8784POPC   C3B69501  44.807  41.022   7.050
 8784POPC   C4B69502  44.781  41.045   7.350
 8785POPC   NC369503  22.125   2.787   5.550
 8785POPC   PO469504  22.198   2.718   5.850
 8785POPC   GL169505  22.127   2.767   6.150
 8785POPC   GL269506  22.208   2.891   6.150
 8785POPC   C1A69507  22.185   2.746   6.450
 8785POPC   D2A69508  22.187   2.770   6.750
 8785POPC   C3A69509  22.156   2.804   7.050
 8785POPC   C4A69510  22.173   2.726   7.350
 8785POPC   C1B69511  22.290   2.982   6.450
 8785POPC   C2B69512  22.290   2.963   6.750
 8785POPC   C3B69513  22.322   2.967   7.050
 8785POPC   C4B69514  22.297   2.972   7.350
 8786POPC   NC369515  22.212   9.756   5.550
 8786POPC   PO469516  22.212   9.705   5.850
 8786POPC   GL169517  22.133   9.738   6.150
 8786POPC   GL269518  22.174   9.867   6.150
 8786POPC   C1A69519  22.172   9.771   6.450
 8786POPC   D2A69520  22.164   9.711   6.750
 8786POPC   C3A69521  22.195   9.747   7.050
 8786POPC   C4A69522  22.151   9.793   7.350
 8786POPC   C1B69523  22.234   9.998   6.450
 8786POPC   C2B69524  22.276  10.029   6.750
 8786POPC   C3B69525  22.199   9.944   7.050
 8786POPC   C4B69526  22.264   9.956   7.350
 8787POPC   NC369527   4.331  12.887   5.550
 8787POPC   PO469528   4.285  12.891   5.850
 8787POPC   GL169529   4.299  12.891   6.150
 8787POPC   GL269530   4.280  12.733   6.150
 8787POPC   C1A69531   4.353  12.828   6.450
 8787POPC   D2A69532   4.287  12.812   6.750
 8787POPC   C3A69533   4.348  12.864   7.050
 8787POPC   C4A69534   4.288  12.809   7.350
 8787POPC   C1B69535   4.258  12.646   6.450
 8787POPC   C2B69536   4.235  12.574   6.750
 8787POPC   C3B69537   4.248  12.582   7.050
 8787POPC   C4B69538   4.319  12.586   7.350
 8788POPC   NC369539  29.961  33.064   5.550
 8788POPC   PO469540  29.950  33.036   5.850
 8788POPC   GL169541  29.968  33.063   6.150
 8788POPC   GL269542  29.791  33.084   6.150
 8788POPC   C1A69543  29.874  33.049   6.450
 8788POPC   D2A69544  29.953  33.038   6.750
 8788POPC   C3A69545  29.945  32.987   7.050
 8788POPC   C4A69546  29.889  32.978   7.350
 8788POPC   C1B69547  29.716  33.075   6.450
 8788POPC   C2B69548  29.706  33.046   6.750
 8788POPC   C3B69549  29.701  33.099   7.050
 8788POPC   C4B69550  29.644  33.029   7.350
 8789POPC   NC369551   4.356   0.399   5.550
 8789POPC   PO469552   4.317   0.446   5.850
 8789POPC   GL169553   4.329   0.393   6.150
 8789POPC   GL269554   4.239   0.552   6.150
 8789POPC   C1A69555   4.304   0.452   6.450
 8789POPC   D2A69556   4.285   0.481   6.750
 8789POPC   C3A69557   4.365   0.458   7.050
 8789POPC   C4A69558   4.352   0.430   7.350
 8789POPC   C1B69559   4.266   0.694   6.450
 8789POPC   C2B69560   4.225   0.660   6.750
 8789POPC   C3B69561   4.249   0.647   7.050
 8789POPC   C4B69562   4.192   0.688   7.350
 8790POPC   NC369563   2.762  25.264   5.550
 8790POPC   PO469564   2.811  25.241   5.850
 8790POPC   GL169565   2.814  25.221   6.150
 8790POPC   GL269566   2.743  25.420   6.150
 8790POPC   C1A69567   2.776  25.274   6.450
 8790POPC   D2A69568   2.779  25.232   6.750
 8790POPC   C3A69569   2.763  25.234   7.050
 8790POPC   C4A69570   2.815  25.282   7.350
 8790POPC   C1B69571   2.698  25.503   6.450
 8790POPC   C2B69572   2.673  25.475   6.750
 8790POPC   C3B69573   2.731  25.528   7.050
 8790POPC   C4B69574   2.694  25.523   7.350
 8791POPC   NC369575  36.913  11.252   5.550
 8791POPC   PO469576  36.929  11.286   5.850
 8791POPC   GL169577  36.916  11.330   6.150
 8791POPC   GL269578  36.880  11.162   6.150
 8791POPC   C1A69579  36.865  11.322   6.450
 8791POPC   D2A69580  36.934  11.315   6.750
 8791POPC   C3A69581  36.871  11.283   7.050
 8791POPC   C4A69582  36.904  11.274   7.350
 8791POPC   C1B69583  36.846  11.021   6.450
 8791POPC   C2B69584  36.915  11.047   6.750
 8791POPC   C3B69585  36.899  11.037   7.050
 8791POPC   C4B69586  36.879  11.064   7.350
 8792POPC   NC369587  39.252  26.058   5.550
 8792POPC   PO469588  39.272  26.025   5.850
 8792POPC   GL169589  39.238  26.025   6.150
 8792POPC   GL269590  39.121  26.031   6.150
 8792POPC   C1A69591  39.222  26.049   6.450
 8792POPC   D2A69592  39.243  26.028   6.750
 8792POPC   C3A69593  39.230  26.020   7.050
 8792POPC   C4A69594  39.262  26.019   7.350
 8792POPC   C1B69595  39.043  25.924   6.450
 8792POPC   C2B69596  38.988  25.982   6.750
 8792POPC   C3B69597  39.047  25.934   7.050
 8792POPC   C4B69598  38.975  25.932   7.350
 8793POPC   NC369599  43.925  39.982   5.550
 8793POPC   PO469600  43.853  40.002   5.850
 8793POPC   GL169601  43.847  40.034   6.150
 8793POPC   GL269602  43.948  39.927   6.150
 8793POPC   C1A69603  43.887  40.049   6.450
 8793POPC   D2A69604  43.918  40.018   6.750
 8793POPC   C3A69605  43.868  40.031   7.050
 8793POPC   C4A69606  43.864  39.964   7.350
 8793POPC   C1B69607  44.062  39.859   6.450
 8793POPC   C2B69608  44.026  39.862   6.750
 8793POPC   C3B69609  44.069  39.846   7.050
 8793POPC   C4B69610  44.062  39.789   7.350
 8794POPC   NC369611   8.182  26.009   5.550
 8794POPC   PO469612   8.216  25.997   5.850
 8794POPC   GL169613   8.222  26.066   6.150
 8794POPC   GL269614   8.292  25.957   6.150
 8794POPC   C1A69615   8.160  26.013   6.450
 8794POPC   D2A69616   8.207  26.046   6.750
 8794POPC   C3A69617   8.149  26.000   7.050
 8794POPC   C4A69618   8.175  26.067   7.350
 8794POPC   C1B69619   8.470  25.984   6.450
 8794POPC   C2B69620   8.446  26.005   6.750
 8794POPC   C3B69621   8.415  25.988   7.050
 8794POPC   C4B69622   8.443  25.972   7.350
 8795POPC   NC369623  31.470  13.641   5.550
 8795POPC   PO469624  31.446  13.645   5.850
 8795POPC   GL169625  31.496  13.624   6.150
 8795POPC   GL269626  31.342  13.602   6.150
 8795POPC   C1A69627  31.433  13.585   6.450
 8795POPC   D2A69628  31.507  13.621   6.750
 8795POPC   C3A69629  31.425  13.631   7.050
 8795POPC   C4A69630  31.492  13.674   7.350
 8795POPC   C1B69631  31.261  13.538   6.450
 8795POPC   C2B69632  31.241  13.621   6.750
 8795POPC   C3B69633  31.198  13.554   7.050
 8795POPC   C4B69634  31.214  13.609   7.350
 8796POPC   NC369635   8.957  33.788   5.550
 8796POPC   PO469636   8.986  33.810   5.850
 8796POPC   GL169637   8.994  33.802   6.150
 8796POPC   GL269638   8.920  33.694   6.150
 8796POPC   C1A69639   9.013  33.824   6.450
 8796POPC   D2A69640   8.953  33.849   6.750
 8796POPC   C3A69641   8.950  33.846   7.050
 8796POPC   C4A69642   8.977  33.768   7.350
 8796POPC   C1B69643   8.788  33.579   6.450
 8796POPC   C2B69644   8.873  33.559   6.750
 8796POPC   C3B69645   8.843  33.622   7.050
 8796POPC   C4B69646   8.829  33.585   7.350
 8797POPC   NC369647  30.710   0.472   5.550
 8797POPC   PO469648  30.717   0.466   5.850
 8797POPC   GL169649  30.712   0.403   6.150
 8797POPC   GL269650  30.672   0.297   6.150
 8797POPC   C1A69651  30.741   0.470   6.450
 8797POPC   D2A69652  30.697   0.410   6.750
 8797POPC   C3A69653  30.710   0.469   7.050
 8797POPC   C4A69654  30.698   0.392   7.350
 8797POPC   C1B69655  30.588   0.262   6.450
 8797POPC   C2B69656  30.545   0.209   6.750
 8797POPC   C3B69657  30.624   0.249   7.050
 8797POPC   C4B69658  30.569   0.253   7.350
 8798POPC   NC369659  22.977  43.069   5.550
 8798POPC   PO469660  22.944  43.150   5.850
 8798POPC   GL169661  22.949  43.104   6.150
 8798POPC   GL269662  23.056  43.219   6.150
 8798POPC   C1A69663  22.959  43.085   6.450
 8798POPC   D2A69664  22.949  43.099   6.750
 8798POPC   C3A69665  22.958  43.081   7.050
 8798POPC   C4A69666  22.962  43.061   7.350
 8798POPC   C1B69667  23.101  43.280   6.450
 8798POPC   C2B69668  23.103  43.204   6.750
 8798POPC   C3B69669  23.132  43.227   7.050
 8798POPC   C4B69670  23.137  43.242   7.350
 8799POPC   NC369671  43.908  12.869   5.550
 8799POPC   PO469672  43.884  12.858   5.850
 8799POPC   GL169673  43.909  12.887   6.150
 8799POPC   GL269674  43.776  12.939   6.150
 8799POPC   C1A69675  43.916  12.880   6.450
 8799POPC   D2A69676  43.875  12.841   6.750
 8799POPC   C3A69677  43.882  12.838   7.050
 8799POPC   C4A69678  43.928  12.875   7.350
 8799POPC   C1B69679  43.670  13.020   6.450
 8799POPC   C2B69680  43.648  13.050   6.750
 8799POPC   C3B69681  43.678  13.034   7.050
 8799POPC   C4B69682  43.676  13.050   7.350
 8800POPC   NC369683  32.200  33.839   5.550
 8800POPC   PO469684  32.255  33.825   5.850
 8800POPC   GL169685  32.290  33.754   6.150
 8800POPC   GL269686  32.320  33.719   6.150
 8800POPC   C1A69687  32.213  33.750   6.450
 8800POPC   D2A69688  32.289  33.771   6.750
 8800POPC   C3A69689  32.213  33.818   7.050
 8800POPC   C4A69690  32.238  33.812   7.350
 8800POPC   C1B69691  32.372  33.595   6.450
 8800POPC   C2B69692  32.306  33.606   6.750
 8800POPC   C3B69693  32.377  33.560   7.050
 8800POPC   C4B69694  32.332  33.563   7.350
 8801POPC   NC369695  12.854  11.271   5.550
 8801POPC   PO469696  12.806  11.346   5.850
 8801POPC   GL169697  12.845  11.262   6.150
 8801POPC   GL269698  12.801  11.161   6.150
 8801POPC   C1A69699  12.842  11.284   6.450
 8801POPC   D2A69700  12.901  11.324   6.750
 8801POPC   C3A69701  12.868  11.323   7.050
 8801POPC   C4A69702  12.818  11.305   7.350
 8801POPC   C1B69703  12.750  11.060   6.450
 8801POPC   C2B69704  12.802  11.034   6.750
 8801POPC   C3B69705  12.791  11.102   7.050
 8801POPC   C4B69706  12.733  11.070   7.350
 8802POPC   NC369707  43.154  18.236   5.550
 8802POPC   PO469708  43.081  18.268   5.850
 8802POPC   GL169709  43.067  18.266   6.150
 8802POPC   GL269710  43.026  18.239   6.150
 8802POPC   C1A69711  43.142  18.236   6.450
 8802POPC   D2A69712  43.155  18.254   6.750
 8802POPC   C3A69713  43.099  18.322   7.050
 8802POPC   C4A69714  43.128  18.256   7.350
 8802POPC   C1B69715  42.912  18.203   6.450
 8802POPC   C2B69716  42.857  18.210   6.750
 8802POPC   C3B69717  42.842  18.206   7.050
 8802POPC   C4B69718  42.843  18.131   7.350
 8803POPC   NC369719  41.585  38.432   5.550
 8803POPC   PO469720  41.590  38.486   5.850
 8803POPC   GL169721  41.579  38.423   6.150
 8803POPC   GL269722  41.533  38.596   6.150
 8803POPC   C1A69723  41.590  38.486   6.450
 8803POPC   D2A69724  41.599  38.426   6.750
 8803POPC   C3A69725  41.606  38.472   7.050
 8803POPC   C4A69726  41.577  38.441   7.350
 8803POPC   C1B69727  41.554  38.727   6.450
 8803POPC   C2B69728  41.588  38.726   6.750
 8803POPC   C3B69729  41.607  38.698   7.050
 8803POPC   C4B69730  41.630  38.706   7.350
 8804POPC   NC369731  29.180  36.151   5.550
 8804POPC   PO469732  29.192  36.097   5.850
 8804POPC   GL169733  29.187  36.083   6.150
 8804POPC   GL269734  29.026  36.094   6.150
 8804POPC   C1A69735  29.137  36.139   6.450
 8804POPC   D2A69736  29.168  36.080   6.750
 8804POPC   C3A69737  29.137  36.090   7.050
 8804POPC   C4A69738  29.151  36.148   7.350
 8804POPC   C1B69739  28.932  36.023   6.450
 8804POPC   C2B69740  28.927  35.955   6.750
 8804POPC   C3B69741  28.899  36.000   7.050
 8804POPC   C4B69742  28.950  35.965   7.350
 8805POPC   NC369743  39.979  11.250   5.550
 8805POPC   PO469744  40.055  11.289   5.850
 8805POPC   GL169745  40.017  11.303   6.150
 8805POPC   GL269746  40.149  11.270   6.150
 8805POPC   C1A69747  39.985  11.275   6.450
 8805POPC   D2A69748  40.004  11.268   6.750
 8805POPC   C3A69749  40.011  11.253   7.050
 8805POPC   C4A69750  40.012  11.281   7.350
 8805POPC   C1B69751  40.207  11.217   6.450
 8805POPC   C2B69752  40.272  11.304   6.750
 8805POPC   C3B69753  40.217  11.215   7.050
 8805POPC   C4B69754  40.226  11.233   7.350
 8806POPC   NC369755  29.156  44.662   5.550
 8806POPC   PO469756  29.102  44.703   5.850
 8806POPC   GL169757  29.147  44.676   6.150
 8806POPC   GL269758  29.243  44.730   6.150
 8806POPC   C1A69759  29.109  44.711   6.450
 8806POPC   D2A69760  29.112  44.642   6.750
 8806POPC   C3A69761  29.125  44.616   7.050
 8806POPC   C4A69762  29.131  44.702   7.350
 8806POPC   C1B69763  29.277  44.881   6.450
 8806POPC   C2B69764  29.267  44.889   6.750
 8806POPC   C3B69765  29.257  44.897   7.050
 8806POPC   C4B69766  29.203  44.859   7.350
 8807POPC   NC369767  19.803  42.326   5.550
 8807POPC   PO469768  19.876  42.354   5.850
 8807POPC   GL169769  19.861  42.354   6.150
 8807POPC   GL269770  19.695  42.392   6.150
 8807POPC   C1A69771  19.867  42.291   6.450
 8807POPC   D2A69772  19.804  42.322   6.750
 8807POPC   C3A69773  19.799  42.337   7.050
 8807POPC   C4A69774  19.805  42.331   7.350
 8807POPC   C1B69775  19.592  42.500   6.450
 8807POPC   C2B69776  19.650  42.488   6.750
 8807POPC   C3B69777  19.594  42.463   7.050
 8807POPC   C4B69778  19.661  42.480   7.350
 8808POPC   NC369779   6.675   5.887   5.550
 8808POPC   PO469780   6.609   5.915   5.850
 8808POPC   GL169781   6.609   5.877   6.150
 8808POPC   GL269782   6.695   5.952   6.150
 8808POPC   C1A69783   6.612   5.915   6.450
 8808POPC   D2A69784   6.646   5.898   6.750
 8808POPC   C3A69785   6.684   5.863   7.050
 8808POPC   C4A69786   6.673   5.841   7.350
 8808POPC   C1B69787   6.730   6.118   6.450
 8808POPC   C2B69788   6.706   6.110   6.750
 8808POPC   C3B69789   6.705   6.162   7.050
 8808POPC   C4B69790   6.636   6.103   7.350
 8809POPC   NC369791  40.739   3.535   5.550
 8809POPC   PO469792  40.796   3.498   5.850
 8809POPC   GL169793  40.739   3.582   6.150
 8809POPC   GL269794  40.835   3.394   6.150
 8809POPC   C1A69795  40.784   3.578   6.450
 8809POPC   D2A69796  40.737   3.548   6.750
 8809POPC   C3A69797  40.819   3.494   7.050
 8809POPC   C4A69798  40.791   3.493   7.350
 8809POPC   C1B69799  40.808   3.328   6.450
 8809POPC   C2B69800  40.833   3.267   6.750
 8809POPC   C3B69801  40.858   3.319   7.050
 8809POPC   C4B69802  40.815   3.341   7.350
 8810POPC   NC369803  14.447  31.492   5.550
 8810POPC   PO469804  14.379  31.442   5.850
 8810POPC   GL169805  14.451  31.475   6.150
 8810POPC   GL269806  14.414  31.377   6.150
 8810POPC   C1A69807  14.451  31.454   6.450
 8810POPC   D2A69808  14.368  31.431   6.750
 8810POPC   C3A69809  14.371  31.499   7.050
 8810POPC   C4A69810  14.446  31.432   7.350
 8810POPC   C1B69811  14.480  31.228   6.450
 8810POPC   C2B69812  14.427  31.181   6.750
 8810POPC   C3B69813  14.427  31.271   7.050
 8810POPC   C4B69814  14.495  31.208   7.350
 8811POPC   NC369815  33.005  18.248   5.550
 8811POPC   PO469816  33.032  18.293   5.850
 8811POPC   GL169817  32.979  18.321   6.150
 8811POPC   GL269818  33.015  18.187   6.150
 8811POPC   C1A69819  33.003  18.251   6.450
 8811POPC   D2A69820  32.995  18.307   6.750
 8811POPC   C3A69821  33.014  18.308   7.050
 8811POPC   C4A69822  33.029  18.262   7.350
 8811POPC   C1B69823  32.977  18.069   6.450
 8811POPC   C2B69824  33.025  18.001   6.750
 8811POPC   C3B69825  32.983  18.065   7.050
 8811POPC   C4B69826  32.991  18.024   7.350
 8812POPC   NC369827  37.630  10.524   5.550
 8812POPC   PO469828  37.671  10.479   5.850
 8812POPC   GL169829  37.685  10.511   6.150
 8812POPC   GL269830  37.707  10.620   6.150
 8812POPC   C1A69831  37.708  10.509   6.450
 8812POPC   D2A69832  37.654  10.573   6.750
 8812POPC   C3A69833  37.660  10.543   7.050
 8812POPC   C4A69834  37.647  10.510   7.350
 8812POPC   C1B69835  37.781  10.800   6.450
 8812POPC   C2B69836  37.813  10.715   6.750
 8812POPC   C3B69837  37.806  10.707   7.050
 8812POPC   C4B69838  37.800  10.747   7.350
 8813POPC   NC369839  34.592  17.466   5.550
 8813POPC   PO469840  34.572  17.497   5.850
 8813POPC   GL169841  34.593  17.551   6.150
 8813POPC   GL269842  34.551  17.403   6.150
 8813POPC   C1A69843  34.567  17.528   6.450
 8813POPC   D2A69844  34.546  17.468   6.750
 8813POPC   C3A69845  34.587  17.528   7.050
 8813POPC   C4A69846  34.544  17.492   7.350
 8813POPC   C1B69847  34.426  17.280   6.450
 8813POPC   C2B69848  34.480  17.322   6.750
 8813POPC   C3B69849  34.486  17.332   7.050
 8813POPC   C4B69850  34.463  17.315   7.350
 8814POPC   NC369851  38.419  17.462   5.550
 8814POPC   PO469852  38.458  17.520   5.850
 8814POPC   GL169853  38.433  17.557   6.150
 8814POPC   GL269854  38.570  17.488   6.150
 8814POPC   C1A69855  38.475  17.553   6.450
 8814POPC   D2A69856  38.481  17.525   6.750
 8814POPC   C3A69857  38.481  17.538   7.050
 8814POPC   C4A69858  38.493  17.531   7.350
 8814POPC   C1B69859  38.746  17.599   6.450
 8814POPC   C2B69860  38.720  17.603   6.750
 8814POPC   C3B69861  38.667  17.547   7.050
 8814POPC   C4B69862  38.689  17.533   7.350
 8815POPC   NC369863  33.030  36.921   5.550
 8815POPC   PO469864  33.058  36.902   5.850
 8815POPC   GL169865  33.068  36.900   6.150
 8815POPC   GL269866  32.956  36.970   6.150
 8815POPC   C1A69867  33.020  36.937   6.450
 8815POPC   D2A69868  33.042  36.925   6.750
 8815POPC   C3A69869  33.018  36.858   7.050
 8815POPC   C4A69870  33.029  36.916   7.350
 8815POPC   C1B69871  32.781  37.023   6.450
 8815POPC   C2B69872  32.776  37.074   6.750
 8815POPC   C3B69873  32.812  37.027   7.050
 8815POPC   C4B69874  32.789  37.059   7.350
 8816POPC   NC369875   2.001  12.882   5.550
 8816POPC   PO469876   2.018  12.871   5.850
 8816POPC   GL169877   1.982  12.807   6.150
 8816POPC   GL269878   1.977  12.686   6.150
 8816POPC   C1A69879   1.945  12.835   6.450
 8816POPC   D2A69880   2.033  12.808   6.750
 8816POPC   C3A69881   1.960  12.892   7.050
 8816POPC   C4A69882   2.025  12.806   7.350
 8816POPC   C1B69883   1.957  12.570   6.450
 8816POPC   C2B69884   1.998  12.602   6.750
 8816POPC   C3B69885   1.954  12.621   7.050
 8816POPC   C4B69886   1.980  12.607   7.350
 8817POPC   NC369887  29.954   2.027   5.550
 8817POPC   PO469888  29.927   2.007   5.850
 8817POPC   GL169889  29.936   1.979   6.150
 8817POPC   GL269890  29.880   1.881   6.150
 8817POPC   C1A69891  29.957   2.023   6.450
 8817POPC   D2A69892  29.958   1.993   6.750
 8817POPC   C3A69893  29.886   2.000   7.050
 8817POPC   C4A69894  29.925   1.980   7.350
 8817POPC   C1B69895  29.794   1.766   6.450
 8817POPC   C2B69896  29.748   1.737   6.750
 8817POPC   C3B69897  29.752   1.813   7.050
 8817POPC   C4B69898  29.785   1.737   7.350
 8818POPC   NC369899   4.338  16.755   5.550
 8818POPC   PO469900   4.351  16.710   5.850
 8818POPC   GL169901   4.291  16.715   6.150
 8818POPC   GL269902   4.248  16.649   6.150
 8818POPC   C1A69903   4.312  16.695   6.450
 8818POPC   D2A69904   4.335  16.780   6.750
 8818POPC   C3A69905   4.275  16.750   7.050
 8818POPC   C4A69906   4.296  16.764   7.350
 8818POPC   C1B69907   4.131  16.615   6.450
 8818POPC   C2B69908   4.072  16.569   6.750
 8818POPC   C3B69909   4.060  16.658   7.050
 8818POPC   C4B69910   4.094  16.605   7.350
 8819POPC   NC369911   7.435   9.003   5.550
 8819POPC   PO469912   7.379   8.962   5.850
 8819POPC   GL169913   7.378   8.975   6.150
 8819POPC   GL269914   7.496   8.850   6.150
 8819POPC   C1A69915   7.466   8.946   6.450
 8819POPC   D2A69916   7.402   9.014   6.750
 8819POPC   C3A69917   7.464   8.964   7.050
 8819POPC   C4A69918   7.429   8.955   7.350
 8819POPC   C1B69919   7.527   8.686   6.450
 8819POPC   C2B69920   7.477   8.726   6.750
 8819POPC   C3B69921   7.537   8.751   7.050
 8819POPC   C4B69922   7.508   8.742   7.350
 8820POPC   NC369923  26.018  33.801   5.550
 8820POPC   PO469924  26.055  33.831   5.850
 8820POPC   GL169925  26.086  33.834   6.150
 8820POPC   GL269926  25.943  33.902   6.150
 8820POPC   C1A69927  25.999  33.794   6.450
 8820POPC   D2A69928  26.058  33.841   6.750
 8820POPC   C3A69929  25.995  33.769   7.050
 8820POPC   C4A69930  26.073  33.760   7.350
 8820POPC   C1B69931  25.818  33.949   6.450
 8820POPC   C2B69932  25.842  33.968   6.750
 8820POPC   C3B69933  25.839  33.972   7.050
 8820POPC   C4B69934  25.887  33.985   7.350
 8821POPC   NC369935   3.579  38.454   5.550
 8821POPC   PO469936   3.495  38.437   5.850
 8821POPC   GL169937   3.535  38.423   6.150
 8821POPC   GL269938   3.411  38.459   6.150
 8821POPC   C1A69939   3.494  38.426   6.450
 8821POPC   D2A69940   3.559  38.458   6.750
 8821POPC   C3A69941   3.557  38.414   7.050
 8821POPC   C4A69942   3.559  38.414   7.350
 8821POPC   C1B69943   3.297  38.405   6.450
 8821POPC   C2B69944   3.255  38.435   6.750
 8821POPC   C3B69945   3.297  38.427   7.050
 8821POPC   C4B69946   3.278  38.409   7.350
 8822POPC   NC369947   9.731   5.108   5.550
 8822POPC   PO469948   9.747   5.100   5.850
 8822POPC   GL169949   9.752   5.043   6.150
 8822POPC   GL269950   9.682   5.213   6.150
 8822POPC   C1A69951   9.751   5.114   6.450
 8822POPC   D2A69952   9.792   5.096   6.750
 8822POPC   C3A69953   9.794   5.122   7.050
 8822POPC   C4A69954   9.775   5.069   7.350
 8822POPC   C1B69955   9.639   5.296   6.450
 8822POPC   C2B69956   9.667   5.275   6.750
 8822POPC   C3B69957   9.666   5.320   7.050
 8822POPC   C4B69958   9.662   5.338   7.350
 8823POPC   NC369959   7.404  34.586   5.550
 8823POPC   PO469960   7.430  34.546   5.850
 8823POPC   GL169961   7.402  34.528   6.150
 8823POPC   GL269962   7.556  34.634   6.150
 8823POPC   C1A69963   7.413  34.556   6.450
 8823POPC   D2A69964   7.439  34.595   6.750
 8823POPC   C3A69965   7.438  34.579   7.050
 8823POPC   C4A69966   7.429  34.615   7.350
 8823POPC   C1B69967   7.680  34.648   6.450
 8823POPC   C2B69968   7.691  34.647   6.750
 8823POPC   C3B69969   7.658  34.593   7.050
 8823POPC   C4B69970   7.624  34.616   7.350
 8824POPC   NC369971  12.038  30.651   5.550
 8824POPC   PO469972  12.044  30.688   5.850
 8824POPC   GL169973  12.088  30.730   6.150
 8824POPC   GL269974  12.184  30.796   6.150
 8824POPC   C1A69975  12.070  30.725   6.450
 8824POPC   D2A69976  12.089  30.718   6.750
 8824POPC   C3A69977  12.111  30.698   7.050
 8824POPC   C4A69978  12.091  30.707   7.350
 8824POPC   C1B69979  12.269  30.791   6.450
 8824POPC   C2B69980  12.267  30.817   6.750
 8824POPC   C3B69981  12.282  30.788   7.050
 8824POPC   C4B69982  12.308  30.799   7.350
 8825POPC   NC369983  19.788  39.191   5.550
 8825POPC   PO469984  19.834  39.213   5.850
 8825POPC   GL169985  19.804  39.186   6.150
 8825POPC   GL269986  19.927  39.185   6.150
 8825POPC   C1A69987  19.863  39.216   6.450
 8825POPC   D2A69988  19.872  39.198   6.750
 8825POPC   C3A69989  19.802  39.222   7.050
 8825POPC   C4A69990  19.831  39.262   7.350
 8825POPC   C1B69991  20.119  39.155   6.450
 8825POPC   C2B69992  20.087  39.169   6.750
 8825POPC   C3B69993  20.120  39.150   7.050
 8825POPC   C4B69994  20.111  39.126   7.350
 8826POPC   NC369995  44.676  19.059   5.550
 8826POPC   PO469996  44.652  19.098   5.850
 8826POPC   GL169997  44.702  19.024   6.150
 8826POPC   GL269998  44.603  18.950   6.150
 8826POPC   C1A69999  44.664  19.067   6.450
 8826POPC   D2A70000  44.632  19.062   6.750
 8826POPC   C3A70001  44.702  19.097   7.050
 8826POPC   C4A70002  44.671  19.039   7.350
 8826POPC   C1B70003  44.659  18.792   6.450
 8826POPC   C2B70004  44.633  18.777   6.750
 8826POPC   C3B70005  44.636  18.762   7.050
 8826POPC   C4B70006  44.616  18.766   7.350
 8827POPC   NC370007  11.291  39.221   5.550
 8827POPC   PO470008  11.333  39.198   5.850
 8827POPC   GL170009  11.305  39.187   6.150
 8827POPC   GL270010  11.387  39.316   6.150
 8827POPC   C1A70011  11.259  39.232   6.450
 8827POPC   D2A70012  11.280  39.247   6.750
 8827POPC   C3A70013  11.288  39.224   7.050
 8827POPC   C4A70014  11.326  39.236   7.350
 8827POPC   C1B70015  11.420  39.458   6.450
 8827POPC   C2B70016  11.444  39.425   6.750
 8827POPC   C3B70017  11.355  39.469   7.050
 8827POPC   C4B70018  11.376  39.478   7.350
 8828POPC   NC370019  40.776   2.718   5.550
 8828POPC   PO470020  40.751   2.792   5.850
 8828POPC   GL170021  40.757   2.742   6.150
 8828POPC   GL270022  40.862   2.814   6.150
 8828POPC   C1A70023  40.782   2.752   6.450
 8828POPC   D2A70024  40.749   2.738   6.750
 8828POPC   C3A70025  40.782   2.718   7.050
 8828POPC   C4A70026  40.774   2.765   7.350
 8828POPC   C1B70027  41.032   2.800   6.450
 8828POPC   C2B70028  41.029   2.875   6.750
 8828POPC   C3B70029  41.023   2.800   7.050
 8828POPC   C4B70030  41.067   2.834   7.350
 8829POPC   NC370031  20.656  35.355   5.550
 8829POPC   PO470032  20.596  35.327   5.850
 8829POPC   GL170033  20.571  35.334   6.150
 8829POPC   GL270034  20.495  35.323   6.150
 8829POPC   C1A70035  20.569  35.323   6.450
 8829POPC   D2A70036  20.589  35.344   6.750
 8829POPC   C3A70037  20.630  35.362   7.050
 8829POPC   C4A70038  20.626  35.318   7.350
 8829POPC   C1B70039  20.424  35.153   6.450
 8829POPC   C2B70040  20.382  35.198   6.750
 8829POPC   C3B70041  20.397  35.183   7.050
 8829POPC   C4B70042  20.428  35.226   7.350
 8830POPC   NC370043  21.426  15.955   5.550
 8830POPC   PO470044  21.340  15.991   5.850
 8830POPC   GL170045  21.362  15.958   6.150
 8830POPC   GL270046  21.255  16.035   6.150
 8830POPC   C1A70047  21.362  15.982   6.450
 8830POPC   D2A70048  21.356  15.989   6.750
 8830POPC   C3A70049  21.376  15.933   7.050
 8830POPC   C4A70050  21.354  15.951   7.350
 8830POPC   C1B70051  21.160  16.121   6.450
 8830POPC   C2B70052  21.190  16.104   6.750
 8830POPC   C3B70053  21.162  16.098   7.050
 8830POPC   C4B70054  21.216  16.140   7.350
 8831POPC   NC370055  26.791  25.307   5.550
 8831POPC   PO470056  26.778  25.297   5.850
 8831POPC   GL170057  26.787  25.309   6.150
 8831POPC   GL270058  26.900  25.422   6.150
 8831POPC   C1A70059  26.789  25.282   6.450
 8831POPC   D2A70060  26.840  25.244   6.750
 8831POPC   C3A70061  26.778  25.290   7.050
 8831POPC   C4A70062  26.794  25.282   7.350
 8831POPC   C1B70063  26.912  25.513   6.450
 8831POPC   C2B70064  26.943  25.464   6.750
 8831POPC   C3B70065  26.923  25.480   7.050
 8831POPC   C4B70066  26.868  25.502   7.350
 8832POPC   NC370067   5.859  24.530   5.550
 8832POPC   PO470068   5.899  24.488   5.850
 8832POPC   GL170069   5.831  24.463   6.150
 8832POPC   GL270070   5.770  24.575   6.150
 8832POPC   C1A70071   5.821  24.445   6.450
 8832POPC   D2A70072   5.857  24.534   6.750
 8832POPC   C3A70073   5.918  24.479   7.050
 8832POPC   C4A70074   5.885  24.480   7.350
 8832POPC   C1B70075   5.616  24.608   6.450
 8832POPC   C2B70076   5.677  24.637   6.750
 8832POPC   C3B70077   5.683  24.605   7.050
 8832POPC   C4B70078   5.657  24.638   7.350
 8833POPC   NC370079  28.413  35.337   5.550
 8833POPC   PO470080  28.396  35.391   5.850
 8833POPC   GL170081  28.336  35.393   6.150
 8833POPC   GL270082  28.449  35.270   6.150
 8833POPC   C1A70083  28.327  35.326   6.450
 8833POPC   D2A70084  28.346  35.335   6.750
 8833POPC   C3A70085  28.413  35.304   7.050
 8833POPC   C4A70086  28.382  35.342   7.350
 8833POPC   C1B70087  28.447  35.128   6.450
 8833POPC   C2B70088  28.423  35.092   6.750
 8833POPC   C3B70089  28.458  35.138   7.050
 8833POPC   C4B70090  28.496  35.161   7.350
 8834POPC   NC370091  38.445  11.326   5.550
 8834POPC   PO470092  38.429  11.281   5.850
 8834POPC   GL170093  38.459  11.300   6.150
 8834POPC   GL270094  38.540  11.375   6.150
 8834POPC   C1A70095  38.496  11.320   6.450
 8834POPC   D2A70096  38.503  11.316   6.750
 8834POPC   C3A70097  38.435  11.335   7.050
 8834POPC   C4A70098  38.433  11.349   7.350
 8834POPC   C1B70099  38.733  11.365   6.450
 8834POPC   C2B70100  38.714  11.360   6.750
 8834POPC   C3B70101  38.666  11.354   7.050
 8834POPC   C4B70102  38.747  11.405   7.350
 8835POPC   NC370103  42.297  33.814   5.550
 8835POPC   PO470104  42.295  33.819   5.850
 8835POPC   GL170105  42.335  33.838   6.150
 8835POPC   GL270106  42.483  33.787   6.150
 8835POPC   C1A70107  42.294  33.780   6.450
 8835POPC   D2A70108  42.322  33.824   6.750
 8835POPC   C3A70109  42.329  33.796   7.050
 8835POPC   C4A70110  42.296  33.804   7.350
 8835POPC   C1B70111  42.550  33.646   6.450
 8835POPC   C2B70112  42.567  33.729   6.750
 8835POPC   C3B70113  42.560  33.710   7.050
 8835POPC   C4B70114  42.591  33.686   7.350
 8836POPC   NC370115  33.766  26.077   5.550
 8836POPC   PO470116  33.806  26.018   5.850
 8836POPC   GL170117  33.847  26.045   6.150
 8836POPC   GL270118  33.912  26.004   6.150
 8836POPC   C1A70119  33.849  26.004   6.450
 8836POPC   D2A70120  33.795  26.003   6.750
 8836POPC   C3A70121  33.753  26.037   7.050
 8836POPC   C4A70122  33.845  26.044   7.350
 8836POPC   C1B70123  34.099  26.034   6.450
 8836POPC   C2B70124  34.066  26.036   6.750
 8836POPC   C3B70125  34.010  26.047   7.050
 8836POPC   C4B70126  34.031  26.030   7.350
 8837POPC   NC370127  27.607  15.924   5.550
 8837POPC   PO470128  27.607  15.945   5.850
 8837POPC   GL170129  27.625  15.907   6.150
 8837POPC   GL270130  27.656  16.053   6.150
 8837POPC   C1A70131  27.559  15.925   6.450
 8837POPC   D2A70132  27.627  15.928   6.750
 8837POPC   C3A70133  27.642  15.961   7.050
 8837POPC   C4A70134  27.613  15.962   7.350
 8837POPC   C1B70135  27.812  16.063   6.450
 8837POPC   C2B70136  27.770  16.023   6.750
 8837POPC   C3B70137  27.773  16.032   7.050
 8837POPC   C4B70138  27.860  16.083   7.350
 8838POPC   NC370139   5.097  32.281   5.550
 8838POPC   PO470140   5.098  32.237   5.850
 8838POPC   GL170141   5.132  32.282   6.150
 8838POPC   GL270142   5.172  32.286   6.150
 8838POPC   C1A70143   5.120  32.254   6.450
 8838POPC   D2A70144   5.126  32.222   6.750
 8838POPC   C3A70145   5.064  32.259   7.050
 8838POPC   C4A70146   5.084  32.214   7.350
 8838POPC   C1B70147   5.317  32.373   6.450
 8838POPC   C2B70148   5.326  32.331   6.750
 8838POPC   C3B70149   5.362  32.386   7.050
 8838POPC   C4B70150   5.309  32.329   7.350
 8839POPC   NC370151  27.596   8.177   5.550
 8839POPC   PO470152  27.600   8.149   5.850
 8839POPC   GL170153  27.641   8.242   6.150
 8839POPC   GL270154  27.510   8.247   6.150
 8839POPC   C1A70155  27.642   8.231   6.450
 8839POPC   D2A70156  27.601   8.188   6.750
 8839POPC   C3A70157  27.637   8.155   7.050
 8839POPC   C4A70158  27.602   8.241   7.350
 8839POPC   C1B70159  27.410   8.392   6.450
 8839POPC   C2B70160  27.434   8.367   6.750
 8839POPC   C3B70161  27.395   8.393   7.050
 8839POPC   C4B70162  27.416   8.353   7.350
 8840POPC   NC370163   3.493   1.968   5.550
 8840POPC   PO470164   3.494   1.975   5.850
 8840POPC   GL170165   3.556   1.945   6.150
 8840POPC   GL270166   3.513   1.843   6.150
 8840POPC   C1A70167   3.515   1.956   6.450
 8840POPC   D2A70168   3.515   1.971   6.750
 8840POPC   C3A70169   3.575   2.031   7.050
 8840POPC   C4A70170   3.581   1.950   7.350
 8840POPC   C1B70171   3.417   1.796   6.450
 8840POPC   C2B70172   3.492   1.807   6.750
 8840POPC   C3B70173   3.432   1.734   7.050
 8840POPC   C4B70174   3.430   1.760   7.350
 8841POPC   NC370175  13.587  24.530   5.550
 8841POPC   PO470176  13.659  24.491   5.850
 8841POPC   GL170177  13.642  24.489   6.150
 8841POPC   GL270178  13.694  24.504   6.150
 8841POPC   C1A70179  13.622  24.460   6.450
 8841POPC   D2A70180  13.615  24.464   6.750
 8841POPC   C3A70181  13.617  24.476   7.050
 8841POPC   C4A70182  13.629  24.462   7.350
 8841POPC   C1B70183  13.889  24.616   6.450
 8841POPC   C2B70184  13.877  24.603   6.750
 8841POPC   C3B70185  13.854  24.570   7.050
 8841POPC   C4B70186  13.820  24.649   7.350
 8842POPC   NC370187  18.236   0.441   5.550
 8842POPC   PO470188  18.240   0.416   5.850
 8842POPC   GL170189  18.273   0.412   6.150
 8842POPC   GL270190  18.406   0.398   6.150
 8842POPC   C1A70191  18.241   0.449   6.450
 8842POPC   D2A70192  18.288   0.420   6.750
 8842POPC   C3A70193  18.267   0.467   7.050
 8842POPC   C4A70194  18.249   0.431   7.350
 8842POPC   C1B70195  18.521   0.300   6.450
 8842POPC   C2B70196  18.507   0.308   6.750
 8842POPC   C3B70197  18.454   0.347   7.050
 8842POPC   C4B70198  18.527   0.283   7.350
 8843POPC   NC370199  36.080   0.485   5.550
 8843POPC   PO470200  36.079   0.417   5.850
 8843POPC   GL170201  36.105   0.401   6.150
 8843POPC   GL270202  36.112   0.588   6.150
 8843POPC   C1A70203  36.087   0.412   6.450
 8843POPC   D2A70204  36.092   0.458   6.750
 8843POPC   C3A70205  36.138   0.477   7.050
 8843POPC   C4A70206  36.166   0.396   7.350
 8843POPC   C1B70207  36.196   0.687   6.450
 8843POPC   C2B70208  36.143   0.720   6.750
 8843POPC   C3B70209  36.156   0.717   7.050
 8843POPC   C4B70210  36.180   0.649   7.350
 8844POPC   NC370211  38.498  19.826   5.550
 8844POPC   PO470212  38.481  19.837   5.850
 8844POPC   GL170213  38.419  19.818   6.150
 8844POPC   GL270214  38.441  19.713   6.150
 8844POPC   C1A70215  38.414  19.818   6.450
 8844POPC   D2A70216  38.407  19.842   6.750
 8844POPC   C3A70217  38.432  19.826   7.050
 8844POPC   C4A70218  38.461  19.866   7.350
 8844POPC   C1B70219  38.455  19.622   6.450
 8844POPC   C2B70220  38.517  19.605   6.750
 8844POPC   C3B70221  38.522  19.553   7.050
 8844POPC   C4B70222  38.488  19.548   7.350
 8845POPC   NC370223  40.753  12.104   5.550
 8845POPC   PO470224  40.757  12.037   5.850
 8845POPC   GL170225  40.783  12.068   6.150
 8845POPC   GL270226  40.750  12.134   6.150
 8845POPC   C1A70227  40.810  12.093   6.450
 8845POPC   D2A70228  40.769  12.032   6.750
 8845POPC   C3A70229  40.820  12.102   7.050
 8845POPC   C4A70230  40.772  12.055   7.350
 8845POPC   C1B70231  40.627  12.291   6.450
 8845POPC   C2B70232  40.674  12.321   6.750
 8845POPC   C3B70233  40.631  12.309   7.050
 8845POPC   C4B70234  40.626  12.335   7.350
 8846POPC   NC370235  35.373  15.958   5.550
 8846POPC   PO470236  35.342  15.984   5.850
 8846POPC   GL170237  35.360  15.909   6.150
 8846POPC   GL270238  35.341  15.863   6.150
 8846POPC   C1A70239  35.347  15.912   6.450
 8846POPC   D2A70240  35.365  15.991   6.750
 8846POPC   C3A70241  35.336  15.911   7.050
 8846POPC   C4A70242  35.321  15.998   7.350
 8846POPC   C1B70243  35.220  15.729   6.450
 8846POPC   C2B70244  35.228  15.745   6.750
 8846POPC   C3B70245  35.301  15.751   7.050
 8846POPC   C4B70246  35.299  15.682   7.350
 8847POPC   NC370247   2.814  41.569   5.550
 8847POPC   PO470248   2.719  41.517   5.850
 8847POPC   GL170249   2.799  41.573   6.150
 8847POPC   GL270250   2.772  41.719   6.150
 8847POPC   C1A70251   2.732  41.577   6.450
 8847POPC   D2A70252   2.752  41.553   6.750
 8847POPC   C3A70253   2.808  41.528   7.050
 8847POPC   C4A70254   2.812  41.569   7.350
 8847POPC   C1B70255   2.632  41.843   6.450
 8847POPC   C2B70256   2.725  41.787   6.750
 8847POPC   C3B70257   2.654  41.759   7.050
 8847POPC   C4B70258   2.730  41.833   7.350
 8848POPC   NC370259  35.348  15.180   5.550
 8848POPC   PO470260  35.390  15.166   5.850
 8848POPC   GL170261  35.352  15.192   6.150
 8848POPC   GL270262  35.335  15.280   6.150
 8848POPC   C1A70263  35.365  15.192   6.450
 8848POPC   D2A70264  35.378  15.164   6.750
 8848POPC   C3A70265  35.328  15.141   7.050
 8848POPC   C4A70266  35.316  15.210   7.350
 8848POPC   C1B70267  35.388  15.398   6.450
 8848POPC   C2B70268  35.394  15.418   6.750
 8848POPC   C3B70269  35.422  15.404   7.050
 8848POPC   C4B70270  35.386  15.374   7.350
 8849POPC   NC370271  11.272  36.924   5.550
 8849POPC   PO470272  11.302  36.947   5.850
 8849POPC   GL170273  11.315  36.871   6.150
 8849POPC   GL270274  11.164  36.850   6.150
 8849POPC   C1A70275  11.336  36.928   6.450
 8849POPC   D2A70276  11.346  36.873   6.750
 8849POPC   C3A70277  11.302  36.869   7.050
 8849POPC   C4A70278  11.253  36.935   7.350
 8849POPC   C1B70279  11.062  36.837   6.450
 8849POPC   C2B70280  11.016  36.856   6.750
 8849POPC   C3B70281  11.109  36.822   7.050
 8849POPC   C4B70282  11.111  36.796   7.350
 8850POPC   NC370283  24.533  26.010   5.550
 8850POPC   PO470284  24.474  25.999   5.850
 8850POPC   GL170285  24.478  26.073   6.150
 8850POPC   GL270286  24.423  26.116   6.150
 8850POPC   C1A70287  24.451  26.008   6.450
 8850POPC   D2A70288  24.448  26.059   6.750
 8850POPC   C3A70289  24.506  26.063   7.050
 8850POPC   C4A70290  24.442  26.072   7.350
 8850POPC   C1B70291  24.322  26.211   6.450
 8850POPC   C2B70292  24.250  26.165   6.750
 8850POPC   C3B70293  24.308  26.148   7.050
 8850POPC   C4B70294  24.287  26.178   7.350
 8851POPC   NC370295  26.049   6.670   5.550
 8851POPC   PO470296  26.010   6.680   5.850
 8851POPC   GL170297  26.073   6.606   6.150
 8851POPC   GL270298  25.946   6.656   6.150
 8851POPC   C1A70299  26.071   6.620   6.450
 8851POPC   D2A70300  26.044   6.638   6.750
 8851POPC   C3A70301  26.013   6.608   7.050
 8851POPC   C4A70302  26.025   6.666   7.350
 8851POPC   C1B70303  25.775   6.609   6.450
 8851POPC   C2B70304  25.769   6.536   6.750
 8851POPC   C3B70305  25.791   6.537   7.050
 8851POPC   C4B70306  25.772   6.546   7.350
 8852POPC   NC370307  37.704   2.768   5.550
 8852POPC   PO470308  37.669   2.750   5.850
 8852POPC   GL170309  37.717   2.778   6.150
 8852POPC   GL270310  37.761   2.853   6.150
 8852POPC   C1A70311  37.723   2.800   6.450
 8852POPC   D2A70312  37.715   2.779   6.750
 8852POPC   C3A70313  37.647   2.791   7.050
 8852POPC   C4A70314  37.681   2.783   7.350
 8852POPC   C1B70315  37.803   2.998   6.450
 8852POPC   C2B70316  37.840   2.952   6.750
 8852POPC   C3B70317  37.848   2.939   7.050
 8852POPC   C4B70318  37.800   2.975   7.350
 8853POPC   NC370319   1.961   2.737   5.550
 8853POPC   PO470320   1.989   2.782   5.850
 8853POPC   GL170321   2.005   2.805   6.150
 8853POPC   GL270322   2.110   2.644   6.150
 8853POPC   C1A70323   2.037   2.741   6.450
 8853POPC   D2A70324   2.024   2.774   6.750
 8853POPC   C3A70325   2.028   2.737   7.050
 8853POPC   C4A70326   1.983   2.761   7.350
 8853POPC   C1B70327   2.155   2.639   6.450
 8853POPC   C2B70328   2.227   2.654   6.750
 8853POPC   C3B70329   2.185   2.565   7.050
 8853POPC   C4B70330   2.215   2.608   7.350
 8854POPC   NC370331   5.141  19.846   5.550
 8854POPC   PO470332   5.046  19.875   5.850
 8854POPC   GL170333   5.089  19.853   6.150
 8854POPC   GL270334   4.985  19.858   6.150
 8854POPC   C1A70335   5.137  19.824   6.450
 8854POPC   D2A70336   5.076  19.798   6.750
 8854POPC   C3A70337   5.108  19.849   7.050
 8854POPC   C4A70338   5.104  19.835   7.350
 8854POPC   C1B70339   4.830  19.842   6.450
 8854POPC   C2B70340   4.839  19.812   6.750
 8854POPC   C3B70341   4.882  19.808   7.050
 8854POPC   C4B70342   4.840  19.898   7.350
 8855POPC   NC370343  29.118  41.549   5.550
 8855POPC   PO470344  29.118  41.565   5.850
 8855POPC   GL170345  29.166  41.595   6.150
 8855POPC   GL270346  29.049  41.488   6.150
 8855POPC   C1A70347  29.139  41.514   6.450
 8855POPC   D2A70348  29.104  41.510   6.750
 8855POPC   C3A70349  29.152  41.565   7.050
 8855POPC   C4A70350  29.131  41.580   7.350
 8855POPC   C1B70351  28.921  41.515   6.450
 8855POPC   C2B70352  28.889  41.490   6.750
 8855POPC   C3B70353  28.936  41.525   7.050
 8855POPC   C4B70354  28.919  41.483   7.350
 8856POPC   NC370355   7.467   8.195   5.550
 8856POPC   PO470356   7.405   8.202   5.850
 8856POPC   GL170357   7.449   8.207   6.150
 8856POPC   GL270358   7.490   8.109   6.150
 8856POPC   C1A70359   7.430   8.172   6.450
 8856POPC   D2A70360   7.399   8.190   6.750
 8856POPC   C3A70361   7.426   8.243   7.050
 8856POPC   C4A70362   7.387   8.177   7.350
 8856POPC   C1B70363   7.545   7.978   6.450
 8856POPC   C2B70364   7.556   7.962   6.750
 8856POPC   C3B70365   7.570   8.013   7.050
 8856POPC   C4B70366   7.507   7.999   7.350
 8857POPC   NC370367  26.861  22.211   5.550
 8857POPC   PO470368  26.824  22.203   5.850
 8857POPC   GL170369  26.837  22.176   6.150
 8857POPC   GL270370  26.950  22.128   6.150
 8857POPC   C1A70371  26.820  22.162   6.450
 8857POPC   D2A70372  26.790  22.123   6.750
 8857POPC   C3A70373  26.804  22.163   7.050
 8857POPC   C4A70374  26.813  22.136   7.350
 8857POPC   C1B70375  27.010  22.036   6.450
 8857POPC   C2B70376  26.983  22.053   6.750
 8857POPC   C3B70377  26.998  22.079   7.050
 8857POPC   C4B70378  27.014  22.058   7.350
 8858POPC   NC370379  28.324   0.420   5.550
 8858POPC   PO470380  28.407   0.423   5.850
 8858POPC   GL170381  28.386   0.406   6.150
 8858POPC   GL270382  28.429   0.349   6.150
 8858POPC   C1A70383  28.335   0.477   6.450
 8858POPC   D2A70384  28.343   0.481   6.750
 8858POPC   C3A70385  28.345   0.422   7.050
 8858POPC   C4A70386  28.375   0.473   7.350
 8858POPC   C1B70387  28.422   0.197   6.450
 8858POPC   C2B70388  28.425   0.189   6.750
 8858POPC   C3B70389  28.483   0.193   7.050
 8858POPC   C4B70390  28.423   0.151   7.350
 8859POPC   NC370391  26.861  16.710   5.550
 8859POPC   PO470392  26.847  16.724   5.850
 8859POPC   GL170393  26.804  16.702   6.150
 8859POPC   GL270394  26.732  16.821   6.150
 8859POPC   C1A70395  26.771  16.781   6.450
 8859POPC   D2A70396  26.824  16.696   6.750
 8859POPC   C3A70397  26.803  16.705   7.050
 8859POPC   C4A70398  26.797  16.732   7.350
 8859POPC   C1B70399  26.708  16.985   6.450
 8859POPC   C2B70400  26.760  17.014   6.750
 8859POPC   C3B70401  26.736  16.925   7.050
 8859POPC   C4B70402  26.740  16.924   7.350
 8860POPC   NC370403  16.768  36.169   5.550
 8860POPC   PO470404  16.683  36.140   5.850
 8860POPC   GL170405  16.764  36.156   6.150
 8860POPC   GL270406  16.806  36.097   6.150
 8860POPC   C1A70407  16.771  36.129   6.450
 8860POPC   D2A70408  16.725  36.102   6.750
 8860POPC   C3A70409  16.751  36.078   7.050
 8860POPC   C4A70410  16.724  36.126   7.350
 8860POPC   C1B70411  16.972  36.002   6.450
 8860POPC   C2B70412  16.935  36.039   6.750
 8860POPC   C3B70413  16.913  36.038   7.050
 8860POPC   C4B70414  16.904  35.953   7.350
 8861POPC   NC370415  18.267   3.544   5.550
 8861POPC   PO470416  18.260   3.549   5.850
 8861POPC   GL170417  18.291   3.492   6.150
 8861POPC   GL270418  18.152   3.530   6.150
 8861POPC   C1A70419  18.328   3.552   6.450
 8861POPC   D2A70420  18.289   3.564   6.750
 8861POPC   C3A70421  18.283   3.575   7.050
 8861POPC   C4A70422  18.310   3.547   7.350
 8861POPC   C1B70423  18.024   3.618   6.450
 8861POPC   C2B70424  18.039   3.568   6.750
 8861POPC   C3B70425  18.075   3.606   7.050
 8861POPC   C4B70426  18.030   3.585   7.350
 8862POPC   NC370427  42.341   1.165   5.550
 8862POPC   PO470428  42.328   1.170   5.850
 8862POPC   GL170429  42.313   1.180   6.150
 8862POPC   GL270430  42.375   1.093   6.150
 8862POPC   C1A70431  42.315   1.171   6.450
 8862POPC   D2A70432  42.365   1.258   6.750
 8862POPC   C3A70433  42.301   1.182   7.050
 8862POPC   C4A70434  42.350   1.205   7.350
 8862POPC   C1B70435  42.369   0.915   6.450
 8862POPC   C2B70436  42.352   0.925   6.750
 8862POPC   C3B70437  42.322   0.956   7.050
 8862POPC   C4B70438  42.327   0.986   7.350
 8863POPC   NC370439  29.932  29.873   5.550
 8863POPC   PO470440  29.954  29.933   5.850
 8863POPC   GL170441  29.958  29.964   6.150
 8863POPC   GL270442  29.990  29.891   6.150
 8863POPC   C1A70443  29.936  29.949   6.450
 8863POPC   D2A70444  29.966  29.903   6.750
 8863POPC   C3A70445  29.960  29.883   7.050
 8863POPC   C4A70446  29.876  29.889   7.350
 8863POPC   C1B70447  30.124  29.836   6.450
 8863POPC   C2B70448  30.168  29.783   6.750
 8863POPC   C3B70449  30.138  29.786   7.050
 8863POPC   C4B70450  30.146  29.833   7.350
 8864POPC   NC370451   9.785  31.466   5.550
 8864POPC   PO470452   9.788  31.452   5.850
 8864POPC   GL170453   9.714  31.460   6.150
 8864POPC   GL270454   9.841  31.371   6.150
 8864POPC   C1A70455   9.723  31.440   6.450
 8864POPC   D2A70456   9.716  31.465   6.750
 8864POPC   C3A70457   9.796  31.481   7.050
 8864POPC   C4A70458   9.714  31.452   7.350
 8864POPC   C1B70459   9.918  31.346   6.450
 8864POPC   C2B70460   9.954  31.322   6.750
 8864POPC   C3B70461   9.978  31.289   7.050
 8864POPC   C4B70462   9.922  31.306   7.350
 8865POPC   NC370463  12.841  33.024   5.550
 8865POPC   PO470464  12.840  33.009   5.850
 8865POPC   GL170465  12.813  33.052   6.150
 8865POPC   GL270466  12.936  32.879   6.150
 8865POPC   C1A70467  12.848  33.070   6.450
 8865POPC   D2A70468  12.815  32.997   6.750
 8865POPC   C3A70469  12.836  33.010   7.050
 8865POPC   C4A70470  12.880  33.046   7.350
 8865POPC   C1B70471  13.017  32.822   6.450
 8865POPC   C2B70472  12.943  32.847   6.750
 8865POPC   C3B70473  12.992  32.862   7.050
 8865POPC   C4B70474  12.997  32.797   7.350
 8866POPC   NC370475  25.247   2.768   5.550
 8866POPC   PO470476  25.244   2.815   5.850
 8866POPC   GL170477  25.229   2.778   6.150
 8866POPC   GL270478  25.338   2.827   6.150
 8866POPC   C1A70479  25.304   2.718   6.450
 8866POPC   D2A70480  25.244   2.779   6.750
 8866POPC   C3A70481  25.231   2.722   7.050
 8866POPC   C4A70482  25.259   2.765   7.350
 8866POPC   C1B70483  25.521   2.875   6.450
 8866POPC   C2B70484  25.456   2.865   6.750
 8866POPC   C3B70485  25.483   2.806   7.050
 8866POPC   C4B70486  25.459   2.868   7.350
 8867POPC   NC370487  39.230  35.375   5.550
 8867POPC   PO470488  39.244  35.332   5.850
 8867POPC   GL170489  39.182  35.323   6.150
 8867POPC   GL270490  39.347  35.355   6.150
 8867POPC   C1A70491  39.278  35.402   6.450
 8867POPC   D2A70492  39.239  35.321   6.750
 8867POPC   C3A70493  39.280  35.385   7.050
 8867POPC   C4A70494  39.243  35.391   7.350
 8867POPC   C1B70495  39.484  35.397   6.450
 8867POPC   C2B70496  39.474  35.385   6.750
 8867POPC   C3B70497  39.472  35.459   7.050
 8867POPC   C4B70498  39.430  35.417   7.350
 8868POPC   NC370499  35.387  14.421   5.550
 8868POPC   PO470500  35.360  14.407   5.850
 8868POPC   GL170501  35.393  14.396   6.150
 8868POPC   GL270502  35.502  14.462   6.150
 8868POPC   C1A70503  35.352  14.439   6.450
 8868POPC   D2A70504  35.321  14.420   6.750
 8868POPC   C3A70505  35.378  14.421   7.050
 8868POPC   C4A70506  35.393  14.355   7.350
 8868POPC   C1B70507  35.594  14.566   6.450
 8868POPC   C2B70508  35.618  14.525   6.750
 8868POPC   C3B70509  35.576  14.476   7.050
 8868POPC   C4B70510  35.598  14.545   7.350
 8869POPC   NC370511  29.140   6.672   5.550
 8869POPC   PO470512  29.109   6.642   5.850
 8869POPC   GL170513  29.134   6.621   6.150
 8869POPC   GL270514  28.996   6.600   6.150
 8869POPC   C1A70515  29.182   6.616   6.450
 8869POPC   D2A70516  29.194   6.663   6.750
 8869POPC   C3A70517  29.118   6.677   7.050
 8869POPC   C4A70518  29.105   6.602   7.350
 8869POPC   C1B70519  28.928   6.574   6.450
 8869POPC   C2B70520  28.882   6.631   6.750
 8869POPC   C3B70521  28.875   6.648   7.050
 8869POPC   C4B70522  28.873   6.571   7.350
 8870POPC   NC370523  29.898  35.352   5.550
 8870POPC   PO470524  29.911  35.370   5.850
 8870POPC   GL170525  29.930  35.317   6.150
 8870POPC   GL270526  29.862  35.303   6.150
 8870POPC   C1A70527  29.875  35.384   6.450
 8870POPC   D2A70528  29.882  35.360   6.750
 8870POPC   C3A70529  29.956  35.395   7.050
 8870POPC   C4A70530  29.886  35.303   7.350
 8870POPC   C1B70531  29.705  35.214   6.450
 8870POPC   C2B70532  29.717  35.213   6.750
 8870POPC   C3B70533  29.736  35.227   7.050
 8870POPC   C4B70534  29.714  35.194   7.350
 8871POPC   NC370535  43.085  20.600   5.550
 8871POPC   PO470536  43.119  20.652   5.850
 8871POPC   GL170537  43.066  20.575   6.150
 8871POPC   GL270538  43.124  20.469   6.150
 8871POPC   C1A70539  43.147  20.612   6.450
 8871POPC   D2A70540  43.156  20.641   6.750
 8871POPC   C3A70541  43.118  20.633   7.050
 8871POPC   C4A70542  43.073  20.657   7.350
 8871POPC   C1B70543  43.085  20.317   6.450
 8871POPC   C2B70544  43.120  20.348   6.750
 8871POPC   C3B70545  43.079  20.388   7.050
 8871POPC   C4B70546  43.083  20.315   7.350
 8872POPC   NC370547  26.012  43.837   5.550
 8872POPC   PO470548  26.073  43.840   5.850
 8872POPC   GL170549  26.073  43.851   6.150
 8872POPC   GL270550  25.918  43.975   6.150
 8872POPC   C1A70551  26.076  43.855   6.450
 8872POPC   D2A70552  26.064  43.840   6.750
 8872POPC   C3A70553  26.069  43.892   7.050
 8872POPC   C4A70554  25.998  43.858   7.350
 8872POPC   C1B70555  25.835  44.014   6.450
 8872POPC   C2B70556  25.793  44.040   6.750
 8872POPC   C3B70557  25.830  43.989   7.050
 8872POPC   C4B70558  25.844  44.016   7.350
 8873POPC   NC370559  35.368   0.396   5.550
 8873POPC   PO470560  35.377   0.408   5.850
 8873POPC   GL170561  35.393   0.397   6.150
 8873POPC   GL270562  35.407   0.368   6.150
 8873POPC   C1A70563  35.307   0.475   6.450
 8873POPC   D2A70564  35.379   0.484   6.750
 8873POPC   C3A70565  35.335   0.407   7.050
 8873POPC   C4A70566  35.331   0.455   7.350
 8873POPC   C1B70567  35.496   0.239   6.450
 8873POPC   C2B70568  35.515   0.272   6.750
 8873POPC   C3B70569  35.496   0.228   7.050
 8873POPC   C4B70570  35.532   0.264   7.350
 8874POPC   NC370571   6.606  44.709   5.550
 8874POPC   PO470572   6.686  44.635   5.850
 8874POPC   GL170573   6.663  44.642   6.150
 8874POPC   GL270574   6.670  44.777   6.150
 8874POPC   C1A70575   6.664  44.697   6.450
 8874POPC   D2A70576   6.614  44.666   6.750
 8874POPC   C3A70577   6.634  44.650   7.050
 8874POPC   C4A70578   6.665  44.664   7.350
 8874POPC   C1B70579   6.597  44.938   6.450
 8874POPC   C2B70580   6.613  44.910   6.750
 8874POPC   C3B70581   6.611  44.915   7.050
 8874POPC   C4B70582   6.653  44.895   7.350
 8875POPC   NC370583  19.019  37.705   5.550
 8875POPC   PO470584  19.105  37.721   5.850
 8875POPC   GL170585  19.013  37.683   6.150
 8875POPC   GL270586  19.138  37.561   6.150
 8875POPC   C1A70587  19.102  37.630   6.450
 8875POPC   D2A70588  19.038  37.679   6.750
 8875POPC   C3A70589  19.019  37.704   7.050
 8875POPC   C4A70590  19.075  37.661   7.350
 8875POPC   C1B70591  19.110  37.419   6.450
 8875POPC   C2B70592  19.128  37.421   6.750
 8875POPC   C3B70593  19.134  37.418   7.050
 8875POPC   C4B70594  19.151  37.439   7.350
 8876POPC   NC370595  24.482  43.072   5.550
 8876POPC   PO470596  24.448  43.079   5.850
 8876POPC   GL170597  24.497  43.119   6.150
 8876POPC   GL270598  24.424  43.207   6.150
 8876POPC   C1A70599  24.480  43.147   6.450
 8876POPC   D2A70600  24.536  43.151   6.750
 8876POPC   C3A70601  24.450  43.092   7.050
 8876POPC   C4A70602  24.491  43.142   7.350
 8876POPC   C1B70603  24.244  43.276   6.450
 8876POPC   C2B70604  24.263  43.300   6.750
 8876POPC   C3B70605  24.236  43.298   7.050
 8876POPC   C4B70606  24.256  43.205   7.350
 8877POPC   NC370607  39.975  43.089   5.550
 8877POPC   PO470608  39.968  43.082   5.850
 8877POPC   GL170609  40.013  43.153   6.150
 8877POPC   GL270610  40.064  42.999   6.150
 8877POPC   C1A70611  40.004  43.144   6.450
 8877POPC   D2A70612  39.966  43.113   6.750
 8877POPC   C3A70613  39.963  43.088   7.050
 8877POPC   C4A70614  40.053  43.132   7.350
 8877POPC   C1B70615  40.135  42.913   6.450
 8877POPC   C2B70616  40.136  42.838   6.750
 8877POPC   C3B70617  40.062  42.920   7.050
 8877POPC   C4B70618  40.076  42.900   7.350
 8878POPC   NC370619  43.871  22.195   5.550
 8878POPC   PO470620  43.866  22.125   5.850
 8878POPC   GL170621  43.878  22.153   6.150
 8878POPC   GL270622  43.801  22.198   6.150
 8878POPC   C1A70623  43.846  22.164   6.450
 8878POPC   D2A70624  43.898  22.184   6.750
 8878POPC   C3A70625  43.915  22.212   7.050
 8878POPC   C4A70626  43.881  22.163   7.350
 8878POPC   C1B70627  43.631  22.213   6.450
 8878POPC   C2B70628  43.627  22.170   6.750
 8878POPC   C3B70629  43.665  22.133   7.050
 8878POPC   C4B70630  43.652  22.209   7.350
 8879POPC   NC370631   5.902  40.042   5.550
 8879POPC   PO470632   5.820  40.043   5.850
 8879POPC   GL170633   5.831  40.035   6.150
 8879POPC   GL270634   5.897  40.127   6.150
 8879POPC   C1A70635   5.903  40.038   6.450
 8879POPC   D2A70636   5.826  39.961   6.750
 8879POPC   C3A70637   5.897  40.040   7.050
 8879POPC   C4A70638   5.899  40.053   7.350
 8879POPC   C1B70639   6.025  40.184   6.450
 8879POPC   C2B70640   5.979  40.257   6.750
 8879POPC   C3B70641   6.011  40.186   7.050
 8879POPC   C4B70642   5.994  40.229   7.350
 8880POPC   NC370643  26.830  29.139   5.550
 8880POPC   PO470644  26.829  29.137   5.850
 8880POPC   GL170645  26.798  29.156   6.150
 8880POPC   GL270646  26.882  29.318   6.150
 8880POPC   C1A70647  26.864  29.144   6.450
 8880POPC   D2A70648  26.793  29.143   6.750
 8880POPC   C3A70649  26.789  29.161   7.050
 8880POPC   C4A70650  26.826  29.168   7.350
 8880POPC   C1B70651  26.898  29.368   6.450
 8880POPC   C2B70652  26.880  29.415   6.750
 8880POPC   C3B70653  26.856  29.408   7.050
 8880POPC   C4B70654  26.823  29.362   7.350
 8881POPC   NC370655  35.376  28.363   5.550
 8881POPC   PO470656  35.334  28.354   5.850
 8881POPC   GL170657  35.396  28.392   6.150
 8881POPC   GL270658  35.263  28.470   6.150
 8881POPC   C1A70659  35.307  28.373   6.450
 8881POPC   D2A70660  35.388  28.321   6.750
 8881POPC   C3A70661  35.357  28.374   7.050
 8881POPC   C4A70662  35.367  28.381   7.350
 8881POPC   C1B70663  35.227  28.578   6.450
 8881POPC   C2B70664  35.268  28.595   6.750
 8881POPC   C3B70665  35.267  28.645   7.050
 8881POPC   C4B70666  35.265  28.630   7.350
 8882POPC   NC370667  18.327   5.063   5.550
 8882POPC   PO470668  18.264   5.139   5.850
 8882POPC   GL170669  18.300   5.053   6.150
 8882POPC   GL270670  18.378   5.140   6.150
 8882POPC   C1A70671  18.281   5.122   6.450
 8882POPC   D2A70672  18.318   5.137   6.750
 8882POPC   C3A70673  18.293   5.062   7.050
 8882POPC   C4A70674  18.320   5.094   7.350
 8882POPC   C1B70675  18.532   5.116   6.450
 8882POPC   C2B70676  18.504   5.138   6.750
 8882POPC   C3B70677  18.581   5.108   7.050
 8882POPC   C4B70678  18.539   5.139   7.350
 8883POPC   NC370679  31.497  26.019   5.550
 8883POPC   PO470680  31.463  26.066   5.850
 8883POPC   GL170681  31.507  26.082   6.150
 8883POPC   GL270682  31.473  25.919   6.150
 8883POPC   C1A70683  31.510  26.003   6.450
 8883POPC   D2A70684  31.486  26.029   6.750
 8883POPC   C3A70685  31.434  25.999   7.050
 8883POPC   C4A70686  31.490  26.032   7.350
 8883POPC   C1B70687  31.354  25.839   6.450
 8883POPC   C2B70688  31.440  25.816   6.750
 8883POPC   C3B70689  31.424  25.793   7.050
 8883POPC   C4B70690  31.434  25.764   7.350
 8884POPC   NC370691  15.152  24.487   5.550
 8884POPC   PO470692  15.156  24.440   5.850
 8884POPC   GL170693  15.223  24.470   6.150
 8884POPC   GL270694  15.259  24.432   6.150
 8884POPC   C1A70695  15.192  24.462   6.450
 8884POPC   D2A70696  15.132  24.527   6.750
 8884POPC   C3A70697  15.226  24.476   7.050
 8884POPC   C4A70698  15.202  24.441   7.350
 8884POPC   C1B70699  15.372  24.327   6.450
 8884POPC   C2B70700  15.326  24.313   6.750
 8884POPC   C3B70701  15.339  24.293   7.050
 8884POPC   C4B70702  15.323  24.295   7.350
 8885POPC   NC370703   0.469  33.825   5.550
 8885POPC   PO470704   0.442  33.755   5.850
 8885POPC   GL170705   0.462  33.795   6.150
 8885POPC   GL270706   0.325  33.882   6.150
 8885POPC   C1A70707   0.392  33.758   6.450
 8885POPC   D2A70708   0.444  33.820   6.750
 8885POPC   C3A70709   0.430  33.785   7.050
 8885POPC   C4A70710   0.456  33.790   7.350
 8885POPC   C1B70711   0.284  33.958   6.450
 8885POPC   C2B70712   0.293  33.979   6.750
 8885POPC   C3B70713   0.260  33.999   7.050
 8885POPC   C4B70714   0.306  34.026   7.350
 8886POPC   NC370715  15.982  16.744   5.550
 8886POPC   PO470716  15.968  16.700   5.850
 8886POPC   GL170717  15.955  16.724   6.150
 8886POPC   GL270718  16.052  16.818   6.150
 8886POPC   C1A70719  15.918  16.744   6.450
 8886POPC   D2A70720  15.995  16.705   6.750
 8886POPC   C3A70721  15.973  16.778   7.050
 8886POPC   C4A70722  16.005  16.766   7.350
 8886POPC   C1B70723  16.105  16.899   6.450
 8886POPC   C2B70724  16.095  16.927   6.750
 8886POPC   C3B70725  16.087  16.895   7.050
 8886POPC   C4B70726  16.065  16.895   7.350
 8887POPC   NC370727  19.059  22.177   5.550
 8887POPC   PO470728  19.035  22.138   5.850
 8887POPC   GL170729  19.027  22.166   6.150
 8887POPC   GL270730  18.958  22.191   6.150
 8887POPC   C1A70731  19.077  22.210   6.450
 8887POPC   D2A70732  19.013  22.191   6.750
 8887POPC   C3A70733  19.037  22.166   7.050
 8887POPC   C4A70734  19.091  22.123   7.350
 8887POPC   C1B70735  18.844  22.192   6.450
 8887POPC   C2B70736  18.779  22.159   6.750
 8887POPC   C3B70737  18.779  22.185   7.050
 8887POPC   C4B70738  18.777  22.177   7.350
 8888POPC   NC370739   1.219  30.736   5.550
 8888POPC   PO470740   1.238  30.743   5.850
 8888POPC   GL170741   1.263  30.699   6.150
 8888POPC   GL270742   1.088  30.746   6.150
 8888POPC   C1A70743   1.175  30.678   6.450
 8888POPC   D2A70744   1.198  30.734   6.750
 8888POPC   C3A70745   1.255  30.704   7.050
 8888POPC   C4A70746   1.260  30.711   7.350
 8888POPC   C1B70747   1.014  30.768   6.450
 8888POPC   C2B70748   0.979  30.802   6.750
 8888POPC   C3B70749   0.938  30.777   7.050
 8888POPC   C4B70750   0.994  30.767   7.350
 8889POPC   NC370751  40.818  30.702   5.550
 8889POPC   PO470752  40.762  30.696   5.850
 8889POPC   GL170753  40.760  30.716   6.150
 8889POPC   GL270754  40.731  30.780   6.150
 8889POPC   C1A70755  40.815  30.698   6.450
 8889POPC   D2A70756  40.830  30.704   6.750
 8889POPC   C3A70757  40.780  30.745   7.050
 8889POPC   C4A70758  40.745  30.680   7.350
 8889POPC   C1B70759  40.621  30.822   6.450
 8889POPC   C2B70760  40.639  30.885   6.750
 8889POPC   C3B70761  40.570  30.875   7.050
 8889POPC   C4B70762  40.639  30.890   7.350
 8890POPC   NC370763  38.464  19.030   5.550
 8890POPC   PO470764  38.445  19.026   5.850
 8890POPC   GL170765  38.475  19.054   6.150
 8890POPC   GL270766  38.524  18.932   6.150
 8890POPC   C1A70767  38.426  19.052   6.450
 8890POPC   D2A70768  38.420  19.086   6.750
 8890POPC   C3A70769  38.485  19.023   7.050
 8890POPC   C4A70770  38.490  19.076   7.350
 8890POPC   C1B70771  38.624  18.856   6.450
 8890POPC   C2B70772  38.664  18.903   6.750
 8890POPC   C3B70773  38.605  18.935   7.050
 8890POPC   C4B70774  38.639  18.908   7.350
 8891POPC   NC370775  31.472  31.435   5.550
 8891POPC   PO470776  31.504  31.503   5.850
 8891POPC   GL170777  31.496  31.460   6.150
 8891POPC   GL270778  31.331  31.403   6.150
 8891POPC   C1A70779  31.504  31.448   6.450
 8891POPC   D2A70780  31.433  31.484   6.750
 8891POPC   C3A70781  31.469  31.447   7.050
 8891POPC   C4A70782  31.495  31.457   7.350
 8891POPC   C1B70783  31.200  31.351   6.450
 8891POPC   C2B70784  31.278  31.396   6.750
 8891POPC   C3B70785  31.286  31.384   7.050
 8891POPC   C4B70786  31.247  31.394   7.350
 8892POPC   NC370787  36.900  18.275   5.550
 8892POPC   PO470788  36.899  18.256   5.850
 8892POPC   GL170789  36.945  18.325   6.150
 8892POPC   GL270790  36.992  18.199   6.150
 8892POPC   C1A70791  36.887  18.326   6.450
 8892POPC   D2A70792  36.901  18.254   6.750
 8892POPC   C3A70793  36.939  18.266   7.050
 8892POPC   C4A70794  36.867  18.278   7.350
 8892POPC   C1B70795  37.131  18.176   6.450
 8892POPC   C2B70796  37.106  18.093   6.750
 8892POPC   C3B70797  37.117  18.163   7.050
 8892POPC   C4B70798  37.151  18.180   7.350
 8893POPC   NC370799   1.232  36.127   5.550
 8893POPC   PO470800   1.185  36.115   5.850
 8893POPC   GL170801   1.231  36.167   6.150
 8893POPC   GL270802   1.119  35.972   6.150
 8893POPC   C1A70803   1.224  36.097   6.450
 8893POPC   D2A70804   1.245  36.084   6.750
 8893POPC   C3A70805   1.238  36.129   7.050
 8893POPC   C4A70806   1.221  36.130   7.350
 8893POPC   C1B70807   1.091  35.910   6.450
 8893POPC   C2B70808   1.108  35.870   6.750
 8893POPC   C3B70809   1.066  35.873   7.050
 8893POPC   C4B70810   1.108  35.898   7.350
 8894POPC   NC370811  27.591  22.200   5.550
 8894POPC   PO470812  27.604  22.210   5.850
 8894POPC   GL170813  27.561  22.183   6.150
 8894POPC   GL270814  27.722  22.193   6.150
 8894POPC   C1A70815  27.620  22.123   6.450
 8894POPC   D2A70816  27.602  22.163   6.750
 8894POPC   C3A70817  27.632  22.131   7.050
 8894POPC   C4A70818  27.607  22.168   7.350
 8894POPC   C1B70819  27.863  22.254   6.450
 8894POPC   C2B70820  27.803  22.248   6.750
 8894POPC   C3B70821  27.816  22.284   7.050
 8894POPC   C4B70822  27.813  22.258   7.350
 8895POPC   NC370823  43.921  41.587   5.550
 8895POPC   PO470824  43.897  41.585   5.850
 8895POPC   GL170825  43.918  41.560   6.150
 8895POPC   GL270826  44.007  41.584   6.150
 8895POPC   C1A70827  43.886  41.536   6.450
 8895POPC   D2A70828  43.854  41.529   6.750
 8895POPC   C3A70829  43.887  41.538   7.050
 8895POPC   C4A70830  43.933  41.561   7.350
 8895POPC   C1B70831  44.171  41.562   6.450
 8895POPC   C2B70832  44.160  41.612   6.750
 8895POPC   C3B70833  44.142  41.608   7.050
 8895POPC   C4B70834  44.135  41.575   7.350
 8896POPC   NC370835  36.163  27.550   5.550
 8896POPC   PO470836  36.123  27.582   5.850
 8896POPC   GL170837  36.109  27.633   6.150
 8896POPC   GL270838  36.197  27.509   6.150
 8896POPC   C1A70839  36.149  27.642   6.450
 8896POPC   D2A70840  36.086  27.600   6.750
 8896POPC   C3A70841  36.166  27.564   7.050
 8896POPC   C4A70842  36.116  27.628   7.350
 8896POPC   C1B70843  36.275  27.410   6.450
 8896POPC   C2B70844  36.264  27.403   6.750
 8896POPC   C3B70845  36.306  27.379   7.050
 8896POPC   C4B70846  36.298  27.425   7.350
 8897POPC   NC370847  23.729  33.759   5.550
 8897POPC   PO470848  23.680  33.814   5.850
 8897POPC   GL170849  23.666  33.822   6.150
 8897POPC   GL270850  23.844  33.837   6.150
 8897POPC   C1A70851  23.719  33.831   6.450
 8897POPC   D2A70852  23.698  33.778   6.750
 8897POPC   C3A70853  23.760  33.789   7.050
 8897POPC   C4A70854  23.694  33.782   7.350
 8897POPC   C1B70855  23.940  33.935   6.450
 8897POPC   C2B70856  23.889  33.972   6.750
 8897POPC   C3B70857  23.916  33.920   7.050
 8897POPC   C4B70858  23.909  33.957   7.350
 8898POPC   NC370859  43.154  23.729   5.550
 8898POPC   PO470860  43.064  23.756   5.850
 8898POPC   GL170861  43.114  23.667   6.150
 8898POPC   GL270862  43.195  23.732   6.150
 8898POPC   C1A70863  43.114  23.726   6.450
 8898POPC   D2A70864  43.156  23.731   6.750
 8898POPC   C3A70865  43.157  23.711   7.050
 8898POPC   C4A70866  43.112  23.703   7.350
 8898POPC   C1B70867  43.352  23.821   6.450
 8898POPC   C2B70868  43.339  23.855   6.750
 8898POPC   C3B70869  43.301  23.820   7.050
 8898POPC   C4B70870  43.302  23.831   7.350
 8899POPC   NC370871   5.069  43.085   5.550
 8899POPC   PO470872   5.071  43.156   5.850
 8899POPC   GL170873   5.067  43.153   6.150
 8899POPC   GL270874   5.072  43.269   6.150
 8899POPC   C1A70875   5.130  43.073   6.450
 8899POPC   D2A70876   5.124  43.097   6.750
 8899POPC   C3A70877   5.113  43.104   7.050
 8899POPC   C4A70878   5.043  43.074   7.350
 8899POPC   C1B70879   5.096  43.385   6.450
 8899POPC   C2B70880   5.101  43.363   6.750
 8899POPC   C3B70881   5.115  43.333   7.050
 8899POPC   C4B70882   5.147  43.337   7.350
 8900POPC   NC370883  41.569   5.143   5.550
 8900POPC   PO470884  41.603   5.055   5.850
 8900POPC   GL170885  41.552   5.052   6.150
 8900POPC   GL270886  41.450   5.127   6.150
 8900POPC   C1A70887  41.530   5.138   6.450
 8900POPC   D2A70888  41.513   5.092   6.750
 8900POPC   C3A70889  41.560   5.110   7.050
 8900POPC   C4A70890  41.588   5.126   7.350
 8900POPC   C1B70891  41.285   5.083   6.450
 8900POPC   C2B70892  41.358   5.086   6.750
 8900POPC   C3B70893  41.292   5.077   7.050
 8900POPC   C4B70894  41.284   5.127   7.350
 8901POPC   NC370895  15.191  27.634   5.550
 8901POPC   PO470896  15.154  27.587   5.850
 8901POPC   GL170897  15.184  27.593   6.150
 8901POPC   GL270898  15.201  27.722   6.150
 8901POPC   C1A70899  15.179  27.634   6.450
 8901POPC   D2A70900  15.188  27.627   6.750
 8901POPC   C3A70901  15.151  27.637   7.050
 8901POPC   C4A70902  15.187  27.587   7.350
 8901POPC   C1B70903  15.220  27.865   6.450
 8901POPC   C2B70904  15.217  27.794   6.750
 8901POPC   C3B70905  15.174  27.849   7.050
 8901POPC   C4B70906  15.174  27.861   7.350
 8902POPC   NC370907   0.465  18.313   5.550
 8902POPC   PO470908   0.411  18.245   5.850
 8902POPC   GL170909   0.451  18.254   6.150
 8902POPC   GL270910   0.533  18.163   6.150
 8902POPC   C1A70911   0.426  18.269   6.450
 8902POPC   D2A70912   0.423  18.287   6.750
 8902POPC   C3A70913   0.480  18.242   7.050
 8902POPC   C4A70914   0.452  18.261   7.350
 8902POPC   C1B70915   0.594  18.119   6.450
 8902POPC   C2B70916   0.582  18.028   6.750
 8902POPC   C3B70917   0.533  18.034   7.050
 8902POPC   C4B70918   0.529  18.024   7.350
 8903POPC   NC370919  39.253  43.876   5.550
 8903POPC   PO470920  39.232  43.851   5.850
 8903POPC   GL170921  39.230  43.924   6.150
 8903POPC   GL270922  39.145  43.947   6.150
 8903POPC   C1A70923  39.243  43.914   6.450
 8903POPC   D2A70924  39.184  43.904   6.750
 8903POPC   C3A70925  39.212  43.848   7.050
 8903POPC   C4A70926  39.223  43.915   7.350
 8903POPC   C1B70927  39.031  44.064   6.450
 8903POPC   C2B70928  39.021  44.052   6.750
 8903POPC   C3B70929  39.035  44.064   7.050
 8903POPC   C4B70930  39.004  44.015   7.350
 8904POPC   NC370931   5.853  27.596   5.550
 8904POPC   PO470932   5.907  27.586   5.850
 8904POPC   GL170933   5.852  27.553   6.150
 8904POPC   GL270934   5.937  27.735   6.150
 8904POPC   C1A70935   5.912  27.636   6.450
 8904POPC   D2A70936   5.878  27.625   6.750
 8904POPC   C3A70937   5.821  27.600   7.050
 8904POPC   C4A70938   5.857  27.554   7.350
 8904POPC   C1B70939   6.004  27.784   6.450
 8904POPC   C2B70940   6.033  27.821   6.750
 8904POPC   C3B70941   6.002  27.802   7.050
 8904POPC   C4B70942   5.981  27.745   7.350
 8905POPC   NC370943  22.982  20.583   5.550
 8905POPC   PO470944  22.891  20.599   5.850
 8905POPC   GL170945  22.971  20.606   6.150
 8905POPC   GL270946  22.983  20.468   6.150
 8905POPC   C1A70947  22.905  20.626   6.450
 8905POPC   D2A70948  22.934  20.620   6.750
 8905POPC   C3A70949  22.930  20.599   7.050
 8905POPC   C4A70950  22.937  20.568   7.350
 8905POPC   C1B70951  23.135  20.448   6.450
 8905POPC   C2B70952  23.109  20.446   6.750
 8905POPC   C3B70953  23.144  20.433   7.050
 8905POPC   C4B70954  23.056  20.403   7.350
 8906POPC   NC370955  15.147  36.857   5.550
 8906POPC   PO470956  15.178  36.906   5.850
 8906POPC   GL170957  15.171  36.936   6.150
 8906POPC   GL270958  15.255  37.027   6.150
 8906POPC   C1A70959  15.199  36.934   6.450
 8906POPC   D2A70960  15.141  36.928   6.750
 8906POPC   C3A70961  15.196  36.877   7.050
 8906POPC   C4A70962  15.180  36.941   7.350
 8906POPC   C1B70963  15.308  37.143   6.450
 8906POPC   C2B70964  15.351  37.107   6.750
 8906POPC   C3B70965  15.314  37.129   7.050
 8906POPC   C4B70966  15.349  37.090   7.350
 8907POPC   NC370967  35.348  12.863   5.550
 8907POPC   PO470968  35.333  12.815   5.850
 8907POPC   GL170969  35.321  12.896   6.150
 8907POPC   GL270970  35.266  12.738   6.150
 8907POPC   C1A70971  35.351  12.831   6.450
 8907POPC   D2A70972  35.372  12.811   6.750
 8907POPC   C3A70973  35.397  12.862   7.050
 8907POPC   C4A70974  35.337  12.835   7.350
 8907POPC   C1B70975  35.251  12.677   6.450
 8907POPC   C2B70976  35.253  12.614   6.750
 8907POPC   C3B70977  35.268  12.584   7.050
 8907POPC   C4B70978  35.190  12.652   7.350
 8908POPC   NC370979  22.119  24.473   5.550
 8908POPC   PO470980  22.176  24.501   5.850
 8908POPC   GL170981  22.175  24.491   6.150
 8908POPC   GL270982  22.282  24.491   6.150
 8908POPC   C1A70983  22.138  24.478   6.450
 8908POPC   D2A70984  22.193  24.505   6.750
 8908POPC   C3A70985  22.144  24.523   7.050
 8908POPC   C4A70986  22.185  24.471   7.350
 8908POPC   C1B70987  22.362  24.571   6.450
 8908POPC   C2B70988  22.406  24.560   6.750
 8908POPC   C3B70989  22.447  24.566   7.050
 8908POPC   C4B70990  22.404  24.585   7.350
 8909POPC   NC370991  35.361  29.969   5.550
 8909POPC   PO470992  35.328  29.917   5.850
 8909POPC   GL170993  35.341  29.928   6.150
 8909POPC   GL270994  35.230  29.965   6.150
 8909POPC   C1A70995  35.373  29.885   6.450
 8909POPC   D2A70996  35.337  29.908   6.750
 8909POPC   C3A70997  35.390  29.914   7.050
 8909POPC   C4A70998  35.327  29.878   7.350
 8909POPC   C1B70999  35.087  30.000   6.450
 8909POPC   C2B71000  35.115  30.018   6.750
 8909POPC   C3B71001  35.111  30.057   7.050
 8909POPC   C4B71002  35.174  30.066   7.350
 8910POPC   NC371003  15.914  32.273   5.550
 8910POPC   PO471004  15.981  32.234   5.850
 8910POPC   GL171005  16.003  32.243   6.150
 8910POPC   GL271006  16.041  32.394   6.150
 8910POPC   C1A71007  15.932  32.274   6.450
 8910POPC   D2A71008  15.982  32.245   6.750
 8910POPC   C3A71009  15.915  32.230   7.050
 8910POPC   C4A71010  15.988  32.274   7.350
 8910POPC   C1B71011  16.057  32.470   6.450
 8910POPC   C2B71012  16.045  32.517   6.750
 8910POPC   C3B71013  16.110  32.497   7.050
 8910POPC   C4B71014  16.121  32.492   7.350
 8911POPC   NC371015  11.314   5.847   5.550
 8911POPC   PO471016  11.328   5.850   5.850
 8911POPC   GL171017  11.298   5.858   6.150
 8911POPC   GL271018  11.364   5.718   6.150
 8911POPC   C1A71019  11.335   5.862   6.450
 8911POPC   D2A71020  11.290   5.861   6.750
 8911POPC   C3A71021  11.304   5.880   7.050
 8911POPC   C4A71022  11.331   5.828   7.350
 8911POPC   C1B71023  11.403   5.687   6.450
 8911POPC   C2B71024  11.426   5.627   6.750
 8911POPC   C3B71025  11.406   5.605   7.050
 8911POPC   C4B71026  11.359   5.655   7.350
 8912POPC   NC371027  29.155   0.409   5.550
 8912POPC   PO471028  29.102   0.453   5.850
 8912POPC   GL171029  29.133   0.478   6.150
 8912POPC   GL271030  29.082   0.278   6.150
 8912POPC   C1A71031  29.193   0.433   6.450
 8912POPC   D2A71032  29.095   0.474   6.750
 8912POPC   C3A71033  29.138   0.463   7.050
 8912POPC   C4A71034  29.180   0.484   7.350
 8912POPC   C1B71035  29.063   0.194   6.450
 8912POPC   C2B71036  29.098   0.177   6.750
 8912POPC   C3B71037  29.065   0.240   7.050
 8912POPC   C4B71038  29.109   0.153   7.350
 8913POPC   NC371039  42.375  20.656   5.550
 8913POPC   PO471040  42.358  20.639   5.850
 8913POPC   GL171041  42.334  20.561   6.150
 8913POPC   GL271042  42.356  20.494   6.150
 8913POPC   C1A71043  42.348  20.633   6.450
 8913POPC   D2A71044  42.297  20.619   6.750
 8913POPC   C3A71045  42.343  20.651   7.050
 8913POPC   C4A71046  42.371  20.643   7.350
 8913POPC   C1B71047  42.417  20.397   6.450
 8913POPC   C2B71048  42.459  20.392   6.750
 8913POPC   C3B71049  42.445  20.371   7.050
 8913POPC   C4B71050  42.454  20.394   7.350
 8914POPC   NC371051  39.975  41.544   5.550
 8914POPC   PO471052  39.973  41.605   5.850
 8914POPC   GL171053  40.045  41.524   6.150
 8914POPC   GL271054  39.907  41.536   6.150
 8914POPC   C1A71055  39.978  41.564   6.450
 8914POPC   D2A71056  40.039  41.561   6.750
 8914POPC   C3A71057  40.034  41.577   7.050
 8914POPC   C4A71058  40.034  41.543   7.350
 8914POPC   C1B71059  39.774  41.570   6.450
 8914POPC   C2B71060  39.730  41.525   6.750
 8914POPC   C3B71061  39.788  41.577   7.050
 8914POPC   C4B71062  39.726  41.573   7.350
 8915POPC   NC371063  37.716  20.594   5.550
 8915POPC   PO471064  37.692  20.616   5.850
 8915POPC   GL171065  37.643  20.655   6.150
 8915POPC   GL271066  37.638  20.448   6.150
 8915POPC   C1A71067  37.665  20.639   6.450
 8915POPC   D2A71068  37.650  20.569   6.750
 8915POPC   C3A71069  37.664  20.635   7.050
 8915POPC   C4A71070  37.655  20.595   7.350
 8915POPC   C1B71071  37.612  20.354   6.450
 8915POPC   C2B71072  37.571  20.353   6.750
 8915POPC   C3B71073  37.597  20.363   7.050
 8915POPC   C4B71074  37.625  20.372   7.350
 8916POPC   NC371075  15.937  17.491   5.550
 8916POPC   PO471076  15.991  17.494   5.850
 8916POPC   GL171077  15.985  17.544   6.150
 8916POPC   GL271078  15.876  17.499   6.150
 8916POPC   C1A71079  15.984  17.551   6.450
 8916POPC   D2A71080  15.958  17.537   6.750
 8916POPC   C3A71081  15.999  17.537   7.050
 8916POPC   C4A71082  15.941  17.501   7.350
 8916POPC   C1B71083  15.692  17.409   6.450
 8916POPC   C2B71084  15.725  17.426   6.750
 8916POPC   C3B71085  15.681  17.360   7.050
 8916POPC   C4B71086  15.738  17.390   7.350
 8917POPC   NC371087  29.152  12.069   5.550
 8917POPC   PO471088  29.180  12.093   5.850
 8917POPC   GL171089  29.167  12.029   6.150
 8917POPC   GL271090  29.229  12.048   6.150
 8917POPC   C1A71091  29.106  12.103   6.450
 8917POPC   D2A71092  29.130  12.125   6.750
 8917POPC   C3A71093  29.102  12.072   7.050
 8917POPC   C4A71094  29.102  12.059   7.350
 8917POPC   C1B71095  29.396  12.037   6.450
 8917POPC   C2B71096  29.388  12.017   6.750
 8917POPC   C3B71097  29.417  11.947   7.050
 8917POPC   C4B71098  29.378  11.948   7.350
 8918POPC   NC371099  22.208  43.158   5.550
 8918POPC   PO471100  22.131  43.087   5.850
 8918POPC   GL171101  22.153  43.093   6.150
 8918POPC   GL271102  22.174  43.252   6.150
 8918POPC   C1A71103  22.151  43.079   6.450
 8918POPC   D2A71104  22.149  43.129   6.750
 8918POPC   C3A71105  22.138  43.135   7.050
 8918POPC   C4A71106  22.118  43.135   7.350
 8918POPC   C1B71107  22.218  43.400   6.450
 8918POPC   C2B71108  22.173  43.366   6.750
 8918POPC   C3B71109  22.221  43.309   7.050
 8918POPC   C4B71110  22.232  43.401   7.350
 8919POPC   NC371111  10.486  42.292   5.550
 8919POPC   PO471112  10.502  42.345   5.850
 8919POPC   GL171113  10.534  42.332   6.150
 8919POPC   GL271114  10.434  42.321   6.150
 8919POPC   C1A71115  10.524  42.366   6.450
 8919POPC   D2A71116  10.499  42.355   6.750
 8919POPC   C3A71117  10.569  42.288   7.050
 8919POPC   C4A71118  10.524  42.332   7.350
 8919POPC   C1B71119  10.304  42.286   6.450
 8919POPC   C2B71120  10.252  42.215   6.750
 8919POPC   C3B71121  10.251  42.291   7.050
 8919POPC   C4B71122  10.329  42.269   7.350
 8920POPC   NC371123  34.584  43.876   5.550
 8920POPC   PO471124  34.608  43.876   5.850
 8920POPC   GL171125  34.537  43.930   6.150
 8920POPC   GL271126  34.469  43.868   6.150
 8920POPC   C1A71127  34.568  43.842   6.450
 8920POPC   D2A71128  34.596  43.913   6.750
 8920POPC   C3A71129  34.536  43.910   7.050
 8920POPC   C4A71130  34.576  43.852   7.350
 8920POPC   C1B71131  34.322  43.873   6.450
 8920POPC   C2B71132  34.333  43.793   6.750
 8920POPC   C3B71133  34.297  43.824   7.050
 8920POPC   C4B71134  34.291  43.888   7.350
 8921POPC   NC371135   2.758  27.630   5.550
 8921POPC   PO471136   2.784  27.579   5.850
 8921POPC   GL171137   2.800  27.625   6.150
 8921POPC   GL271138   2.858  27.519   6.150
 8921POPC   C1A71139   2.741  27.620   6.450
 8921POPC   D2A71140   2.800  27.552   6.750
 8921POPC   C3A71141   2.812  27.563   7.050
 8921POPC   C4A71142   2.736  27.551   7.350
 8921POPC   C1B71143   2.934  27.365   6.450
 8921POPC   C2B71144   2.907  27.416   6.750
 8921POPC   C3B71145   2.871  27.389   7.050
 8921POPC   C4B71146   2.915  27.437   7.350
 8922POPC   NC371147  29.118  14.439   5.550
 8922POPC   PO471148  29.165  14.434   5.850
 8922POPC   GL171149  29.119  14.374   6.150
 8922POPC   GL271150  29.190  14.336   6.150
 8922POPC   C1A71151  29.139  14.413   6.450
 8922POPC   D2A71152  29.135  14.433   6.750
 8922POPC   C3A71153  29.183  14.441   7.050
 8922POPC   C4A71154  29.160  14.363   7.350
 8922POPC   C1B71155  29.295  14.179   6.450
 8922POPC   C2B71156  29.338  14.214   6.750
 8922POPC   C3B71157  29.284  14.196   7.050
 8922POPC   C4B71158  29.317  14.224   7.350
 8923POPC   NC371159  29.133   9.785   5.550
 8923POPC   PO471160  29.173   9.750   5.850
 8923POPC   GL171161  29.132   9.745   6.150
 8923POPC   GL271162  29.041   9.728   6.150
 8923POPC   C1A71163  29.175   9.731   6.450
 8923POPC   D2A71164  29.114   9.778   6.750
 8923POPC   C3A71165  29.099   9.730   7.050
 8923POPC   C4A71166  29.109   9.793   7.350
 8923POPC   C1B71167  28.855   9.675   6.450
 8923POPC   C2B71168  28.911   9.702   6.750
 8923POPC   C3B71169  28.892   9.659   7.050
 8923POPC   C4B71170  28.874   9.707   7.350
 8924POPC   NC371171  30.686  29.116   5.550
 8924POPC   PO471172  30.718  29.155   5.850
 8924POPC   GL171173  30.701  29.103   6.150
 8924POPC   GL271174  30.638  29.027   6.150
 8924POPC   C1A71175  30.731  29.170   6.450
 8924POPC   D2A71176  30.714  29.165   6.750
 8924POPC   C3A71177  30.663  29.113   7.050
 8924POPC   C4A71178  30.658  29.192   7.350
 8924POPC   C1B71179  30.516  28.962   6.450
 8924POPC   C2B71180  30.505  29.021   6.750
 8924POPC   C3B71181  30.485  29.012   7.050
 8924POPC   C4B71182  30.549  29.007   7.350
 8925POPC   NC371183   9.733   2.760   5.550
 8925POPC   PO471184   9.794   2.759   5.850
 8925POPC   GL171185   9.703   2.719   6.150
 8925POPC   GL271186   9.836   2.729   6.150
 8925POPC   C1A71187   9.705   2.771   6.450
 8925POPC   D2A71188   9.788   2.787   6.750
 8925POPC   C3A71189   9.746   2.779   7.050
 8925POPC   C4A71190   9.777   2.752   7.350
 8925POPC   C1B71191  10.007   2.751   6.450
 8925POPC   C2B71192   9.952   2.748   6.750
 8925POPC   C3B71193   9.995   2.727   7.050
 8925POPC   C4B71194   9.974   2.744   7.350
 8926POPC   NC371195  33.037  40.030   5.550
 8926POPC   PO471196  32.982  40.044   5.850
 8926POPC   GL171197  33.027  40.010   6.150
 8926POPC   GL271198  33.113  40.064   6.150
 8926POPC   C1A71199  33.006  40.026   6.450
 8926POPC   D2A71200  33.009  40.040   6.750
 8926POPC   C3A71201  33.027  39.985   7.050
 8926POPC   C4A71202  33.014  39.976   7.350
 8926POPC   C1B71203  33.278  40.092   6.450
 8926POPC   C2B71204  33.315  40.033   6.750
 8926POPC   C3B71205  33.238  40.021   7.050
 8926POPC   C4B71206  33.247  40.058   7.350
 8927POPC   NC371207   8.231   9.737   5.550
 8927POPC   PO471208   8.245   9.752   5.850
 8927POPC   GL171209   8.157   9.775   6.150
 8927POPC   GL271210   8.023   9.706   6.150
 8927POPC   C1A71211   8.244   9.750   6.450
 8927POPC   D2A71212   8.152   9.738   6.750
 8927POPC   C3A71213   8.205   9.776   7.050
 8927POPC   C4A71214   8.246   9.790   7.350
 8927POPC   C1B71215   7.954   9.728   6.450
 8927POPC   C2B71216   7.994   9.691   6.750
 8927POPC   C3B71217   7.941   9.734   7.050
 8927POPC   C4B71218   7.962   9.695   7.350
 8928POPC   NC371219   0.402   5.072   5.550
 8928POPC   PO471220   0.419   5.074   5.850
 8928POPC   GL171221   0.478   5.082   6.150
 8928POPC   GL271222   0.463   5.227   6.150
 8928POPC   C1A71223   0.447   5.107   6.450
 8928POPC   D2A71224   0.433   5.059   6.750
 8928POPC   C3A71225   0.453   5.137   7.050
 8928POPC   C4A71226   0.403   5.084   7.350
 8928POPC   C1B71227   0.422   5.313   6.450
 8928POPC   C2B71228   0.421   5.304   6.750
 8928POPC   C3B71229   0.456   5.332   7.050
 8928POPC   C4B71230   0.460   5.346   7.350
 8929POPC   NC371231  40.031  44.684   5.550
 8929POPC   PO471232  39.974  44.612   5.850
 8929POPC   GL171233  39.990  44.651   6.150
 8929POPC   GL271234  40.036  44.776   6.150
 8929POPC   C1A71235  40.051  44.621   6.450
 8929POPC   D2A71236  39.992  44.627   6.750
 8929POPC   C3A71237  40.053  44.642   7.050
 8929POPC   C4A71238  40.023  44.707   7.350
 8929POPC   C1B71239  39.977  44.930   6.450
 8929POPC   C2B71240  40.013  44.889   6.750
 8929POPC   C3B71241  40.016  44.960   7.050
 8929POPC   C4B71242  39.936  44.928   7.350
 8930POPC   NC371243  32.261  15.951   5.550
 8930POPC   PO471244  32.207  15.945   5.850
 8930POPC   GL171245  32.298  15.924   6.150
 8930POPC   GL271246  32.130  15.879   6.150
 8930POPC   C1A71247  32.271  15.985   6.450
 8930POPC   D2A71248  32.269  15.961   6.750
 8930POPC   C3A71249  32.293  15.960   7.050
 8930POPC   C4A71250  32.201  15.909   7.350
 8930POPC   C1B71251  32.068  15.861   6.450
 8930POPC   C2B71252  32.007  15.797   6.750
 8930POPC   C3B71253  32.056  15.828   7.050
 8930POPC   C4B71254  31.982  15.849   7.350
 8931POPC   NC371255  19.789  24.474   5.550
 8931POPC   PO471256  19.795  24.481   5.850
 8931POPC   GL171257  19.836  24.522   6.150
 8931POPC   GL271258  19.671  24.557   6.150
 8931POPC   C1A71259  19.822  24.507   6.450
 8931POPC   D2A71260  19.835  24.512   6.750
 8931POPC   C3A71261  19.807  24.452   7.050
 8931POPC   C4A71262  19.829  24.456   7.350
 8931POPC   C1B71263  19.557  24.564   6.450
 8931POPC   C2B71264  19.546  24.551   6.750
 8931POPC   C3B71265  19.584  24.556   7.050
 8931POPC   C4B71266  19.576  24.548   7.350
 8932POPC   NC371267   4.276  29.185   5.550
 8932POPC   PO471268   4.278  29.100   5.850
 8932POPC   GL171269   4.306  29.179   6.150
 8932POPC   GL271270   4.414  29.150   6.150
 8932POPC   C1A71271   4.334  29.138   6.450
 8932POPC   D2A71272   4.275  29.187   6.750
 8932POPC   C3A71273   4.314  29.109   7.050
 8932POPC   C4A71274   4.321  29.165   7.350
 8932POPC   C1B71275   4.571  29.252   6.450
 8932POPC   C2B71276   4.596  29.210   6.750
 8932POPC   C3B71277   4.536  29.226   7.050
 8932POPC   C4B71278   4.514  29.212   7.350
 8933POPC   NC371279  41.528  19.852   5.550
 8933POPC   PO471280  41.528  19.811   5.850
 8933POPC   GL171281  41.590  19.874   6.150
 8933POPC   GL271282  41.545  19.958   6.150
 8933POPC   C1A71283  41.589  19.812   6.450
 8933POPC   D2A71284  41.546  19.883   6.750
 8933POPC   C3A71285  41.545  19.822   7.050
 8933POPC   C4A71286  41.582  19.872   7.350
 8933POPC   C1B71287  41.546  20.064   6.450
 8933POPC   C2B71288  41.576  20.041   6.750
 8933POPC   C3B71289  41.535  20.064   7.050
 8933POPC   C4B71290  41.609  20.035   7.350
 8934POPC   NC371291  32.244   1.972   5.550
 8934POPC   PO471292  32.230   1.976   5.850
 8934POPC   GL171293  32.234   1.982   6.150
 8934POPC   GL271294  32.096   2.037   6.150
 8934POPC   C1A71295  32.198   1.977   6.450
 8934POPC   D2A71296  32.228   1.962   6.750
 8934POPC   C3A71297  32.229   1.961   7.050
 8934POPC   C4A71298  32.280   2.024   7.350
 8934POPC   C1B71299  32.028   2.100   6.450
 8934POPC   C2B71300  32.035   2.156   6.750
 8934POPC   C3B71301  32.032   2.153   7.050
 8934POPC   C4B71302  32.061   2.141   7.350
 8935POPC   NC371303  10.494   4.361   5.550
 8935POPC   PO471304  10.517   4.329   5.850
 8935POPC   GL171305  10.538   4.346   6.150
 8935POPC   GL271306  10.399   4.381   6.150
 8935POPC   C1A71307  10.512   4.296   6.450
 8935POPC   D2A71308  10.574   4.343   6.750
 8935POPC   C3A71309  10.534   4.275   7.050
 8935POPC   C4A71310  10.542   4.329   7.350
 8935POPC   C1B71311  10.347   4.441   6.450
 8935POPC   C2B71312  10.308   4.476   6.750
 8935POPC   C3B71313  10.352   4.453   7.050
 8935POPC   C4B71314  10.359   4.398   7.350
 8936POPC   NC371315  23.740   0.401   5.550
 8936POPC   PO471316  23.672   0.420   5.850
 8936POPC   GL171317  23.667   0.423   6.150
 8936POPC   GL271318  23.733   0.347   6.150
 8936POPC   C1A71319  23.674   0.473   6.450
 8936POPC   D2A71320  23.687   0.472   6.750
 8936POPC   C3A71321  23.739   0.470   7.050
 8936POPC   C4A71322  23.752   0.446   7.350
 8936POPC   C1B71323  23.834   0.223   6.450
 8936POPC   C2B71324  23.869   0.203   6.750
 8936POPC   C3B71325  23.871   0.205   7.050
 8936POPC   C4B71326  23.789   0.198   7.350
 8937POPC   NC371327  37.632  38.481   5.550
 8937POPC   PO471328  37.729  38.451   5.850
 8937POPC   GL171329  37.664  38.420   6.150
 8937POPC   GL271330  37.673  38.354   6.150
 8937POPC   C1A71331  37.648  38.478   6.450
 8937POPC   D2A71332  37.645  38.462   6.750
 8937POPC   C3A71333  37.702  38.459   7.050
 8937POPC   C4A71334  37.646  38.495   7.350
 8937POPC   C1B71335  37.629  38.251   6.450
 8937POPC   C2B71336  37.618  38.168   6.750
 8937POPC   C3B71337  37.713  38.242   7.050
 8937POPC   C4B71338  37.627  38.161   7.350
 8938POPC   NC371339  42.291  28.335   5.550
 8938POPC   PO471340  42.379  28.330   5.850
 8938POPC   GL171341  42.351  28.368   6.150
 8938POPC   GL271342  42.329  28.296   6.150
 8938POPC   C1A71343  42.372  28.336   6.450
 8938POPC   D2A71344  42.360  28.390   6.750
 8938POPC   C3A71345  42.304  28.364   7.050
 8938POPC   C4A71346  42.374  28.399   7.350
 8938POPC   C1B71347  42.263  28.135   6.450
 8938POPC   C2B71348  42.263  28.099   6.750
 8938POPC   C3B71349  42.277  28.181   7.050
 8938POPC   C4B71350  42.302  28.104   7.350
 8939POPC   NC371351  29.153  43.920   5.550
 8939POPC   PO471352  29.183  43.878   5.850
 8939POPC   GL171353  29.134  43.927   6.150
 8939POPC   GL271354  29.030  43.891   6.150
 8939POPC   C1A71355  29.180  43.871   6.450
 8939POPC   D2A71356  29.160  43.861   6.750
 8939POPC   C3A71357  29.187  43.894   7.050
 8939POPC   C4A71358  29.140  43.878   7.350
 8939POPC   C1B71359  28.934  43.786   6.450
 8939POPC   C2B71360  28.889  43.824   6.750
 8939POPC   C3B71361  28.946  43.839   7.050
 8939POPC   C4B71362  28.929  43.787   7.350
 8940POPC   NC371363  19.868  27.545   5.550
 8940POPC   PO471364  19.839  27.638   5.850
 8940POPC   GL171365  19.856  27.579   6.150
 8940POPC   GL271366  19.904  27.614   6.150
 8940POPC   C1A71367  19.791  27.627   6.450
 8940POPC   D2A71368  19.848  27.637   6.750
 8940POPC   C3A71369  19.856  27.610   7.050
 8940POPC   C4A71370  19.846  27.562   7.350
 8940POPC   C1B71371  20.033  27.714   6.450
 8940POPC   C2B71372  20.022  27.633   6.750
 8940POPC   C3B71373  20.040  27.699   7.050
 8940POPC   C4B71374  20.076  27.708   7.350
 8941POPC   NC371375   8.206  34.562   5.550
 8941POPC   PO471376   8.152  34.548   5.850
 8941POPC   GL171377   8.184  34.592   6.150
 8941POPC   GL271378   8.329  34.566   6.150
 8941POPC   C1A71379   8.194  34.549   6.450
 8941POPC   D2A71380   8.154  34.563   6.750
 8941POPC   C3A71381   8.222  34.615   7.050
 8941POPC   C4A71382   8.235  34.582   7.350
 8941POPC   C1B71383   8.411  34.485   6.450
 8941POPC   C2B71384   8.467  34.506   6.750
 8941POPC   C3B71385   8.427  34.559   7.050
 8941POPC   C4B71386   8.477  34.484   7.350
 8942POPC   NC371387   7.433   6.681   5.550
 8942POPC   PO471388   7.434   6.657   5.850
 8942POPC   GL171389   7.412   6.643   6.150
 8942POPC   GL271390   7.382   6.519   6.150
 8942POPC   C1A71391   7.454   6.631   6.450
 8942POPC   D2A71392   7.416   6.637   6.750
 8942POPC   C3A71393   7.421   6.666   7.050
 8942POPC   C4A71394   7.454   6.620   7.350
 8942POPC   C1B71395   7.395   6.382   6.450
 8942POPC   C2B71396   7.415   6.399   6.750
 8942POPC   C3B71397   7.426   6.413   7.050
 8942POPC   C4B71398   7.365   6.418   7.350
 8943POPC   NC371399  37.677  16.684   5.550
 8943POPC   PO471400  37.714  16.722   5.850
 8943POPC   GL171401  37.659  16.693   6.150
 8943POPC   GL271402  37.663  16.575   6.150
 8943POPC   C1A71403  37.684  16.732   6.450
 8943POPC   D2A71404  37.670  16.707   6.750
 8943POPC   C3A71405  37.644  16.712   7.050
 8943POPC   C4A71406  37.639  16.719   7.350
 8943POPC   C1B71407  37.706  16.466   6.450
 8943POPC   C2B71408  37.645  16.472   6.750
 8943POPC   C3B71409  37.697  16.493   7.050
 8943POPC   C4B71410  37.710  16.507   7.350
 8944POPC   NC371411   2.811  40.770   5.550
 8944POPC   PO471412   2.787  40.737   5.850
 8944POPC   GL171413   2.787  40.812   6.150
 8944POPC   GL271414   2.804  40.720   6.150
 8944POPC   C1A71415   2.720  40.771   6.450
 8944POPC   D2A71416   2.815  40.827   6.750
 8944POPC   C3A71417   2.739  40.755   7.050
 8944POPC   C4A71418   2.791  40.832   7.350
 8944POPC   C1B71419   2.940  40.533   6.450
 8944POPC   C2B71420   2.939  40.524   6.750
 8944POPC   C3B71421   2.915  40.560   7.050
 8944POPC   C4B71422   2.907  40.578   7.350
 8945POPC   NC371423   2.717  35.309   5.550
 8945POPC   PO471424   2.735  35.343   5.850
 8945POPC   GL171425   2.770  35.389   6.150
 8945POPC   GL271426   2.771  35.486   6.150
 8945POPC   C1A71427   2.752  35.313   6.450
 8945POPC   D2A71428   2.731  35.321   6.750
 8945POPC   C3A71429   2.722  35.311   7.050
 8945POPC   C4A71430   2.746  35.400   7.350
 8945POPC   C1B71431   2.660  35.553   6.450
 8945POPC   C2B71432   2.669  35.564   6.750
 8945POPC   C3B71433   2.722  35.570   7.050
 8945POPC   C4B71434   2.712  35.581   7.350
 8946POPC   NC371435  19.019  19.107   5.550
 8946POPC   PO471436  19.050  19.072   5.850
 8946POPC   GL171437  19.058  19.072   6.150
 8946POPC   GL271438  19.033  19.184   6.150
 8946POPC   C1A71439  19.096  19.026   6.450
 8946POPC   D2A71440  19.102  19.062   6.750
 8946POPC   C3A71441  19.012  19.107   7.050
 8946POPC   C4A71442  19.085  19.108   7.350
 8946POPC   C1B71443  18.958  19.307   6.450
 8946POPC   C2B71444  18.912  19.278   6.750
 8946POPC   C3B71445  18.963  19.284   7.050
 8946POPC   C4B71446  18.922  19.297   7.350
 8947POPC   NC371447  37.639  24.487   5.550
 8947POPC   PO471448  37.725  24.470   5.850
 8947POPC   GL171449  37.719  24.491   6.150
 8947POPC   GL271450  37.611  24.603   6.150
 8947POPC   C1A71451  37.686  24.456   6.450
 8947POPC   D2A71452  37.661  24.506   6.750
 8947POPC   C3A71453  37.725  24.536   7.050
 8947POPC   C4A71454  37.709  24.496   7.350
 8947POPC   C1B71455  37.475  24.665   6.450
 8947POPC   C2B71456  37.533  24.677   6.750
 8947POPC   C3B71457  37.478  24.667   7.050
 8947POPC   C4B71458  37.468  24.684   7.350
 8948POPC   NC371459   1.235  31.507   5.550
 8948POPC   PO471460   1.224  31.488   5.850
 8948POPC   GL171461   1.172  31.521   6.150
 8948POPC   GL271462   1.286  31.371   6.150
 8948POPC   C1A71463   1.259  31.459   6.450
 8948POPC   D2A71464   1.168  31.482   6.750
 8948POPC   C3A71465   1.262  31.491   7.050
 8948POPC   C4A71466   1.201  31.474   7.350
 8948POPC   C1B71467   1.456  31.367   6.450
 8948POPC   C2B71468   1.466  31.398   6.750
 8948POPC   C3B71469   1.418  31.407   7.050
 8948POPC   C4B71470   1.442  31.396   7.350
 8949POPC   NC371471  15.142  14.396   5.550
 8949POPC   PO471472  15.200  14.377   5.850
 8949POPC   GL171473  15.147  14.375   6.150
 8949POPC   GL271474  15.332  14.445   6.150
 8949POPC   C1A71475  15.187  14.377   6.450
 8949POPC   D2A71476  15.202  14.398   6.750
 8949POPC   C3A71477  15.149  14.361   7.050
 8949POPC   C4A71478  15.214  14.398   7.350
 8949POPC   C1B71479  15.409  14.398   6.450
 8949POPC   C2B71480  15.387  14.440   6.750
 8949POPC   C3B71481  15.404  14.456   7.050
 8949POPC   C4B71482  15.430  14.460   7.350
 8950POPC   NC371483  31.480  21.418   5.550
 8950POPC   PO471484  31.436  21.360   5.850
 8950POPC   GL171485  31.440  21.427   6.150
 8950POPC   GL271486  31.560  21.435   6.150
 8950POPC   C1A71487  31.486  21.436   6.450
 8950POPC   D2A71488  31.445  21.343   6.750
 8950POPC   C3A71489  31.499  21.408   7.050
 8950POPC   C4A71490  31.492  21.381   7.350
 8950POPC   C1B71491  31.712  21.478   6.450
 8950POPC   C2B71492  31.731  21.518   6.750
 8950POPC   C3B71493  31.696  21.487   7.050
 8950POPC   C4B71494  31.669  21.535   7.350
 8951POPC   NC371495  39.972   2.731   5.550
 8951POPC   PO471496  40.018   2.793   5.850
 8951POPC   GL171497  40.053   2.795   6.150
 8951POPC   GL271498  40.077   2.875   6.150
 8951POPC   C1A71499  40.004   2.724   6.450
 8951POPC   D2A71500  39.969   2.748   6.750
 8951POPC   C3A71501  39.982   2.751   7.050
 8951POPC   C4A71502  40.037   2.803   7.350
 8951POPC   C1B71503  40.158   2.955   6.450
 8951POPC   C2B71504  40.118   3.021   6.750
 8951POPC   C3B71505  40.129   2.966   7.050
 8951POPC   C4B71506  40.122   2.960   7.350
 8952POPC   NC371507  43.128  39.240   5.550
 8952POPC   PO471508  43.080  39.233   5.850
 8952POPC   GL171509  43.075  39.214   6.150
 8952POPC   GL271510  43.052  39.274   6.150
 8952POPC   C1A71511  43.111  39.216   6.450
 8952POPC   D2A71512  43.096  39.203   6.750
 8952POPC   C3A71513  43.121  39.239   7.050
 8952POPC   C4A71514  43.128  39.200   7.350
 8952POPC   C1B71515  42.929  39.392   6.450
 8952POPC   C2B71516  42.932  39.437   6.750
 8952POPC   C3B71517  42.902  39.379   7.050
 8952POPC   C4B71518  42.897  39.396   7.350
 8953POPC   NC371519  26.005   3.590   5.550
 8953POPC   PO471520  26.048   3.501   5.850
 8953POPC   GL171521  26.016   3.516   6.150
 8953POPC   GL271522  25.937   3.585   6.150
 8953POPC   C1A71523  26.041   3.494   6.450
 8953POPC   D2A71524  26.040   3.571   6.750
 8953POPC   C3A71525  26.055   3.589   7.050
 8953POPC   C4A71526  25.999   3.522   7.350
 8953POPC   C1B71527  25.803   3.582   6.450
 8953POPC   C2B71528  25.756   3.587   6.750
 8953POPC   C3B71529  25.762   3.503   7.050
 8953POPC   C4B71530  25.790   3.599   7.350
 8954POPC   NC371531  33.790   7.422   5.550
 8954POPC   PO471532  33.827   7.428   5.850
 8954POPC   GL171533  33.810   7.468   6.150
 8954POPC   GL271534  33.881   7.542   6.150
 8954POPC   C1A71535  33.770   7.400   6.450
 8954POPC   D2A71536  33.792   7.464   6.750
 8954POPC   C3A71537  33.754   7.466   7.050
 8954POPC   C4A71538  33.763   7.410   7.350
 8954POPC   C1B71539  33.951   7.640   6.450
 8954POPC   C2B71540  33.920   7.602   6.750
 8954POPC   C3B71541  33.939   7.630   7.050
 8954POPC   C4B71542  33.946   7.646   7.350
 8955POPC   NC371543   8.192  35.389   5.550
 8955POPC   PO471544   8.184  35.306   5.850
 8955POPC   GL171545   8.180  35.314   6.150
 8955POPC   GL271546   8.293  35.409   6.150
 8955POPC   C1A71547   8.216  35.358   6.450
 8955POPC   D2A71548   8.186  35.351   6.750
 8955POPC   C3A71549   8.177  35.364   7.050
 8955POPC   C4A71550   8.197  35.383   7.350
 8955POPC   C1B71551   8.473  35.456   6.450
 8955POPC   C2B71552   8.419  35.450   6.750
 8955POPC   C3B71553   8.416  35.428   7.050
 8955POPC   C4B71554   8.438  35.468   7.350
 8956POPC   NC371555  34.577  10.508   5.550
 8956POPC   PO471556  34.534  10.514   5.850
 8956POPC   GL171557  34.575  10.566   6.150
 8956POPC   GL271558  34.410  10.541   6.150
 8956POPC   C1A71559  34.605  10.571   6.450
 8956POPC   D2A71560  34.527  10.539   6.750
 8956POPC   C3A71561  34.555  10.507   7.050
 8956POPC   C4A71562  34.601  10.574   7.350
 8956POPC   C1B71563  34.333  10.571   6.450
 8956POPC   C2B71564  34.356  10.582   6.750
 8956POPC   C3B71565  34.338  10.591   7.050
 8956POPC   C4B71566  34.377  10.583   7.350
 8957POPC   NC371567   5.901  39.256   5.550
 8957POPC   PO471568   5.863  39.266   5.850
 8957POPC   GL171569   5.853  39.239   6.150
 8957POPC   GL271570   6.029  39.153   6.150
 8957POPC   C1A71571   5.866  39.211   6.450
 8957POPC   D2A71572   5.845  39.247   6.750
 8957POPC   C3A71573   5.823  39.246   7.050
 8957POPC   C4A71574   5.855  39.229   7.350
 8957POPC   C1B71575   6.070  39.173   6.450
 8957POPC   C2B71576   6.080  39.142   6.750
 8957POPC   C3B71577   6.137  39.180   7.050
 8957POPC   C4B71578   6.146  39.106   7.350
 8958POPC   NC371579   5.064  41.509   5.550
 8958POPC   PO471580   5.086  41.529   5.850
 8958POPC   GL171581   5.077  41.578   6.150
 8958POPC   GL271582   4.974  41.497   6.150
 8958POPC   C1A71583   5.101  41.509   6.450
 8958POPC   D2A71584   5.084  41.530   6.750
 8958POPC   C3A71585   5.105  41.571   7.050
 8958POPC   C4A71586   5.069  41.553   7.350
 8958POPC   C1B71587   4.857  41.467   6.450
 8958POPC   C2B71588   4.900  41.453   6.750
 8958POPC   C3B71589   4.851  41.398   7.050
 8958POPC   C4B71590   4.843  41.470   7.350
 8959POPC   NC371591  27.563  38.419   5.550
 8959POPC   PO471592  27.553  38.438   5.850
 8959POPC   GL171593  27.577  38.426   6.150
 8959POPC   GL271594  27.504  38.415   6.150
 8959POPC   C1A71595  27.631  38.410   6.450
 8959POPC   D2A71596  27.597  38.470   6.750
 8959POPC   C3A71597  27.581  38.413   7.050
 8959POPC   C4A71598  27.573  38.435   7.350
 8959POPC   C1B71599  27.310  38.483   6.450
 8959POPC   C2B71600  27.389  38.449   6.750
 8959POPC   C3B71601  27.327  38.494   7.050
 8959POPC   C4B71602  27.359  38.410   7.350
 8960POPC   NC371603  24.505  25.264   5.550
 8960POPC   PO471604  24.455  25.233   5.850
 8960POPC   GL171605  24.467  25.301   6.150
 8960POPC   GL271606  24.433  25.362   6.150
 8960POPC   C1A71607  24.483  25.216   6.450
 8960POPC   D2A71608  24.479  25.237   6.750
 8960POPC   C3A71609  24.453  25.289   7.050
 8960POPC   C4A71610  24.504  25.248   7.350
 8960POPC   C1B71611  24.420  25.470   6.450
 8960POPC   C2B71612  24.429  25.521   6.750
 8960POPC   C3B71613  24.356  25.473   7.050
 8960POPC   C4B71614  24.396  25.489   7.350
 8961POPC   NC371615   5.832  38.492   5.550
 8961POPC   PO471616   5.894  38.447   5.850
 8961POPC   GL171617   5.852  38.430   6.150
 8961POPC   GL271618   5.943  38.581   6.150
 8961POPC   C1A71619   5.917  38.454   6.450
 8961POPC   D2A71620   5.823  38.478   6.750
 8961POPC   C3A71621   5.876  38.498   7.050
 8961POPC   C4A71622   5.865  38.499   7.350
 8961POPC   C1B71623   5.952  38.718   6.450
 8961POPC   C2B71624   6.007  38.633   6.750
 8961POPC   C3B71625   5.937  38.720   7.050
 8961POPC   C4B71626   5.984  38.651   7.350
 8962POPC   NC371627  36.926  36.883   5.550
 8962POPC   PO471628  36.909  36.883   5.850
 8962POPC   GL171629  36.935  36.856   6.150
 8962POPC   GL271630  36.766  36.881   6.150
 8962POPC   C1A71631  36.936  36.886   6.450
 8962POPC   D2A71632  36.908  36.905   6.750
 8962POPC   C3A71633  36.915  36.910   7.050
 8962POPC   C4A71634  36.911  36.919   7.350
 8962POPC   C1B71635  36.620  36.879   6.450
 8962POPC   C2B71636  36.665  36.867   6.750
 8962POPC   C3B71637  36.662  36.888   7.050
 8962POPC   C4B71638  36.663  36.876   7.350
 8963POPC   NC371639   1.997   6.653   5.550
 8963POPC   PO471640   1.975   6.597   5.850
 8963POPC   GL171641   2.034   6.644   6.150
 8963POPC   GL271642   1.943   6.541   6.150
 8963POPC   C1A71643   2.018   6.615   6.450
 8963POPC   D2A71644   2.032   6.618   6.750
 8963POPC   C3A71645   1.972   6.677   7.050
 8963POPC   C4A71646   2.038   6.608   7.350
 8963POPC   C1B71647   1.898   6.409   6.450
 8963POPC   C2B71648   1.890   6.443   6.750
 8963POPC   C3B71649   1.889   6.419   7.050
 8963POPC   C4B71650   1.900   6.404   7.350
 8964POPC   NC371651  11.304  33.822   5.550
 8964POPC   PO471652  11.264  33.839   5.850
 8964POPC   GL171653  11.261  33.760   6.150
 8964POPC   GL271654  11.422  33.812   6.150
 8964POPC   C1A71655  11.340  33.794   6.450
 8964POPC   D2A71656  11.282  33.798   6.750
 8964POPC   C3A71657  11.338  33.771   7.050
 8964POPC   C4A71658  11.282  33.793   7.350
 8964POPC   C1B71659  11.485  33.871   6.450
 8964POPC   C2B71660  11.577  33.894   6.750
 8964POPC   C3B71661  11.512  33.859   7.050
 8964POPC   C4B71662  11.487  33.893   7.350
 8965POPC   NC371663   4.328  28.344   5.550
 8965POPC   PO471664   4.278  28.398   5.850
 8965POPC   GL171665   4.309  28.401   6.150
 8965POPC   GL271666   4.448  28.420   6.150
 8965POPC   C1A71667   4.314  28.351   6.450
 8965POPC   D2A71668   4.316  28.392   6.750
 8965POPC   C3A71669   4.364  28.336   7.050
 8965POPC   C4A71670   4.281  28.345   7.350
 8965POPC   C1B71671   4.522  28.414   6.450
 8965POPC   C2B71672   4.603  28.420   6.750
 8965POPC   C3B71673   4.601  28.386   7.050
 8965POPC   C4B71674   4.542  28.407   7.350
 8966POPC   NC371675  40.785  18.276   5.550
 8966POPC   PO471676  40.789  18.308   5.850
 8966POPC   GL171677  40.796  18.330   6.150
 8966POPC   GL271678  40.684  18.316   6.150
 8966POPC   C1A71679  40.830  18.292   6.450
 8966POPC   D2A71680  40.799  18.276   6.750
 8966POPC   C3A71681  40.781  18.320   7.050
 8966POPC   C4A71682  40.798  18.280   7.350
 8966POPC   C1B71683  40.530  18.251   6.450
 8966POPC   C2B71684  40.545  18.305   6.750
 8966POPC   C3B71685  40.518  18.314   7.050
 8966POPC   C4B71686  40.500  18.303   7.350
 8967POPC   NC371687  33.014  15.931   5.550
 8967POPC   PO471688  33.009  15.942   5.850
 8967POPC   GL171689  32.977  15.917   6.150
 8967POPC   GL271690  33.121  16.025   6.150
 8967POPC   C1A71691  33.010  15.911   6.450
 8967POPC   D2A71692  33.072  15.986   6.750
 8967POPC   C3A71693  33.020  15.907   7.050
 8967POPC   C4A71694  33.046  15.981   7.350
 8967POPC   C1B71695  33.192  16.107   6.450
 8967POPC   C2B71696  33.192  16.061   6.750
 8967POPC   C3B71697  33.172  16.084   7.050
 8967POPC   C4B71698  33.213  16.117   7.350
 8968POPC   NC371699  24.485   5.125   5.550
 8968POPC   PO471700  24.452   5.139   5.850
 8968POPC   GL171701  24.521   5.063   6.150
 8968POPC   GL271702  24.417   4.976   6.150
 8968POPC   C1A71703  24.484   5.075   6.450
 8968POPC   D2A71704  24.498   5.095   6.750
 8968POPC   C3A71705  24.454   5.063   7.050
 8968POPC   C4A71706  24.458   5.133   7.350
 8968POPC   C1B71707  24.352   4.891   6.450
 8968POPC   C2B71708  24.338   4.920   6.750
 8968POPC   C3B71709  24.309   4.922   7.050
 8968POPC   C4B71710  24.298   4.916   7.350
 8969POPC   NC371711  31.463   0.438   5.550
 8969POPC   PO471712  31.463   0.475   5.850
 8969POPC   GL171713  31.487   0.437   6.150
 8969POPC   GL271714  31.642   0.394   6.150
 8969POPC   C1A71715  31.506   0.394   6.450
 8969POPC   D2A71716  31.476   0.403   6.750
 8969POPC   C3A71717  31.462   0.400   7.050
 8969POPC   C4A71718  31.501   0.436   7.350
 8969POPC   C1B71719  31.678   0.370   6.450
 8969POPC   C2B71720  31.708   0.335   6.750
 8969POPC   C3B71721  31.755   0.396   7.050
 8969POPC   C4B71722  31.744   0.331   7.350
 8970POPC   NC371723   9.701  15.907   5.550
 8970POPC   PO471724   9.700  15.964   5.850
 8970POPC   GL171725   9.759  15.990   6.150
 8970POPC   GL271726   9.750  16.089   6.150
 8970POPC   C1A71727   9.783  15.971   6.450
 8970POPC   D2A71728   9.714  15.959   6.750
 8970POPC   C3A71729   9.750  15.994   7.050
 8970POPC   C4A71730   9.788  15.972   7.350
 8970POPC   C1B71731   9.718  16.236   6.450
 8970POPC   C2B71732   9.676  16.199   6.750
 8970POPC   C3B71733   9.705  16.213   7.050
 8970POPC   C4B71734   9.719  16.238   7.350
 8971POPC   NC371735  10.572  30.731   5.550
 8971POPC   PO471736  10.553  30.661   5.850
 8971POPC   GL171737  10.485  30.659   6.150
 8971POPC   GL271738  10.425  30.703   6.150
 8971POPC   C1A71739  10.494  30.686   6.450
 8971POPC   D2A71740  10.478  30.685   6.750
 8971POPC   C3A71741  10.552  30.695   7.050
 8971POPC   C4A71742  10.502  30.737   7.350
 8971POPC   C1B71743  10.312  30.697   6.450
 8971POPC   C2B71744  10.319  30.744   6.750
 8971POPC   C3B71745  10.228  30.737   7.050
 8971POPC   C4B71746  10.284  30.736   7.350
 8972POPC   NC371747  37.719  39.965   5.550
 8972POPC   PO471748  37.723  39.996   5.850
 8972POPC   GL171749  37.711  40.055   6.150
 8972POPC   GL271750  37.735  39.911   6.150
 8972POPC   C1A71751  37.677  39.970   6.450
 8972POPC   D2A71752  37.672  39.978   6.750
 8972POPC   C3A71753  37.715  40.038   7.050
 8972POPC   C4A71754  37.704  39.962   7.350
 8972POPC   C1B71755  37.745  39.736   6.450
 8972POPC   C2B71756  37.731  39.791   6.750
 8972POPC   C3B71757  37.768  39.721   7.050
 8972POPC   C4B71758  37.733  39.815   7.350
 8973POPC   NC371759  42.337  44.684   5.550
 8973POPC   PO471760  42.384  44.624   5.850
 8973POPC   GL171761  42.329  44.645   6.150
 8973POPC   GL271762  42.283  44.559   6.150
 8973POPC   C1A71763  42.359  44.617   6.450
 8973POPC   D2A71764  42.345  44.652   6.750
 8973POPC   C3A71765  42.287  44.704   7.050
 8973POPC   C4A71766  42.350  44.628   7.350
 8973POPC   C1B71767  42.221  44.499   6.450
 8973POPC   C2B71768  42.233  44.465   6.750
 8973POPC   C3B71769  42.223  44.467   7.050
 8973POPC   C4B71770  42.195  44.485   7.350
 8974POPC   NC371771   1.182  32.252   5.550
 8974POPC   PO471772   1.202  32.285   5.850
 8974POPC   GL171773   1.211  32.211   6.150
 8974POPC   GL271774   1.128  32.290   6.150
 8974POPC   C1A71775   1.254  32.219   6.450
 8974POPC   D2A71776   1.257  32.266   6.750
 8974POPC   C3A71777   1.235  32.211   7.050
 8974POPC   C4A71778   1.252  32.280   7.350
 8974POPC   C1B71779   0.959  32.398   6.450
 8974POPC   C2B71780   0.993  32.407   6.750
 8974POPC   C3B71781   1.031  32.401   7.050
 8974POPC   C4B71782   1.039  32.402   7.350
 8975POPC   NC371783  23.703  22.933   5.550
 8975POPC   PO471784  23.760  22.952   5.850
 8975POPC   GL171785  23.705  22.930   6.150
 8975POPC   GL271786  23.664  22.780   6.150
 8975POPC   C1A71787  23.750  22.966   6.450
 8975POPC   D2A71788  23.679  22.896   6.750
 8975POPC   C3A71789  23.731  22.896   7.050
 8975POPC   C4A71790  23.711  22.956   7.350
 8975POPC   C1B71791  23.703  22.672   6.450
 8975POPC   C2B71792  23.754  22.689   6.750
 8975POPC   C3B71793  23.739  22.645   7.050
 8975POPC   C4B71794  23.661  22.683   7.350
 8976POPC   NC371795  15.140  10.510   5.550
 8976POPC   PO471796  15.164  10.538   5.850
 8976POPC   GL171797  15.200  10.484   6.150
 8976POPC   GL271798  15.295  10.630   6.150
 8976POPC   C1A71799  15.149  10.491   6.450
 8976POPC   D2A71800  15.213  10.531   6.750
 8976POPC   C3A71801  15.191  10.483   7.050
 8976POPC   C4A71802  15.167  10.481   7.350
 8976POPC   C1B71803  15.387  10.683   6.450
 8976POPC   C2B71804  15.371  10.710   6.750
 8976POPC   C3B71805  15.321  10.645   7.050
 8976POPC   C4B71806  15.353  10.701   7.350
 8977POPC   NC371807  43.907  26.857   5.550
 8977POPC   PO471808  43.936  26.842   5.850
 8977POPC   GL171809  43.837  26.810   6.150
 8977POPC   GL271810  43.910  26.671   6.150
 8977POPC   C1A71811  43.839  26.812   6.450
 8977POPC   D2A71812  43.884  26.858   6.750
 8977POPC   C3A71813  43.847  26.862   7.050
 8977POPC   C4A71814  43.878  26.846   7.350
 8977POPC   C1B71815  43.985  26.586   6.450
 8977POPC   C2B71816  44.022  26.598   6.750
 8977POPC   C3B71817  44.012  26.659   7.050
 8977POPC   C4B71818  44.070  26.623   7.350
 8978POPC   NC371819  24.533  19.788   5.550
 8978POPC   PO471820  24.510  19.790   5.850
 8978POPC   GL171821  24.479  19.802   6.150
 8978POPC   GL271822  24.440  19.716   6.150
 8978POPC   C1A71823  24.467  19.848   6.450
 8978POPC   D2A71824  24.480  19.845   6.750
 8978POPC   C3A71825  24.534  19.855   7.050
 8978POPC   C4A71826  24.446  19.879   7.350
 8978POPC   C1B71827  24.371  19.653   6.450
 8978POPC   C2B71828  24.398  19.622   6.750
 8978POPC   C3B71829  24.323  19.657   7.050
 8978POPC   C4B71830  24.377  19.617   7.350
 8979POPC   NC371831  21.375   3.538   5.550
 8979POPC   PO471832  21.356   3.500   5.850
 8979POPC   GL171833  21.433   3.546   6.150
 8979POPC   GL271834  21.499   3.622   6.150
 8979POPC   C1A71835  21.415   3.509   6.450
 8979POPC   D2A71836  21.345   3.542   6.750
 8979POPC   C3A71837  21.370   3.496   7.050
 8979POPC   C4A71838  21.356   3.502   7.350
 8979POPC   C1B71839  21.588   3.721   6.450
 8979POPC   C2B71840  21.531   3.698   6.750
 8979POPC   C3B71841  21.611   3.700   7.050
 8979POPC   C4B71842  21.547   3.679   7.350
 8980POPC   NC371843  40.744  33.019   5.550
 8980POPC   PO471844  40.796  33.014   5.850
 8980POPC   GL171845  40.799  33.063   6.150
 8980POPC   GL271846  40.904  32.916   6.150
 8980POPC   C1A71847  40.748  32.998   6.450
 8980POPC   D2A71848  40.773  33.024   6.750
 8980POPC   C3A71849  40.762  33.006   7.050
 8980POPC   C4A71850  40.801  32.998   7.350
 8980POPC   C1B71851  40.903  32.823   6.450
 8980POPC   C2B71852  40.926  32.790   6.750
 8980POPC   C3B71853  40.976  32.828   7.050
 8980POPC   C4B71854  40.953  32.865   7.350
 8981POPC   NC371855  26.795  36.929   5.550
 8981POPC   PO471856  26.850  36.945   5.850
 8981POPC   GL171857  26.814  36.930   6.150
 8981POPC   GL271858  26.905  36.827   6.150
 8981POPC   C1A71859  26.783  36.895   6.450
 8981POPC   D2A71860  26.852  36.923   6.750
 8981POPC   C3A71861  26.849  36.905   7.050
 8981POPC   C4A71862  26.830  36.950   7.350
 8981POPC   C1B71863  27.001  36.681   6.450
 8981POPC   C2B71864  26.991  36.694   6.750
 8981POPC   C3B71865  26.920  36.726   7.050
 8981POPC   C4B71866  27.008  36.742   7.350
 8982POPC   NC371867  42.299   9.770   5.550
 8982POPC   PO471868  42.372   9.747   5.850
 8982POPC   GL171869  42.343   9.747   6.150
 8982POPC   GL271870  42.277   9.841   6.150
 8982POPC   C1A71871  42.321   9.745   6.450
 8982POPC   D2A71872  42.303   9.754   6.750
 8982POPC   C3A71873  42.342   9.752   7.050
 8982POPC   C4A71874  42.298   9.771   7.350
 8982POPC   C1B71875  42.140   9.878   6.450
 8982POPC   C2B71876  42.108   9.880   6.750
 8982POPC   C3B71877  42.179   9.932   7.050
 8982POPC   C4B71878  42.133   9.918   7.350
 8983POPC   NC371879  33.754  27.618   5.550
 8983POPC   PO471880  33.833  27.610   5.850
 8983POPC   GL171881  33.761  27.577   6.150
 8983POPC   GL271882  33.719  27.740   6.150
 8983POPC   C1A71883  33.839  27.546   6.450
 8983POPC   D2A71884  33.761  27.603   6.750
 8983POPC   C3A71885  33.831  27.581   7.050
 8983POPC   C4A71886  33.809  27.607   7.350
 8983POPC   C1B71887  33.608  27.775   6.450
 8983POPC   C2B71888  33.610  27.790   6.750
 8983POPC   C3B71889  33.689  27.810   7.050
 8983POPC   C4B71890  33.632  27.767   7.350
 8984POPC   NC371891  33.788  40.753   5.550
 8984POPC   PO471892  33.806  40.798   5.850
 8984POPC   GL171893  33.793  40.818   6.150
 8984POPC   GL271894  33.937  40.838   6.150
 8984POPC   C1A71895  33.757  40.774   6.450
 8984POPC   D2A71896  33.797  40.822   6.750
 8984POPC   C3A71897  33.837  40.770   7.050
 8984POPC   C4A71898  33.765  40.744   7.350
 8984POPC   C1B71899  34.098  40.768   6.450
 8984POPC   C2B71900  34.000  40.775   6.750
 8984POPC   C3B71901  34.016  40.763   7.050
 8984POPC   C4B71902  34.037  40.828   7.350
 8985POPC   NC371903   8.996  16.726   5.550
 8985POPC   PO471904   8.988  16.683   5.850
 8985POPC   GL171905   8.937  16.753   6.150
 8985POPC   GL271906   8.893  16.776   6.150
 8985POPC   C1A71907   8.983  16.758   6.450
 8985POPC   D2A71908   9.000  16.687   6.750
 8985POPC   C3A71909   8.926  16.761   7.050
 8985POPC   C4A71910   8.943  16.744   7.350
 8985POPC   C1B71911   8.754  16.811   6.450
 8985POPC   C2B71912   8.758  16.847   6.750
 8985POPC   C3B71913   8.694  16.844   7.050
 8985POPC   C4B71914   8.726  16.798   7.350
 8986POPC   NC371915  20.579  14.413   5.550
 8986POPC   PO471916  20.595  14.426   5.850
 8986POPC   GL171917  20.600  14.398   6.150
 8986POPC   GL271918  20.760  14.422   6.150
 8986POPC   C1A71919  20.570  14.404   6.450
 8986POPC   D2A71920  20.599  14.453   6.750
 8986POPC   C3A71921  20.579  14.412   7.050
 8986POPC   C4A71922  20.579  14.409   7.350
 8986POPC   C1B71923  20.815  14.436   6.450
 8986POPC   C2B71924  20.882  14.431   6.750
 8986POPC   C3B71925  20.878  14.454   7.050
 8986POPC   C4B71926  20.832  14.396   7.350
 8987POPC   NC371927  22.160   7.379   5.550
 8987POPC   PO471928  22.172   7.434   5.850
 8987POPC   GL171929  22.158   7.388   6.150
 8987POPC   GL271930  22.233   7.290   6.150
 8987POPC   C1A71931  22.192   7.450   6.450
 8987POPC   D2A71932  22.193   7.460   6.750
 8987POPC   C3A71933  22.165   7.434   7.050
 8987POPC   C4A71934  22.177   7.460   7.350
 8987POPC   C1B71935  22.253   7.213   6.450
 8987POPC   C2B71936  22.344   7.167   6.750
 8987POPC   C3B71937  22.334   7.182   7.050
 8987POPC   C4B71938  22.330   7.235   7.350
 8988POPC   NC371939  35.401  22.927   5.550
 8988POPC   PO471940  35.350  22.958   5.850
 8988POPC   GL171941  35.369  22.948   6.150
 8988POPC   GL271942  35.271  23.069   6.150
 8988POPC   C1A71943  35.313  22.934   6.450
 8988POPC   D2A71944  35.320  22.904   6.750
 8988POPC   C3A71945  35.349  22.909   7.050
 8988POPC   C4A71946  35.337  22.889   7.350
 8988POPC   C1B71947  35.167  23.068   6.450
 8988POPC   C2B71948  35.208  23.080   6.750
 8988POPC   C3B71949  35.200  23.092   7.050
 8988POPC   C4B71950  35.163  23.115   7.350
 8989POPC   NC371951  44.708   8.171   5.550
 8989POPC   PO471952  44.618   8.216   5.850
 8989POPC   GL171953  44.695   8.165   6.150
 8989POPC   GL271954  44.755   8.198   6.150
 8989POPC   C1A71955  44.674   8.243   6.450
 8989POPC   D2A71956  44.637   8.167   6.750
 8989POPC   C3A71957  44.642   8.182   7.050
 8989POPC   C4A71958  44.668   8.180   7.350
 8989POPC   C1B71959  44.935   8.245   6.450
 8989POPC   C2B71960  44.910   8.212   6.750
 8989POPC   C3B71961  44.916   8.292   7.050
 8989POPC   C4B71962  44.867   8.228   7.350
 8990POPC   NC371963  29.145  20.603   5.550
 8990POPC   PO471964  29.187  20.562   5.850
 8990POPC   GL171965  29.135  20.628   6.150
 8990POPC   GL271966  29.031  20.597   6.150
 8990POPC   C1A71967  29.155  20.623   6.450
 8990POPC   D2A71968  29.170  20.579   6.750
 8990POPC   C3A71969  29.129  20.601   7.050
 8990POPC   C4A71970  29.168  20.590   7.350
 8990POPC   C1B71971  28.889  20.593   6.450
 8990POPC   C2B71972  28.914  20.670   6.750
 8990POPC   C3B71973  28.913  20.666   7.050
 8990POPC   C4B71974  28.887  20.601   7.350
 8991POPC   NC371975  43.853   9.720   5.550
 8991POPC   PO471976  43.935   9.764   5.850
 8991POPC   GL171977  43.864   9.785   6.150
 8991POPC   GL271978  43.875   9.873   6.150
 8991POPC   C1A71979  43.873   9.760   6.450
 8991POPC   D2A71980  43.910   9.715   6.750
 8991POPC   C3A71981  43.900   9.741   7.050
 8991POPC   C4A71982  43.872   9.714   7.350
 8991POPC   C1B71983  43.893  10.028   6.450
 8991POPC   C2B71984  43.960  10.025   6.750
 8991POPC   C3B71985  43.893   9.969   7.050
 8991POPC   C4B71986  43.948   9.965   7.350
 8992POPC   NC371987  28.376  34.527   5.550
 8992POPC   PO471988  28.396  34.583   5.850
 8992POPC   GL171989  28.413  34.551   6.150
 8992POPC   GL271990  28.403  34.452   6.150
 8992POPC   C1A71991  28.340  34.545   6.450
 8992POPC   D2A71992  28.373  34.586   6.750
 8992POPC   C3A71993  28.337  34.614   7.050
 8992POPC   C4A71994  28.381  34.532   7.350
 8992POPC   C1B71995  28.431  34.377   6.450
 8992POPC   C2B71996  28.460  34.300   6.750
 8992POPC   C3B71997  28.450  34.348   7.050
 8992POPC   C4B71998  28.436  34.308   7.350
 8993POPC   NC371999   8.167  37.634   5.550
 8993POPC   PO472000   8.209  37.656   5.850
 8993POPC   GL172001   8.161  37.651   6.150
 8993POPC   GL272002   8.252  37.533   6.150
 8993POPC   C1A72003   8.188  37.631   6.450
 8993POPC   D2A72004   8.155  37.657   6.750
 8993POPC   C3A72005   8.238  37.695   7.050
 8993POPC   C4A72006   8.234  37.676   7.350
 8993POPC   C1B72007   8.328  37.439   6.450
 8993POPC   C2B72008   8.280  37.494   6.750
 8993POPC   C3B72009   8.262  37.398   7.050
 8993POPC   C4B72010   8.271  37.443   7.350
 8994POPC   NC372011  40.829  36.106   5.550
 8994POPC   PO472012  40.742  36.160   5.850
 8994POPC   GL172013  40.808  36.143   6.150
 8994POPC   GL272014  40.885  36.177   6.150
 8994POPC   C1A72015  40.807  36.140   6.450
 8994POPC   D2A72016  40.773  36.106   6.750
 8994POPC   C3A72017  40.831  36.113   7.050
 8994POPC   C4A72018  40.750  36.174   7.350
 8994POPC   C1B72019  40.967  36.295   6.450
 8994POPC   C2B72020  40.986  36.320   6.750
 8994POPC   C3B72021  41.015  36.263   7.050
 8994POPC   C4B72022  40.943  36.266   7.350
 8995POPC   NC372023  19.790  38.445   5.550
 8995POPC   PO472024  19.867  38.459   5.850
 8995POPC   GL172025  19.793  38.462   6.150
 8995POPC   GL272026  19.921  38.425   6.150
 8995POPC   C1A72027  19.819  38.436   6.450
 8995POPC   D2A72028  19.808  38.461   6.750
 8995POPC   C3A72029  19.823  38.413   7.050
 8995POPC   C4A72030  19.799  38.445   7.350
 8995POPC   C1B72031  20.034  38.302   6.450
 8995POPC   C2B72032  20.015  38.360   6.750
 8995POPC   C3B72033  20.046  38.334   7.050
 8995POPC   C4B72034  20.095  38.275   7.350
 8996POPC   NC372035  13.607  25.240   5.550
 8996POPC   PO472036  13.667  25.224   5.850
 8996POPC   GL172037  13.622  25.245   6.150
 8996POPC   GL272038  13.582  25.430   6.150
 8996POPC   C1A72039  13.672  25.239   6.450
 8996POPC   D2A72040  13.619  25.288   6.750
 8996POPC   C3A72041  13.674  25.280   7.050
 8996POPC   C4A72042  13.673  25.243   7.350
 8996POPC   C1B72043  13.660  25.480   6.450
 8996POPC   C2B72044  13.619  25.469   6.750
 8996POPC   C3B72045  13.636  25.489   7.050
 8996POPC   C4B72046  13.643  25.527   7.350
 8997POPC   NC372047  15.977  13.606   5.550
 8997POPC   PO472048  15.941  13.593   5.850
 8997POPC   GL172049  15.984  13.628   6.150
 8997POPC   GL272050  16.116  13.590   6.150
 8997POPC   C1A72051  15.981  13.653   6.450
 8997POPC   D2A72052  15.916  13.595   6.750
 8997POPC   C3A72053  15.908  13.672   7.050
 8997POPC   C4A72054  15.970  13.673   7.350
 8997POPC   C1B72055  16.147  13.568   6.450
 8997POPC   C2B72056  16.237  13.598   6.750
 8997POPC   C3B72057  16.231  13.599   7.050
 8997POPC   C4B72058  16.151  13.597   7.350
 8998POPC   NC372059  18.239  33.015   5.550
 8998POPC   PO472060  18.261  33.055   5.850
 8998POPC   GL172061  18.295  33.039   6.150
 8998POPC   GL272062  18.272  33.152   6.150
 8998POPC   C1A72063  18.304  33.063   6.450
 8998POPC   D2A72064  18.241  33.033   6.750
 8998POPC   C3A72065  18.236  33.037   7.050
 8998POPC   C4A72066  18.325  32.987   7.350
 8998POPC   C1B72067  18.251  33.289   6.450
 8998POPC   C2B72068  18.212  33.244   6.750
 8998POPC   C3B72069  18.240  33.280   7.050
 8998POPC   C4B72070  18.246  33.268   7.350
 8999POPC   NC372071  19.812   5.897   5.550
 8999POPC   PO472072  19.845   5.904   5.850
 8999POPC   GL172073  19.812   5.878   6.150
 8999POPC   GL272074  19.749   5.912   6.150
 8999POPC   C1A72075  19.854   5.881   6.450
 8999POPC   D2A72076  19.843   5.870   6.750
 8999POPC   C3A72077  19.859   5.879   7.050
 8999POPC   C4A72078  19.829   5.888   7.350
 8999POPC   C1B72079  19.564   5.905   6.450
 8999POPC   C2B72080  19.620   5.972   6.750
 8999POPC   C3B72081  19.607   5.972   7.050
 8999POPC   C4B72082  19.612   5.946   7.350
 9000POPC   NC372083   2.014  30.692   5.550
 9000POPC   PO472084   2.013  30.672   5.850
 9000POPC   GL172085   2.004  30.670   6.150
 9000POPC   GL272086   1.865  30.798   6.150
 9000POPC   C1A72087   2.002  30.688   6.450
 9000POPC   D2A72088   2.018  30.721   6.750
 9000POPC   C3A72089   2.025  30.683   7.050
 9000POPC   C4A72090   1.944  30.691   7.350
 9000POPC   C1B72091   1.743  30.854   6.450
 9000POPC   C2B72092   1.768  30.809   6.750
 9000POPC   C3B72093   1.814  30.858   7.050
 9000POPC   C4B72094   1.785  30.867   7.350
 9001POPC   NC372095  33.821  36.948   5.550
 9001POPC   PO472096  33.850  36.910   5.850
 9001POPC   GL172097  33.795  36.920   6.150
 9001POPC   GL272098  33.733  37.043   6.150
 9001POPC   C1A72099  33.751  36.883   6.450
 9001POPC   D2A72100  33.782  36.878   6.750
 9001POPC   C3A72101  33.844  36.868   7.050
 9001POPC   C4A72102  33.794  36.916   7.350
 9001POPC   C1B72103  33.687  37.083   6.450
 9001POPC   C2B72104  33.659  37.139   6.750
 9001POPC   C3B72105  33.643  37.153   7.050
 9001POPC   C4B72106  33.645  37.158   7.350
 9002POPC   NC372107  23.730  32.277   5.550
 9002POPC   PO472108  23.694  32.225   5.850
 9002POPC   GL172109  23.686  32.285   6.150
 9002POPC   GL272110  23.635  32.231   6.150
 9002POPC   C1A72111  23.736  32.200   6.450
 9002POPC   D2A72112  23.723  32.263   6.750
 9002POPC   C3A72113  23.703  32.255   7.050
 9002POPC   C4A72114  23.690  32.232   7.350
 9002POPC   C1B72115  23.469  32.311   6.450
 9002POPC   C2B72116  23.444  32.233   6.750
 9002POPC   C3B72117  23.421  32.223   7.050
 9002POPC   C4B72118  23.472  32.258   7.350
 9003POPC   NC372119  29.098  21.390   5.550
 9003POPC   PO472120  29.162  21.395   5.850
 9003POPC   GL172121  29.169  21.373   6.150
 9003POPC   GL272122  29.292  21.335   6.150
 9003POPC   C1A72123  29.151  21.395   6.450
 9003POPC   D2A72124  29.151  21.372   6.750
 9003POPC   C3A72125  29.101  21.400   7.050
 9003POPC   C4A72126  29.152  21.416   7.350
 9003POPC   C1B72127  29.336  21.235   6.450
 9003POPC   C2B72128  29.405  21.278   6.750
 9003POPC   C3B72129  29.353  21.229   7.050
 9003POPC   C4B72130  29.393  21.249   7.350
 9004POPC   NC372131  35.398   6.652   5.550
 9004POPC   PO472132  35.350   6.667   5.850
 9004POPC   GL172133  35.338   6.630   6.150
 9004POPC   GL272134  35.384   6.573   6.150
 9004POPC   C1A72135  35.333   6.638   6.450
 9004POPC   D2A72136  35.388   6.629   6.750
 9004POPC   C3A72137  35.311   6.657   7.050
 9004POPC   C4A72138  35.343   6.631   7.350
 9004POPC   C1B72139  35.466   6.433   6.450
 9004POPC   C2B72140  35.497   6.482   6.750
 9004POPC   C3B72141  35.502   6.413   7.050
 9004POPC   C4B72142  35.512   6.440   7.350
 9005POPC   NC372143   2.763  17.492   5.550
 9005POPC   PO472144   2.771  17.469   5.850
 9005POPC   GL172145   2.801  17.533   6.150
 9005POPC   GL272146   2.909  17.541   6.150
 9005POPC   C1A72147   2.731  17.458   6.450
 9005POPC   D2A72148   2.793  17.539   6.750
 9005POPC   C3A72149   2.800  17.461   7.050
 9005POPC   C4A72150   2.734  17.533   7.350
 9005POPC   C1B72151   2.984  17.650   6.450
 9005POPC   C2B72152   2.964  17.628   6.750
 9005POPC   C3B72153   3.009  17.648   7.050
 9005POPC   C4B72154   2.942  17.614   7.350
 9006POPC   NC372155  12.083  15.206   5.550
 9006POPC   PO472156  12.029  15.138   5.850
 9006POPC   GL172157  12.075  15.212   6.150
 9006POPC   GL272158  12.219  15.208   6.150
 9006POPC   C1A72159  12.072  15.136   6.450
 9006POPC   D2A72160  12.040  15.165   6.750
 9006POPC   C3A72161  12.036  15.134   7.050
 9006POPC   C4A72162  12.110  15.194   7.350
 9006POPC   C1B72163  12.243  15.358   6.450
 9006POPC   C2B72164  12.316  15.302   6.750
 9006POPC   C3B72165  12.323  15.288   7.050
 9006POPC   C4B72166  12.279  15.324   7.350
 9007POPC   NC372167  33.012  13.635   5.550
 9007POPC   PO472168  33.002  13.661   5.850
 9007POPC   GL172169  33.026  13.661   6.150
 9007POPC   GL272170  33.081  13.538   6.150
 9007POPC   C1A72171  32.978  13.593   6.450
 9007POPC   D2A72172  32.999  13.583   6.750
 9007POPC   C3A72173  33.009  13.591   7.050
 9007POPC   C4A72174  32.983  13.634   7.350
 9007POPC   C1B72175  33.133  13.377   6.450
 9007POPC   C2B72176  33.174  13.392   6.750
 9007POPC   C3B72177  33.124  13.464   7.050
 9007POPC   C4B72178  33.137  13.422   7.350
 9008POPC   NC372179  15.136  16.747   5.550
 9008POPC   PO472180  15.171  16.768   5.850
 9008POPC   GL172181  15.183  16.775   6.150
 9008POPC   GL272182  15.198  16.657   6.150
 9008POPC   C1A72183  15.171  16.776   6.450
 9008POPC   D2A72184  15.173  16.745   6.750
 9008POPC   C3A72185  15.190  16.761   7.050
 9008POPC   C4A72186  15.141  16.775   7.350
 9008POPC   C1B72187  15.339  16.538   6.450
 9008POPC   C2B72188  15.326  16.467   6.750
 9008POPC   C3B72189  15.263  16.492   7.050
 9008POPC   C4B72190  15.318  16.523   7.350
 9009POPC   NC372191  19.061   5.128   5.550
 9009POPC   PO472192  19.108   5.143   5.850
 9009POPC   GL172193  19.030   5.047   6.150
 9009POPC   GL272194  18.997   5.019   6.150
 9009POPC   C1A72195  19.054   5.127   6.450
 9009POPC   D2A72196  19.105   5.074   6.750
 9009POPC   C3A72197  19.064   5.073   7.050
 9009POPC   C4A72198  19.041   5.132   7.350
 9009POPC   C1B72199  18.850   4.995   6.450
 9009POPC   C2B72200  18.903   4.946   6.750
 9009POPC   C3B72201  18.875   4.899   7.050
 9009POPC   C4B72202  18.851   4.977   7.350
 9010POPC   NC372203  36.913  41.590   5.550
 9010POPC   PO472204  36.932  41.515   5.850
 9010POPC   GL172205  36.883  41.516   6.150
 9010POPC   GL272206  36.797  41.568   6.150
 9010POPC   C1A72207  36.897  41.606   6.450
 9010POPC   D2A72208  36.859  41.541   6.750
 9010POPC   C3A72209  36.908  41.567   7.050
 9010POPC   C4A72210  36.945  41.522   7.350
 9010POPC   C1B72211  36.633  41.672   6.450
 9010POPC   C2B72212  36.635  41.616   6.750
 9010POPC   C3B72213  36.699  41.651   7.050
 9010POPC   C4B72214  36.654  41.681   7.350
 9011POPC   NC372215  32.270   0.453   5.550
 9011POPC   PO472216  32.222   0.459   5.850
 9011POPC   GL172217  32.287   0.424   6.150
 9011POPC   GL272218  32.299   0.342   6.150
 9011POPC   C1A72219  32.237   0.468   6.450
 9011POPC   D2A72220  32.277   0.446   6.750
 9011POPC   C3A72221  32.221   0.446   7.050
 9011POPC   C4A72222  32.280   0.475   7.350
 9011POPC   C1B72223  32.432   0.195   6.450
 9011POPC   C2B72224  32.396   0.243   6.750
 9011POPC   C3B72225  32.433   0.222   7.050
 9011POPC   C4B72226  32.389   0.202   7.350
 9012POPC   NC372227  19.056  32.281   5.550
 9012POPC   PO472228  19.075  32.203   5.850
 9012POPC   GL172229  19.066  32.273   6.150
 9012POPC   GL272230  19.182  32.148   6.150
 9012POPC   C1A72231  19.060  32.279   6.450
 9012POPC   D2A72232  19.009  32.253   6.750
 9012POPC   C3A72233  19.089  32.294   7.050
 9012POPC   C4A72234  19.089  32.203   7.350
 9012POPC   C1B72235  19.275  32.122   6.450
 9012POPC   C2B72236  19.243  32.078   6.750
 9012POPC   C3B72237  19.274  32.054   7.050
 9012POPC   C4B72238  19.285  32.053   7.350
 9013POPC   NC372239  11.338  37.647   5.550
 9013POPC   PO472240  11.314  37.682   5.850
 9013POPC   GL172241  11.317  37.675   6.150
 9013POPC   GL272242  11.276  37.555   6.150
 9013POPC   C1A72243  11.286  37.710   6.450
 9013POPC   D2A72244  11.272  37.686   6.750
 9013POPC   C3A72245  11.277  37.719   7.050
 9013POPC   C4A72246  11.267  37.654   7.350
 9013POPC   C1B72247  11.332  37.387   6.450
 9013POPC   C2B72248  11.298  37.472   6.750
 9013POPC   C3B72249  11.327  37.435   7.050
 9013POPC   C4B72250  11.324  37.397   7.350
 9014POPC   NC372251  44.676  10.490   5.550
 9014POPC   PO472252  44.666  10.485   5.850
 9014POPC   GL172253  44.614  10.536   6.150
 9014POPC   GL272254  44.534  10.540   6.150
 9014POPC   C1A72255  44.635  10.542   6.450
 9014POPC   D2A72256  44.684  10.529   6.750
 9014POPC   C3A72257  44.683  10.541   7.050
 9014POPC   C4A72258  44.703  10.548   7.350
 9014POPC   C1B72259  44.410  10.506   6.450
 9014POPC   C2B72260  44.430  10.530   6.750
 9014POPC   C3B72261  44.403  10.502   7.050
 9014POPC   C4B72262  44.400  10.499   7.350
 9015POPC   NC372263   2.809   4.285   5.550
 9015POPC   PO472264   2.781   4.365   5.850
 9015POPC   GL172265   2.729   4.316   6.150
 9015POPC   GL272266   2.694   4.466   6.150
 9015POPC   C1A72267   2.744   4.311   6.450
 9015POPC   D2A72268   2.778   4.312   6.750
 9015POPC   C3A72269   2.742   4.347   7.050
 9015POPC   C4A72270   2.805   4.270   7.350
 9015POPC   C1B72271   2.620   4.560   6.450
 9015POPC   C2B72272   2.600   4.469   6.750
 9015POPC   C3B72273   2.621   4.480   7.050
 9015POPC   C4B72274   2.577   4.533   7.350
 9016POPC   NC372275   1.251  11.275   5.550
 9016POPC   PO472276   1.183  11.292   5.850
 9016POPC   GL172277   1.172  11.329   6.150
 9016POPC   GL272278   1.153  11.470   6.150
 9016POPC   C1A72279   1.234  11.273   6.450
 9016POPC   D2A72280   1.197  11.345   6.750
 9016POPC   C3A72281   1.164  11.332   7.050
 9016POPC   C4A72282   1.258  11.277   7.350
 9016POPC   C1B72283   1.168  11.587   6.450
 9016POPC   C2B72284   1.226  11.547   6.750
 9016POPC   C3B72285   1.193  11.565   7.050
 9016POPC   C4B72286   1.135  11.531   7.350
 9017POPC   NC372287  27.593  14.367   5.550
 9017POPC   PO472288  27.585  14.417   5.850
 9017POPC   GL172289  27.567  14.416   6.150
 9017POPC   GL272290  27.719  14.361   6.150
 9017POPC   C1A72291  27.597  14.377   6.450
 9017POPC   D2A72292  27.614  14.408   6.750
 9017POPC   C3A72293  27.563  14.379   7.050
 9017POPC   C4A72294  27.613  14.408   7.350
 9017POPC   C1B72295  27.811  14.373   6.450
 9017POPC   C2B72296  27.855  14.344   6.750
 9017POPC   C3B72297  27.881  14.429   7.050
 9017POPC   C4B72298  27.870  14.431   7.350
 9018POPC   NC372299  23.665  43.900   5.550
 9018POPC   PO472300  23.683  43.924   5.850
 9018POPC   GL172301  23.666  43.901   6.150
 9018POPC   GL272302  23.790  43.990   6.150
 9018POPC   C1A72303  23.758  43.934   6.450
 9018POPC   D2A72304  23.712  43.856   6.750
 9018POPC   C3A72305  23.715  43.918   7.050
 9018POPC   C4A72306  23.707  43.893   7.350
 9018POPC   C1B72307  23.760  44.178   6.450
 9018POPC   C2B72308  23.783  44.119   6.750
 9018POPC   C3B72309  23.736  44.081   7.050
 9018POPC   C4B72310  23.805  44.167   7.350
 9019POPC   NC372311   5.134  43.899   5.550
 9019POPC   PO472312   5.102  43.898   5.850
 9019POPC   GL172313   5.056  43.911   6.150
 9019POPC   GL272314   5.093  43.976   6.150
 9019POPC   C1A72315   5.143  43.930   6.450
 9019POPC   D2A72316   5.090  43.906   6.750
 9019POPC   C3A72317   5.084  43.903   7.050
 9019POPC   C4A72318   5.112  43.891   7.350
 9019POPC   C1B72319   5.020  44.094   6.450
 9019POPC   C2B72320   4.965  44.155   6.750
 9019POPC   C3B72321   5.001  44.082   7.050
 9019POPC   C4B72322   4.993  44.150   7.350
 9020POPC   NC372323  26.067   8.992   5.550
 9020POPC   PO472324  26.007   8.980   5.850
 9020POPC   GL172325  25.996   8.940   6.150
 9020POPC   GL272326  26.188   9.066   6.150
 9020POPC   C1A72327  26.077   8.989   6.450
 9020POPC   D2A72328  26.044   9.018   6.750
 9020POPC   C3A72329  26.059   8.976   7.050
 9020POPC   C4A72330  26.023   8.947   7.350
 9020POPC   C1B72331  26.269   9.135   6.450
 9020POPC   C2B72332  26.231   9.132   6.750
 9020POPC   C3B72333  26.208   9.110   7.050
 9020POPC   C4B72334  26.266   9.095   7.350
 9021POPC   NC372335  35.308  43.115   5.550
 9021POPC   PO472336  35.333  43.082   5.850
 9021POPC   GL172337  35.323  43.122   6.150
 9021POPC   GL272338  35.470  43.152   6.150
 9021POPC   C1A72339  35.303  43.090   6.450
 9021POPC   D2A72340  35.341  43.073   6.750
 9021POPC   C3A72341  35.310  43.076   7.050
 9021POPC   C4A72342  35.386  43.116   7.350
 9021POPC   C1B72343  35.547  43.250   6.450
 9021POPC   C2B72344  35.523  43.277   6.750
 9021POPC   C3B72345  35.547  43.212   7.050
 9021POPC   C4B72346  35.585  43.225   7.350
 9022POPC   NC372347  42.299  26.020   5.550
 9022POPC   PO472348  42.337  26.059   5.850
 9022POPC   GL172349  42.341  26.076   6.150
 9022POPC   GL272350  42.422  26.201   6.150
 9022POPC   C1A72351  42.326  26.076   6.450
 9022POPC   D2A72352  42.311  26.042   6.750
 9022POPC   C3A72353  42.379  25.998   7.050
 9022POPC   C4A72354  42.346  26.004   7.350
 9022POPC   C1B72355  42.380  26.323   6.450
 9022POPC   C2B72356  42.439  26.309   6.750
 9022POPC   C3B72357  42.437  26.261   7.050
 9022POPC   C4B72358  42.412  26.305   7.350
 9023POPC   NC372359   8.233  15.995   5.550
 9023POPC   PO472360   8.171  15.914   5.850
 9023POPC   GL172361   8.168  15.960   6.150
 9023POPC   GL272362   8.070  15.868   6.150
 9023POPC   C1A72363   8.219  15.980   6.450
 9023POPC   D2A72364   8.156  15.914   6.750
 9023POPC   C3A72365   8.227  15.946   7.050
 9023POPC   C4A72366   8.218  15.918   7.350
 9023POPC   C1B72367   8.036  15.766   6.450
 9023POPC   C2B72368   8.062  15.764   6.750
 9023POPC   C3B72369   8.058  15.794   7.050
 9023POPC   C4B72370   8.039  15.795   7.350
 9024POPC   NC372371   2.726   8.150   5.550
 9024POPC   PO472372   2.758   8.207   5.850
 9024POPC   GL172373   2.758   8.218   6.150
 9024POPC   GL272374   2.815   8.318   6.150
 9024POPC   C1A72375   2.723   8.222   6.450
 9024POPC   D2A72376   2.790   8.230   6.750
 9024POPC   C3A72377   2.759   8.209   7.050
 9024POPC   C4A72378   2.744   8.232   7.350
 9024POPC   C1B72379   2.905   8.342   6.450
 9024POPC   C2B72380   2.988   8.327   6.750
 9024POPC   C3B72381   2.983   8.412   7.050
 9024POPC   C4B72382   2.965   8.328   7.350
 9025POPC   NC372383   5.896  23.725   5.550
 9025POPC   PO472384   5.859  23.694   5.850
 9025POPC   GL172385   5.904  23.728   6.150
 9025POPC   GL272386   5.861  23.582   6.150
 9025POPC   C1A72387   5.918  23.722   6.450
 9025POPC   D2A72388   5.888  23.722   6.750
 9025POPC   C3A72389   5.885  23.744   7.050
 9025POPC   C4A72390   5.876  23.718   7.350
 9025POPC   C1B72391   5.867  23.487   6.450
 9025POPC   C2B72392   5.922  23.454   6.750
 9025POPC   C3B72393   5.926  23.467   7.050
 9025POPC   C4B72394   5.923  23.422   7.350
 9026POPC   NC372395  12.032  11.315   5.550
 9026POPC   PO472396  12.074  11.306   5.850
 9026POPC   GL172397  12.124  11.274   6.150
 9026POPC   GL272398  12.125  11.144   6.150
 9026POPC   C1A72399  12.071  11.270   6.450
 9026POPC   D2A72400  12.115  11.322   6.750
 9026POPC   C3A72401  12.125  11.326   7.050
 9026POPC   C4A72402  12.051  11.305   7.350
 9026POPC   C1B72403  12.139  11.034   6.450
 9026POPC   C2B72404  12.146  11.073   6.750
 9026POPC   C3B72405  12.154  11.101   7.050
 9026POPC   C4B72406  12.092  11.036   7.350
 9027POPC   NC372407  38.468  36.926   5.550
 9027POPC   PO472408  38.437  36.896   5.850
 9027POPC   GL172409  38.493  36.888   6.150
 9027POPC   GL272410  38.385  37.014   6.150
 9027POPC   C1A72411  38.478  36.906   6.450
 9027POPC   D2A72412  38.497  36.910   6.750
 9027POPC   C3A72413  38.489  36.940   7.050
 9027POPC   C4A72414  38.420  36.950   7.350
 9027POPC   C1B72415  38.340  37.173   6.450
 9027POPC   C2B72416  38.402  37.120   6.750
 9027POPC   C3B72417  38.368  37.147   7.050
 9027POPC   C4B72418  38.397  37.120   7.350
 9028POPC   NC372419  33.804   2.016   5.550
 9028POPC   PO472420  33.780   1.974   5.850
 9028POPC   GL172421  33.846   1.953   6.150
 9028POPC   GL272422  33.954   2.077   6.150
 9028POPC   C1A72423  33.751   2.010   6.450
 9028POPC   D2A72424  33.766   2.017   6.750
 9028POPC   C3A72425  33.782   1.960   7.050
 9028POPC   C4A72426  33.762   1.993   7.350
 9028POPC   C1B72427  34.042   2.130   6.450
 9028POPC   C2B72428  34.023   2.147   6.750
 9028POPC   C3B72429  34.030   2.120   7.050
 9028POPC   C4B72430  34.007   2.116   7.350
 9029POPC   NC372431  15.949  39.209   5.550
 9029POPC   PO472432  15.950  39.223   5.850
 9029POPC   GL172433  16.004  39.229   6.150
 9029POPC   GL272434  15.928  39.115   6.150
 9029POPC   C1A72435  15.930  39.267   6.450
 9029POPC   D2A72436  15.909  39.261   6.750
 9029POPC   C3A72437  15.972  39.203   7.050
 9029POPC   C4A72438  15.958  39.183   7.350
 9029POPC   C1B72439  15.975  38.939   6.450
 9029POPC   C2B72440  16.004  38.957   6.750
 9029POPC   C3B72441  15.957  39.019   7.050
 9029POPC   C4B72442  15.956  38.948   7.350
 9030POPC   NC372443   4.293   4.353   5.550
 9030POPC   PO472444   4.326   4.356   5.850
 9030POPC   GL172445   4.357   4.285   6.150
 9030POPC   GL272446   4.444   4.276   6.150
 9030POPC   C1A72447   4.361   4.341   6.450
 9030POPC   D2A72448   4.310   4.306   6.750
 9030POPC   C3A72449   4.308   4.337   7.050
 9030POPC   C4A72450   4.270   4.354   7.350
 9030POPC   C1B72451   4.587   4.299   6.450
 9030POPC   C2B72452   4.547   4.225   6.750
 9030POPC   C3B72453   4.581   4.243   7.050
 9030POPC   C4B72454   4.525   4.243   7.350
 9031POPC   NC372455  29.939  21.430   5.550
 9031POPC   PO472456  29.921  21.423   5.850
 9031POPC   GL172457  29.929  21.421   6.150
 9031POPC   GL272458  29.910  21.232   6.150
 9031POPC   C1A72459  29.874  21.436   6.450
 9031POPC   D2A72460  29.926  21.398   6.750
 9031POPC   C3A72461  29.880  21.433   7.050
 9031POPC   C4A72462  29.916  21.412   7.350
 9031POPC   C1B72463  29.925  21.118   6.450
 9031POPC   C2B72464  29.880  21.140   6.750
 9031POPC   C3B72465  29.900  21.135   7.050
 9031POPC   C4B72466  29.857  21.121   7.350
 9032POPC   NC372467   4.267  26.865   5.550
 9032POPC   PO472468   4.277  26.840   5.850
 9032POPC   GL172469   4.337  26.851   6.150
 9032POPC   GL272470   4.198  26.721   6.150
 9032POPC   C1A72471   4.269  26.838   6.450
 9032POPC   D2A72472   4.280  26.834   6.750
 9032POPC   C3A72473   4.308  26.770   7.050
 9032POPC   C4A72474   4.289  26.838   7.350
 9032POPC   C1B72475   4.093  26.683   6.450
 9032POPC   C2B72476   4.061  26.746   6.750
 9032POPC   C3B72477   4.048  26.690   7.050
 9032POPC   C4B72478   4.148  26.648   7.350
 9033POPC   NC372479  12.884   6.681   5.550
 9033POPC   PO472480  12.814   6.679   5.850
 9033POPC   GL172481  12.812   6.684   6.150
 9033POPC   GL272482  12.954   6.525   6.150
 9033POPC   C1A72483  12.877   6.643   6.450
 9033POPC   D2A72484  12.876   6.634   6.750
 9033POPC   C3A72485  12.821   6.607   7.050
 9033POPC   C4A72486  12.842   6.675   7.350
 9033POPC   C1B72487  12.973   6.458   6.450
 9033POPC   C2B72488  12.994   6.478   6.750
 9033POPC   C3B72489  13.034   6.485   7.050
 9033POPC   C4B72490  13.059   6.498   7.350
 9034POPC   NC372491  29.100  35.359   5.550
 9034POPC   PO472492  29.117  35.351   5.850
 9034POPC   GL172493  29.164  35.325   6.150
 9034POPC   GL272494  29.244  35.210   6.150
 9034POPC   C1A72495  29.172  35.318   6.450
 9034POPC   D2A72496  29.174  35.320   6.750
 9034POPC   C3A72497  29.194  35.343   7.050
 9034POPC   C4A72498  29.150  35.309   7.350
 9034POPC   C1B72499  29.347  35.212   6.450
 9034POPC   C2B72500  29.268  35.145   6.750
 9034POPC   C3B72501  29.263  35.195   7.050
 9034POPC   C4B72502  29.287  35.161   7.350
 9035POPC   NC372503  42.366  32.201   5.550
 9035POPC   PO472504  42.370  32.263   5.850
 9035POPC   GL172505  42.340  32.218   6.150
 9035POPC   GL272506  42.408  32.148   6.150
 9035POPC   C1A72507  42.364  32.203   6.450
 9035POPC   D2A72508  42.339  32.206   6.750
 9035POPC   C3A72509  42.368  32.285   7.050
 9035POPC   C4A72510  42.320  32.266   7.350
 9035POPC   C1B72511  42.550  32.103   6.450
 9035POPC   C2B72512  42.487  32.095   6.750
 9035POPC   C3B72513  42.524  32.088   7.050
 9035POPC   C4B72514  42.503  32.111   7.350
 9036POPC   NC372515  26.038  24.465   5.550
 9036POPC   PO472516  26.080  24.503   5.850
 9036POPC   GL172517  26.038  24.477   6.150
 9036POPC   GL272518  26.134  24.651   6.150
 9036POPC   C1A72519  26.061  24.460   6.450
 9036POPC   D2A72520  26.076  24.512   6.750
 9036POPC   C3A72521  26.007  24.477   7.050
 9036POPC   C4A72522  26.033  24.473   7.350
 9036POPC   C1B72523  26.138  24.705   6.450
 9036POPC   C2B72524  26.144  24.698   6.750
 9036POPC   C3B72525  26.182  24.683   7.050
 9036POPC   C4B72526  26.171  24.694   7.350
 9037POPC   NC372527  43.063   7.458   5.550
 9037POPC   PO472528  43.100   7.421   5.850
 9037POPC   GL172529  43.146   7.403   6.150
 9037POPC   GL272530  43.145   7.551   6.150
 9037POPC   C1A72531  43.127   7.466   6.450
 9037POPC   D2A72532  43.104   7.447   6.750
 9037POPC   C3A72533  43.117   7.386   7.050
 9037POPC   C4A72534  43.063   7.463   7.350
 9037POPC   C1B72535  43.127   7.672   6.450
 9037POPC   C2B72536  43.131   7.685   6.750
 9037POPC   C3B72537  43.185   7.675   7.050
 9037POPC   C4B72538  43.210   7.687   7.350
 9038POPC   NC372539   2.728   8.923   5.550
 9038POPC   PO472540   2.812   8.994   5.850
 9038POPC   GL172541   2.717   8.955   6.150
 9038POPC   GL272542   2.639   8.912   6.150
 9038POPC   C1A72543   2.770   8.978   6.450
 9038POPC   D2A72544   2.778   9.015   6.750
 9038POPC   C3A72545   2.788   8.992   7.050
 9038POPC   C4A72546   2.784   9.002   7.350
 9038POPC   C1B72547   2.578   8.877   6.450
 9038POPC   C2B72548   2.514   8.809   6.750
 9038POPC   C3B72549   2.604   8.786   7.050
 9038POPC   C4B72550   2.604   8.791   7.350
 9039POPC   NC372551  13.632   5.823   5.550
 9039POPC   PO472552  13.579   5.856   5.850
 9039POPC   GL172553  13.619   5.834   6.150
 9039POPC   GL272554  13.760   5.985   6.150
 9039POPC   C1A72555  13.617   5.896   6.450
 9039POPC   D2A72556  13.667   5.894   6.750
 9039POPC   C3A72557  13.674   5.896   7.050
 9039POPC   C4A72558  13.648   5.917   7.350
 9039POPC   C1B72559  13.773   6.014   6.450
 9039POPC   C2B72560  13.848   6.072   6.750
 9039POPC   C3B72561  13.793   6.042   7.050
 9039POPC   C4B72562  13.768   6.009   7.350
 9040POPC   NC372563  22.203  39.224   5.550
 9040POPC   PO472564  22.125  39.205   5.850
 9040POPC   GL172565  22.180  39.257   6.150
 9040POPC   GL272566  21.995  39.192   6.150
 9040POPC   C1A72567  22.201  39.182   6.450
 9040POPC   D2A72568  22.188  39.232   6.750
 9040POPC   C3A72569  22.206  39.218   7.050
 9040POPC   C4A72570  22.202  39.247   7.350
 9040POPC   C1B72571  21.890  39.160   6.450
 9040POPC   C2B72572  21.949  39.194   6.750
 9040POPC   C3B72573  21.892  39.149   7.050
 9040POPC   C4B72574  21.879  39.205   7.350
 9041POPC   NC372575  18.297   6.608   5.550
 9041POPC   PO472576  18.318   6.688   5.850
 9041POPC   GL172577  18.305   6.634   6.150
 9041POPC   GL272578  18.288   6.783   6.150
 9041POPC   C1A72579  18.287   6.675   6.450
 9041POPC   D2A72580  18.255   6.623   6.750
 9041POPC   C3A72581  18.328   6.685   7.050
 9041POPC   C4A72582  18.297   6.694   7.350
 9041POPC   C1B72583  18.384   6.858   6.450
 9041POPC   C2B72584  18.359   6.865   6.750
 9041POPC   C3B72585  18.419   6.862   7.050
 9041POPC   C4B72586  18.394   6.913   7.350
 9042POPC   NC372587   8.924  28.408   5.550
 9042POPC   PO472588   8.960  28.342   5.850
 9042POPC   GL172589   8.989  28.406   6.150
 9042POPC   GL272590   9.005  28.244   6.150
 9042POPC   C1A72591   8.998  28.351   6.450
 9042POPC   D2A72592   8.948  28.413   6.750
 9042POPC   C3A72593   8.957  28.327   7.050
 9042POPC   C4A72594   8.958  28.350   7.350
 9042POPC   C1B72595   9.126  28.153   6.450
 9042POPC   C2B72596   9.034  28.178   6.750
 9042POPC   C3B72597   9.074  28.174   7.050
 9042POPC   C4B72598   9.064  28.125   7.350
 9043POPC   NC372599  22.182  21.355   5.550
 9043POPC   PO472600  22.135  21.354   5.850
 9043POPC   GL172601  22.172  21.419   6.150
 9043POPC   GL272602  22.112  21.508   6.150
 9043POPC   C1A72603  22.153  21.340   6.450
 9043POPC   D2A72604  22.144  21.427   6.750
 9043POPC   C3A72605  22.163  21.424   7.050
 9043POPC   C4A72606  22.158  21.435   7.350
 9043POPC   C1B72607  22.163  21.587   6.450
 9043POPC   C2B72608  22.195  21.670   6.750
 9043POPC   C3B72609  22.117  21.593   7.050
 9043POPC   C4B72610  22.118  21.664   7.350
 9044POPC   NC372611   8.224  27.553   5.550
 9044POPC   PO472612   8.238  27.595   5.850
 9044POPC   GL172613   8.226  27.558   6.150
 9044POPC   GL272614   8.059  27.627   6.150
 9044POPC   C1A72615   8.188  27.643   6.450
 9044POPC   D2A72616   8.158  27.578   6.750
 9044POPC   C3A72617   8.160  27.556   7.050
 9044POPC   C4A72618   8.208  27.635   7.350
 9044POPC   C1B72619   7.941  27.675   6.450
 9044POPC   C2B72620   7.978  27.629   6.750
 9044POPC   C3B72621   7.959  27.711   7.050
 9044POPC   C4B72622   7.910  27.673   7.350
 9045POPC   NC372623  43.861  18.317   5.550
 9045POPC   PO472624  43.850  18.283   5.850
 9045POPC   GL172625  43.923  18.234   6.150
 9045POPC   GL272626  43.855  18.165   6.150
 9045POPC   C1A72627  43.914  18.316   6.450
 9045POPC   D2A72628  43.903  18.316   6.750
 9045POPC   C3A72629  43.887  18.293   7.050
 9045POPC   C4A72630  43.872  18.277   7.350
 9045POPC   C1B72631  43.753  18.059   6.450
 9045POPC   C2B72632  43.743  18.018   6.750
 9045POPC   C3B72633  43.807  18.048   7.050
 9045POPC   C4B72634  43.811  18.105   7.350
 9046POPC   NC372635  40.014  19.074   5.550
 9046POPC   PO472636  39.972  19.049   5.850
 9046POPC   GL172637  39.996  19.084   6.150
 9046POPC   GL272638  39.930  19.187   6.150
 9046POPC   C1A72639  39.959  19.043   6.450
 9046POPC   D2A72640  40.056  19.020   6.750
 9046POPC   C3A72641  40.040  19.079   7.050
 9046POPC   C4A72642  40.052  19.052   7.350
 9046POPC   C1B72643  39.774  19.270   6.450
 9046POPC   C2B72644  39.826  19.276   6.750
 9046POPC   C3B72645  39.826  19.270   7.050
 9046POPC   C4B72646  39.821  19.242   7.350
 9047POPC   NC372647  11.303   4.274   5.550
 9047POPC   PO472648  11.292   4.284   5.850
 9047POPC   GL172649  11.348   4.329   6.150
 9047POPC   GL272650  11.146   4.239   6.150
 9047POPC   C1A72651  11.285   4.279   6.450
 9047POPC   D2A72652  11.260   4.296   6.750
 9047POPC   C3A72653  11.254   4.346   7.050
 9047POPC   C4A72654  11.297   4.317   7.350
 9047POPC   C1B72655  11.057   4.213   6.450
 9047POPC   C2B72656  11.095   4.224   6.750
 9047POPC   C3B72657  11.099   4.260   7.050
 9047POPC   C4B72658  11.021   4.217   7.350
 9048POPC   NC372659  33.027  11.341   5.550
 9048POPC   PO472660  33.024  11.331   5.850
 9048POPC   GL172661  32.994  11.332   6.150
 9048POPC   GL272662  32.951  11.418   6.150
 9048POPC   C1A72663  32.980  11.314   6.450
 9048POPC   D2A72664  33.048  11.259   6.750
 9048POPC   C3A72665  33.062  11.253   7.050
 9048POPC   C4A72666  32.999  11.340   7.350
 9048POPC   C1B72667  32.954  11.516   6.450
 9048POPC   C2B72668  32.952  11.585   6.750
 9048POPC   C3B72669  33.019  11.578   7.050
 9048POPC   C4B72670  32.990  11.508   7.350
 9049POPC   NC372671  13.666   3.526   5.550
 9049POPC   PO472672  13.608   3.524   5.850
 9049POPC   GL172673  13.601   3.578   6.150
 9049POPC   GL272674  13.701   3.435   6.150
 9049POPC   C1A72675  13.617   3.513   6.450
 9049POPC   D2A72676  13.609   3.560   6.750
 9049POPC   C3A72677  13.677   3.518   7.050
 9049POPC   C4A72678  13.609   3.513   7.350
 9049POPC   C1B72679  13.830   3.416   6.450
 9049POPC   C2B72680  13.849   3.325   6.750
 9049POPC   C3B72681  13.786   3.351   7.050
 9049POPC   C4B72682  13.834   3.399   7.350
 9050POPC   NC372683  21.394  21.386   5.550
 9050POPC   PO472684  21.401  21.405   5.850
 9050POPC   GL172685  21.367  21.337   6.150
 9050POPC   GL272686  21.467  21.402   6.150
 9050POPC   C1A72687  21.407  21.415   6.450
 9050POPC   D2A72688  21.359  21.370   6.750
 9050POPC   C3A72689  21.361  21.399   7.050
 9050POPC   C4A72690  21.353  21.393   7.350
 9050POPC   C1B72691  21.654  21.494   6.450
 9050POPC   C2B72692  21.642  21.519   6.750
 9050POPC   C3B72693  21.616  21.485   7.050
 9050POPC   C4B72694  21.639  21.449   7.350
 9051POPC   NC372695  41.532   7.381   5.550
 9051POPC   PO472696  41.516   7.422   5.850
 9051POPC   GL172697  41.588   7.470   6.150
 9051POPC   GL272698  41.483   7.329   6.150
 9051POPC   C1A72699  41.567   7.393   6.450
 9051POPC   D2A72700  41.521   7.433   6.750
 9051POPC   C3A72701  41.560   7.442   7.050
 9051POPC   C4A72702  41.607   7.407   7.350
 9051POPC   C1B72703  41.314   7.304   6.450
 9051POPC   C2B72704  41.323   7.301   6.750
 9051POPC   C3B72705  41.327   7.245   7.050
 9051POPC   C4B72706  41.383   7.264   7.350
 9052POPC   NC372707  31.423   6.644   5.550
 9052POPC   PO472708  31.427   6.650   5.850
 9052POPC   GL172709  31.518   6.606   6.150
 9052POPC   GL272710  31.574   6.619   6.150
 9052POPC   C1A72711  31.491   6.635   6.450
 9052POPC   D2A72712  31.522   6.653   6.750
 9052POPC   C3A72713  31.456   6.686   7.050
 9052POPC   C4A72714  31.485   6.643   7.350
 9052POPC   C1B72715  31.744   6.596   6.450
 9052POPC   C2B72716  31.696   6.570   6.750
 9052POPC   C3B72717  31.677   6.567   7.050
 9052POPC   C4B72718  31.733   6.550   7.350
 9053POPC   NC372719  41.512  43.888   5.550
 9053POPC   PO472720  41.558  43.888   5.850
 9053POPC   GL172721  41.557  43.919   6.150
 9053POPC   GL272722  41.536  44.023   6.150
 9053POPC   C1A72723  41.516  43.841   6.450
 9053POPC   D2A72724  41.561  43.847   6.750
 9053POPC   C3A72725  41.565  43.923   7.050
 9053POPC   C4A72726  41.595  43.885   7.350
 9053POPC   C1B72727  41.450  44.135   6.450
 9053POPC   C2B72728  41.394  44.133   6.750
 9053POPC   C3B72729  41.390  44.101   7.050
 9053POPC   C4B72730  41.470  44.124   7.350
 9054POPC   NC372731  41.517  28.355   5.550
 9054POPC   PO472732  41.585  28.328   5.850
 9054POPC   GL172733  41.549  28.416   6.150
 9054POPC   GL272734  41.685  28.336   6.150
 9054POPC   C1A72735  41.540  28.320   6.450
 9054POPC   D2A72736  41.538  28.328   6.750
 9054POPC   C3A72737  41.509  28.354   7.050
 9054POPC   C4A72738  41.576  28.407   7.350
 9054POPC   C1B72739  41.763  28.283   6.450
 9054POPC   C2B72740  41.844  28.287   6.750
 9054POPC   C3B72741  41.831  28.324   7.050
 9054POPC   C4B72742  41.749  28.336   7.350
 9055POPC   NC372743   4.323  23.717   5.550
 9055POPC   PO472744   4.289  23.688   5.850
 9055POPC   GL172745   4.366  23.700   6.150
 9055POPC   GL272746   4.163  23.685   6.150
 9055POPC   C1A72747   4.349  23.709   6.450
 9055POPC   D2A72748   4.268  23.704   6.750
 9055POPC   C3A72749   4.352  23.725   7.050
 9055POPC   C4A72750   4.282  23.694   7.350
 9055POPC   C1B72751   4.125  23.641   6.450
 9055POPC   C2B72752   4.059  23.604   6.750
 9055POPC   C3B72753   4.105  23.605   7.050
 9055POPC   C4B72754   4.063  23.641   7.350
 9056POPC   NC372755  16.773  23.736   5.550
 9056POPC   PO472756  16.716  23.683   5.850
 9056POPC   GL172757  16.689  23.684   6.150
 9056POPC   GL272758  16.831  23.705   6.150
 9056POPC   C1A72759  16.684  23.762   6.450
 9056POPC   D2A72760  16.750  23.700   6.750
 9056POPC   C3A72761  16.713  23.715   7.050
 9056POPC   C4A72762  16.726  23.718   7.350
 9056POPC   C1B72763  16.936  23.707   6.450
 9056POPC   C2B72764  16.973  23.684   6.750
 9056POPC   C3B72765  17.019  23.700   7.050
 9056POPC   C4B72766  17.008  23.715   7.350
 9057POPC   NC372767  25.276  44.665   5.550
 9057POPC   PO472768  25.228  44.697   5.850
 9057POPC   GL172769  25.216  44.710   6.150
 9057POPC   GL272770  25.168  44.696   6.150
 9057POPC   C1A72771  25.235  44.704   6.450
 9057POPC   D2A72772  25.258  44.680   6.750
 9057POPC   C3A72773  25.271  44.674   7.050
 9057POPC   C4A72774  25.267  44.710   7.350
 9057POPC   C1B72775  25.034  44.708   6.450
 9057POPC   C2B72776  25.014  44.705   6.750
 9057POPC   C3B72777  25.009  44.732   7.050
 9057POPC   C4B72778  25.005  44.685   7.350
 9058POPC   NC372779  33.780  29.144   5.550
 9058POPC   PO472780  33.796  29.095   5.850
 9058POPC   GL172781  33.796  29.130   6.150
 9058POPC   GL272782  33.802  29.254   6.150
 9058POPC   C1A72783  33.818  29.137   6.450
 9058POPC   D2A72784  33.836  29.153   6.750
 9058POPC   C3A72785  33.810  29.118   7.050
 9058POPC   C4A72786  33.765  29.120   7.350
 9058POPC   C1B72787  33.830  29.367   6.450
 9058POPC   C2B72788  33.909  29.407   6.750
 9058POPC   C3B72789  33.877  29.411   7.050
 9058POPC   C4B72790  33.823  29.368   7.350
 9059POPC   NC372791  39.192   9.781   5.550
 9059POPC   PO472792  39.277   9.759   5.850
 9059POPC   GL172793  39.233   9.757   6.150
 9059POPC   GL272794  39.162   9.649   6.150
 9059POPC   C1A72795  39.201   9.703   6.450
 9059POPC   D2A72796  39.250   9.774   6.750
 9059POPC   C3A72797  39.193   9.763   7.050
 9059POPC   C4A72798  39.259   9.735   7.350
 9059POPC   C1B72799  39.070   9.564   6.450
 9059POPC   C2B72800  39.075   9.578   6.750
 9059POPC   C3B72801  39.025   9.591   7.050
 9059POPC   C4B72802  39.101   9.532   7.350
 9060POPC   NC372803  33.794  16.758   5.550
 9060POPC   PO472804  33.830  16.758   5.850
 9060POPC   GL172805  33.769  16.730   6.150
 9060POPC   GL272806  33.754  16.801   6.150
 9060POPC   C1A72807  33.803  16.720   6.450
 9060POPC   D2A72808  33.821  16.773   6.750
 9060POPC   C3A72809  33.802  16.723   7.050
 9060POPC   C4A72810  33.807  16.694   7.350
 9060POPC   C1B72811  33.591  16.951   6.450
 9060POPC   C2B72812  33.593  16.961   6.750
 9060POPC   C3B72813  33.673  16.915   7.050
 9060POPC   C4B72814  33.635  16.889   7.350
 9061POPC   NC372815  19.872  40.054   5.550
 9061POPC   PO472816  19.806  40.016   5.850
 9061POPC   GL172817  19.856  40.014   6.150
 9061POPC   GL272818  19.898  40.091   6.150
 9061POPC   C1A72819  19.851  39.960   6.450
 9061POPC   D2A72820  19.837  39.989   6.750
 9061POPC   C3A72821  19.852  40.002   7.050
 9061POPC   C4A72822  19.787  39.965   7.350
 9061POPC   C1B72823  19.913  40.204   6.450
 9061POPC   C2B72824  19.914  40.222   6.750
 9061POPC   C3B72825  19.910  40.252   7.050
 9061POPC   C4B72826  19.909  40.230   7.350
 9062POPC   NC372827   7.412   5.918   5.550
 9062POPC   PO472828   7.454   5.848   5.850
 9062POPC   GL172829   7.380   5.850   6.150
 9062POPC   GL272830   7.586   5.866   6.150
 9062POPC   C1A72831   7.454   5.894   6.450
 9062POPC   D2A72832   7.453   5.827   6.750
 9062POPC   C3A72833   7.407   5.884   7.050
 9062POPC   C4A72834   7.430   5.879   7.350
 9062POPC   C1B72835   7.675   5.869   6.450
 9062POPC   C2B72836   7.664   5.887   6.750
 9062POPC   C3B72837   7.695   5.861   7.050
 9062POPC   C4B72838   7.654   5.880   7.350
 9063POPC   NC372839  18.321  36.084   5.550
 9063POPC   PO472840  18.243  36.138   5.850
 9063POPC   GL172841  18.260  36.169   6.150
 9063POPC   GL272842  18.375  36.043   6.150
 9063POPC   C1A72843  18.315  36.138   6.450
 9063POPC   D2A72844  18.236  36.121   6.750
 9063POPC   C3A72845  18.295  36.169   7.050
 9063POPC   C4A72846  18.324  36.138   7.350
 9063POPC   C1B72847  18.462  35.957   6.450
 9063POPC   C2B72848  18.429  35.899   6.750
 9063POPC   C3B72849  18.396  35.879   7.050
 9063POPC   C4B72850  18.396  35.877   7.350
 9064POPC   NC372851   0.441  12.104   5.550
 9064POPC   PO472852   0.428  12.071   5.850
 9064POPC   GL172853   0.388  12.032   6.150
 9064POPC   GL272854   0.368  12.003   6.150
 9064POPC   C1A72855   0.404  12.069   6.450
 9064POPC   D2A72856   0.486  12.102   6.750
 9064POPC   C3A72857   0.394  12.121   7.050
 9064POPC   C4A72858   0.439  12.041   7.350
 9064POPC   C1B72859   0.284  11.852   6.450
 9064POPC   C2B72860   0.313  11.894   6.750
 9064POPC   C3B72861   0.283  11.870   7.050
 9064POPC   C4B72862   0.305  11.900   7.350
 9065POPC   NC372863  37.700  25.262   5.550
 9065POPC   PO472864  37.655  25.284   5.850
 9065POPC   GL172865  37.677  25.259   6.150
 9065POPC   GL272866  37.611  25.128   6.150
 9065POPC   C1A72867  37.715  25.240   6.450
 9065POPC   D2A72868  37.660  25.237   6.750
 9065POPC   C3A72869  37.675  25.280   7.050
 9065POPC   C4A72870  37.698  25.308   7.350
 9065POPC   C1B72871  37.532  25.077   6.450
 9065POPC   C2B72872  37.557  25.023   6.750
 9065POPC   C3B72873  37.601  25.004   7.050
 9065POPC   C4B72874  37.586  25.026   7.350
 9066POPC   NC372875  42.311  38.437   5.550
 9066POPC   PO472876  42.300  38.462   5.850
 9066POPC   GL172877  42.312  38.504   6.150
 9066POPC   GL272878  42.398  38.604   6.150
 9066POPC   C1A72879  42.312  38.409   6.450
 9066POPC   D2A72880  42.311  38.497   6.750
 9066POPC   C3A72881  42.364  38.486   7.050
 9066POPC   C4A72882  42.303  38.408   7.350
 9066POPC   C1B72883  42.470  38.702   6.450
 9066POPC   C2B72884  42.391  38.707   6.750
 9066POPC   C3B72885  42.463  38.691   7.050
 9066POPC   C4B72886  42.427  38.661   7.350
 9067POPC   NC372887   8.970  29.108   5.550
 9067POPC   PO472888   9.000  29.191   5.850
 9067POPC   GL172889   9.006  29.184   6.150
 9067POPC   GL272890   9.008  29.001   6.150
 9067POPC   C1A72891   8.933  29.182   6.450
 9067POPC   D2A72892   8.970  29.118   6.750
 9067POPC   C3A72893   8.933  29.126   7.050
 9067POPC   C4A72894   8.986  29.178   7.350
 9067POPC   C1B72895   9.053  28.864   6.450
 9067POPC   C2B72896   9.063  28.955   6.750
 9067POPC   C3B72897   9.009  28.958   7.050
 9067POPC   C4B72898   9.082  28.866   7.350
 9068POPC   NC372899  28.320  36.953   5.550
 9068POPC   PO472900  28.358  36.930   5.850
 9068POPC   GL172901  28.352  36.921   6.150
 9068POPC   GL272902  28.308  36.739   6.150
 9068POPC   C1A72903  28.363  36.891   6.450
 9068POPC   D2A72904  28.381  36.860   6.750
 9068POPC   C3A72905  28.368  36.869   7.050
 9068POPC   C4A72906  28.402  36.930   7.350
 9068POPC   C1B72907  28.325  36.643   6.450
 9068POPC   C2B72908  28.303  36.633   6.750
 9068POPC   C3B72909  28.348  36.656   7.050
 9068POPC   C4B72910  28.340  36.674   7.350
 9069POPC   NC372911  31.453  18.239   5.550
 9069POPC   PO472912  31.487  18.325   5.850
 9069POPC   GL172913  31.479  18.236   6.150
 9069POPC   GL272914  31.570  18.236   6.150
 9069POPC   C1A72915  31.491  18.327   6.450
 9069POPC   D2A72916  31.490  18.247   6.750
 9069POPC   C3A72917  31.471  18.325   7.050
 9069POPC   C4A72918  31.443  18.281   7.350
 9069POPC   C1B72919  31.648  18.113   6.450
 9069POPC   C2B72920  31.641  18.165   6.750
 9069POPC   C3B72921  31.690  18.176   7.050
 9069POPC   C4B72922  31.667  18.132   7.350
 9070POPC   NC372923  17.508  33.793   5.550
 9070POPC   PO472924  17.501  33.810   5.850
 9070POPC   GL172925  17.522  33.775   6.150
 9070POPC   GL272926  17.374  33.727   6.150
 9070POPC   C1A72927  17.482  33.849   6.450
 9070POPC   D2A72928  17.503  33.831   6.750
 9070POPC   C3A72929  17.502  33.823   7.050
 9070POPC   C4A72930  17.554  33.806   7.350
 9070POPC   C1B72931  17.306  33.691   6.450
 9070POPC   C2B72932  17.358  33.604   6.750
 9070POPC   C3B72933  17.342  33.666   7.050
 9070POPC   C4B72934  17.313  33.594   7.350
 9071POPC   NC372935   1.165  19.066   5.550
 9071POPC   PO472936   1.263  19.074   5.850
 9071POPC   GL172937   1.193  19.032   6.150
 9071POPC   GL272938   1.355  19.130   6.150
 9071POPC   C1A72939   1.168  19.078   6.450
 9071POPC   D2A72940   1.234  19.021   6.750
 9071POPC   C3A72941   1.206  19.092   7.050
 9071POPC   C4A72942   1.190  19.023   7.350
 9071POPC   C1B72943   1.409  19.251   6.450
 9071POPC   C2B72944   1.389  19.183   6.750
 9071POPC   C3B72945   1.369  19.215   7.050
 9071POPC   C4B72946   1.387  19.171   7.350
 9072POPC   NC372947  43.100  38.463   5.550
 9072POPC   PO472948  43.136  38.435   5.850
 9072POPC   GL172949  43.070  38.488   6.150
 9072POPC   GL272950  43.022  38.601   6.150
 9072POPC   C1A72951  43.160  38.501   6.450
 9072POPC   D2A72952  43.134  38.501   6.750
 9072POPC   C3A72953  43.127  38.437   7.050
 9072POPC   C4A72954  43.152  38.480   7.350
 9072POPC   C1B72955  42.998  38.642   6.450
 9072POPC   C2B72956  42.946  38.663   6.750
 9072POPC   C3B72957  42.981  38.697   7.050
 9072POPC   C4B72958  42.942  38.717   7.350
 9073POPC   NC372959  12.823  40.050   5.550
 9073POPC   PO472960  12.844  40.049   5.850
 9073POPC   GL172961  12.899  40.035   6.150
 9073POPC   GL272962  12.730  40.048   6.150
 9073POPC   C1A72963  12.834  40.024   6.450
 9073POPC   D2A72964  12.843  40.046   6.750
 9073POPC   C3A72965  12.849  39.957   7.050
 9073POPC   C4A72966  12.850  40.017   7.350
 9073POPC   C1B72967  12.611  40.034   6.450
 9073POPC   C2B72968  12.577  40.009   6.750
 9073POPC   C3B72969  12.614  40.003   7.050
 9073POPC   C4B72970  12.571  40.014   7.350
 9074POPC   NC372971   1.993  19.053   5.550
 9074POPC   PO472972   1.957  19.095   5.850
 9074POPC   GL172973   2.021  19.062   6.150
 9074POPC   GL272974   2.012  18.945   6.150
 9074POPC   C1A72975   1.948  19.046   6.450
 9074POPC   D2A72976   1.957  19.072   6.750
 9074POPC   C3A72977   1.949  19.075   7.050
 9074POPC   C4A72978   2.013  19.043   7.350
 9074POPC   C1B72979   2.166  18.861   6.450
 9074POPC   C2B72980   2.107  18.835   6.750
 9074POPC   C3B72981   2.161  18.830   7.050
 9074POPC   C4B72982   2.086  18.811   7.350
 9075POPC   NC372983  42.363  43.110   5.550
 9075POPC   PO472984  42.364  43.151   5.850
 9075POPC   GL172985  42.288  43.108   6.150
 9075POPC   GL272986  42.491  43.073   6.150
 9075POPC   C1A72987  42.373  43.092   6.450
 9075POPC   D2A72988  42.359  43.136   6.750
 9075POPC   C3A72989  42.373  43.129   7.050
 9075POPC   C4A72990  42.330  43.124   7.350
 9075POPC   C1B72991  42.575  43.155   6.450
 9075POPC   C2B72992  42.545  43.091   6.750
 9075POPC   C3B72993  42.598  43.119   7.050
 9075POPC   C4B72994  42.598  43.103   7.350
 9076POPC   NC372995  33.765  33.761   5.550
 9076POPC   PO472996  33.786  33.756   5.850
 9076POPC   GL172997  33.778  33.790   6.150
 9076POPC   GL272998  33.719  33.892   6.150
 9076POPC   C1A72999  33.845  33.821   6.450
 9076POPC   D2A73000  33.835  33.804   6.750
 9076POPC   C3A73001  33.829  33.757   7.050
 9076POPC   C4A73002  33.848  33.824   7.350
 9076POPC   C1B73003  33.699  33.958   6.450
 9076POPC   C2B73004  33.633  33.974   6.750
 9076POPC   C3B73005  33.643  33.981   7.050
 9076POPC   C4B73006  33.657  34.025   7.350
 9077POPC   NC373007  42.373  12.070   5.550
 9077POPC   PO473008  42.304  12.027   5.850
 9077POPC   GL173009  42.376  12.072   6.150
 9077POPC   GL273010  42.296  12.163   6.150
 9077POPC   C1A73011  42.363  12.030   6.450
 9077POPC   D2A73012  42.300  12.119   6.750
 9077POPC   C3A73013  42.349  12.112   7.050
 9077POPC   C4A73014  42.328  12.125   7.350
 9077POPC   C1B73015  42.181  12.275   6.450
 9077POPC   C2B73016  42.190  12.261   6.750
 9077POPC   C3B73017  42.159  12.287   7.050
 9077POPC   C4B73018  42.200  12.271   7.350
 9078POPC   NC373019   3.514   1.242   5.550
 9078POPC   PO473020   3.517   1.228   5.850
 9078POPC   GL173021   3.511   1.231   6.150
 9078POPC   GL273022   3.696   1.219   6.150
 9078POPC   C1A73023   3.533   1.168   6.450
 9078POPC   D2A73024   3.557   1.253   6.750
 9078POPC   C3A73025   3.508   1.223   7.050
 9078POPC   C4A73026   3.564   1.176   7.350
 9078POPC   C1B73027   3.758   1.214   6.450
 9078POPC   C2B73028   3.781   1.194   6.750
 9078POPC   C3B73029   3.817   1.221   7.050
 9078POPC   C4B73030   3.815   1.200   7.350
 9079POPC   NC373031  20.574   9.777   5.550
 9079POPC   PO473032  20.577   9.734   5.850
 9079POPC   GL173033  20.622   9.749   6.150
 9079POPC   GL273034  20.624   9.646   6.150
 9079POPC   C1A73035  20.646   9.745   6.450
 9079POPC   D2A73036  20.585   9.763   6.750
 9079POPC   C3A73037  20.596   9.790   7.050
 9079POPC   C4A73038  20.578   9.714   7.350
 9079POPC   C1B73039  20.492   9.527   6.450
 9079POPC   C2B73040  20.568   9.470   6.750
 9079POPC   C3B73041  20.501   9.530   7.050
 9079POPC   C4B73042  20.497   9.465   7.350
 9080POPC   NC373043  40.741   9.722   5.550
 9080POPC   PO473044  40.771   9.787   5.850
 9080POPC   GL173045  40.770   9.714   6.150
 9080POPC   GL273046  40.769   9.877   6.150
 9080POPC   C1A73047  40.766   9.795   6.450
 9080POPC   D2A73048  40.823   9.704   6.750
 9080POPC   C3A73049  40.789   9.794   7.050
 9080POPC   C4A73050  40.789   9.740   7.350
 9080POPC   C1B73051  40.626   9.949   6.450
 9080POPC   C2B73052  40.678   9.948   6.750
 9080POPC   C3B73053  40.675   9.980   7.050
 9080POPC   C4B73054  40.682  10.000   7.350
 9081POPC   NC373055  40.041  28.351   5.550
 9081POPC   PO473056  39.958  28.321   5.850
 9081POPC   GL173057  40.025  28.395   6.150
 9081POPC   GL273058  39.894  28.350   6.150
 9081POPC   C1A73059  40.054  28.352   6.450
 9081POPC   D2A73060  40.032  28.386   6.750
 9081POPC   C3A73061  40.002  28.349   7.050
 9081POPC   C4A73062  40.001  28.346   7.350
 9081POPC   C1B73063  39.782  28.244   6.450
 9081POPC   C2B73064  39.754  28.307   6.750
 9081POPC   C3B73065  39.789  28.276   7.050
 9081POPC   C4B73066  39.794  28.220   7.350
 9082POPC   NC373067  21.341  20.593   5.550
 9082POPC   PO473068  21.408  20.580   5.850
 9082POPC   GL173069  21.368  20.608   6.150
 9082POPC   GL273070  21.447  20.754   6.150
 9082POPC   C1A73071  21.408  20.650   6.450
 9082POPC   D2A73072  21.349  20.562   6.750
 9082POPC   C3A73073  21.412  20.592   7.050
 9082POPC   C4A73074  21.424  20.564   7.350
 9082POPC   C1B73075  21.481  20.823   6.450
 9082POPC   C2B73076  21.480  20.841   6.750
 9082POPC   C3B73077  21.508  20.793   7.050
 9082POPC   C4B73078  21.460  20.800   7.350
 9083POPC   NC373079  31.521  27.627   5.550
 9083POPC   PO473080  31.510  27.583   5.850
 9083POPC   GL173081  31.441  27.593   6.150
 9083POPC   GL273082  31.577  27.468   6.150
 9083POPC   C1A73083  31.487  27.614   6.450
 9083POPC   D2A73084  31.430  27.592   6.750
 9083POPC   C3A73085  31.427  27.576   7.050
 9083POPC   C4A73086  31.439  27.580   7.350
 9083POPC   C1B73087  31.641  27.337   6.450
 9083POPC   C2B73088  31.609  27.372   6.750
 9083POPC   C3B73089  31.598  27.356   7.050
 9083POPC   C4B73090  31.591  27.422   7.350
 9084POPC   NC373091  28.392  38.464   5.550
 9084POPC   PO473092  28.372  38.422   5.850
 9084POPC   GL173093  28.362  38.465   6.150
 9084POPC   GL273094  28.335  38.624   6.150
 9084POPC   C1A73095  28.355  38.430   6.450
 9084POPC   D2A73096  28.326  38.429   6.750
 9084POPC   C3A73097  28.357  38.429   7.050
 9084POPC   C4A73098  28.334  38.408   7.350
 9084POPC   C1B73099  28.369  38.693   6.450
 9084POPC   C2B73100  28.352  38.653   6.750
 9084POPC   C3B73101  28.307  38.719   7.050
 9084POPC   C4B73102  28.297  38.741   7.350
 9085POPC   NC373103  43.841   0.392   5.550
 9085POPC   PO473104  43.913   0.459   5.850
 9085POPC   GL173105  43.888   0.388   6.150
 9085POPC   GL273106  44.011   0.504   6.150
 9085POPC   C1A73107  43.901   0.484   6.450
 9085POPC   D2A73108  43.936   0.448   6.750
 9085POPC   C3A73109  43.861   0.401   7.050
 9085POPC   C4A73110  43.906   0.467   7.350
 9085POPC   C1B73111  44.170   0.506   6.450
 9085POPC   C2B73112  44.141   0.520   6.750
 9085POPC   C3B73113  44.159   0.516   7.050
 9085POPC   C4B73114  44.086   0.534   7.350
 9086POPC   NC373115  12.125  43.859   5.550
 9086POPC   PO473116  12.093  43.912   5.850
 9086POPC   GL173117  12.081  43.924   6.150
 9086POPC   GL273118  12.209  43.995   6.150
 9086POPC   C1A73119  12.088  43.901   6.450
 9086POPC   D2A73120  12.070  43.841   6.750
 9086POPC   C3A73121  12.116  43.918   7.050
 9086POPC   C4A73122  12.125  43.912   7.350
 9086POPC   C1B73123  12.321  43.979   6.450
 9086POPC   C2B73124  12.286  43.982   6.750
 9086POPC   C3B73125  12.290  44.055   7.050
 9086POPC   C4B73126  12.261  44.013   7.350
 9087POPC   NC373127  18.313   7.452   5.550
 9087POPC   PO473128  18.271   7.441   5.850
 9087POPC   GL173129  18.254   7.399   6.150
 9087POPC   GL273130  18.182   7.405   6.150
 9087POPC   C1A73131  18.258   7.374   6.450
 9087POPC   D2A73132  18.237   7.382   6.750
 9087POPC   C3A73133  18.307   7.440   7.050
 9087POPC   C4A73134  18.260   7.452   7.350
 9087POPC   C1B73135  17.984   7.376   6.450
 9087POPC   C2B73136  18.038   7.392   6.750
 9087POPC   C3B73137  17.984   7.382   7.050
 9087POPC   C4B73138  18.015   7.465   7.350
 9088POPC   NC373139  17.537   2.716   5.550
 9088POPC   PO473140  17.479   2.794   5.850
 9088POPC   GL173141  17.524   2.790   6.150
 9088POPC   GL273142  17.603   2.621   6.150
 9088POPC   C1A73143  17.484   2.774   6.450
 9088POPC   D2A73144  17.542   2.728   6.750
 9088POPC   C3A73145  17.467   2.765   7.050
 9088POPC   C4A73146  17.474   2.794   7.350
 9088POPC   C1B73147  17.684   2.588   6.450
 9088POPC   C2B73148  17.627   2.551   6.750
 9088POPC   C3B73149  17.630   2.523   7.050
 9088POPC   C4B73150  17.624   2.591   7.350
 9089POPC   NC373151  18.238   8.949   5.550
 9089POPC   PO473152  18.277   8.928   5.850
 9089POPC   GL173153  18.256   8.954   6.150
 9089POPC   GL273154  18.440   8.976   6.150
 9089POPC   C1A73155  18.290   8.997   6.450
 9089POPC   D2A73156  18.295   8.954   6.750
 9089POPC   C3A73157  18.287   8.925   7.050
 9089POPC   C4A73158  18.278   8.970   7.350
 9089POPC   C1B73159  18.501   8.892   6.450
 9089POPC   C2B73160  18.524   8.964   6.750
 9089POPC   C3B73161  18.491   8.916   7.050
 9089POPC   C4B73162  18.512   8.920   7.350
 9090POPC   NC373163  33.019  33.799   5.550
 9090POPC   PO473164  33.047  33.805   5.850
 9090POPC   GL173165  33.055  33.821   6.150
 9090POPC   GL273166  32.911  33.781   6.150
 9090POPC   C1A73167  33.063  33.808   6.450
 9090POPC   D2A73168  33.045  33.789   6.750
 9090POPC   C3A73169  33.005  33.771   7.050
 9090POPC   C4A73170  33.072  33.751   7.350
 9090POPC   C1B73171  32.727  33.786   6.450
 9090POPC   C2B73172  32.805  33.845   6.750
 9090POPC   C3B73173  32.751  33.759   7.050
 9090POPC   C4B73174  32.816  33.853   7.350
 9091POPC   NC373175  36.149   5.835   5.550
 9091POPC   PO473176  36.105   5.911   5.850
 9091POPC   GL173177  36.101   5.860   6.150
 9091POPC   GL273178  36.020   5.955   6.150
 9091POPC   C1A73179  36.125   5.832   6.450
 9091POPC   D2A73180  36.169   5.873   6.750
 9091POPC   C3A73181  36.111   5.862   7.050
 9091POPC   C4A73182  36.172   5.862   7.350
 9091POPC   C1B73183  36.023   6.121   6.450
 9091POPC   C2B73184  35.948   6.084   6.750
 9091POPC   C3B73185  35.989   6.130   7.050
 9091POPC   C4B73186  36.007   6.067   7.350
 9092POPC   NC373187  32.263  12.092   5.550
 9092POPC   PO473188  32.292  12.074   5.850
 9092POPC   GL173189  32.205  12.080   6.150
 9092POPC   GL273190  32.332  12.160   6.150
 9092POPC   C1A73191  32.259  12.096   6.450
 9092POPC   D2A73192  32.279  12.104   6.750
 9092POPC   C3A73193  32.222  12.112   7.050
 9092POPC   C4A73194  32.286  12.063   7.350
 9092POPC   C1B73195  32.491  12.189   6.450
 9092POPC   C2B73196  32.451  12.181   6.750
 9092POPC   C3B73197  32.475  12.165   7.050
 9092POPC   C4B73198  32.466  12.183   7.350
 9093POPC   NC373199  30.711   1.996   5.550
 9093POPC   PO473200  30.739   1.982   5.850
 9093POPC   GL173201  30.736   1.962   6.150
 9093POPC   GL273202  30.749   1.864   6.150
 9093POPC   C1A73203  30.714   1.972   6.450
 9093POPC   D2A73204  30.730   1.991   6.750
 9093POPC   C3A73205  30.711   2.025   7.050
 9093POPC   C4A73206  30.665   1.996   7.350
 9093POPC   C1B73207  30.679   1.717   6.450
 9093POPC   C2B73208  30.706   1.789   6.750
 9093POPC   C3B73209  30.768   1.784   7.050
 9093POPC   C4B73210  30.768   1.754   7.350
 9094POPC   NC373211  43.874  20.602   5.550
 9094POPC   PO473212  43.905  20.621   5.850
 9094POPC   GL173213  43.873  20.634   6.150
 9094POPC   GL273214  43.815  20.549   6.150
 9094POPC   C1A73215  43.880  20.598   6.450
 9094POPC   D2A73216  43.850  20.608   6.750
 9094POPC   C3A73217  43.858  20.602   7.050
 9094POPC   C4A73218  43.895  20.605   7.350
 9094POPC   C1B73219  43.658  20.530   6.450
 9094POPC   C2B73220  43.684  20.546   6.750
 9094POPC   C3B73221  43.643  20.497   7.050
 9094POPC   C4B73222  43.631  20.514   7.350
 9095POPC   NC373223  32.991  25.303   5.550
 9095POPC   PO473224  33.004  25.271   5.850
 9095POPC   GL173225  32.984  25.226   6.150
 9095POPC   GL273226  33.072  25.427   6.150
 9095POPC   C1A73227  33.061  25.235   6.450
 9095POPC   D2A73228  33.050  25.300   6.750
 9095POPC   C3A73229  33.001  25.279   7.050
 9095POPC   C4A73230  32.995  25.288   7.350
 9095POPC   C1B73231  33.107  25.536   6.450
 9095POPC   C2B73232  33.133  25.509   6.750
 9095POPC   C3B73233  33.139  25.483   7.050
 9095POPC   C4B73234  33.128  25.503   7.350
 9096POPC   NC373235  17.471  31.445   5.550
 9096POPC   PO473236  17.522  31.492   5.850
 9096POPC   GL173237  17.475  31.464   6.150
 9096POPC   GL273238  17.596  31.491   6.150
 9096POPC   C1A73239  17.541  31.471   6.450
 9096POPC   D2A73240  17.493  31.490   6.750
 9096POPC   C3A73241  17.527  31.510   7.050
 9096POPC   C4A73242  17.492  31.424   7.350
 9096POPC   C1B73243  17.730  31.416   6.450
 9096POPC   C2B73244  17.742  31.481   6.750
 9096POPC   C3B73245  17.724  31.394   7.050
 9096POPC   C4B73246  17.706  31.468   7.350
 9097POPC   NC373247  19.038  31.508   5.550
 9097POPC   PO473248  19.021  31.424   5.850
 9097POPC   GL173249  19.087  31.516   6.150
 9097POPC   GL273250  19.086  31.643   6.150
 9097POPC   C1A73251  19.038  31.443   6.450
 9097POPC   D2A73252  19.035  31.435   6.750
 9097POPC   C3A73253  19.022  31.503   7.050
 9097POPC   C4A73254  19.107  31.490   7.350
 9097POPC   C1B73255  19.118  31.704   6.450
 9097POPC   C2B73256  19.070  31.715   6.750
 9097POPC   C3B73257  19.138  31.680   7.050
 9097POPC   C4B73258  19.091  31.700   7.350
 9098POPC   NC373259  19.787  33.049   5.550
 9098POPC   PO473260  19.865  33.033   5.850
 9098POPC   GL173261  19.869  33.020   6.150
 9098POPC   GL273262  19.996  33.021   6.150
 9098POPC   C1A73263  19.827  33.072   6.450
 9098POPC   D2A73264  19.842  32.976   6.750
 9098POPC   C3A73265  19.861  33.041   7.050
 9098POPC   C4A73266  19.810  32.978   7.350
 9098POPC   C1B73267  20.115  32.885   6.450
 9098POPC   C2B73268  20.071  32.890   6.750
 9098POPC   C3B73269  20.084  32.893   7.050
 9098POPC   C4B73270  20.091  32.934   7.350
 9099POPC   NC373271  12.853  12.861   5.550
 9099POPC   PO473272  12.873  12.804   5.850
 9099POPC   GL173273  12.822  12.878   6.150
 9099POPC   GL273274  12.989  12.879   6.150
 9099POPC   C1A73275  12.811  12.896   6.450
 9099POPC   D2A73276  12.811  12.818   6.750
 9099POPC   C3A73277  12.873  12.804   7.050
 9099POPC   C4A73278  12.868  12.870   7.350
 9099POPC   C1B73279  13.086  12.955   6.450
 9099POPC   C2B73280  13.084  12.873   6.750
 9099POPC   C3B73281  13.125  12.931   7.050
 9099POPC   C4B73282  13.074  12.872   7.350
 9100POPC   NC373283  12.871  14.359   5.550
 9100POPC   PO473284  12.855  14.447   5.850
 9100POPC   GL173285  12.861  14.361   6.150
 9100POPC   GL273286  12.805  14.364   6.150
 9100POPC   C1A73287  12.837  14.404   6.450
 9100POPC   D2A73288  12.846  14.380   6.750
 9100POPC   C3A73289  12.815  14.413   7.050
 9100POPC   C4A73290  12.828  14.364   7.350
 9100POPC   C1B73291  12.683  14.212   6.450
 9100POPC   C2B73292  12.705  14.259   6.750
 9100POPC   C3B73293  12.714  14.252   7.050
 9100POPC   C4B73294  12.678  14.209   7.350
 9101POPC   NC373295   5.915  12.044   5.550
 9101POPC   PO473296   5.915  12.102   5.850
 9101POPC   GL173297   5.896  12.070   6.150
 9101POPC   GL273298   5.817  12.160   6.150
 9101POPC   C1A73299   5.823  12.049   6.450
 9101POPC   D2A73300   5.891  12.079   6.750
 9101POPC   C3A73301   5.912  12.103   7.050
 9101POPC   C4A73302   5.878  12.044   7.350
 9101POPC   C1B73303   5.825  12.321   6.450
 9101POPC   C2B73304   5.732  12.356   6.750
 9101POPC   C3B73305   5.751  12.338   7.050
 9101POPC   C4B73306   5.776  12.327   7.350
 9102POPC   NC373307  27.593  25.309   5.550
 9102POPC   PO473308  27.567  25.217   5.850
 9102POPC   GL173309  27.551  25.236   6.150
 9102POPC   GL273310  27.673  25.302   6.150
 9102POPC   C1A73311  27.616  25.276   6.450
 9102POPC   D2A73312  27.586  25.235   6.750
 9102POPC   C3A73313  27.614  25.271   7.050
 9102POPC   C4A73314  27.555  25.315   7.350
 9102POPC   C1B73315  27.812  25.311   6.450
 9102POPC   C2B73316  27.843  25.355   6.750
 9102POPC   C3B73317  27.819  25.319   7.050
 9102POPC   C4B73318  27.842  25.364   7.350
 9103POPC   NC373319  20.629   6.621   5.550
 9103POPC   PO473320  20.648   6.626   5.850
 9103POPC   GL173321  20.624   6.612   6.150
 9103POPC   GL273322  20.720   6.555   6.150
 9103POPC   C1A73323  20.641   6.599   6.450
 9103POPC   D2A73324  20.630   6.609   6.750
 9103POPC   C3A73325  20.587   6.613   7.050
 9103POPC   C4A73326  20.574   6.601   7.350
 9103POPC   C1B73327  20.822   6.528   6.450
 9103POPC   C2B73328  20.792   6.528   6.750
 9103POPC   C3B73329  20.797   6.517   7.050
 9103POPC   C4B73330  20.797   6.593   7.350
 9104POPC   NC373331   4.347  20.610   5.550
 9104POPC   PO473332   4.313  20.617   5.850
 9104POPC   GL173333   4.291  20.639   6.150
 9104POPC   GL273334   4.372  20.687   6.150
 9104POPC   C1A73335   4.341  20.647   6.450
 9104POPC   D2A73336   4.305  20.624   6.750
 9104POPC   C3A73337   4.299  20.584   7.050
 9104POPC   C4A73338   4.317  20.652   7.350
 9104POPC   C1B73339   4.356  20.853   6.450
 9104POPC   C2B73340   4.362  20.803   6.750
 9104POPC   C3B73341   4.429  20.820   7.050
 9104POPC   C4B73342   4.360  20.833   7.350
 9105POPC   NC373343   1.968  44.620   5.550
 9105POPC   PO473344   1.946  44.626   5.850
 9105POPC   GL173345   1.957  44.655   6.150
 9105POPC   GL273346   2.020  44.721   6.150
 9105POPC   C1A73347   1.959  44.705   6.450
 9105POPC   D2A73348   1.961  44.693   6.750
 9105POPC   C3A73349   1.960  44.642   7.050
 9105POPC   C4A73350   1.997  44.704   7.350
 9105POPC   C1B73351   2.141  44.885   6.450
 9105POPC   C2B73352   2.141  44.823   6.750
 9105POPC   C3B73353   2.151  44.859   7.050
 9105POPC   C4B73354   2.086  44.885   7.350
 9106POPC   NC373355  25.299  43.927   5.550
 9106POPC   PO473356  25.252  43.852   5.850
 9106POPC   GL173357  25.221  43.936   6.150
 9106POPC   GL273358  25.232  43.731   6.150
 9106POPC   C1A73359  25.258  43.851   6.450
 9106POPC   D2A73360  25.217  43.840   6.750
 9106POPC   C3A73361  25.278  43.877   7.050
 9106POPC   C4A73362  25.300  43.894   7.350
 9106POPC   C1B73363  25.274  43.641   6.450
 9106POPC   C2B73364  25.263  43.618   6.750
 9106POPC   C3B73365  25.257  43.680   7.050
 9106POPC   C4B73366  25.308  43.631   7.350
 9107POPC   NC373367  25.240  18.327   5.550
 9107POPC   PO473368  25.238  18.303   5.850
 9107POPC   GL173369  25.256  18.312   6.150
 9107POPC   GL273370  25.269  18.439   6.150
 9107POPC   C1A73371  25.281  18.316   6.450
 9107POPC   D2A73372  25.227  18.308   6.750
 9107POPC   C3A73373  25.277  18.237   7.050
 9107POPC   C4A73374  25.274  18.239   7.350
 9107POPC   C1B73375  25.244  18.532   6.450
 9107POPC   C2B73376  25.326  18.562   6.750
 9107POPC   C3B73377  25.294  18.570   7.050
 9107POPC   C4B73378  25.307  18.521   7.350
 9108POPC   NC373379  37.728  27.614   5.550
 9108POPC   PO473380  37.652  27.605   5.850
 9108POPC   GL173381  37.659  27.631   6.150
 9108POPC   GL273382  37.753  27.469   6.150
 9108POPC   C1A73383  37.650  27.565   6.450
 9108POPC   D2A73384  37.671  27.546   6.750
 9108POPC   C3A73385  37.648  27.623   7.050
 9108POPC   C4A73386  37.672  27.604   7.350
 9108POPC   C1B73387  37.784  27.364   6.450
 9108POPC   C2B73388  37.828  27.425   6.750
 9108POPC   C3B73389  37.802  27.382   7.050
 9108POPC   C4B73390  37.808  27.340   7.350
 9109POPC   NC373391  19.093   8.977   5.550
 9109POPC   PO473392  19.011   8.987   5.850
 9109POPC   GL173393  19.018   8.952   6.150
 9109POPC   GL273394  18.941   8.976   6.150
 9109POPC   C1A73395  19.079   8.960   6.450
 9109POPC   D2A73396  19.038   8.963   6.750
 9109POPC   C3A73397  19.073   8.966   7.050
 9109POPC   C4A73398  19.095   8.938   7.350
 9109POPC   C1B73399  18.814   9.035   6.450
 9109POPC   C2B73400  18.797   9.061   6.750
 9109POPC   C3B73401  18.832   8.993   7.050
 9109POPC   C4B73402  18.836   9.040   7.350
 9110POPC   NC373403  22.957  44.647   5.550
 9110POPC   PO473404  22.894  44.646   5.850
 9110POPC   GL173405  22.967  44.695   6.150
 9110POPC   GL273406  22.998  44.783   6.150
 9110POPC   C1A73407  22.962  44.653   6.450
 9110POPC   D2A73408  22.939  44.639   6.750
 9110POPC   C3A73409  22.942  44.674   7.050
 9110POPC   C4A73410  22.907  44.702   7.350
 9110POPC   C1B73411  23.021  44.893   6.450
 9110POPC   C2B73412  23.042  44.913   6.750
 9110POPC   C3B73413  22.997  44.892   7.050
 9110POPC   C4B73414  22.946  44.896   7.350
 9111POPC   NC373415  44.624  43.155   5.550
 9111POPC   PO473416  44.686  43.097   5.850
 9111POPC   GL173417  44.644  43.145   6.150
 9111POPC   GL273418  44.579  43.187   6.150
 9111POPC   C1A73419  44.683  43.111   6.450
 9111POPC   D2A73420  44.663  43.068   6.750
 9111POPC   C3A73421  44.634  43.141   7.050
 9111POPC   C4A73422  44.669  43.142   7.350
 9111POPC   C1B73423  44.543  43.378   6.450
 9111POPC   C2B73424  44.590  43.295   6.750
 9111POPC   C3B73425  44.507  43.301   7.050
 9111POPC   C4B73426  44.565  43.367   7.350
 9112POPC   NC373427  11.326  25.223   5.550
 9112POPC   PO473428  11.293  25.242   5.850
 9112POPC   GL173429  11.256  25.266   6.150
 9112POPC   GL273430  11.375  25.333   6.150
 9112POPC   C1A73431  11.312  25.236   6.450
 9112POPC   D2A73432  11.349  25.303   6.750
 9112POPC   C3A73433  11.312  25.233   7.050
 9112POPC   C4A73434  11.289  25.300   7.350
 9112POPC   C1B73435  11.418  25.468   6.450
 9112POPC   C2B73436  11.389  25.456   6.750
 9112POPC   C3B73437  11.421  25.518   7.050
 9112POPC   C4B73438  11.453  25.477   7.350
 9113POPC   NC373439  20.635   5.895   5.550
 9113POPC   PO473440  20.575   5.916   5.850
 9113POPC   GL173441  20.570   5.851   6.150
 9113POPC   GL273442  20.487   5.765   6.150
 9113POPC   C1A73443  20.617   5.848   6.450
 9113POPC   D2A73444  20.640   5.853   6.750
 9113POPC   C3A73445  20.631   5.883   7.050
 9113POPC   C4A73446  20.619   5.864   7.350
 9113POPC   C1B73447  20.469   5.676   6.450
 9113POPC   C2B73448  20.408   5.655   6.750
 9113POPC   C3B73449  20.416   5.632   7.050
 9113POPC   C4B73450  20.440   5.660   7.350
 9114POPC   NC373451  43.130   3.566   5.550
 9114POPC   PO473452  43.073   3.533   5.850
 9114POPC   GL173453  43.092   3.522   6.150
 9114POPC   GL273454  43.006   3.499   6.150
 9114POPC   C1A73455  43.106   3.539   6.450
 9114POPC   D2A73456  43.125   3.510   6.750
 9114POPC   C3A73457  43.099   3.560   7.050
 9114POPC   C4A73458  43.107   3.559   7.350
 9114POPC   C1B73459  42.966   3.374   6.450
 9114POPC   C2B73460  42.958   3.360   6.750
 9114POPC   C3B73461  42.912   3.396   7.050
 9114POPC   C4B73462  42.950   3.347   7.350
 9115POPC   NC373463  25.251  36.165   5.550
 9115POPC   PO473464  25.245  36.135   5.850
 9115POPC   GL173465  25.311  36.106   6.150
 9115POPC   GL273466  25.244  36.272   6.150
 9115POPC   C1A73467  25.271  36.154   6.450
 9115POPC   D2A73468  25.260  36.079   6.750
 9115POPC   C3A73469  25.234  36.116   7.050
 9115POPC   C4A73470  25.234  36.096   7.350
 9115POPC   C1B73471  25.141  36.385   6.450
 9115POPC   C2B73472  25.139  36.360   6.750
 9115POPC   C3B73473  25.112  36.345   7.050
 9115POPC   C4B73474  25.186  36.338   7.350
 9116POPC   NC373475  35.356   8.170   5.550
 9116POPC   PO473476  35.336   8.177   5.850
 9116POPC   GL173477  35.347   8.237   6.150
 9116POPC   GL273478  35.478   8.191   6.150
 9116POPC   C1A73479  35.350   8.180   6.450
 9116POPC   D2A73480  35.304   8.192   6.750
 9116POPC   C3A73481  35.305   8.168   7.050
 9116POPC   C4A73482  35.355   8.156   7.350
 9116POPC   C1B73483  35.564   8.104   6.450
 9116POPC   C2B73484  35.556   8.166   6.750
 9116POPC   C3B73485  35.586   8.173   7.050
 9116POPC   C4B73486  35.647   8.120   7.350
 9117POPC   NC373487   1.971  38.432   5.550
 9117POPC   PO473488   2.002  38.479   5.850
 9117POPC   GL173489   2.034  38.500   6.150
 9117POPC   GL273490   2.136  38.556   6.150
 9117POPC   C1A73491   2.013  38.470   6.450
 9117POPC   D2A73492   1.989  38.409   6.750
 9117POPC   C3A73493   2.033  38.411   7.050
 9117POPC   C4A73494   1.980  38.453   7.350
 9117POPC   C1B73495   2.244  38.521   6.450
 9117POPC   C2B73496   2.235  38.570   6.750
 9117POPC   C3B73497   2.247  38.575   7.050
 9117POPC   C4B73498   2.228  38.526   7.350
 9118POPC   NC373499   2.753  19.091   5.550
 9118POPC   PO473500   2.791  19.053   5.850
 9118POPC   GL173501   2.777  19.063   6.150
 9118POPC   GL273502   2.683  19.107   6.150
 9118POPC   C1A73503   2.798  19.020   6.450
 9118POPC   D2A73504   2.808  19.098   6.750
 9118POPC   C3A73505   2.809  19.010   7.050
 9118POPC   C4A73506   2.725  19.028   7.350
 9118POPC   C1B73507   2.528  19.088   6.450
 9118POPC   C2B73508   2.510  19.088   6.750
 9118POPC   C3B73509   2.480  19.133   7.050
 9118POPC   C4B73510   2.560  19.155   7.350
 9119POPC   NC373511  36.138  36.885   5.550
 9119POPC   PO473512  36.096  36.951   5.850
 9119POPC   GL173513  36.124  36.940   6.150
 9119POPC   GL273514  36.138  37.025   6.150
 9119POPC   C1A73515  36.160  36.952   6.450
 9119POPC   D2A73516  36.114  36.948   6.750
 9119POPC   C3A73517  36.122  36.908   7.050
 9119POPC   C4A73518  36.124  36.856   7.350
 9119POPC   C1B73519  36.142  37.171   6.450
 9119POPC   C2B73520  36.097  37.194   6.750
 9119POPC   C3B73521  36.115  37.179   7.050
 9119POPC   C4B73522  36.105  37.163   7.350
 9120POPC   NC373523  22.985  25.309   5.550
 9120POPC   PO473524  22.982  25.223   5.850
 9120POPC   GL173525  22.979  25.243   6.150
 9120POPC   GL273526  22.963  25.135   6.150
 9120POPC   C1A73527  22.912  25.254   6.450
 9120POPC   D2A73528  22.980  25.314   6.750
 9120POPC   C3A73529  22.930  25.226   7.050
 9120POPC   C4A73530  22.983  25.280   7.350
 9120POPC   C1B73531  23.034  25.071   6.450
 9120POPC   C2B73532  23.065  25.081   6.750
 9120POPC   C3B73533  23.090  25.034   7.050
 9120POPC   C4B73534  23.099  25.019   7.350
 9121POPC   NC373535  12.043   5.893   5.550
 9121POPC   PO473536  12.111   5.867   5.850
 9121POPC   GL173537  12.053   5.908   6.150
 9121POPC   GL273538  12.207   5.815   6.150
 9121POPC   C1A73539  12.038   5.876   6.450
 9121POPC   D2A73540  12.034   5.835   6.750
 9121POPC   C3A73541  12.116   5.919   7.050
 9121POPC   C4A73542  12.102   5.889   7.350
 9121POPC   C1B73543  12.330   5.826   6.450
 9121POPC   C2B73544  12.354   5.843   6.750
 9121POPC   C3B73545  12.315   5.812   7.050
 9121POPC   C4B73546  12.328   5.837   7.350
 9122POPC   NC373547  38.479  41.518   5.550
 9122POPC   PO473548  38.484  41.545   5.850
 9122POPC   GL173549  38.479  41.558   6.150
 9122POPC   GL273550  38.513  41.517   6.150
 9122POPC   C1A73551  38.484  41.528   6.450
 9122POPC   D2A73552  38.423  41.526   6.750
 9122POPC   C3A73553  38.468  41.544   7.050
 9122POPC   C4A73554  38.412  41.531   7.350
 9122POPC   C1B73555  38.612  41.433   6.450
 9122POPC   C2B73556  38.617  41.444   6.750
 9122POPC   C3B73557  38.648  41.380   7.050
 9122POPC   C4B73558  38.610  41.427   7.350
 9123POPC   NC373559  15.155   8.239   5.550
 9123POPC   PO473560  15.162   8.172   5.850
 9123POPC   GL173561  15.225   8.150   6.150
 9123POPC   GL273562  15.251   8.317   6.150
 9123POPC   C1A73563  15.226   8.181   6.450
 9123POPC   D2A73564  15.158   8.168   6.750
 9123POPC   C3A73565  15.143   8.172   7.050
 9123POPC   C4A73566  15.154   8.162   7.350
 9123POPC   C1B73567  15.358   8.349   6.450
 9123POPC   C2B73568  15.328   8.353   6.750
 9123POPC   C3B73569  15.422   8.356   7.050
 9123POPC   C4B73570  15.332   8.360   7.350
 9124POPC   NC373571  15.227  34.532   5.550
 9124POPC   PO473572  15.190  34.600   5.850
 9124POPC   GL173573  15.170  34.599   6.150
 9124POPC   GL273574  15.271  34.469   6.150
 9124POPC   C1A73575  15.204  34.597   6.450
 9124POPC   D2A73576  15.138  34.615   6.750
 9124POPC   C3A73577  15.146  34.530   7.050
 9124POPC   C4A73578  15.221  34.571   7.350
 9124POPC   C1B73579  15.306  34.418   6.450
 9124POPC   C2B73580  15.353  34.417   6.750
 9124POPC   C3B73581  15.375  34.383   7.050
 9124POPC   C4B73582  15.311  34.357   7.350
 9125POPC   NC373583  17.543  35.400   5.550
 9125POPC   PO473584  17.462  35.393   5.850
 9125POPC   GL173585  17.474  35.370   6.150
 9125POPC   GL273586  17.437  35.458   6.150
 9125POPC   C1A73587  17.484  35.319   6.450
 9125POPC   D2A73588  17.463  35.383   6.750
 9125POPC   C3A73589  17.554  35.311   7.050
 9125POPC   C4A73590  17.544  35.335   7.350
 9125POPC   C1B73591  17.395  35.563   6.450
 9125POPC   C2B73592  17.334  35.564   6.750
 9125POPC   C3B73593  17.345  35.516   7.050
 9125POPC   C4B73594  17.318  35.525   7.350
 9126POPC   NC373595  15.927  14.434   5.550
 9126POPC   PO473596  15.965  14.443   5.850
 9126POPC   GL173597  15.996  14.409   6.150
 9126POPC   GL273598  15.874  14.404   6.150
 9126POPC   C1A73599  16.001  14.397   6.450
 9126POPC   D2A73600  15.934  14.445   6.750
 9126POPC   C3A73601  15.919  14.364   7.050
 9126POPC   C4A73602  15.955  14.381   7.350
 9126POPC   C1B73603  15.707  14.306   6.450
 9126POPC   C2B73604  15.683  14.307   6.750
 9126POPC   C3B73605  15.676  14.322   7.050
 9126POPC   C4B73606  15.686  14.293   7.350
 9127POPC   NC373607  12.086  34.581   5.550
 9127POPC   PO473608  12.105  34.593   5.850
 9127POPC   GL173609  12.110  34.592   6.150
 9127POPC   GL273610  12.007  34.519   6.150
 9127POPC   C1A73611  12.047  34.560   6.450
 9127POPC   D2A73612  12.112  34.566   6.750
 9127POPC   C3A73613  12.082  34.618   7.050
 9127POPC   C4A73614  12.054  34.551   7.350
 9127POPC   C1B73615  11.849  34.506   6.450
 9127POPC   C2B73616  11.883  34.518   6.750
 9127POPC   C3B73617  11.821  34.442   7.050
 9127POPC   C4B73618  11.864  34.444   7.350
 9128POPC   NC373619   7.424  16.745   5.550
 9128POPC   PO473620   7.416  16.777   5.850
 9128POPC   GL173621   7.460  16.768   6.150
 9128POPC   GL273622   7.399  16.578   6.150
 9128POPC   C1A73623   7.387  16.737   6.450
 9128POPC   D2A73624   7.463  16.752   6.750
 9128POPC   C3A73625   7.416  16.760   7.050
 9128POPC   C4A73626   7.394  16.748   7.350
 9128POPC   C1B73627   7.368  16.532   6.450
 9128POPC   C2B73628   7.380  16.511   6.750
 9128POPC   C3B73629   7.411  16.454   7.050
 9128POPC   C4B73630   7.379  16.437   7.350
 9129POPC   NC373631   8.192  22.965   5.550
 9129POPC   PO473632   8.227  22.909   5.850
 9129POPC   GL173633   8.164  22.960   6.150
 9129POPC   GL273634   8.274  23.041   6.150
 9129POPC   C1A73635   8.238  22.892   6.450
 9129POPC   D2A73636   8.246  22.968   6.750
 9129POPC   C3A73637   8.176  22.983   7.050
 9129POPC   C4A73638   8.171  22.900   7.350
 9129POPC   C1B73639   8.365  23.037   6.450
 9129POPC   C2B73640   8.365  23.056   6.750
 9129POPC   C3B73641   8.410  23.059   7.050
 9129POPC   C4B73642   8.453  23.081   7.350
 9130POPC   NC373643  26.073  44.668   5.550
 9130POPC   PO473644  26.078  44.678   5.850
 9130POPC   GL173645  26.024  44.686   6.150
 9130POPC   GL273646  26.014  44.756   6.150
 9130POPC   C1A73647  26.004  44.653   6.450
 9130POPC   D2A73648  26.048  44.665   6.750
 9130POPC   C3A73649  26.032  44.641   7.050
 9130POPC   C4A73650  26.048  44.656   7.350
 9130POPC   C1B73651  26.045  44.909   6.450
 9130POPC   C2B73652  26.118  44.920   6.750
 9130POPC   C3B73653  26.030  44.878   7.050
 9130POPC   C4B73654  26.053  44.951   7.350
 9131POPC   NC373655  33.774  39.196   5.550
 9131POPC   PO473656  33.752  39.255   5.850
 9131POPC   GL173657  33.817  39.225   6.150
 9131POPC   GL273658  33.942  39.298   6.150
 9131POPC   C1A73659  33.789  39.199   6.450
 9131POPC   D2A73660  33.797  39.236   6.750
 9131POPC   C3A73661  33.828  39.201   7.050
 9131POPC   C4A73662  33.757  39.205   7.350
 9131POPC   C1B73663  34.011  39.357   6.450
 9131POPC   C2B73664  34.028  39.321   6.750
 9131POPC   C3B73665  34.062  39.281   7.050
 9131POPC   C4B73666  34.078  39.340   7.350
 9132POPC   NC373667  13.633  36.919   5.550
 9132POPC   PO473668  13.665  36.918   5.850
 9132POPC   GL173669  13.591  36.891   6.150
 9132POPC   GL273670  13.771  36.894   6.150
 9132POPC   C1A73671  13.600  36.863   6.450
 9132POPC   D2A73672  13.624  36.890   6.750
 9132POPC   C3A73673  13.593  36.888   7.050
 9132POPC   C4A73674  13.616  36.868   7.350
 9132POPC   C1B73675  13.880  36.871   6.450
 9132POPC   C2B73676  13.883  36.862   6.750
 9132POPC   C3B73677  13.908  36.851   7.050
 9132POPC   C4B73678  13.860  36.855   7.350
 9133POPC   NC373679  25.293  41.575   5.550
 9133POPC   PO473680  25.242  41.528   5.850
 9133POPC   GL173681  25.225  41.557   6.150
 9133POPC   GL273682  25.396  41.575   6.150
 9133POPC   C1A73683  25.252  41.538   6.450
 9133POPC   D2A73684  25.261  41.518   6.750
 9133POPC   C3A73685  25.281  41.536   7.050
 9133POPC   C4A73686  25.310  41.539   7.350
 9133POPC   C1B73687  25.554  41.552   6.450
 9133POPC   C2B73688  25.508  41.509   6.750
 9133POPC   C3B73689  25.542  41.602   7.050
 9133POPC   C4B73690  25.530  41.555   7.350
 9134POPC   NC373691  10.503  11.292   5.550
 9134POPC   PO473692  10.563  11.263   5.850
 9134POPC   GL173693  10.511  11.264   6.150
 9134POPC   GL273694  10.377  11.397   6.150
 9134POPC   C1A73695  10.506  11.286   6.450
 9134POPC   D2A73696  10.490  11.311   6.750
 9134POPC   C3A73697  10.479  11.285   7.050
 9134POPC   C4A73698  10.492  11.279   7.350
 9134POPC   C1B73699  10.273  11.408   6.450
 9134POPC   C2B73700  10.279  11.408   6.750
 9134POPC   C3B73701  10.315  11.393   7.050
 9134POPC   C4B73702  10.291  11.396   7.350
 9135POPC   NC373703  36.950  40.803   5.550
 9135POPC   PO473704  36.881  40.799   5.850
 9135POPC   GL173705  36.884  40.751   6.150
 9135POPC   GL273706  37.063  40.786   6.150
 9135POPC   C1A73707  36.884  40.806   6.450
 9135POPC   D2A73708  36.863  40.826   6.750
 9135POPC   C3A73709  36.920  40.828   7.050
 9135POPC   C4A73710  36.931  40.795   7.350
 9135POPC   C1B73711  37.169  40.714   6.450
 9135POPC   C2B73712  37.133  40.670   6.750
 9135POPC   C3B73713  37.148  40.702   7.050
 9135POPC   C4B73714  37.166  40.745   7.350
 9136POPC   NC373715   5.045   3.533   5.550
 9136POPC   PO473716   5.142   3.564   5.850
 9136POPC   GL173717   5.125   3.500   6.150
 9136POPC   GL273718   5.167   3.462   6.150
 9136POPC   C1A73719   5.078   3.544   6.450
 9136POPC   D2A73720   5.125   3.566   6.750
 9136POPC   C3A73721   5.138   3.546   7.050
 9136POPC   C4A73722   5.136   3.501   7.350
 9136POPC   C1B73723   5.296   3.455   6.450
 9136POPC   C2B73724   5.258   3.389   6.750
 9136POPC   C3B73725   5.338   3.461   7.050
 9136POPC   C4B73726   5.274   3.374   7.350
 9137POPC   NC373727  29.897  12.840   5.550
 9137POPC   PO473728  29.949  12.820   5.850
 9137POPC   GL173729  29.937  12.866   6.150
 9137POPC   GL273730  29.981  12.962   6.150
 9137POPC   C1A73731  29.898  12.841   6.450
 9137POPC   D2A73732  29.892  12.899   6.750
 9137POPC   C3A73733  29.918  12.871   7.050
 9137POPC   C4A73734  29.918  12.856   7.350
 9137POPC   C1B73735  30.112  13.099   6.450
 9137POPC   C2B73736  30.052  13.070   6.750
 9137POPC   C3B73737  30.111  13.028   7.050
 9137POPC   C4B73738  30.060  13.043   7.350
 9138POPC   NC373739  27.623  17.488   5.550
 9138POPC   PO473740  27.624  17.462   5.850
 9138POPC   GL173741  27.609  17.457   6.150
 9138POPC   GL273742  27.599  17.616   6.150
 9138POPC   C1A73743  27.553  17.477   6.450
 9138POPC   D2A73744  27.564  17.528   6.750
 9138POPC   C3A73745  27.550  17.544   7.050
 9138POPC   C4A73746  27.558  17.462   7.350
 9138POPC   C1B73747  27.588  17.802   6.450
 9138POPC   C2B73748  27.588  17.792   6.750
 9138POPC   C3B73749  27.632  17.764   7.050
 9138POPC   C4B73750  27.582  17.783   7.350
 9139POPC   NC373751  32.999  19.868   5.550
 9139POPC   PO473752  33.035  19.869   5.850
 9139POPC   GL173753  33.037  19.832   6.150
 9139POPC   GL273754  33.086  19.889   6.150
 9139POPC   C1A73755  32.984  19.848   6.450
 9139POPC   D2A73756  32.990  19.875   6.750
 9139POPC   C3A73757  33.032  19.841   7.050
 9139POPC   C4A73758  32.977  19.790   7.350
 9139POPC   C1B73759  33.217  20.043   6.450
 9139POPC   C2B73760  33.171  20.052   6.750
 9139POPC   C3B73761  33.200  20.000   7.050
 9139POPC   C4B73762  33.180  20.055   7.350
 9140POPC   NC373763  32.237  29.925   5.550
 9140POPC   PO473764  32.222  29.904   5.850
 9140POPC   GL173765  32.271  29.920   6.150
 9140POPC   GL273766  32.170  29.995   6.150
 9140POPC   C1A73767  32.234  29.909   6.450
 9140POPC   D2A73768  32.211  29.956   6.750
 9140POPC   C3A73769  32.254  29.929   7.050
 9140POPC   C4A73770  32.280  29.948   7.350
 9140POPC   C1B73771  32.190  30.139   6.450
 9140POPC   C2B73772  32.148  30.149   6.750
 9140POPC   C3B73773  32.151  30.117   7.050
 9140POPC   C4B73774  32.215  30.168   7.350
 9141POPC   NC373775  31.444  25.224   5.550
 9141POPC   PO473776  31.507  25.228   5.850
 9141POPC   GL173777  31.461  25.293   6.150
 9141POPC   GL273778  31.528  25.172   6.150
 9141POPC   C1A73779  31.469  25.230   6.450
 9141POPC   D2A73780  31.470  25.300   6.750
 9141POPC   C3A73781  31.478  25.278   7.050
 9141POPC   C4A73782  31.494  25.227   7.350
 9141POPC   C1B73783  31.670  25.084   6.450
 9141POPC   C2B73784  31.621  25.066   6.750
 9141POPC   C3B73785  31.630  25.089   7.050
 9141POPC   C4B73786  31.590  25.120   7.350
 9142POPC   NC373787  37.702  43.915   5.550
 9142POPC   PO473788  37.698  43.846   5.850
 9142POPC   GL173789  37.676  43.924   6.150
 9142POPC   GL273790  37.608  43.973   6.150
 9142POPC   C1A73791  37.649  43.870   6.450
 9142POPC   D2A73792  37.679  43.846   6.750
 9142POPC   C3A73793  37.705  43.889   7.050
 9142POPC   C4A73794  37.712  43.871   7.350
 9142POPC   C1B73795  37.467  44.012   6.450
 9142POPC   C2B73796  37.453  43.918   6.750
 9142POPC   C3B73797  37.448  43.963   7.050
 9142POPC   C4B73798  37.415  44.011   7.350
 9143POPC   NC373799  34.566   7.399   5.550
 9143POPC   PO473800  34.545   7.443   5.850
 9143POPC   GL173801  34.566   7.445   6.150
 9143POPC   GL273802  34.606   7.318   6.150
 9143POPC   C1A73803  34.592   7.461   6.450
 9143POPC   D2A73804  34.618   7.393   6.750
 9143POPC   C3A73805  34.542   7.386   7.050
 9143POPC   C4A73806  34.622   7.461   7.350
 9143POPC   C1B73807  34.665   7.188   6.450
 9143POPC   C2B73808  34.720   7.248   6.750
 9143POPC   C3B73809  34.737   7.234   7.050
 9143POPC   C4B73810  34.708   7.197   7.350
 9144POPC   NC373811   6.670   1.998   5.550
 9144POPC   PO473812   6.658   1.949   5.850
 9144POPC   GL173813   6.607   2.032   6.150
 9144POPC   GL273814   6.471   2.022   6.150
 9144POPC   C1A73815   6.668   2.016   6.450
 9144POPC   D2A73816   6.655   1.978   6.750
 9144POPC   C3A73817   6.627   1.965   7.050
 9144POPC   C4A73818   6.678   2.026   7.350
 9144POPC   C1B73819   6.372   1.987   6.450
 9144POPC   C2B73820   6.366   1.952   6.750
 9144POPC   C3B73821   6.425   1.953   7.050
 9144POPC   C4B73822   6.352   1.976   7.350
 9145POPC   NC373823  25.219   1.967   5.550
 9145POPC   PO473824  25.285   1.956   5.850
 9145POPC   GL173825  25.261   2.034   6.150
 9145POPC   GL273826  25.173   2.012   6.150
 9145POPC   C1A73827  25.263   2.009   6.450
 9145POPC   D2A73828  25.285   2.024   6.750
 9145POPC   C3A73829  25.259   1.954   7.050
 9145POPC   C4A73830  25.279   1.962   7.350
 9145POPC   C1B73831  25.068   2.164   6.450
 9145POPC   C2B73832  25.017   2.128   6.750
 9145POPC   C3B73833  25.095   2.116   7.050
 9145POPC   C4B73834  25.098   2.153   7.350
 9146POPC   NC373835  36.944   5.083   5.550
 9146POPC   PO473836  36.897   5.091   5.850
 9146POPC   GL173837  36.912   5.081   6.150
 9146POPC   GL273838  36.825   5.144   6.150
 9146POPC   C1A73839  36.909   5.101   6.450
 9146POPC   D2A73840  36.862   5.094   6.750
 9146POPC   C3A73841  36.930   5.130   7.050
 9146POPC   C4A73842  36.945   5.079   7.350
 9146POPC   C1B73843  36.699   5.204   6.450
 9146POPC   C2B73844  36.659   5.221   6.750
 9146POPC   C3B73845  36.654   5.206   7.050
 9146POPC   C4B73846  36.623   5.209   7.350
 9147POPC   NC373847  32.262   4.299   5.550
 9147POPC   PO473848  32.263   4.275   5.850
 9147POPC   GL173849  32.216   4.358   6.150
 9147POPC   GL273850  32.318   4.438   6.150
 9147POPC   C1A73851  32.264   4.285   6.450
 9147POPC   D2A73852  32.232   4.367   6.750
 9147POPC   C3A73853  32.297   4.287   7.050
 9147POPC   C4A73854  32.296   4.340   7.350
 9147POPC   C1B73855  32.408   4.491   6.450
 9147POPC   C2B73856  32.389   4.581   6.750
 9147POPC   C3B73857  32.363   4.585   7.050
 9147POPC   C4B73858  32.389   4.518   7.350
 9148POPC   NC373859  22.211  22.123   5.550
 9148POPC   PO473860  22.117  22.190   5.850
 9148POPC   GL173861  22.207  22.174   6.150
 9148POPC   GL273862  22.216  22.242   6.150
 9148POPC   C1A73863  22.119  22.140   6.450
 9148POPC   D2A73864  22.140  22.188   6.750
 9148POPC   C3A73865  22.193  22.151   7.050
 9148POPC   C4A73866  22.146  22.165   7.350
 9148POPC   C1B73867  22.289  22.436   6.450
 9148POPC   C2B73868  22.225  22.366   6.750
 9148POPC   C3B73869  22.264  22.355   7.050
 9148POPC   C4B73870  22.259  22.414   7.350
 9149POPC   NC373871  26.087  22.928   5.550
 9149POPC   PO473872  26.087  22.926   5.850
 9149POPC   GL173873  26.035  22.898   6.150
 9149POPC   GL273874  25.934  22.848   6.150
 9149POPC   C1A73875  26.041  22.942   6.450
 9149POPC   D2A73876  26.001  22.904   6.750
 9149POPC   C3A73877  26.002  22.921   7.050
 9149POPC   C4A73878  26.041  22.899   7.350
 9149POPC   C1B73879  25.884  22.740   6.450
 9149POPC   C2B73880  25.882  22.776   6.750
 9149POPC   C3B73881  25.827  22.808   7.050
 9149POPC   C4B73882  25.826  22.769   7.350
 9150POPC   NC373883   3.541  32.295   5.550
 9150POPC   PO473884   3.562  32.258   5.850
 9150POPC   GL173885   3.589  32.261   6.150
 9150POPC   GL273886   3.460  32.178   6.150
 9150POPC   C1A73887   3.517  32.243   6.450
 9150POPC   D2A73888   3.539  32.261   6.750
 9150POPC   C3A73889   3.549  32.250   7.050
 9150POPC   C4A73890   3.530  32.216   7.350
 9150POPC   C1B73891   3.334  32.206   6.450
 9150POPC   C2B73892   3.276  32.204   6.750
 9150POPC   C3B73893   3.295  32.216   7.050
 9150POPC   C4B73894   3.298  32.155   7.350
 9151POPC   NC373895  22.200  12.872   5.550
 9151POPC   PO473896  22.177  12.874   5.850
 9151POPC   GL173897  22.198  12.829   6.150
 9151POPC   GL273898  22.255  12.970   6.150
 9151POPC   C1A73899  22.194  12.844   6.450
 9151POPC   D2A73900  22.164  12.866   6.750
 9151POPC   C3A73901  22.198  12.855   7.050
 9151POPC   C4A73902  22.192  12.895   7.350
 9151POPC   C1B73903  22.250  13.093   6.450
 9151POPC   C2B73904  22.298  13.104   6.750
 9151POPC   C3B73905  22.307  13.047   7.050
 9151POPC   C4B73906  22.255  13.037   7.350
 9152POPC   NC373907  33.010  37.631   5.550
 9152POPC   PO473908  32.993  37.666   5.850
 9152POPC   GL173909  32.981  37.666   6.150
 9152POPC   GL273910  32.883  37.718   6.150
 9152POPC   C1A73911  33.068  37.726   6.450
 9152POPC   D2A73912  33.062  37.718   6.750
 9152POPC   C3A73913  33.071  37.695   7.050
 9152POPC   C4A73914  33.051  37.675   7.350
 9152POPC   C1B73915  32.834  37.800   6.450
 9152POPC   C2B73916  32.862  37.799   6.750
 9152POPC   C3B73917  32.800  37.767   7.050
 9152POPC   C4B73918  32.814  37.818   7.350
 9153POPC   NC373919  42.303  22.211   5.550
 9153POPC   PO473920  42.365  22.169   5.850
 9153POPC   GL173921  42.291  22.125   6.150
 9153POPC   GL273922  42.466  22.204   6.150
 9153POPC   C1A73923  42.331  22.191   6.450
 9153POPC   D2A73924  42.307  22.184   6.750
 9153POPC   C3A73925  42.304  22.112   7.050
 9153POPC   C4A73926  42.367  22.143   7.350
 9153POPC   C1B73927  42.552  22.296   6.450
 9153POPC   C2B73928  42.503  22.309   6.750
 9153POPC   C3B73929  42.541  22.343   7.050
 9153POPC   C4B73930  42.471  22.385   7.350
 9154POPC   NC373931  23.680   6.618   5.550
 9154POPC   PO473932  23.730   6.639   5.850
 9154POPC   GL173933  23.680   6.645   6.150
 9154POPC   GL273934  23.576   6.585   6.150
 9154POPC   C1A73935  23.717   6.670   6.450
 9154POPC   D2A73936  23.761   6.643   6.750
 9154POPC   C3A73937  23.758   6.656   7.050
 9154POPC   C4A73938  23.725   6.612   7.350
 9154POPC   C1B73939  23.479   6.567   6.450
 9154POPC   C2B73940  23.446   6.564   6.750
 9154POPC   C3B73941  23.464   6.559   7.050
 9154POPC   C4B73942  23.476   6.592   7.350
 9155POPC   NC373943  22.933  28.328   5.550
 9155POPC   PO473944  22.888  28.328   5.850
 9155POPC   GL173945  22.925  28.372   6.150
 9155POPC   GL273946  22.815  28.401   6.150
 9155POPC   C1A73947  22.970  28.338   6.450
 9155POPC   D2A73948  22.930  28.376   6.750
 9155POPC   C3A73949  22.910  28.396   7.050
 9155POPC   C4A73950  22.976  28.326   7.350
 9155POPC   C1B73951  22.738  28.448   6.450
 9155POPC   C2B73952  22.666  28.458   6.750
 9155POPC   C3B73953  22.728  28.477   7.050
 9155POPC   C4B73954  22.658  28.428   7.350
 9156POPC   NC373955  42.295  35.333   5.550
 9156POPC   PO473956  42.352  35.314   5.850
 9156POPC   GL173957  42.350  35.385   6.150
 9156POPC   GL273958  42.431  35.403   6.150
 9156POPC   C1A73959  42.374  35.321   6.450
 9156POPC   D2A73960  42.315  35.330   6.750
 9156POPC   C3A73961  42.354  35.349   7.050
 9156POPC   C4A73962  42.376  35.369   7.350
 9156POPC   C1B73963  42.489  35.562   6.450
 9156POPC   C2B73964  42.475  35.552   6.750
 9156POPC   C3B73965  42.495  35.486   7.050
 9156POPC   C4B73966  42.547  35.490   7.350
 9157POPC   NC373967  13.606  33.012   5.550
 9157POPC   PO473968  13.600  33.023   5.850
 9157POPC   GL173969  13.613  33.034   6.150
 9157POPC   GL273970  13.460  32.988   6.150
 9157POPC   C1A73971  13.605  33.021   6.450
 9157POPC   D2A73972  13.586  33.010   6.750
 9157POPC   C3A73973  13.607  33.061   7.050
 9157POPC   C4A73974  13.644  32.977   7.350
 9157POPC   C1B73975  13.385  33.053   6.450
 9157POPC   C2B73976  13.373  32.980   6.750
 9157POPC   C3B73977  13.397  32.977   7.050
 9157POPC   C4B73978  13.404  32.978   7.350
 9158POPC   NC373979  41.543  10.526   5.550
 9158POPC   PO473980  41.552  10.520   5.850
 9158POPC   GL173981  41.518  10.488   6.150
 9158POPC   GL273982  41.446  10.477   6.150
 9158POPC   C1A73983  41.558  10.513   6.450
 9158POPC   D2A73984  41.533  10.564   6.750
 9158POPC   C3A73985  41.573  10.481   7.050
 9158POPC   C4A73986  41.569  10.549   7.350
 9158POPC   C1B73987  41.318  10.365   6.450
 9158POPC   C2B73988  41.338  10.395   6.750
 9158POPC   C3B73989  41.345  10.407   7.050
 9158POPC   C4B73990  41.364  10.323   7.350
 9159POPC   NC373991  18.317  34.606   5.550
 9159POPC   PO473992  18.308  34.608   5.850
 9159POPC   GL173993  18.234  34.544   6.150
 9159POPC   GL273994  18.322  34.409   6.150
 9159POPC   C1A73995  18.268  34.547   6.450
 9159POPC   D2A73996  18.264  34.583   6.750
 9159POPC   C3A73997  18.329  34.605   7.050
 9159POPC   C4A73998  18.304  34.619   7.350
 9159POPC   C1B73999  18.329  34.298   6.450
 9159POPC   C2B74000  18.327  34.328   6.750
 9159POPC   C3B74001  18.392  34.335   7.050
 9159POPC   C4B74002  18.364  34.379   7.350
 9160POPC   NC374003  33.812  31.493   5.550
 9160POPC   PO474004  33.822  31.437   5.850
 9160POPC   GL174005  33.753  31.476   6.150
 9160POPC   GL274006  33.919  31.493   6.150
 9160POPC   C1A74007  33.847  31.493   6.450
 9160POPC   D2A74008  33.849  31.448   6.750
 9160POPC   C3A74009  33.797  31.427   7.050
 9160POPC   C4A74010  33.836  31.512   7.350
 9160POPC   C1B74011  34.094  31.436   6.450
 9160POPC   C2B74012  34.072  31.417   6.750
 9160POPC   C3B74013  34.091  31.454   7.050
 9160POPC   C4B74014  34.093  31.497   7.350
 9161POPC   NC374015   6.610  42.369   5.550
 9161POPC   PO474016   6.683  42.356   5.850
 9161POPC   GL174017   6.635  42.303   6.150
 9161POPC   GL274018   6.715  42.223   6.150
 9161POPC   C1A74019   6.600  42.350   6.450
 9161POPC   D2A74020   6.626  42.347   6.750
 9161POPC   C3A74021   6.607  42.301   7.050
 9161POPC   C4A74022   6.650  42.348   7.350
 9161POPC   C1B74023   6.810  42.234   6.450
 9161POPC   C2B74024   6.859  42.193   6.750
 9161POPC   C3B74025   6.822  42.177   7.050
 9161POPC   C4B74026   6.884  42.227   7.350
 9162POPC   NC374027   1.211   0.420   5.550
 9162POPC   PO474028   1.209   0.460   5.850
 9162POPC   GL174029   1.230   0.434   6.150
 9162POPC   GL274030   1.170   0.600   6.150
 9162POPC   C1A74031   1.245   0.482   6.450
 9162POPC   D2A74032   1.172   0.454   6.750
 9162POPC   C3A74033   1.224   0.438   7.050
 9162POPC   C4A74034   1.207   0.450   7.350
 9162POPC   C1B74035   1.193   0.653   6.450
 9162POPC   C2B74036   1.194   0.673   6.750
 9162POPC   C3B74037   1.106   0.724   7.050
 9162POPC   C4B74038   1.167   0.678   7.350
 9163POPC   NC374039  15.176  44.664   5.550
 9163POPC   PO474040  15.214  44.675   5.850
 9163POPC   GL174041  15.147  44.648   6.150
 9163POPC   GL274042  15.047  44.617   6.150
 9163POPC   C1A74043  15.204  44.619   6.450
 9163POPC   D2A74044  15.160  44.706   6.750
 9163POPC   C3A74045  15.149  44.657   7.050
 9163POPC   C4A74046  15.167  44.703   7.350
 9163POPC   C1B74047  14.940  44.541   6.450
 9163POPC   C2B74048  14.947  44.500   6.750
 9163POPC   C3B74049  14.951  44.555   7.050
 9163POPC   C4B74050  14.944  44.516   7.350
 9164POPC   NC374051  40.020  23.714   5.550
 9164POPC   PO474052  40.005  23.710   5.850
 9164POPC   GL174053  40.057  23.694   6.150
 9164POPC   GL274054  40.096  23.668   6.150
 9164POPC   C1A74055  40.016  23.697   6.450
 9164POPC   D2A74056  39.964  23.720   6.750
 9164POPC   C3A74057  39.964  23.695   7.050
 9164POPC   C4A74058  40.047  23.668   7.350
 9164POPC   C1B74059  40.167  23.574   6.450
 9164POPC   C2B74060  40.259  23.583   6.750
 9164POPC   C3B74061  40.170  23.536   7.050
 9164POPC   C4B74062  40.206  23.617   7.350
 9165POPC   NC374063  28.355  43.932   5.550
 9165POPC   PO474064  28.382  43.918   5.850
 9165POPC   GL174065  28.353  43.887   6.150
 9165POPC   GL274066  28.488  43.853   6.150
 9165POPC   C1A74067  28.375  43.859   6.450
 9165POPC   D2A74068  28.400  43.919   6.750
 9165POPC   C3A74069  28.349  43.894   7.050
 9165POPC   C4A74070  28.400  43.895   7.350
 9165POPC   C1B74071  28.572  43.891   6.450
 9165POPC   C2B74072  28.667  43.845   6.750
 9165POPC   C3B74073  28.665  43.870   7.050
 9165POPC   C4B74074  28.596  43.868   7.350
 9166POPC   NC374075  40.044  33.837   5.550
 9166POPC   PO474076  39.997  33.757   5.850
 9166POPC   GL174077  40.031  33.839   6.150
 9166POPC   GL274078  40.102  33.874   6.150
 9166POPC   C1A74079  40.014  33.766   6.450
 9166POPC   D2A74080  40.029  33.754   6.750
 9166POPC   C3A74081  39.970  33.801   7.050
 9166POPC   C4A74082  40.015  33.832   7.350
 9166POPC   C1B74083  40.242  33.973   6.450
 9166POPC   C2B74084  40.209  33.904   6.750
 9166POPC   C3B74085  40.194  33.977   7.050
 9166POPC   C4B74086  40.178  33.932   7.350
 9167POPC   NC374087  18.236  43.933   5.550
 9167POPC   PO474088  18.286  43.883   5.850
 9167POPC   GL174089  18.252  43.839   6.150
 9167POPC   GL274090  18.254  43.960   6.150
 9167POPC   C1A74091  18.238  43.902   6.450
 9167POPC   D2A74092  18.257  43.873   6.750
 9167POPC   C3A74093  18.308  43.847   7.050
 9167POPC   C4A74094  18.290  43.911   7.350
 9167POPC   C1B74095  18.122  44.056   6.450
 9167POPC   C2B74096  18.171  44.086   6.750
 9167POPC   C3B74097  18.156  44.116   7.050
 9167POPC   C4B74098  18.127  44.058   7.350
 9168POPC   NC374099  35.397  44.651   5.550
 9168POPC   PO474100  35.364  44.615   5.850
 9168POPC   GL174101  35.314  44.654   6.150
 9168POPC   GL274102  35.251  44.778   6.150
 9168POPC   C1A74103  35.382  44.664   6.450
 9168POPC   D2A74104  35.316  44.642   6.750
 9168POPC   C3A74105  35.352  44.631   7.050
 9168POPC   C4A74106  35.352  44.652   7.350
 9168POPC   C1B74107  35.140  44.814   6.450
 9168POPC   C2B74108  35.137  44.824   6.750
 9168POPC   C3B74109  35.142  44.830   7.050
 9168POPC   C4B74110  35.143  44.823   7.350
 9169POPC   NC374111  10.525  15.928   5.550
 9169POPC   PO474112  10.488  15.926   5.850
 9169POPC   GL174113  10.541  15.984   6.150
 9169POPC   GL274114  10.577  15.860   6.150
 9169POPC   C1A74115  10.568  15.989   6.450
 9169POPC   D2A74116  10.535  15.960   6.750
 9169POPC   C3A74117  10.530  15.962   7.050
 9169POPC   C4A74118  10.496  15.951   7.350
 9169POPC   C1B74119  10.702  15.775   6.450
 9169POPC   C2B74120  10.766  15.844   6.750
 9169POPC   C3B74121  10.745  15.761   7.050
 9169POPC   C4B74122  10.763  15.834   7.350
 9170POPC   NC374123  33.062   6.620   5.550
 9170POPC   PO474124  32.978   6.597   5.850
 9170POPC   GL174125  33.070   6.597   6.150
 9170POPC   GL274126  33.092   6.531   6.150
 9170POPC   C1A74127  33.073   6.658   6.450
 9170POPC   D2A74128  33.047   6.655   6.750
 9170POPC   C3A74129  33.040   6.611   7.050
 9170POPC   C4A74130  33.004   6.618   7.350
 9170POPC   C1B74131  33.182   6.435   6.450
 9170POPC   C2B74132  33.183   6.462   6.750
 9170POPC   C3B74133  33.104   6.396   7.050
 9170POPC   C4B74134  33.162   6.424   7.350
 9171POPC   NC374135  32.992   0.460   5.550
 9171POPC   PO474136  33.020   0.477   5.850
 9171POPC   GL174137  33.055   0.474   6.150
 9171POPC   GL274138  32.929   0.417   6.150
 9171POPC   C1A74139  33.054   0.441   6.450
 9171POPC   D2A74140  33.043   0.398   6.750
 9171POPC   C3A74141  33.072   0.486   7.050
 9171POPC   C4A74142  33.038   0.397   7.350
 9171POPC   C1B74143  32.733   0.470   6.450
 9171POPC   C2B74144  32.752   0.452   6.750
 9171POPC   C3B74145  32.741   0.459   7.050
 9171POPC   C4B74146  32.767   0.486   7.350
 9172POPC   NC374147  26.078  25.234   5.550
 9172POPC   PO474148  26.025  25.240   5.850
 9172POPC   GL174149  26.040  25.238   6.150
 9172POPC   GL274150  25.900  25.275   6.150
 9172POPC   C1A74151  26.066  25.304   6.450
 9172POPC   D2A74152  26.084  25.216   6.750
 9172POPC   C3A74153  25.992  25.222   7.050
 9172POPC   C4A74154  26.063  25.244   7.350
 9172POPC   C1B74155  25.844  25.321   6.450
 9172POPC   C2B74156  25.809  25.307   6.750
 9172POPC   C3B74157  25.781  25.304   7.050
 9172POPC   C4B74158  25.809  25.389   7.350
 9173POPC   NC374159  39.265  16.726   5.550
 9173POPC   PO474160  39.195  16.709   5.850
 9173POPC   GL174161  39.236  16.744   6.150
 9173POPC   GL274162  39.264  16.572   6.150
 9173POPC   C1A74163  39.279  16.684   6.450
 9173POPC   D2A74164  39.256  16.704   6.750
 9173POPC   C3A74165  39.226  16.752   7.050
 9173POPC   C4A74166  39.268  16.780   7.350
 9173POPC   C1B74167  39.292  16.490   6.450
 9173POPC   C2B74168  39.331  16.534   6.750
 9173POPC   C3B74169  39.371  16.509   7.050
 9173POPC   C4B74170  39.295  16.474   7.350
 9174POPC   NC374171  43.860  34.574   5.550
 9174POPC   PO474172  43.911  34.611   5.850
 9174POPC   GL174173  43.924  34.574   6.150
 9174POPC   GL274174  43.860  34.416   6.150
 9174POPC   C1A74175  43.870  34.580   6.450
 9174POPC   D2A74176  43.924  34.565   6.750
 9174POPC   C3A74177  43.885  34.565   7.050
 9174POPC   C4A74178  43.851  34.609   7.350
 9174POPC   C1B74179  43.920  34.359   6.450
 9174POPC   C2B74180  43.923  34.325   6.750
 9174POPC   C3B74181  43.859  34.375   7.050
 9174POPC   C4B74182  43.866  34.369   7.350
 9175POPC   NC374183  38.443   4.289   5.550
 9175POPC   PO474184  38.472   4.312   5.850
 9175POPC   GL174185  38.449   4.314   6.150
 9175POPC   GL274186  38.378   4.274   6.150
 9175POPC   C1A74187  38.422   4.296   6.450
 9175POPC   D2A74188  38.491   4.275   6.750
 9175POPC   C3A74189  38.497   4.366   7.050
 9175POPC   C4A74190  38.485   4.329   7.350
 9175POPC   C1B74191  38.174   4.277   6.450
 9175POPC   C2B74192  38.197   4.329   6.750
 9175POPC   C3B74193  38.248   4.305   7.050
 9175POPC   C4B74194  38.232   4.313   7.350
 9176POPC   NC374195  43.085   0.479   5.550
 9176POPC   PO474196  43.156   0.411   5.850
 9176POPC   GL174197  43.158   0.440   6.150
 9176POPC   GL274198  43.157   0.537   6.150
 9176POPC   C1A74199  43.128   0.424   6.450
 9176POPC   D2A74200  43.065   0.427   6.750
 9176POPC   C3A74201  43.083   0.460   7.050
 9176POPC   C4A74202  43.071   0.422   7.350
 9176POPC   C1B74203  43.131   0.643   6.450
 9176POPC   C2B74204  43.108   0.637   6.750
 9176POPC   C3B74205  43.105   0.653   7.050
 9176POPC   C4B74206  43.158   0.668   7.350
 9177POPC   NC374207  26.818  37.657   5.550
 9177POPC   PO474208  26.833  37.673   5.850
 9177POPC   GL174209  26.829  37.670   6.150
 9177POPC   GL274210  26.837  37.777   6.150
 9177POPC   C1A74211  26.772  37.700   6.450
 9177POPC   D2A74212  26.853  37.663   6.750
 9177POPC   C3A74213  26.861  37.713   7.050
 9177POPC   C4A74214  26.825  37.650   7.350
 9177POPC   C1B74215  26.858  37.887   6.450
 9177POPC   C2B74216  26.812  37.972   6.750
 9177POPC   C3B74217  26.808  37.918   7.050
 9177POPC   C4B74218  26.811  37.968   7.350
 9178POPC   NC374219   5.141  33.788   5.550
 9178POPC   PO474220   5.060  33.786   5.850
 9178POPC   GL174221   5.097  33.778   6.150
 9178POPC   GL274222   5.144  33.632   6.150
 9178POPC   C1A74223   5.112  33.792   6.450
 9178POPC   D2A74224   5.114  33.815   6.750
 9178POPC   C3A74225   5.068  33.781   7.050
 9178POPC   C4A74226   5.118  33.823   7.350
 9178POPC   C1B74227   5.072  33.502   6.450
 9178POPC   C2B74228   5.095  33.517   6.750
 9178POPC   C3B74229   5.151  33.548   7.050
 9178POPC   C4B74230   5.130  33.557   7.350
 9179POPC   NC374231  29.961  18.250   5.550
 9179POPC   PO474232  29.908  18.234   5.850
 9179POPC   GL174233  29.965  18.329   6.150
 9179POPC   GL274234  29.960  18.213   6.150
 9179POPC   C1A74235  29.887  18.259   6.450
 9179POPC   D2A74236  29.890  18.269   6.750
 9179POPC   C3A74237  29.945  18.272   7.050
 9179POPC   C4A74238  29.938  18.237   7.350
 9179POPC   C1B74239  30.098  18.028   6.450
 9179POPC   C2B74240  30.048  18.040   6.750
 9179POPC   C3B74241  30.080  18.025   7.050
 9179POPC   C4B74242  30.048  18.100   7.350
 9180POPC   NC374243  13.645  35.391   5.550
 9180POPC   PO474244  13.612  35.378   5.850
 9180POPC   GL174245  13.584  35.366   6.150
 9180POPC   GL274246  13.536  35.247   6.150
 9180POPC   C1A74247  13.582  35.385   6.450
 9180POPC   D2A74248  13.673  35.398   6.750
 9180POPC   C3A74249  13.647  35.321   7.050
 9180POPC   C4A74250  13.586  35.389   7.350
 9180POPC   C1B74251  13.443  35.223   6.450
 9180POPC   C2B74252  13.388  35.183   6.750
 9180POPC   C3B74253  13.373  35.189   7.050
 9180POPC   C4B74254  13.457  35.217   7.350
 9181POPC   NC374255  31.502   1.258   5.550
 9181POPC   PO474256  31.509   1.185   5.850
 9181POPC   GL174257  31.506   1.235   6.150
 9181POPC   GL274258  31.350   1.171   6.150
 9181POPC   C1A74259  31.460   1.182   6.450
 9181POPC   D2A74260  31.478   1.212   6.750
 9181POPC   C3A74261  31.504   1.228   7.050
 9181POPC   C4A74262  31.432   1.250   7.350
 9181POPC   C1B74263  31.255   1.069   6.450
 9181POPC   C2B74264  31.267   1.134   6.750
 9181POPC   C3B74265  31.259   1.114   7.050
 9181POPC   C4B74266  31.240   1.129   7.350
 9182POPC   NC374267  32.242  25.245   5.550
 9182POPC   PO474268  32.271  25.268   5.850
 9182POPC   GL174269  32.241  25.267   6.150
 9182POPC   GL274270  32.155  25.406   6.150
 9182POPC   C1A74271  32.292  25.278   6.450
 9182POPC   D2A74272  32.249  25.257   6.750
 9182POPC   C3A74273  32.232  25.242   7.050
 9182POPC   C4A74274  32.221  25.295   7.350
 9182POPC   C1B74275  32.055  25.436   6.450
 9182POPC   C2B74276  32.047  25.417   6.750
 9182POPC   C3B74277  32.111  25.477   7.050
 9182POPC   C4B74278  32.094  25.411   7.350
 9183POPC   NC374279  37.690   1.232   5.550
 9183POPC   PO474280  37.629   1.244   5.850
 9183POPC   GL174281  37.684   1.252   6.150
 9183POPC   GL274282  37.729   1.352   6.150
 9183POPC   C1A74283  37.642   1.195   6.450
 9183POPC   D2A74284  37.646   1.256   6.750
 9183POPC   C3A74285  37.711   1.259   7.050
 9183POPC   C4A74286  37.699   1.220   7.350
 9183POPC   C1B74287  37.732   1.512   6.450
 9183POPC   C2B74288  37.704   1.485   6.750
 9183POPC   C3B74289  37.649   1.469   7.050
 9183POPC   C4B74290  37.659   1.465   7.350
 9184POPC   NC374291  10.516  40.745   5.550
 9184POPC   PO474292  10.542  40.833   5.850
 9184POPC   GL174293  10.508  40.741   6.150
 9184POPC   GL274294  10.568  40.850   6.150
 9184POPC   C1A74295  10.479  40.752   6.450
 9184POPC   D2A74296  10.514  40.738   6.750
 9184POPC   C3A74297  10.546  40.790   7.050
 9184POPC   C4A74298  10.538  40.824   7.350
 9184POPC   C1B74299  10.703  40.951   6.450
 9184POPC   C2B74300  10.723  41.007   6.750
 9184POPC   C3B74301  10.682  41.018   7.050
 9184POPC   C4B74302  10.712  41.000   7.350
 9185POPC   NC374303  27.560  18.237   5.550
 9185POPC   PO474304  27.588  18.293   5.850
 9185POPC   GL174305  27.642  18.275   6.150
 9185POPC   GL274306  27.453  18.337   6.150
 9185POPC   C1A74307  27.625  18.240   6.450
 9185POPC   D2A74308  27.575  18.303   6.750
 9185POPC   C3A74309  27.564  18.273   7.050
 9185POPC   C4A74310  27.594  18.311   7.350
 9185POPC   C1B74311  27.386  18.328   6.450
 9185POPC   C2B74312  27.378  18.340   6.750
 9185POPC   C3B74313  27.356  18.283   7.050
 9185POPC   C4B74314  27.299  18.300   7.350
 9186POPC   NC374315   8.945   1.242   5.550
 9186POPC   PO474316   9.006   1.201   5.850
 9186POPC   GL174317   8.973   1.241   6.150
 9186POPC   GL274318   9.064   1.302   6.150
 9186POPC   C1A74319   8.931   1.165   6.450
 9186POPC   D2A74320   8.933   1.182   6.750
 9186POPC   C3A74321   9.011   1.173   7.050
 9186POPC   C4A74322   9.004   1.260   7.350
 9186POPC   C1B74323   9.177   1.301   6.450
 9186POPC   C2B74324   9.240   1.254   6.750
 9186POPC   C3B74325   9.166   1.247   7.050
 9186POPC   C4B74326   9.188   1.258   7.350
 9187POPC   NC374327   5.859   9.786   5.550
 9187POPC   PO474328   5.913   9.705   5.850
 9187POPC   GL174329   5.826   9.725   6.150
 9187POPC   GL274330   6.000   9.843   6.150
 9187POPC   C1A74331   5.899   9.704   6.450
 9187POPC   D2A74332   5.879   9.778   6.750
 9187POPC   C3A74333   5.831   9.762   7.050
 9187POPC   C4A74334   5.871   9.700   7.350
 9187POPC   C1B74335   6.082   9.845   6.450
 9187POPC   C2B74336   6.043   9.857   6.750
 9187POPC   C3B74337   6.123   9.888   7.050
 9187POPC   C4B74338   6.105   9.905   7.350
 9188POPC   NC374339  20.609  36.877   5.550
 9188POPC   PO474340  20.612  36.875   5.850
 9188POPC   GL174341  20.659  36.897   6.150
 9188POPC   GL274342  20.711  36.926   6.150
 9188POPC   C1A74343  20.655  36.887   6.450
 9188POPC   D2A74344  20.631  36.883   6.750
 9188POPC   C3A74345  20.608  36.953   7.050
 9188POPC   C4A74346  20.579  36.896   7.350
 9188POPC   C1B74347  20.827  36.857   6.450
 9188POPC   C2B74348  20.842  36.861   6.750
 9188POPC   C3B74349  20.853  36.927   7.050
 9188POPC   C4B74350  20.840  36.905   7.350
 9189POPC   NC374351   0.482  39.226   5.550
 9189POPC   PO474352   0.483  39.243   5.850
 9189POPC   GL174353   0.476  39.231   6.150
 9189POPC   GL274354   0.324  39.274   6.150
 9189POPC   C1A74355   0.392  39.238   6.450
 9189POPC   D2A74356   0.431  39.188   6.750
 9189POPC   C3A74357   0.389  39.278   7.050
 9189POPC   C4A74358   0.476  39.266   7.350
 9189POPC   C1B74359   0.164  39.217   6.450
 9189POPC   C2B74360   0.158  39.188   6.750
 9189POPC   C3B74361   0.142  39.269   7.050
 9189POPC   C4B74362   0.216  39.194   7.350
 9190POPC   NC374363   1.981  40.784   5.550
 9190POPC   PO474364   2.037  40.811   5.850
 9190POPC   GL174365   1.997  40.776   6.150
 9190POPC   GL274366   1.873  40.676   6.150
 9190POPC   C1A74367   1.954  40.783   6.450
 9190POPC   D2A74368   1.967  40.807   6.750
 9190POPC   C3A74369   1.981  40.770   7.050
 9190POPC   C4A74370   1.998  40.828   7.350
 9190POPC   C1B74371   1.727  40.696   6.450
 9190POPC   C2B74372   1.776  40.632   6.750
 9190POPC   C3B74373   1.771  40.649   7.050
 9190POPC   C4B74374   1.751  40.693   7.350
 9191POPC   NC374375   2.790   3.509   5.550
 9191POPC   PO474376   2.749   3.504   5.850
 9191POPC   GL174377   2.750   3.522   6.150
 9191POPC   GL274378   2.784   3.399   6.150
 9191POPC   C1A74379   2.728   3.545   6.450
 9191POPC   D2A74380   2.724   3.519   6.750
 9191POPC   C3A74381   2.799   3.504   7.050
 9191POPC   C4A74382   2.766   3.551   7.350
 9191POPC   C1B74383   2.800   3.330   6.450
 9191POPC   C2B74384   2.870   3.295   6.750
 9191POPC   C3B74385   2.855   3.335   7.050
 9191POPC   C4B74386   2.860   3.344   7.350
 9192POPC   NC374387  19.019  11.250   5.550
 9192POPC   PO474388  19.043  11.275   5.850
 9192POPC   GL174389  19.016  11.281   6.150
 9192POPC   GL274390  19.203  11.196   6.150
 9192POPC   C1A74391  19.020  11.331   6.450
 9192POPC   D2A74392  19.082  11.307   6.750
 9192POPC   C3A74393  19.062  11.340   7.050
 9192POPC   C4A74394  19.087  11.336   7.350
 9192POPC   C1B74395  19.283  11.162   6.450
 9192POPC   C2B74396  19.275  11.177   6.750
 9192POPC   C3B74397  19.242  11.167   7.050
 9192POPC   C4B74398  19.227  11.162   7.350
 9193POPC   NC374399  18.287  26.031   5.550
 9193POPC   PO474400  18.261  26.067   5.850
 9193POPC   GL174401  18.285  26.014   6.150
 9193POPC   GL274402  18.182  26.121   6.150
 9193POPC   C1A74403  18.269  26.059   6.450
 9193POPC   D2A74404  18.271  26.053   6.750
 9193POPC   C3A74405  18.271  26.083   7.050
 9193POPC   C4A74406  18.315  25.996   7.350
 9193POPC   C1B74407  18.013  26.142   6.450
 9193POPC   C2B74408  18.070  26.110   6.750
 9193POPC   C3B74409  18.077  26.129   7.050
 9193POPC   C4B74410  18.098  26.122   7.350
 9194POPC   NC374411  26.855  26.050   5.550
 9194POPC   PO474412  26.773  26.085   5.850
 9194POPC   GL174413  26.858  26.028   6.150
 9194POPC   GL274414  26.810  26.153   6.150
 9194POPC   C1A74415  26.830  26.015   6.450
 9194POPC   D2A74416  26.775  26.038   6.750
 9194POPC   C3A74417  26.857  26.023   7.050
 9194POPC   C4A74418  26.801  26.019   7.350
 9194POPC   C1B74419  26.730  26.236   6.450
 9194POPC   C2B74420  26.724  26.293   6.750
 9194POPC   C3B74421  26.717  26.230   7.050
 9194POPC   C4B74422  26.695  26.245   7.350
 9195POPC   NC374423  27.608  19.846   5.550
 9195POPC   PO474424  27.623  19.866   5.850
 9195POPC   GL174425  27.558  19.853   6.150
 9195POPC   GL274426  27.699  19.872   6.150
 9195POPC   C1A74427  27.632  19.799   6.450
 9195POPC   D2A74428  27.592  19.790   6.750
 9195POPC   C3A74429  27.576  19.788   7.050
 9195POPC   C4A74430  27.643  19.847   7.350
 9195POPC   C1B74431  27.887  19.866   6.450
 9195POPC   C2B74432  27.797  19.933   6.750
 9195POPC   C3B74433  27.843  19.836   7.050
 9195POPC   C4B74434  27.869  19.910   7.350
 9196POPC   NC374435  17.481   9.722   5.550
 9196POPC   PO474436  17.519   9.782   5.850
 9196POPC   GL174437  17.514   9.760   6.150
 9196POPC   GL274438  17.598   9.754   6.150
 9196POPC   C1A74439  17.478   9.756   6.450
 9196POPC   D2A74440  17.512   9.706   6.750
 9196POPC   C3A74441  17.521   9.721   7.050
 9196POPC   C4A74442  17.477   9.739   7.350
 9196POPC   C1B74443  17.754   9.880   6.450
 9196POPC   C2B74444  17.740   9.877   6.750
 9196POPC   C3B74445  17.717   9.818   7.050
 9196POPC   C4B74446  17.748   9.857   7.350
 9197POPC   NC374447  43.140  22.180   5.550
 9197POPC   PO474448  43.095  22.115   5.850
 9197POPC   GL174449  43.139  22.121   6.150
 9197POPC   GL274450  43.232  22.216   6.150
 9197POPC   C1A74451  43.077  22.172   6.450
 9197POPC   D2A74452  43.065  22.170   6.750
 9197POPC   C3A74453  43.080  22.129   7.050
 9197POPC   C4A74454  43.138  22.171   7.350
 9197POPC   C1B74455  43.236  22.356   6.450
 9197POPC   C2B74456  43.217  22.331   6.750
 9197POPC   C3B74457  43.284  22.365   7.050
 9197POPC   C4B74458  43.217  22.399   7.350
 9198POPC   NC374459  20.623  10.535   5.550
 9198POPC   PO474460  20.580  10.477   5.850
 9198POPC   GL174461  20.598  10.481   6.150
 9198POPC   GL274462  20.473  10.463   6.150
 9198POPC   C1A74463  20.644  10.479   6.450
 9198POPC   D2A74464  20.580  10.545   6.750
 9198POPC   C3A74465  20.581  10.500   7.050
 9198POPC   C4A74466  20.601  10.539   7.350
 9198POPC   C1B74467  20.340  10.398   6.450
 9198POPC   C2B74468  20.367  10.429   6.750
 9198POPC   C3B74469  20.340  10.408   7.050
 9198POPC   C4B74470  20.388  10.425   7.350
 9199POPC   NC374471  43.873  19.874   5.550
 9199POPC   PO474472  43.920  19.803   5.850
 9199POPC   GL174473  43.884  19.874   6.150
 9199POPC   GL274474  43.857  19.975   6.150
 9199POPC   C1A74475  43.881  19.838   6.450
 9199POPC   D2A74476  43.912  19.816   6.750
 9199POPC   C3A74477  43.891  19.815   7.050
 9199POPC   C4A74478  43.844  19.827   7.350
 9199POPC   C1B74479  43.856  20.043   6.450
 9199POPC   C2B74480  43.843  20.101   6.750
 9199POPC   C3B74481  43.882  20.078   7.050
 9199POPC   C4B74482  43.877  20.082   7.350
 9200POPC   NC374483  29.890  32.202   5.550
 9200POPC   PO474484  29.904  32.204   5.850
 9200POPC   GL174485  29.922  32.271   6.150
 9200POPC   GL274486  29.917  32.104   6.150
 9200POPC   C1A74487  29.903  32.292   6.450
 9200POPC   D2A74488  29.966  32.243   6.750
 9200POPC   C3A74489  29.874  32.246   7.050
 9200POPC   C4A74490  29.961  32.250   7.350
 9200POPC   C1B74491  29.825  31.967   6.450
 9200POPC   C2B74492  29.885  32.035   6.750
 9200POPC   C3B74493  29.891  31.995   7.050
 9200POPC   C4B74494  29.809  32.003   7.350
 9201POPC   NC374495  17.486   0.440   5.550
 9201POPC   PO474496  17.513   0.417   5.850
 9201POPC   GL174497  17.476   0.417   6.150
 9201POPC   GL274498  17.570   0.530   6.150
 9201POPC   C1A74499  17.532   0.435   6.450
 9201POPC   D2A74500  17.533   0.479   6.750
 9201POPC   C3A74501  17.491   0.411   7.050
 9201POPC   C4A74502  17.491   0.459   7.350
 9201POPC   C1B74503  17.714   0.539   6.450
 9201POPC   C2B74504  17.676   0.557   6.750
 9201POPC   C3B74505  17.695   0.537   7.050
 9201POPC   C4B74506  17.686   0.573   7.350
 9202POPC   NC374507  33.806   4.336   5.550
 9202POPC   PO474508  33.783   4.318   5.850
 9202POPC   GL174509  33.793   4.320   6.150
 9202POPC   GL274510  33.712   4.229   6.150
 9202POPC   C1A74511  33.756   4.293   6.450
 9202POPC   D2A74512  33.822   4.282   6.750
 9202POPC   C3A74513  33.800   4.361   7.050
 9202POPC   C4A74514  33.811   4.311   7.350
 9202POPC   C1B74515  33.635   4.121   6.450
 9202POPC   C2B74516  33.608   4.174   6.750
 9202POPC   C3B74517  33.568   4.128   7.050
 9202POPC   C4B74518  33.646   4.121   7.350
 9203POPC   NC374519  26.800   2.767   5.550
 9203POPC   PO474520  26.788   2.742   5.850
 9203POPC   GL174521  26.855   2.809   6.150
 9203POPC   GL274522  26.938   2.739   6.150
 9203POPC   C1A74523  26.832   2.801   6.450
 9203POPC   D2A74524  26.788   2.803   6.750
 9203POPC   C3A74525  26.859   2.764   7.050
 9203POPC   C4A74526  26.837   2.755   7.350
 9203POPC   C1B74527  27.013   2.649   6.450
 9203POPC   C2B74528  27.040   2.645   6.750
 9203POPC   C3B74529  27.042   2.676   7.050
 9203POPC   C4B74530  27.073   2.643   7.350
 9204POPC   NC374531  26.861  34.611   5.550
 9204POPC   PO474532  26.770  34.527   5.850
 9204POPC   GL174533  26.770  34.564   6.150
 9204POPC   GL274534  26.787  34.520   6.150
 9204POPC   C1A74535  26.806  34.559   6.450
 9204POPC   D2A74536  26.858  34.560   6.750
 9204POPC   C3A74537  26.840  34.548   7.050
 9204POPC   C4A74538  26.834  34.622   7.350
 9204POPC   C1B74539  26.693  34.361   6.450
 9204POPC   C2B74540  26.665  34.364   6.750
 9204POPC   C3B74541  26.691  34.335   7.050
 9204POPC   C4B74542  26.699  34.363   7.350
 9205POPC   NC374543   2.754  28.344   5.550
 9205POPC   PO474544   2.777  28.413   5.850
 9205POPC   GL174545   2.719  28.354   6.150
 9205POPC   GL274546   2.836  28.327   6.150
 9205POPC   C1A74547   2.788  28.364   6.450
 9205POPC   D2A74548   2.761  28.331   6.750
 9205POPC   C3A74549   2.797  28.329   7.050
 9205POPC   C4A74550   2.808  28.416   7.350
 9205POPC   C1B74551   2.935  28.242   6.450
 9205POPC   C2B74552   2.958  28.199   6.750
 9205POPC   C3B74553   2.951  28.193   7.050
 9205POPC   C4B74554   3.012  28.223   7.350
 9206POPC   NC374555   5.853  43.916   5.550
 9206POPC   PO474556   5.870  43.840   5.850
 9206POPC   GL174557   5.842  43.858   6.150
 9206POPC   GL274558   5.759  43.946   6.150
 9206POPC   C1A74559   5.821  43.874   6.450
 9206POPC   D2A74560   5.919  43.891   6.750
 9206POPC   C3A74561   5.865  43.890   7.050
 9206POPC   C4A74562   5.859  43.908   7.350
 9206POPC   C1B74563   5.619  43.999   6.450
 9206POPC   C2B74564   5.623  44.051   6.750
 9206POPC   C3B74565   5.675  44.034   7.050
 9206POPC   C4B74566   5.690  44.059   7.350
 9207POPC   NC374567  19.055  40.003   5.550
 9207POPC   PO474568  19.105  39.975   5.850
 9207POPC   GL174569  19.029  39.973   6.150
 9207POPC   GL274570  19.096  39.920   6.150
 9207POPC   C1A74571  19.106  40.029   6.450
 9207POPC   D2A74572  19.012  40.014   6.750
 9207POPC   C3A74573  19.075  39.996   7.050
 9207POPC   C4A74574  19.012  39.976   7.350
 9207POPC   C1B74575  19.181  39.744   6.450
 9207POPC   C2B74576  19.122  39.737   6.750
 9207POPC   C3B74577  19.163  39.821   7.050
 9207POPC   C4B74578  19.102  39.798   7.350
 9208POPC   NC374579  33.803   8.229   5.550
 9208POPC   PO474580  33.784   8.204   5.850
 9208POPC   GL174581  33.804   8.177   6.150
 9208POPC   GL274582  33.711   8.217   6.150
 9208POPC   C1A74583  33.802   8.189   6.450
 9208POPC   D2A74584  33.772   8.206   6.750
 9208POPC   C3A74585  33.832   8.184   7.050
 9208POPC   C4A74586  33.843   8.233   7.350
 9208POPC   C1B74587  33.516   8.162   6.450
 9208POPC   C2B74588  33.522   8.219   6.750
 9208POPC   C3B74589  33.568   8.186   7.050
 9208POPC   C4B74590  33.548   8.217   7.350
 9209POPC   NC374591  33.796  17.530   5.550
 9209POPC   PO474592  33.777  17.510   5.850
 9209POPC   GL174593  33.810  17.535   6.150
 9209POPC   GL274594  33.856  17.381   6.150
 9209POPC   C1A74595  33.767  17.522   6.450
 9209POPC   D2A74596  33.781  17.490   6.750
 9209POPC   C3A74597  33.793  17.479   7.050
 9209POPC   C4A74598  33.848  17.495   7.350
 9209POPC   C1B74599  33.805  17.259   6.450
 9209POPC   C2B74600  33.864  17.219   6.750
 9209POPC   C3B74601  33.806  17.306   7.050
 9209POPC   C4B74602  33.818  17.252   7.350
 9210POPC   NC374603  31.439  29.947   5.550
 9210POPC   PO474604  31.447  29.914   5.850
 9210POPC   GL174605  31.497  29.872   6.150
 9210POPC   GL274606  31.629  29.919   6.150
 9210POPC   C1A74607  31.460  29.916   6.450
 9210POPC   D2A74608  31.503  29.907   6.750
 9210POPC   C3A74609  31.488  29.967   7.050
 9210POPC   C4A74610  31.513  29.894   7.350
 9210POPC   C1B74611  31.713  29.970   6.450
 9210POPC   C2B74612  31.699  29.952   6.750
 9210POPC   C3B74613  31.681  29.994   7.050
 9210POPC   C4B74614  31.683  30.031   7.350
 9211POPC   NC374615  19.075  38.443   5.550
 9211POPC   PO474616  19.081  38.440   5.850
 9211POPC   GL174617  19.030  38.411   6.150
 9211POPC   GL274618  18.999  38.565   6.150
 9211POPC   C1A74619  19.085  38.447   6.450
 9211POPC   D2A74620  19.011  38.481   6.750
 9211POPC   C3A74621  19.100  38.481   7.050
 9211POPC   C4A74622  19.055  38.419   7.350
 9211POPC   C1B74623  19.020  38.685   6.450
 9211POPC   C2B74624  18.961  38.731   6.750
 9211POPC   C3B74625  18.933  38.651   7.050
 9211POPC   C4B74626  18.947  38.652   7.350
 9212POPC   NC374627  33.765  32.262   5.550
 9212POPC   PO474628  33.820  32.210   5.850
 9212POPC   GL174629  33.754  32.211   6.150
 9212POPC   GL274630  33.911  32.162   6.150
 9212POPC   C1A74631  33.819  32.243   6.450
 9212POPC   D2A74632  33.831  32.233   6.750
 9212POPC   C3A74633  33.783  32.267   7.050
 9212POPC   C4A74634  33.845  32.219   7.350
 9212POPC   C1B74635  34.031  32.123   6.450
 9212POPC   C2B74636  33.992  32.140   6.750
 9212POPC   C3B74637  33.995  32.199   7.050
 9212POPC   C4B74638  34.086  32.152   7.350
 9213POPC   NC374639  39.997  26.084   5.550
 9213POPC   PO474640  40.031  26.078   5.850
 9213POPC   GL174641  40.026  26.078   6.150
 9213POPC   GL274642  39.886  25.926   6.150
 9213POPC   C1A74643  39.965  26.047   6.450
 9213POPC   D2A74644  39.978  26.035   6.750
 9213POPC   C3A74645  40.052  25.998   7.050
 9213POPC   C4A74646  39.984  26.017   7.350
 9213POPC   C1B74647  39.763  25.933   6.450
 9213POPC   C2B74648  39.850  25.932   6.750
 9213POPC   C3B74649  39.786  25.869   7.050
 9213POPC   C4B74650  39.859  25.918   7.350
 9214POPC   NC374651  42.321   8.930   5.550
 9214POPC   PO474652  42.353   8.968   5.850
 9214POPC   GL174653  42.378   9.007   6.150
 9214POPC   GL274654  42.441   8.949   6.150
 9214POPC   C1A74655  42.286   8.964   6.450
 9214POPC   D2A74656  42.299   9.011   6.750
 9214POPC   C3A74657  42.366   8.998   7.050
 9214POPC   C4A74658  42.287   8.957   7.350
 9214POPC   C1B74659  42.614   8.898   6.450
 9214POPC   C2B74660  42.551   8.879   6.750
 9214POPC   C3B74661  42.618   8.874   7.050
 9214POPC   C4B74662  42.532   8.910   7.350
 9215POPC   NC374663   7.446  26.780   5.550
 9215POPC   PO474664   7.458  26.782   5.850
 9215POPC   GL174665   7.436  26.782   6.150
 9215POPC   GL274666   7.483  26.699   6.150
 9215POPC   C1A74667   7.415  26.805   6.450
 9215POPC   D2A74668   7.378  26.786   6.750
 9215POPC   C3A74669   7.414  26.828   7.050
 9215POPC   C4A74670   7.443  26.800   7.350
 9215POPC   C1B74671   7.580  26.657   6.450
 9215POPC   C2B74672   7.632  26.583   6.750
 9215POPC   C3B74673   7.573  26.680   7.050
 9215POPC   C4B74674   7.605  26.679   7.350
 9216POPC   NC374675  21.399   5.120   5.550
 9216POPC   PO474676  21.404   5.065   5.850
 9216POPC   GL174677  21.355   5.044   6.150
 9216POPC   GL274678  21.302   5.179   6.150
 9216POPC   C1A74679  21.394   5.114   6.450
 9216POPC   D2A74680  21.340   5.101   6.750
 9216POPC   C3A74681  21.362   5.106   7.050
 9216POPC   C4A74682  21.430   5.132   7.350
 9216POPC   C1B74683  21.302   5.353   6.450
 9216POPC   C2B74684  21.238   5.296   6.750
 9216POPC   C3B74685  21.234   5.344   7.050
 9216POPC   C4B74686  21.289   5.285   7.350
 9217POPC   NC374687  37.652  39.253   5.550
 9217POPC   PO474688  37.642  39.216   5.850
 9217POPC   GL174689  37.661  39.182   6.150
 9217POPC   GL274690  37.809  39.314   6.150
 9217POPC   C1A74691  37.720  39.254   6.450
 9217POPC   D2A74692  37.657  39.206   6.750
 9217POPC   C3A74693  37.715  39.272   7.050
 9217POPC   C4A74694  37.645  39.274   7.350
 9217POPC   C1B74695  37.867  39.322   6.450
 9217POPC   C2B74696  37.869  39.384   6.750
 9217POPC   C3B74697  37.848  39.410   7.050
 9217POPC   C4B74698  37.919  39.354   7.350
 9218POPC   NC374699  12.049   0.405   5.550
 9218POPC   PO474700  12.044   0.449   5.850
 9218POPC   GL174701  12.106   0.478   6.150
 9218POPC   GL274702  12.204   0.502   6.150
 9218POPC   C1A74703  12.045   0.397   6.450
 9218POPC   D2A74704  12.117   0.471   6.750
 9218POPC   C3A74705  12.050   0.456   7.050
 9218POPC   C4A74706  12.086   0.471   7.350
 9218POPC   C1B74707  12.223   0.665   6.450
 9218POPC   C2B74708  12.297   0.614   6.750
 9218POPC   C3B74709  12.203   0.650   7.050
 9218POPC   C4B74710  12.224   0.604   7.350
 9219POPC   NC374711  25.301  14.392   5.550
 9219POPC   PO474712  25.250  14.394   5.850
 9219POPC   GL174713  25.302  14.418   6.150
 9219POPC   GL274714  25.334  14.318   6.150
 9219POPC   C1A74715  25.222  14.438   6.450
 9219POPC   D2A74716  25.229  14.406   6.750
 9219POPC   C3A74717  25.232  14.401   7.050
 9219POPC   C4A74718  25.271  14.427   7.350
 9219POPC   C1B74719  25.536  14.250   6.450
 9219POPC   C2B74720  25.530  14.308   6.750
 9219POPC   C3B74721  25.479  14.323   7.050
 9219POPC   C4B74722  25.461  14.328   7.350
 9220POPC   NC374723  17.501  28.402   5.550
 9220POPC   PO474724  17.476  28.364   5.850
 9220POPC   GL174725  17.499  28.389   6.150
 9220POPC   GL274726  17.485  28.249   6.150
 9220POPC   C1A74727  17.464  28.342   6.450
 9220POPC   D2A74728  17.467  28.324   6.750
 9220POPC   C3A74729  17.494  28.411   7.050
 9220POPC   C4A74730  17.474  28.413   7.350
 9220POPC   C1B74731  17.456  28.113   6.450
 9220POPC   C2B74732  17.435  28.082   6.750
 9220POPC   C3B74733  17.480  28.084   7.050
 9220POPC   C4B74734  17.431  28.084   7.350
 9221POPC   NC374735  41.601  21.404   5.550
 9221POPC   PO474736  41.511  21.413   5.850
 9221POPC   GL174737  41.542  21.337   6.150
 9221POPC   GL274738  41.695  21.359   6.150
 9221POPC   C1A74739  41.571  21.430   6.450
 9221POPC   D2A74740  41.572  21.435   6.750
 9221POPC   C3A74741  41.531  21.426   7.050
 9221POPC   C4A74742  41.574  21.384   7.350
 9221POPC   C1B74743  41.780  21.276   6.450
 9221POPC   C2B74744  41.761  21.314   6.750
 9221POPC   C3B74745  41.749  21.239   7.050
 9221POPC   C4B74746  41.824  21.230   7.350
 9222POPC   NC374747  15.939  25.302   5.550
 9222POPC   PO474748  15.935  25.244   5.850
 9222POPC   GL174749  15.991  25.262   6.150
 9222POPC   GL274750  15.809  25.328   6.150
 9222POPC   C1A74751  15.912  25.257   6.450
 9222POPC   D2A74752  15.921  25.225   6.750
 9222POPC   C3A74753  15.930  25.264   7.050
 9222POPC   C4A74754  15.968  25.250   7.350
 9222POPC   C1B74755  15.753  25.369   6.450
 9222POPC   C2B74756  15.759  25.362   6.750
 9222POPC   C3B74757  15.714  25.410   7.050
 9222POPC   C4B74758  15.716  25.401   7.350
 9223POPC   NC374759  43.090   5.049   5.550
 9223POPC   PO474760  43.071   5.091   5.850
 9223POPC   GL174761  43.140   5.139   6.150
 9223POPC   GL274762  42.969   5.115   6.150
 9223POPC   C1A74763  43.100   5.129   6.450
 9223POPC   D2A74764  43.149   5.095   6.750
 9223POPC   C3A74765  43.137   5.123   7.050
 9223POPC   C4A74766  43.151   5.121   7.350
 9223POPC   C1B74767  42.902   5.223   6.450
 9223POPC   C2B74768  42.911   5.177   6.750
 9223POPC   C3B74769  42.851   5.225   7.050
 9223POPC   C4B74770  42.848   5.232   7.350
 9224POPC   NC374771  15.212  22.170   5.550
 9224POPC   PO474772  15.221  22.120   5.850
 9224POPC   GL174773  15.178  22.142   6.150
 9224POPC   GL274774  15.224  22.092   6.150
 9224POPC   C1A74775  15.199  22.176   6.450
 9224POPC   D2A74776  15.215  22.162   6.750
 9224POPC   C3A74777  15.198  22.115   7.050
 9224POPC   C4A74778  15.138  22.121   7.350
 9224POPC   C1B74779  15.351  21.937   6.450
 9224POPC   C2B74780  15.333  21.954   6.750
 9224POPC   C3B74781  15.276  21.979   7.050
 9224POPC   C4B74782  15.284  21.933   7.350
 9225POPC   NC374783  36.878   1.985   5.550
 9225POPC   PO474784  36.890   2.007   5.850
 9225POPC   GL174785  36.942   1.986   6.150
 9225POPC   GL274786  36.764   1.974   6.150
 9225POPC   C1A74787  36.948   1.951   6.450
 9225POPC   D2A74788  36.933   1.980   6.750
 9225POPC   C3A74789  36.953   1.967   7.050
 9225POPC   C4A74790  36.935   1.971   7.350
 9225POPC   C1B74791  36.618   1.942   6.450
 9225POPC   C2B74792  36.687   1.890   6.750
 9225POPC   C3B74793  36.672   1.977   7.050
 9225POPC   C4B74794  36.658   1.953   7.350
 9226POPC   NC374795  29.110  22.954   5.550
 9226POPC   PO474796  29.142  22.979   5.850
 9226POPC   GL174797  29.166  22.976   6.150
 9226POPC   GL274798  29.271  22.884   6.150
 9226POPC   C1A74799  29.131  22.917   6.450
 9226POPC   D2A74800  29.187  22.958   6.750
 9226POPC   C3A74801  29.177  22.943   7.050
 9226POPC   C4A74802  29.182  22.983   7.350
 9226POPC   C1B74803  29.352  22.901   6.450
 9226POPC   C2B74804  29.429  22.910   6.750
 9226POPC   C3B74805  29.384  22.899   7.050
 9226POPC   C4B74806  29.385  22.896   7.350
 9227POPC   NC374807   3.555  19.075   5.550
 9227POPC   PO474808   3.520  19.029   5.850
 9227POPC   GL174809   3.531  19.038   6.150
 9227POPC   GL274810   3.473  18.994   6.150
 9227POPC   C1A74811   3.508  19.033   6.450
 9227POPC   D2A74812   3.537  19.102   6.750
 9227POPC   C3A74813   3.497  19.010   7.050
 9227POPC   C4A74814   3.545  19.028   7.350
 9227POPC   C1B74815   3.319  18.959   6.450
 9227POPC   C2B74816   3.308  18.944   6.750
 9227POPC   C3B74817   3.304  18.955   7.050
 9227POPC   C4B74818   3.350  18.957   7.350
 9228POPC   NC374819  29.118  10.497   5.550
 9228POPC   PO474820  29.153  10.488   5.850
 9228POPC   GL174821  29.129  10.504   6.150
 9228POPC   GL274822  28.981  10.515   6.150
 9228POPC   C1A74823  29.140  10.548   6.450
 9228POPC   D2A74824  29.187  10.477   6.750
 9228POPC   C3A74825  29.159  10.561   7.050
 9228POPC   C4A74826  29.181  10.484   7.350
 9228POPC   C1B74827  28.930  10.552   6.450
 9228POPC   C2B74828  28.893  10.534   6.750
 9228POPC   C3B74829  28.846  10.545   7.050
 9228POPC   C4B74830  28.934  10.546   7.350
 9229POPC   NC374831  18.288  15.969   5.550
 9229POPC   PO474832  18.290  15.909   5.850
 9229POPC   GL174833  18.329  15.979   6.150
 9229POPC   GL274834  18.432  15.924   6.150
 9229POPC   C1A74835  18.316  16.005   6.450
 9229POPC   D2A74836  18.241  15.987   6.750
 9229POPC   C3A74837  18.327  15.996   7.050
 9229POPC   C4A74838  18.326  15.996   7.350
 9229POPC   C1B74839  18.506  15.814   6.450
 9229POPC   C2B74840  18.515  15.845   6.750
 9229POPC   C3B74841  18.529  15.870   7.050
 9229POPC   C4B74842  18.509  15.839   7.350
 9230POPC   NC374843  33.779  18.259   5.550
 9230POPC   PO474844  33.839  18.320   5.850
 9230POPC   GL174845  33.811  18.280   6.150
 9230POPC   GL274846  33.641  18.363   6.150
 9230POPC   C1A74847  33.806  18.286   6.450
 9230POPC   D2A74848  33.842  18.297   6.750
 9230POPC   C3A74849  33.808  18.293   7.050
 9230POPC   C4A74850  33.843  18.265   7.350
 9230POPC   C1B74851  33.559  18.383   6.450
 9230POPC   C2B74852  33.621  18.425   6.750
 9230POPC   C3B74853  33.541  18.429   7.050
 9230POPC   C4B74854  33.583  18.358   7.350
 9231POPC   NC374855   9.740  13.635   5.550
 9231POPC   PO474856   9.783  13.598   5.850
 9231POPC   GL174857   9.718  13.618   6.150
 9231POPC   GL274858   9.620  13.690   6.150
 9231POPC   C1A74859   9.726  13.637   6.450
 9231POPC   D2A74860   9.703  13.663   6.750
 9231POPC   C3A74861   9.793  13.648   7.050
 9231POPC   C4A74862   9.789  13.664   7.350
 9231POPC   C1B74863   9.625  13.825   6.450
 9231POPC   C2B74864   9.556  13.805   6.750
 9231POPC   C3B74865   9.541  13.786   7.050
 9231POPC   C4B74866   9.593  13.767   7.350
 9232POPC   NC374867  12.808  27.597   5.550
 9232POPC   PO474868  12.848  27.559   5.850
 9232POPC   GL174869  12.854  27.559   6.150
 9232POPC   GL274870  12.813  27.735   6.150
 9232POPC   C1A74871  12.897  27.619   6.450
 9232POPC   D2A74872  12.864  27.549   6.750
 9232POPC   C3A74873  12.821  27.580   7.050
 9232POPC   C4A74874  12.811  27.621   7.350
 9232POPC   C1B74875  12.756  27.838   6.450
 9232POPC   C2B74876  12.721  27.784   6.750
 9232POPC   C3B74877  12.717  27.869   7.050
 9232POPC   C4B74878  12.732  27.795   7.350
 9233POPC   NC374879  34.526  39.211   5.550
 9233POPC   PO474880  34.590  39.216   5.850
 9233POPC   GL174881  34.587  39.259   6.150
 9233POPC   GL274882  34.694  39.237   6.150
 9233POPC   C1A74883  34.560  39.194   6.450
 9233POPC   D2A74884  34.590  39.218   6.750
 9233POPC   C3A74885  34.554  39.210   7.050
 9233POPC   C4A74886  34.574  39.267   7.350
 9233POPC   C1B74887  34.843  39.218   6.450
 9233POPC   C2B74888  34.836  39.247   6.750
 9233POPC   C3B74889  34.800  39.183   7.050
 9233POPC   C4B74890  34.865  39.224   7.350
 9234POPC   NC374891  14.436  40.024   5.550
 9234POPC   PO474892  14.356  40.048   5.850
 9234POPC   GL174893  14.371  40.024   6.150
 9234POPC   GL274894  14.485  40.145   6.150
 9234POPC   C1A74895  14.426  40.005   6.450
 9234POPC   D2A74896  14.441  40.047   6.750
 9234POPC   C3A74897  14.430  40.028   7.050
 9234POPC   C4A74898  14.420  40.031   7.350
 9234POPC   C1B74899  14.586  40.239   6.450
 9234POPC   C2B74900  14.546  40.169   6.750
 9234POPC   C3B74901  14.529  40.164   7.050
 9234POPC   C4B74902  14.584  40.175   7.350
 9235POPC   NC374903  16.760  21.428   5.550
 9235POPC   PO474904  16.709  21.424   5.850
 9235POPC   GL174905  16.746  21.347   6.150
 9235POPC   GL274906  16.603  21.260   6.150
 9235POPC   C1A74907  16.768  21.431   6.450
 9235POPC   D2A74908  16.729  21.397   6.750
 9235POPC   C3A74909  16.760  21.429   7.050
 9235POPC   C4A74910  16.770  21.370   7.350
 9235POPC   C1B74911  16.509  21.264   6.450
 9235POPC   C2B74912  16.549  21.185   6.750
 9235POPC   C3B74913  16.551  21.243   7.050
 9235POPC   C4B74914  16.525  21.254   7.350
 9236POPC   NC374915  16.682  41.578   5.550
 9236POPC   PO474916  16.703  41.514   5.850
 9236POPC   GL174917  16.755  41.567   6.150
 9236POPC   GL274918  16.849  41.590   6.150
 9236POPC   C1A74919  16.744  41.603   6.450
 9236POPC   D2A74920  16.693  41.518   6.750
 9236POPC   C3A74921  16.762  41.525   7.050
 9236POPC   C4A74922  16.701  41.545   7.350
 9236POPC   C1B74923  16.942  41.686   6.450
 9236POPC   C2B74924  16.951  41.711   6.750
 9236POPC   C3B74925  16.951  41.736   7.050
 9236POPC   C4B74926  16.936  41.727   7.350
 9237POPC   NC374927  15.956  22.910   5.550
 9237POPC   PO474928  15.994  22.973   5.850
 9237POPC   GL174929  15.934  22.957   6.150
 9237POPC   GL274930  15.898  22.874   6.150
 9237POPC   C1A74931  15.991  22.912   6.450
 9237POPC   D2A74932  15.990  22.951   6.750
 9237POPC   C3A74933  15.934  22.907   7.050
 9237POPC   C4A74934  15.940  22.957   7.350
 9237POPC   C1B74935  15.748  22.808   6.450
 9237POPC   C2B74936  15.757  22.798   6.750
 9237POPC   C3B74937  15.759  22.777   7.050
 9237POPC   C4B74938  15.783  22.748   7.350
 9238POPC   NC374939  16.707  12.047   5.550
 9238POPC   PO474940  16.696  12.056   5.850
 9238POPC   GL174941  16.736  12.095   6.150
 9238POPC   GL274942  16.644  11.981   6.150
 9238POPC   C1A74943  16.781  12.094   6.450
 9238POPC   D2A74944  16.753  12.111   6.750
 9238POPC   C3A74945  16.715  12.112   7.050
 9238POPC   C4A74946  16.742  12.112   7.350
 9238POPC   C1B74947  16.607  11.827   6.450
 9238POPC   C2B74948  16.677  11.855   6.750
 9238POPC   C3B74949  16.598  11.802   7.050
 9238POPC   C4B74950  16.634  11.878   7.350
 9239POPC   NC374951  23.669  25.240   5.550
 9239POPC   PO474952  23.726  25.309   5.850
 9239POPC   GL174953  23.708  25.229   6.150
 9239POPC   GL274954  23.773  25.230   6.150
 9239POPC   C1A74955  23.709  25.235   6.450
 9239POPC   D2A74956  23.692  25.222   6.750
 9239POPC   C3A74957  23.714  25.268   7.050
 9239POPC   C4A74958  23.668  25.239   7.350
 9239POPC   C1B74959  23.923  25.075   6.450
 9239POPC   C2B74960  23.865  25.143   6.750
 9239POPC   C3B74961  23.862  25.146   7.050
 9239POPC   C4B74962  23.854  25.106   7.350
 9240POPC   NC374963   4.330  37.637   5.550
 9240POPC   PO474964   4.361  37.702   5.850
 9240POPC   GL174965   4.365  37.697   6.150
 9240POPC   GL274966   4.419  37.657   6.150
 9240POPC   C1A74967   4.356  37.695   6.450
 9240POPC   D2A74968   4.275  37.676   6.750
 9240POPC   C3A74969   4.279  37.633   7.050
 9240POPC   C4A74970   4.294  37.632   7.350
 9240POPC   C1B74971   4.574  37.553   6.450
 9240POPC   C2B74972   4.585  37.581   6.750
 9240POPC   C3B74973   4.544  37.616   7.050
 9240POPC   C4B74974   4.582  37.546   7.350
 9241POPC   NC374975  31.484  12.854   5.550
 9241POPC   PO474976  31.514  12.859   5.850
 9241POPC   GL174977  31.462  12.894   6.150
 9241POPC   GL274978  31.431  12.987   6.150
 9241POPC   C1A74979  31.509  12.853   6.450
 9241POPC   D2A74980  31.452  12.868   6.750
 9241POPC   C3A74981  31.497  12.810   7.050
 9241POPC   C4A74982  31.434  12.850   7.350
 9241POPC   C1B74983  31.490  13.081   6.450
 9241POPC   C2B74984  31.430  13.119   6.750
 9241POPC   C3B74985  31.489  13.137   7.050
 9241POPC   C4B74986  31.418  13.074   7.350
 9242POPC   NC374987  20.583  31.479   5.550
 9242POPC   PO474988  20.648  31.508   5.850
 9242POPC   GL174989  20.636  31.459   6.150
 9242POPC   GL274990  20.567  31.341   6.150
 9242POPC   C1A74991  20.592  31.462   6.450
 9242POPC   D2A74992  20.599  31.511   6.750
 9242POPC   C3A74993  20.575  31.475   7.050
 9242POPC   C4A74994  20.568  31.487   7.350
 9242POPC   C1B74995  20.570  31.225   6.450
 9242POPC   C2B74996  20.609  31.271   6.750
 9242POPC   C3B74997  20.578  31.225   7.050
 9242POPC   C4B74998  20.638  31.198   7.350
 9243POPC   NC374999   0.448   2.736   5.550
 9243POPC   PO475000   0.468   2.736   5.850
 9243POPC   GL175001   0.404   2.742   6.150
 9243POPC   GL275002   0.340   2.806   6.150
 9243POPC   C1A75003   0.406   2.757   6.450
 9243POPC   D2A75004   0.448   2.782   6.750
 9243POPC   C3A75005   0.431   2.792   7.050
 9243POPC   C4A75006   0.428   2.718   7.350
 9243POPC   C1B75007   0.212   2.824   6.450
 9243POPC   C2B75008   0.219   2.764   6.750
 9243POPC   C3B75009   0.185   2.829   7.050
 9243POPC   C4B75010   0.186   2.781   7.350
 9244POPC   NC375011   2.796  39.236   5.550
 9244POPC   PO475012   2.734  39.200   5.850
 9244POPC   GL175013   2.779  39.224   6.150
 9244POPC   GL275014   2.731  39.385   6.150
 9244POPC   C1A75015   2.815  39.199   6.450
 9244POPC   D2A75016   2.744  39.281   6.750
 9244POPC   C3A75017   2.786  39.247   7.050
 9244POPC   C4A75018   2.753  39.239   7.350
 9244POPC   C1B75019   2.658  39.445   6.450
 9244POPC   C2B75020   2.708  39.461   6.750
 9244POPC   C3B75021   2.657  39.465   7.050
 9244POPC   C4B75022   2.740  39.482   7.350
 9245POPC   NC375023  15.156  33.051   5.550
 9245POPC   PO475024  15.144  32.975   5.850
 9245POPC   GL175025  15.194  33.029   6.150
 9245POPC   GL275026  15.170  33.196   6.150
 9245POPC   C1A75027  15.142  33.042   6.450
 9245POPC   D2A75028  15.150  32.982   6.750
 9245POPC   C3A75029  15.170  33.019   7.050
 9245POPC   C4A75030  15.159  32.988   7.350
 9245POPC   C1B75031  15.200  33.240   6.450
 9245POPC   C2B75032  15.170  33.234   6.750
 9245POPC   C3B75033  15.193  33.289   7.050
 9245POPC   C4B75034  15.144  33.274   7.350
 9246POPC   NC375035  29.899  36.123   5.550
 9246POPC   PO475036  29.956  36.172   5.850
 9246POPC   GL175037  29.938  36.113   6.150
 9246POPC   GL275038  29.865  36.296   6.150
 9246POPC   C1A75039  29.902  36.149   6.450
 9246POPC   D2A75040  29.929  36.149   6.750
 9246POPC   C3A75041  29.970  36.129   7.050
 9246POPC   C4A75042  29.927  36.142   7.350
 9246POPC   C1B75043  29.903  36.405   6.450
 9246POPC   C2B75044  29.807  36.372   6.750
 9246POPC   C3B75045  29.877  36.404   7.050
 9246POPC   C4B75046  29.855  36.355   7.350
 9247POPC   NC375047   2.790  38.440   5.550
 9247POPC   PO475048   2.732  38.489   5.850
 9247POPC   GL175049   2.795  38.440   6.150
 9247POPC   GL275050   2.873  38.390   6.150
 9247POPC   C1A75051   2.805  38.444   6.450
 9247POPC   D2A75052   2.798  38.439   6.750
 9247POPC   C3A75053   2.741  38.430   7.050
 9247POPC   C4A75054   2.729  38.424   7.350
 9247POPC   C1B75055   2.988  38.315   6.450
 9247POPC   C2B75056   3.015  38.357   6.750
 9247POPC   C3B75057   3.018  38.349   7.050
 9247POPC   C4B75058   2.950  38.346   7.350
 9248POPC   NC375059  19.829  35.313   5.550
 9248POPC   PO475060  19.815  35.311   5.850
 9248POPC   GL175061  19.876  35.308   6.150
 9248POPC   GL275062  19.804  35.470   6.150
 9248POPC   C1A75063  19.786  35.359   6.450
 9248POPC   D2A75064  19.871  35.386   6.750
 9248POPC   C3A75065  19.870  35.349   7.050
 9248POPC   C4A75066  19.814  35.383   7.350
 9248POPC   C1B75067  19.800  35.651   6.450
 9248POPC   C2B75068  19.852  35.606   6.750
 9248POPC   C3B75069  19.802  35.573   7.050
 9248POPC   C4B75070  19.864  35.624   7.350
 9249POPC   NC375071  20.644  41.532   5.550
 9249POPC   PO475072  20.632  41.548   5.850
 9249POPC   GL175073  20.657  41.607   6.150
 9249POPC   GL275074  20.693  41.700   6.150
 9249POPC   C1A75075  20.654  41.583   6.450
 9249POPC   D2A75076  20.576  41.606   6.750
 9249POPC   C3A75077  20.654  41.569   7.050
 9249POPC   C4A75078  20.632  41.509   7.350
 9249POPC   C1B75079  20.774  41.755   6.450
 9249POPC   C2B75080  20.768  41.732   6.750
 9249POPC   C3B75081  20.767  41.809   7.050
 9249POPC   C4B75082  20.755  41.726   7.350
 9250POPC   NC375083  26.832  44.620   5.550
 9250POPC   PO475084  26.812  44.659   5.850
 9250POPC   GL175085  26.811  44.632   6.150
 9250POPC   GL275086  26.809  44.585   6.150
 9250POPC   C1A75087  26.784  44.690   6.450
 9250POPC   D2A75088  26.777  44.706   6.750
 9250POPC   C3A75089  26.851  44.676   7.050
 9250POPC   C4A75090  26.844  44.632   7.350
 9250POPC   C1B75091  26.736  44.399   6.450
 9250POPC   C2B75092  26.722  44.429   6.750
 9250POPC   C3B75093  26.765  44.424   7.050
 9250POPC   C4B75094  26.720  44.444   7.350
 9251POPC   NC375095  42.320  23.732   5.550
 9251POPC   PO475096  42.303  23.670   5.850
 9251POPC   GL175097  42.360  23.762   6.150
 9251POPC   GL275098  42.439  23.586   6.150
 9251POPC   C1A75099  42.337  23.744   6.450
 9251POPC   D2A75100  42.359  23.665   6.750
 9251POPC   C3A75101  42.337  23.675   7.050
 9251POPC   C4A75102  42.371  23.724   7.350
 9251POPC   C1B75103  42.481  23.541   6.450
 9251POPC   C2B75104  42.446  23.453   6.750
 9251POPC   C3B75105  42.497  23.477   7.050
 9251POPC   C4B75106  42.431  23.484   7.350
 9252POPC   NC375107  14.447  39.239   5.550
 9252POPC   PO475108  14.404  39.193   5.850
 9252POPC   GL175109  14.449  39.280   6.150
 9252POPC   GL275110  14.399  39.340   6.150
 9252POPC   C1A75111  14.401  39.238   6.450
 9252POPC   D2A75112  14.354  39.229   6.750
 9252POPC   C3A75113  14.365  39.222   7.050
 9252POPC   C4A75114  14.425  39.192   7.350
 9252POPC   C1B75115  14.439  39.452   6.450
 9252POPC   C2B75116  14.480  39.467   6.750
 9252POPC   C3B75117  14.507  39.498   7.050
 9252POPC   C4B75118  14.454  39.468   7.350
 9253POPC   NC375119  18.269  29.164   5.550
 9253POPC   PO475120  18.263  29.187   5.850
 9253POPC   GL175121  18.321  29.114   6.150
 9253POPC   GL275122  18.426  29.169   6.150
 9253POPC   C1A75123  18.235  29.144   6.450
 9253POPC   D2A75124  18.301  29.170   6.750
 9253POPC   C3A75125  18.242  29.126   7.050
 9253POPC   C4A75126  18.262  29.165   7.350
 9253POPC   C1B75127  18.540  29.089   6.450
 9253POPC   C2B75128  18.561  29.148   6.750
 9253POPC   C3B75129  18.483  29.064   7.050
 9253POPC   C4B75130  18.492  29.127   7.350
 9254POPC   NC375131  22.898   1.207   5.550
 9254POPC   PO475132  22.948   1.205   5.850
 9254POPC   GL175133  22.936   1.223   6.150
 9254POPC   GL275134  23.023   1.295   6.150
 9254POPC   C1A75135  22.922   1.178   6.450
 9254POPC   D2A75136  22.912   1.229   6.750
 9254POPC   C3A75137  22.891   1.257   7.050
 9254POPC   C4A75138  22.948   1.255   7.350
 9254POPC   C1B75139  23.073   1.462   6.450
 9254POPC   C2B75140  23.009   1.428   6.750
 9254POPC   C3B75141  23.056   1.408   7.050
 9254POPC   C4B75142  23.020   1.456   7.350
 9255POPC   NC375143  22.201  41.514   5.550
 9255POPC   PO475144  22.170  41.512   5.850
 9255POPC   GL175145  22.199  41.528   6.150
 9255POPC   GL275146  22.278  41.499   6.150
 9255POPC   C1A75147  22.151  41.511   6.450
 9255POPC   D2A75148  22.169  41.526   6.750
 9255POPC   C3A75149  22.129  41.530   7.050
 9255POPC   C4A75150  22.171  41.561   7.350
 9255POPC   C1B75151  22.383  41.410   6.450
 9255POPC   C2B75152  22.378  41.401   6.750
 9255POPC   C3B75153  22.295  41.342   7.050
 9255POPC   C4B75154  22.343  41.401   7.350
 9256POPC   NC375155  27.557  39.251   5.550
 9256POPC   PO475156  27.601  39.204   5.850
 9256POPC   GL175157  27.583  39.238   6.150
 9256POPC   GL275158  27.715  39.233   6.150
 9256POPC   C1A75159  27.638  39.226   6.450
 9256POPC   D2A75160  27.572  39.235   6.750
 9256POPC   C3A75161  27.620  39.182   7.050
 9256POPC   C4A75162  27.626  39.251   7.350
 9256POPC   C1B75163  27.855  39.208   6.450
 9256POPC   C2B75164  27.859  39.260   6.750
 9256POPC   C3B75165  27.820  39.239   7.050
 9256POPC   C4B75166  27.869  39.295   7.350
 9257POPC   NC375167  40.019  24.463   5.550
 9257POPC   PO475168  40.023  24.446   5.850
 9257POPC   GL175169  40.016  24.485   6.150
 9257POPC   GL275170  39.882  24.364   6.150
 9257POPC   C1A75171  40.015  24.530   6.450
 9257POPC   D2A75172  39.994  24.496   6.750
 9257POPC   C3A75173  39.957  24.485   7.050
 9257POPC   C4A75174  40.022  24.498   7.350
 9257POPC   C1B75175  39.822  24.299   6.450
 9257POPC   C2B75176  39.800  24.363   6.750
 9257POPC   C3B75177  39.778  24.325   7.050
 9257POPC   C4B75178  39.848  24.335   7.350
 9258POPC   NC375179   0.402  13.661   5.550
 9258POPC   PO475180   0.461  13.623   5.850
 9258POPC   GL175181   0.426  13.638   6.150
 9258POPC   GL275182   0.391  13.538   6.150
 9258POPC   C1A75183   0.455  13.611   6.450
 9258POPC   D2A75184   0.401  13.645   6.750
 9258POPC   C3A75185   0.409  13.599   7.050
 9258POPC   C4A75186   0.443  13.609   7.350
 9258POPC   C1B75187   0.260  13.483   6.450
 9258POPC   C2B75188   0.233  13.470   6.750
 9258POPC   C3B75189   0.299  13.469   7.050
 9258POPC   C4B75190   0.309  13.460   7.350
 9259POPC   NC375191   4.309   1.227   5.550
 9259POPC   PO475192   4.331   1.178   5.850
 9259POPC   GL175193   4.300   1.183   6.150
 9259POPC   GL275194   4.211   1.275   6.150
 9259POPC   C1A75195   4.269   1.223   6.450
 9259POPC   D2A75196   4.356   1.257   6.750
 9259POPC   C3A75197   4.356   1.187   7.050
 9259POPC   C4A75198   4.291   1.217   7.350
 9259POPC   C1B75199   4.142   1.384   6.450
 9259POPC   C2B75200   4.186   1.385   6.750
 9259POPC   C3B75201   4.133   1.366   7.050
 9259POPC   C4B75202   4.120   1.438   7.350
 9260POPC   NC375203  20.619  21.372   5.550
 9260POPC   PO475204  20.634  21.420   5.850
 9260POPC   GL175205  20.628  21.345   6.150
 9260POPC   GL275206  20.683  21.289   6.150
 9260POPC   C1A75207  20.606  21.383   6.450
 9260POPC   D2A75208  20.652  21.357   6.750
 9260POPC   C3A75209  20.578  21.406   7.050
 9260POPC   C4A75210  20.617  21.355   7.350
 9260POPC   C1B75211  20.786  21.249   6.450
 9260POPC   C2B75212  20.777  21.174   6.750
 9260POPC   C3B75213  20.763  21.240   7.050
 9260POPC   C4B75214  20.830  21.204   7.350
 9261POPC   NC375215  12.893  29.167   5.550
 9261POPC   PO475216  12.882  29.136   5.850
 9261POPC   GL175217  12.810  29.158   6.150
 9261POPC   GL275218  12.705  29.096   6.150
 9261POPC   C1A75219  12.874  29.184   6.450
 9261POPC   D2A75220  12.815  29.182   6.750
 9261POPC   C3A75221  12.892  29.112   7.050
 9261POPC   C4A75222  12.877  29.139   7.350
 9261POPC   C1B75223  12.624  29.092   6.450
 9261POPC   C2B75224  12.584  29.028   6.750
 9261POPC   C3B75225  12.665  29.004   7.050
 9261POPC   C4B75226  12.588  29.079   7.350
 9262POPC   NC375227  36.922  25.247   5.550
 9262POPC   PO475228  36.947  25.268   5.850
 9262POPC   GL175229  36.886  25.226   6.150
 9262POPC   GL275230  36.744  25.292   6.150
 9262POPC   C1A75231  36.928  25.226   6.450
 9262POPC   D2A75232  36.932  25.313   6.750
 9262POPC   C3A75233  36.942  25.260   7.050
 9262POPC   C4A75234  36.859  25.270   7.350
 9262POPC   C1B75235  36.673  25.305   6.450
 9262POPC   C2B75236  36.690  25.264   6.750
 9262POPC   C3B75237  36.660  25.297   7.050
 9262POPC   C4B75238  36.629  25.232   7.350
 9263POPC   NC375239  30.694  26.019   5.550
 9263POPC   PO475240  30.684  26.083   5.850
 9263POPC   GL175241  30.725  26.050   6.150
 9263POPC   GL275242  30.663  26.157   6.150
 9263POPC   C1A75243  30.709  26.047   6.450
 9263POPC   D2A75244  30.667  26.064   6.750
 9263POPC   C3A75245  30.714  26.056   7.050
 9263POPC   C4A75246  30.723  26.045   7.350
 9263POPC   C1B75247  30.733  26.265   6.450
 9263POPC   C2B75248  30.671  26.321   6.750
 9263POPC   C3B75249  30.701  26.255   7.050
 9263POPC   C4B75250  30.719  26.280   7.350
 9264POPC   NC375251  11.286  12.881   5.550
 9264POPC   PO475252  11.332  12.818   5.850
 9264POPC   GL175253  11.343  12.880   6.150
 9264POPC   GL275254  11.296  12.703   6.150
 9264POPC   C1A75255  11.321  12.887   6.450
 9264POPC   D2A75256  11.263  12.894   6.750
 9264POPC   C3A75257  11.295  12.854   7.050
 9264POPC   C4A75258  11.324  12.814   7.350
 9264POPC   C1B75259  11.258  12.591   6.450
 9264POPC   C2B75260  11.270  12.573   6.750
 9264POPC   C3B75261  11.261  12.564   7.050
 9264POPC   C4B75262  11.275  12.585   7.350
 9265POPC   NC375263  14.448  22.178   5.550
 9265POPC   PO475264  14.409  22.153   5.850
 9265POPC   GL175265  14.393  22.204   6.150
 9265POPC   GL275266  14.307  22.078   6.150
 9265POPC   C1A75267  14.355  22.122   6.450
 9265POPC   D2A75268  14.422  22.209   6.750
 9265POPC   C3A75269  14.362  22.112   7.050
 9265POPC   C4A75270  14.363  22.176   7.350
 9265POPC   C1B75271  14.188  22.032   6.450
 9265POPC   C2B75272  14.161  22.024   6.750
 9265POPC   C3B75273  14.194  22.033   7.050
 9265POPC   C4B75274  14.199  21.996   7.350
 9266POPC   NC375275  17.556   1.969   5.550
 9266POPC   PO475276  17.473   1.967   5.850
 9266POPC   GL175277  17.540   1.983   6.150
 9266POPC   GL275278  17.548   2.075   6.150
 9266POPC   C1A75279  17.526   2.034   6.450
 9266POPC   D2A75280  17.474   1.967   6.750
 9266POPC   C3A75281  17.481   2.020   7.050
 9266POPC   C4A75282  17.506   2.039   7.350
 9266POPC   C1B75283  17.699   2.147   6.450
 9266POPC   C2B75284  17.678   2.187   6.750
 9266POPC   C3B75285  17.630   2.203   7.050
 9266POPC   C4B75286  17.635   2.204   7.350
 9267POPC   NC375287  36.854  42.342   5.550
 9267POPC   PO475288  36.867  42.311   5.850
 9267POPC   GL175289  36.899  42.314   6.150
 9267POPC   GL275290  36.994  42.419   6.150
 9267POPC   C1A75291  36.858  42.344   6.450
 9267POPC   D2A75292  36.881  42.316   6.750
 9267POPC   C3A75293  36.864  42.328   7.050
 9267POPC   C4A75294  36.874  42.305   7.350
 9267POPC   C1B75295  37.130  42.490   6.450
 9267POPC   C2B75296  37.122  42.434   6.750
 9267POPC   C3B75297  37.070  42.497   7.050
 9267POPC   C4B75298  37.060  42.447   7.350
 9268POPC   NC375299  35.375  13.651   5.550
 9268POPC   PO475300  35.377  13.633   5.850
 9268POPC   GL175301  35.385  13.663   6.150
 9268POPC   GL275302  35.311  13.524   6.150
 9268POPC   C1A75303  35.325  13.582   6.450
 9268POPC   D2A75304  35.307  13.603   6.750
 9268POPC   C3A75305  35.393  13.618   7.050
 9268POPC   C4A75306  35.386  13.589   7.350
 9268POPC   C1B75307  35.154  13.404   6.450
 9268POPC   C2B75308  35.152  13.414   6.750
 9268POPC   C3B75309  35.185  13.423   7.050
 9268POPC   C4B75310  35.184  13.384   7.350
 9269POPC   NC375311   0.429  28.379   5.550
 9269POPC   PO475312   0.432  28.383   5.850
 9269POPC   GL175313   0.397  28.326   6.150
 9269POPC   GL275314   0.324  28.414   6.150
 9269POPC   C1A75315   0.487  28.382   6.450
 9269POPC   D2A75316   0.459  28.332   6.750
 9269POPC   C3A75317   0.471  28.381   7.050
 9269POPC   C4A75318   0.480  28.333   7.350
 9269POPC   C1B75319   0.195  28.376   6.450
 9269POPC   C2B75320   0.182  28.401   6.750
 9269POPC   C3B75321   0.235  28.320   7.050
 9269POPC   C4B75322   0.155  28.345   7.350
 9270POPC   NC375323  29.885  24.522   5.550
 9270POPC   PO475324  29.967  24.524   5.850
 9270POPC   GL175325  29.953  24.479   6.150
 9270POPC   GL275326  29.947  24.633   6.150
 9270POPC   C1A75327  29.951  24.539   6.450
 9270POPC   D2A75328  29.932  24.484   6.750
 9270POPC   C3A75329  29.951  24.519   7.050
 9270POPC   C4A75330  29.875  24.457   7.350
 9270POPC   C1B75331  30.078  24.741   6.450
 9270POPC   C2B75332  30.063  24.678   6.750
 9270POPC   C3B75333  30.074  24.737   7.050
 9270POPC   C4B75334  30.093  24.748   7.350
 9271POPC   NC375335   5.837   4.282   5.550
 9271POPC   PO475336   5.826   4.335   5.850
 9271POPC   GL175337   5.900   4.354   6.150
 9271POPC   GL275338   5.836   4.161   6.150
 9271POPC   C1A75339   5.821   4.297   6.450
 9271POPC   D2A75340   5.891   4.333   6.750
 9271POPC   C3A75341   5.897   4.274   7.050
 9271POPC   C4A75342   5.849   4.298   7.350
 9271POPC   C1B75343   5.772   4.090   6.450
 9271POPC   C2B75344   5.755   4.055   6.750
 9271POPC   C3B75345   5.755   4.061   7.050
 9271POPC   C4B75346   5.748   4.131   7.350
 9272POPC   NC375347  19.814  14.437   5.550
 9272POPC   PO475348  19.819  14.366   5.850
 9272POPC   GL175349  19.852  14.407   6.150
 9272POPC   GL275350  19.763  14.340   6.150
 9272POPC   C1A75351  19.829  14.408   6.450
 9272POPC   D2A75352  19.856  14.355   6.750
 9272POPC   C3A75353  19.871  14.452   7.050
 9272POPC   C4A75354  19.877  14.431   7.350
 9272POPC   C1B75355  19.665  14.266   6.450
 9272POPC   C2B75356  19.651  14.200   6.750
 9272POPC   C3B75357  19.698  14.273   7.050
 9272POPC   C4B75358  19.655  14.204   7.350
 9273POPC   NC375359  29.185   2.028   5.550
 9273POPC   PO475360  29.178   1.959   5.850
 9273POPC   GL175361  29.120   1.952   6.150
 9273POPC   GL275362  28.990   1.937   6.150
 9273POPC   C1A75363  29.159   2.033   6.450
 9273POPC   D2A75364  29.151   2.015   6.750
 9273POPC   C3A75365  29.107   1.974   7.050
 9273POPC   C4A75366  29.108   1.945   7.350
 9273POPC   C1B75367  28.953   1.873   6.450
 9273POPC   C2B75368  28.885   1.895   6.750
 9273POPC   C3B75369  28.950   1.929   7.050
 9273POPC   C4B75370  28.908   1.897   7.350
 9274POPC   NC375371  11.312   1.999   5.550
 9274POPC   PO475372  11.340   1.940   5.850
 9274POPC   GL175373  11.300   2.018   6.150
 9274POPC   GL275374  11.231   1.900   6.150
 9274POPC   C1A75375  11.260   2.014   6.450
 9274POPC   D2A75376  11.318   1.982   6.750
 9274POPC   C3A75377  11.261   1.947   7.050
 9274POPC   C4A75378  11.287   1.964   7.350
 9274POPC   C1B75379  11.190   1.748   6.450
 9274POPC   C2B75380  11.243   1.739   6.750
 9274POPC   C3B75381  11.233   1.718   7.050
 9274POPC   C4B75382  11.218   1.766   7.350
 9275POPC   NC375383   5.108  42.363   5.550
 9275POPC   PO475384   5.094  42.300   5.850
 9275POPC   GL175385   5.133  42.325   6.150
 9275POPC   GL275386   5.013  42.415   6.150
 9275POPC   C1A75387   5.057  42.295   6.450
 9275POPC   D2A75388   5.136  42.292   6.750
 9275POPC   C3A75389   5.101  42.353   7.050
 9275POPC   C4A75390   5.133  42.356   7.350
 9275POPC   C1B75391   4.981  42.550   6.450
 9275POPC   C2B75392   4.970  42.503   6.750
 9275POPC   C3B75393   4.995  42.500   7.050
 9275POPC   C4B75394   4.931  42.542   7.350
 9276POPC   NC375395  34.586  25.236   5.550
 9276POPC   PO475396  34.572  25.273   5.850
 9276POPC   GL175397  34.594  25.217   6.150
 9276POPC   GL275398  34.416  25.314   6.150
 9276POPC   C1A75399  34.603  25.281   6.450
 9276POPC   D2A75400  34.620  25.219   6.750
 9276POPC   C3A75401  34.566  25.268   7.050
 9276POPC   C4A75402  34.616  25.309   7.350
 9276POPC   C1B75403  34.360  25.254   6.450
 9276POPC   C2B75404  34.346  25.330   6.750
 9276POPC   C3B75405  34.360  25.245   7.050
 9276POPC   C4B75406  34.282  25.265   7.350
 9277POPC   NC375407  25.252  12.820   5.550
 9277POPC   PO475408  25.305  12.835   5.850
 9277POPC   GL175409  25.306  12.837   6.150
 9277POPC   GL275410  25.149  12.734   6.150
 9277POPC   C1A75411  25.279  12.830   6.450
 9277POPC   D2A75412  25.220  12.901   6.750
 9277POPC   C3A75413  25.252  12.809   7.050
 9277POPC   C4A75414  25.244  12.829   7.350
 9277POPC   C1B75415  25.129  12.691   6.450
 9277POPC   C2B75416  25.072  12.698   6.750
 9277POPC   C3B75417  25.140  12.684   7.050
 9277POPC   C4B75418  25.132  12.637   7.350
 9278POPC   NC375419   1.248  14.387   5.550
 9278POPC   PO475420   1.204  14.421   5.850
 9278POPC   GL175421   1.214  14.378   6.150
 9278POPC   GL275422   1.216  14.479   6.150
 9278POPC   C1A75423   1.244  14.404   6.450
 9278POPC   D2A75424   1.172  14.407   6.750
 9278POPC   C3A75425   1.195  14.397   7.050
 9278POPC   C4A75426   1.261  14.368   7.350
 9278POPC   C1B75427   1.302  14.690   6.450
 9278POPC   C2B75428   1.241  14.601   6.750
 9278POPC   C3B75429   1.281  14.677   7.050
 9278POPC   C4B75430   1.239  14.691   7.350
 9279POPC   NC375431  32.227   3.543   5.550
 9279POPC   PO475432  32.278   3.540   5.850
 9279POPC   GL175433  32.238   3.559   6.150
 9279POPC   GL275434  32.395   3.499   6.150
 9279POPC   C1A75435  32.283   3.503   6.450
 9279POPC   D2A75436  32.204   3.565   6.750
 9279POPC   C3A75437  32.213   3.580   7.050
 9279POPC   C4A75438  32.268   3.542   7.350
 9279POPC   C1B75439  32.521   3.528   6.450
 9279POPC   C2B75440  32.526   3.584   6.750
 9279POPC   C3B75441  32.468   3.601   7.050
 9279POPC   C4B75442  32.517   3.575   7.350
 9280POPC   NC375443  34.592  23.670   5.550
 9280POPC   PO475444  34.610  23.735   5.850
 9280POPC   GL175445  34.547  23.685   6.150
 9280POPC   GL275446  34.542  23.593   6.150
 9280POPC   C1A75447  34.544  23.691   6.450
 9280POPC   D2A75448  34.552  23.709   6.750
 9280POPC   C3A75449  34.543  23.672   7.050
 9280POPC   C4A75450  34.613  23.685   7.350
 9280POPC   C1B75451  34.564  23.451   6.450
 9280POPC   C2B75452  34.538  23.504   6.750
 9280POPC   C3B75453  34.533  23.460   7.050
 9280POPC   C4B75454  34.553  23.439   7.350
 9281POPC   NC375455   8.174   7.465   5.550
 9281POPC   PO475456   8.191   7.408   5.850
 9281POPC   GL175457   8.154   7.410   6.150
 9281POPC   GL275458   8.058   7.409   6.150
 9281POPC   C1A75459   8.184   7.438   6.450
 9281POPC   D2A75460   8.236   7.423   6.750
 9281POPC   C3A75461   8.203   7.437   7.050
 9281POPC   C4A75462   8.215   7.425   7.350
 9281POPC   C1B75463   7.934   7.420   6.450
 9281POPC   C2B75464   7.902   7.450   6.750
 9281POPC   C3B75465   7.922   7.433   7.050
 9281POPC   C4B75466   7.994   7.434   7.350
 9282POPC   NC375467   1.949   9.775   5.550
 9282POPC   PO475468   1.976   9.720   5.850
 9282POPC   GL175469   1.956   9.750   6.150
 9282POPC   GL275470   2.071   9.795   6.150
 9282POPC   C1A75471   1.965   9.699   6.450
 9282POPC   D2A75472   1.975   9.699   6.750
 9282POPC   C3A75473   1.977   9.715   7.050
 9282POPC   C4A75474   1.962   9.795   7.350
 9282POPC   C1B75475   2.268   9.835   6.450
 9282POPC   C2B75476   2.262   9.861   6.750
 9282POPC   C3B75477   2.227   9.829   7.050
 9282POPC   C4B75478   2.178   9.795   7.350
 9283POPC   NC375479  15.170   4.281   5.550
 9283POPC   PO475480  15.176   4.329   5.850
 9283POPC   GL175481  15.221   4.362   6.150
 9283POPC   GL275482  15.072   4.209   6.150
 9283POPC   C1A75483  15.214   4.294   6.450
 9283POPC   D2A75484  15.198   4.358   6.750
 9283POPC   C3A75485  15.181   4.345   7.050
 9283POPC   C4A75486  15.229   4.331   7.350
 9283POPC   C1B75487  15.086   4.114   6.450
 9283POPC   C2B75488  15.006   4.110   6.750
 9283POPC   C3B75489  15.095   4.123   7.050
 9283POPC   C4B75490  15.087   4.071   7.350
 9284POPC   NC375491   0.487  22.116   5.550
 9284POPC   PO475492   0.487  22.190   5.850
 9284POPC   GL175493   0.433  22.171   6.150
 9284POPC   GL275494   0.604  22.180   6.150
 9284POPC   C1A75495   0.465  22.129   6.450
 9284POPC   D2A75496   0.398  22.130   6.750
 9284POPC   C3A75497   0.483  22.139   7.050
 9284POPC   C4A75498   0.478  22.193   7.350
 9284POPC   C1B75499   0.644  22.083   6.450
 9284POPC   C2B75500   0.655  22.090   6.750
 9284POPC   C3B75501   0.686  22.071   7.050
 9284POPC   C4B75502   0.683  22.086   7.350
 9285POPC   NC375503  36.170   8.978   5.550
 9285POPC   PO475504  36.147   8.975   5.850
 9285POPC   GL175505  36.132   9.009   6.150
 9285POPC   GL275506  36.164   9.099   6.150
 9285POPC   C1A75507  36.081   8.977   6.450
 9285POPC   D2A75508  36.140   9.021   6.750
 9285POPC   C3A75509  36.106   8.975   7.050
 9285POPC   C4A75510  36.099   8.961   7.350
 9285POPC   C1B75511  36.152   9.227   6.450
 9285POPC   C2B75512  36.216   9.198   6.750
 9285POPC   C3B75513  36.203   9.210   7.050
 9285POPC   C4B75514  36.134   9.231   7.350
 9286POPC   NC375515  20.636  15.214   5.550
 9286POPC   PO475516  20.657  15.215   5.850
 9286POPC   GL175517  20.601  15.229   6.150
 9286POPC   GL275518  20.737  15.044   6.150
 9286POPC   C1A75519  20.617  15.198   6.450
 9286POPC   D2A75520  20.599  15.167   6.750
 9286POPC   C3A75521  20.640  15.206   7.050
 9286POPC   C4A75522  20.625  15.164   7.350
 9286POPC   C1B75523  20.779  14.990   6.450
 9286POPC   C2B75524  20.817  14.944   6.750
 9286POPC   C3B75525  20.815  15.019   7.050
 9286POPC   C4B75526  20.757  14.970   7.350
 9287POPC   NC375527  34.588  22.969   5.550
 9287POPC   PO475528  34.540  22.934   5.850
 9287POPC   GL175529  34.564  22.928   6.150
 9287POPC   GL275530  34.749  22.904   6.150
 9287POPC   C1A75531  34.569  22.916   6.450
 9287POPC   D2A75532  34.598  22.954   6.750
 9287POPC   C3A75533  34.553  22.893   7.050
 9287POPC   C4A75534  34.598  22.974   7.350
 9287POPC   C1B75535  34.867  22.981   6.450
 9287POPC   C2B75536  34.840  22.916   6.750
 9287POPC   C3B75537  34.870  22.976   7.050
 9287POPC   C4B75538  34.783  22.887   7.350
 9288POPC   NC375539  30.680  25.305   5.550
 9288POPC   PO475540  30.660  25.229   5.850
 9288POPC   GL175541  30.732  25.237   6.150
 9288POPC   GL275542  30.582  25.351   6.150
 9288POPC   C1A75543  30.702  25.217   6.450
 9288POPC   D2A75544  30.736  25.260   6.750
 9288POPC   C3A75545  30.665  25.261   7.050
 9288POPC   C4A75546  30.743  25.303   7.350
 9288POPC   C1B75547  30.566  25.391   6.450
 9288POPC   C2B75548  30.479  25.396   6.750
 9288POPC   C3B75549  30.518  25.459   7.050
 9288POPC   C4B75550  30.509  25.417   7.350
 9289POPC   NC375551  25.265  22.118   5.550
 9289POPC   PO475552  25.238  22.166   5.850
 9289POPC   GL175553  25.226  22.203   6.150
 9289POPC   GL275554  25.165  22.080   6.150
 9289POPC   C1A75555  25.297  22.141   6.450
 9289POPC   D2A75556  25.263  22.140   6.750
 9289POPC   C3A75557  25.250  22.146   7.050
 9289POPC   C4A75558  25.259  22.147   7.350
 9289POPC   C1B75559  25.114  21.973   6.450
 9289POPC   C2B75560  25.070  22.040   6.750
 9289POPC   C3B75561  25.045  21.968   7.050
 9289POPC   C4B75562  25.096  22.016   7.350
 9290POPC   NC375563   2.726  24.534   5.550
 9290POPC   PO475564   2.768  24.501   5.850
 9290POPC   GL175565   2.730  24.505   6.150
 9290POPC   GL275566   2.665  24.426   6.150
 9290POPC   C1A75567   2.792  24.516   6.450
 9290POPC   D2A75568   2.808  24.463   6.750
 9290POPC   C3A75569   2.754  24.469   7.050
 9290POPC   C4A75570   2.793  24.535   7.350
 9290POPC   C1B75571   2.589  24.246   6.450
 9290POPC   C2B75572   2.620  24.257   6.750
 9290POPC   C3B75573   2.665  24.337   7.050
 9290POPC   C4B75574   2.615  24.268   7.350
 9291POPC   NC375575  31.478   3.552   5.550
 9291POPC   PO475576  31.431   3.542   5.850
 9291POPC   GL175577  31.484   3.500   6.150
 9291POPC   GL275578  31.417   3.472   6.150
 9291POPC   C1A75579  31.476   3.549   6.450
 9291POPC   D2A75580  31.521   3.511   6.750
 9291POPC   C3A75581  31.455   3.503   7.050
 9291POPC   C4A75582  31.494   3.498   7.350
 9291POPC   C1B75583  31.250   3.392   6.450
 9291POPC   C2B75584  31.271   3.368   6.750
 9291POPC   C3B75585  31.259   3.383   7.050
 9291POPC   C4B75586  31.341   3.329   7.350
 9292POPC   NC375587  11.307  10.563   5.550
 9292POPC   PO475588  11.271  10.551   5.850
 9292POPC   GL175589  11.310  10.558   6.150
 9292POPC   GL275590  11.203  10.477   6.150
 9292POPC   C1A75591  11.304  10.558   6.450
 9292POPC   D2A75592  11.342  10.527   6.750
 9292POPC   C3A75593  11.330  10.508   7.050
 9292POPC   C4A75594  11.336  10.502   7.350
 9292POPC   C1B75595  11.050  10.498   6.450
 9292POPC   C2B75596  11.035  10.458   6.750
 9292POPC   C3B75597  11.025  10.529   7.050
 9292POPC   C4B75598  11.059  10.492   7.350
 9293POPC   NC375599  18.265  36.865   5.550
 9293POPC   PO475600  18.276  36.869   5.850
 9293POPC   GL175601  18.287  36.939   6.150
 9293POPC   GL275602  18.426  36.901   6.150
 9293POPC   C1A75603  18.236  36.934   6.450
 9293POPC   D2A75604  18.254  36.867   6.750
 9293POPC   C3A75605  18.284  36.862   7.050
 9293POPC   C4A75606  18.295  36.939   7.350
 9293POPC   C1B75607  18.492  36.930   6.450
 9293POPC   C2B75608  18.543  36.988   6.750
 9293POPC   C3B75609  18.544  36.933   7.050
 9293POPC   C4B75610  18.530  36.939   7.350
 9294POPC   NC375611  14.397  25.247   5.550
 9294POPC   PO475612  14.368  25.222   5.850
 9294POPC   GL175613  14.385  25.277   6.150
 9294POPC   GL275614  14.557  25.314   6.150
 9294POPC   C1A75615  14.444  25.315   6.450
 9294POPC   D2A75616  14.371  25.294   6.750
 9294POPC   C3A75617  14.436  25.266   7.050
 9294POPC   C4A75618  14.409  25.252   7.350
 9294POPC   C1B75619  14.655  25.286   6.450
 9294POPC   C2B75620  14.636  25.370   6.750
 9294POPC   C3B75621  14.680  25.305   7.050
 9294POPC   C4B75622  14.633  25.310   7.350
 9295POPC   NC375623  42.316  27.631   5.550
 9295POPC   PO475624  42.318  27.620   5.850
 9295POPC   GL175625  42.300  27.634   6.150
 9295POPC   GL275626  42.336  27.671   6.150
 9295POPC   C1A75627  42.290  27.641   6.450
 9295POPC   D2A75628  42.294  27.544   6.750
 9295POPC   C3A75629  42.315  27.591   7.050
 9295POPC   C4A75630  42.367  27.620   7.350
 9295POPC   C1B75631  42.398  27.867   6.450
 9295POPC   C2B75632  42.379  27.807   6.750
 9295POPC   C3B75633  42.416  27.796   7.050
 9295POPC   C4B75634  42.345  27.870   7.350
 9296POPC   NC375635   5.854  35.377   5.550
 9296POPC   PO475636   5.835  35.379   5.850
 9296POPC   GL175637   5.823  35.385   6.150
 9296POPC   GL275638   5.847  35.444   6.150
 9296POPC   C1A75639   5.861  35.357   6.450
 9296POPC   D2A75640   5.890  35.394   6.750
 9296POPC   C3A75641   5.882  35.368   7.050
 9296POPC   C4A75642   5.873  35.390   7.350
 9296POPC   C1B75643   5.879  35.552   6.450
 9296POPC   C2B75644   5.800  35.626   6.750
 9296POPC   C3B75645   5.893  35.576   7.050
 9296POPC   C4B75646   5.841  35.561   7.350
 9297POPC   NC375647  44.616  41.548   5.550
 9297POPC   PO475648  44.692  41.585   5.850
 9297POPC   GL175649  44.703  41.575   6.150
 9297POPC   GL275650  44.687  41.660   6.150
 9297POPC   C1A75651  44.648  41.592   6.450
 9297POPC   D2A75652  44.681  41.542   6.750
 9297POPC   C3A75653  44.645  41.579   7.050
 9297POPC   C4A75654  44.681  41.563   7.350
 9297POPC   C1B75655  44.630  41.800   6.450
 9297POPC   C2B75656  44.624  41.770   6.750
 9297POPC   C3B75657  44.657  41.765   7.050
 9297POPC   C4B75658  44.617  41.814   7.350
 9298POPC   NC375659  12.064  32.262   5.550
 9298POPC   PO475660  12.057  32.248   5.850
 9298POPC   GL175661  12.088  32.275   6.150
 9298POPC   GL275662  12.062  32.416   6.150
 9298POPC   C1A75663  12.073  32.202   6.450
 9298POPC   D2A75664  12.045  32.252   6.750
 9298POPC   C3A75665  12.054  32.208   7.050
 9298POPC   C4A75666  12.057  32.261   7.350
 9298POPC   C1B75667  12.138  32.511   6.450
 9298POPC   C2B75668  12.153  32.514   6.750
 9298POPC   C3B75669  12.079  32.502   7.050
 9298POPC   C4B75670  12.083  32.447   7.350
 9299POPC   NC375671   8.238  17.472   5.550
 9299POPC   PO475672   8.199  17.509   5.850
 9299POPC   GL175673   8.170  17.486   6.150
 9299POPC   GL275674   8.089  17.657   6.150
 9299POPC   C1A75675   8.240  17.473   6.450
 9299POPC   D2A75676   8.175  17.497   6.750
 9299POPC   C3A75677   8.231  17.500   7.050
 9299POPC   C4A75678   8.189  17.515   7.350
 9299POPC   C1B75679   8.109  17.689   6.450
 9299POPC   C2B75680   8.070  17.709   6.750
 9299POPC   C3B75681   8.033  17.707   7.050
 9299POPC   C4B75682   8.079  17.758   7.350
 9300POPC   NC375683  16.710  18.319   5.550
 9300POPC   PO475684  16.729  18.279   5.850
 9300POPC   GL175685  16.764  18.253   6.150
 9300POPC   GL275686  16.796  18.255   6.150
 9300POPC   C1A75687  16.757  18.330   6.450
 9300POPC   D2A75688  16.778  18.330   6.750
 9300POPC   C3A75689  16.759  18.281   7.050
 9300POPC   C4A75690  16.781  18.332   7.350
 9300POPC   C1B75691  16.920  18.130   6.450
 9300POPC   C2B75692  16.912  18.207   6.750
 9300POPC   C3B75693  17.008  18.199   7.050
 9300POPC   C4B75694  16.994  18.225   7.350
 9301POPC   NC375695  24.446  44.711   5.550
 9301POPC   PO475696  24.519  44.671   5.850
 9301POPC   GL175697  24.505  44.640   6.150
 9301POPC   GL275698  24.587  44.695   6.150
 9301POPC   C1A75699  24.463  44.707   6.450
 9301POPC   D2A75700  24.455  44.670   6.750
 9301POPC   C3A75701  24.521  44.649   7.050
 9301POPC   C4A75702  24.473  44.629   7.350
 9301POPC   C1B75703  24.755  44.786   6.450
 9301POPC   C2B75704  24.684  44.727   6.750
 9301POPC   C3B75705  24.720  44.793   7.050
 9301POPC   C4B75706  24.729  44.743   7.350
 9302POPC   NC375707  15.162  12.040   5.550
 9302POPC   PO475708  15.193  12.037   5.850
 9302POPC   GL175709  15.176  12.042   6.150
 9302POPC   GL275710  15.178  12.224   6.150
 9302POPC   C1A75711  15.149  12.067   6.450
 9302POPC   D2A75712  15.177  12.095   6.750
 9302POPC   C3A75713  15.225  12.111   7.050
 9302POPC   C4A75714  15.164  12.124   7.350
 9302POPC   C1B75715  15.246  12.334   6.450
 9302POPC   C2B75716  15.251  12.305   6.750
 9302POPC   C3B75717  15.243  12.359   7.050
 9302POPC   C4B75718  15.263  12.342   7.350
 9303POPC   NC375719  28.350   9.730   5.550
 9303POPC   PO475720  28.352   9.761   5.850
 9303POPC   GL175721  28.417   9.707   6.150
 9303POPC   GL275722  28.402   9.606   6.150
 9303POPC   C1A75723  28.391   9.720   6.450
 9303POPC   D2A75724  28.344   9.726   6.750
 9303POPC   C3A75725  28.338   9.773   7.050
 9303POPC   C4A75726  28.414   9.748   7.350
 9303POPC   C1B75727  28.504   9.537   6.450
 9303POPC   C2B75728  28.467   9.508   6.750
 9303POPC   C3B75729  28.500   9.538   7.050
 9303POPC   C4B75730  28.436   9.488   7.350
 9304POPC   NC375731  43.884  36.936   5.550
 9304POPC   PO475732  43.910  36.932   5.850
 9304POPC   GL175733  43.849  36.863   6.150
 9304POPC   GL275734  43.824  37.010   6.150
 9304POPC   C1A75735  43.897  36.860   6.450
 9304POPC   D2A75736  43.935  36.911   6.750
 9304POPC   C3A75737  43.932  36.895   7.050
 9304POPC   C4A75738  43.899  36.932   7.350
 9304POPC   C1B75739  43.661  36.981   6.450
 9304POPC   C2B75740  43.638  37.063   6.750
 9304POPC   C3B75741  43.636  37.027   7.050
 9304POPC   C4B75742  43.659  37.018   7.350
 9305POPC   NC375743   4.320  33.776   5.550
 9305POPC   PO475744   4.312  33.822   5.850
 9305POPC   GL175745   4.286  33.774   6.150
 9305POPC   GL275746   4.220  33.805   6.150
 9305POPC   C1A75747   4.277  33.825   6.450
 9305POPC   D2A75748   4.335  33.784   6.750
 9305POPC   C3A75749   4.328  33.796   7.050
 9305POPC   C4A75750   4.306  33.846   7.350
 9305POPC   C1B75751   4.045  33.911   6.450
 9305POPC   C2B75752   4.126  33.905   6.750
 9305POPC   C3B75753   4.085  33.854   7.050
 9305POPC   C4B75754   4.052  33.913   7.350
 9306POPC   NC375755  12.861  20.593   5.550
 9306POPC   PO475756  12.836  20.574   5.850
 9306POPC   GL175757  12.888  20.575   6.150
 9306POPC   GL275758  12.826  20.770   6.150
 9306POPC   C1A75759  12.818  20.610   6.450
 9306POPC   D2A75760  12.842  20.619   6.750
 9306POPC   C3A75761  12.819  20.565   7.050
 9306POPC   C4A75762  12.893  20.577   7.350
 9306POPC   C1B75763  12.739  20.862   6.450
 9306POPC   C2B75764  12.772  20.869   6.750
 9306POPC   C3B75765  12.731  20.864   7.050
 9306POPC   C4B75766  12.760  20.807   7.350
 9307POPC   NC375767  12.877  44.649   5.550
 9307POPC   PO475768  12.861  44.660   5.850
 9307POPC   GL175769  12.815  44.617   6.150
 9307POPC   GL275770  12.942  44.627   6.150
 9307POPC   C1A75771  12.866  44.660   6.450
 9307POPC   D2A75772  12.823  44.663   6.750
 9307POPC   C3A75773  12.891  44.685   7.050
 9307POPC   C4A75774  12.852  44.710   7.350
 9307POPC   C1B75775  13.000  44.521   6.450
 9307POPC   C2B75776  13.028  44.474   6.750
 9307POPC   C3B75777  13.020  44.469   7.050
 9307POPC   C4B75778  13.037  44.465   7.350
 9308POPC   NC375779  29.905  43.859   5.550
 9308POPC   PO475780  29.912  43.905   5.850
 9308POPC   GL175781  29.944  43.851   6.150
 9308POPC   GL275782  30.079  43.841   6.150
 9308POPC   C1A75783  29.897  43.918   6.450
 9308POPC   D2A75784  29.914  43.895   6.750
 9308POPC   C3A75785  29.938  43.917   7.050
 9308POPC   C4A75786  29.937  43.913   7.350
 9308POPC   C1B75787  30.219  43.890   6.450
 9308POPC   C2B75788  30.217  43.835   6.750
 9308POPC   C3B75789  30.168  43.903   7.050
 9308POPC   C4B75790  30.197  43.860   7.350
 9309POPC   NC375791  32.978  19.044   5.550
 9309POPC   PO475792  33.063  19.093   5.850
 9309POPC   GL175793  33.064  19.030   6.150
 9309POPC   GL275794  33.170  19.116   6.150
 9309POPC   C1A75795  33.053  19.046   6.450
 9309POPC   D2A75796  33.070  19.076   6.750
 9309POPC   C3A75797  32.985  19.091   7.050
 9309POPC   C4A75798  32.995  19.088   7.350
 9309POPC   C1B75799  33.313  19.051   6.450
 9309POPC   C2B75800  33.266  19.061   6.750
 9309POPC   C3B75801  33.271  19.121   7.050
 9309POPC   C4B75802  33.244  19.112   7.350
 9310POPC   NC375803  43.114   4.360   5.550
 9310POPC   PO475804  43.070   4.337   5.850
 9310POPC   GL175805  43.075   4.333   6.150
 9310POPC   GL275806  43.004   4.240   6.150
 9310POPC   C1A75807  43.117   4.302   6.450
 9310POPC   D2A75808  43.074   4.297   6.750
 9310POPC   C3A75809  43.127   4.365   7.050
 9310POPC   C4A75810  43.088   4.325   7.350
 9310POPC   C1B75811  42.929   4.159   6.450
 9310POPC   C2B75812  42.936   4.207   6.750
 9310POPC   C3B75813  42.910   4.225   7.050
 9310POPC   C4B75814  42.905   4.217   7.350
 9311POPC   NC375815  26.819  27.616   5.550
 9311POPC   PO475816  26.865  27.566   5.850
 9311POPC   GL175817  26.832  27.547   6.150
 9311POPC   GL275818  26.712  27.526   6.150
 9311POPC   C1A75819  26.863  27.632   6.450
 9311POPC   D2A75820  26.769  27.546   6.750
 9311POPC   C3A75821  26.833  27.629   7.050
 9311POPC   C4A75822  26.768  27.618   7.350
 9311POPC   C1B75823  26.562  27.548   6.450
 9311POPC   C2B75824  26.577  27.521   6.750
 9311POPC   C3B75825  26.608  27.540   7.050
 9311POPC   C4B75826  26.553  27.531   7.350
 9312POPC   NC375827  36.858  19.036   5.550
 9312POPC   PO475828  36.872  19.024   5.850
 9312POPC   GL175829  36.932  19.073   6.150
 9312POPC   GL275830  36.786  19.109   6.150
 9312POPC   C1A75831  36.866  19.085   6.450
 9312POPC   D2A75832  36.864  19.011   6.750
 9312POPC   C3A75833  36.897  19.009   7.050
 9312POPC   C4A75834  36.880  19.039   7.350
 9312POPC   C1B75835  36.654  19.085   6.450
 9312POPC   C2B75836  36.631  19.169   6.750
 9312POPC   C3B75837  36.695  19.176   7.050
 9312POPC   C4B75838  36.698  19.167   7.350
 9313POPC   NC375839  33.011   5.112   5.550
 9313POPC   PO475840  33.036   5.116   5.850
 9313POPC   GL175841  32.990   5.110   6.150
 9313POPC   GL275842  32.966   5.240   6.150
 9313POPC   C1A75843  33.073   5.090   6.450
 9313POPC   D2A75844  32.986   5.068   6.750
 9313POPC   C3A75845  33.071   5.111   7.050
 9313POPC   C4A75846  33.065   5.115   7.350
 9313POPC   C1B75847  32.897   5.348   6.450
 9313POPC   C2B75848  32.876   5.281   6.750
 9313POPC   C3B75849  32.874   5.325   7.050
 9313POPC   C4B75850  32.896   5.295   7.350
 9314POPC   NC375851   2.798  19.861   5.550
 9314POPC   PO475852   2.778  19.875   5.850
 9314POPC   GL175853   2.773  19.870   6.150
 9314POPC   GL275854   2.793  19.754   6.150
 9314POPC   C1A75855   2.815  19.823   6.450
 9314POPC   D2A75856   2.760  19.835   6.750
 9314POPC   C3A75857   2.718  19.879   7.050
 9314POPC   C4A75858   2.780  19.792   7.350
 9314POPC   C1B75859   2.897  19.614   6.450
 9314POPC   C2B75860   2.835  19.615   6.750
 9314POPC   C3B75861   2.900  19.580   7.050
 9314POPC   C4B75862   2.843  19.591   7.350
 9315POPC   NC375863  31.484  11.278   5.550
 9315POPC   PO475864  31.493  11.348   5.850
 9315POPC   GL175865  31.519  11.257   6.150
 9315POPC   GL275866  31.388  11.352   6.150
 9315POPC   C1A75867  31.472  11.300   6.450
 9315POPC   D2A75868  31.508  11.252   6.750
 9315POPC   C3A75869  31.428  11.307   7.050
 9315POPC   C4A75870  31.423  11.308   7.350
 9315POPC   C1B75871  31.271  11.334   6.450
 9315POPC   C2B75872  31.207  11.364   6.750
 9315POPC   C3B75873  31.274  11.393   7.050
 9315POPC   C4B75874  31.232  11.385   7.350
 9316POPC   NC375875  19.873  34.604   5.550
 9316POPC   PO475876  19.803  34.554   5.850
 9316POPC   GL175877  19.864  34.566   6.150
 9316POPC   GL275878  19.931  34.483   6.150
 9316POPC   C1A75879  19.828  34.579   6.450
 9316POPC   D2A75880  19.829  34.560   6.750
 9316POPC   C3A75881  19.856  34.559   7.050
 9316POPC   C4A75882  19.796  34.582   7.350
 9316POPC   C1B75883  20.104  34.467   6.450
 9316POPC   C2B75884  20.010  34.442   6.750
 9316POPC   C3B75885  20.017  34.427   7.050
 9316POPC   C4B75886  20.106  34.448   7.350
 9317POPC   NC375887   2.773  29.189   5.550
 9317POPC   PO475888   2.741  29.154   5.850
 9317POPC   GL175889   2.783  29.107   6.150
 9317POPC   GL275890   2.687  29.259   6.150
 9317POPC   C1A75891   2.813  29.108   6.450
 9317POPC   D2A75892   2.798  29.144   6.750
 9317POPC   C3A75893   2.734  29.133   7.050
 9317POPC   C4A75894   2.794  29.152   7.350
 9317POPC   C1B75895   2.614  29.368   6.450
 9317POPC   C2B75896   2.655  29.354   6.750
 9317POPC   C3B75897   2.671  29.344   7.050
 9317POPC   C4B75898   2.651  29.337   7.350
 9318POPC   NC375899  43.906   4.276   5.550
 9318POPC   PO475900  43.836   4.274   5.850
 9318POPC   GL175901  43.907   4.317   6.150
 9318POPC   GL275902  43.748   4.391   6.150
 9318POPC   C1A75903  43.895   4.267   6.450
 9318POPC   D2A75904  43.875   4.339   6.750
 9318POPC   C3A75905  43.893   4.342   7.050
 9318POPC   C4A75906  43.853   4.328   7.350
 9318POPC   C1B75907  43.671   4.400   6.450
 9318POPC   C2B75908  43.625   4.403   6.750
 9318POPC   C3B75909  43.622   4.414   7.050
 9318POPC   C4B75910  43.676   4.417   7.350
 9319POPC   NC375911  14.399   3.563   5.550
 9319POPC   PO475912  14.403   3.550   5.850
 9319POPC   GL175913  14.419   3.551   6.150
 9319POPC   GL275914  14.479   3.698   6.150
 9319POPC   C1A75915  14.388   3.507   6.450
 9319POPC   D2A75916  14.372   3.515   6.750
 9319POPC   C3A75917  14.365   3.535   7.050
 9319POPC   C4A75918  14.356   3.562   7.350
 9319POPC   C1B75919  14.546   3.715   6.450
 9319POPC   C2B75920  14.559   3.762   6.750
 9319POPC   C3B75921  14.501   3.746   7.050
 9319POPC   C4B75922  14.569   3.723   7.350
 9320POPC   NC375923  21.360  29.112   5.550
 9320POPC   PO475924  21.348  29.147   5.850
 9320POPC   GL175925  21.406  29.122   6.150
 9320POPC   GL275926  21.267  29.052   6.150
 9320POPC   C1A75927  21.378  29.155   6.450
 9320POPC   D2A75928  21.374  29.179   6.750
 9320POPC   C3A75929  21.345  29.171   7.050
 9320POPC   C4A75930  21.418  29.152   7.350
 9320POPC   C1B75931  21.158  29.045   6.450
 9320POPC   C2B75932  21.176  29.054   6.750
 9320POPC   C3B75933  21.205  28.983   7.050
 9320POPC   C4B75934  21.201  29.031   7.350
 9321POPC   NC375935   9.707   8.222   5.550
 9321POPC   PO475936   9.753   8.193   5.850
 9321POPC   GL175937   9.780   8.233   6.150
 9321POPC   GL275938   9.687   8.325   6.150
 9321POPC   C1A75939   9.791   8.214   6.450
 9321POPC   D2A75940   9.747   8.235   6.750
 9321POPC   C3A75941   9.735   8.189   7.050
 9321POPC   C4A75942   9.741   8.183   7.350
 9321POPC   C1B75943   9.629   8.452   6.450
 9321POPC   C2B75944   9.706   8.435   6.750
 9321POPC   C3B75945   9.652   8.423   7.050
 9321POPC   C4B75946   9.650   8.418   7.350
 9322POPC   NC375947  13.616  26.774   5.550
 9322POPC   PO475948  13.635  26.824   5.850
 9322POPC   GL175949  13.645  26.784   6.150
 9322POPC   GL275950  13.619  26.702   6.150
 9322POPC   C1A75951  13.617  26.863   6.450
 9322POPC   D2A75952  13.604  26.797   6.750
 9322POPC   C3A75953  13.640  26.805   7.050
 9322POPC   C4A75954  13.595  26.768   7.350
 9322POPC   C1B75955  13.670  26.581   6.450
 9322POPC   C2B75956  13.630  26.574   6.750
 9322POPC   C3B75957  13.666  26.615   7.050
 9322POPC   C4B75958  13.687  26.607   7.350
 9323POPC   NC375959  33.827  43.867   5.550
 9323POPC   PO475960  33.796  43.900   5.850
 9323POPC   GL175961  33.752  43.932   6.150
 9323POPC   GL275962  33.874  43.921   6.150
 9323POPC   C1A75963  33.840  43.895   6.450
 9323POPC   D2A75964  33.766  43.853   6.750
 9323POPC   C3A75965  33.792  43.926   7.050
 9323POPC   C4A75966  33.774  43.936   7.350
 9323POPC   C1B75967  34.028  43.971   6.450
 9323POPC   C2B75968  34.020  43.942   6.750
 9323POPC   C3B75969  34.039  44.017   7.050
 9323POPC   C4B75970  34.028  43.974   7.350
 9324POPC   NC375971   0.410  11.254   5.550
 9324POPC   PO475972   0.450  11.330   5.850
 9324POPC   GL175973   0.476  11.307   6.150
 9324POPC   GL275974   0.497  11.180   6.150
 9324POPC   C1A75975   0.459  11.337   6.450
 9324POPC   D2A75976   0.479  11.289   6.750
 9324POPC   C3A75977   0.442  11.327   7.050
 9324POPC   C4A75978   0.398  11.340   7.350
 9324POPC   C1B75979   0.478  11.072   6.450
 9324POPC   C2B75980   0.526  11.031   6.750
 9324POPC   C3B75981   0.507  11.101   7.050
 9324POPC   C4B75982   0.452  11.055   7.350
 9325POPC   NC375983   0.390  20.586   5.550
 9325POPC   PO475984   0.472  20.642   5.850
 9325POPC   GL175985   0.431  20.625   6.150
 9325POPC   GL275986   0.589  20.599   6.150
 9325POPC   C1A75987   0.394  20.569   6.450
 9325POPC   D2A75988   0.484  20.646   6.750
 9325POPC   C3A75989   0.469  20.636   7.050
 9325POPC   C4A75990   0.403  20.609   7.350
 9325POPC   C1B75991   0.716  20.609   6.450
 9325POPC   C2B75992   0.729  20.578   6.750
 9325POPC   C3B75993   0.708  20.599   7.050
 9325POPC   C4B75994   0.727  20.562   7.350
 9326POPC   NC375995  43.071   6.621   5.550
 9326POPC   PO475996  43.071   6.677   5.850
 9326POPC   GL175997  43.151   6.654   6.150
 9326POPC   GL275998  43.135   6.501   6.150
 9326POPC   C1A75999  43.063   6.632   6.450
 9326POPC   D2A76000  43.144   6.654   6.750
 9326POPC   C3A76001  43.145   6.645   7.050
 9326POPC   C4A76002  43.092   6.652   7.350
 9326POPC   C1B76003  43.104   6.440   6.450
 9326POPC   C2B76004  43.096   6.409   6.750
 9326POPC   C3B76005  43.062   6.414   7.050
 9326POPC   C4B76006  43.117   6.418   7.350
 9327POPC   NC376007  17.539   8.151   5.550
 9327POPC   PO476008  17.477   8.153   5.850
 9327POPC   GL176009  17.483   8.245   6.150
 9327POPC   GL276010  17.533   8.332   6.150
 9327POPC   C1A76011  17.543   8.175   6.450
 9327POPC   D2A76012  17.517   8.246   6.750
 9327POPC   C3A76013  17.463   8.157   7.050
 9327POPC   C4A76014  17.472   8.205   7.350
 9327POPC   C1B76015  17.467   8.408   6.450
 9327POPC   C2B76016  17.458   8.486   6.750
 9327POPC   C3B76017  17.435   8.480   7.050
 9327POPC   C4B76018  17.434   8.415   7.350
 9328POPC   NC376019  15.928  28.360   5.550
 9328POPC   PO476020  15.938  28.320   5.850
 9328POPC   GL176021  15.973  28.329   6.150
 9328POPC   GL276022  15.990  28.461   6.150
 9328POPC   C1A76023  15.919  28.365   6.450
 9328POPC   D2A76024  15.914  28.379   6.750
 9328POPC   C3A76025  15.908  28.414   7.050
 9328POPC   C4A76026  15.941  28.387   7.350
 9328POPC   C1B76027  16.128  28.562   6.450
 9328POPC   C2B76028  16.107  28.548   6.750
 9328POPC   C3B76029  16.129  28.522   7.050
 9328POPC   C4B76030  16.157  28.593   7.350
 9329POPC   NC376031  26.806  19.816   5.550
 9329POPC   PO476032  26.786  19.805   5.850
 9329POPC   GL176033  26.824  19.842   6.150
 9329POPC   GL276034  26.692  19.880   6.150
 9329POPC   C1A76035  26.860  19.797   6.450
 9329POPC   D2A76036  26.775  19.882   6.750
 9329POPC   C3A76037  26.808  19.818   7.050
 9329POPC   C4A76038  26.775  19.871   7.350
 9329POPC   C1B76039  26.555  19.792   6.450
 9329POPC   C2B76040  26.570  19.880   6.750
 9329POPC   C3B76041  26.532  19.798   7.050
 9329POPC   C4B76042  26.541  19.866   7.350
 9330POPC   NC376043  23.763  13.621   5.550
 9330POPC   PO476044  23.755  13.671   5.850
 9330POPC   GL176045  23.714  13.645   6.150
 9330POPC   GL276046  23.805  13.599   6.150
 9330POPC   C1A76047  23.736  13.603   6.450
 9330POPC   D2A76048  23.680  13.657   6.750
 9330POPC   C3A76049  23.749  13.653   7.050
 9330POPC   C4A76050  23.668  13.635   7.350
 9330POPC   C1B76051  24.011  13.691   6.450
 9330POPC   C2B76052  23.936  13.617   6.750
 9330POPC   C3B76053  23.918  13.695   7.050
 9330POPC   C4B76054  23.946  13.635   7.350
 9331POPC   NC376055   5.048  15.986   5.550
 9331POPC   PO476056   5.110  15.914   5.850
 9331POPC   GL176057   5.123  15.916   6.150
 9331POPC   GL276058   5.144  15.860   6.150
 9331POPC   C1A76059   5.110  15.964   6.450
 9331POPC   D2A76060   5.065  15.971   6.750
 9331POPC   C3A76061   5.123  15.940   7.050
 9331POPC   C4A76062   5.068  16.002   7.350
 9331POPC   C1B76063   5.209  15.735   6.450
 9331POPC   C2B76064   5.221  15.741   6.750
 9331POPC   C3B76065   5.229  15.768   7.050
 9331POPC   C4B76066   5.295  15.710   7.350
 9332POPC   NC376067  18.267  29.898   5.550
 9332POPC   PO476068  18.300  29.917   5.850
 9332POPC   GL176069  18.283  29.963   6.150
 9332POPC   GL276070  18.164  29.862   6.150
 9332POPC   C1A76071  18.263  29.957   6.450
 9332POPC   D2A76072  18.317  29.945   6.750
 9332POPC   C3A76073  18.311  29.923   7.050
 9332POPC   C4A76074  18.315  29.880   7.350
 9332POPC   C1B76075  18.110  29.757   6.450
 9332POPC   C2B76076  18.161  29.707   6.750
 9332POPC   C3B76077  18.116  29.778   7.050
 9332POPC   C4B76078  18.112  29.714   7.350
 9333POPC   NC376079  22.206  13.602   5.550
 9333POPC   PO476080  22.165  13.651   5.850
 9333POPC   GL176081  22.136  13.653   6.150
 9333POPC   GL276082  22.275  13.552   6.150
 9333POPC   C1A76083  22.190  13.612   6.450
 9333POPC   D2A76084  22.133  13.581   6.750
 9333POPC   C3A76085  22.168  13.631   7.050
 9333POPC   C4A76086  22.198  13.661   7.350
 9333POPC   C1B76087  22.318  13.431   6.450
 9333POPC   C2B76088  22.351  13.420   6.750
 9333POPC   C3B76089  22.340  13.425   7.050
 9333POPC   C4B76090  22.322  13.436   7.350
 9334POPC   NC376091   1.175  36.946   5.550
 9334POPC   PO476092   1.215  36.912   5.850
 9334POPC   GL176093   1.250  36.860   6.150
 9334POPC   GL276094   1.057  36.909   6.150
 9334POPC   C1A76095   1.230  36.942   6.450
 9334POPC   D2A76096   1.235  36.900   6.750
 9334POPC   C3A76097   1.213  36.875   7.050
 9334POPC   C4A76098   1.230  36.878   7.350
 9334POPC   C1B76099   0.985  36.802   6.450
 9334POPC   C2B76100   1.019  36.792   6.750
 9334POPC   C3B76101   0.935  36.798   7.050
 9334POPC   C4B76102   0.940  36.795   7.350
 9335POPC   NC376103  39.995  18.326   5.550
 9335POPC   PO476104  40.049  18.305   5.850
 9335POPC   GL176105  40.008  18.263   6.150
 9335POPC   GL276106  39.918  18.195   6.150
 9335POPC   C1A76107  39.997  18.248   6.450
 9335POPC   D2A76108  39.980  18.318   6.750
 9335POPC   C3A76109  40.002  18.322   7.050
 9335POPC   C4A76110  40.005  18.293   7.350
 9335POPC   C1B76111  39.740  18.229   6.450
 9335POPC   C2B76112  39.732  18.209   6.750
 9335POPC   C3B76113  39.781  18.219   7.050
 9335POPC   C4B76114  39.745  18.238   7.350
 9336POPC   NC376115  29.959  42.327   5.550
 9336POPC   PO476116  29.904  42.333   5.850
 9336POPC   GL176117  29.969  42.364   6.150
 9336POPC   GL276118  30.019  42.337   6.150
 9336POPC   C1A76119  29.890  42.286   6.450
 9336POPC   D2A76120  29.940  42.349   6.750
 9336POPC   C3A76121  29.939  42.326   7.050
 9336POPC   C4A76122  29.884  42.378   7.350
 9336POPC   C1B76123  30.207  42.326   6.450
 9336POPC   C2B76124  30.141  42.335   6.750
 9336POPC   C3B76125  30.128  42.390   7.050
 9336POPC   C4B76126  30.214  42.333   7.350
 9337POPC   NC376127   1.259  22.896   5.550
 9337POPC   PO476128   1.251  22.967   5.850
 9337POPC   GL176129   1.253  22.898   6.150
 9337POPC   GL276130   1.215  22.775   6.150
 9337POPC   C1A76131   1.213  22.888   6.450
 9337POPC   D2A76132   1.261  22.932   6.750
 9337POPC   C3A76133   1.220  22.933   7.050
 9337POPC   C4A76134   1.175  22.920   7.350
 9337POPC   C1B76135   1.331  22.694   6.450
 9337POPC   C2B76136   1.256  22.735   6.750
 9337POPC   C3B76137   1.296  22.742   7.050
 9337POPC   C4B76138   1.308  22.697   7.350
 9338POPC   NC376139  22.198  15.972   5.550
 9338POPC   PO476140  22.135  15.975   5.850
 9338POPC   GL176141  22.113  15.923   6.150
 9338POPC   GL276142  22.250  15.917   6.150
 9338POPC   C1A76143  22.123  15.939   6.450
 9338POPC   D2A76144  22.161  15.999   6.750
 9338POPC   C3A76145  22.141  15.915   7.050
 9338POPC   C4A76146  22.114  16.000   7.350
 9338POPC   C1B76147  22.338  15.845   6.450
 9338POPC   C2B76148  22.398  15.824   6.750
 9338POPC   C3B76149  22.391  15.815   7.050
 9338POPC   C4B76150  22.392  15.823   7.350
 9339POPC   NC376151  16.772  10.523   5.550
 9339POPC   PO476152  16.764  10.523   5.850
 9339POPC   GL176153  16.766  10.502   6.150
 9339POPC   GL276154  16.797  10.381   6.150
 9339POPC   C1A76155  16.713  10.500   6.450
 9339POPC   D2A76156  16.779  10.497   6.750
 9339POPC   C3A76157  16.755  10.551   7.050
 9339POPC   C4A76158  16.777  10.500   7.350
 9339POPC   C1B76159  16.846  10.308   6.450
 9339POPC   C2B76160  16.798  10.257   6.750
 9339POPC   C3B76161  16.881  10.276   7.050
 9339POPC   C4B76162  16.877  10.342   7.350
 9340POPC   NC376163  43.853  23.689   5.550
 9340POPC   PO476164  43.845  23.737   5.850
 9340POPC   GL176165  43.850  23.686   6.150
 9340POPC   GL276166  43.887  23.795   6.150
 9340POPC   C1A76167  43.848  23.718   6.450
 9340POPC   D2A76168  43.837  23.749   6.750
 9340POPC   C3A76169  43.869  23.699   7.050
 9340POPC   C4A76170  43.925  23.739   7.350
 9340POPC   C1B76171  43.979  23.926   6.450
 9340POPC   C2B76172  43.961  23.990   6.750
 9340POPC   C3B76173  44.002  23.988   7.050
 9340POPC   C4B76174  43.958  23.953   7.350
 9341POPC   NC376175  20.616  24.456   5.550
 9341POPC   PO476176  20.623  24.521   5.850
 9341POPC   GL176177  20.572  24.474   6.150
 9341POPC   GL276178  20.640  24.407   6.150
 9341POPC   C1A76179  20.607  24.506   6.450
 9341POPC   D2A76180  20.628  24.476   6.750
 9341POPC   C3A76181  20.599  24.512   7.050
 9341POPC   C4A76182  20.565  24.531   7.350
 9341POPC   C1B76183  20.689  24.281   6.450
 9341POPC   C2B76184  20.649  24.265   6.750
 9341POPC   C3B76185  20.688  24.283   7.050
 9341POPC   C4B76186  20.661  24.209   7.350
 9342POPC   NC376187   5.830  40.797   5.550
 9342POPC   PO476188   5.856  40.739   5.850
 9342POPC   GL176189   5.863  40.809   6.150
 9342POPC   GL276190   6.016  40.762   6.150
 9342POPC   C1A76191   5.853  40.805   6.450
 9342POPC   D2A76192   5.839  40.767   6.750
 9342POPC   C3A76193   5.886  40.790   7.050
 9342POPC   C4A76194   5.845  40.832   7.350
 9342POPC   C1B76195   6.164  40.767   6.450
 9342POPC   C2B76196   6.129  40.728   6.750
 9342POPC   C3B76197   6.152  40.774   7.050
 9342POPC   C4B76198   6.086  40.749   7.350
 9343POPC   NC376199   9.704   7.377   5.550
 9343POPC   PO476200   9.703   7.461   5.850
 9343POPC   GL176201   9.727   7.439   6.150
 9343POPC   GL276202   9.875   7.495   6.150
 9343POPC   C1A76203   9.711   7.413   6.450
 9343POPC   D2A76204   9.736   7.409   6.750
 9343POPC   C3A76205   9.739   7.405   7.050
 9343POPC   C4A76206   9.795   7.445   7.350
 9343POPC   C1B76207   9.962   7.590   6.450
 9343POPC   C2B76208   9.917   7.520   6.750
 9343POPC   C3B76209   9.981   7.609   7.050
 9343POPC   C4B76210   9.915   7.604   7.350
 9344POPC   NC376211  39.243  22.159   5.550
 9344POPC   PO476212  39.272  22.179   5.850
 9344POPC   GL176213  39.274  22.160   6.150
 9344POPC   GL276214  39.265  22.058   6.150
 9344POPC   C1A76215  39.226  22.113   6.450
 9344POPC   D2A76216  39.252  22.134   6.750
 9344POPC   C3A76217  39.247  22.158   7.050
 9344POPC   C4A76218  39.212  22.144   7.350
 9344POPC   C1B76219  39.379  21.924   6.450
 9344POPC   C2B76220  39.415  21.971   6.750
 9344POPC   C3B76221  39.399  22.012   7.050
 9344POPC   C4B76222  39.344  21.946   7.350
 9345POPC   NC376223  31.501   5.884   5.550
 9345POPC   PO476224  31.442   5.854   5.850
 9345POPC   GL176225  31.486   5.857   6.150
 9345POPC   GL276226  31.512   6.013   6.150
 9345POPC   C1A76227  31.432   5.860   6.450
 9345POPC   D2A76228  31.441   5.872   6.750
 9345POPC   C3A76229  31.484   5.917   7.050
 9345POPC   C4A76230  31.508   5.910   7.350
 9345POPC   C1B76231  31.515   6.120   6.450
 9345POPC   C2B76232  31.437   6.105   6.750
 9345POPC   C3B76233  31.440   6.141   7.050
 9345POPC   C4B76234  31.505   6.098   7.350
 9346POPC   NC376235  15.992  43.902   5.550
 9346POPC   PO476236  15.918  43.916   5.850
 9346POPC   GL176237  15.907  43.851   6.150
 9346POPC   GL276238  15.906  43.944   6.150
 9346POPC   C1A76239  15.916  43.916   6.450
 9346POPC   D2A76240  16.003  43.845   6.750
 9346POPC   C3A76241  15.959  43.935   7.050
 9346POPC   C4A76242  15.908  43.861   7.350
 9346POPC   C1B76243  15.810  44.064   6.450
 9346POPC   C2B76244  15.760  44.078   6.750
 9346POPC   C3B76245  15.753  44.034   7.050
 9346POPC   C4B76246  15.799  44.084   7.350
 9347POPC   NC376247  12.121   6.667   5.550
 9347POPC   PO476248  12.044   6.674   5.850
 9347POPC   GL176249  12.028   6.636   6.150
 9347POPC   GL276250  12.148   6.529   6.150
 9347POPC   C1A76251  12.043   6.627   6.450
 9347POPC   D2A76252  12.083   6.651   6.750
 9347POPC   C3A76253  12.036   6.646   7.050
 9347POPC   C4A76254  12.092   6.635   7.350
 9347POPC   C1B76255  12.219   6.414   6.450
 9347POPC   C2B76256  12.234   6.461   6.750
 9347POPC   C3B76257  12.216   6.400   7.050
 9347POPC   C4B76258  12.235   6.483   7.350
 9348POPC   NC376259  14.449   7.464   5.550
 9348POPC   PO476260  14.379   7.404   5.850
 9348POPC   GL176261  14.420   7.425   6.150
 9348POPC   GL276262  14.314   7.484   6.150
 9348POPC   C1A76263  14.435   7.445   6.450
 9348POPC   D2A76264  14.377   7.386   6.750
 9348POPC   C3A76265  14.356   7.399   7.050
 9348POPC   C4A76266  14.357   7.428   7.350
 9348POPC   C1B76267  14.189   7.626   6.450
 9348POPC   C2B76268  14.257   7.586   6.750
 9348POPC   C3B76269  14.252   7.555   7.050
 9348POPC   C4B76270  14.219   7.579   7.350
 9349POPC   NC376271  44.705  12.843   5.550
 9349POPC   PO476272  44.702  12.817   5.850
 9349POPC   GL176273  44.667  12.896   6.150
 9349POPC   GL276274  44.578  12.811   6.150
 9349POPC   C1A76275  44.693  12.874   6.450
 9349POPC   D2A76276  44.615  12.848   6.750
 9349POPC   C3A76277  44.671  12.815   7.050
 9349POPC   C4A76278  44.631  12.889   7.350
 9349POPC   C1B76279  44.463  12.787   6.450
 9349POPC   C2B76280  44.435  12.763   6.750
 9349POPC   C3B76281  44.415  12.753   7.050
 9349POPC   C4B76282  44.405  12.774   7.350
 9350POPC   NC376283  22.201  25.262   5.550
 9350POPC   PO476284  22.128  25.265   5.850
 9350POPC   GL176285  22.162  25.236   6.150
 9350POPC   GL276286  22.139  25.408   6.150
 9350POPC   C1A76287  22.152  25.310   6.450
 9350POPC   D2A76288  22.168  25.287   6.750
 9350POPC   C3A76289  22.166  25.220   7.050
 9350POPC   C4A76290  22.174  25.294   7.350
 9350POPC   C1B76291  22.018  25.529   6.450
 9350POPC   C2B76292  22.025  25.442   6.750
 9350POPC   C3B76293  22.025  25.441   7.050
 9350POPC   C4B76294  22.062  25.468   7.350
 9351POPC   NC376295  24.497   8.975   5.550
 9351POPC   PO476296  24.508   8.970   5.850
 9351POPC   GL176297  24.480   8.967   6.150
 9351POPC   GL276298  24.446   9.069   6.150
 9351POPC   C1A76299  24.447   8.955   6.450
 9351POPC   D2A76300  24.462   8.989   6.750
 9351POPC   C3A76301  24.480   8.954   7.050
 9351POPC   C4A76302  24.447   8.998   7.350
 9351POPC   C1B76303  24.489   9.224   6.450
 9351POPC   C2B76304  24.472   9.242   6.750
 9351POPC   C3B76305  24.429   9.257   7.050
 9351POPC   C4B76306  24.452   9.179   7.350
 9352POPC   NC376307   2.813  36.177   5.550
 9352POPC   PO476308   2.728  36.176   5.850
 9352POPC   GL176309   2.791  36.083   6.150
 9352POPC   GL276310   2.635  36.078   6.150
 9352POPC   C1A76311   2.753  36.143   6.450
 9352POPC   D2A76312   2.718  36.153   6.750
 9352POPC   C3A76313   2.760  36.123   7.050
 9352POPC   C4A76314   2.782  36.142   7.350
 9352POPC   C1B76315   2.572  35.994   6.450
 9352POPC   C2B76316   2.499  36.050   6.750
 9352POPC   C3B76317   2.555  36.037   7.050
 9352POPC   C4B76318   2.485  36.075   7.350
 9353POPC   NC376319  37.703  35.359   5.550
 9353POPC   PO476320  37.716  35.309   5.850
 9353POPC   GL176321  37.632  35.381   6.150
 9353POPC   GL276322  37.747  35.347   6.150
 9353POPC   C1A76323  37.650  35.335   6.450
 9353POPC   D2A76324  37.647  35.396   6.750
 9353POPC   C3A76325  37.700  35.345   7.050
 9353POPC   C4A76326  37.668  35.356   7.350
 9353POPC   C1B76327  37.931  35.247   6.450
 9353POPC   C2B76328  37.891  35.275   6.750
 9353POPC   C3B76329  37.909  35.239   7.050
 9353POPC   C4B76330  37.906  35.208   7.350
 9354POPC   NC376331   2.005  23.699   5.550
 9354POPC   PO476332   1.975  23.710   5.850
 9354POPC   GL176333   1.949  23.757   6.150
 9354POPC   GL276334   1.948  23.630   6.150
 9354POPC   C1A76335   1.945  23.706   6.450
 9354POPC   D2A76336   1.945  23.756   6.750
 9354POPC   C3A76337   1.988  23.685   7.050
 9354POPC   C4A76338   1.969  23.693   7.350
 9354POPC   C1B76339   1.948  23.514   6.450
 9354POPC   C2B76340   2.012  23.484   6.750
 9354POPC   C3B76341   1.958  23.454   7.050
 9354POPC   C4B76342   1.969  23.507   7.350
 9355POPC   NC376343   5.096  35.327   5.550
 9355POPC   PO476344   5.067  35.370   5.850
 9355POPC   GL176345   5.139  35.322   6.150
 9355POPC   GL276346   5.172  35.257   6.150
 9355POPC   C1A76347   5.061  35.318   6.450
 9355POPC   D2A76348   5.078  35.359   6.750
 9355POPC   C3A76349   5.071  35.341   7.050
 9355POPC   C4A76350   5.119  35.333   7.350
 9355POPC   C1B76351   5.223  35.192   6.450
 9355POPC   C2B76352   5.247  35.175   6.750
 9355POPC   C3B76353   5.280  35.145   7.050
 9355POPC   C4B76354   5.241  35.192   7.350
 9356POPC   NC376355  26.813  39.211   5.550
 9356POPC   PO476356  26.774  39.276   5.850
 9356POPC   GL176357  26.840  39.201   6.150
 9356POPC   GL276358  26.761  39.072   6.150
 9356POPC   C1A76359  26.856  39.198   6.450
 9356POPC   D2A76360  26.807  39.249   6.750
 9356POPC   C3A76361  26.820  39.207   7.050
 9356POPC   C4A76362  26.835  39.244   7.350
 9356POPC   C1B76363  26.734  38.961   6.450
 9356POPC   C2B76364  26.721  39.046   6.750
 9356POPC   C3B76365  26.711  38.998   7.050
 9356POPC   C4B76366  26.739  38.968   7.350
 9357POPC   NC376367  40.748  43.873   5.550
 9357POPC   PO476368  40.821  43.933   5.850
 9357POPC   GL176369  40.825  43.853   6.150
 9357POPC   GL276370  40.624  43.911   6.150
 9357POPC   C1A76371  40.805  43.880   6.450
 9357POPC   D2A76372  40.758  43.864   6.750
 9357POPC   C3A76373  40.790  43.849   7.050
 9357POPC   C4A76374  40.812  43.882   7.350
 9357POPC   C1B76375  40.560  43.803   6.450
 9357POPC   C2B76376  40.565  43.852   6.750
 9357POPC   C3B76377  40.499  43.868   7.050
 9357POPC   C4B76378  40.500  43.812   7.350
 9358POPC   NC376379  29.142  42.345   5.550
 9358POPC   PO476380  29.170  42.291   5.850
 9358POPC   GL176381  29.122  42.384   6.150
 9358POPC   GL276382  29.279  42.267   6.150
 9358POPC   C1A76383  29.155  42.383   6.450
 9358POPC   D2A76384  29.155  42.306   6.750
 9358POPC   C3A76385  29.154  42.314   7.050
 9358POPC   C4A76386  29.169  42.313   7.350
 9358POPC   C1B76387  29.304  42.149   6.450
 9358POPC   C2B76388  29.305  42.128   6.750
 9358POPC   C3B76389  29.336  42.165   7.050
 9358POPC   C4B76390  29.272  42.142   7.350
 9359POPC   NC376391   0.446  12.854   5.550
 9359POPC   PO476392   0.436  12.836   5.850
 9359POPC   GL176393   0.473  12.876   6.150
 9359POPC   GL276394   0.372  12.789   6.150
 9359POPC   C1A76395   0.421  12.840   6.450
 9359POPC   D2A76396   0.439  12.836   6.750
 9359POPC   C3A76397   0.410  12.817   7.050
 9359POPC   C4A76398   0.451  12.834   7.350
 9359POPC   C1B76399   0.308  12.721   6.450
 9359POPC   C2B76400   0.233  12.687   6.750
 9359POPC   C3B76401   0.266  12.722   7.050
 9359POPC   C4B76402   0.263  12.700   7.350
 9360POPC   NC376403  15.199  25.249   5.550
 9360POPC   PO476404  15.180  25.220   5.850
 9360POPC   GL176405  15.156  25.270   6.150
 9360POPC   GL276406  15.278  25.214   6.150
 9360POPC   C1A76407  15.144  25.283   6.450
 9360POPC   D2A76408  15.141  25.297   6.750
 9360POPC   C3A76409  15.181  25.304   7.050
 9360POPC   C4A76410  15.212  25.276   7.350
 9360POPC   C1B76411  15.444  25.189   6.450
 9360POPC   C2B76412  15.360  25.158   6.750
 9360POPC   C3B76413  15.451  25.148   7.050
 9360POPC   C4B76414  15.391  25.191   7.350
 9361POPC   NC376415  38.412  29.124   5.550
 9361POPC   PO476416  38.423  29.104   5.850
 9361POPC   GL176417  38.477  29.187   6.150
 9361POPC   GL276418  38.358  29.099   6.150
 9361POPC   C1A76419  38.453  29.143   6.450
 9361POPC   D2A76420  38.407  29.137   6.750
 9361POPC   C3A76421  38.415  29.100   7.050
 9361POPC   C4A76422  38.501  29.152   7.350
 9361POPC   C1B76423  38.235  29.047   6.450
 9361POPC   C2B76424  38.254  28.987   6.750
 9361POPC   C3B76425  38.222  29.040   7.050
 9361POPC   C4B76426  38.256  29.007   7.350
 9362POPC   NC376427  29.175  32.282   5.550
 9362POPC   PO476428  29.101  32.275   5.850
 9362POPC   GL176429  29.127  32.292   6.150
 9362POPC   GL276430  29.263  32.308   6.150
 9362POPC   C1A76431  29.131  32.274   6.450
 9362POPC   D2A76432  29.113  32.294   6.750
 9362POPC   C3A76433  29.171  32.257   7.050
 9362POPC   C4A76434  29.123  32.279   7.350
 9362POPC   C1B76435  29.299  32.428   6.450
 9362POPC   C2B76436  29.309  32.392   6.750
 9362POPC   C3B76437  29.380  32.354   7.050
 9362POPC   C4B76438  29.362  32.436   7.350
 9363POPC   NC376439  18.291  43.115   5.550
 9363POPC   PO476440  18.245  43.064   5.850
 9363POPC   GL176441  18.272  43.149   6.150
 9363POPC   GL276442  18.179  43.002   6.150
 9363POPC   C1A76443  18.327  43.123   6.450
 9363POPC   D2A76444  18.299  43.142   6.750
 9363POPC   C3A76445  18.301  43.157   7.050
 9363POPC   C4A76446  18.251  43.066   7.350
 9363POPC   C1B76447  18.105  42.995   6.450
 9363POPC   C2B76448  18.130  42.930   6.750
 9363POPC   C3B76449  18.063  42.973   7.050
 9363POPC   C4B76450  18.120  42.909   7.350
 9364POPC   NC376451   5.124  24.512   5.550
 9364POPC   PO476452   5.133  24.444   5.850
 9364POPC   GL176453   5.072  24.459   6.150
 9364POPC   GL276454   5.000  24.521   6.150
 9364POPC   C1A76455   5.138  24.519   6.450
 9364POPC   D2A76456   5.078  24.442   6.750
 9364POPC   C3A76457   5.087  24.478   7.050
 9364POPC   C4A76458   5.108  24.519   7.350
 9364POPC   C1B76459   4.933  24.669   6.450
 9364POPC   C2B76460   4.886  24.627   6.750
 9364POPC   C3B76461   4.911  24.610   7.050
 9364POPC   C4B76462   4.881  24.589   7.350
 9365POPC   NC376463  25.280  33.769   5.550
 9365POPC   PO476464  25.216  33.844   5.850
 9365POPC   GL176465  25.255  33.763   6.150
 9365POPC   GL276466  25.277  33.884   6.150
 9365POPC   C1A76467  25.302  33.814   6.450
 9365POPC   D2A76468  25.222  33.758   6.750
 9365POPC   C3A76469  25.310  33.772   7.050
 9365POPC   C4A76470  25.224  33.804   7.350
 9365POPC   C1B76471  25.230  34.048   6.450
 9365POPC   C2B76472  25.181  33.997   6.750
 9365POPC   C3B76473  25.243  34.070   7.050
 9365POPC   C4B76474  25.213  34.055   7.350
 9366POPC   NC376475  40.782  21.396   5.550
 9366POPC   PO476476  40.781  21.346   5.850
 9366POPC   GL176477  40.757  21.408   6.150
 9366POPC   GL276478  40.694  21.254   6.150
 9366POPC   C1A76479  40.776  21.344   6.450
 9366POPC   D2A76480  40.748  21.378   6.750
 9366POPC   C3A76481  40.804  21.411   7.050
 9366POPC   C4A76482  40.804  21.341   7.350
 9366POPC   C1B76483  40.671  21.119   6.450
 9366POPC   C2B76484  40.736  21.127   6.750
 9366POPC   C3B76485  40.723  21.167   7.050
 9366POPC   C4B76486  40.687  21.150   7.350
 9367POPC   NC376487   5.136   8.243   5.550
 9367POPC   PO476488   5.090   8.167   5.850
 9367POPC   GL176489   5.062   8.220   6.150
 9367POPC   GL276490   5.071   8.045   6.150
 9367POPC   C1A76491   5.115   8.243   6.450
 9367POPC   D2A76492   5.074   8.210   6.750
 9367POPC   C3A76493   5.097   8.213   7.050
 9367POPC   C4A76494   5.132   8.169   7.350
 9367POPC   C1B76495   5.115   7.915   6.450
 9367POPC   C2B76496   5.130   7.992   6.750
 9367POPC   C3B76497   5.141   7.925   7.050
 9367POPC   C4B76498   5.129   7.990   7.350
 9368POPC   NC376499   0.431   8.976   5.550
 9368POPC   PO476500   0.483   8.943   5.850
 9368POPC   GL176501   0.449   8.922   6.150
 9368POPC   GL276502   0.394   8.935   6.150
 9368POPC   C1A76503   0.482   8.942   6.450
 9368POPC   D2A76504   0.475   8.936   6.750
 9368POPC   C3A76505   0.440   8.982   7.050
 9368POPC   C4A76506   0.460   9.005   7.350
 9368POPC   C1B76507   0.258   8.826   6.450
 9368POPC   C2B76508   0.294   8.778   6.750
 9368POPC   C3B76509   0.209   8.788   7.050
 9368POPC   C4B76510   0.276   8.765   7.350
 9369POPC   NC376511  35.379  38.437   5.550
 9369POPC   PO476512  35.377  38.427   5.850
 9369POPC   GL176513  35.303  38.475   6.150
 9369POPC   GL276514  35.204  38.423   6.150
 9369POPC   C1A76515  35.375  38.451   6.450
 9369POPC   D2A76516  35.384  38.434   6.750
 9369POPC   C3A76517  35.399  38.417   7.050
 9369POPC   C4A76518  35.384  38.420   7.350
 9369POPC   C1B76519  35.134  38.460   6.450
 9369POPC   C2B76520  35.139  38.377   6.750
 9369POPC   C3B76521  35.129  38.463   7.050
 9369POPC   C4B76522  35.134  38.398   7.350
 9370POPC   NC376523  40.045  27.543   5.550
 9370POPC   PO476524  40.002  27.586   5.850
 9370POPC   GL176525  39.973  27.630   6.150
 9370POPC   GL276526  39.942  27.493   6.150
 9370POPC   C1A76527  39.991  27.552   6.450
 9370POPC   D2A76528  40.030  27.620   6.750
 9370POPC   C3A76529  40.054  27.577   7.050
 9370POPC   C4A76530  40.001  27.586   7.350
 9370POPC   C1B76531  39.828  27.483   6.450
 9370POPC   C2B76532  39.799  27.425   6.750
 9370POPC   C3B76533  39.848  27.408   7.050
 9370POPC   C4B76534  39.827  27.415   7.350
 9371POPC   NC376535  16.772  43.066   5.550
 9371POPC   PO476536  16.717  43.146   5.850
 9371POPC   GL176537  16.692  43.103   6.150
 9371POPC   GL276538  16.631  43.219   6.150
 9371POPC   C1A76539  16.771  43.061   6.450
 9371POPC   D2A76540  16.708  43.064   6.750
 9371POPC   C3A76541  16.704  43.068   7.050
 9371POPC   C4A76542  16.699  43.106   7.350
 9371POPC   C1B76543  16.628  43.356   6.450
 9371POPC   C2B76544  16.568  43.312   6.750
 9371POPC   C3B76545  16.632  43.337   7.050
 9371POPC   C4B76546  16.632  43.332   7.350
 9372POPC   NC376547  40.779  42.310   5.550
 9372POPC   PO476548  40.820  42.341   5.850
 9372POPC   GL176549  40.826  42.361   6.150
 9372POPC   GL276550  40.813  42.254   6.150
 9372POPC   C1A76551  40.743  42.300   6.450
 9372POPC   D2A76552  40.783  42.346   6.750
 9372POPC   C3A76553  40.774  42.327   7.050
 9372POPC   C4A76554  40.828  42.321   7.350
 9372POPC   C1B76555  40.835  42.068   6.450
 9372POPC   C2B76556  40.832  42.136   6.750
 9372POPC   C3B76557  40.887  42.124   7.050
 9372POPC   C4B76558  40.834  42.061   7.350
 9373POPC   NC376559  34.609   3.526   5.550
 9373POPC   PO476560  34.554   3.498   5.850
 9373POPC   GL176561  34.579   3.530   6.150
 9373POPC   GL276562  34.653   3.614   6.150
 9373POPC   C1A76563  34.547   3.521   6.450
 9373POPC   D2A76564  34.592   3.542   6.750
 9373POPC   C3A76565  34.618   3.521   7.050
 9373POPC   C4A76566  34.563   3.505   7.350
 9373POPC   C1B76567  34.709   3.740   6.450
 9373POPC   C2B76568  34.686   3.726   6.750
 9373POPC   C3B76569  34.650   3.781   7.050
 9373POPC   C4B76570  34.690   3.745   7.350
 9374POPC   NC376571   2.033  41.569   5.550
 9374POPC   PO476572   2.029  41.533   5.850
 9374POPC   GL176573   2.035  41.554   6.150
 9374POPC   GL276574   1.917  41.405   6.150
 9374POPC   C1A76575   1.946  41.568   6.450
 9374POPC   D2A76576   1.974  41.598   6.750
 9374POPC   C3A76577   1.998  41.527   7.050
 9374POPC   C4A76578   1.969  41.599   7.350
 9374POPC   C1B76579   1.883  41.294   6.450
 9374POPC   C2B76580   1.857  41.342   6.750
 9374POPC   C3B76581   1.904  41.286   7.050
 9374POPC   C4B76582   1.869  41.361   7.350
 9375POPC   NC376583  31.476  33.753   5.550
 9375POPC   PO476584  31.501  33.808   5.850
 9375POPC   GL176585  31.474  33.850   6.150
 9375POPC   GL276586  31.538  33.768   6.150
 9375POPC   C1A76587  31.447  33.760   6.450
 9375POPC   D2A76588  31.444  33.790   6.750
 9375POPC   C3A76589  31.450  33.758   7.050
 9375POPC   C4A76590  31.435  33.764   7.350
 9375POPC   C1B76591  31.715  33.645   6.450
 9375POPC   C2B76592  31.637  33.687   6.750
 9375POPC   C3B76593  31.635  33.676   7.050
 9375POPC   C4B76594  31.678  33.598   7.350
 9376POPC   NC376595  16.714  40.733   5.550
 9376POPC   PO476596  16.771  40.767   5.850
 9376POPC   GL176597  16.751  40.829   6.150
 9376POPC   GL276598  16.680  40.712   6.150
 9376POPC   C1A76599  16.684  40.816   6.450
 9376POPC   D2A76600  16.742  40.817   6.750
 9376POPC   C3A76601  16.726  40.824   7.050
 9376POPC   C4A76602  16.752  40.802   7.350
 9376POPC   C1B76603  16.660  40.518   6.450
 9376POPC   C2B76604  16.585  40.604   6.750
 9376POPC   C3B76605  16.623  40.514   7.050
 9376POPC   C4B76606  16.600  40.514   7.350
 9377POPC   NC376607   1.169  17.518   5.550
 9377POPC   PO476608   1.237  17.485   5.850
 9377POPC   GL176609   1.253  17.511   6.150
 9377POPC   GL276610   1.123  17.455   6.150
 9377POPC   C1A76611   1.255  17.516   6.450
 9377POPC   D2A76612   1.196  17.485   6.750
 9377POPC   C3A76613   1.247  17.552   7.050
 9377POPC   C4A76614   1.183  17.501   7.350
 9377POPC   C1B76615   0.958  17.430   6.450
 9377POPC   C2B76616   1.008  17.393   6.750
 9377POPC   C3B76617   0.977  17.379   7.050
 9377POPC   C4B76618   0.943  17.423   7.350
 9378POPC   NC376619   3.522  29.951   5.550
 9378POPC   PO476620   3.539  29.872   5.850
 9378POPC   GL176621   3.557  29.960   6.150
 9378POPC   GL276622   3.660  29.897   6.150
 9378POPC   C1A76623   3.533  29.889   6.450
 9378POPC   D2A76624   3.527  29.937   6.750
 9378POPC   C3A76625   3.514  29.970   7.050
 9378POPC   C4A76626   3.531  29.881   7.350
 9378POPC   C1B76627   3.809  29.931   6.450
 9378POPC   C2B76628   3.776  29.847   6.750
 9378POPC   C3B76629   3.796  29.861   7.050
 9378POPC   C4B76630   3.796  29.909   7.350
 9379POPC   NC376631  29.910  13.634   5.550
 9379POPC   PO476632  29.947  13.632   5.850
 9379POPC   GL176633  29.962  13.640   6.150
 9379POPC   GL276634  29.928  13.534   6.150
 9379POPC   C1A76635  29.896  13.657   6.450
 9379POPC   D2A76636  29.905  13.632   6.750
 9379POPC   C3A76637  29.934  13.628   7.050
 9379POPC   C4A76638  29.935  13.667   7.350
 9379POPC   C1B76639  29.885  13.368   6.450
 9379POPC   C2B76640  29.872  13.329   6.750
 9379POPC   C3B76641  29.894  13.333   7.050
 9379POPC   C4B76642  29.949  13.418   7.350
 9380POPC   NC376643  22.903  19.872   5.550
 9380POPC   PO476644  22.919  19.851   5.850
 9380POPC   GL176645  22.944  19.860   6.150
 9380POPC   GL276646  22.910  19.998   6.150
 9380POPC   C1A76647  22.925  19.785   6.450
 9380POPC   D2A76648  22.941  19.805   6.750
 9380POPC   C3A76649  22.978  19.844   7.050
 9380POPC   C4A76650  22.974  19.835   7.350
 9380POPC   C1B76651  22.951  20.036   6.450
 9380POPC   C2B76652  22.896  20.058   6.750
 9380POPC   C3B76653  22.926  20.132   7.050
 9380POPC   C4B76654  22.976  20.100   7.350
 9381POPC   NC376655   5.068  23.710   5.550
 9381POPC   PO476656   5.098  23.757   5.850
 9381POPC   GL176657   5.063  23.678   6.150
 9381POPC   GL276658   5.188  23.736   6.150
 9381POPC   C1A76659   5.104  23.672   6.450
 9381POPC   D2A76660   5.098  23.764   6.750
 9381POPC   C3A76661   5.071  23.669   7.050
 9381POPC   C4A76662   5.077  23.711   7.350
 9381POPC   C1B76663   5.329  23.719   6.450
 9381POPC   C2B76664   5.321  23.776   6.750
 9381POPC   C3B76665   5.340  23.775   7.050
 9381POPC   C4B76666   5.328  23.800   7.350
 9382POPC   NC376667  34.576  28.381   5.550
 9382POPC   PO476668  34.551  28.411   5.850
 9382POPC   GL176669  34.611  28.410   6.150
 9382POPC   GL276670  34.468  28.308   6.150
 9382POPC   C1A76671  34.615  28.419   6.450
 9382POPC   D2A76672  34.586  28.339   6.750
 9382POPC   C3A76673  34.550  28.366   7.050
 9382POPC   C4A76674  34.567  28.362   7.350
 9382POPC   C1B76675  34.414  28.181   6.450
 9382POPC   C2B76676  34.353  28.249   6.750
 9382POPC   C3B76677  34.360  28.224   7.050
 9382POPC   C4B76678  34.342  28.178   7.350
 9383POPC   NC376679  17.536  14.373   5.550
 9383POPC   PO476680  17.463  14.378   5.850
 9383POPC   GL176681  17.515  14.446   6.150
 9383POPC   GL276682  17.574  14.453   6.150
 9383POPC   C1A76683  17.463  14.375   6.450
 9383POPC   D2A76684  17.552  14.376   6.750
 9383POPC   C3A76685  17.491  14.388   7.050
 9383POPC   C4A76686  17.495  14.363   7.350
 9383POPC   C1B76687  17.696  14.550   6.450
 9383POPC   C2B76688  17.637  14.546   6.750
 9383POPC   C3B76689  17.681  14.568   7.050
 9383POPC   C4B76690  17.692  14.617   7.350
 9384POPC   NC376691  34.626   8.999   5.550
 9384POPC   PO476692  34.527   8.937   5.850
 9384POPC   GL176693  34.539   8.979   6.150
 9384POPC   GL276694  34.545   8.902   6.150
 9384POPC   C1A76695  34.531   9.002   6.450
 9384POPC   D2A76696  34.560   8.982   6.750
 9384POPC   C3A76697  34.540   8.980   7.050
 9384POPC   C4A76698  34.532   8.947   7.350
 9384POPC   C1B76699  34.465   8.779   6.450
 9384POPC   C2B76700  34.496   8.702   6.750
 9384POPC   C3B76701  34.462   8.755   7.050
 9384POPC   C4B76702  34.497   8.732   7.350
 9385POPC   NC376703   0.453  19.035   5.550
 9385POPC   PO476704   0.461  19.055   5.850
 9385POPC   GL176705   0.423  19.046   6.150
 9385POPC   GL276706   0.515  19.208   6.150
 9385POPC   C1A76707   0.412  19.048   6.450
 9385POPC   D2A76708   0.465  19.108   6.750
 9385POPC   C3A76709   0.486  19.060   7.050
 9385POPC   C4A76710   0.431  19.063   7.350
 9385POPC   C1B76711   0.636  19.267   6.450
 9385POPC   C2B76712   0.621  19.249   6.750
 9385POPC   C3B76713   0.630  19.273   7.050
 9385POPC   C4B76714   0.590  19.242   7.350
 9386POPC   NC376715  38.490  35.302   5.550
 9386POPC   PO476716  38.437  35.330   5.850
 9386POPC   GL176717  38.449  35.362   6.150
 9386POPC   GL276718  38.399  35.457   6.150
 9386POPC   C1A76719  38.476  35.308   6.450
 9386POPC   D2A76720  38.437  35.352   6.750
 9386POPC   C3A76721  38.458  35.381   7.050
 9386POPC   C4A76722  38.471  35.317   7.350
 9386POPC   C1B76723  38.306  35.577   6.450
 9386POPC   C2B76724  38.309  35.585   6.750
 9386POPC   C3B76725  38.341  35.537   7.050
 9386POPC   C4B76726  38.325  35.591   7.350
 9387POPC   NC376727  43.860  38.460   5.550
 9387POPC   PO476728  43.880  38.437   5.850
 9387POPC   GL176729  43.848  38.413   6.150
 9387POPC   GL276730  44.008  38.367   6.150
 9387POPC   C1A76731  43.918  38.505   6.450
 9387POPC   D2A76732  43.916  38.409   6.750
 9387POPC   C3A76733  43.877  38.425   7.050
 9387POPC   C4A76734  43.908  38.500   7.350
 9387POPC   C1B76735  44.009  38.305   6.450
 9387POPC   C2B76736  44.021  38.273   6.750
 9387POPC   C3B76737  44.086  38.252   7.050
 9387POPC   C4B76738  44.101  38.258   7.350
 9388POPC   NC376739   6.621  18.240   5.550
 9388POPC   PO476740   6.633  18.256   5.850
 9388POPC   GL176741   6.656  18.259   6.150
 9388POPC   GL276742   6.637  18.415   6.150
 9388POPC   C1A76743   6.645  18.245   6.450
 9388POPC   D2A76744   6.622  18.293   6.750
 9388POPC   C3A76745   6.666  18.241   7.050
 9388POPC   C4A76746   6.669  18.281   7.350
 9388POPC   C1B76747   6.659  18.533   6.450
 9388POPC   C2B76748   6.666  18.522   6.750
 9388POPC   C3B76749   6.675  18.547   7.050
 9388POPC   C4B76750   6.706  18.525   7.350
 9389POPC   NC376751  23.701  43.067   5.550
 9389POPC   PO476752  23.696  43.110   5.850
 9389POPC   GL176753  23.670  43.072   6.150
 9389POPC   GL276754  23.619  43.067   6.150
 9389POPC   C1A76755  23.763  43.062   6.450
 9389POPC   D2A76756  23.680  43.144   6.750
 9389POPC   C3A76757  23.692  43.125   7.050
 9389POPC   C4A76758  23.759  43.149   7.350
 9389POPC   C1B76759  23.567  42.908   6.450
 9389POPC   C2B76760  23.520  42.962   6.750
 9389POPC   C3B76761  23.488  42.937   7.050
 9389POPC   C4B76762  23.536  42.943   7.350
 9390POPC   NC376763  32.992   7.428   5.550
 9390POPC   PO476764  33.004   7.392   5.850
 9390POPC   GL176765  33.040   7.437   6.150
 9390POPC   GL276766  33.116   7.373   6.150
 9390POPC   C1A76767  33.011   7.433   6.450
 9390POPC   D2A76768  33.064   7.437   6.750
 9390POPC   C3A76769  32.999   7.455   7.050
 9390POPC   C4A76770  33.006   7.373   7.350
 9390POPC   C1B76771  33.301   7.397   6.450
 9390POPC   C2B76772  33.260   7.408   6.750
 9390POPC   C3B76773  33.241   7.424   7.050
 9390POPC   C4B76774  33.245   7.434   7.350
 9391POPC   NC376775  30.667   1.233   5.550
 9391POPC   PO476776  30.724   1.180   5.850
 9391POPC   GL176777  30.657   1.204   6.150
 9391POPC   GL276778  30.608   1.206   6.150
 9391POPC   C1A76779  30.718   1.178   6.450
 9391POPC   D2A76780  30.670   1.225   6.750
 9391POPC   C3A76781  30.684   1.228   7.050
 9391POPC   C4A76782  30.689   1.191   7.350
 9391POPC   C1B76783  30.504   1.107   6.450
 9391POPC   C2B76784  30.513   1.081   6.750
 9391POPC   C3B76785  30.430   1.082   7.050
 9391POPC   C4B76786  30.455   1.136   7.350
 9392POPC   NC376787  19.071  12.106   5.550
 9392POPC   PO476788  19.043  12.117   5.850
 9392POPC   GL176789  19.065  12.058   6.150
 9392POPC   GL276790  19.112  12.176   6.150
 9392POPC   C1A76791  19.073  12.119   6.450
 9392POPC   D2A76792  19.068  12.049   6.750
 9392POPC   C3A76793  19.078  12.066   7.050
 9392POPC   C4A76794  19.030  12.072   7.350
 9392POPC   C1B76795  19.256  12.282   6.450
 9392POPC   C2B76796  19.211  12.259   6.750
 9392POPC   C3B76797  19.268  12.314   7.050
 9392POPC   C4B76798  19.223  12.303   7.350
 9393POPC   NC376799  23.723  40.778   5.550
 9393POPC   PO476800  23.730  40.818   5.850
 9393POPC   GL176801  23.671  40.789   6.150
 9393POPC   GL276802  23.715  40.928   6.150
 9393POPC   C1A76803  23.740  40.785   6.450
 9393POPC   D2A76804  23.726  40.822   6.750
 9393POPC   C3A76805  23.691  40.766   7.050
 9393POPC   C4A76806  23.724  40.820   7.350
 9393POPC   C1B76807  23.606  41.059   6.450
 9393POPC   C2B76808  23.668  41.020   6.750
 9393POPC   C3B76809  23.653  41.055   7.050
 9393POPC   C4B76810  23.632  41.062   7.350
 9394POPC   NC376811  27.642   5.838   5.550
 9394POPC   PO476812  27.626   5.825   5.850
 9394POPC   GL176813  27.584   5.858   6.150
 9394POPC   GL276814  27.491   5.772   6.150
 9394POPC   C1A76815  27.571   5.863   6.450
 9394POPC   D2A76816  27.627   5.865   6.750
 9394POPC   C3A76817  27.636   5.894   7.050
 9394POPC   C4A76818  27.565   5.895   7.350
 9394POPC   C1B76819  27.363   5.678   6.450
 9394POPC   C2B76820  27.400   5.670   6.750
 9394POPC   C3B76821  27.391   5.669   7.050
 9394POPC   C4B76822  27.429   5.683   7.350
 9395POPC   NC376823  42.359   4.361   5.550
 9395POPC   PO476824  42.364   4.290   5.850
 9395POPC   GL176825  42.290   4.302   6.150
 9395POPC   GL276826  42.425   4.388   6.150
 9395POPC   C1A76827  42.296   4.317   6.450
 9395POPC   D2A76828  42.349   4.329   6.750
 9395POPC   C3A76829  42.303   4.294   7.050
 9395POPC   C4A76830  42.345   4.309   7.350
 9395POPC   C1B76831  42.525   4.473   6.450
 9395POPC   C2B76832  42.584   4.408   6.750
 9395POPC   C3B76833  42.528   4.478   7.050
 9395POPC   C4B76834  42.582   4.481   7.350
 9396POPC   NC376835  38.435  42.320   5.550
 9396POPC   PO476836  38.457  42.372   5.850
 9396POPC   GL176837  38.409  42.327   6.150
 9396POPC   GL276838  38.530  42.372   6.150
 9396POPC   C1A76839  38.445  42.335   6.450
 9396POPC   D2A76840  38.486  42.347   6.750
 9396POPC   C3A76841  38.426  42.374   7.050
 9396POPC   C4A76842  38.409  42.292   7.350
 9396POPC   C1B76843  38.647  42.358   6.450
 9396POPC   C2B76844  38.684  42.444   6.750
 9396POPC   C3B76845  38.731  42.402   7.050
 9396POPC   C4B76846  38.679  42.381   7.350
 9397POPC   NC376847  36.160  11.317   5.550
 9397POPC   PO476848  36.081  11.341   5.850
 9397POPC   GL176849  36.096  11.333   6.150
 9397POPC   GL276850  36.165  11.220   6.150
 9397POPC   C1A76851  36.114  11.350   6.450
 9397POPC   D2A76852  36.161  11.320   6.750
 9397POPC   C3A76853  36.172  11.271   7.050
 9397POPC   C4A76854  36.144  11.335   7.350
 9397POPC   C1B76855  36.101  11.022   6.450
 9397POPC   C2B76856  36.140  11.009   6.750
 9397POPC   C3B76857  36.088  11.031   7.050
 9397POPC   C4B76858  36.155  11.084   7.350
 9398POPC   NC376859  13.634   6.654   5.550
 9398POPC   PO476860  13.639   6.620   5.850
 9398POPC   GL176861  13.640   6.685   6.150
 9398POPC   GL276862  13.689   6.764   6.150
 9398POPC   C1A76863  13.586   6.654   6.450
 9398POPC   D2A76864  13.629   6.685   6.750
 9398POPC   C3A76865  13.674   6.660   7.050
 9398POPC   C4A76866  13.676   6.613   7.350
 9398POPC   C1B76867  13.682   6.878   6.450
 9398POPC   C2B76868  13.695   6.839   6.750
 9398POPC   C3B76869  13.717   6.913   7.050
 9398POPC   C4B76870  13.715   6.849   7.350
 9399POPC   NC376871   9.773  29.185   5.550
 9399POPC   PO476872   9.771  29.139   5.850
 9399POPC   GL176873   9.760  29.109   6.150
 9399POPC   GL276874   9.724  29.208   6.150
 9399POPC   C1A76875   9.712  29.113   6.450
 9399POPC   D2A76876   9.751  29.164   6.750
 9399POPC   C3A76877   9.779  29.159   7.050
 9399POPC   C4A76878   9.724  29.101   7.350
 9399POPC   C1B76879   9.665  29.350   6.450
 9399POPC   C2B76880   9.655  29.327   6.750
 9399POPC   C3B76881   9.593  29.385   7.050
 9399POPC   C4B76882   9.632  29.345   7.350
 9400POPC   NC376883   1.215  34.527   5.550
 9400POPC   PO476884   1.211  34.550   5.850
 9400POPC   GL176885   1.254  34.536   6.150
 9400POPC   GL276886   1.322  34.466   6.150
 9400POPC   C1A76887   1.219  34.554   6.450
 9400POPC   D2A76888   1.237  34.579   6.750
 9400POPC   C3A76889   1.201  34.553   7.050
 9400POPC   C4A76890   1.207  34.539   7.350
 9400POPC   C1B76891   1.409  34.420   6.450
 9400POPC   C2B76892   1.422  34.410   6.750
 9400POPC   C3B76893   1.394  34.437   7.050
 9400POPC   C4B76894   1.401  34.390   7.350
 9401POPC   NC376895  26.087  25.993   5.550
 9401POPC   PO476896  26.086  26.064   5.850
 9401POPC   GL176897  26.074  26.038   6.150
 9401POPC   GL276898  26.005  25.947   6.150
 9401POPC   C1A76899  26.051  26.070   6.450
 9401POPC   D2A76900  26.052  26.069   6.750
 9401POPC   C3A76901  26.034  26.073   7.050
 9401POPC   C4A76902  25.999  25.995   7.350
 9401POPC   C1B76903  25.972  25.785   6.450
 9401POPC   C2B76904  25.932  25.757   6.750
 9401POPC   C3B76905  25.996  25.788   7.050
 9401POPC   C4B76906  25.989  25.803   7.350
 9402POPC   NC376907   3.552  28.323   5.550
 9402POPC   PO476908   3.510  28.392   5.850
 9402POPC   GL176909   3.575  28.343   6.150
 9402POPC   GL276910   3.661  28.468   6.150
 9402POPC   C1A76911   3.559  28.410   6.450
 9402POPC   D2A76912   3.560  28.325   6.750
 9402POPC   C3A76913   3.516  28.388   7.050
 9402POPC   C4A76914   3.591  28.322   7.350
 9402POPC   C1B76915   3.723  28.498   6.450
 9402POPC   C2B76916   3.786  28.463   6.750
 9402POPC   C3B76917   3.748  28.460   7.050
 9402POPC   C4B76918   3.738  28.478   7.350
 9403POPC   NC376919  15.197  21.421   5.550
 9403POPC   PO476920  15.167  21.347   5.850
 9403POPC   GL176921  15.197  21.411   6.150
 9403POPC   GL276922  15.196  21.480   6.150
 9403POPC   C1A76923  15.130  21.390   6.450
 9403POPC   D2A76924  15.208  21.413   6.750
 9403POPC   C3A76925  15.181  21.416   7.050
 9403POPC   C4A76926  15.219  21.413   7.350
 9403POPC   C1B76927  15.149  21.589   6.450
 9403POPC   C2B76928  15.134  21.679   6.750
 9403POPC   C3B76929  15.164  21.638   7.050
 9403POPC   C4B76930  15.165  21.653   7.350
 9404POPC   NC376931  31.514  20.630   5.550
 9404POPC   PO476932  31.508  20.610   5.850
 9404POPC   GL176933  31.454  20.575   6.150
 9404POPC   GL276934  31.520  20.465   6.150
 9404POPC   C1A76935  31.452  20.582   6.450
 9404POPC   D2A76936  31.490  20.570   6.750
 9404POPC   C3A76937  31.436  20.616   7.050
 9404POPC   C4A76938  31.451  20.599   7.350
 9404POPC   C1B76939  31.556  20.335   6.450
 9404POPC   C2B76940  31.519  20.341   6.750
 9404POPC   C3B76941  31.517  20.367   7.050
 9404POPC   C4B76942  31.588  20.414   7.350
 9405POPC   NC376943  24.454  29.884   5.550
 9405POPC   PO476944  24.525  29.958   5.850
 9405POPC   GL176945  24.457  29.928   6.150
 9405POPC   GL276946  24.404  29.866   6.150
 9405POPC   C1A76947  24.516  29.932   6.450
 9405POPC   D2A76948  24.475  29.883   6.750
 9405POPC   C3A76949  24.470  29.886   7.050
 9405POPC   C4A76950  24.456  29.951   7.350
 9405POPC   C1B76951  24.284  29.893   6.450
 9405POPC   C2B76952  24.219  29.944   6.750
 9405POPC   C3B76953  24.198  29.947   7.050
 9405POPC   C4B76954  24.236  29.950   7.350
 9406POPC   NC376955  29.100  12.810   5.550
 9406POPC   PO476956  29.181  12.887   5.850
 9406POPC   GL176957  29.161  12.807   6.150
 9406POPC   GL276958  29.248  12.834   6.150
 9406POPC   C1A76959  29.188  12.857   6.450
 9406POPC   D2A76960  29.185  12.809   6.750
 9406POPC   C3A76961  29.146  12.858   7.050
 9406POPC   C4A76962  29.117  12.816   7.350
 9406POPC   C1B76963  29.384  12.854   6.450
 9406POPC   C2B76964  29.400  12.895   6.750
 9406POPC   C3B76965  29.427  12.904   7.050
 9406POPC   C4B76966  29.379  12.891   7.350
 9407POPC   NC376967  10.569   6.624   5.550
 9407POPC   PO476968  10.523   6.649   5.850
 9407POPC   GL176969  10.503   6.621   6.150
 9407POPC   GL276970  10.393   6.567   6.150
 9407POPC   C1A76971  10.553   6.625   6.450
 9407POPC   D2A76972  10.488   6.646   6.750
 9407POPC   C3A76973  10.475   6.615   7.050
 9407POPC   C4A76974  10.528   6.664   7.350
 9407POPC   C1B76975  10.337   6.566   6.450
 9407POPC   C2B76976  10.320   6.550   6.750
 9407POPC   C3B76977  10.328   6.555   7.050
 9407POPC   C4B76978  10.258   6.558   7.350
 9408POPC   NC376979   8.180   5.101   5.550
 9408POPC   PO476980   8.183   5.050   5.850
 9408POPC   GL176981   8.241   5.134   6.150
 9408POPC   GL276982   8.157   5.000   6.150
 9408POPC   C1A76983   8.198   5.132   6.450
 9408POPC   D2A76984   8.152   5.086   6.750
 9408POPC   C3A76985   8.223   5.070   7.050
 9408POPC   C4A76986   8.147   5.068   7.350
 9408POPC   C1B76987   8.164   4.882   6.450
 9408POPC   C2B76988   8.166   4.827   6.750
 9408POPC   C3B76989   8.182   4.890   7.050
 9408POPC   C4B76990   8.197   4.829   7.350
 9409POPC   NC376991  39.202  25.266   5.550
 9409POPC   PO476992  39.183  25.216   5.850
 9409POPC   GL176993  39.190  25.233   6.150
 9409POPC   GL276994  39.294  25.172   6.150
 9409POPC   C1A76995  39.198  25.252   6.450
 9409POPC   D2A76996  39.265  25.256   6.750
 9409POPC   C3A76997  39.185  25.243   7.050
 9409POPC   C4A76998  39.185  25.270   7.350
 9409POPC   C1B76999  39.349  25.092   6.450
 9409POPC   C2B77000  39.352  25.122   6.750
 9409POPC   C3B77001  39.385  25.107   7.050
 9409POPC   C4B77002  39.395  25.048   7.350
 9410POPC   NC377003  27.564  27.575   5.550
 9410POPC   PO477004  27.547  27.554   5.850
 9410POPC   GL177005  27.625  27.623   6.150
 9410POPC   GL277006  27.603  27.681   6.150
 9410POPC   C1A77007  27.633  27.564   6.450
 9410POPC   D2A77008  27.597  27.574   6.750
 9410POPC   C3A77009  27.623  27.597   7.050
 9410POPC   C4A77010  27.623  27.639   7.350
 9410POPC   C1B77011  27.618  27.803   6.450
 9410POPC   C2B77012  27.617  27.814   6.750
 9410POPC   C3B77013  27.659  27.844   7.050
 9410POPC   C4B77014  27.646  27.840   7.350
 9411POPC   NC377015  27.631  30.726   5.550
 9411POPC   PO477016  27.565  30.681   5.850
 9411POPC   GL177017  27.556  30.712   6.150
 9411POPC   GL277018  27.546  30.525   6.150
 9411POPC   C1A77019  27.555  30.711   6.450
 9411POPC   D2A77020  27.635  30.728   6.750
 9411POPC   C3A77021  27.608  30.675   7.050
 9411POPC   C4A77022  27.548  30.689   7.350
 9411POPC   C1B77023  27.624  30.463   6.450
 9411POPC   C2B77024  27.589  30.474   6.750
 9411POPC   C3B77025  27.611  30.436   7.050
 9411POPC   C4B77026  27.578  30.488   7.350
 9412POPC   NC377027  34.576   2.018   5.550
 9412POPC   PO477028  34.625   1.960   5.850
 9412POPC   GL177029  34.590   2.027   6.150
 9412POPC   GL277030  34.449   2.072   6.150
 9412POPC   C1A77031  34.624   2.013   6.450
 9412POPC   D2A77032  34.587   2.001   6.750
 9412POPC   C3A77033  34.611   2.005   7.050
 9412POPC   C4A77034  34.565   2.017   7.350
 9412POPC   C1B77035  34.392   2.077   6.450
 9412POPC   C2B77036  34.356   2.085   6.750
 9412POPC   C3B77037  34.350   2.080   7.050
 9412POPC   C4B77038  34.377   2.073   7.350
 9413POPC   NC377039  12.811  13.667   5.550
 9413POPC   PO477040  12.836  13.646   5.850
 9413POPC   GL177041  12.834  13.666   6.150
 9413POPC   GL277042  12.767  13.545   6.150
 9413POPC   C1A77043  12.802  13.609   6.450
 9413POPC   D2A77044  12.857  13.607   6.750
 9413POPC   C3A77045  12.887  13.613   7.050
 9413POPC   C4A77046  12.851  13.598   7.350
 9413POPC   C1B77047  12.744  13.387   6.450
 9413POPC   C2B77048  12.693  13.435   6.750
 9413POPC   C3B77049  12.659  13.465   7.050
 9413POPC   C4B77050  12.724  13.435   7.350
 9414POPC   NC377051   1.237  18.317   5.550
 9414POPC   PO477052   1.211  18.332   5.850
 9414POPC   GL177053   1.258  18.267   6.150
 9414POPC   GL277054   1.152  18.377   6.150
 9414POPC   C1A77055   1.258  18.238   6.450
 9414POPC   D2A77056   1.232  18.318   6.750
 9414POPC   C3A77057   1.242  18.291   7.050
 9414POPC   C4A77058   1.165  18.325   7.350
 9414POPC   C1B77059   1.036  18.496   6.450
 9414POPC   C2B77060   1.032  18.492   6.750
 9414POPC   C3B77061   1.107  18.515   7.050
 9414POPC   C4B77062   1.076  18.502   7.350
 9415POPC   NC377063  26.851   3.591   5.550
 9415POPC   PO477064  26.791   3.514   5.850
 9415POPC   GL177065  26.797   3.503   6.150
 9415POPC   GL277066  26.921   3.557   6.150
 9415POPC   C1A77067  26.819   3.590   6.450
 9415POPC   D2A77068  26.828   3.493   6.750
 9415POPC   C3A77069  26.804   3.500   7.050
 9415POPC   C4A77070  26.774   3.575   7.350
 9415POPC   C1B77071  27.112   3.525   6.450
 9415POPC   C2B77072  27.027   3.556   6.750
 9415POPC   C3B77073  27.024   3.506   7.050
 9415POPC   C4B77074  27.097   3.568   7.350
 9416POPC   NC377075  25.305  33.049   5.550
 9416POPC   PO477076  25.216  32.985   5.850
 9416POPC   GL177077  25.313  33.064   6.150
 9416POPC   GL277078  25.269  33.139   6.150
 9416POPC   C1A77079  25.218  32.996   6.450
 9416POPC   D2A77080  25.234  33.040   6.750
 9416POPC   C3A77081  25.292  33.013   7.050
 9416POPC   C4A77082  25.270  33.070   7.350
 9416POPC   C1B77083  25.356  33.272   6.450
 9416POPC   C2B77084  25.370  33.304   6.750
 9416POPC   C3B77085  25.289  33.315   7.050
 9416POPC   C4B77086  25.337  33.282   7.350
 9417POPC   NC377087  44.703  36.938   5.550
 9417POPC   PO477088  44.652  36.927   5.850
 9417POPC   GL177089  44.702  36.943   6.150
 9417POPC   GL277090  44.551  36.806   6.150
 9417POPC   C1A77091  44.655  36.914   6.450
 9417POPC   D2A77092  44.712  36.902   6.750
 9417POPC   C3A77093  44.690  36.948   7.050
 9417POPC   C4A77094  44.645  36.860   7.350
 9417POPC   C1B77095  44.450  36.711   6.450
 9417POPC   C2B77096  44.441  36.692   6.750
 9417POPC   C3B77097  44.428  36.731   7.050
 9417POPC   C4B77098  44.440  36.741   7.350
 9418POPC   NC377099  39.259   2.765   5.550
 9418POPC   PO477100  39.257   2.726   5.850
 9418POPC   GL177101  39.220   2.789   6.150
 9418POPC   GL277102  39.208   2.643   6.150
 9418POPC   C1A77103  39.271   2.784   6.450
 9418POPC   D2A77104  39.235   2.719   6.750
 9418POPC   C3A77105  39.186   2.751   7.050
 9418POPC   C4A77106  39.205   2.805   7.350
 9418POPC   C1B77107  39.050   2.528   6.450
 9418POPC   C2B77108  39.057   2.571   6.750
 9418POPC   C3B77109  39.077   2.538   7.050
 9418POPC   C4B77110  39.128   2.584   7.350
 9419POPC   NC377111  32.241  36.928   5.550
 9419POPC   PO477112  32.289  36.870   5.850
 9419POPC   GL177113  32.294  36.944   6.150
 9419POPC   GL277114  32.398  36.910   6.150
 9419POPC   C1A77115  32.295  36.866   6.450
 9419POPC   D2A77116  32.266  36.874   6.750
 9419POPC   C3A77117  32.264  36.864   7.050
 9419POPC   C4A77118  32.261  36.917   7.350
 9419POPC   C1B77119  32.467  36.860   6.450
 9419POPC   C2B77120  32.537  36.913   6.750
 9419POPC   C3B77121  32.464  36.836   7.050
 9419POPC   C4B77122  32.529  36.842   7.350
 9420POPC   NC377123  39.245  19.070   5.550
 9420POPC   PO477124  39.182  19.064   5.850
 9420POPC   GL177125  39.224  19.068   6.150
 9420POPC   GL277126  39.147  19.012   6.150
 9420POPC   C1A77127  39.193  19.036   6.450
 9420POPC   D2A77128  39.203  19.039   6.750
 9420POPC   C3A77129  39.235  19.070   7.050
 9420POPC   C4A77130  39.212  19.106   7.350
 9420POPC   C1B77131  38.989  18.975   6.450
 9420POPC   C2B77132  38.944  18.998   6.750
 9420POPC   C3B77133  38.953  18.999   7.050
 9420POPC   C4B77134  38.973  18.944   7.350
 9421POPC   NC377135   5.116  12.089   5.550
 9421POPC   PO477136   5.067  12.076   5.850
 9421POPC   GL177137   5.113  12.046   6.150
 9421POPC   GL277138   5.082  12.179   6.150
 9421POPC   C1A77139   5.085  12.090   6.450
 9421POPC   D2A77140   5.089  12.079   6.750
 9421POPC   C3A77141   5.134  12.052   7.050
 9421POPC   C4A77142   5.078  12.126   7.350
 9421POPC   C1B77143   5.086  12.354   6.450
 9421POPC   C2B77144   5.165  12.275   6.750
 9421POPC   C3B77145   5.161  12.342   7.050
 9421POPC   C4B77146   5.089  12.351   7.350
 9422POPC   NC377147  43.135   1.192   5.550
 9422POPC   PO477148  43.133   1.205   5.850
 9422POPC   GL177149  43.135   1.251   6.150
 9422POPC   GL277150  43.096   1.129   6.150
 9422POPC   C1A77151  43.109   1.236   6.450
 9422POPC   D2A77152  43.129   1.173   6.750
 9422POPC   C3A77153  43.079   1.206   7.050
 9422POPC   C4A77154  43.139   1.230   7.350
 9422POPC   C1B77155  43.022   0.984   6.450
 9422POPC   C2B77156  43.035   1.000   6.750
 9422POPC   C3B77157  43.052   1.025   7.050
 9422POPC   C4B77158  43.019   0.984   7.350
 9423POPC   NC377159  33.840  10.519   5.550
 9423POPC   PO477160  33.834  10.508   5.850
 9423POPC   GL177161  33.806  10.566   6.150
 9423POPC   GL277162  33.715  10.543   6.150
 9423POPC   C1A77163  33.800  10.483   6.450
 9423POPC   D2A77164  33.791  10.493   6.750
 9423POPC   C3A77165  33.817  10.525   7.050
 9423POPC   C4A77166  33.795  10.564   7.350
 9423POPC   C1B77167  33.602  10.466   6.450
 9423POPC   C2B77168  33.574  10.519   6.750
 9423POPC   C3B77169  33.589  10.521   7.050
 9423POPC   C4B77170  33.511  10.445   7.350
 9424POPC   NC377171  15.212  35.393   5.550
 9424POPC   PO477172  15.199  35.399   5.850
 9424POPC   GL177173  15.154  35.387   6.150
 9424POPC   GL277174  15.323  35.379   6.150
 9424POPC   C1A77175  15.206  35.351   6.450
 9424POPC   D2A77176  15.190  35.323   6.750
 9424POPC   C3A77177  15.198  35.315   7.050
 9424POPC   C4A77178  15.193  35.303   7.350
 9424POPC   C1B77179  15.374  35.454   6.450
 9424POPC   C2B77180  15.397  35.418   6.750
 9424POPC   C3B77181  15.376  35.408   7.050
 9424POPC   C4B77182  15.381  35.458   7.350
 9425POPC   NC377183  44.650  30.722   5.550
 9425POPC   PO477184  44.612  30.672   5.850
 9425POPC   GL177185  44.710  30.725   6.150
 9425POPC   GL277186  44.683  30.553   6.150
 9425POPC   C1A77187  44.682  30.741   6.450
 9425POPC   D2A77188  44.655  30.726   6.750
 9425POPC   C3A77189  44.619  30.736   7.050
 9425POPC   C4A77190  44.690  30.724   7.350
 9425POPC   C1B77191  44.650  30.428   6.450
 9425POPC   C2B77192  44.615  30.482   6.750
 9425POPC   C3B77193  44.645  30.414   7.050
 9425POPC   C4B77194  44.638  30.422   7.350
 9426POPC   NC377195  26.776   5.891   5.550
 9426POPC   PO477196  26.847   5.858   5.850
 9426POPC   GL177197  26.770   5.911   6.150
 9426POPC   GL277198  26.740   5.791   6.150
 9426POPC   C1A77199  26.837   5.912   6.450
 9426POPC   D2A77200  26.862   5.916   6.750
 9426POPC   C3A77201  26.839   5.889   7.050
 9426POPC   C4A77202  26.825   5.840   7.350
 9426POPC   C1B77203  26.675   5.639   6.450
 9426POPC   C2B77204  26.677   5.656   6.750
 9426POPC   C3B77205  26.708   5.674   7.050
 9426POPC   C4B77206  26.641   5.679   7.350
 9427POPC   NC377207  44.706   2.724   5.550
 9427POPC   PO477208  44.666   2.754   5.850
 9427POPC   GL177209  44.672   2.762   6.150
 9427POPC   GL277210  44.526   2.787   6.150
 9427POPC   C1A77211  44.695   2.756   6.450
 9427POPC   D2A77212  44.711   2.795   6.750
 9427POPC   C3A77213  44.629   2.801   7.050
 9427POPC   C4A77214  44.615   2.756   7.350
 9427POPC   C1B77215  44.405   2.852   6.450
 9427POPC   C2B77216  44.456   2.869   6.750
 9427POPC   C3B77217  44.436   2.847   7.050
 9427POPC   C4B77218  44.399   2.915   7.350
 9428POPC   NC377219  30.736   9.756   5.550
 9428POPC   PO477220  30.657   9.716   5.850
 9428POPC   GL177221  30.732   9.717   6.150
 9428POPC   GL277222  30.794   9.906   6.150
 9428POPC   C1A77223  30.697   9.773   6.450
 9428POPC   D2A77224  30.711   9.762   6.750
 9428POPC   C3A77225  30.689   9.698   7.050
 9428POPC   C4A77226  30.732   9.773   7.350
 9428POPC   C1B77227  30.803   9.941   6.450
 9428POPC   C2B77228  30.798  10.018   6.750
 9428POPC   C3B77229  30.782  10.013   7.050
 9428POPC   C4B77230  30.821  10.014   7.350
 9429POPC   NC377231  39.183  40.029   5.550
 9429POPC   PO477232  39.255  40.009   5.850
 9429POPC   GL177233  39.237  40.006   6.150
 9429POPC   GL277234  39.125  39.951   6.150
 9429POPC   C1A77235  39.241  40.004   6.450
 9429POPC   D2A77236  39.187  39.965   6.750
 9429POPC   C3A77237  39.193  39.997   7.050
 9429POPC   C4A77238  39.201  40.056   7.350
 9429POPC   C1B77239  38.966  39.904   6.450
 9429POPC   C2B77240  39.043  39.890   6.750
 9429POPC   C3B77241  39.031  39.935   7.050
 9429POPC   C4B77242  39.000  39.934   7.350
 9430POPC   NC377243  33.056   1.194   5.550
 9430POPC   PO477244  33.007   1.209   5.850
 9430POPC   GL177245  32.989   1.262   6.150
 9430POPC   GL277246  32.950   1.225   6.150
 9430POPC   C1A77247  33.069   1.253   6.450
 9430POPC   D2A77248  33.027   1.196   6.750
 9430POPC   C3A77249  33.015   1.198   7.050
 9430POPC   C4A77250  32.977   1.204   7.350
 9430POPC   C1B77251  32.801   1.267   6.450
 9430POPC   C2B77252  32.748   1.237   6.750
 9430POPC   C3B77253  32.738   1.305   7.050
 9430POPC   C4B77254  32.770   1.236   7.350
 9431POPC   NC377255   7.452   4.310   5.550
 9431POPC   PO477256   7.469   4.280   5.850
 9431POPC   GL177257   7.391   4.274   6.150
 9431POPC   GL277258   7.532   4.218   6.150
 9431POPC   C1A77259   7.454   4.343   6.450
 9431POPC   D2A77260   7.420   4.297   6.750
 9431POPC   C3A77261   7.384   4.357   7.050
 9431POPC   C4A77262   7.434   4.271   7.350
 9431POPC   C1B77263   7.562   4.172   6.450
 9431POPC   C2B77264   7.582   4.118   6.750
 9431POPC   C3B77265   7.619   4.176   7.050
 9431POPC   C4B77266   7.610   4.139   7.350
 9432POPC   NC377267  13.626  18.296   5.550
 9432POPC   PO477268  13.601  18.252   5.850
 9432POPC   GL177269  13.606  18.249   6.150
 9432POPC   GL277270  13.496  18.294   6.150
 9432POPC   C1A77271  13.652  18.324   6.450
 9432POPC   D2A77272  13.624  18.302   6.750
 9432POPC   C3A77273  13.674  18.270   7.050
 9432POPC   C4A77274  13.588  18.318   7.350
 9432POPC   C1B77275  13.418  18.257   6.450
 9432POPC   C2B77276  13.373  18.280   6.750
 9432POPC   C3B77277  13.344  18.233   7.050
 9432POPC   C4B77278  13.408  18.294   7.350
 9433POPC   NC377279   7.400  43.148   5.550
 9433POPC   PO477280   7.420  43.080   5.850
 9433POPC   GL177281   7.417  43.156   6.150
 9433POPC   GL277282   7.529  43.143   6.150
 9433POPC   C1A77283   7.432  43.120   6.450
 9433POPC   D2A77284   7.455  43.083   6.750
 9433POPC   C3A77285   7.407  43.077   7.050
 9433POPC   C4A77286   7.448  43.123   7.350
 9433POPC   C1B77287   7.676  43.182   6.450
 9433POPC   C2B77288   7.629  43.129   6.750
 9433POPC   C3B77289   7.630  43.199   7.050
 9433POPC   C4B77290   7.668  43.206   7.350
 9434POPC   NC377291  36.879  38.497   5.550
 9434POPC   PO477292  36.906  38.499   5.850
 9434POPC   GL177293  36.942  38.489   6.150
 9434POPC   GL277294  36.791  38.453   6.150
 9434POPC   C1A77295  36.907  38.429   6.450
 9434POPC   D2A77296  36.867  38.489   6.750
 9434POPC   C3A77297  36.953  38.422   7.050
 9434POPC   C4A77298  36.887  38.435   7.350
 9434POPC   C1B77299  36.678  38.543   6.450
 9434POPC   C2B77300  36.702  38.548   6.750
 9434POPC   C3B77301  36.658  38.511   7.050
 9434POPC   C4B77302  36.617  38.567   7.350
 9435POPC   NC377303  29.953  11.339   5.550
 9435POPC   PO477304  29.897  11.341   5.850
 9435POPC   GL177305  29.875  11.265   6.150
 9435POPC   GL277306  29.891  11.163   6.150
 9435POPC   C1A77307  29.934  11.284   6.450
 9435POPC   D2A77308  29.894  11.313   6.750
 9435POPC   C3A77309  29.906  11.326   7.050
 9435POPC   C4A77310  29.937  11.333   7.350
 9435POPC   C1B77311  29.871  11.045   6.450
 9435POPC   C2B77312  29.961  11.028   6.750
 9435POPC   C3B77313  29.940  11.053   7.050
 9435POPC   C4B77314  29.932  11.054   7.350
 9436POPC   NC377315  27.643  29.095   5.550
 9436POPC   PO477316  27.632  29.154   5.850
 9436POPC   GL177317  27.592  29.175   6.150
 9436POPC   GL277318  27.606  29.280   6.150
 9436POPC   C1A77319  27.564  29.187   6.450
 9436POPC   D2A77320  27.604  29.190   6.750
 9436POPC   C3A77321  27.547  29.098   7.050
 9436POPC   C4A77322  27.633  29.165   7.350
 9436POPC   C1B77323  27.574  29.381   6.450
 9436POPC   C2B77324  27.561  29.384   6.750
 9436POPC   C3B77325  27.582  29.411   7.050
 9436POPC   C4B77326  27.584  29.433   7.350
 9437POPC   NC377327  19.821   4.345   5.550
 9437POPC   PO477328  19.793   4.301   5.850
 9437POPC   GL177329  19.843   4.356   6.150
 9437POPC   GL277330  19.919   4.363   6.150
 9437POPC   C1A77331  19.823   4.335   6.450
 9437POPC   D2A77332  19.820   4.339   6.750
 9437POPC   C3A77333  19.791   4.326   7.050
 9437POPC   C4A77334  19.852   4.312   7.350
 9437POPC   C1B77335  20.044   4.355   6.450
 9437POPC   C2B77336  20.082   4.416   6.750
 9437POPC   C3B77337  20.051   4.433   7.050
 9437POPC   C4B77338  20.044   4.366   7.350
 9438POPC   NC377339  40.737  29.932   5.550
 9438POPC   PO477340  40.768  29.948   5.850
 9438POPC   GL177341  40.792  29.894   6.150
 9438POPC   GL277342  40.901  29.904   6.150
 9438POPC   C1A77343  40.745  29.937   6.450
 9438POPC   D2A77344  40.790  29.927   6.750
 9438POPC   C3A77345  40.753  29.905   7.050
 9438POPC   C4A77346  40.761  29.946   7.350
 9438POPC   C1B77347  41.028  29.831   6.450
 9438POPC   C2B77348  40.989  29.754   6.750
 9438POPC   C3B77349  40.984  29.774   7.050
 9438POPC   C4B77350  40.997  29.783   7.350
 9439POPC   NC377351  10.552  33.846   5.550
 9439POPC   PO477352  10.540  33.790   5.850
 9439POPC   GL177353  10.480  33.801   6.150
 9439POPC   GL277354  10.481  33.701   6.150
 9439POPC   C1A77355  10.512  33.813   6.450
 9439POPC   D2A77356  10.490  33.834   6.750
 9439POPC   C3A77357  10.556  33.820   7.050
 9439POPC   C4A77358  10.490  33.808   7.350
 9439POPC   C1B77359  10.484  33.576   6.450
 9439POPC   C2B77360  10.532  33.511   6.750
 9439POPC   C3B77361  10.525  33.552   7.050
 9439POPC   C4B77362  10.508  33.507   7.350
 9440POPC   NC377363   4.340  22.168   5.550
 9440POPC   PO477364   4.334  22.137   5.850
 9440POPC   GL177365   4.303  22.197   6.150
 9440POPC   GL277366   4.441  22.122   6.150
 9440POPC   C1A77367   4.332  22.167   6.450
 9440POPC   D2A77368   4.275  22.167   6.750
 9440POPC   C3A77369   4.354  22.157   7.050
 9440POPC   C4A77370   4.335  22.157   7.350
 9440POPC   C1B77371   4.557  22.141   6.450
 9440POPC   C2B77372   4.596  22.214   6.750
 9440POPC   C3B77373   4.578  22.194   7.050
 9440POPC   C4B77374   4.575  22.117   7.350
 9441POPC   NC377375   2.757  31.462   5.550
 9441POPC   PO477376   2.761  31.489   5.850
 9441POPC   GL177377   2.741  31.476   6.150
 9441POPC   GL277378   2.711  31.531   6.150
 9441POPC   C1A77379   2.761  31.456   6.450
 9441POPC   D2A77380   2.792  31.449   6.750
 9441POPC   C3A77381   2.718  31.429   7.050
 9441POPC   C4A77382   2.741  31.504   7.350
 9441POPC   C1B77383   2.605  31.677   6.450
 9441POPC   C2B77384   2.648  31.682   6.750
 9441POPC   C3B77385   2.667  31.684   7.050
 9441POPC   C4B77386   2.594  31.702   7.350
 9442POPC   NC377387   5.888  21.413   5.550
 9442POPC   PO477388   5.908  21.421   5.850
 9442POPC   GL177389   5.912  21.402   6.150
 9442POPC   GL277390   5.834  21.303   6.150
 9442POPC   C1A77391   5.848  21.395   6.450
 9442POPC   D2A77392   5.826  21.400   6.750
 9442POPC   C3A77393   5.900  21.374   7.050
 9442POPC   C4A77394   5.833  21.394   7.350
 9442POPC   C1B77395   5.775  21.188   6.450
 9442POPC   C2B77396   5.802  21.198   6.750
 9442POPC   C3B77397   5.721  21.153   7.050
 9442POPC   C4B77398   5.713  21.124   7.350
 9443POPC   NC377399  12.045  42.384   5.550
 9443POPC   PO477400  12.070  42.330   5.850
 9443POPC   GL177401  12.039  42.286   6.150
 9443POPC   GL277402  12.014  42.193   6.150
 9443POPC   C1A77403  12.067  42.355   6.450
 9443POPC   D2A77404  12.099  42.347   6.750
 9443POPC   C3A77405  12.082  42.343   7.050
 9443POPC   C4A77406  12.062  42.374   7.350
 9443POPC   C1B77407  12.054  42.099   6.450
 9443POPC   C2B77408  12.003  42.077   6.750
 9443POPC   C3B77409  12.027  42.077   7.050
 9443POPC   C4B77410  11.990  42.077   7.350
 9444POPC   NC377411  22.981  30.686   5.550
 9444POPC   PO477412  22.975  30.655   5.850
 9444POPC   GL177413  22.957  30.667   6.150
 9444POPC   GL277414  23.015  30.588   6.150
 9444POPC   C1A77415  22.896  30.666   6.450
 9444POPC   D2A77416  22.936  30.729   6.750
 9444POPC   C3A77417  22.933  30.659   7.050
 9444POPC   C4A77418  22.932  30.738   7.350
 9444POPC   C1B77419  23.088  30.507   6.450
 9444POPC   C2B77420  23.121  30.499   6.750
 9444POPC   C3B77421  23.047  30.537   7.050
 9444POPC   C4B77422  23.119  30.453   7.350
 9445POPC   NC377423   8.928  11.257   5.550
 9445POPC   PO477424   8.988  11.296   5.850
 9445POPC   GL177425   9.014  11.316   6.150
 9445POPC   GL277426   9.016  11.406   6.150
 9445POPC   C1A77427   9.014  11.278   6.450
 9445POPC   D2A77428   8.992  11.266   6.750
 9445POPC   C3A77429   8.997  11.274   7.050
 9445POPC   C4A77430   8.971  11.336   7.350
 9445POPC   C1B77431   9.023  11.543   6.450
 9445POPC   C2B77432   9.038  11.544   6.750
 9445POPC   C3B77433   9.061  11.516   7.050
 9445POPC   C4B77434   9.044  11.521   7.350
 9446POPC   NC377435   2.779  30.657   5.550
 9446POPC   PO477436   2.791  30.743   5.850
 9446POPC   GL177437   2.719  30.656   6.150
 9446POPC   GL277438   2.767  30.616   6.150
 9446POPC   C1A77439   2.774  30.678   6.450
 9446POPC   D2A77440   2.756  30.663   6.750
 9446POPC   C3A77441   2.806  30.727   7.050
 9446POPC   C4A77442   2.774  30.701   7.350
 9446POPC   C1B77443   2.772  30.486   6.450
 9446POPC   C2B77444   2.707  30.463   6.750
 9446POPC   C3B77445   2.777  30.459   7.050
 9446POPC   C4B77446   2.707  30.454   7.350
 9447POPC   NC377447  41.602  26.000   5.550
 9447POPC   PO477448  41.512  26.020   5.850
 9447POPC   GL177449  41.570  26.070   6.150
 9447POPC   GL277450  41.555  26.171   6.150
 9447POPC   C1A77451  41.532  26.030   6.450
 9447POPC   D2A77452  41.520  26.000   6.750
 9447POPC   C3A77453  41.522  26.005   7.050
 9447POPC   C4A77454  41.546  26.039   7.350
 9447POPC   C1B77455  41.624  26.237   6.450
 9447POPC   C2B77456  41.662  26.308   6.750
 9447POPC   C3B77457  41.667  26.329   7.050
 9447POPC   C4B77458  41.611  26.331   7.350
 9448POPC   NC377459  36.175   1.993   5.550
 9448POPC   PO477460  36.110   1.992   5.850
 9448POPC   GL177461  36.096   2.013   6.150
 9448POPC   GL277462  36.075   2.099   6.150
 9448POPC   C1A77463  36.100   1.983   6.450
 9448POPC   D2A77464  36.162   1.982   6.750
 9448POPC   C3A77465  36.168   2.002   7.050
 9448POPC   C4A77466  36.109   1.995   7.350
 9448POPC   C1B77467  35.986   2.202   6.450
 9448POPC   C2B77468  36.011   2.268   6.750
 9448POPC   C3B77469  35.990   2.261   7.050
 9448POPC   C4B77470  36.033   2.174   7.350
 9449POPC   NC377471  29.158  18.284   5.550
 9449POPC   PO477472  29.190  18.313   5.850
 9449POPC   GL177473  29.120  18.329   6.150
 9449POPC   GL277474  29.030  18.257   6.150
 9449POPC   C1A77475  29.184  18.267   6.450
 9449POPC   D2A77476  29.122  18.293   6.750
 9449POPC   C3A77477  29.147  18.255   7.050
 9449POPC   C4A77478  29.122  18.277   7.350
 9449POPC   C1B77479  28.872  18.209   6.450
 9449POPC   C2B77480  28.855  18.196   6.750
 9449POPC   C3B77481  28.931  18.275   7.050
 9449POPC   C4B77482  28.942  18.257   7.350
 9450POPC   NC377483  32.289  31.469   5.550
 9450POPC   PO477484  32.211  31.457   5.850
 9450POPC   GL177485  32.217  31.435   6.150
 9450POPC   GL277486  32.129  31.550   6.150
 9450POPC   C1A77487  32.281  31.447   6.450
 9450POPC   D2A77488  32.264  31.512   6.750
 9450POPC   C3A77489  32.238  31.494   7.050
 9450POPC   C4A77490  32.261  31.432   7.350
 9450POPC   C1B77491  32.089  31.617   6.450
 9450POPC   C2B77492  32.064  31.664   6.750
 9450POPC   C3B77493  32.054  31.677   7.050
 9450POPC   C4B77494  32.056  31.707   7.350
 9451POPC   NC377495  33.053  32.283   5.550
 9451POPC   PO477496  32.989  32.203   5.850
 9451POPC   GL177497  33.029  32.224   6.150
 9451POPC   GL277498  32.965  32.356   6.150
 9451POPC   C1A77499  33.074  32.199   6.450
 9451POPC   D2A77500  33.011  32.207   6.750
 9451POPC   C3A77501  33.016  32.251   7.050
 9451POPC   C4A77502  33.060  32.206   7.350
 9451POPC   C1B77503  33.015  32.516   6.450
 9451POPC   C2B77504  32.951  32.530   6.750
 9451POPC   C3B77505  33.027  32.471   7.050
 9451POPC   C4B77506  32.994  32.488   7.350
 9452POPC   NC377507  33.817  36.103   5.550
 9452POPC   PO477508  33.780  36.127   5.850
 9452POPC   GL177509  33.820  36.144   6.150
 9452POPC   GL277510  33.943  36.142   6.150
 9452POPC   C1A77511  33.849  36.131   6.450
 9452POPC   D2A77512  33.808  36.117   6.750
 9452POPC   C3A77513  33.797  36.079   7.050
 9452POPC   C4A77514  33.754  36.111   7.350
 9452POPC   C1B77515  34.002  36.036   6.450
 9452POPC   C2B77516  34.061  36.020   6.750
 9452POPC   C3B77517  34.045  36.040   7.050
 9452POPC   C4B77518  34.009  36.078   7.350
 9453POPC   NC377519  39.187  41.594   5.550
 9453POPC   PO477520  39.237  41.607   5.850
 9453POPC   GL177521  39.218  41.578   6.150
 9453POPC   GL277522  39.132  41.607   6.150
 9453POPC   C1A77523  39.253  41.511   6.450
 9453POPC   D2A77524  39.256  41.590   6.750
 9453POPC   C3A77525  39.198  41.536   7.050
 9453POPC   C4A77526  39.207  41.566   7.350
 9453POPC   C1B77527  39.008  41.712   6.450
 9453POPC   C2B77528  39.007  41.738   6.750
 9453POPC   C3B77529  39.013  41.713   7.050
 9453POPC   C4B77530  39.036  41.763   7.350
 9454POPC   NC377531   5.833  15.929   5.550
 9454POPC   PO477532   5.825  15.967   5.850
 9454POPC   GL177533   5.874  15.973   6.150
 9454POPC   GL277534   5.851  15.804   6.150
 9454POPC   C1A77535   5.828  15.912   6.450
 9454POPC   D2A77536   5.846  15.930   6.750
 9454POPC   C3A77537   5.871  15.978   7.050
 9454POPC   C4A77538   5.836  15.947   7.350
 9454POPC   C1B77539   5.866  15.725   6.450
 9454POPC   C2B77540   5.872  15.744   6.750
 9454POPC   C3B77541   5.803  15.723   7.050
 9454POPC   C4B77542   5.833  15.747   7.350
 9455POPC   NC377543  18.314  19.047   5.550
 9455POPC   PO477544  18.267  19.013   5.850
 9455POPC   GL177545  18.289  19.074   6.150
 9455POPC   GL277546  18.353  19.044   6.150
 9455POPC   C1A77547  18.314  19.020   6.450
 9455POPC   D2A77548  18.303  19.050   6.750
 9455POPC   C3A77549  18.236  19.089   7.050
 9455POPC   C4A77550  18.245  19.065   7.350
 9455POPC   C1B77551  18.494  18.944   6.450
 9455POPC   C2B77552  18.472  18.926   6.750
 9455POPC   C3B77553  18.480  18.969   7.050
 9455POPC   C4B77554  18.522  18.927   7.350
 9456POPC   NC377555  31.497  24.465   5.550
 9456POPC   PO477556  31.466  24.463   5.850
 9456POPC   GL177557  31.448  24.453   6.150
 9456POPC   GL277558  31.365  24.438   6.150
 9456POPC   C1A77559  31.494  24.519   6.450
 9456POPC   D2A77560  31.518  24.534   6.750
 9456POPC   C3A77561  31.465  24.528   7.050
 9456POPC   C4A77562  31.484  24.475   7.350
 9456POPC   C1B77563  31.245  24.384   6.450
 9456POPC   C2B77564  31.257  24.350   6.750
 9456POPC   C3B77565  31.256  24.360   7.050
 9456POPC   C4B77566  31.194  24.398   7.350
 9457POPC   NC377567  42.373  24.497   5.550
 9457POPC   PO477568  42.308  24.493   5.850
 9457POPC   GL177569  42.286  24.488   6.150
 9457POPC   GL277570  42.463  24.540   6.150
 9457POPC   C1A77571  42.384  24.479   6.450
 9457POPC   D2A77572  42.333  24.487   6.750
 9457POPC   C3A77573  42.345  24.494   7.050
 9457POPC   C4A77574  42.316  24.463   7.350
 9457POPC   C1B77575  42.535  24.672   6.450
 9457POPC   C2B77576  42.512  24.687   6.750
 9457POPC   C3B77577  42.561  24.624   7.050
 9457POPC   C4B77578  42.551  24.702   7.350
 9458POPC   NC377579   1.175  27.544   5.550
 9458POPC   PO477580   1.196  27.597   5.850
 9458POPC   GL177581   1.255  27.561   6.150
 9458POPC   GL277582   1.113  27.533   6.150
 9458POPC   C1A77583   1.174  27.605   6.450
 9458POPC   D2A77584   1.176  27.561   6.750
 9458POPC   C3A77585   1.226  27.611   7.050
 9458POPC   C4A77586   1.194  27.620   7.350
 9458POPC   C1B77587   0.981  27.587   6.450
 9458POPC   C2B77588   1.010  27.600   6.750
 9458POPC   C3B77589   0.948  27.611   7.050
 9458POPC   C4B77590   0.961  27.541   7.350
 9459POPC   NC377591   2.017  32.233   5.550
 9459POPC   PO477592   1.945  32.275   5.850
 9459POPC   GL177593   2.019  32.235   6.150
 9459POPC   GL277594   1.939  32.356   6.150
 9459POPC   C1A77595   2.023  32.218   6.450
 9459POPC   D2A77596   2.010  32.248   6.750
 9459POPC   C3A77597   2.032  32.223   7.050
 9459POPC   C4A77598   2.011  32.263   7.350
 9459POPC   C1B77599   1.954  32.474   6.450
 9459POPC   C2B77600   1.984  32.522   6.750
 9459POPC   C3B77601   1.978  32.524   7.050
 9459POPC   C4B77602   1.965  32.480   7.350
 9460POPC   NC377603  27.566  32.212   5.550
 9460POPC   PO477604  27.573  32.219   5.850
 9460POPC   GL177605  27.615  32.287   6.150
 9460POPC   GL277606  27.638  32.109   6.150
 9460POPC   C1A77607  27.639  32.213   6.450
 9460POPC   D2A77608  27.580  32.238   6.750
 9460POPC   C3A77609  27.619  32.259   7.050
 9460POPC   C4A77610  27.601  32.260   7.350
 9460POPC   C1B77611  27.570  31.959   6.450
 9460POPC   C2B77612  27.631  31.989   6.750
 9460POPC   C3B77613  27.601  32.018   7.050
 9460POPC   C4B77614  27.547  32.042   7.350
 9461POPC   NC377615  21.378  42.342   5.550
 9461POPC   PO477616  21.421  42.367   5.850
 9461POPC   GL177617  21.363  42.361   6.150
 9461POPC   GL277618  21.486  42.456   6.150
 9461POPC   C1A77619  21.353  42.291   6.450
 9461POPC   D2A77620  21.376  42.349   6.750
 9461POPC   C3A77621  21.370  42.289   7.050
 9461POPC   C4A77622  21.403  42.327   7.350
 9461POPC   C1B77623  21.555  42.555   6.450
 9461POPC   C2B77624  21.571  42.507   6.750
 9461POPC   C3B77625  21.537  42.543   7.050
 9461POPC   C4B77626  21.533  42.559   7.350
 9462POPC   NC377627  36.932  27.567   5.550
 9462POPC   PO477628  36.871  27.597   5.850
 9462POPC   GL177629  36.937  27.631   6.150
 9462POPC   GL277630  36.830  27.657   6.150
 9462POPC   C1A77631  36.886  27.547   6.450
 9462POPC   D2A77632  36.949  27.580   6.750
 9462POPC   C3A77633  36.945  27.621   7.050
 9462POPC   C4A77634  36.906  27.629   7.350
 9462POPC   C1B77635  36.733  27.773   6.450
 9462POPC   C2B77636  36.705  27.747   6.750
 9462POPC   C3B77637  36.708  27.720   7.050
 9462POPC   C4B77638  36.709  27.766   7.350
 9463POPC   NC377639  34.550  41.606   5.550
 9463POPC   PO477640  34.585  41.606   5.850
 9463POPC   GL177641  34.556  41.599   6.150
 9463POPC   GL277642  34.662  41.642   6.150
 9463POPC   C1A77643  34.580  41.581   6.450
 9463POPC   D2A77644  34.612  41.586   6.750
 9463POPC   C3A77645  34.527  41.546   7.050
 9463POPC   C4A77646  34.619  41.588   7.350
 9463POPC   C1B77647  34.761  41.646   6.450
 9463POPC   C2B77648  34.782  41.662   6.750
 9463POPC   C3B77649  34.807  41.683   7.050
 9463POPC   C4B77650  34.829  41.658   7.350
 9464POPC   NC377651   1.978  33.056   5.550
 9464POPC   PO477652   1.977  33.040   5.850
 9464POPC   GL177653   2.017  33.049   6.150
 9464POPC   GL277654   1.985  32.896   6.150
 9464POPC   C1A77655   2.015  33.013   6.450
 9464POPC   D2A77656   1.961  33.040   6.750
 9464POPC   C3A77657   2.015  32.986   7.050
 9464POPC   C4A77658   2.013  33.070   7.350
 9464POPC   C1B77659   2.016  32.761   6.450
 9464POPC   C2B77660   1.985  32.759   6.750
 9464POPC   C3B77661   2.002  32.784   7.050
 9464POPC   C4B77662   1.932  32.801   7.350
 9465POPC   NC377663  39.269  33.833   5.550
 9465POPC   PO477664  39.237  33.752   5.850
 9465POPC   GL177665  39.258  33.756   6.150
 9465POPC   GL277666  39.277  33.907   6.150
 9465POPC   C1A77667  39.271  33.812   6.450
 9465POPC   D2A77668  39.264  33.841   6.750
 9465POPC   C3A77669  39.279  33.815   7.050
 9465POPC   C4A77670  39.182  33.765   7.350
 9465POPC   C1B77671  39.229  34.030   6.450
 9465POPC   C2B77672  39.211  34.041   6.750
 9465POPC   C3B77673  39.300  34.041   7.050
 9465POPC   C4B77674  39.294  34.082   7.350
 9466POPC   NC377675  21.433   2.755   5.550
 9466POPC   PO477676  21.395   2.731   5.850
 9466POPC   GL177677  21.434   2.765   6.150
 9466POPC   GL277678  21.371   2.939   6.150
 9466POPC   C1A77679  21.423   2.780   6.450
 9466POPC   D2A77680  21.409   2.743   6.750
 9466POPC   C3A77681  21.371   2.811   7.050
 9466POPC   C4A77682  21.427   2.749   7.350
 9466POPC   C1B77683  21.368   3.059   6.450
 9466POPC   C2B77684  21.372   3.020   6.750
 9466POPC   C3B77685  21.403   2.981   7.050
 9466POPC   C4B77686  21.405   3.001   7.350
 9467POPC   NC377687  39.998  20.636   5.550
 9467POPC   PO477688  39.961  20.563   5.850
 9467POPC   GL177689  40.043  20.624   6.150
 9467POPC   GL277690  40.001  20.509   6.150
 9467POPC   C1A77691  40.023  20.611   6.450
 9467POPC   D2A77692  40.005  20.587   6.750
 9467POPC   C3A77693  39.985  20.588   7.050
 9467POPC   C4A77694  39.988  20.589   7.350
 9467POPC   C1B77695  40.102  20.354   6.450
 9467POPC   C2B77696  40.052  20.363   6.750
 9467POPC   C3B77697  40.040  20.420   7.050
 9467POPC   C4B77698  40.121  20.334   7.350
 9468POPC   NC377699  42.355  18.290   5.550
 9468POPC   PO477700  42.330  18.259   5.850
 9468POPC   GL177701  42.352  18.283   6.150
 9468POPC   GL277702  42.192  18.390   6.150
 9468POPC   C1A77703  42.370  18.234   6.450
 9468POPC   D2A77704  42.362  18.304   6.750
 9468POPC   C3A77705  42.310  18.315   7.050
 9468POPC   C4A77706  42.334  18.245   7.350
 9468POPC   C1B77707  42.092  18.420   6.450
 9468POPC   C2B77708  42.138  18.371   6.750
 9468POPC   C3B77709  42.149  18.392   7.050
 9468POPC   C4B77710  42.123  18.389   7.350
 9469POPC   NC377711  38.406  33.810   5.550
 9469POPC   PO477712  38.494  33.790   5.850
 9469POPC   GL177713  38.427  33.823   6.150
 9469POPC   GL277714  38.496  33.751   6.150
 9469POPC   C1A77715  38.421  33.812   6.450
 9469POPC   D2A77716  38.491  33.836   6.750
 9469POPC   C3A77717  38.428  33.765   7.050
 9469POPC   C4A77718  38.420  33.813   7.350
 9469POPC   C1B77719  38.582  33.637   6.450
 9469POPC   C2B77720  38.602  33.627   6.750
 9469POPC   C3B77721  38.644  33.644   7.050
 9469POPC   C4B77722  38.651  33.653   7.350
 9470POPC   NC377723  12.097  21.425   5.550
 9470POPC   PO477724  12.070  21.386   5.850
 9470POPC   GL177725  12.067  21.415   6.150
 9470POPC   GL277726  11.985  21.222   6.150
 9470POPC   C1A77727  12.118  21.363   6.450
 9470POPC   D2A77728  12.027  21.343   6.750
 9470POPC   C3A77729  12.062  21.358   7.050
 9470POPC   C4A77730  12.124  21.387   7.350
 9470POPC   C1B77731  11.998  21.126   6.450
 9470POPC   C2B77732  11.971  21.200   6.750
 9470POPC   C3B77733  12.024  21.170   7.050
 9470POPC   C4B77734  11.967  21.148   7.350
 9471POPC   NC377735   6.649  35.374   5.550
 9471POPC   PO477736   6.667  35.394   5.850
 9471POPC   GL177737   6.601  35.328   6.150
 9471POPC   GL277738   6.573  35.215   6.150
 9471POPC   C1A77739   6.609  35.314   6.450
 9471POPC   D2A77740   6.611  35.353   6.750
 9471POPC   C3A77741   6.602  35.352   7.050
 9471POPC   C4A77742   6.657  35.308   7.350
 9471POPC   C1B77743   6.548  35.182   6.450
 9471POPC   C2B77744   6.555  35.117   6.750
 9471POPC   C3B77745   6.514  35.126   7.050
 9471POPC   C4B77746   6.551  35.110   7.350
 9472POPC   NC377747  26.864  42.292   5.550
 9472POPC   PO477748  26.862  42.342   5.850
 9472POPC   GL177749  26.803  42.302   6.150
 9472POPC   GL277750  26.646  42.324   6.150
 9472POPC   C1A77751  26.788  42.345   6.450
 9472POPC   D2A77752  26.799  42.373   6.750
 9472POPC   C3A77753  26.784  42.354   7.050
 9472POPC   C4A77754  26.811  42.375   7.350
 9472POPC   C1B77755  26.590  42.320   6.450
 9472POPC   C2B77756  26.554  42.311   6.750
 9472POPC   C3B77757  26.610  42.240   7.050
 9472POPC   C4B77758  26.609  42.288   7.350
 9473POPC   NC377759  16.727  22.960   5.550
 9473POPC   PO477760  16.727  22.909   5.850
 9473POPC   GL177761  16.732  22.967   6.150
 9473POPC   GL277762  16.682  23.009   6.150
 9473POPC   C1A77763  16.773  22.902   6.450
 9473POPC   D2A77764  16.695  22.942   6.750
 9473POPC   C3A77765  16.686  22.956   7.050
 9473POPC   C4A77766  16.741  22.964   7.350
 9473POPC   C1B77767  16.597  23.122   6.450
 9473POPC   C2B77768  16.641  23.160   6.750
 9473POPC   C3B77769  16.555  23.189   7.050
 9473POPC   C4B77770  16.561  23.169   7.350
 9474POPC   NC377771  32.239   9.791   5.550
 9474POPC   PO477772  32.294   9.710   5.850
 9474POPC   GL177773  32.272   9.797   6.150
 9474POPC   GL277774  32.181   9.850   6.150
 9474POPC   C1A77775  32.267   9.758   6.450
 9474POPC   D2A77776  32.207   9.758   6.750
 9474POPC   C3A77777  32.298   9.742   7.050
 9474POPC   C4A77778  32.219   9.741   7.350
 9474POPC   C1B77779  32.070   9.946   6.450
 9474POPC   C2B77780  32.118   9.955   6.750
 9474POPC   C3B77781  32.057   9.924   7.050
 9474POPC   C4B77782  32.072   9.944   7.350
 9475POPC   NC377783  29.873   4.288   5.550
 9475POPC   PO477784  29.896   4.299   5.850
 9475POPC   GL177785  29.889   4.332   6.150
 9475POPC   GL277786  29.846   4.226   6.150
 9475POPC   C1A77787  29.935   4.335   6.450
 9475POPC   D2A77788  29.929   4.302   6.750
 9475POPC   C3A77789  29.958   4.346   7.050
 9475POPC   C4A77790  29.965   4.339   7.350
 9475POPC   C1B77791  29.770   4.119   6.450
 9475POPC   C2B77792  29.739   4.167   6.750
 9475POPC   C3B77793  29.774   4.171   7.050
 9475POPC   C4B77794  29.771   4.111   7.350
 9476POPC   NC377795  37.670  19.874   5.550
 9476POPC   PO477796  37.666  19.866   5.850
 9476POPC   GL177797  37.706  19.841   6.150
 9476POPC   GL277798  37.716  19.688   6.150
 9476POPC   C1A77799  37.710  19.828   6.450
 9476POPC   D2A77800  37.685  19.838   6.750
 9476POPC   C3A77801  37.674  19.813   7.050
 9476POPC   C4A77802  37.691  19.804   7.350
 9476POPC   C1B77803  37.770  19.548   6.450
 9476POPC   C2B77804  37.770  19.573   6.750
 9476POPC   C3B77805  37.716  19.641   7.050
 9476POPC   C4B77806  37.758  19.641   7.350
 9477POPC   NC377807  43.107  14.437   5.550
 9477POPC   PO477808  43.061  14.446   5.850
 9477POPC   GL177809  43.089  14.407   6.150
 9477POPC   GL277810  43.275  14.383   6.150
 9477POPC   C1A77811  43.142  14.389   6.450
 9477POPC   D2A77812  43.075  14.399   6.750
 9477POPC   C3A77813  43.123  14.408   7.050
 9477POPC   C4A77814  43.146  14.417   7.350
 9477POPC   C1B77815  43.365  14.333   6.450
 9477POPC   C2B77816  43.383  14.360   6.750
 9477POPC   C3B77817  43.398  14.320   7.050
 9477POPC   C4B77818  43.396  14.317   7.350
 9478POPC   NC377819  19.802  15.202   5.550
 9478POPC   PO477820  19.818  15.198   5.850
 9478POPC   GL177821  19.802  15.227   6.150
 9478POPC   GL277822  19.857  15.089   6.150
 9478POPC   C1A77823  19.788  15.218   6.450
 9478POPC   D2A77824  19.866  15.136   6.750
 9478POPC   C3A77825  19.874  15.193   7.050
 9478POPC   C4A77826  19.859  15.142   7.350
 9478POPC   C1B77827  19.802  14.931   6.450
 9478POPC   C2B77828  19.871  14.932   6.750
 9478POPC   C3B77829  19.880  14.889   7.050
 9478POPC   C4B77830  19.893  14.907   7.350
 9479POPC   NC377831   3.567  18.314   5.550
 9479POPC   PO477832   3.584  18.322   5.850
 9479POPC   GL177833   3.495  18.252   6.150
 9479POPC   GL277834   3.606  18.409   6.150
 9479POPC   C1A77835   3.547  18.278   6.450
 9479POPC   D2A77836   3.520  18.246   6.750
 9479POPC   C3A77837   3.562  18.246   7.050
 9479POPC   C4A77838   3.527  18.332   7.350
 9479POPC   C1B77839   3.688  18.537   6.450
 9479POPC   C2B77840   3.693  18.464   6.750
 9479POPC   C3B77841   3.715  18.506   7.050
 9479POPC   C4B77842   3.678  18.532   7.350
 9480POPC   NC377843   6.693  32.229   5.550
 9480POPC   PO477844   6.643  32.210   5.850
 9480POPC   GL177845   6.683  32.287   6.150
 9480POPC   GL277846   6.697  32.089   6.150
 9480POPC   C1A77847   6.608  32.203   6.450
 9480POPC   D2A77848   6.682  32.223   6.750
 9480POPC   C3A77849   6.619  32.292   7.050
 9480POPC   C4A77850   6.664  32.244   7.350
 9480POPC   C1B77851   6.790  32.042   6.450
 9480POPC   C2B77852   6.794  31.979   6.750
 9480POPC   C3B77853   6.701  32.024   7.050
 9480POPC   C4B77854   6.704  31.985   7.350
 9481POPC   NC377855  22.151  35.323   5.550
 9481POPC   PO477856  22.177  35.303   5.850
 9481POPC   GL177857  22.183  35.317   6.150
 9481POPC   GL277858  22.303  35.362   6.150
 9481POPC   C1A77859  22.176  35.319   6.450
 9481POPC   D2A77860  22.119  35.336   6.750
 9481POPC   C3A77861  22.149  35.361   7.050
 9481POPC   C4A77862  22.152  35.303   7.350
 9481POPC   C1B77863  22.361  35.287   6.450
 9481POPC   C2B77864  22.452  35.344   6.750
 9481POPC   C3B77865  22.397  35.351   7.050
 9481POPC   C4B77866  22.421  35.312   7.350
 9482POPC   NC377867   1.982   1.202   5.550
 9482POPC   PO477868   2.015   1.244   5.850
 9482POPC   GL177869   2.033   1.226   6.150
 9482POPC   GL277870   1.984   1.314   6.150
 9482POPC   C1A77871   2.031   1.172   6.450
 9482POPC   D2A77872   2.014   1.206   6.750
 9482POPC   C3A77873   1.985   1.252   7.050
 9482POPC   C4A77874   1.975   1.248   7.350
 9482POPC   C1B77875   2.104   1.451   6.450
 9482POPC   C2B77876   2.016   1.422   6.750
 9482POPC   C3B77877   2.035   1.472   7.050
 9482POPC   C4B77878   2.061   1.493   7.350
 9483POPC   NC377879  13.593  32.290   5.550
 9483POPC   PO477880  13.639  32.260   5.850
 9483POPC   GL177881  13.640  32.233   6.150
 9483POPC   GL277882  13.664  32.136   6.150
 9483POPC   C1A77883  13.620  32.203   6.450
 9483POPC   D2A77884  13.646  32.210   6.750
 9483POPC   C3A77885  13.634  32.217   7.050
 9483POPC   C4A77886  13.643  32.218   7.350
 9483POPC   C1B77887  13.650  31.975   6.450
 9483POPC   C2B77888  13.627  32.010   6.750
 9483POPC   C3B77889  13.663  31.976   7.050
 9483POPC   C4B77890  13.618  31.960   7.350
 9484POPC   NC377891  22.155  14.396   5.550
 9484POPC   PO477892  22.152  14.396   5.850
 9484POPC   GL177893  22.173  14.368   6.150
 9484POPC   GL277894  22.238  14.520   6.150
 9484POPC   C1A77895  22.177  14.400   6.450
 9484POPC   D2A77896  22.182  14.392   6.750
 9484POPC   C3A77897  22.194  14.388   7.050
 9484POPC   C4A77898  22.197  14.390   7.350
 9484POPC   C1B77899  22.241  14.629   6.450
 9484POPC   C2B77900  22.261  14.598   6.750
 9484POPC   C3B77901  22.244  14.668   7.050
 9484POPC   C4B77902  22.274  14.685   7.350
 9485POPC   NC377903  19.107  21.374   5.550
 9485POPC   PO477904  19.098  21.388   5.850
 9485POPC   GL177905  19.030  21.357   6.150
 9485POPC   GL277906  18.959  21.445   6.150
 9485POPC   C1A77907  19.020  21.349   6.450
 9485POPC   D2A77908  19.069  21.353   6.750
 9485POPC   C3A77909  19.038  21.412   7.050
 9485POPC   C4A77910  19.016  21.421   7.350
 9485POPC   C1B77911  18.792  21.493   6.450
 9485POPC   C2B77912  18.818  21.546   6.750
 9485POPC   C3B77913  18.826  21.480   7.050
 9485POPC   C4B77914  18.830  21.518   7.350
 9486POPC   NC377915  11.284  30.705   5.550
 9486POPC   PO477916  11.341  30.658   5.850
 9486POPC   GL177917  11.331  30.669   6.150
 9486POPC   GL277918  11.148  30.690   6.150
 9486POPC   C1A77919  11.338  30.706   6.450
 9486POPC   D2A77920  11.346  30.695   6.750
 9486POPC   C3A77921  11.293  30.710   7.050
 9486POPC   C4A77922  11.334  30.714   7.350
 9486POPC   C1B77923  11.012  30.665   6.450
 9486POPC   C2B77924  11.092  30.673   6.750
 9486POPC   C3B77925  11.049  30.720   7.050
 9486POPC   C4B77926  11.053  30.723   7.350
 9487POPC   NC377927   9.006   9.709   5.550
 9487POPC   PO477928   8.962   9.739   5.850
 9487POPC   GL177929   8.955   9.732   6.150
 9487POPC   GL277930   9.065   9.696   6.150
 9487POPC   C1A77931   8.976   9.773   6.450
 9487POPC   D2A77932   8.981   9.707   6.750
 9487POPC   C3A77933   8.993   9.701   7.050
 9487POPC   C4A77934   8.928   9.744   7.350
 9487POPC   C1B77935   9.238   9.668   6.450
 9487POPC   C2B77936   9.236   9.647   6.750
 9487POPC   C3B77937   9.242   9.661   7.050
 9487POPC   C4B77938   9.201   9.675   7.350
 9488POPC   NC377939  11.252  43.877   5.550
 9488POPC   PO477940  11.336  43.872   5.850
 9488POPC   GL177941  11.322  43.888   6.150
 9488POPC   GL277942  11.270  43.738   6.150
 9488POPC   C1A77943  11.307  43.889   6.450
 9488POPC   D2A77944  11.332  43.842   6.750
 9488POPC   C3A77945  11.314  43.914   7.050
 9488POPC   C4A77946  11.279  43.858   7.350
 9488POPC   C1B77947  11.335  43.672   6.450
 9488POPC   C2B77948  11.310  43.686   6.750
 9488POPC   C3B77949  11.330  43.657   7.050
 9488POPC   C4B77950  11.325  43.662   7.350
 9489POPC   NC377951   6.683  12.106   5.550
 9489POPC   PO477952   6.646  12.046   5.850
 9489POPC   GL177953   6.675  12.045   6.150
 9489POPC   GL277954   6.605  12.159   6.150
 9489POPC   C1A77955   6.623  12.123   6.450
 9489POPC   D2A77956   6.689  12.076   6.750
 9489POPC   C3A77957   6.632  12.113   7.050
 9489POPC   C4A77958   6.616  12.050   7.350
 9489POPC   C1B77959   6.499  12.246   6.450
 9489POPC   C2B77960   6.562  12.328   6.750
 9489POPC   C3B77961   6.555  12.309   7.050
 9489POPC   C4B77962   6.526  12.279   7.350
 9490POPC   NC377963   5.872  43.069   5.550
 9490POPC   PO477964   5.895  43.110   5.850
 9490POPC   GL177965   5.884  43.132   6.150
 9490POPC   GL277966   5.844  42.939   6.150
 9490POPC   C1A77967   5.909  43.155   6.450
 9490POPC   D2A77968   5.887  43.154   6.750
 9490POPC   C3A77969   5.860  43.098   7.050
 9490POPC   C4A77970   5.857  43.092   7.350
 9490POPC   C1B77971   5.846  42.896   6.450
 9490POPC   C2B77972   5.801  42.815   6.750
 9490POPC   C3B77973   5.858  42.816   7.050
 9490POPC   C4B77974   5.822  42.850   7.350
 9491POPC   NC377975   6.641  33.769   5.550
 9491POPC   PO477976   6.662  33.790   5.850
 9491POPC   GL177977   6.613  33.763   6.150
 9491POPC   GL277978   6.698  33.887   6.150
 9491POPC   C1A77979   6.598  33.825   6.450
 9491POPC   D2A77980   6.659  33.813   6.750
 9491POPC   C3A77981   6.595  33.841   7.050
 9491POPC   C4A77982   6.623  33.772   7.350
 9491POPC   C1B77983   6.777  33.960   6.450
 9491POPC   C2B77984   6.817  33.998   6.750
 9491POPC   C3B77985   6.823  33.972   7.050
 9491POPC   C4B77986   6.743  33.991   7.350
 9492POPC   NC377987  17.499  25.310   5.550
 9492POPC   PO477988  17.507  25.265   5.850
 9492POPC   GL177989  17.494  25.226   6.150
 9492POPC   GL277990  17.428  25.275   6.150
 9492POPC   C1A77991  17.532  25.223   6.450
 9492POPC   D2A77992  17.523  25.314   6.750
 9492POPC   C3A77993  17.525  25.234   7.050
 9492POPC   C4A77994  17.519  25.223   7.350
 9492POPC   C1B77995  17.310  25.400   6.450
 9492POPC   C2B77996  17.314  25.317   6.750
 9492POPC   C3B77997  17.263  25.321   7.050
 9492POPC   C4B77998  17.299  25.329   7.350
 9493POPC   NC377999  42.376   5.092   5.550
 9493POPC   PO478000  42.382   5.060   5.850
 9493POPC   GL178001  42.324   5.130   6.150
 9493POPC   GL278002  42.486   5.082   6.150
 9493POPC   C1A78003  42.339   5.048   6.450
 9493POPC   D2A78004  42.304   5.102   6.750
 9493POPC   C3A78005  42.324   5.123   7.050
 9493POPC   C4A78006  42.317   5.103   7.350
 9493POPC   C1B78007  42.560   4.949   6.450
 9493POPC   C2B78008  42.515   5.006   6.750
 9493POPC   C3B78009  42.565   4.976   7.050
 9493POPC   C4B78010  42.533   5.003   7.350
 9494POPC   NC378011  22.149   1.975   5.550
 9494POPC   PO478012  22.113   2.011   5.850
 9494POPC   GL178013  22.210   1.974   6.150
 9494POPC   GL278014  22.172   2.116   6.150
 9494POPC   C1A78015  22.162   2.029   6.450
 9494POPC   D2A78016  22.145   2.009   6.750
 9494POPC   C3A78017  22.150   2.018   7.050
 9494POPC   C4A78018  22.135   2.003   7.350
 9494POPC   C1B78019  22.240   2.215   6.450
 9494POPC   C2B78020  22.183   2.190   6.750
 9494POPC   C3B78021  22.246   2.261   7.050
 9494POPC   C4B78022  22.169   2.258   7.350
 9495POPC   NC378023  43.896  40.804   5.550
 9495POPC   PO478024  43.915  40.761   5.850
 9495POPC   GL178025  43.920  40.774   6.150
 9495POPC   GL278026  43.944  40.719   6.150
 9495POPC   C1A78027  43.850  40.737   6.450
 9495POPC   D2A78028  43.901  40.774   6.750
 9495POPC   C3A78029  43.874  40.810   7.050
 9495POPC   C4A78030  43.910  40.765   7.350
 9495POPC   C1B78031  44.030  40.608   6.450
 9495POPC   C2B78032  43.989  40.562   6.750
 9495POPC   C3B78033  43.989  40.562   7.050
 9495POPC   C4B78034  44.043  40.553   7.350
 9496POPC   NC378035  29.955  41.602   5.550
 9496POPC   PO478036  29.958  41.559   5.850
 9496POPC   GL178037  29.939  41.569   6.150
 9496POPC   GL278038  29.929  41.652   6.150
 9496POPC   C1A78039  29.877  41.555   6.450
 9496POPC   D2A78040  29.900  41.576   6.750
 9496POPC   C3A78041  29.910  41.538   7.050
 9496POPC   C4A78042  29.873  41.510   7.350
 9496POPC   C1B78043  29.937  41.856   6.450
 9496POPC   C2B78044  29.979  41.760   6.750
 9496POPC   C3B78045  29.994  41.761   7.050
 9496POPC   C4B78046  29.930  41.799   7.350
 9497POPC   NC378047   3.518  11.306   5.550
 9497POPC   PO478048   3.590  11.252   5.850
 9497POPC   GL178049   3.585  11.270   6.150
 9497POPC   GL278050   3.563  11.166   6.150
 9497POPC   C1A78051   3.503  11.344   6.450
 9497POPC   D2A78052   3.512  11.266   6.750
 9497POPC   C3A78053   3.539  11.316   7.050
 9497POPC   C4A78054   3.504  11.297   7.350
 9497POPC   C1B78055   3.562  11.083   6.450
 9497POPC   C2B78056   3.497  11.058   6.750
 9497POPC   C3B78057   3.472  11.045   7.050
 9497POPC   C4B78058   3.496  11.071   7.350
 9498POPC   NC378059   5.861   7.446   5.550
 9498POPC   PO478060   5.828   7.437   5.850
 9498POPC   GL178061   5.899   7.411   6.150
 9498POPC   GL278062   5.799   7.520   6.150
 9498POPC   C1A78063   5.917   7.441   6.450
 9498POPC   D2A78064   5.899   7.418   6.750
 9498POPC   C3A78065   5.829   7.439   7.050
 9498POPC   C4A78066   5.851   7.431   7.350
 9498POPC   C1B78067   5.657   7.587   6.450
 9498POPC   C2B78068   5.647   7.629   6.750
 9498POPC   C3B78069   5.712   7.566   7.050
 9498POPC   C4B78070   5.718   7.614   7.350
 9499POPC   NC378071   0.427  42.353   5.550
 9499POPC   PO478072   0.485  42.315   5.850
 9499POPC   GL178073   0.469  42.367   6.150
 9499POPC   GL278074   0.350  42.298   6.150
 9499POPC   C1A78075   0.450  42.331   6.450
 9499POPC   D2A78076   0.412  42.302   6.750
 9499POPC   C3A78077   0.401  42.366   7.050
 9499POPC   C4A78078   0.473  42.349   7.350
 9499POPC   C1B78079   0.206  42.374   6.450
 9499POPC   C2B78080   0.191  42.372   6.750
 9499POPC   C3B78081   0.217  42.365   7.050
 9499POPC   C4B78082   0.147  42.391   7.350
 9500POPC   NC378083  32.200  24.527   5.550
 9500POPC   PO478084  32.272  24.505   5.850
 9500POPC   GL178085  32.232  24.531   6.150
 9500POPC   GL278086  32.280  24.607   6.150
 9500POPC   C1A78087  32.244  24.532   6.450
 9500POPC   D2A78088  32.276  24.451   6.750
 9500POPC   C3A78089  32.201  24.451   7.050
 9500POPC   C4A78090  32.255  24.451   7.350
 9500POPC   C1B78091  32.425  24.679   6.450
 9500POPC   C2B78092  32.446  24.683   6.750
 9500POPC   C3B78093  32.378  24.638   7.050
 9500POPC   C4B78094  32.411  24.716   7.350
 9501POPC   NC378095   5.860   5.049   5.550
 9501POPC   PO478096   5.876   5.131   5.850
 9501POPC   GL178097   5.894   5.056   6.150
 9501POPC   GL278098   6.012   5.176   6.150
 9501POPC   C1A78099   5.883   5.096   6.450
 9501POPC   D2A78100   5.867   5.084   6.750
 9501POPC   C3A78101   5.905   5.090   7.050
 9501POPC   C4A78102   5.854   5.143   7.350
 9501POPC   C1B78103   6.144   5.165   6.450
 9501POPC   C2B78104   6.125   5.149   6.750
 9501POPC   C3B78105   6.059   5.159   7.050
 9501POPC   C4B78106   6.062   5.146   7.350
 9502POPC   NC378107  44.685  14.434   5.550
 9502POPC   PO478108  44.691  14.359   5.850
 9502POPC   GL178109  44.645  14.439   6.150
 9502POPC   GL278110  44.509  14.405   6.150
 9502POPC   C1A78111  44.690  14.371   6.450
 9502POPC   D2A78112  44.673  14.412   6.750
 9502POPC   C3A78113  44.669  14.427   7.050
 9502POPC   C4A78114  44.627  14.367   7.350
 9502POPC   C1B78115  44.398  14.397   6.450
 9502POPC   C2B78116  44.387  14.406   6.750
 9502POPC   C3B78117  44.433  14.375   7.050
 9502POPC   C4B78118  44.384  14.352   7.350
 9503POPC   NC378119   1.998  14.412   5.550
 9503POPC   PO478120   1.962  14.355   5.850
 9503POPC   GL178121   2.007  14.359   6.150
 9503POPC   GL278122   1.930  14.441   6.150
 9503POPC   C1A78123   1.954  14.443   6.450
 9503POPC   D2A78124   1.947  14.449   6.750
 9503POPC   C3A78125   1.998  14.367   7.050
 9503POPC   C4A78126   1.956  14.363   7.350
 9503POPC   C1B78127   1.761  14.563   6.450
 9503POPC   C2B78128   1.775  14.554   6.750
 9503POPC   C3B78129   1.853  14.574   7.050
 9503POPC   C4B78130   1.814  14.586   7.350
 9504POPC   NC378131   5.066  44.682   5.550
 9504POPC   PO478132   5.069  44.644   5.850
 9504POPC   GL178133   5.054  44.624   6.150
 9504POPC   GL278134   5.128  44.559   6.150
 9504POPC   C1A78135   5.072  44.658   6.450
 9504POPC   D2A78136   5.129  44.702   6.750
 9504POPC   C3A78137   5.070  44.651   7.050
 9504POPC   C4A78138   5.115  44.616   7.350
 9504POPC   C1B78139   5.195  44.447   6.450
 9504POPC   C2B78140   5.161  44.381   6.750
 9504POPC   C3B78141   5.179  44.410   7.050
 9504POPC   C4B78142   5.137  44.378   7.350
 9505POPC   NC378143  36.884   3.591   5.550
 9505POPC   PO478144  36.923   3.517   5.850
 9505POPC   GL178145  36.932   3.567   6.150
 9505POPC   GL278146  37.058   3.502   6.150
 9505POPC   C1A78147  36.878   3.558   6.450
 9505POPC   D2A78148  36.949   3.515   6.750
 9505POPC   C3A78149  36.904   3.522   7.050
 9505POPC   C4A78150  36.874   3.502   7.350
 9505POPC   C1B78151  37.136   3.509   6.450
 9505POPC   C2B78152  37.115   3.482   6.750
 9505POPC   C3B78153  37.150   3.496   7.050
 9505POPC   C4B78154  37.115   3.567   7.350
 9506POPC   NC378155  44.685  38.410   5.550
 9506POPC   PO478156  44.699  38.439   5.850
 9506POPC   GL178157  44.614  38.442   6.150
 9506POPC   GL278158  44.686  38.596   6.150
 9506POPC   C1A78159  44.688  38.442   6.450
 9506POPC   D2A78160  44.661  38.470   6.750
 9506POPC   C3A78161  44.675  38.443   7.050
 9506POPC   C4A78162  44.627  38.451   7.350
 9506POPC   C1B78163  44.706  38.698   6.450
 9506POPC   C2B78164  44.785  38.679   6.750
 9506POPC   C3B78165  44.788  38.711   7.050
 9506POPC   C4B78166  44.733  38.645   7.350
 9507POPC   NC378167  39.958  17.491   5.550
 9507POPC   PO478168  40.007  17.554   5.850
 9507POPC   GL178169  40.037  17.475   6.150
 9507POPC   GL278170  39.957  17.609   6.150
 9507POPC   C1A78171  39.992  17.477   6.450
 9507POPC   D2A78172  39.997  17.498   6.750
 9507POPC   C3A78173  39.994  17.531   7.050
 9507POPC   C4A78174  40.042  17.468   7.350
 9507POPC   C1B78175  39.950  17.741   6.450
 9507POPC   C2B78176  39.909  17.699   6.750
 9507POPC   C3B78177  39.925  17.704   7.050
 9507POPC   C4B78178  39.907  17.769   7.350
 9508POPC   NC378179  31.480  10.524   5.550
 9508POPC   PO478180  31.437  10.477   5.850
 9508POPC   GL178181  31.478  10.502   6.150
 9508POPC   GL278182  31.479  10.375   6.150
 9508POPC   C1A78183  31.450  10.518   6.450
 9508POPC   D2A78184  31.468  10.487   6.750
 9508POPC   C3A78185  31.445  10.512   7.050
 9508POPC   C4A78186  31.518  10.565   7.350
 9508POPC   C1B78187  31.463  10.245   6.450
 9508POPC   C2B78188  31.455  10.291   6.750
 9508POPC   C3B78189  31.490  10.238   7.050
 9508POPC   C4B78190  31.487  10.260   7.350
 9509POPC   NC378191   1.208  26.049   5.550
 9509POPC   PO478192   1.232  26.083   5.850
 9509POPC   GL178193   1.196  26.081   6.150
 9509POPC   GL278194   1.228  25.903   6.150
 9509POPC   C1A78195   1.219  26.001   6.450
 9509POPC   D2A78196   1.234  26.062   6.750
 9509POPC   C3A78197   1.206  26.053   7.050
 9509POPC   C4A78198   1.209  26.039   7.350
 9509POPC   C1B78199   1.202  25.796   6.450
 9509POPC   C2B78200   1.195  25.798   6.750
 9509POPC   C3B78201   1.126  25.769   7.050
 9509POPC   C4B78202   1.168  25.765   7.350
 9510POPC   NC378203   6.687   1.189   5.550
 9510POPC   PO478204   6.654   1.258   5.850
 9510POPC   GL178205   6.624   1.186   6.150
 9510POPC   GL278206   6.754   1.301   6.150
 9510POPC   C1A78207   6.650   1.184   6.450
 9510POPC   D2A78208   6.626   1.171   6.750
 9510POPC   C3A78209   6.646   1.183   7.050
 9510POPC   C4A78210   6.615   1.185   7.350
 9510POPC   C1B78211   6.817   1.392   6.450
 9510POPC   C2B78212   6.820   1.392   6.750
 9510POPC   C3B78213   6.889   1.308   7.050
 9510POPC   C4B78214   6.890   1.329   7.350
 9511POPC   NC378215  18.265  15.141   5.550
 9511POPC   PO478216  18.236  15.174   5.850
 9511POPC   GL178217  18.326  15.157   6.150
 9511POPC   GL278218  18.264  15.084   6.150
 9511POPC   C1A78219  18.264  15.144   6.450
 9511POPC   D2A78220  18.308  15.187   6.750
 9511POPC   C3A78221  18.244  15.196   7.050
 9511POPC   C4A78222  18.317  15.177   7.350
 9511POPC   C1B78223  18.183  14.984   6.450
 9511POPC   C2B78224  18.188  14.922   6.750
 9511POPC   C3B78225  18.258  14.942   7.050
 9511POPC   C4B78226  18.227  14.965   7.350
 9512POPC   NC378227  33.013  10.496   5.550
 9512POPC   PO478228  32.997  10.564   5.850
 9512POPC   GL178229  33.023  10.534   6.150
 9512POPC   GL278230  33.147  10.634   6.150
 9512POPC   C1A78231  33.027  10.549   6.450
 9512POPC   D2A78232  33.019  10.565   6.750
 9512POPC   C3A78233  33.072  10.562   7.050
 9512POPC   C4A78234  33.044  10.535   7.350
 9512POPC   C1B78235  33.198  10.752   6.450
 9512POPC   C2B78236  33.198  10.771   6.750
 9512POPC   C3B78237  33.168  10.720   7.050
 9512POPC   C4B78238  33.192  10.733   7.350
 9513POPC   NC378239   8.989   3.522   5.550
 9513POPC   PO478240   8.947   3.567   5.850
 9513POPC   GL178241   8.926   3.564   6.150
 9513POPC   GL278242   8.861   3.438   6.150
 9513POPC   C1A78243   8.999   3.531   6.450
 9513POPC   D2A78244   8.983   3.529   6.750
 9513POPC   C3A78245   9.021   3.549   7.050
 9513POPC   C4A78246   8.969   3.551   7.350
 9513POPC   C1B78247   8.774   3.363   6.450
 9513POPC   C2B78248   8.764   3.398   6.750
 9513POPC   C3B78249   8.735   3.393   7.050
 9513POPC   C4B78250   8.746   3.366   7.350
 9514POPC   NC378251   2.737   2.034   5.550
 9514POPC   PO478252   2.759   1.952   5.850
 9514POPC   GL178253   2.799   2.021   6.150
 9514POPC   GL278254   2.755   2.098   6.150
 9514POPC   C1A78255   2.740   1.951   6.450
 9514POPC   D2A78256   2.807   1.942   6.750
 9514POPC   C3A78257   2.789   2.001   7.050
 9514POPC   C4A78258   2.807   1.978   7.350
 9514POPC   C1B78259   2.670   2.224   6.450
 9514POPC   C2B78260   2.647   2.249   6.750
 9514POPC   C3B78261   2.660   2.264   7.050
 9514POPC   C4B78262   2.647   2.262   7.350
 9515POPC   NC378263  17.492  43.075   5.550
 9515POPC   PO478264  17.494  43.062   5.850
 9515POPC   GL178265  17.503  43.098   6.150
 9515POPC   GL278266  17.647  43.161   6.150
 9515POPC   C1A78267  17.481  43.104   6.450
 9515POPC   D2A78268  17.556  43.091   6.750
 9515POPC   C3A78269  17.546  43.061   7.050
 9515POPC   C4A78270  17.519  43.071   7.350
 9515POPC   C1B78271  17.720  43.318   6.450
 9515POPC   C2B78272  17.747  43.243   6.750
 9515POPC   C3B78273  17.728  43.289   7.050
 9515POPC   C4B78274  17.667  43.271   7.350
 9516POPC   NC378275  31.438  33.033   5.550
 9516POPC   PO478276  31.438  33.070   5.850
 9516POPC   GL178277  31.454  33.018   6.150
 9516POPC   GL278278  31.644  33.025   6.150
 9516POPC   C1A78279  31.488  32.991   6.450
 9516POPC   D2A78280  31.472  33.049   6.750
 9516POPC   C3A78281  31.470  33.060   7.050
 9516POPC   C4A78282  31.492  33.060   7.350
 9516POPC   C1B78283  31.748  33.011   6.450
 9516POPC   C2B78284  31.691  32.951   6.750
 9516POPC   C3B78285  31.684  32.984   7.050
 9516POPC   C4B78286  31.697  32.958   7.350
 9517POPC   NC378287   3.590  23.727   5.550
 9517POPC   PO478288   3.498  23.669   5.850
 9517POPC   GL178289   3.571  23.698   6.150
 9517POPC   GL278290   3.521  23.875   6.150
 9517POPC   C1A78291   3.524  23.715   6.450
 9517POPC   D2A78292   3.551  23.745   6.750
 9517POPC   C3A78293   3.521  23.740   7.050
 9517POPC   C4A78294   3.578  23.665   7.350
 9517POPC   C1B78295   3.545  23.960   6.450
 9517POPC   C2B78296   3.572  23.980   6.750
 9517POPC   C3B78297   3.547  23.983   7.050
 9517POPC   C4B78298   3.586  23.967   7.350
 9518POPC   NC378299   2.722  43.891   5.550
 9518POPC   PO478300   2.796  43.856   5.850
 9518POPC   GL178301   2.755  43.878   6.150
 9518POPC   GL278302   2.656  43.813   6.150
 9518POPC   C1A78303   2.797  43.900   6.450
 9518POPC   D2A78304   2.784  43.898   6.750
 9518POPC   C3A78305   2.803  43.849   7.050
 9518POPC   C4A78306   2.736  43.869   7.350
 9518POPC   C1B78307   2.495  43.853   6.450
 9518POPC   C2B78308   2.480  43.851   6.750
 9518POPC   C3B78309   2.571  43.846   7.050
 9518POPC   C4B78310   2.540  43.817   7.350
 9519POPC   NC378311  36.093   4.327   5.550
 9519POPC   PO478312  36.133   4.299   5.850
 9519POPC   GL178313  36.119   4.316   6.150
 9519POPC   GL278314  36.202   4.472   6.150
 9519POPC   C1A78315  36.143   4.338   6.450
 9519POPC   D2A78316  36.106   4.311   6.750
 9519POPC   C3A78317  36.153   4.350   7.050
 9519POPC   C4A78318  36.165   4.359   7.350
 9519POPC   C1B78319  36.234   4.542   6.450
 9519POPC   C2B78320  36.211   4.585   6.750
 9519POPC   C3B78321  36.176   4.595   7.050
 9519POPC   C4B78322  36.158   4.529   7.350
 9520POPC   NC378323   0.474  38.426   5.550
 9520POPC   PO478324   0.470  38.429   5.850
 9520POPC   GL178325   0.454  38.438   6.150
 9520POPC   GL278326   0.513  38.503   6.150
 9520POPC   C1A78327   0.389  38.459   6.450
 9520POPC   D2A78328   0.395  38.485   6.750
 9520POPC   C3A78329   0.426  38.411   7.050
 9520POPC   C4A78330   0.456  38.436   7.350
 9520POPC   C1B78331   0.721  38.518   6.450
 9520POPC   C2B78332   0.723  38.530   6.750
 9520POPC   C3B78333   0.694  38.480   7.050
 9520POPC   C4B78334   0.712  38.466   7.350
 9521POPC   NC378335   2.035  26.082   5.550
 9521POPC   PO478336   1.981  26.018   5.850
 9521POPC   GL178337   1.990  26.063   6.150
 9521POPC   GL278338   2.011  25.946   6.150
 9521POPC   C1A78339   2.019  25.993   6.450
 9521POPC   D2A78340   1.996  26.053   6.750
 9521POPC   C3A78341   1.958  25.999   7.050
 9521POPC   C4A78342   1.984  26.081   7.350
 9521POPC   C1B78343   2.080  25.833   6.450
 9521POPC   C2B78344   2.095  25.848   6.750
 9521POPC   C3B78345   2.139  25.842   7.050
 9521POPC   C4B78346   2.057  25.794   7.350
 9522POPC   NC378347   5.840  11.314   5.550
 9522POPC   PO478348   5.893  11.304   5.850
 9522POPC   GL178349   5.819  11.315   6.150
 9522POPC   GL278350   5.840  11.230   6.150
 9522POPC   C1A78351   5.828  11.333   6.450
 9522POPC   D2A78352   5.885  11.324   6.750
 9522POPC   C3A78353   5.852  11.274   7.050
 9522POPC   C4A78354   5.907  11.321   7.350
 9522POPC   C1B78355   5.742  11.100   6.450
 9522POPC   C2B78356   5.761  11.059   6.750
 9522POPC   C3B78357   5.760  11.090   7.050
 9522POPC   C4B78358   5.804  11.037   7.350
 9523POPC   NC378359   7.397  19.070   5.550
 9523POPC   PO478360   7.452  19.060   5.850
 9523POPC   GL178361   7.455  19.025   6.150
 9523POPC   GL278362   7.496  18.927   6.150
 9523POPC   C1A78363   7.455  19.046   6.450
 9523POPC   D2A78364   7.427  19.108   6.750
 9523POPC   C3A78365   7.452  19.098   7.050
 9523POPC   C4A78366   7.422  19.047   7.350
 9523POPC   C1B78367   7.469  18.860   6.450
 9523POPC   C2B78368   7.491  18.862   6.750
 9523POPC   C3B78369   7.505  18.797   7.050
 9523POPC   C4B78370   7.531  18.820   7.350
 9524POPC   NC378371  24.462  12.101   5.550
 9524POPC   PO478372  24.442  12.114   5.850
 9524POPC   GL178373  24.489  12.101   6.150
 9524POPC   GL278374  24.373  12.059   6.150
 9524POPC   C1A78375  24.465  12.099   6.450
 9524POPC   D2A78376  24.499  12.082   6.750
 9524POPC   C3A78377  24.535  12.040   7.050
 9524POPC   C4A78378  24.453  12.045   7.350
 9524POPC   C1B78379  24.252  12.002   6.450
 9524POPC   C2B78380  24.203  12.024   6.750
 9524POPC   C3B78381  24.213  12.023   7.050
 9524POPC   C4B78382  24.292  11.998   7.350
 9525POPC   NC378383   1.205  29.135   5.550
 9525POPC   PO478384   1.260  29.110   5.850
 9525POPC   GL178385   1.234  29.189   6.150
 9525POPC   GL278386   1.367  29.100   6.150
 9525POPC   C1A78387   1.237  29.146   6.450
 9525POPC   D2A78388   1.217  29.148   6.750
 9525POPC   C3A78389   1.212  29.192   7.050
 9525POPC   C4A78390   1.241  29.168   7.350
 9525POPC   C1B78391   1.474  29.068   6.450
 9525POPC   C2B78392   1.413  29.037   6.750
 9525POPC   C3B78393   1.480  29.034   7.050
 9525POPC   C4B78394   1.410  29.093   7.350
 9526POPC   NC378395  36.087   9.765   5.550
 9526POPC   PO478396  36.165   9.714   5.850
 9526POPC   GL178397  36.125   9.717   6.150
 9526POPC   GL278398  36.228   9.647   6.150
 9526POPC   C1A78399  36.110   9.747   6.450
 9526POPC   D2A78400  36.079   9.778   6.750
 9526POPC   C3A78401  36.104   9.773   7.050
 9526POPC   C4A78402  36.127   9.704   7.350
 9526POPC   C1B78403  36.304   9.662   6.450
 9526POPC   C2B78404  36.394   9.667   6.750
 9526POPC   C3B78405  36.307   9.622   7.050
 9526POPC   C4B78406  36.392   9.685   7.350
 9527POPC   NC378407  27.586  35.355   5.550
 9527POPC   PO478408  27.583  35.308   5.850
 9527POPC   GL178409  27.566  35.306   6.150
 9527POPC   GL278410  27.700  35.284   6.150
 9527POPC   C1A78411  27.597  35.360   6.450
 9527POPC   D2A78412  27.595  35.395   6.750
 9527POPC   C3A78413  27.567  35.384   7.050
 9527POPC   C4A78414  27.616  35.367   7.350
 9527POPC   C1B78415  27.697  35.108   6.450
 9527POPC   C2B78416  27.695  35.121   6.750
 9527POPC   C3B78417  27.711  35.121   7.050
 9527POPC   C4B78418  27.790  35.143   7.350
 9528POPC   NC378419  14.440  15.169   5.550
 9528POPC   PO478420  14.402  15.165   5.850
 9528POPC   GL178421  14.392  15.194   6.150
 9528POPC   GL278422  14.258  15.177   6.150
 9528POPC   C1A78423  14.421  15.140   6.450
 9528POPC   D2A78424  14.379  15.131   6.750
 9528POPC   C3A78425  14.407  15.184   7.050
 9528POPC   C4A78426  14.416  15.152   7.350
 9528POPC   C1B78427  14.110  15.237   6.450
 9528POPC   C2B78428  14.176  15.194   6.750
 9528POPC   C3B78429  14.112  15.253   7.050
 9528POPC   C4B78430  14.172  15.195   7.350
 9529POPC   NC378431   1.164   4.330   5.550
 9529POPC   PO478432   1.245   4.323   5.850
 9529POPC   GL178433   1.198   4.301   6.150
 9529POPC   GL278434   1.236   4.235   6.150
 9529POPC   C1A78435   1.218   4.332   6.450
 9529POPC   D2A78436   1.217   4.334   6.750
 9529POPC   C3A78437   1.213   4.333   7.050
 9529POPC   C4A78438   1.237   4.340   7.350
 9529POPC   C1B78439   1.310   4.042   6.450
 9529POPC   C2B78440   1.265   4.109   6.750
 9529POPC   C3B78441   1.278   4.063   7.050
 9529POPC   C4B78442   1.245   4.128   7.350
 9530POPC   NC378443  20.604  18.242   5.550
 9530POPC   PO478444  20.611  18.300   5.850
 9530POPC   GL178445  20.575  18.234   6.150
 9530POPC   GL278446  20.600  18.209   6.150
 9530POPC   C1A78447  20.568  18.255   6.450
 9530POPC   D2A78448  20.660  18.244   6.750
 9530POPC   C3A78449  20.641  18.299   7.050
 9530POPC   C4A78450  20.613  18.273   7.350
 9530POPC   C1B78451  20.501  18.011   6.450
 9530POPC   C2B78452  20.519  18.062   6.750
 9530POPC   C3B78453  20.508  17.997   7.050
 9530POPC   C4B78454  20.560  18.075   7.350
 9531POPC   NC378455   5.133   0.471   5.550
 9531POPC   PO478456   5.103   0.449   5.850
 9531POPC   GL178457   5.075   0.486   6.150
 9531POPC   GL278458   5.052   0.326   6.150
 9531POPC   C1A78459   5.097   0.390   6.450
 9531POPC   D2A78460   5.099   0.401   6.750
 9531POPC   C3A78461   5.062   0.427   7.050
 9531POPC   C4A78462   5.076   0.476   7.350
 9531POPC   C1B78463   4.967   0.249   6.450
 9531POPC   C2B78464   4.959   0.174   6.750
 9531POPC   C3B78465   4.986   0.259   7.050
 9531POPC   C4B78466   4.983   0.244   7.350
 9532POPC   NC378467  15.147   8.952   5.550
 9532POPC   PO478468  15.165   8.952   5.850
 9532POPC   GL178469  15.171   8.947   6.150
 9532POPC   GL278470  15.032   9.039   6.150
 9532POPC   C1A78471  15.132   9.003   6.450
 9532POPC   D2A78472  15.173   9.000   6.750
 9532POPC   C3A78473  15.213   8.991   7.050
 9532POPC   C4A78474  15.175   8.934   7.350
 9532POPC   C1B78475  14.991   9.043   6.450
 9532POPC   C2B78476  14.908   9.076   6.750
 9532POPC   C3B78477  14.948   9.128   7.050
 9532POPC   C4B78478  14.983   9.119   7.350
 9533POPC   NC378479  19.808  30.677   5.550
 9533POPC   PO478480  19.803  30.730   5.850
 9533POPC   GL178481  19.812  30.746   6.150
 9533POPC   GL278482  19.668  30.720   6.150
 9533POPC   C1A78483  19.790  30.670   6.450
 9533POPC   D2A78484  19.811  30.730   6.750
 9533POPC   C3A78485  19.806  30.704   7.050
 9533POPC   C4A78486  19.825  30.699   7.350
 9533POPC   C1B78487  19.595  30.805   6.450
 9533POPC   C2B78488  19.599  30.747   6.750
 9533POPC   C3B78489  19.574  30.738   7.050
 9533POPC   C4B78490  19.649  30.786   7.350
 9534POPC   NC378491  30.692  21.432   5.550
 9534POPC   PO478492  30.663  21.415   5.850
 9534POPC   GL178493  30.698  21.426   6.150
 9534POPC   GL278494  30.667  21.507   6.150
 9534POPC   C1A78495  30.647  21.398   6.450
 9534POPC   D2A78496  30.665  21.392   6.750
 9534POPC   C3A78497  30.657  21.409   7.050
 9534POPC   C4A78498  30.654  21.367   7.350
 9534POPC   C1B78499  30.522  21.571   6.450
 9534POPC   C2B78500  30.616  21.557   6.750
 9534POPC   C3B78501  30.550  21.620   7.050
 9534POPC   C4B78502  30.567  21.640   7.350
 9535POPC   NC378503   4.361  29.963   5.550
 9535POPC   PO478504   4.323  29.887   5.850
 9535POPC   GL178505   4.293  29.930   6.150
 9535POPC   GL278506   4.366  29.770   6.150
 9535POPC   C1A78507   4.299  29.934   6.450
 9535POPC   D2A78508   4.305  29.909   6.750
 9535POPC   C3A78509   4.292  29.904   7.050
 9535POPC   C4A78510   4.278  29.911   7.350
 9535POPC   C1B78511   4.370  29.629   6.450
 9535POPC   C2B78512   4.349  29.681   6.750
 9535POPC   C3B78513   4.302  29.697   7.050
 9535POPC   C4B78514   4.303  29.669   7.350
 9536POPC   NC378515  20.621  15.938   5.550
 9536POPC   PO478516  20.597  16.004   5.850
 9536POPC   GL178517  20.620  16.000   6.150
 9536POPC   GL278518  20.585  15.802   6.150
 9536POPC   C1A78519  20.639  15.919   6.450
 9536POPC   D2A78520  20.570  15.946   6.750
 9536POPC   C3A78521  20.640  15.999   7.050
 9536POPC   C4A78522  20.613  15.980   7.350
 9536POPC   C1B78523  20.537  15.720   6.450
 9536POPC   C2B78524  20.499  15.750   6.750
 9536POPC   C3B78525  20.499  15.683   7.050
 9536POPC   C4B78526  20.485  15.676   7.350
 9537POPC   NC378527  36.860   7.409   5.550
 9537POPC   PO478528  36.888   7.390   5.850
 9537POPC   GL178529  36.948   7.452   6.150
 9537POPC   GL278530  36.790   7.424   6.150
 9537POPC   C1A78531  36.913   7.412   6.450
 9537POPC   D2A78532  36.946   7.394   6.750
 9537POPC   C3A78533  36.902   7.424   7.050
 9537POPC   C4A78534  36.928   7.416   7.350
 9537POPC   C1B78535  36.626   7.304   6.450
 9537POPC   C2B78536  36.618   7.317   6.750
 9537POPC   C3B78537  36.616   7.347   7.050
 9537POPC   C4B78538  36.620   7.376   7.350
 9538POPC   NC378539   7.430  13.619   5.550
 9538POPC   PO478540   7.458  13.607   5.850
 9538POPC   GL178541   7.466  13.608   6.150
 9538POPC   GL278542   7.552  13.668   6.150
 9538POPC   C1A78543   7.456  13.662   6.450
 9538POPC   D2A78544   7.435  13.658   6.750
 9538POPC   C3A78545   7.462  13.588   7.050
 9538POPC   C4A78546   7.458  13.671   7.350
 9538POPC   C1B78547   7.630  13.756   6.450
 9538POPC   C2B78548   7.580  13.763   6.750
 9538POPC   C3B78549   7.648  13.810   7.050
 9538POPC   C4B78550   7.662  13.765   7.350
 9539POPC   NC378551  26.057  19.852   5.550
 9539POPC   PO478552  26.001  19.847   5.850
 9539POPC   GL178553  26.065  19.785   6.150
 9539POPC   GL278554  26.026  19.966   6.150
 9539POPC   C1A78555  26.025  19.878   6.450
 9539POPC   D2A78556  26.077  19.807   6.750
 9539POPC   C3A78557  26.026  19.808   7.050
 9539POPC   C4A78558  26.016  19.840   7.350
 9539POPC   C1B78559  26.022  20.128   6.450
 9539POPC   C2B78560  26.069  20.072   6.750
 9539POPC   C3B78561  25.990  20.070   7.050
 9539POPC   C4B78562  26.013  20.055   7.350
 9540POPC   NC378563  26.826  17.508   5.550
 9540POPC   PO478564  26.796  17.527   5.850
 9540POPC   GL178565  26.822  17.493   6.150
 9540POPC   GL278566  26.725  17.516   6.150
 9540POPC   C1A78567  26.814  17.476   6.450
 9540POPC   D2A78568  26.770  17.490   6.750
 9540POPC   C3A78569  26.811  17.522   7.050
 9540POPC   C4A78570  26.823  17.461   7.350
 9540POPC   C1B78571  26.611  17.478   6.450
 9540POPC   C2B78572  26.548  17.432   6.750
 9540POPC   C3B78573  26.560  17.390   7.050
 9540POPC   C4B78574  26.540  17.472   7.350
 9541POPC   NC378575  42.314   3.579   5.550
 9541POPC   PO478576  42.311   3.534   5.850
 9541POPC   GL178577  42.301   3.529   6.150
 9541POPC   GL278578  42.356   3.634   6.150
 9541POPC   C1A78579  42.369   3.545   6.450
 9541POPC   D2A78580  42.298   3.514   6.750
 9541POPC   C3A78581  42.304   3.573   7.050
 9541POPC   C4A78582  42.327   3.506   7.350
 9541POPC   C1B78583  42.281   3.788   6.450
 9541POPC   C2B78584  42.336   3.823   6.750
 9541POPC   C3B78585  42.340   3.785   7.050
 9541POPC   C4B78586  42.245   3.799   7.350
 9542POPC   NC378587   5.885  17.464   5.550
 9542POPC   PO478588   5.863  17.500   5.850
 9542POPC   GL178589   5.896  17.476   6.150
 9542POPC   GL278590   5.824  17.413   6.150
 9542POPC   C1A78591   5.907  17.491   6.450
 9542POPC   D2A78592   5.866  17.514   6.750
 9542POPC   C3A78593   5.836  17.550   7.050
 9542POPC   C4A78594   5.899  17.479   7.350
 9542POPC   C1B78595   5.674  17.304   6.450
 9542POPC   C2B78596   5.729  17.352   6.750
 9542POPC   C3B78597   5.741  17.297   7.050
 9542POPC   C4B78598   5.746  17.266   7.350
 9543POPC   NC378599  25.277   4.316   5.550
 9543POPC   PO478600  25.308   4.334   5.850
 9543POPC   GL178601  25.270   4.301   6.150
 9543POPC   GL278602  25.261   4.426   6.150
 9543POPC   C1A78603  25.256   4.311   6.450
 9543POPC   D2A78604  25.257   4.363   6.750
 9543POPC   C3A78605  25.261   4.271   7.050
 9543POPC   C4A78606  25.216   4.343   7.350
 9543POPC   C1B78607  25.272   4.597   6.450
 9543POPC   C2B78608  25.204   4.583   6.750
 9543POPC   C3B78609  25.212   4.599   7.050
 9543POPC   C4B78610  25.182   4.587   7.350
 9544POPC   NC378611  23.695  30.727   5.550
 9544POPC   PO478612  23.735  30.744   5.850
 9544POPC   GL178613  23.735  30.675   6.150
 9544POPC   GL278614  23.781  30.599   6.150
 9544POPC   C1A78615  23.744  30.725   6.450
 9544POPC   D2A78616  23.695  30.655   6.750
 9544POPC   C3A78617  23.737  30.689   7.050
 9544POPC   C4A78618  23.759  30.712   7.350
 9544POPC   C1B78619  23.825  30.496   6.450
 9544POPC   C2B78620  23.764  30.430   6.750
 9544POPC   C3B78621  23.806  30.460   7.050
 9544POPC   C4B78622  23.763  30.491   7.350
 9545POPC   NC378623  37.718  12.073   5.550
 9545POPC   PO478624  37.665  12.093   5.850
 9545POPC   GL178625  37.698  12.069   6.150
 9545POPC   GL278626  37.756  12.047   6.150
 9545POPC   C1A78627  37.647  12.073   6.450
 9545POPC   D2A78628  37.644  12.125   6.750
 9545POPC   C3A78629  37.633  12.072   7.050
 9545POPC   C4A78630  37.680  12.074   7.350
 9545POPC   C1B78631  37.897  12.134   6.450
 9545POPC   C2B78632  37.889  12.162   6.750
 9545POPC   C3B78633  37.897  12.147   7.050
 9545POPC   C4B78634  37.954  12.083   7.350
 9546POPC   NC378635  31.448  41.516   5.550
 9546POPC   PO478636  31.443  41.566   5.850
 9546POPC   GL178637  31.442  41.543   6.150
 9546POPC   GL278638  31.593  41.612   6.150
 9546POPC   C1A78639  31.515  41.608   6.450
 9546POPC   D2A78640  31.508  41.545   6.750
 9546POPC   C3A78641  31.493  41.598   7.050
 9546POPC   C4A78642  31.456  41.595   7.350
 9546POPC   C1B78643  31.642  41.747   6.450
 9546POPC   C2B78644  31.689  41.676   6.750
 9546POPC   C3B78645  31.694  41.741   7.050
 9546POPC   C4B78646  31.655  41.700   7.350
 9547POPC   NC378647  37.692  15.925   5.550
 9547POPC   PO478648  37.709  15.937   5.850
 9547POPC   GL178649  37.671  15.949   6.150
 9547POPC   GL278650  37.607  15.995   6.150
 9547POPC   C1A78651  37.681  15.947   6.450
 9547POPC   D2A78652  37.638  15.940   6.750
 9547POPC   C3A78653  37.655  15.935   7.050
 9547POPC   C4A78654  37.692  15.941   7.350
 9547POPC   C1B78655  37.505  16.119   6.450
 9547POPC   C2B78656  37.441  16.094   6.750
 9547POPC   C3B78657  37.438  16.090   7.050
 9547POPC   C4B78658  37.519  16.090   7.350
 9548POPC   NC378659  11.346   1.217   5.550
 9548POPC   PO478660  11.322   1.263   5.850
 9548POPC   GL178661  11.283   1.197   6.150
 9548POPC   GL278662  11.408   1.292   6.150
 9548POPC   C1A78663  11.252   1.263   6.450
 9548POPC   D2A78664  11.326   1.222   6.750
 9548POPC   C3A78665  11.279   1.194   7.050
 9548POPC   C4A78666  11.329   1.198   7.350
 9548POPC   C1B78667  11.412   1.455   6.450
 9548POPC   C2B78668  11.441   1.464   6.750
 9548POPC   C3B78669  11.478   1.437   7.050
 9548POPC   C4B78670  11.439   1.423   7.350
 9549POPC   NC378671  25.291   8.179   5.550
 9549POPC   PO478672  25.278   8.166   5.850
 9549POPC   GL178673  25.295   8.182   6.150
 9549POPC   GL278674  25.339   8.265   6.150
 9549POPC   C1A78675  25.312   8.150   6.450
 9549POPC   D2A78676  25.259   8.198   6.750
 9549POPC   C3A78677  25.237   8.242   7.050
 9549POPC   C4A78678  25.303   8.234   7.350
 9549POPC   C1B78679  25.481   8.331   6.450
 9549POPC   C2B78680  25.485   8.322   6.750
 9549POPC   C3B78681  25.404   8.335   7.050
 9549POPC   C4B78682  25.439   8.409   7.350
 9550POPC   NC378683  17.458   6.679   5.550
 9550POPC   PO478684  17.484   6.687   5.850
 9550POPC   GL178685  17.480   6.645   6.150
 9550POPC   GL278686  17.458   6.561   6.150
 9550POPC   C1A78687  17.552   6.690   6.450
 9550POPC   D2A78688  17.490   6.659   6.750
 9550POPC   C3A78689  17.460   6.603   7.050
 9550POPC   C4A78690  17.460   6.598   7.350
 9550POPC   C1B78691  17.424   6.395   6.450
 9550POPC   C2B78692  17.413   6.378   6.750
 9550POPC   C3B78693  17.337   6.408   7.050
 9550POPC   C4B78694  17.435   6.455   7.350
 9551POPC   NC378695  26.018  12.803   5.550
 9551POPC   PO478696  26.005  12.891   5.850
 9551POPC   GL178697  26.085  12.830   6.150
 9551POPC   GL278698  25.998  12.985   6.150
 9551POPC   C1A78699  26.084  12.896   6.450
 9551POPC   D2A78700  26.069  12.843   6.750
 9551POPC   C3A78701  26.069  12.879   7.050
 9551POPC   C4A78702  26.043  12.825   7.350
 9551POPC   C1B78703  25.909  13.110   6.450
 9551POPC   C2B78704  25.927  13.036   6.750
 9551POPC   C3B78705  25.873  13.043   7.050
 9551POPC   C4B78706  25.932  13.084   7.350
 9552POPC   NC378707  24.479  33.815   5.550
 9552POPC   PO478708  24.506  33.836   5.850
 9552POPC   GL178709  24.520  33.768   6.150
 9552POPC   GL278710  24.555  33.831   6.150
 9552POPC   C1A78711  24.504  33.825   6.450
 9552POPC   D2A78712  24.467  33.796   6.750
 9552POPC   C3A78713  24.443  33.838   7.050
 9552POPC   C4A78714  24.500  33.847   7.350
 9552POPC   C1B78715  24.708  34.001   6.450
 9552POPC   C2B78716  24.670  33.963   6.750
 9552POPC   C3B78717  24.689  33.928   7.050
 9552POPC   C4B78718  24.720  33.999   7.350
 9553POPC   NC378719   5.064  29.948   5.550
 9553POPC   PO478720   5.048  29.912   5.850
 9553POPC   GL178721   5.066  29.918   6.150
 9553POPC   GL278722   5.014  30.020   6.150
 9553POPC   C1A78723   5.054  29.960   6.450
 9553POPC   D2A78724   5.142  29.947   6.750
 9553POPC   C3A78725   5.126  29.960   7.050
 9553POPC   C4A78726   5.110  29.899   7.350
 9553POPC   C1B78727   4.965  30.145   6.450
 9553POPC   C2B78728   4.972  30.152   6.750
 9553POPC   C3B78729   4.950  30.186   7.050
 9553POPC   C4B78730   4.990  30.143   7.350
 9554POPC   NC378731  21.375  26.091   5.550
 9554POPC   PO478732  21.394  26.042   5.850
 9554POPC   GL178733  21.366  25.997   6.150
 9554POPC   GL278734  21.290  26.047   6.150
 9554POPC   C1A78735  21.368  26.085   6.450
 9554POPC   D2A78736  21.400  26.078   6.750
 9554POPC   C3A78737  21.369  26.087   7.050
 9554POPC   C4A78738  21.368  25.997   7.350
 9554POPC   C1B78739  21.130  26.075   6.450
 9554POPC   C2B78740  21.098  26.031   6.750
 9554POPC   C3B78741  21.123  25.992   7.050
 9554POPC   C4B78742  21.092  25.988   7.350
 9555POPC   NC378743   2.719  29.970   5.550
 9555POPC   PO478744   2.808  29.873   5.850
 9555POPC   GL178745   2.801  29.879   6.150
 9555POPC   GL278746   2.930  29.894   6.150
 9555POPC   C1A78747   2.751  29.946   6.450
 9555POPC   D2A78748   2.802  29.896   6.750
 9555POPC   C3A78749   2.776  29.887   7.050
 9555POPC   C4A78750   2.722  29.903   7.350
 9555POPC   C1B78751   2.973  29.888   6.450
 9555POPC   C2B78752   3.063  29.905   6.750
 9555POPC   C3B78753   3.025  29.894   7.050
 9555POPC   C4B78754   3.047  29.925   7.350
 9556POPC   NC378755  36.862   8.193   5.550
 9556POPC   PO478756  36.910   8.236   5.850
 9556POPC   GL178757  36.906   8.211   6.150
 9556POPC   GL278758  36.758   8.250   6.150
 9556POPC   C1A78759  36.893   8.158   6.450
 9556POPC   D2A78760  36.913   8.227   6.750
 9556POPC   C3A78761  36.934   8.168   7.050
 9556POPC   C4A78762  36.877   8.241   7.350
 9556POPC   C1B78763  36.682   8.268   6.450
 9556POPC   C2B78764  36.651   8.222   6.750
 9556POPC   C3B78765  36.703   8.202   7.050
 9556POPC   C4B78766  36.686   8.215   7.350
 9557POPC   NC378767  25.306  35.305   5.550
 9557POPC   PO478768  25.295  35.320   5.850
 9557POPC   GL178769  25.233  35.306   6.150
 9557POPC   GL278770  25.382  35.299   6.150
 9557POPC   C1A78771  25.224  35.377   6.450
 9557POPC   D2A78772  25.312  35.309   6.750
 9557POPC   C3A78773  25.224  35.336   7.050
 9557POPC   C4A78774  25.306  35.384   7.350
 9557POPC   C1B78775  25.527  35.213   6.450
 9557POPC   C2B78776  25.487  35.222   6.750
 9557POPC   C3B78777  25.503  35.214   7.050
 9557POPC   C4B78778  25.459  35.270   7.350
 9558POPC   NC378779   9.016   2.800   5.550
 9558POPC   PO478780   8.979   2.815   5.850
 9558POPC   GL178781   8.939   2.799   6.150
 9558POPC   GL278782   8.934   2.627   6.150
 9558POPC   C1A78783   8.978   2.721   6.450
 9558POPC   D2A78784   9.012   2.780   6.750
 9558POPC   C3A78785   9.003   2.758   7.050
 9558POPC   C4A78786   9.000   2.770   7.350
 9558POPC   C1B78787   8.819   2.602   6.450
 9558POPC   C2B78788   8.800   2.545   6.750
 9558POPC   C3B78789   8.790   2.582   7.050
 9558POPC   C4B78790   8.837   2.596   7.350
 9559POPC   NC378791  12.123  12.055   5.550
 9559POPC   PO478792  12.116  12.035   5.850
 9559POPC   GL178793  12.030  12.076   6.150
 9559POPC   GL278794  12.004  12.060   6.150
 9559POPC   C1A78795  12.038  12.111   6.450
 9559POPC   D2A78796  12.101  12.114   6.750
 9559POPC   C3A78797  12.117  12.085   7.050
 9559POPC   C4A78798  12.064  12.055   7.350
 9559POPC   C1B78799  11.856  11.948   6.450
 9559POPC   C2B78800  11.826  11.978   6.750
 9559POPC   C3B78801  11.883  11.943   7.050
 9559POPC   C4B78802  11.885  11.989   7.350
 9560POPC   NC378803  26.781  43.133   5.550
 9560POPC   PO478804  26.772  43.079   5.850
 9560POPC   GL178805  26.790  43.130   6.150
 9560POPC   GL278806  26.977  43.125   6.150
 9560POPC   C1A78807  26.849  43.102   6.450
 9560POPC   D2A78808  26.816  43.112   6.750
 9560POPC   C3A78809  26.806  43.116   7.050
 9560POPC   C4A78810  26.822  43.145   7.350
 9560POPC   C1B78811  27.044  43.207   6.450
 9560POPC   C2B78812  27.076  43.164   6.750
 9560POPC   C3B78813  27.006  43.200   7.050
 9560POPC   C4B78814  27.015  43.227   7.350
 9561POPC   NC378815   9.012  36.140   5.550
 9561POPC   PO478816   8.978  36.145   5.850
 9561POPC   GL178817   9.005  36.083   6.150
 9561POPC   GL278818   8.870  36.208   6.150
 9561POPC   C1A78819   9.018  36.133   6.450
 9561POPC   D2A78820   9.006  36.093   6.750
 9561POPC   C3A78821   8.923  36.084   7.050
 9561POPC   C4A78822   8.954  36.162   7.350
 9561POPC   C1B78823   8.867  36.314   6.450
 9561POPC   C2B78824   8.802  36.357   6.750
 9561POPC   C3B78825   8.854  36.364   7.050
 9561POPC   C4B78826   8.798  36.361   7.350
 9562POPC   NC378827   0.459  26.075   5.550
 9562POPC   PO478828   0.464  26.063   5.850
 9562POPC   GL178829   0.468  26.057   6.150
 9562POPC   GL278830   0.374  26.169   6.150
 9562POPC   C1A78831   0.400  26.061   6.450
 9562POPC   D2A78832   0.466  26.012   6.750
 9562POPC   C3A78833   0.477  26.007   7.050
 9562POPC   C4A78834   0.488  26.044   7.350
 9562POPC   C1B78835   0.414  26.274   6.450
 9562POPC   C2B78836   0.346  26.244   6.750
 9562POPC   C3B78837   0.409  26.275   7.050
 9562POPC   C4B78838   0.353  26.251   7.350
 9563POPC   NC378839  43.843  17.520   5.550
 9563POPC   PO478840  43.923  17.522   5.850
 9563POPC   GL178841  43.877  17.498   6.150
 9563POPC   GL278842  43.901  17.425   6.150
 9563POPC   C1A78843  43.887  17.459   6.450
 9563POPC   D2A78844  43.847  17.457   6.750
 9563POPC   C3A78845  43.891  17.488   7.050
 9563POPC   C4A78846  43.868  17.521   7.350
 9563POPC   C1B78847  43.866  17.245   6.450
 9563POPC   C2B78848  43.889  17.264   6.750
 9563POPC   C3B78849  43.934  17.273   7.050
 9563POPC   C4B78850  43.866  17.247   7.350
 9564POPC   NC378851  41.559  29.126   5.550
 9564POPC   PO478852  41.527  29.146   5.850
 9564POPC   GL178853  41.556  29.107   6.150
 9564POPC   GL278854  41.419  29.189   6.150
 9564POPC   C1A78855  41.585  29.151   6.450
 9564POPC   D2A78856  41.580  29.168   6.750
 9564POPC   C3A78857  41.595  29.176   7.050
 9564POPC   C4A78858  41.575  29.154   7.350
 9564POPC   C1B78859  41.319  29.125   6.450
 9564POPC   C2B78860  41.303  29.135   6.750
 9564POPC   C3B78861  41.262  29.194   7.050
 9564POPC   C4B78862  41.333  29.195   7.350
 9565POPC   NC378863  14.452  38.451   5.550
 9565POPC   PO478864  14.392  38.426   5.850
 9565POPC   GL178865  14.393  38.465   6.150
 9565POPC   GL278866  14.322  38.311   6.150
 9565POPC   C1A78867  14.404  38.504   6.450
 9565POPC   D2A78868  14.363  38.436   6.750
 9565POPC   C3A78869  14.392  38.452   7.050
 9565POPC   C4A78870  14.398  38.445   7.350
 9565POPC   C1B78871  14.336  38.217   6.450
 9565POPC   C2B78872  14.250  38.215   6.750
 9565POPC   C3B78873  14.305  38.274   7.050
 9565POPC   C4B78874  14.297  38.185   7.350
 9566POPC   NC378875  12.818  43.158   5.550
 9566POPC   PO478876  12.805  43.093   5.850
 9566POPC   GL178877  12.860  43.086   6.150
 9566POPC   GL278878  12.855  43.273   6.150
 9566POPC   C1A78879  12.888  43.137   6.450
 9566POPC   D2A78880  12.862  43.088   6.750
 9566POPC   C3A78881  12.844  43.151   7.050
 9566POPC   C4A78882  12.853  43.065   7.350
 9566POPC   C1B78883  12.911  43.377   6.450
 9566POPC   C2B78884  12.932  43.375   6.750
 9566POPC   C3B78885  12.911  43.386   7.050
 9566POPC   C4B78886  12.908  43.351   7.350
 9567POPC   NC378887   5.118  40.744   5.550
 9567POPC   PO478888   5.053  40.826   5.850
 9567POPC   GL178889   5.065  40.820   6.150
 9567POPC   GL278890   5.126  40.903   6.150
 9567POPC   C1A78891   5.045  40.745   6.450
 9567POPC   D2A78892   5.132  40.748   6.750
 9567POPC   C3A78893   5.082  40.802   7.050
 9567POPC   C4A78894   5.070  40.799   7.350
 9567POPC   C1B78895   5.104  41.051   6.450
 9567POPC   C2B78896   5.120  40.991   6.750
 9567POPC   C3B78897   5.031  41.041   7.050
 9567POPC   C4B78898   5.037  41.006   7.350
 9568POPC   NC378899   0.434  26.830   5.550
 9568POPC   PO478900   0.482  26.852   5.850
 9568POPC   GL178901   0.407  26.817   6.150
 9568POPC   GL278902   0.444  26.701   6.150
 9568POPC   C1A78903   0.400  26.779   6.450
 9568POPC   D2A78904   0.472  26.859   6.750
 9568POPC   C3A78905   0.431  26.773   7.050
 9568POPC   C4A78906   0.464  26.783   7.350
 9568POPC   C1B78907   0.439  26.609   6.450
 9568POPC   C2B78908   0.390  26.599   6.750
 9568POPC   C3B78909   0.438  26.611   7.050
 9568POPC   C4B78910   0.366  26.605   7.350
 9569POPC   NC378911  29.886  26.811   5.550
 9569POPC   PO478912  29.955  26.805   5.850
 9569POPC   GL178913  29.894  26.827   6.150
 9569POPC   GL278914  29.835  26.903   6.150
 9569POPC   C1A78915  29.946  26.770   6.450
 9569POPC   D2A78916  29.911  26.856   6.750
 9569POPC   C3A78917  29.887  26.812   7.050
 9569POPC   C4A78918  29.940  26.778   7.350
 9569POPC   C1B78919  29.860  27.009   6.450
 9569POPC   C2B78920  29.807  27.071   6.750
 9569POPC   C3B78921  29.800  27.058   7.050
 9569POPC   C4B78922  29.801  27.038   7.350
 9570POPC   NC378923   2.790  22.175   5.550
 9570POPC   PO478924   2.747  22.121   5.850
 9570POPC   GL178925   2.754  22.164   6.150
 9570POPC   GL278926   2.636  22.211   6.150
 9570POPC   C1A78927   2.763  22.196   6.450
 9570POPC   D2A78928   2.786  22.203   6.750
 9570POPC   C3A78929   2.717  22.135   7.050
 9570POPC   C4A78930   2.719  22.154   7.350
 9570POPC   C1B78931   2.491  22.260   6.450
 9570POPC   C2B78932   2.494  22.273   6.750
 9570POPC   C3B78933   2.565  22.237   7.050
 9570POPC   C4B78934   2.500  22.315   7.350
 9571POPC   NC378935  16.727   1.178   5.550
 9571POPC   PO478936  16.731   1.260   5.850
 9571POPC   GL178937  16.770   1.251   6.150
 9571POPC   GL278938  16.832   1.118   6.150
 9571POPC   C1A78939  16.752   1.215   6.450
 9571POPC   D2A78940  16.705   1.239   6.750
 9571POPC   C3A78941  16.690   1.226   7.050
 9571POPC   C4A78942  16.766   1.209   7.350
 9571POPC   C1B78943  16.951   1.038   6.450
 9571POPC   C2B78944  16.950   1.081   6.750
 9571POPC   C3B78945  16.966   1.100   7.050
 9571POPC   C4B78946  16.907   1.067   7.350
 9572POPC   NC378947   5.889  20.656   5.550
 9572POPC   PO478948   5.841  20.607   5.850
 9572POPC   GL178949   5.847  20.620   6.150
 9572POPC   GL278950   5.803  20.517   6.150
 9572POPC   C1A78951   5.848  20.621   6.450
 9572POPC   D2A78952   5.887  20.605   6.750
 9572POPC   C3A78953   5.871  20.597   7.050
 9572POPC   C4A78954   5.856  20.632   7.350
 9572POPC   C1B78955   5.721  20.386   6.450
 9572POPC   C2B78956   5.723  20.342   6.750
 9572POPC   C3B78957   5.713  20.355   7.050
 9572POPC   C4B78958   5.787  20.405   7.350
 9573POPC   NC378959   0.441  24.511   5.550
 9573POPC   PO478960   0.389  24.483   5.850
 9573POPC   GL178961   0.414  24.455   6.150
 9573POPC   GL278962   0.567  24.464   6.150
 9573POPC   C1A78963   0.419  24.478   6.450
 9573POPC   D2A78964   0.478  24.505   6.750
 9573POPC   C3A78965   0.442  24.454   7.050
 9573POPC   C4A78966   0.466  24.518   7.350
 9573POPC   C1B78967   0.640  24.439   6.450
 9573POPC   C2B78968   0.630  24.398   6.750
 9573POPC   C3B78969   0.698  24.406   7.050
 9573POPC   C4B78970   0.701  24.462   7.350
 9574POPC   NC378971  30.660  19.034   5.550
 9574POPC   PO478972  30.656  19.072   5.850
 9574POPC   GL178973  30.709  19.078   6.150
 9574POPC   GL278974  30.607  19.122   6.150
 9574POPC   C1A78975  30.703  19.078   6.450
 9574POPC   D2A78976  30.660  19.043   6.750
 9574POPC   C3A78977  30.685  19.026   7.050
 9574POPC   C4A78978  30.699  19.055   7.350
 9574POPC   C1B78979  30.558  19.279   6.450
 9574POPC   C2B78980  30.620  19.312   6.750
 9574POPC   C3B78981  30.589  19.256   7.050
 9574POPC   C4B78982  30.593  19.253   7.350
 9575POPC   NC378983  13.622  34.551   5.550
 9575POPC   PO478984  13.671  34.591   5.850
 9575POPC   GL178985  13.661  34.562   6.150
 9575POPC   GL278986  13.650  34.743   6.150
 9575POPC   C1A78987  13.582  34.583   6.450
 9575POPC   D2A78988  13.666  34.544   6.750
 9575POPC   C3A78989  13.622  34.595   7.050
 9575POPC   C4A78990  13.616  34.547   7.350
 9575POPC   C1B78991  13.590  34.856   6.450
 9575POPC   C2B78992  13.585  34.811   6.750
 9575POPC   C3B78993  13.643  34.853   7.050
 9575POPC   C4B78994  13.603  34.873   7.350
 9576POPC   NC378995  23.689   4.294   5.550
 9576POPC   PO478996  23.699   4.311   5.850
 9576POPC   GL178997  23.721   4.359   6.150
 9576POPC   GL278998  23.581   4.385   6.150
 9576POPC   C1A78999  23.759   4.359   6.450
 9576POPC   D2A79000  23.742   4.330   6.750
 9576POPC   C3A79001  23.702   4.268   7.050
 9576POPC   C4A79002  23.707   4.302   7.350
 9576POPC   C1B79003  23.524   4.486   6.450
 9576POPC   C2B79004  23.530   4.508   6.750
 9576POPC   C3B79005  23.553   4.467   7.050
 9576POPC   C4B79006  23.521   4.501   7.350
 9577POPC   NC379007  44.674  29.113   5.550
 9577POPC   PO479008  44.645  29.183   5.850
 9577POPC   GL179009  44.674  29.143   6.150
 9577POPC   GL279010  44.706  29.066   6.150
 9577POPC   C1A79011  44.645  29.098   6.450
 9577POPC   D2A79012  44.688  29.114   6.750
 9577POPC   C3A79013  44.614  29.148   7.050
 9577POPC   C4A79014  44.681  29.154   7.350
 9577POPC   C1B79015  44.800  28.968   6.450
 9577POPC   C2B79016  44.796  28.935   6.750
 9577POPC   C3B79017  44.826  28.921   7.050
 9577POPC   C4B79018  44.808  28.962   7.350
 9578POPC   NC379019  19.833  28.359   5.550
 9578POPC   PO479020  19.854  28.376   5.850
 9578POPC   GL179021  19.858  28.396   6.150
 9578POPC   GL279022  19.677  28.361   6.150
 9578POPC   C1A79023  19.803  28.367   6.450
 9578POPC   D2A79024  19.790  28.335   6.750
 9578POPC   C3A79025  19.876  28.397   7.050
 9578POPC   C4A79026  19.811  28.328   7.350
 9578POPC   C1B79027  19.586  28.386   6.450
 9578POPC   C2B79028  19.556  28.326   6.750
 9578POPC   C3B79029  19.623  28.339   7.050
 9578POPC   C4B79030  19.620  28.311   7.350
 9579POPC   NC379031   3.572  35.348   5.550
 9579POPC   PO479032   3.571  35.389   5.850
 9579POPC   GL179033   3.549  35.395   6.150
 9579POPC   GL279034   3.462  35.282   6.150
 9579POPC   C1A79035   3.543  35.384   6.450
 9579POPC   D2A79036   3.549  35.394   6.750
 9579POPC   C3A79037   3.499  35.367   7.050
 9579POPC   C4A79038   3.536  35.366   7.350
 9579POPC   C1B79039   3.296  35.307   6.450
 9579POPC   C2B79040   3.345  35.260   6.750
 9579POPC   C3B79041   3.299  35.305   7.050
 9579POPC   C4B79042   3.268  35.270   7.350
 9580POPC   NC379043  41.561   1.191   5.550
 9580POPC   PO479044  41.540   1.178   5.850
 9580POPC   GL179045  41.588   1.247   6.150
 9580POPC   GL279046  41.628   1.263   6.150
 9580POPC   C1A79047  41.605   1.223   6.450
 9580POPC   D2A79048  41.607   1.263   6.750
 9580POPC   C3A79049  41.559   1.199   7.050
 9580POPC   C4A79050  41.602   1.221   7.350
 9580POPC   C1B79051  41.773   1.343   6.450
 9580POPC   C2B79052  41.749   1.314   6.750
 9580POPC   C3B79053  41.765   1.269   7.050
 9580POPC   C4B79054  41.838   1.330   7.350
 9581POPC   NC379055  22.129  29.915   5.550
 9581POPC   PO479056  22.134  29.943   5.850
 9581POPC   GL179057  22.205  29.872   6.150
 9581POPC   GL279058  22.248  29.986   6.150
 9581POPC   C1A79059  22.211  29.944   6.450
 9581POPC   D2A79060  22.117  29.916   6.750
 9581POPC   C3A79061  22.179  29.891   7.050
 9581POPC   C4A79062  22.139  29.936   7.350
 9581POPC   C1B79063  22.306  30.181   6.450
 9581POPC   C2B79064  22.324  30.106   6.750
 9581POPC   C3B79065  22.272  30.156   7.050
 9581POPC   C4B79066  22.266  30.135   7.350
 9582POPC   NC379067  27.558   5.075   5.550
 9582POPC   PO479068  27.592   5.045   5.850
 9582POPC   GL179069  27.606   5.081   6.150
 9582POPC   GL279070  27.654   5.163   6.150
 9582POPC   C1A79071  27.613   5.062   6.450
 9582POPC   D2A79072  27.608   5.129   6.750
 9582POPC   C3A79073  27.584   5.044   7.050
 9582POPC   C4A79074  27.609   5.114   7.350
 9582POPC   C1B79075  27.697   5.256   6.450
 9582POPC   C2B79076  27.764   5.288   6.750
 9582POPC   C3B79077  27.747   5.257   7.050
 9582POPC   C4B79078  27.727   5.318   7.350
 9583POPC   NC379079  43.899   2.752   5.550
 9583POPC   PO479080  43.863   2.756   5.850
 9583POPC   GL179081  43.898   2.807   6.150
 9583POPC   GL279082  43.865   2.874   6.150
 9583POPC   C1A79083  43.903   2.740   6.450
 9583POPC   D2A79084  43.918   2.811   6.750
 9583POPC   C3A79085  43.857   2.812   7.050
 9583POPC   C4A79086  43.878   2.720   7.350
 9583POPC   C1B79087  43.804   2.959   6.450
 9583POPC   C2B79088  43.854   3.023   6.750
 9583POPC   C3B79089  43.824   3.022   7.050
 9583POPC   C4B79090  43.841   3.011   7.350
 9584POPC   NC379091  26.777  32.274   5.550
 9584POPC   PO479092  26.770  32.277   5.850
 9584POPC   GL179093  26.824  32.210   6.150
 9584POPC   GL279094  26.743  32.312   6.150
 9584POPC   C1A79095  26.850  32.240   6.450
 9584POPC   D2A79096  26.862  32.201   6.750
 9584POPC   C3A79097  26.849  32.261   7.050
 9584POPC   C4A79098  26.789  32.294   7.350
 9584POPC   C1B79099  26.687  32.443   6.450
 9584POPC   C2B79100  26.686  32.468   6.750
 9584POPC   C3B79101  26.634  32.401   7.050
 9584POPC   C4B79102  26.592  32.402   7.350
 9585POPC   NC379103  22.959   6.676   5.550
 9585POPC   PO479104  22.985   6.643   5.850
 9585POPC   GL179105  22.973   6.686   6.150
 9585POPC   GL279106  23.010   6.571   6.150
 9585POPC   C1A79107  22.921   6.611   6.450
 9585POPC   D2A79108  22.959   6.627   6.750
 9585POPC   C3A79109  22.909   6.661   7.050
 9585POPC   C4A79110  22.970   6.678   7.350
 9585POPC   C1B79111  23.104   6.466   6.450
 9585POPC   C2B79112  23.089   6.392   6.750
 9585POPC   C3B79113  23.081   6.451   7.050
 9585POPC   C4B79114  23.059   6.475   7.350
 9586POPC   NC379115  26.866  22.945   5.550
 9586POPC   PO479116  26.831  22.909   5.850
 9586POPC   GL179117  26.788  22.935   6.150
 9586POPC   GL279118  26.875  22.998   6.150
 9586POPC   C1A79119  26.857  22.913   6.450
 9586POPC   D2A79120  26.791  22.963   6.750
 9586POPC   C3A79121  26.852  22.928   7.050
 9586POPC   C4A79122  26.819  22.890   7.350
 9586POPC   C1B79123  27.027  23.079   6.450
 9586POPC   C2B79124  26.974  23.038   6.750
 9586POPC   C3B79125  27.063  23.058   7.050
 9586POPC   C4B79126  27.025  23.077   7.350
 9587POPC   NC379127  19.872  41.608   5.550
 9587POPC   PO479128  19.799  41.523   5.850
 9587POPC   GL179129  19.827  41.537   6.150
 9587POPC   GL279130  19.975  41.654   6.150
 9587POPC   C1A79131  19.790  41.556   6.450
 9587POPC   D2A79132  19.815  41.580   6.750
 9587POPC   C3A79133  19.881  41.539   7.050
 9587POPC   C4A79134  19.853  41.599   7.350
 9587POPC   C1B79135  19.998  41.675   6.450
 9587POPC   C2B79136  19.997  41.711   6.750
 9587POPC   C3B79137  20.018  41.678   7.050
 9587POPC   C4B79138  20.072  41.733   7.350
 9588POPC   NC379139   6.672  31.446   5.550
 9588POPC   PO479140   6.624  31.464   5.850
 9588POPC   GL179141   6.625  31.444   6.150
 9588POPC   GL279142   6.754  31.513   6.150
 9588POPC   C1A79143   6.657  31.521   6.450
 9588POPC   D2A79144   6.636  31.434   6.750
 9588POPC   C3A79145   6.662  31.520   7.050
 9588POPC   C4A79146   6.613  31.452   7.350
 9588POPC   C1B79147   6.882  31.643   6.450
 9588POPC   C2B79148   6.865  31.647   6.750
 9588POPC   C3B79149   6.863  31.651   7.050
 9588POPC   C4B79150   6.869  31.579   7.350
 9589POPC   NC379151  31.521  14.432   5.550
 9589POPC   PO479152  31.468  14.386   5.850
 9589POPC   GL179153  31.426  14.382   6.150
 9589POPC   GL279154  31.446  14.484   6.150
 9589POPC   C1A79155  31.438  14.367   6.450
 9589POPC   D2A79156  31.509  14.398   6.750
 9589POPC   C3A79157  31.435  14.438   7.050
 9589POPC   C4A79158  31.517  14.412   7.350
 9589POPC   C1B79159  31.276  14.559   6.450
 9589POPC   C2B79160  31.318  14.647   6.750
 9589POPC   C3B79161  31.278  14.653   7.050
 9589POPC   C4B79162  31.279  14.568   7.350
 9590POPC   NC379163  34.566  21.417   5.550
 9590POPC   PO479164  34.585  21.360   5.850
 9590POPC   GL179165  34.601  21.345   6.150
 9590POPC   GL279166  34.548  21.283   6.150
 9590POPC   C1A79167  34.552  21.356   6.450
 9590POPC   D2A79168  34.581  21.420   6.750
 9590POPC   C3A79169  34.590  21.358   7.050
 9590POPC   C4A79170  34.532  21.357   7.350
 9590POPC   C1B79171  34.556  21.145   6.450
 9590POPC   C2B79172  34.515  21.115   6.750
 9590POPC   C3B79173  34.536  21.101   7.050
 9590POPC   C4B79174  34.584  21.121   7.350
 9591POPC   NC379175  27.617  19.039   5.550
 9591POPC   PO479176  27.606  19.046   5.850
 9591POPC   GL179177  27.553  19.066   6.150
 9591POPC   GL279178  27.467  19.007   6.150
 9591POPC   C1A79179  27.595  19.026   6.450
 9591POPC   D2A79180  27.595  19.100   6.750
 9591POPC   C3A79181  27.551  19.060   7.050
 9591POPC   C4A79182  27.551  19.064   7.350
 9591POPC   C1B79183  27.409  18.952   6.450
 9591POPC   C2B79184  27.412  18.945   6.750
 9591POPC   C3B79185  27.381  18.961   7.050
 9591POPC   C4B79186  27.384  18.949   7.350
 9592POPC   NC379187   2.721  37.694   5.550
 9592POPC   PO479188   2.773  37.693   5.850
 9592POPC   GL179189   2.764  37.711   6.150
 9592POPC   GL279190   2.699  37.546   6.150
 9592POPC   C1A79191   2.716  37.703   6.450
 9592POPC   D2A79192   2.811  37.703   6.750
 9592POPC   C3A79193   2.739  37.689   7.050
 9592POPC   C4A79194   2.731  37.701   7.350
 9592POPC   C1B79195   2.610  37.492   6.450
 9592POPC   C2B79196   2.577  37.448   6.750
 9592POPC   C3B79197   2.592  37.450   7.050
 9592POPC   C4B79198   2.618  37.527   7.350
 9593POPC   NC379199  44.662   9.717   5.550
 9593POPC   PO479200  44.637   9.727   5.850
 9593POPC   GL179201  44.675   9.769   6.150
 9593POPC   GL279202  44.621   9.849   6.150
 9593POPC   C1A79203  44.628   9.711   6.450
 9593POPC   D2A79204  44.685   9.796   6.750
 9593POPC   C3A79205  44.613   9.761   7.050
 9593POPC   C4A79206  44.700   9.777   7.350
 9593POPC   C1B79207  44.446   9.913   6.450
 9593POPC   C2B79208  44.445   9.910   6.750
 9593POPC   C3B79209  44.482   9.880   7.050
 9593POPC   C4B79210  44.497   9.883   7.350
 9594POPC   NC379211  20.598   1.993   5.550
 9594POPC   PO479212  20.612   1.957   5.850
 9594POPC   GL179213  20.575   1.994   6.150
 9594POPC   GL279214  20.514   1.921   6.150
 9594POPC   C1A79215  20.649   1.995   6.450
 9594POPC   D2A79216  20.623   1.976   6.750
 9594POPC   C3A79217  20.586   2.011   7.050
 9594POPC   C4A79218  20.636   1.953   7.350
 9594POPC   C1B79219  20.417   1.815   6.450
 9594POPC   C2B79220  20.410   1.824   6.750
 9594POPC   C3B79221  20.356   1.806   7.050
 9594POPC   C4B79222  20.360   1.805   7.350
 9595POPC   NC379223  18.257  22.986   5.550
 9595POPC   PO479224  18.269  22.953   5.850
 9595POPC   GL179225  18.276  22.924   6.150
 9595POPC   GL279226  18.115  23.002   6.150
 9595POPC   C1A79227  18.252  22.952   6.450
 9595POPC   D2A79228  18.323  22.900   6.750
 9595POPC   C3A79229  18.244  22.943   7.050
 9595POPC   C4A79230  18.276  22.931   7.350
 9595POPC   C1B79231  18.020  22.978   6.450
 9595POPC   C2B79232  18.032  22.999   6.750
 9595POPC   C3B79233  18.003  22.960   7.050
 9595POPC   C4B79234  18.026  22.993   7.350
 9596POPC   NC379235  43.114  36.906   5.550
 9596POPC   PO479236  43.114  36.862   5.850
 9596POPC   GL179237  43.061  36.869   6.150
 9596POPC   GL279238  43.239  36.935   6.150
 9596POPC   C1A79239  43.089  36.920   6.450
 9596POPC   D2A79240  43.103  36.942   6.750
 9596POPC   C3A79241  43.079  36.865   7.050
 9596POPC   C4A79242  43.089  36.919   7.350
 9596POPC   C1B79243  43.299  37.081   6.450
 9596POPC   C2B79244  43.333  37.102   6.750
 9596POPC   C3B79245  43.297  37.015   7.050
 9596POPC   C4B79246  43.266  37.013   7.350
 9597POPC   NC379247  22.929  34.589   5.550
 9597POPC   PO479248  22.902  34.610   5.850
 9597POPC   GL179249  22.948  34.526   6.150
 9597POPC   GL279250  22.964  34.667   6.150
 9597POPC   C1A79251  22.975  34.589   6.450
 9597POPC   D2A79252  22.954  34.594   6.750
 9597POPC   C3A79253  22.971  34.556   7.050
 9597POPC   C4A79254  22.982  34.594   7.350
 9597POPC   C1B79255  23.071  34.747   6.450
 9597POPC   C2B79256  23.043  34.786   6.750
 9597POPC   C3B79257  23.053  34.826   7.050
 9597POPC   C4B79258  23.082  34.806   7.350
 9598POPC   NC379259  12.831  42.350   5.550
 9598POPC   PO479260  12.848  42.316   5.850
 9598POPC   GL179261  12.804  42.328   6.150
 9598POPC   GL279262  12.713  42.316   6.150
 9598POPC   C1A79263  12.863  42.310   6.450
 9598POPC   D2A79264  12.808  42.285   6.750
 9598POPC   C3A79265  12.820  42.377   7.050
 9598POPC   C4A79266  12.886  42.320   7.350
 9598POPC   C1B79267  12.580  42.270   6.450
 9598POPC   C2B79268  12.635  42.229   6.750
 9598POPC   C3B79269  12.594  42.195   7.050
 9598POPC   C4B79270  12.635  42.250   7.350
 9599POPC   NC379271  36.123  35.353   5.550
 9599POPC   PO479272  36.080  35.336   5.850
 9599POPC   GL179273  36.096  35.382   6.150
 9599POPC   GL279274  36.218  35.216   6.150
 9599POPC   C1A79275  36.100  35.349   6.450
 9599POPC   D2A79276  36.106  35.355   6.750
 9599POPC   C3A79277  36.086  35.334   7.050
 9599POPC   C4A79278  36.124  35.381   7.350
 9599POPC   C1B79279  36.256  35.090   6.450
 9599POPC   C2B79280  36.240  35.083   6.750
 9599POPC   C3B79281  36.181  35.096   7.050
 9599POPC   C4B79282  36.185  35.121   7.350
 9600POPC   NC379283  35.392  18.262   5.550
 9600POPC   PO479284  35.397  18.275   5.850
 9600POPC   GL179285  35.383  18.263   6.150
 9600POPC   GL279286  35.448  18.136   6.150
 9600POPC   C1A79287  35.348  18.261   6.450
 9600POPC   D2A79288  35.334  18.247   6.750
 9600POPC   C3A79289  35.391  18.251   7.050
 9600POPC   C4A79290  35.376  18.239   7.350
 9600POPC   C1B79291  35.499  18.074   6.450
 9600POPC   C2B79292  35.472  18.061   6.750
 9600POPC   C3B79293  35.436  18.086   7.050
 9600POPC   C4B79294  35.497  18.089   7.350
 9601POPC   NC379295  13.606  17.501   5.550
 9601POPC   PO479296  13.669  17.532   5.850
 9601POPC   GL179297  13.586  17.523   6.150
 9601POPC   GL279298  13.700  17.508   6.150
 9601POPC   C1A79299  13.620  17.500   6.450
 9601POPC   D2A79300  13.602  17.513   6.750
 9601POPC   C3A79301  13.660  17.503   7.050
 9601POPC   C4A79302  13.623  17.499   7.350
 9601POPC   C1B79303  13.829  17.585   6.450
 9601POPC   C2B79304  13.834  17.570   6.750
 9601POPC   C3B79305  13.870  17.547   7.050
 9601POPC   C4B79306  13.859  17.603   7.350
 9602POPC   NC379307  19.093  18.301   5.550
 9602POPC   PO479308  19.096  18.249   5.850
 9602POPC   GL179309  19.035  18.331   6.150
 9602POPC   GL279310  19.230  18.242   6.150
 9602POPC   C1A79311  19.082  18.254   6.450
 9602POPC   D2A79312  19.038  18.233   6.750
 9602POPC   C3A79313  19.025  18.298   7.050
 9602POPC   C4A79314  19.093  18.235   7.350
 9602POPC   C1B79315  19.328  18.231   6.450
 9602POPC   C2B79316  19.327  18.198   6.750
 9602POPC   C3B79317  19.321  18.261   7.050
 9602POPC   C4B79318  19.349  18.223   7.350
 9603POPC   NC379319  26.819  19.034   5.550
 9603POPC   PO479320  26.849  19.108   5.850
 9603POPC   GL179321  26.857  19.083   6.150
 9603POPC   GL279322  26.870  18.916   6.150
 9603POPC   C1A79323  26.805  19.101   6.450
 9603POPC   D2A79324  26.825  19.107   6.750
 9603POPC   C3A79325  26.807  19.043   7.050
 9603POPC   C4A79326  26.789  19.022   7.350
 9603POPC   C1B79327  26.947  18.837   6.450
 9603POPC   C2B79328  26.983  18.895   6.750
 9603POPC   C3B79329  26.929  18.806   7.050
 9603POPC   C4B79330  26.977  18.879   7.350
 9604POPC   NC379331  23.666  42.361   5.550
 9604POPC   PO479332  23.709  42.359   5.850
 9604POPC   GL179333  23.735  42.375   6.150
 9604POPC   GL279334  23.722  42.446   6.150
 9604POPC   C1A79335  23.740  42.384   6.450
 9604POPC   D2A79336  23.697  42.384   6.750
 9604POPC   C3A79337  23.706  42.363   7.050
 9604POPC   C4A79338  23.683  42.312   7.350
 9604POPC   C1B79339  23.758  42.608   6.450
 9604POPC   C2B79340  23.733  42.577   6.750
 9604POPC   C3B79341  23.739  42.549   7.050
 9604POPC   C4B79342  23.771  42.564   7.350
 9605POPC   NC379343  22.142  10.550   5.550
 9605POPC   PO479344  22.143  10.570   5.850
 9605POPC   GL179345  22.164  10.496   6.150
 9605POPC   GL279346  22.047  10.478   6.150
 9605POPC   C1A79347  22.141  10.534   6.450
 9605POPC   D2A79348  22.137  10.495   6.750
 9605POPC   C3A79349  22.114  10.483   7.050
 9605POPC   C4A79350  22.177  10.481   7.350
 9605POPC   C1B79351  21.906  10.482   6.450
 9605POPC   C2B79352  21.910  10.446   6.750
 9605POPC   C3B79353  21.955  10.464   7.050
 9605POPC   C4B79354  21.902  10.393   7.350
 9606POPC   NC379355  42.371  30.724   5.550
 9606POPC   PO479356  42.334  30.655   5.850
 9606POPC   GL179357  42.356  30.664   6.150
 9606POPC   GL279358  42.468  30.704   6.150
 9606POPC   C1A79359  42.334  30.726   6.450
 9606POPC   D2A79360  42.363  30.741   6.750
 9606POPC   C3A79361  42.338  30.683   7.050
 9606POPC   C4A79362  42.320  30.681   7.350
 9606POPC   C1B79363  42.577  30.671   6.450
 9606POPC   C2B79364  42.597  30.638   6.750
 9606POPC   C3B79365  42.572  30.715   7.050
 9606POPC   C4B79366  42.603  30.623   7.350
 9607POPC   NC379367  39.201  11.343   5.550
 9607POPC   PO479368  39.233  11.270   5.850
 9607POPC   GL179369  39.262  11.271   6.150
 9607POPC   GL279370  39.108  11.293   6.150
 9607POPC   C1A79371  39.251  11.284   6.450
 9607POPC   D2A79372  39.184  11.317   6.750
 9607POPC   C3A79373  39.243  11.293   7.050
 9607POPC   C4A79374  39.258  11.330   7.350
 9607POPC   C1B79375  38.993  11.228   6.450
 9607POPC   C2B79376  38.988  11.165   6.750
 9607POPC   C3B79377  39.024  11.188   7.050
 9607POPC   C4B79378  39.042  11.182   7.350
 9608POPC   NC379379  21.423  37.682   5.550
 9608POPC   PO479380  21.367  37.656   5.850
 9608POPC   GL179381  21.407  37.665   6.150
 9608POPC   GL279382  21.321  37.604   6.150
 9608POPC   C1A79383  21.395  37.638   6.450
 9608POPC   D2A79384  21.429  37.725   6.750
 9608POPC   C3A79385  21.436  37.664   7.050
 9608POPC   C4A79386  21.404  37.676   7.350
 9608POPC   C1B79387  21.132  37.592   6.450
 9608POPC   C2B79388  21.122  37.565   6.750
 9608POPC   C3B79389  21.141  37.544   7.050
 9608POPC   C4B79390  21.136  37.593   7.350
 9609POPC   NC379391   4.355  33.000   5.550
 9609POPC   PO479392   4.306  32.974   5.850
 9609POPC   GL179393   4.331  33.014   6.150
 9609POPC   GL279394   4.488  32.999   6.150
 9609POPC   C1A79395   4.362  33.063   6.450
 9609POPC   D2A79396   4.290  32.997   6.750
 9609POPC   C3A79397   4.329  33.057   7.050
 9609POPC   C4A79398   4.281  32.977   7.350
 9609POPC   C1B79399   4.565  32.936   6.450
 9609POPC   C2B79400   4.520  32.992   6.750
 9609POPC   C3B79401   4.529  33.000   7.050
 9609POPC   C4B79402   4.591  32.920   7.350
 9610POPC   NC379403   8.964  22.917   5.550
 9610POPC   PO479404   8.926  22.961   5.850
 9610POPC   GL179405   8.929  22.894   6.150
 9610POPC   GL279406   8.897  22.880   6.150
 9610POPC   C1A79407   8.996  22.968   6.450
 9610POPC   D2A79408   9.003  22.945   6.750
 9610POPC   C3A79409   8.939  22.915   7.050
 9610POPC   C4A79410   8.981  22.939   7.350
 9610POPC   C1B79411   8.745  22.758   6.450
 9610POPC   C2B79412   8.807  22.811   6.750
 9610POPC   C3B79413   8.777  22.779   7.050
 9610POPC   C4B79414   8.813  22.722   7.350
 9611POPC   NC379415  34.611  29.970   5.550
 9611POPC   PO479416  34.579  29.933   5.850
 9611POPC   GL179417  34.546  29.873   6.150
 9611POPC   GL279418  34.480  29.788   6.150
 9611POPC   C1A79419  34.540  29.971   6.450
 9611POPC   D2A79420  34.567  29.922   6.750
 9611POPC   C3A79421  34.543  29.937   7.050
 9611POPC   C4A79422  34.617  29.888   7.350
 9611POPC   C1B79423  34.417  29.709   6.450
 9611POPC   C2B79424  34.394  29.754   6.750
 9611POPC   C3B79425  34.417  29.735   7.050
 9611POPC   C4B79426  34.393  29.663   7.350
 9612W        W79427  43.322  13.822  11.876
 9613W        W79428  33.006  22.569   2.712
 9614W        W79429  15.807  36.025  11.432
 9615W        W79430  22.995  24.710   0.292
 9616W        W79431  17.089   4.271   4.228
 9617W        W79432  19.111   5.203  13.503
 9618W        W79433  32.566  36.949   4.285
 9619W        W79434   9.860   6.327  11.948
 9620W        W79435  41.369  22.664   1.316
 9621W        W79436  26.645  20.736   1.404
 9622W        W79437  40.495  23.506   0.375
 9623W        W79438   1.381  13.726   4.219
 9624W        W79439  34.076  28.039   4.683
 9625W        W79440  24.143  28.002   3.324
 9626W        W79441   9.232   2.411   0.294
 9627W        W79442  27.121  13.838   3.710
 9628W        W79443  11.809  37.900   3.635
 9629W        W79444  18.670   8.687  13.321
 9630W        W79445  29.019  39.540  13.525
 9631W        W79446  18.284  32.431  13.806
 9632W        W79447  39.335  29.668   1.307
 9633W        W79448  43.380   6.228   2.240
 9634W        W79449  22.158   7.232  11.965
 9635W        W79450  19.120   7.781  14.320
 9636W        W79451  17.130   2.430  10.630
 9637W        W79452  13.700   0.940  10.425
 9638W        W79453  11.186  42.385   2.853
 9639W        W79454  42.006  22.575   0.392
 9640W        W79455   0.414  37.059  13.520
 9641W        W79456  20.667  41.292  13.791
 9642W        W79457  28.628   3.334  14.386
 9643W        W79458   8.370  21.064   5.286
 9644W        W79459  28.583  31.941   3.317
 9645W        W79460   4.857  28.545   4.686
 9646W        W79461  40.826  44.925   0.410
 9647W        W79462   1.890  37.520  14.492
 9648W        W79463  10.363  38.885   1.410
 9649W        W79464  44.353  38.487   5.233
 9650W        W79465  34.388  11.812  10.496
 9651W        W79466  22.528  42.778  14.958
 9652W        W79467  39.445  14.100   3.827
 9653W        W79468  35.892  43.450  11.405
 9654W        W79469   4.836  25.175  14.815
 9655W        W79470  14.234  30.518   2.276
 9656W        W79471  18.710  27.100   2.817
 9657W        W79472  39.542   6.752   2.764
 9658W        W79473   1.923  10.701  14.785
 9659W        W79474  38.489   9.793   4.741
 9660W        W79475  22.526  20.616   2.393
 9661W        W79476  42.874  21.210  11.022
 9662W        W79477  40.444  40.376   4.223
 9663W        W79478  14.296  22.709   3.166
 9664W        W79479  28.674  40.544  13.802
 9665W        W79480  28.581  17.618   1.302
 9666W        W79481  14.799  28.115   1.746
 9667W        W79482  20.743  40.475   3.803
 9668W        W79483   5.916  13.818  12.341
 9669W        W79484  44.002  43.929  13.977
 9670W        W79485  41.977   6.809  10.621
 9671W        W79486  27.183   9.858  14.310
 9672W        W79487  30.103  34.381   3.227
 9673W        W79488  27.479  36.885   4.718
 9674W        W79489   7.719  15.578   4.612
 9675W        W79490  21.740  30.563   1.919
 9676W        W79491  41.936  22.636   3.751
 9677W        W79492  40.513  20.668   4.132
 9678W        W79493  11.276   4.388  10.595
 9679W        W79494  35.411  38.473  14.329
 9680W        W79495  33.392   8.213  12.854
 9681W        W79496  23.053  30.973   4.182
 9682W        W79497  39.447  40.037   0.403
 9683W        W79498  13.743  22.638  12.391
 9684W        W79499  26.552   3.431  13.016
 9685W        W79500  31.416  27.513   3.803
 9686W        W79501   6.826  13.726  10.903
 9687W        W79502   8.403  44.989  13.467
 9688W        W79503  34.547  31.562  10.546
 9689W        W79504  42.289  42.398   0.344
 9690W        W79505  24.201  11.339   2.890
 9691W        W79506  17.721   1.333   1.390
 9692W        W79507   7.843  29.110   1.740
 9693W        W79508  21.043  16.141   0.427
 9694W        W79509  31.577  16.578  10.906
 9695W        W79510  39.997  33.967   0.903
 9696W        W79511  13.688  30.013  14.992
 9697W        W79512  31.443   9.226  14.961
 9698W        W79513   4.227  41.359  11.890
 9699W        W79514  26.494  34.568  13.964
 9700W        W79515  23.003  42.980   3.749
 9701W        W79516   0.897   5.725   1.880
 9702W        W79517  13.266   2.870  13.420
 9703W        W79518   6.318  18.785  11.956
 9704W        W79519  15.204  13.709   3.296
 9705W        W79520  40.865  16.692  14.338
 9706W        W79521  22.100  30.149   0.750
 9707W        W79522  42.475  33.006  13.337
 9708W        W79523  41.350   3.216  13.000
 9709W        W79524  33.525  34.599  14.842
 9710W        W79525  35.574  40.823   3.806
 9711W        W79526  36.481  11.151   3.823
 9712W        W79527  27.098   0.447  11.570
 9713W        W79528  34.590  36.918   2.853
 9714W        W79529  21.704  27.632   4.213
 9715W        W79530   1.415   3.302   2.194
 9716W        W79531  13.623   2.900  14.371
 9717W        W79532   9.664  18.182  14.781
 9718W        W79533  29.524  30.938  12.883
 9719W        W79534  34.378  21.241  11.990
 9720W        W79535  32.552  17.707  10.445
 9721W        W79536  18.169  15.581   1.279
 9722W        W79537  19.753  38.507   0.414
 9723W        W79538   7.859  14.186  10.953
 9724W        W79539  28.677  42.382   4.679
 9725W        W79540  34.008  17.075   2.723
 9726W        W79541  35.557  19.087   2.849
 9727W        W79542  27.650  10.784  14.023
 9728W        W79543   9.196  22.007  13.508
 9729W        W79544  21.113  37.989  13.892
 9730W        W79545  27.447  24.977   2.399
 9731W        W79546  39.844   3.855  11.950
 9732W        W79547  39.023  44.806  10.001
 9733W        W79548  26.027  15.675   2.826
 9734W        W79549  20.596   5.844  12.004
 9735W        W79550  11.828  39.516   2.716
 9736W        W79551  17.764  11.670  12.855
 9737W        W79552   9.765  43.955  13.809
 9738W        W79553  38.469   4.778   3.253
 9739W        W79554  17.298  30.422   4.709
 9740W        W79555  34.570  39.906  12.416
 9741W        W79556  23.157  39.837   3.284
 9742W        W79557  37.389  32.073  11.991
 9743W        W79558  22.604  35.979  12.403
 9744W        W79559  12.813  29.573  11.938
 9745W        W79560  28.476  32.465   3.229
 9746W        W79561  27.101  15.135   4.625
 9747W        W79562   2.432  19.752  11.405
 9748W        W79563  33.537   4.374  11.944
 9749W        W79564  43.360  20.615  13.053
 9750W        W79565  22.042   1.258  11.009
 9751W        W79566  31.499  14.243  13.403
 9752W        W79567  28.077  43.842   0.860
 9753W        W79568  42.378  27.660   3.148
 9754W        W79569  18.252  35.919   4.331
 9755W        W79570  32.404   0.918   0.377
 9756W        W79571   7.801   3.433   1.250
 9757W        W79572  23.505   4.235  12.397
 9758W        W79573  28.676  41.963   2.245
 9759W        W79574  19.185  28.631   2.232
 9760W        W79575  31.972  44.790  14.933
 9761W        W79576  40.897  40.378   2.317
 9762W        W79577  43.901   1.478   4.667
 9763W        W79578  38.919  31.001   1.777
 9764W        W79579  19.773   9.297  11.493
 9765W        W79580  12.329  19.707   2.704
 9766W        W79581  39.388  25.203   1.213
 9767W        W79582  24.056  34.490  11.947
 9768W        W79583   0.264  36.401   3.152
 9769W        W79584  34.455  14.237   2.280
 9770W        W79585  11.757  31.458  10.496
 9771W        W79586  41.498   8.228  10.908
 9772W        W79587  39.059  34.602   4.146
 9773W        W79588  35.027  17.752   4.254
 9774W        W79589  43.342  28.051  11.460
 9775W        W79590   8.711  44.960  13.819
 9776W        W79591  10.250  24.594  11.026
 9777W        W79592  41.464  21.060   2.310
 9778W        W79593  42.446  17.664   1.401
 9779W        W79594  11.298  23.626  13.848
 9780W        W79595  28.089   2.438  14.414
 9781W        W79596  31.109   6.906   0.915
 9782W        W79597  15.638  33.556   4.777
 9783W        W79598  11.253   9.370  12.361
 9784W        W79599   4.886   4.722   5.248
 9785W        W79600   6.313  42.033   0.735
 9786W        W79601  16.721   3.250  13.496
 9787W        W79602  36.895  14.804   3.668
 9788W        W79603  16.610  37.077   2.263
 9789W        W79604  27.484  31.443  13.793
 9790W        W79605   8.872  12.143  13.917
 9791W        W79606   1.261  40.938  11.938
 9792W        W79607  34.387   6.336   3.830
 9793W        W79608   3.273  34.478   4.694
 9794W        W79609  26.203   7.403  11.116
 9795W        W79610  27.656   5.350   4.309
 9796W        W79611   0.305  20.271   3.356
 9797W        W79612  11.249  28.510  11.999
 9798W        W79613  32.036  32.123  14.924
 9799W        W79614  38.411  44.504  12.841
 9800W        W79615  29.144   0.885  12.840
 9801W        W79616  40.447  28.486  13.340
 9802W        W79617  19.579  29.626  13.031
 9803W        W79618  25.539  15.824  14.802
 9804W        W79619  18.114  17.184  11.028
 9805W        W79620  10.796  32.561   3.721
 9806W        W79621   9.773  40.395   3.361
 9807W        W79622  21.167  20.093   0.738
 9808W        W79623  34.101  26.155   0.263
 9809W        W79624  11.349  37.901   3.825
 9810W        W79625  15.316  32.053  11.049
 9811W        W79626  36.866  24.614  11.021
 9812W        W79627  16.103   0.963   1.922
 9813W        W79628  32.913  38.043  14.362
 9814W        W79629  32.487  37.024  12.823
 9815W        W79630  15.750   1.318  14.784
 9816W        W79631  32.045  19.232  11.023
 9817W        W79632   1.389  15.663  13.930
 9818W        W79633  35.536  39.532   1.419
 9819W        W79634  23.700  26.610  13.942
 9820W        W79635  13.189  21.109  11.033
 9821W        W79636  39.831  28.493   2.873
 9822W        W79637   5.374  16.130   1.224
 9823W        W79638  28.163  18.104  12.020
 9824W        W79639  36.447  43.764   0.399
 9825W        W79640  29.561   8.273   3.713
 9826W        W79641  25.648  34.566   3.171
 9827W        W79642  18.202  34.967  12.983
 9828W        W79643  10.162  35.023  11.079
 9829W        W79644  25.211  39.058   4.773
 9830W        W79645   7.777   8.883   2.380
 9831W        W79646  32.895  19.703  10.633
 9832W        W79647   8.369   0.940  13.480
 9833W        W79648  35.055   7.320  12.389
 9834W        W79649  12.127  18.093  10.629
 9835W        W79650  17.131  34.917  10.082
 9836W        W79651   5.195  12.855  12.874
 9837W        W79652   5.779  34.036   4.285
 9838W        W79653  14.736  18.612   1.295
 9839W        W79654  34.498  43.358  13.868
 9840W        W79655  39.857  43.436  12.567
 9841W        W79656  35.866   2.424  13.856
 9842W        W79657   7.380  30.576  12.937
 9843W        W79658  15.701   7.816   4.236
 9844W        W79659   3.346  36.451   4.198
 9845W        W79660  28.944  37.059  13.791
 9846W        W79661  43.324  39.816   1.932
 9847W        W79662  21.568  37.902   3.253
 9848W        W79663  24.690  23.231   1.295
 9849W        W79664  19.742  10.258  10.427
 9850W        W79665  30.103  32.493  12.577
 9851W        W79666  28.495  20.114  12.037
 9852W        W79667  18.076   1.754   2.894
 9853W        W79668   1.320  31.434   0.282
 9854W        W79669   2.281  23.731   1.348
 9855W        W79670  31.619   1.323  13.411
 9856W        W79671   1.859  33.453   4.739
 9857W        W79672  23.546  17.274   4.219
 9858W        W79673  21.578   1.308  13.307
 9859W        W79674  16.699  17.097  10.436
 9860W        W79675  33.085  27.152  14.346
 9861W        W79676  27.463  18.716  14.511
 9862W        W79677   8.394  13.763   1.404
 9863W        W79678  25.481  40.495   1.450
 9864W        W79679  14.216  26.475  12.909
 9865W        W79680  14.603  35.478   2.781
 9866W        W79681  34.043  38.055  14.775
 9867W        W79682  20.145  36.874   0.820
 9868W        W79683  36.870  21.155  11.100
 9869W        W79684   8.825   6.182   2.767
 9870W        W79685  32.447  10.297   0.466
 9871W        W79686  36.988  24.482   1.223
 9872W        W79687  30.655   8.286   2.828
 9873W        W79688  30.119  26.123   1.441
 9874W        W79689  28.437  29.544   0.853
 9875W        W79690   4.355  10.831  12.404
 9876W        W79691   9.684  27.162   2.834
 9877W        W79692  21.514  33.502   3.658
 9878W        W79693   8.295   9.335  10.961
 9879W        W79694   3.289   0.373  13.936
 9880W        W79695  12.301  43.915  13.308
 9881W        W79696  39.434   8.710   1.302
 9882W        W79697  26.691   2.749  14.495
 9883W        W79698  36.434  16.171  13.958
 9884W        W79699  16.176   6.836   3.347
 9885W        W79700  21.548  41.480  10.561
 9886W        W79701  17.687   7.197  13.380
 9887W        W79702   9.156  28.459   1.811
 9888W        W79703  15.789  38.538  14.938
 9889W        W79704  41.348  22.206   3.363
 9890W        W79705  41.798   5.848   2.899
 9891W        W79706   4.844  27.058  14.985
 9892W        W79707  22.733   3.839   1.923
 9893W        W79708  30.514   8.766   2.260
 9894W        W79709  24.140   1.337  12.530
 9895W        W79710  12.268  34.434   1.393
 9896W        W79711  32.531  31.907   0.444
 9897W        W79712  35.921   7.221   1.297
 9898W        W79713  19.118  43.788  10.994
 9899W        W79714   8.817   0.791  11.465
 9900W        W79715  40.012  20.091   0.751
 9901W        W79716   5.366  16.711  14.501
 9902W        W79717  39.006  18.680  10.965
 9903W        W79718   1.355  20.652   4.771
 9904W        W79719  14.114   4.850  11.532
 9905W        W79720  41.042   3.835  11.032
 9906W        W79721  40.846  42.804  10.417
 9907W        W79722   7.824  21.220  14.936
 9908W        W79723   2.933  25.032  11.380
 9909W        W79724  32.102  10.786  10.602
 9910W        W79725  10.712   4.389  13.368
 9911W        W79726  18.159  35.585  10.905
 9912W        W79727  12.811  14.177  11.955
 9913W        W79728  21.692  34.602  14.993
 9914W        W79729  34.899  35.527   0.861
 9915W        W79730  41.427  14.293  14.411
 9916W        W79731   1.889   1.875  12.438
 9917W        W79732   7.817  11.331  10.918
 9918W        W79733   7.341  36.579  13.999
 9919W        W79734   1.369  17.089  12.029
 9920W        W79735   6.752  16.122  13.892
 9921W        W79736  22.234   0.288   3.276
 9922W        W79737   8.388  14.638  10.956
 9923W        W79738  40.960  11.322   0.378
 9924W        W79739  10.662   9.347   2.785
 9925W        W79740   7.184  23.671  10.433
 9926W        W79741  10.277  11.244  13.399
 9927W        W79742  19.208  39.443   1.717
 9928W        W79743  15.632  38.413   3.282
 9929W        W79744  33.570  40.441   0.344
 9930W        W79745  38.844   6.891  12.921
 9931W        W79746  25.580  39.519   3.807
 9932W        W79747  16.617   2.949   0.919
 9933W        W79748  43.768   6.394   1.886
 9934W        W79749  33.079  30.644   3.806
 9935W        W79750  42.493   1.379   2.380
 9936W        W79751   1.372  21.141   3.704
 9937W        W79752   4.794   2.456   3.170
 9938W        W79753  33.564  26.598  12.565
 9939W        W79754  16.619  39.048  13.409
 9940W        W79755  16.203  23.046  12.345
 9941W        W79756  38.831  11.649   5.192
 9942W        W79757  21.218  17.575  11.504
 9943W        W79758   1.477   9.855   4.122
 9944W        W79759  42.982   5.344  10.625
 9945W        W79760   9.166  19.040  11.586
 9946W        W79761  41.867  28.614   2.697
 9947W        W79762  21.063  43.804   2.819
 9948W        W79763  18.627   8.329   1.695
 9949W        W79764  17.224  26.514   4.814
 9950W        W79765  22.501  37.949  14.917
 9951W        W79766  44.891   8.757   1.397
 9952W        W79767  32.889  29.609   2.318
 9953W        W79768  27.638  34.083  11.451
 9954W        W79769  20.595  39.555  10.896
 9955W        W79770   3.398   0.970   1.321
 9956W        W79771   9.237  14.634  13.875
 9957W        W79772  10.841  14.615  14.765
 9958W        W79773  29.613   3.298  12.426
 9959W        W79774  16.219  33.038   3.293
 9960W        W79775  21.715  39.974   0.447
 9961W        W79776  33.480  19.628  13.514
 9962W        W79777  11.262  20.660  14.490
 9963W        W79778   3.412  30.536   4.688
 9964W        W79779  41.036  38.036   0.903
 9965W        W79780   0.457  17.168  11.405
 9966W        W79781  23.031  12.217  13.907
 9967W        W79782  25.056  18.146   3.642
 9968W        W79783   6.761  33.064  13.981
 9969W        W79784  12.843  41.448   2.729
 9970W        W79785  41.843   9.856   3.257
 9971W        W79786   3.435  20.684  14.320
 9972W        W79787  29.943  28.512  13.993
 9973W        W79788  44.372  13.232  11.464
 9974W        W79789  23.086  16.703   9.959
 9975W        W79790  27.169   4.787  14.832
 9976W        W79791  10.284  30.140   2.313
 9977W        W79792  24.045  19.538  12.837
 9978W        W79793  11.859  33.116  12.002
 9979W        W79794  15.095   2.883   2.284
 9980W        W79795  43.498  22.714  13.394
 9981W        W79796  35.534  42.314   0.271
 9982W        W79797   5.307   5.915  14.335
 9983W        W79798  39.025  25.093   2.357
 9984W        W79799  36.096  20.063   0.840
 9985W        W79800  25.547   5.784  12.387
 9986W        W79801   1.922  25.151   3.744
 9987W        W79802  41.313  20.649   3.279
 9988W        W79803  30.539  38.938   1.401
 9989W        W79804  27.034   8.752   2.787
 9990W        W79805  11.706  22.189  14.865
 9991W        W79806  37.394   1.873  14.760
 9992W        W79807  16.768   8.678   1.244
 9993W        W79808   7.229  36.365  14.476
 9994W        W79809  37.475  13.206   1.220
 9995W        W79810   5.820  43.896  14.927
 9996W        W79811  43.501  18.194  11.965
 9997W        W79812  14.781  16.120  12.014
 9998W        W79813  16.753  41.533   4.731
 9999W        W79814  27.596  20.656  14.284
10000W        W79815  27.041   0.930   0.458
10001W        W79816  28.106  24.215   1.414
10002W        W79817  12.639   7.785   3.819
10003W        W79818  27.635  27.665   2.386
10004W        W79819  15.289  36.915  10.579
10005W        W79820   1.412  23.076  11.582
10006W        W79821   1.861  40.947   3.276
10007W        W79822  10.863  11.277  14.799
10008W        W79823  13.285  18.292  12.452
10009W        W79824  44.438  16.170   3.738
10010W        W79825   7.332  14.805  13.479
10011W        W79826   8.347   2.242   3.254
10012W        W79827  11.740   5.737  10.522
10013W        W79828  43.365   5.428  10.525
10014W        W79829  33.563  36.418   2.889
10015W        W79830  18.090  12.766  11.908
10016W        W79831   8.724  15.793  14.935
10017W        W79832  20.081  16.270   0.778
10018W        W79833  29.162  36.920  12.577
10019W        W79834  25.982   2.424  11.999
10020W        W79835   4.320  28.509   2.330
10021W        W79836  41.906  32.500   2.339
10022W        W79837  17.169  11.353   2.865
10023W        W79838  33.122  43.781  10.548
10024W        W79839   7.806   6.847  10.597
10025W        W79840  14.776  11.312  13.318
10026W        W79841  26.047   8.886   0.933
10027W        W79842  29.108  11.157   1.230
10028W        W79843   1.886  41.348  13.848
10029W        W79844   0.399  19.561  12.842
10030W        W79845  36.864  14.292   4.307
10031W        W79846  36.043  30.955   0.756
10032W        W79847   8.296  36.049   0.316
10033W        W79848  19.730  42.833   3.824
10034W        W79849  12.850  12.747   2.696
10035W        W79850  17.745  38.351   4.194
10036W        W79851   3.315  30.503  12.387
10037W        W79852  18.055  18.664  13.861
10038W        W79853  40.031  31.068  11.896
10039W        W79854  31.123  23.202  14.318
10040W        W79855  12.294  15.123  14.777
10041W        W79856  15.217  25.096  14.909
10042W        W79857  24.083  36.884   3.287
10043W        W79858  10.656  20.253   3.681
10044W        W79859  34.428  22.682  12.047
10045W        W79860   3.254   6.221   1.784
10046W        W79861   2.743  16.675   4.122
10047W        W79862  39.858  20.114   1.270
10048W        W79863   8.356  41.438  12.462
10049W        W79864  22.047   1.751  14.771
10050W        W79865   1.386   6.834   1.731
10051W        W79866  31.498   0.359  13.373
10052W        W79867  15.289  31.113   3.351
10053W        W79868  24.525  35.581  12.381
10054W        W79869  44.389  12.264   2.718
10055W        W79870  40.000  36.040   2.309
10056W        W79871  28.143  30.135   3.237
10057W        W79872  10.245  18.228   1.339
10058W        W79873  18.560  15.697   0.425
10059W        W79874  10.265  17.117  14.777
10060W        W79875   1.933  35.965   2.354
10061W        W79876  17.300  22.121  12.571
10062W        W79877   1.392  41.452  11.937
10063W        W79878  37.420  12.749  14.410
10064W        W79879  36.481   7.311  14.345
10065W        W79880   6.194  44.375   0.870
10066W        W79881   2.724  14.675  14.367
10067W        W79882  40.881  16.603   4.116
10068W        W79883  27.680  32.460   3.701
10069W        W79884   9.183  25.632   3.290
10070W        W79885  15.638  28.680  13.440
10071W        W79886  29.590  33.411   3.362
10072W        W79887  44.755  41.829  12.531
10073W        W79888   6.905   6.254  14.283
10074W        W79889  15.304  41.451  13.339
10075W        W79890  23.103  16.151   4.329
10076W        W79891  17.774   9.221  11.543
10077W        W79892  19.586  22.039  12.825
10078W        W79893   6.908   1.912  12.528
10079W        W79894  24.068  20.530  13.358
10080W        W79895   9.647   9.211  11.491
10081W        W79896  27.675  18.621  14.843
10082W        W79897  24.711   6.730   1.249
10083W        W79898  10.759  17.172  12.870
10084W        W79899  21.613  16.696  13.912
10085W        W79900  18.598  42.429  12.421
10086W        W79901  25.624  44.434   0.368
10087W        W79902   6.417  28.175  10.152
10088W        W79903  35.074  40.458  11.988
10089W        W79904   4.340  24.501  11.871
10090W        W79905  23.021  43.277  11.018
10091W        W79906  15.259  42.436  13.990
10092W        W79907  36.449  33.454  12.555
10093W        W79908  23.130  15.689   3.830
10094W        W79909  30.570  40.936   1.255
10095W        W79910  31.604  40.543  11.069
10096W        W79911  30.010  43.857  14.360
10097W        W79912  42.835   6.900  14.309
10098W        W79913  15.131  38.825   1.348
10099W        W79914  35.538   9.800   3.650
10100W        W79915   9.805  13.760   1.276
10101W        W79916  35.396  39.331  12.387
10102W        W79917  18.243   1.402  11.075
10103W        W79918   9.237  14.623   3.207
10104W        W79919  33.453  14.816   0.420
10105W        W79920  16.790  42.800   2.276
10106W        W79921  31.435  13.781  14.442
10107W        W79922  40.333   5.807  13.848
10108W        W79923  12.260  21.178   4.157
10109W        W79924  18.647  35.904  12.535
10110W        W79925  27.478  30.139   1.287
10111W        W79926  36.585  39.005  13.468
10112W        W79927  21.700  12.308  11.006
10113W        W79928  19.196  40.983   1.733
10114W        W79929  25.490  20.156   4.833
10115W        W79930  40.845   1.285   0.301
10116W        W79931  12.209  43.800   3.666
10117W        W79932  34.440  31.454   1.776
10118W        W79933  36.484  38.912   4.350
10119W        W79934  20.136   9.689   3.173
10120W        W79935  12.267  30.081  14.378
10121W        W79936  10.730  31.496   0.302
10122W        W79937  36.552   3.751   0.801
10123W        W79938  40.525  34.897  10.095
10124W        W79939  11.215  43.349  13.975
10125W        W79940   9.643  44.398  13.415
10126W        W79941  43.361   9.292   4.758
10127W        W79942  40.950  40.487   2.704
10128W        W79943  24.185   9.315  11.859
10129W        W79944   5.372   9.855   3.213
10130W        W79945   7.228  17.248   4.671
10131W        W79946  11.690  15.195   4.130
10132W        W79947  34.598   9.358   2.723
10133W        W79948  21.088   3.305   1.285
10134W        W79949  31.988  42.478  12.865
10135W        W79950  21.129  24.524  10.965
10136W        W79951   3.375  30.969  10.604
10137W        W79952  27.637  34.100   2.363
10138W        W79953  24.499  27.093  10.417
10139W        W79954   9.162  28.985  10.609
10140W        W79955  38.464  13.806   0.753
10141W        W79956  24.674  36.555   2.886
10142W        W79957  26.067  31.434  13.546
10143W        W79958  31.644  35.507   3.276
10144W        W79959  17.286  18.768   2.740
10145W        W79960  38.935  29.965  14.961
10146W        W79961   2.300   7.750  14.993
10147W        W79962  15.124  35.959  12.910
10148W        W79963   1.888  22.084  11.994
10149W        W79964  36.482  44.349   1.429
10150W        W79965  10.837  21.231  14.470
10151W        W79966  11.866  25.216   1.323
10152W        W79967   8.735   0.947  12.567
10153W        W79968   7.194   3.301  10.959
10154W        W79969   0.908   2.797  12.415
10155W        W79970  23.990   0.823  11.565
10156W        W79971  29.662  12.178   0.296
10157W        W79972   2.451  37.402  14.765
10158W        W79973   1.462  18.697   0.892
10159W        W79974  44.994  32.898  10.936
10160W        W79975  24.056  35.361   4.219
10161W        W79976  44.894  15.794   2.192
10162W        W79977  40.054   0.459  11.542
10163W        W79978  24.143   2.261   0.944
10164W        W79979  27.010   5.717  14.422
10165W        W79980  35.523  31.638  10.095
10166W        W79981  10.287  40.992  12.399
10167W        W79982  25.194  34.429  10.559
10168W        W79983   7.725  11.145   4.639
10169W        W79984  41.515  12.340   0.791
10170W        W79985  44.334  28.593  12.074
10171W        W79986  34.930  31.928   4.115
10172W        W79987  35.060   0.858  10.551
10173W        W79988   0.833   3.756  13.935
10174W        W79989  31.518  40.951   0.432
10175W        W79990  10.819  12.290  12.840
10176W        W79991   9.753  32.558   4.675
10177W        W79992  35.875  12.645  14.383
10178W        W79993  24.696  32.501  12.478
10179W        W79994  31.053  33.991  13.855
10180W        W79995   6.199  15.668  10.625
10181W        W79996  11.840  19.193  14.963
10182W        W79997  30.447   3.299  10.548
10183W        W79998  18.283  12.773   4.226
10184W        W79999  41.993  38.368   0.841
10185W        W80000  31.010  44.502  10.553
10186W        W80001  33.420  13.248   0.731
10187W        W80002  29.587  21.514  10.588
10188W        W80003  43.455  30.524  11.894
10189W        W80004   1.775  21.209   1.707
10190W        W80005   5.305  40.936   3.700
10191W        W80006  30.442   6.746   4.609
10192W        W80007  35.864   7.751  10.986
10193W        W80008  29.609  22.074   2.341
10194W        W80009  17.731  12.732   1.367
10195W        W80010  38.423  13.684   2.759
10196W        W80011  10.787  38.021   0.433
10197W        W80012  26.508  13.839   1.888
10198W        W80013  29.147   2.367   1.848
10199W        W80014  25.628  17.106  10.511
10200W        W80015  20.262   6.239   1.874
10201W        W80016  13.252  21.533  13.814
10202W        W80017   5.257   9.242  13.004
10203W        W80018   4.354  13.318  13.445
10204W        W80019  33.028  33.611  14.891
10205W        W80020  31.608  17.306   0.455
10206W        W80021  31.468  19.059   4.697
10207W        W80022  27.075   0.989   1.433
10208W        W80023  18.717  33.076   0.758
10209W        W80024   8.375  38.383   4.763
10210W        W80025  17.238  37.059   1.250
10211W        W80026   5.819  35.460  12.832
10212W        W80027   8.844   9.299   3.864
10213W        W80028  13.105  26.566   4.725
10214W        W80029   9.376  25.597   2.790
10215W        W80030   7.840   3.311  11.030
10216W        W80031  35.895  36.039   4.266
10217W        W80032   4.726  10.174   4.296
10218W        W80033  16.740  23.079   0.274
10219W        W80034  36.893  26.676   3.343
10220W        W80035  10.320  23.537  14.495
10221W        W80036  17.569  44.458   0.275
10222W        W80037  41.807  30.635   0.736
10223W        W80038   3.809  21.042  12.938
10224W        W80039  37.989  15.774  14.311
10225W        W80040   2.742  26.016  14.966
10226W        W80041  43.951   9.172   0.730
10227W        W80042  37.843   6.188  12.486
10228W        W80043  27.613  33.959   3.150
10229W        W80044  39.902  38.497   1.723
10230W        W80045  33.603  19.207  12.837
10231W        W80046  42.376  18.617   3.294
10232W        W80047  43.896  40.828   0.313
10233W        W80048  13.116  36.870   4.720
10234W        W80049   5.737  18.079  14.867
10235W        W80050  21.110  33.429  14.310
10236W        W80051   5.323  34.997   4.768
10237W        W80052  37.870   7.836   1.241
10238W        W80053  42.302  33.091  11.381
10239W        W80054  17.305  14.182   4.816
10240W        W80055  15.207  11.300   0.754
10241W        W80056  38.984  18.567  10.443
10242W        W80057  11.251  11.776   1.901
10243W        W80058   5.820  15.121   0.836
10244W        W80059   6.755  17.189   1.379
10245W        W80060  16.221  23.498   5.155
10246W        W80061  32.444  38.468   2.662
10247W        W80062  35.051  34.014   5.266
10248W        W80063   5.230   7.179  11.503
10249W        W80064  19.749   9.851  13.411
10250W        W80065  20.095  37.063  11.563
10251W        W80066  21.161  40.326  13.898
10252W        W80067   6.744  18.096  11.071
10253W        W80068  36.095   5.388   3.285
10254W        W80069  13.129  12.714   5.210
10255W        W80070  38.523  24.206   3.244
10256W        W80071  38.414   5.834   4.271
10257W        W80072  44.340  30.514   2.317
10258W        W80073  25.529  44.942   3.188
10259W        W80074  38.999   9.659  11.419
10260W        W80075  20.675  42.413   0.409
10261W        W80076  20.158  12.686   1.245
10262W        W80077  39.931  29.122   4.141
10263W        W80078   4.298  36.437  12.506
10264W        W80079  13.277   8.664   4.691
10265W        W80080  40.443  44.378   0.317
10266W        W80081  14.201  25.685   1.321
10267W        W80082  31.974  35.508  14.887
10268W        W80083  12.323  24.592   4.198
10269W        W80084   4.780   2.365   4.294
10270W        W80085  39.881  15.793  13.910
10271W        W80086  17.246  26.498  12.499
10272W        W80087  41.922  26.618  11.879
10273W        W80088  14.732  37.471  13.415
10274W        W80089  21.590  40.001   3.338
10275W        W80090   6.740  21.204   2.817
10276W        W80091  43.859  15.686   3.276
10277W        W80092  42.519  20.572   3.231
10278W        W80093  31.108  35.548   2.777
10279W        W80094  38.446  32.952  11.110
10280W        W80095   3.384  38.571  10.594
10281W        W80096  35.370  24.983  11.074
10282W        W80097  18.558  15.088  12.487
10283W        W80098   7.725   4.722  11.563
10284W        W80099  23.657  21.755  12.024
10285W        W80100   7.861  36.573   0.794
10286W        W80101  44.371  31.897  12.474
10287W        W80102  16.590  16.613   4.682
10288W        W80103  21.205   4.933   5.220
10289W        W80104  25.024   4.403  12.843
10290W        W80105   7.886  34.007   2.284
10291W        W80106  14.820  28.960  10.419
10292W        W80107  35.471  40.385  14.433
10293W        W80108   3.403  39.452   0.320
10294W        W80109  10.669   5.741   4.199
10295W        W80110  30.419  37.902  14.933
10296W        W80111   3.917  25.147  13.446
10297W        W80112  26.546  34.050   3.629
10298W        W80113  11.251  24.542   0.256
10299W        W80114  31.014  18.583  14.999
10300W        W80115  37.483  11.779   4.818
10301W        W80116  29.095  34.891   1.243
10302W        W80117  11.758  32.622   1.299
10303W        W80118  37.853  24.566   1.375
10304W        W80119   0.777  28.453  10.458
10305W        W80120  41.024  32.598   1.792
10306W        W80121  24.714  23.638  13.311
10307W        W80122   0.372  33.063   0.788
10308W        W80123  34.010  25.667   0.865
10309W        W80124   8.353  33.978  12.490
10310W        W80125  12.802  33.089  11.987
10311W        W80126  31.568  39.997   0.385
10312W        W80127  36.577  40.329   0.948
10313W        W80128  33.622   0.938  12.552
10314W        W80129  33.486  16.277  14.993
10315W        W80130  41.996  32.530   0.427
10316W        W80131  31.474  43.398  13.419
10317W        W80132  34.001   9.287  14.406
10318W        W80133  33.441  17.703  12.076
10319W        W80134   9.202  27.634   4.205
10320W        W80135  25.208  27.020   1.388
10321W        W80136  35.934  33.118   1.417
10322W        W80137  38.487   0.891   0.942
10323W        W80138  38.924  27.647  14.832
10324W        W80139  43.832  15.615   2.344
10325W        W80140  26.509  30.110  11.895
10326W        W80141  35.484  32.526  11.870
10327W        W80142  33.491  39.351   4.663
10328W        W80143  19.662  40.400  12.079
10329W        W80144   0.394  34.415  12.937
10330W        W80145   3.338  19.577   1.933
10331W        W80146  28.489  12.270  12.391
10332W        W80147  23.125  28.486  11.534
10333W        W80148  15.102  39.454   4.683
10334W        W80149  31.550  33.479  13.504
10335W        W80150  12.843  37.476   1.723
10336W        W80151  28.511  22.612   4.147
10337W        W80152  37.528  36.590   4.126
10338W        W80153  29.450  11.133  14.854
10339W        W80154   3.272   7.172   4.277
10340W        W80155  29.128  22.011  10.989
10341W        W80156  33.492   2.761   3.281
10342W        W80157  38.921   2.746   0.253
10343W        W80158  17.793  10.238  11.489
10344W        W80159  11.237   4.824  11.116
10345W        W80160   4.407  42.465   2.749
10346W        W80161  25.155  32.602  14.327
10347W        W80162  20.143   7.316  13.813
10348W        W80163  32.631   1.419   3.768
10349W        W80164  34.889  42.299   4.680
10350W        W80165  22.108  42.954   3.707
10351W        W80166  28.160  34.076   4.210
10352W        W80167  30.153  14.141   1.825
10353W        W80168   8.875  44.275   3.157
10354W        W80169  42.882  37.462  10.157
10355W        W80170  41.832  12.700  11.482
10356W        W80171  28.942  33.892   2.343
10357W        W80172  32.963  11.206   4.761
10358W        W80173  44.377  13.152  13.856
10359W        W80174  14.094  35.416  14.850
10360W        W80175  19.128   0.445   3.354
10361W        W80176  18.695  24.650   1.774
10362W        W80177  41.002  36.394  14.395
10363W        W80178   5.915  15.113  12.089
10364W        W80179  14.286  12.698  11.124
10365W        W80180  29.535   5.224   3.665
10366W        W80181  25.094   6.871  11.937
10367W        W80182  28.467   0.443   3.201
10368W        W80183  26.684  13.308   1.232
10369W        W80184   0.474  23.113  10.981
10370W        W80185  23.177  16.698  13.525
10371W        W80186  18.089  42.007  14.947
10372W        W80187  44.488   2.460   1.736
10373W        W80188  17.683   2.731  10.434
10374W        W80189  19.142  27.150  12.492
10375W        W80190   6.688  34.945  11.453
10376W        W80191  34.396   8.364  10.931
10377W        W80192  32.123  13.142  12.899
10378W        W80193  25.116  25.101  12.438
10379W        W80194  43.323  20.649   0.873
10380W        W80195  16.276  11.222   0.412
10381W        W80196  37.582  24.221  14.430
10382W        W80197  38.033  41.317   4.646
10383W        W80198  27.576  11.722  14.002
10384W        W80199   3.369  25.658   0.371
10385W        W80200  23.121  35.479  11.969
10386W        W80201  10.819  29.163   4.656
10387W        W80202  37.933  14.780   0.327
10388W        W80203   6.784  26.951   0.885
10389W        W80204  23.102  12.837  11.000
10390W        W80205  34.539  34.547  12.366
10391W        W80206  35.020  12.687  11.066
10392W        W80207  38.548  39.066  10.604
10393W        W80208  37.395  16.736  12.473
10394W        W80209  42.339  25.570   2.405
10395W        W80210  19.632  13.776  11.952
10396W        W80211  17.297  13.183   0.373
10397W        W80212  16.258  12.167   3.825
10398W        W80213  38.387  40.804  12.854
10399W        W80214  44.494  23.106   0.248
10400W        W80215   6.892  39.474  12.923
10401W        W80216  30.423   8.222   0.902
10402W        W80217  24.123  26.492  14.022
10403W        W80218  42.835   7.897  13.474
10404W        W80219  12.264  31.408  14.303
10405W        W80220  31.025   9.292   4.798
10406W        W80221  35.517  36.938   3.680
10407W        W80222  20.579  43.010  11.547
10408W        W80223  11.234  10.333   2.272
10409W        W80224   5.214  26.983   3.323
10410W        W80225  27.947  31.104   4.284
10411W        W80226  20.672   5.339  11.582
10412W        W80227  43.463  29.021  12.019
10413W        W80228   4.833  31.403   4.330
10414W        W80229  34.898  17.233   4.225
10415W        W80230  15.579   8.789   1.366
10416W        W80231  24.112   7.851   5.127
10417W        W80232  28.027  30.913   3.842
10418W        W80233  10.738  23.675  14.814
10419W        W80234  11.214  44.476  14.443
10420W        W80235  12.354  24.501   1.316
10421W        W80236  15.131  15.774   3.375
10422W        W80237  16.594  40.988   4.655
10423W        W80238   2.894  15.685   3.696
10424W        W80239  10.336   4.871  12.888
10425W        W80240  17.787  26.542   9.990
10426W        W80241  25.643  44.761   0.372
10427W        W80242  24.703  26.681  13.816
10428W        W80243  13.140  33.543   2.790
10429W        W80244  15.783  22.533   0.873
10430W        W80245  25.506  40.992  14.513
10431W        W80246   4.361  20.576   2.307
10432W        W80247  36.352   8.277  14.471
10433W        W80248  27.995  12.707  11.097
10434W        W80249  20.757  22.714   4.755
10435W        W80250  26.587   8.760   1.356
10436W        W80251   9.649   0.980   0.965
10437W        W80252  30.052   8.661  13.533
10438W        W80253  24.617  22.037  12.827
10439W        W80254  41.528  36.918   1.910
10440W        W80255  42.341  23.027   0.951
10441W        W80256  31.028  17.180  10.896
10442W        W80257  20.223   4.943   2.179
10443W        W80258  25.494  33.963  11.066
10444W        W80259   9.758   5.369   3.175
10445W        W80260   1.369  15.624   0.268
10446W        W80261  34.381  16.577  11.607
10447W        W80262  40.867  38.024   4.175
10448W        W80263  24.110   9.256   4.279
10449W        W80264   9.355  26.543   0.476
10450W        W80265  11.797  13.256   3.155
10451W        W80266   4.751  31.539   4.632
10452W        W80267  37.553  11.748   0.963
10453W        W80268  24.621  37.084  11.588
10454W        W80269   3.715  10.297  12.574
10455W        W80270  10.799  32.517  11.457
10456W        W80271   7.772   6.355  12.924
10457W        W80272  26.998  18.612   4.822
10458W        W80273  39.458  40.031  13.929
10459W        W80274  27.144  32.631  10.940
10460W        W80275  37.067  41.502   3.364
10461W        W80276   7.217  11.815  12.381
10462W        W80277  26.478   1.242  11.922
10463W        W80278  42.847  40.342  11.576
10464W        W80279  39.022   8.291  14.384
10465W        W80280   7.755  20.149   4.641
10466W        W80281  11.329  16.783  10.910
10467W        W80282   5.328   6.259   0.804
10468W        W80283  15.632   7.743   1.444
10469W        W80284   2.397  14.590   2.709
10470W        W80285   2.946   9.721   2.741
10471W        W80286  44.821  29.537   2.784
10472W        W80287  15.758  26.160   1.700
10473W        W80288   1.842  14.232   0.961
10474W        W80289  10.814  34.555   0.886
10475W        W80290  38.458  19.279  12.414
10476W        W80291  41.447  34.081  14.881
10477W        W80292   6.184  15.711  14.308
10478W        W80293   6.854  33.946  11.114
10479W        W80294  12.772  13.716   0.429
10480W        W80295   6.185  43.321  14.969
10481W        W80296   7.771  13.633  13.328
10482W        W80297  13.660   5.326  14.880
10483W        W80298  21.732  39.398   0.467
10484W        W80299  39.007  20.143  13.313
10485W        W80300  11.306  15.276  14.371
10486W        W80301  34.977  39.482   3.680
10487W        W80302  14.212  20.631   4.739
10488W        W80303  27.503  10.641   1.450
10489W        W80304  32.000   3.230  13.931
10490W        W80305  14.611  26.652   0.324
10491W        W80306  13.132  35.374  14.452
10492W        W80307  32.467  24.555  12.915
10493W        W80308  12.170  17.228   1.899
10494W        W80309  13.808  24.622   0.761
10495W        W80310  22.161  43.292   0.810
10496W        W80311  10.213  38.901  12.396
10497W        W80312   4.873  12.147  10.436
10498W        W80313  39.427  38.860   0.777
10499W        W80314  42.007  42.442  12.953
10500W        W80315   2.274  10.182   4.810
10501W        W80316  27.642  22.695   2.736
10502W        W80317  27.126  19.178  10.951
10503W        W80318  13.663   3.249   1.819
10504W        W80319  35.902  14.758  11.051
10505W        W80320  43.965  43.921   1.710
10506W        W80321  31.899  15.188   4.171
10507W        W80322  30.960  35.470   2.242
10508W        W80323  17.210  41.999   1.793
10509W        W80324  28.534  14.116   2.876
10510W        W80325  34.561  19.065  12.950
10511W        W80326   0.277   9.778  10.480
10512W        W80327  18.200  13.233  10.906
10513W        W80328  27.682  16.694   2.725
10514W        W80329  27.535  19.128  13.333
10515W        W80330  17.679  43.455  12.878
10516W        W80331  43.491  41.445  13.992
10517W        W80332   2.876  22.995   3.234
10518W        W80333  26.014   9.799  11.922
10519W        W80334  39.844  37.434  13.904
10520W        W80335  33.098  30.593  14.354
10521W        W80336   2.249   3.729   2.199
10522W        W80337  43.337  25.996   4.598
10523W        W80338  23.564  33.058  10.438
10524W        W80339   7.191  40.441  14.786
10525W        W80340  38.936  37.880  10.449
10526W        W80341  41.473   5.243  11.523
10527W        W80342  43.916  43.365  12.978
10528W        W80343  39.009  30.524   1.408
10529W        W80344  27.947  21.601   4.165
10530W        W80345  10.637  24.681   0.857
10531W        W80346  37.856  19.706  13.983
10532W        W80347  13.143  19.628   0.308
10533W        W80348   5.288   0.871   3.221
10534W        W80349  18.199  32.398   1.430
10535W        W80350  44.791  24.707   0.843
10536W        W80351  25.021  27.086   0.881
10537W        W80352  15.177  34.517  10.575
10538W        W80353  34.589  39.814   2.263
10539W        W80354  14.612  41.818  11.941
10540W        W80355  20.537  14.760  10.624
10541W        W80356  25.136  10.732   2.737
10542W        W80357  26.140  12.169   0.814
10543W        W80358  37.084  26.596  11.603
10544W        W80359   6.252   3.437   4.832
10545W        W80360   0.256  41.349  11.124
10546W        W80361  16.269  37.863   3.719
10547W        W80362   9.302  15.695   3.722
10548W        W80363   7.362  36.979   2.674
10549W        W80364   7.740  37.483  11.864
10550W        W80365  17.575  13.109  13.061
10551W        W80366  41.936  11.647  11.523
10552W        W80367   0.394  23.148   3.249
10553W        W80368  21.182  25.127  12.038
10554W        W80369  11.855  19.073   3.632
10555W        W80370  43.873  42.014   0.929
10556W        W80371  15.583  15.701  12.971
10557W        W80372  18.717  24.033   2.781
10558W        W80373  22.041  27.643   4.678
10559W        W80374  41.441  38.989   1.756
10560W        W80375  40.819  27.624  12.941
10561W        W80376  22.525  18.172  11.522
10562W        W80377  23.705  39.368   3.285
10563W        W80378  21.096   6.391  13.495
10564W        W80379  33.597  14.108   2.304
10565W        W80380  26.090   4.406   4.603
10566W        W80381  36.525   9.841   1.915
10567W        W80382  15.286  17.639  10.483
10568W        W80383  35.969  10.300  12.994
10569W        W80384   3.266  39.392   2.677
10570W        W80385  19.735   7.904   1.821
10571W        W80386  11.686  11.763  10.630
10572W        W80387  24.611  33.537  11.454
10573W        W80388   0.332  25.664  11.591
10574W        W80389  38.456  10.794  10.529
10575W        W80390   9.777  11.301  11.118
10576W        W80391  11.360  39.824  10.464
10577W        W80392   6.281   7.184   0.897
10578W        W80393  42.003  32.959  14.278
10579W        W80394  41.353  32.930  10.930
10580W        W80395  31.968   9.172   2.206
10581W        W80396  30.071  10.190  13.485
10582W        W80397   7.189  18.210  14.377
10583W        W80398  18.628  12.264  14.396
10584W        W80399   5.257  19.197  10.425
10585W        W80400  43.454   7.906  12.960
10586W        W80401  30.561  14.237   1.933
10587W        W80402  18.548   7.392   5.309
10588W        W80403  26.020  12.229   2.664
10589W        W80404  30.632  32.467  14.423
10590W        W80405  15.658  27.152  14.435
10591W        W80406   2.387   0.457  14.956
10592W        W80407  40.304  15.704  13.023
10593W        W80408  31.487  18.248   1.273
10594W        W80409   1.312  37.862  14.793
10595W        W80410  18.704  21.117  13.799
10596W        W80411  37.491  35.416  10.504
10597W        W80412   8.805  27.663  12.049
10598W        W80413  23.586  11.283  11.016
10599W        W80414  33.385   9.306   0.763
10600W        W80415  22.514   4.808  14.926
10601W        W80416   6.282  12.646  13.326
10602W        W80417  27.600  10.186   1.864
10603W        W80418  36.099  25.085  11.925
10604W        W80419  38.442  23.521   1.271
10605W        W80420  22.584   6.248  13.916
10606W        W80421  20.147  16.204   2.847
10607W        W80422  33.437  39.038  11.923
10608W        W80423  11.775  27.155  12.922
10609W        W80424   9.814   0.402  13.400
10610W        W80425  37.369   2.732   4.700
10611W        W80426  32.502  26.982   2.400
10612W        W80427  13.172  17.064   9.957
10613W        W80428   3.900  43.406   3.309
10614W        W80429  30.603  36.558   4.789
10615W        W80430   9.381  16.729  11.391
10616W        W80431  22.696  30.571  13.352
10617W        W80432   0.424  22.746   4.716
10618W        W80433  25.559  44.340   2.814
10619W        W80434  36.374  31.482  14.332
10620W        W80435  39.858  33.120   0.839
10621W        W80436  18.622  17.707   1.283
10622W        W80437  11.165  18.680  10.617
10623W        W80438  13.248  30.936  10.488
10624W        W80439  17.256  13.322  11.486
10625W        W80440  22.592  17.218   3.357
10626W        W80441  19.227  23.019   3.765
10627W        W80442  15.297  34.007  10.919
10628W        W80443   6.775  36.845  10.520
10629W        W80444  13.255  26.110   0.840
10630W        W80445  19.202  29.929   3.677
10631W        W80446  22.577  38.525   3.156
10632W        W80447  39.906   3.254   1.345
10633W        W80448  21.173  15.293   2.721
10634W        W80449  32.539  36.878  13.913
10635W        W80450  20.642   4.921  10.964
10636W        W80451   5.844  34.430  12.984
10637W        W80452  23.082  14.132  14.403
10638W        W80453  17.067  16.625  12.069
10639W        W80454  11.368  12.270   4.202
10640W        W80455  19.576   6.849   1.242
10641W        W80456   0.936  40.423  12.934
10642W        W80457  13.218  14.633   3.642
10643W        W80458  37.062  10.166  10.912
10644W        W80459  31.023  27.465  12.883
10645W        W80460  33.523  10.688  12.849
10646W        W80461  12.747  22.169   0.333
10647W        W80462   4.702  34.523  13.904
10648W        W80463   1.338   8.336   1.813
10649W        W80464  32.961  14.687  13.416
10650W        W80465   6.774  38.515   2.276
10651W        W80466  42.464   9.677   0.917
10652W        W80467  31.540  26.546  14.365
10653W        W80468  20.146  24.175   4.751
10654W        W80469  13.751   8.242  11.917
10655W        W80470   4.933   3.768  12.990
10656W        W80471  44.838  31.537  13.901
10657W        W80472   9.321  10.359  11.950
10658W        W80473  20.051  26.643  12.950
10659W        W80474  16.162  16.260   1.848
10660W        W80475  36.083  19.653   2.715
10661W        W80476  31.033   7.257  12.512
10662W        W80477  23.682  28.610   1.297
10663W        W80478  16.682  30.139   3.349
10664W        W80479  10.211   6.304  12.554
10665W        W80480   8.704   3.921  11.043
10666W        W80481  30.533  23.054  11.396
10667W        W80482  31.571  38.344  10.979
10668W        W80483  28.006  44.502   0.727
10669W        W80484  27.487  42.821   0.853
10670W        W80485  26.590  43.014   3.639
10671W        W80486  12.831  11.847  14.390
10672W        W80487  24.059  11.334   0.417
10673W        W80488   6.749  10.337   1.848
10674W        W80489   9.320  11.141   3.762
10675W        W80490  23.716  25.040   2.312
10676W        W80491   0.958  22.520  10.422
10677W        W80492  42.894  33.016  12.444
10678W        W80493   7.842  40.975  11.415
10679W        W80494  26.969  30.605  14.900
10680W        W80495  15.138  25.073   3.665
10681W        W80496  14.686  31.556   1.920
10682W        W80497  21.695  10.322  14.867
10683W        W80498  15.800  20.543   9.978
10684W        W80499  21.086  30.519   3.836
10685W        W80500  18.765   1.898  10.958
10686W        W80501  33.495  44.754   2.804
10687W        W80502  33.004  11.189   1.915
10688W        W80503  30.634  44.911  14.995
10689W        W80504  10.175  31.035  14.295
10690W        W80505  27.649  19.745  13.417
10691W        W80506  39.046  34.443   3.196
10692W        W80507   6.780  23.687   3.833
10693W        W80508  43.909  12.615   4.264
10694W        W80509  21.243  36.020  10.640
10695W        W80510  23.210  33.899   1.443
10696W        W80511   6.848  13.111  10.992
10697W        W80512  44.405  23.706   3.352
10698W        W80513  17.707  37.863   3.150
10699W        W80514  43.297  28.559  11.860
10700W        W80515  40.959  17.101   0.742
10701W        W80516  21.685  19.739  12.497
10702W        W80517  11.168  29.511   4.151
10703W        W80518  19.240  34.031   2.321
10704W        W80519  27.136  18.220   3.338
10705W        W80520  11.790  20.592   1.351
10706W        W80521  40.327  12.263   3.329
10707W        W80522  17.685   7.912   2.401
10708W        W80523   7.407  37.424  11.446
10709W        W80524  25.188  13.604  12.895
10710W        W80525  16.182  17.281  14.888
10711W        W80526  12.627  17.247  11.530
10712W        W80527   8.232  33.091  13.856
10713W        W80528  44.919  35.975   0.402
10714W        W80529  33.557  31.566   9.926
10715W        W80530  44.357  32.626  11.382
10716W        W80531  36.379  14.643  14.314
10717W        W80532  30.652  17.566  11.043
10718W        W80533   1.261  24.647  11.100
10719W        W80534  38.336  36.971   3.280
10720W        W80535  10.205  22.158  14.483
10721W        W80536  41.027  30.089   0.960
10722W        W80537  43.385  35.511   3.674
10723W        W80538  43.794  35.003   1.837
10724W        W80539  10.800  29.084  11.473
10725W        W80540  27.088  30.060  10.940
10726W        W80541  28.145  21.646   3.368
10727W        W80542  36.904   4.926  12.949
10728W        W80543  41.032   2.761  12.096
10729W        W80544  31.051  10.147  10.033
10730W        W80545  12.779  32.128   1.900
10731W        W80546  34.568  16.589   2.406
10732W        W80547  26.172  40.359  12.564
10733W        W80548  37.855  18.216  12.479
10734W        W80549   6.843  16.259   1.833
10735W        W80550  44.320  17.260   5.136
10736W        W80551  17.167  32.062  14.882
10737W        W80552  34.032  39.504  11.584
10738W        W80553  29.548   0.391  13.812
10739W        W80554  44.451  44.816   1.233
10740W        W80555  41.994   1.861   1.700
10741W        W80556  34.876  34.498   4.641
10742W        W80557  38.905  24.986  12.420
10743W        W80558  10.307  41.314  14.302
10744W        W80559   6.813   5.403   2.858
10745W        W80560   0.277  15.620   0.319
10746W        W80561  32.502   2.794   2.356
10747W        W80562  33.593  19.118   4.731
10748W        W80563  44.491  37.426  13.910
10749W        W80564  32.420  31.112  12.490
10750W        W80565   3.421  33.912  14.467
10751W        W80566  16.657  37.030   1.384
10752W        W80567  15.786  31.040  11.512
10753W        W80568   5.299  31.637  11.395
10754W        W80569   6.339  10.795   2.237
10755W        W80570  41.357  37.427   2.403
10756W        W80571   4.334  13.181   0.753
10757W        W80572  34.481   0.746   1.725
10758W        W80573   6.796  12.323  12.968
10759W        W80574  31.022   6.780   3.167
10760W        W80575  26.992  20.614   4.171
10761W        W80576  18.124  32.955  13.358
10762W        W80577   2.378   3.872  13.464
10763W        W80578   6.828   0.485  13.453
10764W        W80579  18.677  18.553  14.426
10765W        W80580  12.647  14.312  10.485
10766W        W80581  34.889  34.491  12.553
10767W        W80582  15.600  20.699   1.789
10768W        W80583  31.590   5.762  14.401
10769W        W80584   7.310  18.070  11.908
10770W        W80585  23.659  34.094   3.782
10771W        W80586   8.681   8.227  11.123
10772W        W80587  44.996  34.019  14.786
10773W        W80588  17.676  15.308  13.390
10774W        W80589   2.356  11.336   1.372
10775W        W80590   3.711  43.793  11.601
10776W        W80591  16.117  38.941  13.497
10777W        W80592  39.848  36.899   0.361
10778W        W80593   1.888  37.360  13.063
10779W        W80594  27.485  30.604   0.888
10780W        W80595  34.581   4.323   2.855
10781W        W80596  27.588  16.696   0.252
10782W        W80597  42.975  32.494   1.833
10783W        W80598  16.076  25.676  13.930
10784W        W80599  12.723  21.054  12.881
10785W        W80600  18.688  26.193   3.731
10786W        W80601  22.642   8.210  11.420
10787W        W80602  20.039  23.515  12.046
10788W        W80603  28.979   1.812  12.090
10789W        W80604   9.257   6.764  11.429
10790W        W80605  23.216  17.103  12.475
10791W        W80606   6.751  34.428   0.727
10792W        W80607  42.911  35.052   4.219
10793W        W80608  18.697  36.864  13.840
10794W        W80609   5.897  20.078  10.544
10795W        W80610   9.356  33.126  13.918
10796W        W80611  39.534   1.778   5.161
10797W        W80612  36.382  12.690  11.100
10798W        W80613   7.271  32.987  12.468
10799W        W80614   5.801  30.417  13.353
10800W        W80615  20.680  20.268   0.726
10801W        W80616  18.194  27.565   4.621
10802W        W80617  33.946  42.893   3.196
10803W        W80618  40.408  39.488  14.969
10804W        W80619  34.099  32.930  12.886
10805W        W80620   4.360   4.904   0.409
10806W        W80621  40.423  41.410   3.195
10807W        W80622  12.340   3.864   4.714
10808W        W80623  16.209   9.834  11.923
10809W        W80624   8.675  42.318  14.827
10810W        W80625  35.003  20.096  11.452
10811W        W80626  35.894   0.334   2.771
10812W        W80627  20.201  34.379   0.385
10813W        W80628  36.483   7.235   2.256
10814W        W80629   8.857   8.821   3.276
10815W        W80630  32.559  35.533   2.771
10816W        W80631  28.964  24.661   3.829
10817W        W80632  30.478  29.658   4.643
10818W        W80633  36.007   7.411  13.429
10819W        W80634  36.896  23.649   4.326
10820W        W80635  13.173   6.836  13.844
10821W        W80636  17.149  41.296   2.677
10822W        W80637  10.734  33.446  14.920
10823W        W80638  26.499  26.614  14.513
10824W        W80639  33.594   0.981  14.305
10825W        W80640  21.677  24.693   0.934
10826W        W80641  26.523   9.272  13.339
10827W        W80642  31.560  21.615  12.960
10828W        W80643   4.790  10.223   1.384
10829W        W80644  19.183  39.841  12.986
10830W        W80645   0.791  13.327  14.473
10831W        W80646  17.102  18.140   1.428
10832W        W80647  23.154  29.963  10.624
10833W        W80648   9.322  11.764  14.313
10834W        W80649  42.973  38.856   2.845
10835W        W80650   8.276  18.567   0.417
10836W        W80651  17.099  31.093   0.409
10837W        W80652  41.492  39.363   0.256
10838W        W80653  11.191  18.727   0.278
10839W        W80654  25.043  42.842   4.293
10840W        W80655  27.110  19.570   4.806
10841W        W80656  41.536  32.002   2.778
10842W        W80657  39.011   3.755   1.842
10843W        W80658   7.214  41.336   3.753
10844W        W80659  32.998  26.079   2.880
10845W        W80660  39.486  13.719  10.935
10846W        W80661  38.329  25.578  13.332
10847W        W80662  19.750  41.388   2.772
10848W        W80663  24.977  28.186  11.900
10849W        W80664  28.051  22.045  13.998
10850W        W80665  24.157   1.938  11.017
10851W        W80666  33.545  34.116   0.797
10852W        W80667  24.619   2.959   0.866
10853W        W80668  12.296  26.461  10.980
10854W        W80669  16.192  32.463  13.923
10855W        W80670  23.695  23.197   2.400
10856W        W80671   2.828   5.296  12.090
10857W        W80672  44.942  40.925  13.394
10858W        W80673  43.812  23.165   4.807
10859W        W80674  27.628  16.605  10.491
10860W        W80675  24.181  19.731   1.880
10861W        W80676  37.876  37.568  12.866
10862W        W80677   5.847  28.507  14.460
10863W        W80678  32.460  35.405   3.219
10864W        W80679   6.321  31.041  13.848
10865W        W80680  24.180   0.814  11.975
10866W        W80681  14.823  10.692  12.467
10867W        W80682   3.792  34.020   0.784
10868W        W80683  35.097  29.639   0.937
10869W        W80684   8.190  39.350  11.035
10870W        W80685  34.061  17.653   1.868
10871W        W80686   5.366  32.064   1.306
10872W        W80687   7.254  19.175  11.426
10873W        W80688  40.979   8.226   4.680
10874W        W80689  22.086  34.995   3.231
10875W        W80690  24.120  44.356   4.600
10876W        W80691   8.704  36.505  11.105
10877W        W80692  39.508  10.863   1.786
10878W        W80693  23.016  21.104  10.448
10879W        W80694   4.849  29.664  13.522
10880W        W80695  41.428  41.040   4.826
10881W        W80696  28.058  30.516   2.878
10882W        W80697  20.527  39.315  11.510
10883W        W80698  19.185  15.315  12.841
10884W        W80699  26.645  23.575  10.644
10885W        W80700  35.361  12.794  13.384
10886W        W80701  31.075  43.844   2.194
10887W        W80702  15.740  20.714   2.385
10888W        W80703  15.254   8.365  12.946
10889W        W80704  41.418  26.957   3.150
10890W        W80705  15.170  18.160  14.364
10891W        W80706  17.628   0.931   1.814
10892W        W80707  40.431   3.710   3.753
10893W        W80708  24.511  36.392  11.592
10894W        W80709  31.548  37.543  12.845
10895W        W80710   9.815  15.800   3.312
10896W        W80711  29.990  32.499  12.862
10897W        W80712  10.701  23.687  12.925
10898W        W80713  14.737  42.895  12.443
10899W        W80714  13.752   3.278   4.261
10900W        W80715  21.021  20.603  10.633
10901W        W80716  18.709  38.994  11.908
10902W        W80717   6.847   8.806  11.897
10903W        W80718  18.136  21.017   4.712
10904W        W80719  29.436  13.631   3.175
10905W        W80720  16.702  27.569  13.003
10906W        W80721  23.534  32.123   1.795
10907W        W80722   1.827  39.820  10.951
10908W        W80723   8.196  21.038  14.810
10909W        W80724   5.329  30.479   2.815
10910W        W80725  31.071  11.325   1.275
10911W        W80726  36.940   8.775   3.233
10912W        W80727  19.244  10.263  12.005
10913W        W80728  15.620  43.322   4.174
10914W        W80729  17.156  36.891   2.327
10915W        W80730  31.035  16.606   2.257
10916W        W80731  26.483  19.203   2.394
10917W        W80732   7.177  17.594  12.967
10918W        W80733  25.178  23.171  10.612
10919W        W80734  17.257  37.433  10.052
10920W        W80735  14.712  35.109  12.911
10921W        W80736  42.493  37.898   4.204
10922W        W80737   0.960  39.334   2.363
10923W        W80738   5.923   9.165   3.271
10924W        W80739  26.466  35.396  12.362
10925W        W80740  32.896  34.012  11.920
10926W        W80741  24.536  29.437  13.950
10927W        W80742  28.009   4.436  11.461
10928W        W80743  37.377   1.953  12.567
10929W        W80744  10.163  13.600   0.460
10930W        W80745  10.305  34.595  14.767
10931W        W80746  31.625  32.406  12.480
10932W        W80747  44.453  34.974   1.451
10933W        W80748  28.167  43.425   2.869
10934W        W80749  27.597   7.713  14.313
10935W        W80750  13.660  25.198   2.731
10936W        W80751  42.361  25.642  13.915
10937W        W80752  41.920  24.055   1.387
10938W        W80753  28.479  12.823   4.261
10939W        W80754  20.212  37.878   4.153
10940W        W80755  27.118  31.530  11.579
10941W        W80756  35.515   1.738  14.815
10942W        W80757  21.159  31.484  12.384
10943W        W80758  34.500  23.204   1.413
10944W        W80759  44.318   3.309   1.868
10945W        W80760  32.438  28.546   0.748
10946W        W80761  28.982  32.605   4.837
10947W        W80762  40.398  10.274  14.413
10948W        W80763   7.381  40.840   2.355
10949W        W80764  38.841  16.727   2.234
10950W        W80765   9.869  14.664  11.968
10951W        W80766  32.483  14.170   3.203
10952W        W80767  26.549  19.535   3.696
10953W        W80768   8.229  41.526  11.126
10954W        W80769  12.317  33.003  10.605
10955W        W80770   2.331  10.173   5.096
10956W        W80771  40.523  17.134   1.698
10957W        W80772   7.823   1.826   2.710
10958W        W80773  11.712  38.353   3.813
10959W        W80774  26.682  41.427   2.695
10960W        W80775  37.959  18.122  10.563
10961W        W80776  27.520  14.706  14.285
10962W        W80777  26.000  37.451   1.713
10963W        W80778   0.832  40.870   4.231
10964W        W80779  17.264  36.926   0.820
10965W        W80780  11.804   4.407   4.285
10966W        W80781  19.082  23.206  13.423
10967W        W80782  28.635  17.744  12.354
10968W        W80783   0.382  36.485   0.804
10969W        W80784  28.090  14.697   3.300
10970W        W80785  24.135  31.528  13.820
10971W        W80786   6.371   5.259  14.943
10972W        W80787  43.984  38.850   2.837
10973W        W80788  40.491  28.931  10.588
10974W        W80789  23.177  15.090   3.379
10975W        W80790  36.467  12.330  11.379
10976W        W80791  17.088  42.326  14.772
10977W        W80792  40.924  36.859  11.062
10978W        W80793  25.993  35.880   3.809
10979W        W80794  13.275  19.685   1.810
10980W        W80795  29.933  28.938  14.903
10981W        W80796  41.840  24.003   0.837
10982W        W80797  33.555  38.411   5.095
10983W        W80798  44.780   1.393  13.810
10984W        W80799  41.307  29.003  10.413
10985W        W80800  40.335  23.146   0.800
10986W        W80801  20.756   6.342  11.887
10987W        W80802  33.507   7.688   0.742
10988W        W80803  38.010  17.284  10.638
10989W        W80804   5.835  16.140   2.210
10990W        W80805   6.260  43.922  12.964
10991W        W80806  38.341  39.360  12.401
10992W        W80807  13.111  12.134   2.671
10993W        W80808  11.659  22.691   5.107
10994W        W80809  24.061   2.870  11.383
10995W        W80810  25.497  34.893   1.218
10996W        W80811   9.156  44.274   2.210
10997W        W80812   0.772  38.851  10.137
10998W        W80813  11.861  23.516  13.459
10999W        W80814  14.665  18.162  13.929
11000W        W80815  10.829   7.824  14.397
11001W        W80816   1.333   8.222   3.236
11002W        W80817  33.546  18.743   0.787
11003W        W80818  43.785   4.437  13.317
11004W        W80819  41.865  30.505   3.712
11005W        W80820  24.036   5.779   0.312
11006W        W80821  16.591  44.346  11.096
11007W        W80822  24.582  29.926  10.897
11008W        W80823  38.827   9.153   0.899
11009W        W80824  39.358  19.669   4.635
11010W        W80825  15.218  31.571   4.742
11011W        W80826  27.007  15.721   3.717
11012W        W80827   7.356  13.792   4.287
11013W        W80828  44.459  10.183   2.800
11014W        W80829  32.087  26.673  11.403
11015W        W80830  34.387  22.669  10.903
11016W        W80831  35.593   6.411  11.884
11017W        W80832   1.373  35.032   2.715
11018W        W80833   3.940  17.656  11.407
11019W        W80834  43.468  25.531  10.640
11020W        W80835  14.707  24.204  12.878
11021W        W80836  32.006  39.431   0.818
11022W        W80837  42.390   3.354   1.313
11023W        W80838   5.354  23.715  12.846
11024W        W80839   4.906  17.712  14.343
11025W        W80840  34.401  39.464   3.231
11026W        W80841  27.094  41.960  10.590
11027W        W80842  11.351  22.714   4.735
11028W        W80843  23.032  30.437   0.932
11029W        W80844   7.891  31.639  10.591
11030W        W80845  28.605  10.352   0.385
11031W        W80846   7.348  36.006  12.448
11032W        W80847   2.279   9.808  10.923
11033W        W80848  42.514  26.627  10.989
11034W        W80849  30.078   4.759   9.976
11035W        W80850  26.090  26.532  13.797
11036W        W80851   6.759  31.903   1.885
11037W        W80852  35.870  27.101   4.207
11038W        W80853  19.758  31.141  13.454
11039W        W80854   2.844  35.523   0.429
11040W        W80855  41.405  42.335   4.820
11041W        W80856  10.360  35.519  12.082
11042W        W80857  20.694  21.153  13.834
11043W        W80858  44.277  13.123  13.342
11044W        W80859  17.168   7.884   2.722
11045W        W80860  21.222  28.457   3.253
11046W        W80861  14.780  24.226  10.449
11047W        W80862  16.268  11.155  12.062
11048W        W80863  41.875  21.064  10.963
11049W        W80864  15.604  43.422  13.831
11050W        W80865   3.238  21.247  14.759
11051W        W80866  28.627   7.778   3.723
11052W        W80867  36.445  15.611   2.283
11053W        W80868  37.467  34.580   2.408
11054W        W80869  21.169  37.077  12.013
11055W        W80870  40.996  20.238   4.833
11056W        W80871   0.901  16.250  12.051
11057W        W80872  35.863  10.701  12.537
11058W        W80873  25.003  18.134  12.856
11059W        W80874  23.153  14.250  13.838
11060W        W80875   4.725  30.928  10.460
11061W        W80876   8.771  31.116  11.966
11062W        W80877  34.404   9.879  11.007
11063W        W80878   5.219   6.774   1.812
11064W        W80879  41.427  21.145  13.530
11065W        W80880  31.574  31.919   0.828
11066W        W80881  12.683  18.275   0.379
11067W        W80882   4.920  11.166  13.868
11068W        W80883  24.080   6.827   0.786
11069W        W80884   3.843   2.856  11.859
11070W        W80885  40.533  22.160   0.320
11071W        W80886  38.037  15.086  11.918
11072W        W80887  17.062  22.009   3.707
11073W        W80888  18.679  29.082   2.215
11074W        W80889  19.226  12.363   2.725
11075W        W80890  35.867  37.473  11.975
11076W        W80891  42.498   7.390   4.330
11077W        W80892  18.546  15.223  14.369
11078W        W80893   9.863  19.153   3.340
11079W        W80894   0.342  32.076   0.821
11080W        W80895  23.039  28.076   2.345
11081W        W80896   1.335  34.872  14.812
11082W        W80897  26.664  32.074   1.907
11083W        W80898   7.740  33.532   5.143
11084W        W80899  26.533   8.763   0.298
11085W        W80900  39.873   5.319   2.333
11086W        W80901  30.563   0.406  14.503
11087W        W80902  16.766  12.347  12.825
11088W        W80903  35.452  10.212   1.319
11089W        W80904   7.302  11.809   2.194
11090W        W80905  14.668  12.272   3.362
11091W        W80906  26.549  18.603   4.681
11092W        W80907  11.669  22.745  13.799
11093W        W80908  21.633   8.184   3.200
11094W        W80909  22.138   6.348   2.382
11095W        W80910  38.913  24.014   2.709
11096W        W80911   7.812  22.089  12.527
11097W        W80912  36.396   3.740   2.301
11098W        W80913  28.140  19.642   0.424
11099W        W80914  12.779  10.300   3.256
11100W        W80915  37.384  22.033  11.914
11101W        W80916  21.159   3.725   3.775
11102W        W80917  31.620   6.748   3.274
11103W        W80918  28.449  38.076   3.197
11104W        W80919  11.771  22.093  14.026
11105W        W80920   5.828  30.539   0.809
11106W        W80921   0.468  26.981   0.480
11107W        W80922  18.592   0.816  11.544
11108W        W80923  13.110  34.509   5.213
11109W        W80924   8.376   5.836  13.829
11110W        W80925   4.843   3.428  11.066
11111W        W80926  20.550  20.638  10.998
11112W        W80927  38.526  38.506   1.815
11113W        W80928  36.034  21.065   4.811
11114W        W80929   4.706  32.506  13.870
11115W        W80930  10.644  14.122  10.953
11116W        W80931  24.035  11.250  11.478
11117W        W80932  40.315   3.231  10.908
11118W        W80933  30.958  29.068   3.357
11119W        W80934  19.043  15.719  10.054
11120W        W80935  22.033  14.200  12.512
11121W        W80936   7.873  40.004  11.064
11122W        W80937   8.351  33.988  11.909
11123W        W80938   4.869  11.682   0.319
11124W        W80939  31.072  15.672   1.933
11125W        W80940  20.190  35.445  14.782
11126W        W80941   1.425   0.254   0.798
11127W        W80942   0.468  28.563   0.918
11128W        W80943  12.207  41.520   2.765
11129W        W80944  38.389  15.680  11.119
11130W        W80945  44.001   3.415  11.603
11131W        W80946   3.348  23.675   2.743
11132W        W80947  17.274  33.908   0.784
11133W        W80948  40.925  33.880  10.415
11134W        W80949   8.654  44.434   4.664
11135W        W80950  38.053   9.246   4.640
11136W        W80951   8.795   4.937   5.266
11137W        W80952  27.005  10.304  13.933
11138W        W80953  22.707  36.865  11.458
11139W        W80954  18.188  35.358   3.175
11140W        W80955   7.198  28.001  12.352
11141W        W80956   8.268   0.355   0.943
11142W        W80957  38.926  28.021  12.540
11143W        W80958  17.710  36.394  11.378
11144W        W80959  19.626  19.046   3.770
11145W        W80960  19.225  42.905  14.806
11146W        W80961  33.995  36.895   0.434
11147W        W80962   4.776  35.087   4.692
11148W        W80963   0.462  14.702  14.431
11149W        W80964  42.912   5.727   2.340
11150W        W80965  24.496  24.702   1.257
11151W        W80966  18.788  41.501   0.838
11152W        W80967  38.337  41.947   3.777
11153W        W80968   2.368   9.701   1.437
11154W        W80969  11.244   7.411  11.012
11155W        W80970   2.234  41.906   0.851
11156W        W80971  40.012   3.756  14.988
11157W        W80972  42.434  20.745  12.511
11158W        W80973   3.847  24.197   4.776
11159W        W80974  19.534  11.127  13.982
11160W        W80975   8.249  30.995  10.917
11161W        W80976  44.466  40.012   4.215
11162W        W80977  18.242   9.249  13.906
11163W        W80978  25.137   8.254   0.484
11164W        W80979  35.007  18.586  10.560
11165W        W80980  11.347  29.576   1.897
11166W        W80981   9.794  21.080   4.823
11167W        W80982   1.912  16.577   0.264
11168W        W80983  42.459  20.587   0.904
11169W        W80984   7.361   7.196   3.295
11170W        W80985   4.290   7.812  12.049
11171W        W80986  13.802  42.970   1.295
11172W        W80987  39.813  38.039   2.758
11173W        W80988   1.411  15.758   4.119
11174W        W80989  30.138  37.052  14.296
11175W        W80990  34.512  36.000  13.943
11176W        W80991  15.666  29.048   0.386
11177W        W80992  39.817  18.763   2.404
11178W        W80993  35.982  20.545   1.786
11179W        W80994  28.042  29.129   4.707
11180W        W80995  14.708   0.885  12.543
11181W        W80996  25.549  15.684   1.402
11182W        W80997  43.397   6.305  11.439
11183W        W80998  11.832  41.805  14.367
11184W        W80999   2.722   4.768   2.369
11185W        W81000  36.539  29.055   0.926
11186W        W81001  44.478  24.506   4.331
11187W        W81002  25.472  40.874   0.428
11188W        W81003  28.544  13.681   1.409
11189W        W81004  26.181  13.658  14.882
11190W        W81005  13.129  23.192   1.450
11191W        W81006  32.438  44.423  10.585
11192W        W81007   9.844   1.237  13.850
11193W        W81008  23.588  30.545   3.347
11194W        W81009   7.766  35.484  13.917
11195W        W81010   4.373  13.321   3.151
11196W        W81011  25.487   0.761   0.450
11197W        W81012  16.143  17.263   2.898
11198W        W81013   4.373  24.514   4.236
11199W        W81014  37.989  24.528  13.871
11200W        W81015  43.437  36.981   3.640
11201W        W81016  33.606  14.246  12.866
11202W        W81017  11.304  30.024   1.240
11203W        W81018  29.593  10.634  13.389
11204W        W81019  35.586  22.225   0.251
11205W        W81020  17.250  20.536  10.474
11206W        W81021   5.277  38.876   3.259
11207W        W81022   7.780  37.428  14.789
11208W        W81023  15.769  43.495   2.188
11209W        W81024  33.021  21.743  13.491
11210W        W81025  15.728   2.320   4.170
11211W        W81026  22.672  44.318   1.709
11212W        W81027  33.030  24.101  12.563
11213W        W81028   1.732  21.018   0.762
11214W        W81029  15.229  34.870  14.934
11215W        W81030   1.852  40.373  11.046
11216W        W81031  13.832  16.157  13.807
11217W        W81032  40.875  11.793   2.302
11218W        W81033  42.791  43.983  12.898
11219W        W81034  32.086  31.989   3.670
11220W        W81035   4.371  13.624  10.487
11221W        W81036  26.176  24.070  12.883
11222W        W81037  38.369   8.809  10.614
11223W        W81038  45.000   1.330   1.739
11224W        W81039   7.175   2.818  14.420
11225W        W81040  34.550  37.846   4.741
11226W        W81041  10.228   3.332  11.998
11227W        W81042  35.940  20.173  11.536
11228W        W81043  27.011  14.284  10.528
11229W        W81044  20.753   4.699  13.822
11230W        W81045   5.228  32.562  14.942
11231W        W81046  15.326  43.856  12.474
11232W        W81047  36.487  16.075   2.261
11233W        W81048  44.425  40.458  11.882
11234W        W81049  16.178  12.298  10.537
11235W        W81050  17.123  34.390  14.431
11236W        W81051   0.293  19.759   2.825
11237W        W81052  12.785  20.083  12.346
11238W        W81053  39.422  28.159   1.883
11239W        W81054   2.424   6.860  12.386
11240W        W81055  17.593  20.669   1.367
11241W        W81056  31.999  10.207  11.480
11242W        W81057   6.690  40.535  11.606
11243W        W81058  34.473  25.472  12.405
11244W        W81059  18.136  22.055  11.864
11245W        W81060  44.304   2.426   2.203
11246W        W81061  19.573  39.557   1.348
11247W        W81062  38.558   7.830   9.921
11248W        W81063  23.547  10.282  14.959
11249W        W81064   2.254  17.620   3.764
11250W        W81065  27.067   8.800  11.099
11251W        W81066  40.313  28.006   1.312
11252W        W81067   4.775  10.306  13.504
11253W        W81068  40.321  15.603   4.647
11254W        W81069  11.134  33.473  11.945
11255W        W81070  36.483   0.368  10.413
11256W        W81071  35.498  20.211  13.827
11257W        W81072  41.038   7.696   2.798
11258W        W81073  19.239  28.525   4.268
11259W        W81074  44.756   1.804  14.762
11260W        W81075  17.579  41.023  12.026
11261W        W81076  18.693  19.274  10.997
11262W        W81077  15.240  40.510   2.752
11263W        W81078  10.721  11.863  10.496
11264W        W81079  17.117  41.378   9.927
11265W        W81080  28.120   9.684  12.477
11266W        W81081  30.002  38.990   1.884
11267W        W81082  43.909  17.200  12.447
11268W        W81083  30.588  39.391  13.903
11269W        W81084   6.228  18.658   2.417
11270W        W81085  38.908  30.545  14.345
11271W        W81086  26.194  44.948  13.032
11272W        W81087  41.463  17.290  13.434
11273W        W81088   1.248  24.214   2.883
11274W        W81089   9.858  15.319   4.323
11275W        W81090  40.891  29.971   1.220
11276W        W81091  22.514  18.654  14.341
11277W        W81092  33.950   8.705   4.212
11278W        W81093  35.884  11.142   3.634
11279W        W81094   6.879  21.625  12.838
11280W        W81095  29.042   0.345   2.220
11281W        W81096  38.061  15.664   4.180
11282W        W81097  11.241  27.619   0.922
11283W        W81098   8.246  14.159   2.218
11284W        W81099  19.096  25.638  10.566
11285W        W81100  17.225  27.672  11.516
11286W        W81101  42.350  41.508  12.906
11287W        W81102  30.032  44.843  14.865
11288W        W81103  44.938   9.360   3.681
11289W        W81104   5.800   8.764  11.493
11290W        W81105  24.700  41.371   2.378
11291W        W81106  13.320  44.363   2.192
11292W        W81107   3.366  28.172   0.298
11293W        W81108  19.622  23.608   9.940
11294W        W81109  42.861  23.662   2.350
11295W        W81110  34.864  25.636  11.034
11296W        W81111  14.741  28.055  14.811
11297W        W81112  43.337  28.664   2.417
11298W        W81113  33.877  31.937   1.245
11299W        W81114  39.368  21.173   0.964
11300W        W81115   4.829  13.272  10.893
11301W        W81116  21.652  27.146  14.937
11302W        W81117  12.853  43.781   3.352
11303W        W81118   1.851   4.334   0.401
11304W        W81119  31.931  35.372   2.221
11305W        W81120  42.814  39.341  14.873
11306W        W81121   7.353  34.581   0.453
11307W        W81122  18.075  25.142  10.975
11308W        W81123  31.047  32.953  10.591
11309W        W81124   1.786  33.012   4.731
11310W        W81125  39.341  20.528   1.748
11311W        W81126  33.552  11.271  10.517
11312W        W81127   8.263  16.766  12.945
11313W        W81128   1.809   7.296  13.535
11314W        W81129  37.052  35.364   1.820
11315W        W81130  24.090   7.728  10.946
11316W        W81131  37.439  40.921  10.561
11317W        W81132  42.859  18.210  14.766
11318W        W81133  32.015  37.563   0.819
11319W        W81134  12.277  32.476   1.378
11320W        W81135  39.329  42.972   0.958
11321W        W81136  30.533   5.317   2.368
11322W        W81137  16.097   4.702   4.727
11323W        W81138   7.767  14.268  11.405
11324W        W81139   6.286   1.286  10.908
11325W        W81140  15.756   6.336  11.993
11326W        W81141  11.767  33.487   4.226
11327W        W81142  12.792  16.246  12.072
11328W        W81143  12.795  12.284   3.255
11329W        W81144  32.956  28.522  10.938
11330W        W81145  28.469   2.356  11.071
11331W        W81146  24.555  21.616  13.352
11332W        W81147  41.940  38.820  12.514
11333W        W81148  18.693  26.122   1.368
11334W        W81149  34.607  29.166  10.542
11335W        W81150  41.788  26.590   0.262
11336W        W81151  44.755  31.959  11.091
11337W        W81152  14.285   8.694   0.833
11338W        W81153  18.727  41.913   2.884
11339W        W81154  35.481  33.425  12.003
11340W        W81155  17.588  16.162  11.034
11341W        W81156  41.297  26.580   2.297
11342W        W81157  29.116  44.759   0.830
11343W        W81158  10.719  34.499   2.241
11344W        W81159  35.367  36.035  12.827
11345W        W81160  40.333  31.954   3.683
11346W        W81161  20.648  22.131  14.901
11347W        W81162   3.808  32.027   0.391
11348W        W81163   9.380  26.208  10.643
11349W        W81164  15.166   2.829   1.229
11350W        W81165   8.769  14.737   3.164
11351W        W81166  39.825  41.999   2.699
11352W        W81167   7.231  18.639   2.385
11353W        W81168  35.565  43.958   1.770
11354W        W81169   8.688  23.067   4.285
11355W        W81170   1.857   1.416  13.543
11356W        W81171  39.949  31.508  14.441
11357W        W81172  38.434   1.286  12.919
11358W        W81173  10.821  20.236  10.488
11359W        W81174  41.919  33.619  10.134
11360W        W81175   3.718  44.322   4.179
11361W        W81176  27.135   8.859  12.481
11362W        W81177   8.200  29.050   3.347
11363W        W81178  15.322  29.425  13.348
11364W        W81179  18.215  26.489  14.935
11365W        W81180  13.811  14.718  11.997
11366W        W81181  20.680  28.090   2.186
11367W        W81182  39.860  44.826   4.675
11368W        W81183  12.764  25.000  11.435
11369W        W81184  19.097   2.804   1.752
11370W        W81185  15.097   6.215   1.815
11371W        W81186  17.750  34.601  12.920
11372W        W81187  17.186   8.350   4.175
11373W        W81188  34.436  11.182  10.564
11374W        W81189   6.322  27.152   3.669
11375W        W81190  17.084  39.491  12.382
11376W        W81191  26.493  21.020   5.280
11377W        W81192   2.352  35.487  14.306
11378W        W81193  15.817  17.282  14.451
11379W        W81194  11.695  28.549  14.434
11380W        W81195  16.651  23.169  12.345
11381W        W81196  10.166  38.072  13.392
11382W        W81197   7.389  28.930   2.678
11383W        W81198  38.849  39.384   2.327
11384W        W81199  31.462  20.126  14.403
11385W        W81200  22.581  17.259  12.982
11386W        W81201  12.125   2.316   4.202
11387W        W81202  30.095  26.069   0.261
11388W        W81203  43.389  40.032   0.754
11389W        W81204  38.568  32.500   2.244
11390W        W81205  23.015  32.627   3.687
11391W        W81206   2.769   8.307   1.870
11392W        W81207   9.391  18.546  10.555
11393W        W81208  34.007   9.779   4.278
11394W        W81209  37.489  31.148   3.671
11395W        W81210  31.487  10.361   0.430
11396W        W81211  18.762  14.096   2.181
11397W        W81212  41.461   6.790  13.502
11398W        W81213  31.454  10.723   2.208
11399W        W81214   8.222  22.234   4.309
11400W        W81215  37.435  12.158   2.747
11401W        W81216  34.369  10.328  12.918
11402W        W81217  26.599  28.127  13.020
11403W        W81218  40.904  43.312   4.769
11404W        W81219  10.367  37.039  11.474
11405W        W81220  10.174  36.392  11.489
11406W        W81221  34.898  15.162   0.839
11407W        W81222   1.286  20.114   3.160
11408W        W81223   4.216  26.680   0.881
11409W        W81224  11.191  41.990   1.727
11410W        W81225  44.916  44.812  12.483
11411W        W81226  18.625  33.096  12.364
11412W        W81227   0.337  13.661   4.761
11413W        W81228  20.541  19.155  13.444
11414W        W81229  26.146  24.984  12.377
11415W        W81230  37.341  33.935   3.742
11416W        W81231  31.415  44.332  11.088
11417W        W81232   1.459  27.515  12.486
11418W        W81233  30.049   3.925   0.739
11419W        W81234  25.109  32.932   2.900
11420W        W81235   9.650   4.731   4.612
11421W        W81236  22.150   7.413  14.430
11422W        W81237  24.217   4.894  14.412
11423W        W81238   6.195  11.182  13.976
11424W        W81239  31.441   6.818   4.830
11425W        W81240   0.351   7.387   2.749
11426W        W81241   3.754   5.837   0.749
11427W        W81242   3.339  16.309  14.945
11428W        W81243  27.520  35.362  13.930
11429W        W81244   9.392  19.269   2.396
11430W        W81245  11.141  16.583   3.683
11431W        W81246  15.784  31.527  10.477
11432W        W81247  27.117  32.554  13.868
11433W        W81248  17.795   1.423   2.202
11434W        W81249   9.312  18.133  12.538
11435W        W81250   3.448  33.880  14.862
11436W        W81251  33.460  13.184  12.511
11437W        W81252  13.745   0.349   3.276
11438W        W81253  38.373  31.944  12.963
11439W        W81254  28.556  44.861   0.454
11440W        W81255  33.964  13.206   0.466
11441W        W81256  14.824  20.095   1.417
11442W        W81257  40.919  19.573  14.515
11443W        W81258   5.239  28.619   3.863
11444W        W81259  13.226  27.621  14.279
11445W        W81260  32.391  39.998  13.960
11446W        W81261  14.162   3.412  10.405
11447W        W81262  22.102  23.728   1.736
11448W        W81263  23.120  19.634  12.953
11449W        W81264  26.958   3.242   1.375
11450W        W81265  29.100  20.194   4.731
11451W        W81266   7.678  33.468  10.112
11452W        W81267  10.170  27.956   1.450
11453W        W81268  32.593  37.034  11.435
11454W        W81269   7.359   0.966  10.614
11455W        W81270  29.964  16.216  13.001
11456W        W81271   3.350   5.746   4.744
11457W        W81272  20.274  22.538  13.797
11458W        W81273  36.068   6.832  13.486
11459W        W81274   2.935  38.995   4.678
11460W        W81275  14.239  17.212   4.345
11461W        W81276  31.039  40.850  14.498
11462W        W81277  29.658  38.479  13.538
11463W        W81278   6.357   9.358   2.297
11464W        W81279  39.364  38.450   3.822
11465W        W81280  14.299  24.663   0.965
11466W        W81281   5.878  40.882  11.551
11467W        W81282  21.659  29.173  12.356
11468W        W81283  19.270   7.676   1.829
11469W        W81284  17.097  13.601   1.254
11470W        W81285  10.208  44.868   2.810
11471W        W81286  20.065  21.625  13.338
11472W        W81287  19.610  39.857  10.033
11473W        W81288  17.672   7.816  14.951
11474W        W81289  36.421  33.129  12.843
11475W        W81290  11.167  29.427   4.757
11476W        W81291  25.561  20.716   3.340
11477W        W81292  30.431  34.464  12.382
11478W        W81293  41.876  36.918   0.726
11479W        W81294  23.206  36.346   1.406
11480W        W81295  12.805  10.854   4.318
11481W        W81296  37.838  19.617   1.903
11482W        W81297  29.931   2.385   1.244
11483W        W81298  41.502   3.848   0.962
11484W        W81299  12.760  27.467  13.531
11485W        W81300  21.745   9.698   3.679
11486W        W81301  42.483  22.049  10.892
11487W        W81302  24.175  13.807   0.437
11488W        W81303  18.147  33.454   3.746
11489W        W81304   0.931  28.185  14.801
11490W        W81305  29.070  29.093   1.255
11491W        W81306  33.076   3.272   4.123
11492W        W81307   1.741  26.687  12.408
11493W        W81308  33.111   3.400   4.699
11494W        W81309  31.637  42.344   2.819
11495W        W81310  15.087   7.878   4.748
11496W        W81311  12.662  12.634  12.459
11497W        W81312  39.493  35.587   4.605
11498W        W81313  21.629  41.314  14.892
11499W        W81314  29.496  10.144   0.423
11500W        W81315  25.159  38.984  10.008
11501W        W81316   7.283   9.223   2.181
11502W        W81317  42.001  30.572  11.935
11503W        W81318  13.719  13.625  10.946
11504W        W81319  16.682  39.051   0.913
11505W        W81320  12.338  40.387  13.358
11506W        W81321  13.682   0.394  14.496
11507W        W81322  35.603  38.567   3.699
11508W        W81323  15.779  18.212  11.108
11509W        W81324  10.635  37.863   3.819
11510W        W81325   1.253  43.351  14.992
11511W        W81326  31.647   7.865   4.642
11512W        W81327   1.356  24.495   4.287
11513W        W81328  21.074  41.320   2.848
11514W        W81329  24.979   2.829   4.250
11515W        W81330  21.626  29.470  10.633
11516W        W81331  24.987   6.414   1.226
11517W        W81332  13.294  32.506  11.986
11518W        W81333   4.817   7.211   9.990
11519W        W81334  26.667  16.684  11.117
11520W        W81335  43.798  44.958   4.761
11521W        W81336  12.653  30.644   4.742
11522W        W81337  44.960  22.505  13.385
11523W        W81338  26.641  14.130   2.346
11524W        W81339  36.851  37.396  11.972
11525W        W81340  18.662  13.787  10.485
11526W        W81341  18.154  18.106   1.308
11527W        W81342  14.254  23.013   4.831
11528W        W81343   7.828  27.646   3.640
11529W        W81344  39.354  18.739  13.535
11530W        W81345  26.488  26.146   4.153
11531W        W81346  14.803  37.415   0.903
11532W        W81347   2.810  15.804  11.080
11533W        W81348  25.689  36.908  13.538
11534W        W81349  42.399  15.254   2.317
11535W        W81350  19.278  19.096   2.179
11536W        W81351  31.412  35.026  14.417
11537W        W81352  38.481   4.809   4.172
11538W        W81353  38.929   4.308   2.821
11539W        W81354  43.984  36.060  10.639
11540W        W81355  12.245  44.846  13.930
11541W        W81356  15.232  11.703  12.889
11542W        W81357  44.925  23.999   2.744
11543W        W81358  21.255   6.373  12.831
11544W        W81359  28.996  42.934  12.873
11545W        W81360  20.163  20.080  12.059
11546W        W81361   3.458   6.249   4.133
11547W        W81362  28.163  29.026  11.023
11548W        W81363  10.384  36.961   3.359
11549W        W81364  12.334  36.582  14.458
11550W        W81365  23.984  24.710   1.832
11551W        W81366   0.956  44.856  14.441
11552W        W81367  26.084  17.092   2.284
11553W        W81368  19.235  17.128   1.877
11554W        W81369   7.792  11.628   2.705
11555W        W81370  33.926   8.353  12.877
11556W        W81371   3.875  24.649  14.850
11557W        W81372  30.100  25.195  14.485
11558W        W81373  29.167  41.912   0.947
11559W        W81374   8.362  13.846   1.747
11560W        W81375  42.498  28.592  12.975
11561W        W81376  25.637  12.757  10.911
11562W        W81377  42.362  41.929  12.441
11563W        W81378  23.201  34.557  11.917
11564W        W81379  41.410  25.987   2.697
11565W        W81380  32.569  14.287   2.816
11566W        W81381  36.376  22.156  10.514
11567W        W81382  29.458  20.256   0.925
11568W        W81383  18.715   9.361  14.366
11569W        W81384   5.292   3.258  13.471
11570W        W81385   9.763  24.190  13.047
11571W        W81386  31.082  36.001   4.706
11572W        W81387  10.636   4.333   2.243
11573W        W81388  28.534  40.432  14.770
11574W        W81389   6.369  23.681  12.828
11575W        W81390  12.264  37.044   3.749
11576W        W81391   5.228  39.958  13.348
11577W        W81392  27.059   8.214   4.264
11578W        W81393  21.543  35.009   0.329
11579W        W81394   9.209  32.553   4.673
11580W        W81395  29.921  22.585   2.397
11581W        W81396  44.262  41.310   1.837
11582W        W81397  23.570   1.367  12.036
11583W        W81398   9.854   6.378   0.819
11584W        W81399  30.926  33.538   1.816
11585W        W81400  25.577  28.955  11.435
11586W        W81401  14.718  19.105  11.955
11587W        W81402  44.873  17.586   2.222
11588W        W81403  15.319  21.245   0.770
11589W        W81404   5.300  14.588   0.890
11590W        W81405  14.217  10.722  11.021
11591W        W81406  26.616   3.737   2.262
11592W        W81407  10.667  23.113  12.989
11593W        W81408  34.890  33.419  13.026
11594W        W81409  31.474  29.063   0.737
11595W        W81410  15.584  21.259  10.614
11596W        W81411  14.694  27.457  14.028
11597W        W81412  30.044   1.239   4.705
11598W        W81413  10.724  35.424  12.348
11599W        W81414  34.397   1.817  10.541
11600W        W81415   0.282   0.861  11.404
11601W        W81416   6.722  10.802   2.672
11602W        W81417   2.359   2.946   1.888
11603W        W81418  28.525  22.162   2.298
11604W        W81419  32.892   3.296  13.907
11605W        W81420  32.420  16.286   4.608
11606W        W81421  33.102  14.258  12.915
11607W        W81422   4.292  36.562  13.946
11608W        W81423   7.826  42.453   3.639
11609W        W81424  13.324  24.625   1.797
11610W        W81425   6.841  25.004   0.912
11611W        W81426  13.663  10.363  11.457
11612W        W81427  40.485  40.352   1.914
11613W        W81428  39.936  15.704   3.866
11614W        W81429  40.319  18.289  10.005
11615W        W81430  31.126  13.265   4.684
11616W        W81431  21.619  15.606   1.846
11617W        W81432  40.970  22.558   4.721
11618W        W81433  17.739  32.939  10.890
11619W        W81434  37.051  39.420   3.753
11620W        W81435  18.630  36.861  12.400
11621W        W81436  13.110   5.754   1.241
11622W        W81437   6.249   0.961   0.845
11623W        W81438  23.999  31.900   2.854
11624W        W81439  36.889  20.109  10.506
11625W        W81440   1.819   1.956  13.969
11626W        W81441   6.216  44.011   0.901
11627W        W81442  17.729  15.245   3.285
11628W        W81443   0.274   1.411   3.855
11629W        W81444  16.120  23.126   2.819
11630W        W81445  40.818   8.350  13.444
11631W        W81446  41.910   2.427   5.104
11632W        W81447  40.526   2.272  12.928
11633W        W81448   6.813  22.539  11.940
11634W        W81449  15.781  41.802   2.199
11635W        W81450  15.768  11.835  13.840
11636W        W81451  13.333  30.004   2.354
11637W        W81452  26.477  20.150  13.948
11638W        W81453  35.489   6.922  11.098
11639W        W81454   0.295  16.185  13.852
11640W        W81455  32.524  35.526   4.184
11641W        W81456  38.956  10.216   1.811
11642W        W81457  28.464  39.478   0.436
11643W        W81458  30.914  11.756  11.985
11644W        W81459  10.822   7.329  14.789
11645W        W81460  14.147  40.894   4.121
11646W        W81461  35.574  31.433   5.229
11647W        W81462  24.516  31.436   2.301
11648W        W81463   7.702  42.899  14.313
11649W        W81464   9.669  21.532   3.757
11650W        W81465  35.568  36.992  11.991
11651W        W81466  43.887  42.781   2.769
11652W        W81467  43.381  18.268  12.863
11653W        W81468  34.459  44.382  13.511
11654W        W81469  12.313  35.494   2.673
11655W        W81470  32.497  12.737   2.360
11656W        W81471  39.515  36.568  11.890
11657W        W81472  30.416  36.848   1.243
11658W        W81473  32.461  36.567   3.366
11659W        W81474   7.700  11.757  13.804
11660W        W81475  10.366  44.913  11.482
11661W        W81476  16.263  28.675   4.625
11662W        W81477  18.674  12.650  12.533
11663W        W81478   5.412  24.218   1.783
11664W        W81479  32.976   5.755   1.716
11665W        W81480  12.208  44.927   1.919
11666W        W81481   0.479  40.472   1.926
11667W        W81482  37.024  41.388  14.877
11668W        W81483  34.591  12.150  12.885
11669W        W81484  42.321  36.024  12.083
11670W        W81485  41.004  24.145   4.799
11671W        W81486  18.663   3.855  10.503
11672W        W81487  29.156  12.693  13.955
11673W        W81488  39.899  12.202  14.830
11674W        W81489  42.838  25.713  13.312
11675W        W81490  33.527  36.897  10.995
11676W        W81491  16.301  39.419  14.325
11677W        W81492  30.579   9.169  11.489
11678W        W81493   5.303  13.645  13.878
11679W        W81494  26.049  41.892  12.907
11680W        W81495  12.126   2.343  10.600
11681W        W81496  36.467  32.029  11.924
11682W        W81497  21.629  20.759   4.227
11683W        W81498  21.139  29.525   1.293
11684W        W81499   2.370  19.552  12.945
11685W        W81500  15.668  15.315  11.029
11686W        W81501  18.624   7.313   9.992
11687W        W81502  32.945   0.317   1.251
11688W        W81503  40.474  40.498  14.380
11689W        W81504   2.815   1.879   4.787
11690W        W81505  28.467  31.989   4.231
11691W        W81506  36.851  37.884  10.554
11692W        W81507  22.541  30.121   4.160
11693W        W81508   4.438  16.765   2.275
11694W        W81509  25.709   8.728  10.104
11695W        W81510  21.558  28.992   2.802
11696W        W81511  40.049  23.490   4.351
11697W        W81512   5.309   1.428   2.708
11698W        W81513  27.034  33.031  12.991
11699W        W81514   6.314  43.825  13.440
11700W        W81515  40.302  14.758   3.691
11701W        W81516  28.643  25.551  13.980
11702W        W81517  42.390   1.441  11.020
11703W        W81518   2.776  19.588  12.870
11704W        W81519   4.335  31.050   1.732
11705W        W81520  39.874   2.918  13.491
11706W        W81521  19.716  41.806   5.246
11707W        W81522   1.818  28.602  12.960
11708W        W81523  20.745  32.498   3.198
11709W        W81524  17.776  42.809  11.448
11710W        W81525   3.439  34.120   3.224
11711W        W81526  16.264  32.509  14.769
11712W        W81527  16.601  28.643   3.684
11713W        W81528   4.779  42.855   0.950
11714W        W81529  31.594  22.996   4.214
11715W        W81530  21.678   2.281  14.931
11716W        W81531  33.903  37.936   2.722
11717W        W81532   3.739  15.192  13.021
11718W        W81533   7.177  29.090   0.961
11719W        W81534  12.643   5.264  14.502
11720W        W81535  28.942  28.510  13.940
11721W        W81536  22.598  40.505  11.584
11722W        W81537  42.291  42.877   4.155
11723W        W81538   3.793  24.639  14.406
11724W        W81539   1.434  15.730  10.488
11725W        W81540   5.402  26.665   3.649
11726W        W81541  20.727  12.124   2.404
11727W        W81542  31.976  26.086  12.018
11728W        W81543   2.334  36.587   0.360
11729W        W81544  30.477   8.373   1.419
11730W        W81545  17.181  40.901   3.282
11731W        W81546  38.562  27.982  11.605
11732W        W81547  19.100  27.141   4.690
11733W        W81548  16.805  11.654   4.618
11734W        W81549  28.564  20.129  13.970
11735W        W81550  28.172  21.242   5.276
11736W        W81551  35.516   6.865   1.330
11737W        W81552   9.778  29.075  11.010
11738W        W81553  39.028  14.188   5.179
11739W        W81554   7.699  35.076  12.566
11740W        W81555  27.167   2.326   3.778
11741W        W81556  24.700  27.968  12.565
11742W        W81557   8.746  34.463  10.585
11743W        W81558  44.793  15.237   0.781
11744W        W81559  25.651  22.160   4.155
11745W        W81560  16.193  41.967   1.853
11746W        W81561   5.905   0.786  14.013
11747W        W81562  24.108  26.500   4.215
11748W        W81563   2.765  36.355  13.421
11749W        W81564  16.739  15.668  13.469
11750W        W81565   8.681  21.644   3.269
11751W        W81566  39.050   6.343  13.793
11752W        W81567  37.067  43.482   1.837
11753W        W81568  40.926  12.726   0.469
11754W        W81569  38.822  26.153   3.222
11755W        W81570  23.179  37.016   0.757
11756W        W81571  43.775  31.022   0.919
11757W        W81572  41.437  22.668   0.847
11758W        W81573   5.780  26.602  11.446
11759W        W81574  42.879  30.548   0.356
11760W        W81575   3.406  43.832  13.366
11761W        W81576  28.564   4.395   0.849
11762W        W81577  15.232  25.109  11.536
11763W        W81578   3.373  28.443   1.290
11764W        W81579   1.952  41.417   4.134
11765W        W81580   5.284   1.772   1.889
11766W        W81581  29.657  43.020   2.676
11767W        W81582  13.337  43.504  13.013
11768W        W81583  39.820  18.206  13.896
11769W        W81584  41.403  12.759   4.758
11770W        W81585  41.482   1.811   4.311
11771W        W81586  34.042  43.773   1.844
11772W        W81587  30.525   2.902   1.829
11773W        W81588  30.111  29.514   3.634
11774W        W81589   5.826  32.413   0.964
11775W        W81590  19.044  41.984  14.898
11776W        W81591  32.527   9.687  10.609
11777W        W81592  25.642  32.423   1.303
11778W        W81593   5.902  20.232  12.879
11779W        W81594  11.681  40.352   1.739
11780W        W81595  41.332  42.295   1.319
11781W        W81596  19.126  18.123   1.829
11782W        W81597  13.234  32.131  14.391
11783W        W81598  27.634   3.844   3.821
11784W        W81599  39.057  34.037  11.084
11785W        W81600   2.942  24.097  14.865
11786W        W81601  20.751   6.210  11.595
11787W        W81602   9.680  11.274   0.811
11788W        W81603  26.119   5.873  13.534
11789W        W81604  14.735   4.799  10.581
11790W        W81605  40.388  43.898  11.128
11791W        W81606  12.347  33.110   1.392
11792W        W81607  22.107   2.451   4.246
11793W        W81608  30.128  31.929   0.445
11794W        W81609  27.121  29.493  10.548
11795W        W81610  30.583  43.270   4.195
11796W        W81611  24.165   2.460   3.766
11797W        W81612  12.342   0.746   0.933
11798W        W81613  12.626  20.620   4.774
11799W        W81614  44.790  12.210  12.423
11800W        W81615  12.354  17.660   1.823
11801W        W81616  34.034  12.623   0.360
11802W        W81617   7.260  15.148   0.907
11803W        W81618  20.045  28.435   0.353
11804W        W81619  27.571   8.745  10.610
11805W        W81620   2.377  28.064   3.164
11806W        W81621  35.548   2.313   0.879
11807W        W81622  35.480  31.518   2.783
11808W        W81623  24.145  38.558  14.348
11809W        W81624  17.186  43.824   2.875
11810W        W81625  16.101  14.722  11.035
11811W        W81626  35.965  24.555  13.529
11812W        W81627  28.129  34.388   1.913
11813W        W81628  23.121  16.797   9.495
11814W        W81629  33.385  14.824  10.640
11815W        W81630   8.309   3.710   1.923
11816W        W81631  18.785  16.180  11.001
11817W        W81632  21.699  14.834  11.520
11818W        W81633  12.822  25.608  11.014
11819W        W81634  19.597  13.326   1.287
11820W        W81635  40.400  16.679   0.302
11821W        W81636  23.584  21.153  11.575
11822W        W81637  44.417  22.579   4.254
11823W        W81638  22.601  31.456   4.785
11824W        W81639  43.878   2.247   4.140
11825W        W81640  11.161  38.570   2.666
11826W        W81641   3.916  40.927  12.454
11827W        W81642  44.929   1.296  11.983
11828W        W81643  35.965   4.322   3.311
11829W        W81644   3.820  19.694  11.528
11830W        W81645  14.814  34.370  10.590
11831W        W81646  39.452  43.818   4.186
11832W        W81647   9.756  26.124   3.690
11833W        W81648   0.449  11.323  11.088
11834W        W81649  33.085  23.034   1.892
11835W        W81650  39.463  23.227   2.893
11836W        W81651  43.512  33.443   4.285
11837W        W81652   0.981  37.357  14.008
11838W        W81653  11.197  17.199   2.741
11839W        W81654   1.913  11.728   3.239
11840W        W81655  14.671   0.392  11.102
11841W        W81656  42.876  23.693  11.527
11842W        W81657  15.648  38.459   0.766
11843W        W81658  24.587  44.329   4.726
11844W        W81659  13.757  12.706  11.586
11845W        W81660  29.487  32.065  13.968
11846W        W81661  25.087   6.415   5.305
11847W        W81662   1.849  18.697  14.852
11848W        W81663   4.841  10.296   3.658
11849W        W81664   7.282  43.940   2.240
11850W        W81665  22.998  19.082  11.860
11851W        W81666  35.402  38.534  13.901
11852W        W81667  13.832  22.064  12.024
11853W        W81668  10.804  28.003  10.074
11854W        W81669  29.940   8.673   2.298
11855W        W81670   9.395   0.881  12.405
11856W        W81671  28.677   1.845  12.033
11857W        W81672  40.417  41.412  13.852
11858W        W81673   8.761  39.875   4.665
11859W        W81674   8.714  18.155   2.291
11860W        W81675  33.943   1.426   0.793
11861W        W81676  34.063  42.401   1.927
11862W        W81677   6.883  29.556  10.413
11863W        W81678   2.465  29.530   0.846
11864W        W81679  13.293  22.519   1.864
11865W        W81680  32.100  21.213  12.094
11866W        W81681  14.627   0.946   0.290
11867W        W81682   1.299   5.362   0.424
11868W        W81683  20.109  11.841   1.449
11869W        W81684  28.484  33.087  13.900
11870W        W81685   3.316   3.357  12.857
11871W        W81686  23.147  14.615  12.448
11872W        W81687  23.083  11.230   1.404
11873W        W81688  43.782  13.165  14.767
11874W        W81689  30.638  18.754   5.094
11875W        W81690  23.163  27.193   1.755
11876W        W81691  20.611   1.412  12.487
11877W        W81692  28.477  23.059   2.358
11878W        W81693   1.975  40.853  14.860
11879W        W81694  35.543  23.176   4.796
11880W        W81695  35.939  13.808   3.371
11881W        W81696  20.638  23.684   3.250
11882W        W81697  43.289  20.036  10.623
11883W        W81698  41.819   2.271   2.684
11884W        W81699  11.220   0.964  14.780
11885W        W81700   5.391  33.027  13.327
11886W        W81701  37.878   9.831  14.933
11887W        W81702  17.672  26.558  11.483
11888W        W81703   2.245  14.280  13.812
11889W        W81704  26.509  13.805   0.276
11890W        W81705  23.493  33.499  12.057
11891W        W81706  30.081  30.482  14.934
11892W        W81707  35.974  40.928  13.309
11893W        W81708   7.375  38.953  12.006
11894W        W81709  28.657  42.395   2.248
11895W        W81710  23.696  28.638  12.389
11896W        W81711  34.903  39.375  13.046
11897W        W81712   9.854  39.423   3.713
11898W        W81713  13.214  22.044   2.696
11899W        W81714  11.288  23.991   1.390
11900W        W81715  13.660  34.898  11.868
11901W        W81716  13.820  17.301   0.838
11902W        W81717  22.006   3.306   4.355
11903W        W81718  41.952  33.114  12.978
11904W        W81719  17.062   2.434   4.665
11905W        W81720   8.306  23.038   3.176
11906W        W81721  34.961  34.906   4.233
11907W        W81722  16.094  30.046   1.836
11908W        W81723  30.532   8.226   3.644
11909W        W81724  44.446   8.306   4.766
11910W        W81725   9.296  12.348   3.757
11911W        W81726  23.231  14.738  14.930
11912W        W81727   3.844   8.341  12.918
11913W        W81728  18.167  28.582   4.685
11914W        W81729  23.735  12.264   1.750
11915W        W81730  34.039  23.195   3.192
11916W        W81731  44.488  21.197   5.169
11917W        W81732   1.952  27.191  13.003
11918W        W81733  19.705  38.066   4.119
11919W        W81734  34.030   6.861  10.594
11920W        W81735  43.851  12.768   3.771
11921W        W81736   9.707  42.527   0.483
11922W        W81737  22.550  39.966  13.926
11923W        W81738  16.276  40.354   1.232
11924W        W81739  35.452   9.722  10.973
11925W        W81740  14.281  41.886  14.492
11926W        W81741  24.038  17.240  12.883
11927W        W81742  36.927   8.253  10.949
11928W        W81743  23.165  28.604  12.087
11929W        W81744  43.360   0.285   3.215
11930W        W81745  20.763  37.880   1.441
11931W        W81746  38.875  44.784  10.558
11932W        W81747  18.585  22.508   5.194
11933W        W81748  44.425  23.724  10.066
11934W        W81749  27.686  32.581  11.481
11935W        W81750  42.825  27.967  11.931
11936W        W81751   8.366   5.409   2.812
11937W        W81752  23.670  30.919   3.809
11938W        W81753  39.846   1.885  13.833
11939W        W81754  41.908   6.816  13.410
11940W        W81755  41.419   8.804   5.285
11941W        W81756   3.878  36.872   4.134
11942W        W81757   9.717   6.322  13.063
11943W        W81758   6.363  23.602  14.916
11944W        W81759  39.557  42.032   2.687
11945W        W81760  40.342  25.576   2.691
11946W        W81761  34.119  11.842  14.002
11947W        W81762  31.417  36.496  14.378
11948W        W81763  18.264  43.317   2.885
11949W        W81764  41.303  32.587  13.937
11950W        W81765  42.786  18.742   1.316
11951W        W81766   8.298  33.941   4.136
11952W        W81767  22.063  21.668  13.835
11953W        W81768  21.558  20.763   3.863
11954W        W81769   1.422  41.982  12.910
11955W        W81770   5.220  36.405  14.291
11956W        W81771  18.673  39.456   1.851
11957W        W81772  42.486   2.439  14.827
11958W        W81773  40.928  39.932  14.507
11959W        W81774  29.468  17.757   4.619
11960W        W81775  19.185  41.495   0.950
11961W        W81776  34.075   9.838   2.320
11962W        W81777  42.019  23.699   1.406
11963W        W81778   2.252  29.485   3.194
11964W        W81779  37.496  27.107   0.455
11965W        W81780  12.747  39.022   4.265
11966W        W81781  38.016  21.222   2.879
11967W        W81782  13.741  41.897  12.463
11968W        W81783  24.690  35.859  12.402
11969W        W81784  39.044   9.182   1.805
11970W        W81785  31.540   3.932   1.897
11971W        W81786  40.957   7.759  11.966
11972W        W81787  20.166  15.616   4.323
11973W        W81788   5.844   0.876   2.335
11974W        W81789  14.194  24.656  11.505
11975W        W81790  40.531  32.050  11.594
11976W        W81791  20.224  14.609   4.318
11977W        W81792  26.460  36.419   4.340
11978W        W81793  14.339  43.321   3.695
11979W        W81794  33.994  35.442   3.223
11980W        W81795  14.760  15.785  10.542
11981W        W81796  40.367  31.091  14.292
11982W        W81797  17.113  36.022  10.556
11983W        W81798  14.699  41.020  10.465
11984W        W81799  32.925  42.969   3.725
11985W        W81800  31.595  17.564  14.957
11986W        W81801   7.188   9.815   4.654
11987W        W81802  35.983  14.182  13.061
11988W        W81803  40.373   1.371  13.336
11989W        W81804  17.762   7.297   3.379
11990W        W81805  41.830  26.160  10.600
11991W        W81806  40.802   5.741  12.415
11992W        W81807   8.287  38.980   4.598
11993W        W81808  39.372  16.232  11.486
11994W        W81809  34.926  15.789  10.950
11995W        W81810  18.564  40.864   2.667
11996W        W81811  29.495  14.774  11.434
11997W        W81812  42.482  19.776   1.808
11998W        W81813   9.766  34.891  12.879
11999W        W81814  21.216  43.964   4.303
12000W        W81815   0.962  36.569   4.710
12001W        W81816   3.337   5.378  12.862
12002W        W81817   4.342  10.852  13.938
12003W        W81818  29.590  43.957   1.423
12004W        W81819  19.190  29.960   4.808
12005W        W81820  23.000   5.415   0.802
12006W        W81821  34.431  16.226   1.231
12007W        W81822  12.818  38.034   4.780
12008W        W81823  28.129  28.081   2.773
12009W        W81824  23.598   3.897   1.216
12010W        W81825  19.771   7.210   4.169
12011W        W81826  33.546  31.949  13.498
12012W        W81827  44.864  14.146  14.327
12013W        W81828  26.028  26.195  12.066
12014W        W81829  18.711  19.768   2.892
12015W        W81830  12.341  39.980   1.215
12016W        W81831  12.744  17.586  14.489
12017W        W81832  42.409  30.482   3.265
12018W        W81833  29.038  24.054   2.715
12019W        W81834  29.531  13.712   1.756
12020W        W81835  31.488  33.108   2.187
12021W        W81836   0.779  17.576   1.299
12022W        W81837  30.018   5.863  13.468
12023W        W81838  18.055  15.706  11.556
12024W        W81839  42.488   3.432   0.836
12025W        W81840  34.071   2.953  14.409
12026W        W81841  26.065  41.821   1.891
12027W        W81842  27.588  39.471  14.305
12028W        W81843  20.553   0.964   1.840
12029W        W81844  10.252  10.665   3.230
12030W        W81845   3.885   5.337   2.308
12031W        W81846   1.816  11.370  14.858
12032W        W81847  28.119  37.404  14.496
12033W        W81848   3.450   0.326   4.118
12034W        W81849  32.913   1.314  11.393
12035W        W81850  16.718  43.461   3.246
12036W        W81851  40.468   9.790  11.597
12037W        W81852  28.988   3.730  10.460
12038W        W81853  12.219   9.289   3.245
12039W        W81854  17.628  39.379   4.296
12040W        W81855   7.227  26.162  12.538
12041W        W81856   1.449  38.044  13.834
12042W        W81857   6.894  26.119  12.860
12043W        W81858  23.625  28.182   2.315
12044W        W81859  26.105  40.346  10.988
12045W        W81860  27.645  29.599  13.495
12046W        W81861  34.595   2.321  14.353
12047W        W81862  29.974  21.247  10.448
12048W        W81863  38.436  27.538   0.297
12049W        W81864  23.180   1.746   1.831
12050W        W81865   1.449   5.376   1.296
12051W        W81866  17.159  28.172  14.418
12052W        W81867  14.640  23.569  10.944
12053W        W81868  20.223  33.109   2.752
12054W        W81869  39.960  29.045   1.751
12055W        W81870   3.946   0.434  14.995
12056W        W81871  27.957   8.654   0.797
12057W        W81872  39.511  29.524  12.859
12058W        W81873  29.553  44.442  14.407
12059W        W81874  39.409  26.512  10.945
12060W        W81875  24.620  29.442  11.015
12061W        W81876  17.572  32.619  11.931
12062W        W81877  15.289  43.866   1.398
12063W        W81878   0.253  35.518  12.880
12064W        W81879  21.574  39.479  11.420
12065W        W81880  36.516  12.308   4.343
12066W        W81881  19.096  13.658   3.166
12067W        W81882  44.848  31.618   0.442
12068W        W81883  36.485  26.671  10.948
12069W        W81884  12.186  33.514   3.172
12070W        W81885  17.122  31.641  13.380
12071W        W81886  23.723  40.352   4.243
12072W        W81887  29.078  39.883   2.850
12073W        W81888  38.468  38.326  13.867
12074W        W81889  25.145  44.771   2.301
12075W        W81890  24.688  11.781  10.432
12076W        W81891  43.775  36.489   4.268
12077W        W81892  16.088  22.661  10.093
12078W        W81893  42.796  28.573   0.776
12079W        W81894  28.500   3.340   3.282
12080W        W81895  12.251   9.260   2.189
12081W        W81896  15.267  39.441   2.408
12082W        W81897  19.690  39.839  11.402
12083W        W81898  43.394  32.551   1.758
12084W        W81899  25.182  24.145   5.207
12085W        W81900  38.395  41.032   3.322
12086W        W81901   2.949  25.973  11.018
12087W        W81902  30.625  44.872   2.373
12088W        W81903  22.684   7.906   3.275
12089W        W81904   9.755  39.375  11.874
12090W        W81905   4.259  30.156   3.374
12091W        W81906  33.604   1.836   0.404
12092W        W81907  16.200  41.388   2.179
12093W        W81908   7.372  14.635   4.146
12094W        W81909   5.396  33.950   2.838
12095W        W81910  30.044  36.999  12.839
12096W        W81911  34.104   9.238   1.723
12097W        W81912  38.558  35.918  12.926
12098W        W81913  11.767  22.551  10.469
12099W        W81914  29.448  11.623   1.417
12100W        W81915  31.014  29.988   1.811
12101W        W81916  17.687  40.959  11.610
12102W        W81917  34.041  40.429  11.476
12103W        W81918   3.284  42.342  13.929
12104W        W81919  25.053  44.480  11.080
12105W        W81920  43.468  15.263  11.869
12106W        W81921  13.782   6.720   3.711
12107W        W81922  29.518  39.513  12.836
12108W        W81923  43.342  35.576  12.056
12109W        W81924  26.672  11.727   4.186
12110W        W81925  36.946   5.326  11.407
12111W        W81926  37.912  38.035  12.092
12112W        W81927  10.784  22.081   1.874
12113W        W81928  42.347   0.848   4.326
12114W        W81929  38.013  24.071   2.237
12115W        W81930  17.295   2.298   3.183
12116W        W81931  38.026  35.573  13.444
12117W        W81932  23.172  26.467  13.910
12118W        W81933  28.627  20.086   1.738
12119W        W81934  20.684  29.664  14.448
12120W        W81935  25.122  20.536  10.506
12121W        W81936  38.875  37.052   0.482
12122W        W81937   2.923  25.634   1.811
12123W        W81938  31.034  29.032  11.477
12124W        W81939   0.878  37.973   4.664
12125W        W81940   7.240  32.046  14.351
12126W        W81941  34.383  10.746   2.273
12127W        W81942  22.018  41.519   4.674
12128W        W81943  38.344  28.510  14.910
12129W        W81944  12.288  12.677  10.591
12130W        W81945  44.003   5.262  13.048
12131W        W81946  32.096  10.325  14.935
12132W        W81947   7.315  18.707   1.341
12133W        W81948   6.846  32.000  14.354
12134W        W81949  23.994   2.247   2.765
12135W        W81950   7.238  33.965   3.821
12136W        W81951   4.907  35.068   2.856
12137W        W81952  23.233  43.413   0.770
12138W        W81953  36.068  38.865  12.420
12139W        W81954  17.142  23.586  11.532
12140W        W81955   4.317  12.833  11.116
12141W        W81956  38.551  30.992  11.493
12142W        W81957  21.163   7.300   4.831
12143W        W81958  21.585  26.102   2.211
12144W        W81959   8.166  40.329   1.746
12145W        W81960  29.006  25.499   0.764
12146W        W81961  15.795  15.735   4.272
12147W        W81962  27.646  10.853  14.325
12148W        W81963  27.021  15.327   2.359
12149W        W81964  31.571  15.722  13.463
12150W        W81965  37.473  10.816   0.322
12151W        W81966   6.853  13.686  12.980
12152W        W81967   6.245  32.053  10.622
12153W        W81968  37.554   7.832   5.214
12154W        W81969  14.770  14.749  13.888
12155W        W81970  10.179  30.960   4.151
12156W        W81971  21.213  40.867   4.752
12157W        W81972  31.044  13.669  14.502
12158W        W81973  16.174  21.535   2.843
12159W        W81974  13.693  37.492  14.378
12160W        W81975   6.250  38.893  14.427
12161W        W81976   2.382  18.162   2.389
12162W        W81977   5.891  11.173  13.820
12163W        W81978  17.062   0.410  12.513
12164W        W81979  14.729   1.969   0.770
12165W        W81980  31.566  35.557   0.929
12166W        W81981  19.253  18.285   1.223
12167W        W81982   6.196  30.946  12.476
12168W        W81983  14.658  17.736   3.239
12169W        W81984  18.102  25.021  14.823
12170W        W81985  30.459  19.573   3.234
12171W        W81986  37.020  25.134  13.040
12172W        W81987  19.587  32.539  10.498
12173W        W81988  28.031  23.508   3.737
12174W        W81989  35.045  21.542  12.910
12175W        W81990   7.314  23.985   2.884
12176W        W81991   0.864   6.728   1.234
12177W        W81992   7.737   0.440  10.979
12178W        W81993  31.045  15.287   0.826
12179W        W81994  29.158  32.135   0.354
12180W        W81995  25.092  43.905   0.481
12181W        W81996  42.021  36.582  12.084
12182W        W81997  25.544  28.963   2.724
12183W        W81998  31.542   9.240   0.861
12184W        W81999  36.584  15.157  10.993
12185W        W82000  41.890  38.939  14.502
12186W        W82001  12.835  10.303   0.402
12187W        W82002  13.767  44.999  13.396
12188W        W82003  38.986   5.408  12.067
12189W        W82004  35.441   1.324   3.640
12190W        W82005  41.980  14.122   3.696
12191W        W82006  11.676  13.807   2.824
12192W        W82007   7.679  13.787   3.206
12193W        W82008  33.968  28.063  12.972
12194W        W82009  38.900  25.588   1.226
12195W        W82010  27.639   2.910   3.262
12196W        W82011  11.720  22.186  13.402
12197W        W82012  29.114   5.883  13.530
12198W        W82013  21.607  14.315   0.456
12199W        W82014  10.141  41.423  13.018
12200W        W82015  34.426  18.246   4.725
12201W        W82016  41.937  10.179   9.989
12202W        W82017   3.423   2.758   1.924
12203W        W82018  36.353  13.630   1.762
12204W        W82019   8.695  20.102  10.587
12205W        W82020  12.207  43.948  10.501
12206W        W82021  18.707  28.636   2.886
12207W        W82022  43.982  37.994   1.313
12208W        W82023  38.864  24.109  14.903
12209W        W82024  22.690  25.487   0.762
12210W        W82025  12.625   8.675   1.742
12211W        W82026  26.580  10.750  12.937
12212W        W82027  35.923  37.043   0.476
12213W        W82028  33.617  28.494   2.759
12214W        W82029   9.869  29.608  14.892
12215W        W82030   5.778  25.663  11.952
12216W        W82031  11.340  14.818   2.282
12217W        W82032  22.703   1.819   4.184
12218W        W82033  39.021   5.773  14.026
12219W        W82034   2.803  17.746   4.183
12220W        W82035  16.689  10.264   4.655
12221W        W82036   1.763  14.798  13.469
12222W        W82037   2.891  44.339  13.514
12223W        W82038  33.442  35.925   2.879
12224W        W82039  34.973   5.878   0.327
12225W        W82040  26.044  10.746  10.463
12226W        W82041   1.294   7.880  12.403
12227W        W82042  29.041  13.832  13.377
12228W        W82043   1.852   0.866  10.893
12229W        W82044  44.986  25.503  12.372
12230W        W82045   7.201  14.308  13.431
12231W        W82046  10.643  29.612   0.799
12232W        W82047   4.765  27.659  13.888
12233W        W82048  32.064   1.935   2.878
12234W        W82049   3.339  39.950  10.934
12235W        W82050  30.008  27.692  12.090
12236W        W82051   3.441  43.859  14.991
12237W        W82052  10.867  36.369  11.571
12238W        W82053  18.646  39.030   3.300
12239W        W82054  32.600  23.711  14.891
12240W        W82055  40.334  13.774   1.423
12241W        W82056  14.698   1.859   3.776
12242W        W82057   1.957  17.240  11.098
12243W        W82058  11.312  10.296   1.388
12244W        W82059  21.179  17.225  14.468
12245W        W82060  39.350  10.372  13.430
12246W        W82061  17.278  11.250   0.288
12247W        W82062  37.540   7.334   3.183
12248W        W82063   7.298  27.041   2.894
12249W        W82064  32.618  25.607  14.355
12250W        W82065   8.838   6.909   0.302
12251W        W82066  26.619   1.369  10.453
12252W        W82067  27.062  36.573   0.844
12253W        W82068  29.989   6.335  13.317
12254W        W82069  14.205  13.323  13.853
12255W        W82070  19.204   9.153   4.649
12256W        W82071  20.631  35.440  14.981
12257W        W82072  13.157  32.087   2.340
12258W        W82073  25.217  37.385  11.540
12259W        W82074  15.141  30.500  14.956
12260W        W82075  30.552  10.287   3.334
12261W        W82076  44.919  38.860   3.806
12262W        W82077  41.481  20.533   2.218
12263W        W82078   6.338  24.661  10.433
12264W        W82079  36.036  26.666  10.414
12265W        W82080  29.169   4.760   2.304
12266W        W82081  41.886   0.805  12.030
12267W        W82082  11.236  11.136  13.381
12268W        W82083  40.053  37.935   3.757
12269W        W82084   5.705  12.699   4.787
12270W        W82085   3.440   7.322  11.976
12271W        W82086  17.288   1.356   4.628
12272W        W82087  18.205  44.755   4.148
12273W        W82088  18.613  19.254   4.820
12274W        W82089  30.546   7.274   0.297
12275W        W82090  11.146  41.034  10.422
12276W        W82091  30.999  30.162   0.878
12277W        W82092  24.604  30.085   0.304
12278W        W82093   3.235  43.841   4.717
12279W        W82094  25.983  44.347   2.667
12280W        W82095  14.306  43.299  14.957
12281W        W82096  23.192  27.545  12.403
12282W        W82097   1.884  38.913   0.402
12283W        W82098  10.203  28.568   1.917
12284W        W82099   0.379  33.943  11.074
12285W        W82100  27.498  20.530  10.526
12286W        W82101   5.860   7.206   2.354
12287W        W82102  15.716  43.406   0.316
12288W        W82103   8.825   3.821   4.611
12289W        W82104  12.675  14.220   4.756
12290W        W82105  40.542  15.290   1.242
12291W        W82106  42.393  28.669  12.461
12292W        W82107   3.713  13.286  13.350
12293W        W82108   6.310  40.990  10.974
12294W        W82109  16.775   2.901  10.508
12295W        W82110  26.535  19.064  13.441
12296W        W82111  24.155   7.341   0.245
12297W        W82112  18.726  16.667  14.512
12298W        W82113  44.425  31.012  14.419
12299W        W82114  30.128  25.708   4.145
12300W        W82115  13.818  25.576   2.345
12301W        W82116   1.350  40.309  14.788
12302W        W82117  29.149  25.094   3.802
12303W        W82118   9.326  12.806  12.444
12304W        W82119  31.620  35.517   2.685
12305W        W82120  16.116   5.911  11.118
12306W        W82121   4.368  19.197  11.994
12307W        W82122  23.194  24.486   4.748
12308W        W82123  35.444  17.171   3.848
12309W        W82124  36.030  41.447   0.331
12310W        W82125  29.648  44.970   0.259
12311W        W82126  21.595  44.974   2.313
12312W        W82127  44.409  25.015  11.929
12313W        W82128  36.373  13.240  10.994
12314W        W82129  33.052  35.452  10.499
12315W        W82130  42.467  24.685  10.912
12316W        W82131  18.605  28.939   1.821
12317W        W82132   8.248  38.505  10.109
12318W        W82133  39.393   2.841  11.876
12319W        W82134  33.437  13.716   4.653
12320W        W82135  27.953  29.528   0.247
12321W        W82136  31.010  18.201   3.195
12322W        W82137  34.899  39.405   3.286
12323W        W82138  26.516  43.394   2.892
12324W        W82139  41.521   6.425   0.471
12325W        W82140  43.305  28.456   1.724
12326W        W82141  16.623  41.453  13.942
12327W        W82142  18.261  32.573  10.404
12328W        W82143  10.861  23.192  12.496
12329W        W82144  18.649  29.135   5.108
12330W        W82145  37.848   1.797  12.409
12331W        W82146  40.482  19.717  12.391
12332W        W82147   9.811   2.883  12.829
12333W        W82148  13.159  29.156  14.840
12334W        W82149  26.001  34.980   1.342
12335W        W82150  30.968  30.521  14.789
12336W        W82151  33.553  25.626   1.297
12337W        W82152  39.486  34.893  11.609
12338W        W82153   8.277  24.029  13.350
12339W        W82154  14.830  12.815   0.284
12340W        W82155   9.380   9.182  11.026
12341W        W82156  29.020  14.748  11.888
12342W        W82157  29.019   3.828   2.228
12343W        W82158   0.870   4.254  10.094
12344W        W82159  34.895   7.394   4.261
12345W        W82160  13.613  28.570   2.262
12346W        W82161  17.637  25.965  11.994
12347W        W82162  27.129  31.553   3.844
12348W        W82163  44.967  38.531  10.581
12349W        W82164  21.225   4.279  14.944
12350W        W82165  22.181  42.863  10.936
12351W        W82166  39.898  40.446   1.744
12352W        W82167  29.026  22.037  14.458
12353W        W82168  30.002  22.173   0.437
12354W        W82169  35.086  29.447   1.437
12355W        W82170  10.694  43.840  13.369
12356W        W82171   8.389  28.184   1.437
12357W        W82172  24.514  17.612   1.239
12358W        W82173  33.468   8.288   3.834
12359W        W82174  29.943  23.576   1.427
12360W        W82175   5.264  29.923   2.760
12361W        W82176  33.567  13.737   3.757
12362W        W82177   1.437  39.349   2.319
12363W        W82178   1.443   5.215   2.890
12364W        W82179   8.788  21.739   2.322
12365W        W82180  36.955  41.867   3.206
12366W        W82181  30.998   9.354   3.300
12367W        W82182  10.169   6.835  11.566
12368W        W82183  13.774  25.966   4.653
12369W        W82184  10.679   6.254   1.377
12370W        W82185  24.641   3.247  11.958
12371W        W82186  44.912  17.294  10.933
12372W        W82187  15.303   6.733  12.856
12373W        W82188  38.894   7.837  13.008
12374W        W82189  26.474  31.097  11.912
12375W        W82190  33.418  22.158  10.475
12376W        W82191  16.249  23.005  14.797
12377W        W82192  25.605   9.240   1.805
12378W        W82193  10.655   2.340   1.398
12379W        W82194  37.979   1.404   1.699
12380W        W82195  37.865  29.491  10.644
12381W        W82196   7.238   5.248   4.196
12382W        W82197   9.726  41.444   1.295
12383W        W82198  20.194   0.267  13.319
12384W        W82199  19.129  23.715   2.300
12385W        W82200  40.834  43.858  11.543
12386W        W82201  25.007   4.813  11.421
12387W        W82202  35.369  29.536   1.293
12388W        W82203  43.429  12.648  14.395
12389W        W82204  36.522   8.253   3.295
12390W        W82205  36.357   6.304   1.713
12391W        W82206  30.931  39.893  11.439
12392W        W82207  24.111   4.421  13.058
12393W        W82208  15.152  26.173  14.873
12394W        W82209  32.045  30.563   0.907
12395W        W82210  11.693   2.907  14.441
12396W        W82211   5.422  33.883   1.841
12397W        W82212  25.586  37.082   3.868
12398W        W82213  17.201  18.660  12.380
12399W        W82214  25.155   7.800  13.981
12400W        W82215   4.870  23.055  13.324
12401W        W82216  11.144  12.137  13.794
12402W        W82217   8.842   0.321   4.751
12403W        W82218   6.914   3.384   2.897
12404W        W82219  14.196  23.123  12.876
12405W        W82220   8.263  11.179   2.788
12406W        W82221  10.279  15.166  11.102
12407W        W82222  33.571   9.724   3.177
12408W        W82223  27.003  32.143   0.470
12409W        W82224  10.340  15.270   1.295
12410W        W82225  31.510  18.791  11.042
12411W        W82226   0.929  17.096  12.864
12412W        W82227  17.737  14.165  10.944
12413W        W82228  25.535  29.136   4.633
12414W        W82229   2.761  41.816   3.291
12415W        W82230  33.877  17.105  11.044
12416W        W82231  39.427  24.503   2.404
12417W        W82232  31.106  16.622   1.701
12418W        W82233  20.709  28.587   1.905
12419W        W82234  39.524  31.041   1.337
12420W        W82235  29.523   3.459   0.380
12421W        W82236  40.383  42.290  13.829
12422W        W82237  32.578  44.874   4.233
12423W        W82238  14.156  14.697  13.365
12424W        W82239   1.431  28.930  10.430
12425W        W82240  13.845  14.174   0.922
12426W        W82241  41.813  12.647   1.817
12427W        W82242  29.450   2.858  11.073
12428W        W82243  39.823  41.504   1.871
12429W        W82244   4.748   2.802  13.982
12430W        W82245  25.474  20.107   4.340
12431W        W82246  37.830   5.787   5.110
12432W        W82247   2.947   1.474  12.366
12433W        W82248  20.734  41.951  10.908
12434W        W82249  21.572   0.414   1.778
12435W        W82250  34.867  11.737   5.256
12436W        W82251   0.918  29.094   0.413
12437W        W82252  23.069  32.103  11.593
12438W        W82253   6.778  31.495  10.493
12439W        W82254  36.459  22.689  12.580
12440W        W82255   0.901   2.780  13.313
12441W        W82256  30.991  20.617   2.387
12442W        W82257  12.272   8.179   1.845
12443W        W82258  39.920   4.911  10.623
12444W        W82259  30.016  12.300   4.743
12445W        W82260   2.848  21.116  13.810
12446W        W82261  44.387  13.121  10.626
12447W        W82262  22.075  37.514  14.513
12448W        W82263  22.511  21.588   1.370
12449W        W82264  18.099   5.261  10.474
12450W        W82265   4.404  27.144  12.828
12451W        W82266  33.525  31.044  12.461
12452W        W82267  32.109   9.758   4.744
12453W        W82268   1.470  33.424   3.281
12454W        W82269  39.511  28.661  14.355
12455W        W82270   6.847  26.973  12.868
12456W        W82271  41.799   7.391  10.033
12457W        W82272  27.542  36.436   0.409
12458W        W82273  24.603  39.926   4.800
12459W        W82274  44.314  42.813   3.714
12460W        W82275  18.610  19.056  14.026
12461W        W82276  27.491  26.164   1.759
12462W        W82277  29.440  29.571  11.520
12463W        W82278   2.831  35.033   2.272
12464W        W82279  37.409  33.972   2.374
12465W        W82280  36.406  27.545   0.384
12466W        W82281  11.174  14.722   1.410
12467W        W82282  30.446  43.344  12.885
12468W        W82283  44.410   8.351   5.199
12469W        W82284  33.483  15.161  10.926
12470W        W82285   7.857   7.384  11.405
12471W        W82286  17.103   0.422   3.724
12472W        W82287  28.461  44.756  12.882
12473W        W82288  40.485  21.563   0.842
12474W        W82289  27.638   6.902  11.085
12475W        W82290  38.514  40.451  12.469
12476W        W82291  31.628  34.579  14.497
12477W        W82292   6.831  43.414   3.856
12478W        W82293  29.657  23.670  13.316
12479W        W82294   3.458  21.596  14.499
12480W        W82295  30.088   2.249   3.661
12481W        W82296  11.298  38.062  14.955
12482W        W82297  10.376  34.524  11.478
12483W        W82298  21.134  17.167   1.929
12484W        W82299  38.421  41.416  14.999
12485W        W82300  36.572   5.285   0.353
12486W        W82301  17.686  33.409  11.126
12487W        W82302  24.616  27.683  13.047
12488W        W82303  12.728  33.573   0.789
12489W        W82304  34.086   5.720   4.337
12490W        W82305  36.581   1.371   3.368
12491W        W82306  21.121  32.607   3.376
12492W        W82307   6.266  26.668  10.094
12493W        W82308  13.786  22.503   3.281
12494W        W82309   0.901  15.290  12.393
12495W        W82310  43.398  41.002  14.897
12496W        W82311  24.632  41.339   3.859
12497W        W82312  39.858  38.516  14.357
12498W        W82313  27.147  36.439   1.295
12499W        W82314   9.392   5.357  13.825
12500W        W82315  20.718  44.483  12.959
12501W        W82316  15.615  31.424  11.578
12502W        W82317   9.783  10.769  13.919
12503W        W82318  34.461  12.187   1.738
12504W        W82319   2.293  37.381  13.519
12505W        W82320  43.313  38.871   1.317
12506W        W82321  10.716  43.954  12.086
12507W        W82322  13.707  16.658  13.481
12508W        W82323  40.486  40.015  12.346
12509W        W82324  33.920   0.390   1.426
12510W        W82325  33.591   6.254  12.829
12511W        W82326  10.851   9.878   4.185
12512W        W82327  33.130   5.293  11.478
12513W        W82328  27.477  36.843  14.811
12514W        W82329   7.337   6.822  12.939
12515W        W82330  13.232  41.030   0.289
12516W        W82331  27.983  29.541   5.115
12517W        W82332  29.171  29.653  13.426
12518W        W82333  36.361  25.172   4.696
12519W        W82334  18.632  20.238  10.411
12520W        W82335  10.819  20.542  11.087
12521W        W82336  17.671  41.962   1.873
12522W        W82337  27.007   2.259   4.312
12523W        W82338   2.879   5.901   3.722
12524W        W82339   4.757  21.247  13.910
12525W        W82340  41.899  41.811  11.878
12526W        W82341   1.756   1.922   3.349
12527W        W82342  10.738  22.997   1.242
12528W        W82343   2.307  20.188   0.796
12529W        W82344  34.052  43.280   3.670
12530W        W82345  27.561   7.843  11.404
12531W        W82346   3.354  12.139   2.715
12532W        W82347  19.658  15.702  14.317
12533W        W82348  41.008  43.417  13.018
12534W        W82349  40.394   1.472   1.835
12535W        W82350   1.810  26.487   1.236
12536W        W82351  12.686  33.504  11.573
12537W        W82352  32.014   3.374  12.527
12538W        W82353  11.222   0.858   2.313
12539W        W82354   5.198  43.342   0.943
12540W        W82355  42.500  37.419   2.873
12541W        W82356  15.317  18.193   0.908
12542W        W82357  28.602  43.917   0.431
12543W        W82358   4.919  35.414   1.241
12544W        W82359  19.251  32.427  13.923
12545W        W82360  25.587  29.978   3.701
12546W        W82361  28.077  41.412   2.278
12547W        W82362  30.633  27.969   0.305
12548W        W82363   7.842  21.160   3.341
12549W        W82364  27.555  26.098  11.953
12550W        W82365  36.044  40.388   1.723
12551W        W82366  31.513  33.949   4.153
12552W        W82367  19.675  13.800   0.328
12553W        W82368   8.350  10.307  12.417
12554W        W82369   6.281   8.809  14.483
12555W        W82370  31.905  42.005  10.444
12556W        W82371  25.536  28.494   2.288
12557W        W82372  44.350  19.643  12.885
12558W        W82373  29.527  36.580  11.924
12559W        W82374  15.125  36.915   2.201
12560W        W82375   9.337  15.779  12.342
12561W        W82376  41.393  32.622  13.473
12562W        W82377  33.947  21.649   2.255
12563W        W82378  19.647  38.972  12.482
12564W        W82379  19.274  28.134   3.208
12565W        W82380  19.158  41.980  10.501
12566W        W82381  31.446  37.043  11.921
12567W        W82382  33.889   4.741   3.661
12568W        W82383  16.572  14.258   0.739
12569W        W82384  36.977  28.653  10.418
12570W        W82385  16.602   4.326  14.925
12571W        W82386  39.552   3.871  11.908
12572W        W82387  34.896  19.069   2.303
12573W        W82388  27.612   4.300  12.499
12574W        W82389  36.960  21.089  11.461
12575W        W82390  30.972  11.314  11.483
12576W        W82391  38.068  40.459   3.736
12577W        W82392  23.585  14.142  11.387
12578W        W82393  34.558  43.404   3.781
12579W        W82394  13.200  27.552   3.232
12580W        W82395  29.999   6.800   3.827
12581W        W82396  17.744  24.031   1.444
12582W        W82397  14.296  28.670   1.743
12583W        W82398  18.616   5.789  12.487
12584W        W82399  40.960  32.595  10.479
12585W        W82400  19.094   6.734  11.959
12586W        W82401   7.199  12.237   1.306
12587W        W82402   2.351  41.309   2.391
12588W        W82403  27.624  35.459   0.843
12589W        W82404  33.580  37.854   4.277
12590W        W82405  20.215  42.522  13.871
12591W        W82406  42.378  33.457   1.348
12592W        W82407  34.399  42.347  13.947
12593W        W82408  37.384  30.950  10.409
12594W        W82409  14.145   3.848   1.219
12595W        W82410  22.086  21.652   4.282
12596W        W82411  22.509  12.323  13.980
12597W        W82412  13.792   1.286  14.769
12598W        W82413  11.290  40.986  11.021
12599W        W82414  40.522   7.245   4.691
12600W        W82415  26.463  36.098  13.547
12601W        W82416  29.960  33.516  14.490
12602W        W82417  18.585  29.555  14.833
12603W        W82418  33.980  41.351  13.990
12604W        W82419  30.055   0.818   4.810
12605W        W82420  39.957  39.834  11.912
12606W        W82421  25.623  34.374  13.873
12607W        W82422   0.750  41.429   0.940
12608W        W82423   3.779  44.289  10.940
12609W        W82424  31.442  27.466   3.371
12610W        W82425  14.173  33.108  14.805
12611W        W82426  19.220  34.884   3.275
12612W        W82427  44.392  41.796  13.940
12613W        W82428   8.212  18.777   4.116
12614W        W82429  15.698   4.340  13.021
12615W        W82430  36.490   1.383  14.965
12616W        W82431   4.237  16.101  14.333
12617W        W82432  40.410  17.183  11.927
12618W        W82433   8.195  17.175  12.988
12619W        W82434   0.250  27.158   3.309
12620W        W82435  15.796  44.788  13.415
12621W        W82436  25.975  14.323  13.018
12622W        W82437  22.132  39.384   0.325
12623W        W82438  39.323  16.797  10.466
12624W        W82439  30.467   6.814  12.383
12625W        W82440  40.851   7.355   4.823
12626W        W82441  41.011  15.309  12.067
12627W        W82442  30.559  40.909  12.468
12628W        W82443  12.683  14.298   0.301
12629W        W82444   9.156   6.904  13.818
12630W        W82445  23.008  11.694   2.232
12631W        W82446   2.232  32.569  13.856
12632W        W82447   0.921  12.209  10.462
12633W        W82448  18.202  30.435   1.858
12634W        W82449  19.662  18.284  12.515
12635W        W82450   2.796  15.303   3.707
12636W        W82451  35.560  30.490  12.391
12637W        W82452  44.497  17.801  14.502
12638W        W82453  20.663  34.406   4.810
12639W        W82454  40.005  29.157   1.261
12640W        W82455   1.948  22.647  12.944
12641W        W82456  27.460   2.283  11.430
12642W        W82457   7.256   7.194  11.371
12643W        W82458  42.001   5.232  13.509
12644W        W82459  40.496  30.497  10.547
12645W        W82460   1.428   0.984  13.913
12646W        W82461  15.249  19.749  13.421
12647W        W82462  15.666   5.824   4.288
12648W        W82463   1.307  38.024   3.167
12649W        W82464  33.971  38.856  11.115
12650W        W82465  39.551   6.302  14.858
12651W        W82466  24.123  24.594  13.929
12652W        W82467   9.184  37.980  14.422
12653W        W82468  43.275  13.347   1.398
12654W        W82469  24.549  27.602   3.647
12655W        W82470  34.490  38.911  13.342
12656W        W82471  41.006  33.892   4.672
12657W        W82472  26.612  32.066  12.505
12658W        W82473  31.606  19.148  14.824
12659W        W82474   9.260  24.017   0.884
12660W        W82475   0.922  10.690   0.305
12661W        W82476  44.971  19.268   1.700
12662W        W82477  44.300   3.898   3.688
12663W        W82478   0.489  30.485   1.270
12664W        W82479   9.857  22.627  13.005
12665W        W82480  37.335  32.904   9.528
12666W        W82481  36.874  35.035   3.646
12667W        W82482  17.102   9.393  13.007
12668W        W82483  28.954  22.670  10.905
12669W        W82484  39.504  12.358  11.127
12670W        W82485  12.153  23.716   2.375
12671W        W82486  28.042  29.059  13.456
12672W        W82487  15.203  15.636   0.907
12673W        W82488  22.189  11.666  10.580
12674W        W82489  36.551   7.396   1.212
12675W        W82490  21.241  27.644  14.360
12676W        W82491  21.250   3.895  14.326
12677W        W82492  24.098  43.850  10.462
12678W        W82493  40.334  35.889   4.278
12679W        W82494  18.166  33.092  13.997
12680W        W82495  26.045   1.471   2.855
12681W        W82496   2.426   6.230   0.382
12682W        W82497  37.942  12.828  11.404
12683W        W82498  36.383  31.486   5.570
12684W        W82499  42.519  38.988   2.856
12685W        W82500  35.387   7.366  11.071
12686W        W82501   2.751  29.477  12.030
12687W        W82502  39.322  17.622   1.306
12688W        W82503  44.454  42.337  13.029
12689W        W82504  42.898  38.551  11.375
12690W        W82505  20.556  28.666  11.584
12691W        W82506   8.818  39.379   1.278
12692W        W82507  23.159  37.038  14.876
12693W        W82508  36.086   5.706   0.862
12694W        W82509  43.510  31.966  13.995
12695W        W82510  32.985  39.004  13.941
12696W        W82511   6.843  43.816  11.412
12697W        W82512  13.712  31.902   4.118
12698W        W82513   3.815  19.539   2.734
12699W        W82514   6.739  37.895  14.867
12700W        W82515   9.675  27.194   0.834
12701W        W82516  16.783  31.638  13.035
12702W        W82517  39.979   1.772   1.380
12703W        W82518  39.960  22.514   0.282
12704W        W82519  14.732   1.255   1.766
12705W        W82520  36.070  30.938   4.248
12706W        W82521  20.744  37.560  14.025
12707W        W82522  37.928  22.060  14.411
12708W        W82523  14.834   7.288   3.311
12709W        W82524   0.362  23.990   3.375
12710W        W82525  21.520  23.727  10.914
12711W        W82526  36.483  20.188   0.440
12712W        W82527  29.469  38.451   0.964
12713W        W82528  39.537  27.119  13.376
12714W        W82529  24.636   8.755  12.529
12715W        W82530  23.687  13.153  11.006
12716W        W82531  44.974  30.002  14.960
12717W        W82532  37.921  15.295   0.886
12718W        W82533  22.178  27.126   4.773
12719W        W82534  11.242  13.616   3.742
12720W        W82535  15.120  41.408  14.032
12721W        W82536  29.465  43.362  13.541
12722W        W82537   9.207  30.450  15.000
12723W        W82538  26.565  31.983  10.945
12724W        W82539  36.541  32.055  12.354
12725W        W82540  14.300  17.569   3.752
12726W        W82541  16.644  11.778   2.252
12727W        W82542  12.735  34.120   4.769
12728W        W82543  24.016  35.090  10.020
12729W        W82544  13.770  29.592  12.381
12730W        W82545   0.744  39.534   3.698
12731W        W82546  13.321   1.908   5.243
12732W        W82547   6.261  21.640   4.615
12733W        W82548  43.017  19.665  12.005
12734W        W82549  23.695  10.226   2.322
12735W        W82550  21.196  38.500  12.874
12736W        W82551   6.847   6.355  14.004
12737W        W82552  27.567  25.490  12.438
12738W        W82553  15.761  22.205   0.415
12739W        W82554  19.752  24.111   5.292
12740W        W82555  31.025  36.348   0.897
12741W        W82556  23.646  38.982  12.866
12742W        W82557  10.845  15.611  10.417
12743W        W82558  21.754   5.375  13.943
12744W        W82559  19.165   7.263   1.754
12745W        W82560   9.264  16.572   1.837
12746W        W82561  16.201  16.248  11.591
12747W        W82562  25.598   6.688  12.084
12748W        W82563  19.549  37.973  11.438
12749W        W82564  24.483  25.157   4.314
12750W        W82565  33.983  33.409  14.292
12751W        W82566  37.488  10.678  13.998
12752W        W82567  25.133  25.627  14.958
12753W        W82568  16.660  26.696   3.638
12754W        W82569   3.865  39.349   1.229
12755W        W82570  11.799  24.713  11.876
12756W        W82571   2.325  12.836  13.994
12757W        W82572  14.264   8.711  12.560
12758W        W82573  32.545  15.307  11.510
12759W        W82574  12.201  11.343   0.436
12760W        W82575  13.642  38.545  14.368
12761W        W82576  17.288  24.711   3.236
12762W        W82577  15.109  23.715   4.164
12763W        W82578   2.317  39.005   1.746
12764W        W82579   8.829  32.587  14.844
12765W        W82580   2.812  38.386   0.249
12766W        W82581   1.953  38.393  11.519
12767W        W82582  33.040   2.319   0.913
12768W        W82583   5.256  33.107  13.798
12769W        W82584  34.385   5.800   4.274
12770W        W82585  26.108  17.122  13.420
12771W        W82586  39.938  29.600   1.233
12772W        W82587  21.185   9.253  11.868
12773W        W82588   8.277  18.118  12.950
12774W        W82589  42.942  13.678  13.828
12775W        W82590  19.670  12.773  10.627
12776W        W82591   0.425  24.527   2.829
12777W        W82592  17.237  21.544  10.578
12778W        W82593  10.775   3.744  11.544
12779W        W82594  43.402   7.895  11.012
12780W        W82595  41.423  11.370  14.946
12781W        W82596  41.322  42.493   2.795
12782W        W82597  35.955  34.875   4.322
12783W        W82598   6.424  29.473   3.828
12784W        W82599  26.477  18.639   3.645
12785W        W82600  15.124  16.735  13.051
12786W        W82601   4.248  36.498   1.788
12787W        W82602  35.426  37.543  13.375
12788W        W82603  12.669   2.758   0.727
12789W        W82604  44.402  31.462  14.973
12790W        W82605  23.095  35.376   3.235
12791W        W82606  40.839  38.387  12.824
12792W        W82607  29.638  37.000  13.986
12793W        W82608  22.016   9.662   3.826
12794W        W82609  42.974   3.746  11.079
12795W        W82610  26.692  21.604   0.358
12796W        W82611  23.630   5.385  14.002
12797W        W82612  37.886   7.721  10.562
12798W        W82613   8.381  36.384   3.339
12799W        W82614  39.480  10.723  11.089
12800W        W82615  34.058   3.280   2.777
12801W        W82616  21.092   6.205   1.903
12802W        W82617  23.139  33.544  14.362
12803W        W82618   8.251  28.442  14.991
12804W        W82619  43.451   1.876   0.362
12805W        W82620  23.028   5.277  10.445
12806W        W82621  25.190  35.421  14.790
12807W        W82622  20.609  16.584   1.917
12808W        W82623  30.080  15.653   1.863
12809W        W82624   6.225  37.525  10.049
12810W        W82625   4.752  30.007   3.208
12811W        W82626   9.737   9.300  12.422
12812W        W82627  22.015   9.747   4.693
12813W        W82628  34.545  44.286   2.838
12814W        W82629  13.757  21.686  11.916
12815W        W82630  33.417   7.842   4.152
12816W        W82631  18.085  14.330  11.979
12817W        W82632  15.668   7.305   9.978
12818W        W82633  24.000  15.162   0.730
12819W        W82634  26.653  34.943  11.066
12820W        W82635  38.381  43.834   4.298
12821W        W82636  35.600   6.340  14.325
12822W        W82637  22.713  43.863   4.325
12823W        W82638  12.821  39.356   3.235
12824W        W82639  32.027  36.878   3.739
12825W        W82640  28.506  26.966   4.667
12826W        W82641  22.157  27.616  11.465
12827W        W82642  13.601  44.796  11.920
12828W        W82643  25.658  26.138  10.964
12829W        W82644   8.205  42.337   1.814
12830W        W82645  24.615  18.100   3.169
12831W        W82646   8.660  21.063  11.103
12832W        W82647  39.032  19.659  11.603
12833W        W82648   4.374   5.694  12.534
12834W        W82649  23.511  35.427   0.915
12835W        W82650  27.690  42.005   1.228
12836W        W82651  21.516   0.973  10.548
12837W        W82652  11.738  37.360   5.109
12838W        W82653  15.323  35.582  11.977
12839W        W82654   1.824  13.754  10.545
12840W        W82655   4.892   5.932   3.771
12841W        W82656  14.822  12.305  13.932
12842W        W82657  31.531  13.339  14.448
12843W        W82658  44.881   0.361   1.817
12844W        W82659  10.236  44.396   4.224
12845W        W82660  32.004  31.096   2.734
12846W        W82661  43.479  18.718   0.850
12847W        W82662  23.499  42.975  10.636
12848W        W82663   2.752  39.467   2.412
12849W        W82664  33.470   1.476  14.968
12850W        W82665  17.281  15.248  12.042
12851W        W82666  19.157   4.745  12.552
12852W        W82667  39.979   4.413   0.324
12853W        W82668  41.851  38.006   4.225
12854W        W82669  19.079  25.704   4.826
12855W        W82670  13.165   7.207  12.482
12856W        W82671  15.634  40.346   4.347
12857W        W82672  34.986   9.867   1.294
12858W        W82673  32.887   8.174  14.364
12859W        W82674  35.968  14.217   0.385
12860W        W82675   2.472  29.665  11.515
12861W        W82676  12.621   2.409   4.178
12862W        W82677   6.922   7.743   0.372
12863W        W82678  14.827  29.611  11.091
12864W        W82679  39.956  16.620  14.983
12865W        W82680  19.089   4.835   3.843
12866W        W82681  13.685  41.372   1.758
12867W        W82682  29.533  35.037  11.579
12868W        W82683   0.401  11.216  13.428
12869W        W82684   7.689  18.546  12.062
12870W        W82685  33.991  18.615   1.821
12871W        W82686  17.670  24.618  13.810
12872W        W82687  20.755  23.727   2.691
12873W        W82688  30.004  36.967  10.533
12874W        W82689  22.608  39.972   1.790
12875W        W82690   4.929  23.689   2.874
12876W        W82691  16.160  37.903  13.428
12877W        W82692  26.195  38.521   1.729
12878W        W82693  39.933  35.044  11.927
12879W        W82694  15.235  35.422   4.124
12880W        W82695  29.140  39.905   3.211
12881W        W82696  24.546  38.347   1.896
12882W        W82697  33.103  31.057   0.913
12883W        W82698  30.163  35.017   4.607
12884W        W82699  13.175  21.585   2.179
12885W        W82700  41.299  13.305   1.249
12886W        W82701  18.718  22.620   2.223
12887W        W82702  21.053   9.688   4.320
12888W        W82703  24.103  33.544   4.801
12889W        W82704  14.814  17.246  11.374
12890W        W82705  23.644  42.374   3.670
12891W        W82706  15.174   7.364   4.789
12892W        W82707  18.701  35.106   2.388
12893W        W82708   9.716  35.093  13.542
12894W        W82709   8.844  35.915   2.801
12895W        W82710  19.631  23.029  11.114
12896W        W82711  35.005   5.728  11.872
12897W        W82712   0.428  23.686  11.119
12898W        W82713  21.625  11.624  11.484
12899W        W82714  17.598  23.005   0.748
12900W        W82715   8.387  34.518   1.316
12901W        W82716  20.612  33.944   2.663
12902W        W82717  32.949   8.870  12.918
12903W        W82718  18.072  19.658   4.605
12904W        W82719  21.064  41.376  10.505
12905W        W82720  19.256   6.298  10.923
12906W        W82721  22.628   4.220  10.584
12907W        W82722  34.580  24.706   1.778
12908W        W82723   1.835  42.420   1.928
12909W        W82724  31.122  38.036   4.262
12910W        W82725  23.053  32.528   1.283
12911W        W82726  16.140  36.436   1.400
12912W        W82727  13.837  23.160   0.796
12913W        W82728  28.013  20.202  11.966
12914W        W82729  24.047  24.520  11.021
12915W        W82730  34.510  35.411  14.911
12916W        W82731   8.736  12.805  12.575
12917W        W82732   5.839  21.533  12.924
12918W        W82733  38.983  25.084   4.280
12919W        W82734   3.857  10.791   4.674
12920W        W82735   7.725  43.322   1.800
12921W        W82736  26.543   9.767   4.217
12922W        W82737  17.189  18.711  11.967
12923W        W82738  19.105  28.528   0.371
12924W        W82739  25.552   5.722   1.253
12925W        W82740  19.645   0.773   2.260
12926W        W82741   0.489  38.963  12.832
12927W        W82742  23.493  36.566  12.835
12928W        W82743   6.332  20.203  12.957
12929W        W82744  27.122   0.281  13.061
12930W        W82745  14.739  39.505   3.278
12931W        W82746  30.488   1.341  11.561
12932W        W82747  14.228   7.846  14.820
12933W        W82748  19.635  30.644  10.024
12934W        W82749  33.605   7.845  12.475
12935W        W82750   8.316  34.381  10.492
12936W        W82751  15.118  14.725  13.982
12937W        W82752   4.223  28.450  12.477
12938W        W82753   1.955  42.372   3.310
12939W        W82754  35.404  36.981   2.791
12940W        W82755  27.978  17.642  12.063
12941W        W82756  34.960  42.994  14.281
12942W        W82757  10.695   9.214   0.790
12943W        W82758   5.394  36.001   1.290
12944W        W82759   7.299  37.891  14.411
12945W        W82760  30.069   2.412  14.825
12946W        W82761  27.189  14.315  11.054
12947W        W82762  21.112  37.927   1.834
12948W        W82763  18.136  11.334   4.215
12949W        W82764  32.086  40.432  12.506
12950W        W82765  30.563  34.542   4.638
12951W        W82766   0.353  30.010  13.321
12952W        W82767  11.840  30.987  10.604
12953W        W82768  32.628   0.982   4.246
12954W        W82769  38.486  41.862  11.031
12955W        W82770  16.257  22.560  12.577
12956W        W82771  38.834  42.881   1.425
12957W        W82772  42.941  44.924  14.979
12958W        W82773  15.729  39.043   4.772
12959W        W82774  16.222  41.986  10.632
12960W        W82775   5.264  29.480   2.321
12961W        W82776  14.150  26.556   0.363
12962W        W82777  25.053   3.857  11.109
12963W        W82778  33.619  25.576   0.728
12964W        W82779  38.944  31.930   4.219
12965W        W82780  42.840  41.397  11.488
12966W        W82781  31.948   2.816  12.843
12967W        W82782  35.854  16.650   2.233
12968W        W82783   2.316  21.575   4.790
12969W        W82784   0.791  29.927   2.876
12970W        W82785   3.778  33.576   2.389
12971W        W82786  43.443  18.182   4.737
12972W        W82787  20.549  14.322  10.892
12973W        W82788   9.655  27.016  13.532
12974W        W82789  12.343  22.591   4.173
12975W        W82790  28.556  32.570  13.321
12976W        W82791  34.063  24.670   4.733
12977W        W82792  15.618  39.831  11.600
12978W        W82793   9.334   0.935   3.194
12979W        W82794   2.362  26.538  10.564
12980W        W82795  31.484  26.087  13.505
12981W        W82796  36.565  37.356   1.825
12982W        W82797  28.963  34.468   0.424
12983W        W82798   2.253  31.941  12.446
12984W        W82799  43.399   5.368  12.424
12985W        W82800   8.827   4.730   2.350
12986W        W82801   0.300  24.532  10.558
12987W        W82802  21.702  20.690   3.229
12988W        W82803  31.528  39.339  10.938
12989W        W82804   0.458  36.418   3.748
12990W        W82805  41.328  12.194   4.330
12991W        W82806   2.457  43.821  13.898
12992W        W82807  43.821  29.945   1.291
12993W        W82808  29.593  23.656  12.454
12994W        W82809  15.122   2.253   3.697
12995W        W82810   5.774  34.418   3.841
12996W        W82811   9.701   2.743   4.115
12997W        W82812   4.450  31.592   4.699
12998W        W82813  36.984  40.480   1.440
12999W        W82814  11.695  28.168   9.986
13000W        W82815  18.086  13.835   2.336
13001W        W82816  27.075  43.280   3.252
13002W        W82817  42.943  24.020  11.095
13003W        W82818  24.509   2.466  10.598
13004W        W82819  32.062  36.435   2.320
13005W        W82820   0.905   6.800  12.971
13006W        W82821  38.922  35.017   2.895
13007W        W82822  30.554  38.360  14.324
13008W        W82823  23.545  18.266   2.763
13009W        W82824  13.270   8.317   3.308
13010W        W82825  44.889  38.830   1.757
13011W        W82826   8.374  30.547  12.976
13012W        W82827   0.943   3.884  13.338
13013W        W82828   5.425  39.063   2.871
13014W        W82829  40.960  41.040  10.920
13015W        W82830  18.598  25.132   1.338
13016W        W82831  36.847  39.320   3.345
13017W        W82832   6.705   9.809  13.931
13018W        W82833  22.246  42.819   4.192
13019W        W82834   3.821  43.333   2.843
13020W        W82835  23.519  25.525  14.462
13021W        W82836  34.118   9.384  11.447
13022W        W82837   8.836  12.165   0.481
13023W        W82838  34.415  21.537  11.942
13024W        W82839  12.712  31.498   1.705
13025W        W82840  34.553  26.486  11.997
13026W        W82841  33.494   1.746  12.852
13027W        W82842  26.504   8.658   4.226
13028W        W82843  38.326  11.207   2.285
13029W        W82844   6.316   2.305   1.723
13030W        W82845  14.171  44.818   3.268
13031W        W82846  34.401  27.195  12.861
13032W        W82847   3.922   8.765   2.772
13033W        W82848  24.083  11.286   1.216
13034W        W82849  15.674   6.878  11.029
13035W        W82850  19.685  22.138  10.502
13036W        W82851  31.963  11.652   4.624
13037W        W82852  35.556  29.573   4.193
13038W        W82853  16.665  26.183  12.379
13039W        W82854   1.369  19.118  12.945
13040W        W82855  15.226  33.018   4.228
13041W        W82856   4.769   0.836  13.534
13042W        W82857   2.886   2.424   1.852
13043W        W82858  27.178   0.323  12.003
13044W        W82859  22.045  28.630  14.993
13045W        W82860  29.614  38.479   4.129
13046W        W82861  19.750   6.821  11.048
13047W        W82862  41.394  15.104   3.376
13048W        W82863  11.148  41.881   3.780
13049W        W82864  19.174  19.756   1.924
13050W        W82865  30.080   0.925   4.198
13051W        W82866  41.868  13.111  12.995
13052W        W82867  24.681  34.904   1.423
13053W        W82868   4.320  11.745  12.514
13054W        W82869  30.554  33.526  10.560
13055W        W82870  30.497  16.792   2.841
13056W        W82871  16.229  26.982  12.561
13057W        W82872   7.812  24.158  14.468
13058W        W82873  41.521  35.509   3.184
13059W        W82874   6.913  19.246  10.959
13060W        W82875  19.647   4.318   1.871
13061W        W82876  15.579   3.343   5.198
13062W        W82877  35.065  41.392  10.112
13063W        W82878  20.219  18.168  14.459
13064W        W82879  35.381  19.214   0.803
13065W        W82880   7.372  30.082   4.339
13066W        W82881  23.735  39.878   1.827
13067W        W82882   0.791  10.325  12.467
13068W        W82883  29.544  14.767  13.498
13069W        W82884  22.601  17.299  12.026
13070W        W82885  36.927  34.006   5.287
13071W        W82886  36.402   9.216  14.861
13072W        W82887   4.230  43.839   1.318
13073W        W82888   3.262  30.108  14.509
13074W        W82889  22.726  37.873   0.901
13075W        W82890  41.461  16.694  11.393
13076W        W82891   1.261  44.267  12.568
13077W        W82892  28.021   4.812  11.884
13078W        W82893  43.883  21.020  14.932
13079W        W82894  24.705  27.123   0.336
13080W        W82895   4.258  36.388   3.853
13081W        W82896  29.159  29.963   2.401
13082W        W82897  40.908  42.292  10.567
13083W        W82898  31.431   0.836  12.414
13084W        W82899   4.808  37.400  14.363
13085W        W82900   5.309  25.486  11.046
13086W        W82901  23.494  41.428  11.549
13087W        W82902  42.446   3.786  10.581
13088W        W82903   2.922  13.654  12.512
13089W        W82904  20.206   9.215  13.868
13090W        W82905  11.174   2.283  11.984
13091W        W82906  16.717  20.659   1.750
13092W        W82907  29.971  32.121  14.773
13093W        W82908  38.391   8.717   0.745
13094W        W82909  35.861   0.450   0.959
13095W        W82910  23.065  28.665  13.545
13096W        W82911  12.653   2.329   0.948
13097W        W82912   8.872  28.075  11.058
13098W        W82913  16.751  19.196   2.277
13099W        W82914  40.888   6.914   0.406
13100W        W82915  44.286   1.299  13.397
13101W        W82916  24.722  31.934   3.230
13102W        W82917   1.970  11.188   1.233
13103W        W82918  43.481  18.556   2.243
13104W        W82919   3.776  18.086  10.489
13105W        W82920   1.263  44.367  14.392
13106W        W82921   4.893  17.596  12.399
13107W        W82922   2.909  35.439   4.346
13108W        W82923  27.993  34.615  13.511
13109W        W82924  25.563  30.082   2.784
13110W        W82925  33.443  30.626   0.430
13111W        W82926   2.937  21.024   1.910
13112W        W82927  19.247  23.219   1.718
13113W        W82928  23.043  24.595  11.509
13114W        W82929  30.622   9.880   0.280
13115W        W82930   0.827  39.053  14.820
13116W        W82931  23.696  37.572  13.355
13117W        W82932   3.276  22.537  14.449
13118W        W82933  35.367  32.535  12.439
13119W        W82934  21.190  42.335  12.911
13120W        W82935   4.226  27.942  11.612
13121W        W82936  34.913   6.836   3.842
13122W        W82937  17.078  25.676  10.548
13123W        W82938  28.659  20.133   0.264
13124W        W82939  39.009  32.561  14.353
13125W        W82940  20.669   4.354  11.611
13126W        W82941  20.081  24.535  12.090
13127W        W82942  27.566  28.075   3.173
13128W        W82943  37.855   6.704  13.393
13129W        W82944  41.966   6.411  11.585
13130W        W82945  19.133  25.495   3.851
13131W        W82946  20.084  33.585  13.363
13132W        W82947  42.295  22.223   1.224
13133W        W82948  22.504  23.685  14.389
13134W        W82949  12.717  40.415  10.897
13135W        W82950  34.906  42.866  12.436
13136W        W82951   1.331  44.360  11.070
13137W        W82952   4.825  21.745  12.050
13138W        W82953  39.018  40.397  14.963
13139W        W82954  19.141  30.112  11.375
13140W        W82955  24.651  11.321   0.928
13141W        W82956  42.778  12.690   0.433
13142W        W82957  41.889  29.159  12.973
13143W        W82958  40.997  24.211  13.047
13144W        W82959  22.519  11.146  14.011
13145W        W82960  23.102  10.368   4.194
13146W        W82961  10.840  36.849   4.287
13147W        W82962   6.414  41.962   1.876
13148W        W82963  14.784  24.571   4.171
13149W        W82964  28.089   4.884   3.370
13150W        W82965   7.237  26.996  12.882
13151W        W82966  22.071   3.739  12.419
13152W        W82967  39.931  19.702   2.299
13153W        W82968  36.413  44.821   3.799
13154W        W82969  42.469  33.881  11.579
13155W        W82970  17.259  34.971   2.838
13156W        W82971   6.401  33.981  14.955
13157W        W82972  38.836  10.359  11.922
13158W        W82973  18.754   1.337  11.938
13159W        W82974   1.907   6.765   3.655
13160W        W82975   4.418  14.708   3.631
13161W        W82976  31.545   5.781  11.545
13162W        W82977  26.138  43.827   1.321
13163W        W82978  10.233   2.854   3.846
13164W        W82979  11.164   0.789  14.384
13165W        W82980  41.934  44.928   1.330
13166W        W82981  17.739  15.664  10.494
13167W        W82982   6.921  13.651   2.346
13168W        W82983   2.775  14.129  12.844
13169W        W82984  23.137  43.391   3.714
13170W        W82985   7.250  36.462   4.796
13171W        W82986   7.230   9.370   0.760
13172W        W82987  23.083   5.884  14.014
13173W        W82988  35.370  33.490  12.376
13174W        W82989  19.628  34.888  11.008
13175W        W82990  18.259  13.220   0.897
13176W        W82991  12.738  44.845   2.808
13177W        W82992   4.928   5.300  14.816
13178W        W82993  38.911  14.642  12.826
13179W        W82994   2.844  42.287   1.829
13180W        W82995  28.140  13.317  14.890
13181W        W82996   5.784  44.369   3.170
13182W        W82997  41.001  44.304  14.291
13183W        W82998  31.618   5.253   4.810
13184W        W82999  32.046   8.191   1.779
13185W        W83000  12.755  22.029  10.558
13186W        W83001  20.570  38.343  11.443
13187W        W83002  27.635  19.564   4.196
13188W        W83003   4.322  44.361  13.895
13189W        W83004  21.091  15.617  12.454
13190W        W83005   3.419  19.604   4.195
13191W        W83006   0.456  17.733   1.758
13192W        W83007  37.535  40.976   1.390
13193W        W83008  44.335   3.237  10.546
13194W        W83009   3.725  27.171  12.556
13195W        W83010  17.686   3.261  11.976
13196W        W83011  13.175  18.631  13.389
13197W        W83012  33.465   6.692   0.753
13198W        W83013   7.249  40.049   3.711
13199W        W83014   6.325  28.655  14.431
13200W        W83015  43.807   7.173   3.737
13201W        W83016  12.680  12.303  11.530
13202W        W83017  10.208  30.917  13.909
13203W        W83018  19.205  28.446   1.328
13204W        W83019  11.279  17.174  11.872
13205W        W83020   8.324  21.610   2.685
13206W        W83021  18.213   0.253  13.967
13207W        W83022  17.606  15.757  12.846
13208W        W83023  33.982  22.697  14.953
13209W        W83024   4.773  11.727   1.849
13210W        W83025  38.059  25.196  13.004
13211W        W83026  41.804   6.291   5.143
13212W        W83027  30.987  20.634  11.962
13213W        W83028  41.864   1.455  11.573
13214W        W83029   4.389  14.331   1.341
13215W        W83030  17.145  10.735   3.276
13216W        W83031  23.109  34.449  11.513
13217W        W83032   9.363  40.394  12.916
13218W        W83033  39.509  28.120   1.330
13219W        W83034  20.650  35.899  13.044
13220W        W83035  13.739   4.213  13.009
13221W        W83036  41.324   9.318   1.414
13222W        W83037  24.050  19.581  14.408
13223W        W83038  30.584  10.757   1.841
13224W        W83039  36.380   5.728  12.967
13225W        W83040  22.626   6.816   3.295
13226W        W83041  17.592  30.101   2.753
13227W        W83042   4.915  36.845  10.448
13228W        W83043  30.154  16.078  12.365
13229W        W83044  31.097   1.941  13.325
13230W        W83045   9.381  10.208  13.982
13231W        W83046  23.639  40.942   0.872
13232W        W83047  27.025  18.667  11.888
13233W        W83048  23.605   4.905  13.335
13234W        W83049  18.790   8.852   3.735
13235W        W83050  28.998  42.517  10.415
13236W        W83051  31.058  21.197   1.781
13237W        W83052  16.576  44.418   0.898
13238W        W83053  16.185   0.329  14.295
13239W        W83054  43.927   4.389  14.421
13240W        W83055   3.296   8.262   3.251
13241W        W83056  30.465  13.208  14.509
13242W        W83057   2.298   9.311   0.366
13243W        W83058  25.653   2.756   2.414
13244W        W83059  20.135  18.291   1.323
13245W        W83060  26.962  42.512   2.413
13246W        W83061  39.027  29.554  10.632
13247W        W83062   2.859  11.137   2.220
13248W        W83063  28.637  29.169  13.464
13249W        W83064  39.510  36.860  12.917
13250W        W83065  10.182  28.480  14.021
13251W        W83066   6.390  24.138  14.990
13252W        W83067   4.382   6.253   3.728
13253W        W83068   9.375   1.239   4.789
13254W        W83069   9.296   6.881   1.891
13255W        W83070  23.054   4.864  10.512
13256W        W83071  28.178  40.358   2.228
13257W        W83072  26.545  41.438   3.839
13258W        W83073  21.701  33.597  10.443
13259W        W83074  16.639  17.096   3.759
13260W        W83075  43.322  44.962  14.499
13261W        W83076  33.465   6.919  10.005
13262W        W83077  27.561  17.103   4.749
13263W        W83078  17.689   8.883  14.516
13264W        W83079  13.633  34.604   2.351
13265W        W83080   5.425  39.403   4.706
13266W        W83081   2.824  29.609  10.539
13267W        W83082  34.988  22.112  13.315
13268W        W83083  42.334   2.869   1.220
13269W        W83084  36.367  39.977  14.981
13270W        W83085  11.127   6.679  12.956
13271W        W83086  13.629  29.602   4.328
13272W        W83087   1.466  20.088   1.901
13273W        W83088   7.366  32.547  14.383
13274W        W83089  35.912  24.630  11.575
13275W        W83090  26.676  39.543   0.347
13276W        W83091  36.498  14.632  13.852
13277W        W83092  41.514   3.411   0.461
13278W        W83093  31.519  43.409   4.719
13279W        W83094   1.396  30.971  11.049
13280W        W83095   1.846  12.302   4.771
13281W        W83096  21.585  38.495  11.467
13282W        W83097   7.266  26.602  10.112
13283W        W83098  10.698  11.255   4.658
13284W        W83099  20.268  35.909   3.671
13285W        W83100  10.185  16.588   5.781
13286W        W83101  19.646  19.183   4.326
13287W        W83102  32.428  35.045  10.520
13288W        W83103  18.127  30.461   3.219
13289W        W83104  35.453  28.447   0.290
13290W        W83105   7.900  32.443   0.947
13291W        W83106  35.887   8.837   3.819
13292W        W83107  38.382  10.766   0.303
13293W        W83108  39.481  34.525   2.336
13294W        W83109  34.865  10.818  14.993
13295W        W83110  25.620  13.644  10.439
13296W        W83111   2.312  24.641  12.414
13297W        W83112   7.287  40.491   5.095
13298W        W83113  26.626   3.916   4.623
13299W        W83114  41.935  37.561  11.496
13300W        W83115  33.066  36.941  10.489
13301W        W83116  42.374   1.887   2.368
13302W        W83117  43.861  38.013  14.923
13303W        W83118  21.167  41.838  14.997
13304W        W83119  12.199  28.596  13.857
13305W        W83120  38.848  27.664   1.881
13306W        W83121   3.435  41.975  10.604
13307W        W83122  34.409  18.272   4.127
13308W        W83123   1.807  30.646  14.401
13309W        W83124  20.198   4.365  12.504
13310W        W83125  14.147  11.191   2.701
13311W        W83126  17.607  13.183   0.276
13312W        W83127  11.683  11.146  13.943
13313W        W83128  11.755  35.575  12.095
13314W        W83129   7.756  34.915  10.623
13315W        W83130  12.661  21.145  14.894
13316W        W83131  31.898  39.375   0.254
13317W        W83132  31.411  23.559   4.676
13318W        W83133   6.338   6.711  12.958
13319W        W83134  32.909  20.261   0.477
13320W        W83135  13.186   6.248   0.255
13321W        W83136   9.689  22.159   3.339
13322W        W83137  31.009  23.574   4.643
13323W        W83138  35.093  16.800   4.795
13324W        W83139  15.192  44.413   3.238
13325W        W83140   2.803  39.853   3.380
13326W        W83141  13.716  30.493   4.607
13327W        W83142  20.630  30.520  14.408
13328W        W83143  35.870  29.475   1.415
13329W        W83144  28.118  31.545  13.449
13330W        W83145  16.073  40.362  13.370
13331W        W83146  22.615  16.168  13.988
13332W        W83147   4.763  30.111  13.909
13333W        W83148  33.956   5.247   4.130
13334W        W83149  20.028  21.748   3.681
13335W        W83150  20.145  19.274   2.800
13336W        W83151  19.267   9.734   1.835
13337W        W83152  26.482  26.017  12.913
13338W        W83153  23.690  11.796  11.538
13339W        W83154   9.808   9.873  10.628
13340W        W83155  20.200   4.889   1.298
13341W        W83156  33.490  23.204   2.357
13342W        W83157   5.828  12.698   1.380
13343W        W83158  20.534  11.318   3.321
13344W        W83159  30.940  10.670  11.118
13345W        W83160  20.159  29.458   4.774
13346W        W83161  17.268   6.722   2.867
13347W        W83162   9.659  32.099   2.395
13348W        W83163   0.842   4.784   2.663
13349W        W83164  43.367  31.148   1.378
13350W        W83165  12.680  41.791  11.858
13351W        W83166   6.734  38.956   4.623
13352W        W83167  27.654  35.008  14.287
13353W        W83168   5.303   4.365   2.894
13354W        W83169  29.992   6.408  12.827
13355W        W83170   2.772  17.638   1.288
13356W        W83171  39.047  26.650  11.000
13357W        W83172   2.424   4.785   1.917
13358W        W83173  36.543  11.134   4.263
13359W        W83174  39.347  43.403  12.000
13360W        W83175  25.061  41.497  13.457
13361W        W83176   6.695  28.487  14.437
13362W        W83177  34.885  12.726  13.964
13363W        W83178  42.443  31.422  13.042
13364W        W83179  29.066   2.743  11.536
13365W        W83180  34.413   1.974   2.850
13366W        W83181  33.132  24.655  12.497
13367W        W83182  33.056  13.799  13.465
13368W        W83183  12.144  30.059   0.482
13369W        W83184  32.537  44.420  10.903
13370W        W83185   6.407  43.862  11.019
13371W        W83186  24.226  17.084  11.541
13372W        W83187  25.048  15.250  12.413
13373W        W83188  38.506   0.410  10.158
13374W        W83189   9.185  23.711  11.881
13375W        W83190  30.508   6.316  13.031
13376W        W83191  37.438  12.201   1.777
13377W        W83192   5.843  13.842   0.325
13378W        W83193  38.992  20.678  11.070
13379W        W83194  41.475  24.480   0.408
13380W        W83195  15.779   4.273  13.344
13381W        W83196  21.575  35.404   2.830
13382W        W83197  13.137  12.804   1.435
13383W        W83198  32.119  36.995  12.347
13384W        W83199  27.631  12.276  13.857
13385W        W83200  19.612   0.946   0.445
13386W        W83201  33.911  24.497   0.483
13387W        W83202  43.814   9.162  12.561
13388W        W83203  19.755   3.365  14.426
13389W        W83204  24.175  41.992  11.421
13390W        W83205   8.769  15.594  13.001
13391W        W83206  27.542  23.674  11.070
13392W        W83207  15.252  27.604  13.982
13393W        W83208  35.941  39.448  11.947
13394W        W83209  19.110  20.158  13.428
13395W        W83210  42.293  37.572   0.750
13396W        W83211  18.559   0.250  13.807
13397W        W83212  16.259  39.018   3.815
13398W        W83213   9.382  40.004   5.726
13399W        W83214  12.182  13.139  13.796
13400W        W83215  44.362  44.009   0.755
13401W        W83216  35.432  10.696   2.778
13402W        W83217  26.612  11.820  13.883
13403W        W83218   8.655   0.312  13.528
13404W        W83219   8.221   0.830   1.233
13405W        W83220  27.025  40.409  11.004
13406W        W83221  32.934  19.765  11.859
13407W        W83222   4.239   1.342   2.877
13408W        W83223  13.805  28.630  12.427
13409W        W83224   6.717  34.947  10.966
13410W        W83225  11.162  26.479  14.460
13411W        W83226  28.170  10.230   1.347
13412W        W83227  41.987  16.642  12.049
13413W        W83228  18.690  30.938  14.512
13414W        W83229  10.186  41.845   0.419
13415W        W83230  28.518  29.100  14.025
13416W        W83231  27.565  38.037   3.253
13417W        W83232   6.216  24.495  12.393
13418W        W83233  33.393  39.482  11.564
13419W        W83234  34.996  20.037   1.445
13420W        W83235  21.046  30.454   1.876
13421W        W83236  34.113  15.696   1.337
13422W        W83237  20.729  13.316   4.185
13423W        W83238  43.773  25.621  11.963
13424W        W83239  18.698  22.162   3.164
13425W        W83240  24.088   6.388   4.292
13426W        W83241  35.508  32.489   1.734
13427W        W83242  12.813  25.088   3.770
13428W        W83243  20.719   1.751   3.763
13429W        W83244  26.986  44.901  11.525
13430W        W83245  43.846  38.842  14.348
13431W        W83246  21.183   2.782  14.764
13432W        W83247  38.914  37.489   2.212
13433W        W83248  14.236  19.636  14.877
13434W        W83249  28.555  35.904   1.394
13435W        W83250  20.534  16.712   0.885
13436W        W83251  41.371  13.796  10.485
13437W        W83252  44.888  22.010   3.829
13438W        W83253  28.627  41.401  11.060
13439W        W83254   0.453  28.477   3.778
13440W        W83255  21.679  30.505   4.168
13441W        W83256  28.541  31.023   3.828
13442W        W83257  39.976  26.499  13.002
13443W        W83258  26.095  10.371  14.428
13444W        W83259   0.839   0.300   2.393
13445W        W83260  43.505  42.013  10.422
13446W        W83261  40.410  28.559  13.989
13447W        W83262  19.186   9.172  11.856
13448W        W83263   2.954  27.020   2.257
13449W        W83264  25.710  22.538   0.462
13450W        W83265   3.216  30.609  10.508
13451W        W83266   6.877  18.061  13.485
13452W        W83267  25.615   6.822  14.909
13453W        W83268  33.880   6.323  14.869
13454W        W83269  14.117   8.251   1.887
13455W        W83270  18.245  43.887  14.022
13456W        W83271  13.697  11.759   0.746
13457W        W83272  24.624  32.597   3.355
13458W        W83273  14.811   8.250   3.632
13459W        W83274   7.409  13.718  14.882
13460W        W83275  19.153  34.979   0.961
13461W        W83276   9.245  11.348   1.409
13462W        W83277   3.934  15.611   1.391
13463W        W83278   9.369  24.538   1.232
13464W        W83279   6.836  44.446  14.512
13465W        W83280   2.316  44.281  14.807
13466W        W83281   9.758  14.200  13.374
13467W        W83282  22.048   1.466   0.436
13468W        W83283  20.611  27.028   2.697
13469W        W83284  42.874  34.953  10.615
13470W        W83285  34.573  19.535   1.804
13471W        W83286   6.227  13.845   0.889
13472W        W83287  13.351  16.291  12.399
13473W        W83288  31.402  30.015   3.340
13474W        W83289  40.800  33.075  10.900
13475W        W83290  16.138  42.442  11.428
13476W        W83291  42.516  22.737   1.318
13477W        W83292  23.665  15.096   0.803
13478W        W83293  16.668  19.086  14.955
13479W        W83294   7.772  17.658   3.826
13480W        W83295  20.625  36.556   4.218
13481W        W83296  17.785   2.292   0.311
13482W        W83297  37.925  27.594   1.762
13483W        W83298  12.821  16.643   3.198
13484W        W83299  19.264  34.885  14.476
13485W        W83300   5.732  40.958   0.311
13486W        W83301  14.774  28.490  12.943
13487W        W83302   0.303   9.654   3.322
13488W        W83303   2.726   9.275   3.705
13489W        W83304   5.344  25.478  10.422
13490W        W83305  18.226  10.851   4.797
13491W        W83306  17.748  28.102  13.461
13492W        W83307   8.405   9.387   2.411
13493W        W83308  36.586  43.853  14.416
13494W        W83309  27.462  36.003  11.394
13495W        W83310  42.817  39.958  12.965
13496W        W83311  38.944  41.346  12.905
13497W        W83312  43.879   2.882  14.421
13498W        W83313  40.969  36.914   3.263
13499W        W83314  24.492  19.636  12.097
13500W        W83315  20.177  18.240  14.841
13501W        W83316  37.445   0.926  11.402
13502W        W83317  31.899  28.957   4.638
13503W        W83318   6.762  26.052   0.399
13504W        W83319  24.635  42.404   2.780
13505W        W83320  25.620  31.967  10.963
13506W        W83321   6.749   9.773  11.938
13507W        W83322  10.291   8.209  11.549
13508W        W83323  36.428  42.784  10.541
13509W        W83324   3.247  40.447   3.195
13510W        W83325  14.639  12.769  14.417
13511W        W83326   4.368   3.366  11.449
13512W        W83327  35.962  11.318  13.846
13513W        W83328   5.790  21.175  14.890
13514W        W83329   4.331  42.818   1.415
13515W        W83330  34.046  16.669  10.552
13516W        W83331  43.362  24.042   2.669
13517W        W83332  38.416   8.189   1.356
13518W        W83333   6.330  38.826  14.930
13519W        W83334   9.167   1.970   2.695
13520W        W83335  43.817   5.698  12.886
13521W        W83336  22.524   9.296   3.739
13522W        W83337  32.123  23.526   1.284
13523W        W83338   4.856  26.646  14.483
13524W        W83339  43.875  16.261   2.801
13525W        W83340   3.736  12.788   1.321
13526W        W83341   7.889  27.684   0.966
13527W        W83342  14.139  18.771  12.865
13528W        W83343   4.812  36.961  11.981
13529W        W83344   2.242  21.051  13.799
13530W        W83345   0.379  32.080   1.428
13531W        W83346   0.476  26.011   2.697
13532W        W83347  23.692  37.386  14.759
13533W        W83348   1.299  21.047   1.904
13534W        W83349  24.674  36.533  11.105
13535W        W83350  16.593  16.791  11.434
13536W        W83351   6.880  32.556  13.798
13537W        W83352  42.958  20.529  12.509
13538W        W83353  21.735  14.124  10.566
13539W        W83354  14.324  38.956  12.476
13540W        W83355  23.670  19.628   0.966
13541W        W83356   5.279   5.266   2.291
13542W        W83357   0.879  23.167  13.897
13543W        W83358  10.736   2.447   0.397
13544W        W83359  26.956  23.069   2.309
13545W        W83360  26.956  34.462   4.623
13546W        W83361  17.611  18.778  12.043
13547W        W83362  36.946  12.322   3.361
13548W        W83363   0.391  13.249  13.031
13549W        W83364  15.299   1.465   2.682
13550W        W83365  36.984   1.451   2.224
13551W        W83366  32.045  17.755   1.826
13552W        W83367   8.329  43.773  12.022
13553W        W83368   4.406  16.781  13.545
13554W        W83369  37.054   8.734  13.794
13555W        W83370  32.636  31.153   3.150
13556W        W83371  27.481  41.309   2.386
13557W        W83372  18.637  23.130   0.750
13558W        W83373  23.685  18.066   1.875
13559W        W83374  16.213  34.474  11.567
13560W        W83375  37.015  23.610  13.006
13561W        W83376   2.466  21.026   3.715
13562W        W83377  44.011   7.281  12.881
13563W        W83378  39.484  42.900   1.330
13564W        W83379  19.627   6.907   3.755
13565W        W83380  41.334   3.309  13.474
13566W        W83381   0.374  24.176  14.948
13567W        W83382  16.684  23.992   4.749
13568W        W83383  11.269  12.217  12.932
13569W        W83384  26.696   5.699   0.836
13570W        W83385  36.546   7.818  10.445
13571W        W83386  43.483  24.706  12.078
13572W        W83387   7.884  24.990  10.551
13573W        W83388  12.838   9.825  13.966
13574W        W83389  28.074   2.456  12.379
13575W        W83390  34.925   3.840  10.988
13576W        W83391   7.256  19.247  14.936
13577W        W83392   4.726  43.801  14.333
13578W        W83393  34.398   1.801   0.853
13579W        W83394  40.895   0.403   1.215
13580W        W83395  27.995  30.960   1.413
13581W        W83396  27.119  11.795   3.829
13582W        W83397   0.957  41.787  14.893
13583W        W83398   9.687  29.166  13.062
13584W        W83399  20.100   3.868   4.217
13585W        W83400  38.489  17.722   0.471
13586W        W83401   7.800  13.245  12.491
13587W        W83402  39.349   0.930  14.797
13588W        W83403  27.573  26.477  11.421
13589W        W83404  17.622  22.675   0.419
13590W        W83405  39.852   4.706  11.438
13591W        W83406  24.001  36.028   1.339
13592W        W83407  42.022  31.614  14.924
13593W        W83408   5.915  27.450  10.522
13594W        W83409  41.813  34.016   3.701
13595W        W83410  26.505   7.740   3.234
13596W        W83411  21.557  43.287  12.421
13597W        W83412  37.446  21.217   5.199
13598W        W83413   0.417  30.985   2.338
13599W        W83414  13.165  30.976   2.769
13600W        W83415  37.431  38.005   1.271
13601W        W83416  27.582  42.288  11.593
13602W        W83417   8.812  10.632   4.310
13603W        W83418  21.043  31.418  11.932
13604W        W83419  14.317  25.152   2.702
13605W        W83420  13.772  16.602  14.338
13606W        W83421  31.535  26.631  10.047
13607W        W83422  23.599  13.205  13.938
13608W        W83423  12.679  26.647  11.423
13609W        W83424  12.640  42.428  10.429
13610W        W83425  23.719  31.606   3.714
13611W        W83426  29.944  10.355  14.275
13612W        W83427  29.500   8.360   1.783
13613W        W83428  24.581  30.566  12.530
13614W        W83429  36.027  32.961   4.191
13615W        W83430  40.925  39.809  10.992
13616W        W83431  30.512   3.426  12.975
13617W        W83432  12.147  30.998  12.095
13618W        W83433  24.188   9.821  12.895
13619W        W83434  30.516  36.489   3.737
13620W        W83435   2.911  11.761   0.269
13621W        W83436  24.149  25.194   1.730
13622W        W83437  29.590   0.393   4.229
13623W        W83438  29.432  24.973   0.466
13624W        W83439  33.926  33.976  12.495
13625W        W83440  32.427  42.366   0.945
13626W        W83441  35.574  13.840  10.889
13627W        W83442  25.073  43.829  10.556
13628W        W83443  41.397  42.997   3.758
13629W        W83444  14.163  15.785   4.339
13630W        W83445  44.981  20.561  14.374
13631W        W83446  16.712  39.847   3.148
13632W        W83447  10.250  19.089   2.666
13633W        W83448  37.084  18.636   1.357
13634W        W83449  18.687  20.049   4.232
13635W        W83450  35.887  23.141   3.871
13636W        W83451   5.847  33.924   3.737
13637W        W83452   3.828  31.942  11.449
13638W        W83453  42.508  18.570  14.278
13639W        W83454  40.483  18.239   3.779
13640W        W83455  37.562  35.860   9.937
13641W        W83456  18.614  28.016  14.018
13642W        W83457   1.258   8.740   0.911
13643W        W83458   4.308   6.415  14.404
13644W        W83459  43.483   1.829  13.517
13645W        W83460  16.735  14.675   2.295
13646W        W83461   6.301   2.401  13.025
13647W        W83462  44.434  22.039  12.073
13648W        W83463  35.373  13.795   4.236
13649W        W83464  10.783  18.072  13.802
13650W        W83465  41.812  28.105   4.133
13651W        W83466  31.965  12.700   3.326
13652W        W83467  40.927  24.184   3.300
13653W        W83468  28.156  24.205   3.201
13654W        W83469  30.079  27.957  12.027
13655W        W83470   0.800  38.999  13.000
13656W        W83471  44.273  19.258  14.822
13657W        W83472   8.296   4.444   0.828
13658W        W83473  34.947   3.338   5.105
13659W        W83474  14.614   0.983  13.039
13660W        W83475  12.770  20.572  12.927
13661W        W83476  29.973  16.140   0.841
13662W        W83477   8.687  34.910   1.808
13663W        W83478  13.114  21.690   4.685
13664W        W83479  27.614  28.578   1.786
13665W        W83480  22.061  19.063   5.666
13666W        W83481  16.741   6.772   2.239
13667W        W83482   2.300   7.190   9.991
13668W        W83483   6.264  14.245  12.864
13669W        W83484  10.804   4.385  14.851
13670W        W83485  38.066  22.524  13.521
13671W        W83486  17.790   3.803  12.860
13672W        W83487  29.051  39.039   0.770
13673W        W83488  28.569  30.472   1.266
13674W        W83489   2.766  41.885   2.828
13675W        W83490  29.547  18.275  13.343
13676W        W83491  26.045  38.057   3.348
13677W        W83492  29.499  40.405  13.026
13678W        W83493  28.095  28.070   5.165
13679W        W83494   0.443  20.237  11.562
13680W        W83495   2.890  40.975  14.797
13681W        W83496   8.273  33.526   4.834
13682W        W83497  38.031  12.224   1.262
13683W        W83498  41.944  25.073  11.376
13684W        W83499  41.895   7.235  11.933
13685W        W83500   6.267  37.017   2.346
13686W        W83501  40.808  34.974  14.814
13687W        W83502  15.597   9.335   0.939
13688W        W83503  37.082  28.148   2.761
13689W        W83504  27.139   5.893   4.714
13690W        W83505  11.281  42.354   0.243
13691W        W83506  42.426  35.410   2.220
13692W        W83507   7.846   3.905   2.183
13693W        W83508  42.405  15.186  13.820
13694W        W83509   7.726  38.380  10.915
13695W        W83510  24.684   0.329   2.290
13696W        W83511   0.758  22.722   1.366
13697W        W83512  10.152   1.828   2.755
13698W        W83513  22.602  12.191   1.408
13699W        W83514  16.760  16.777  12.388
13700W        W83515  33.405  30.486  12.087
13701W        W83516  16.616  33.521   3.145
13702W        W83517  22.090  23.580   2.288
13703W        W83518  27.675  25.076  12.080
13704W        W83519  24.183   1.822  11.531
13705W        W83520  44.437   2.798   2.718
13706W        W83521  42.392   1.801   2.805
13707W        W83522  18.179  40.405   2.405
13708W        W83523   1.919  25.995  11.946
13709W        W83524  19.223  34.865   4.785
13710W        W83525  35.923  34.903  11.062
13711W        W83526  41.834   1.416   4.164
13712W        W83527   8.802  44.407   3.669
13713W        W83528  33.945  29.102  14.771
13714W        W83529  41.812  35.924  10.900
13715W        W83530  39.356  25.077   5.160
13716W        W83531  30.034  24.601  12.871
13717W        W83532  14.161  22.593   3.659
13718W        W83533  40.051  28.565  11.978
13719W        W83534   2.870  21.074  12.405
13720W        W83535  42.827  20.179   4.723
13721W        W83536   3.800  44.810  14.910
13722W        W83537  26.551  21.720   2.698
13723W        W83538  26.545  35.468  11.054
13724W        W83539  43.501   8.374  14.926
13725W        W83540  37.947   4.420  11.571
13726W        W83541  32.113   5.249   1.404
13727W        W83542  19.143   7.346  10.900
13728W        W83543  41.502   9.813   3.243
13729W        W83544   5.912  26.689   1.790
13730W        W83545  40.799  36.973  12.988
13731W        W83546  10.327   3.297   4.180
13732W        W83547  15.167   6.313  13.841
13733W        W83548  11.635  41.881   2.846
13734W        W83549  27.120  33.525  13.912
13735W        W83550  38.866   7.227  13.970
13736W        W83551  25.984  34.522   4.684
13737W        W83552  35.543  21.711   3.367
13738W        W83553  34.437  18.733  12.560
13739W        W83554  35.985   5.356   2.850
13740W        W83555  34.069  43.339  13.942
13741W        W83556   8.196  25.646   4.209
13742W        W83557  18.191  43.425  13.407
13743W        W83558  30.585  42.967   3.312
13744W        W83559  19.198   2.779   2.726
13745W        W83560  36.910  34.077   3.221
13746W        W83561   4.261   2.722  11.890
13747W        W83562  33.119  40.512   3.241
13748W        W83563  38.994  20.654   0.948
13749W        W83564  37.559  44.811   4.171
13750W        W83565  33.421  21.671   2.291
13751W        W83566  33.079  21.526  11.111
13752W        W83567  19.254  28.474   3.386
13753W        W83568  40.879  20.680  14.471
13754W        W83569  25.210  43.293   4.269
13755W        W83570  17.564  16.216  14.425
13756W        W83571   8.707  43.803   9.921
13757W        W83572  30.463  32.452  12.998
13758W        W83573  12.789   7.194  12.376
13759W        W83574   8.805  41.954   3.745
13760W        W83575  28.146  29.475  12.413
13761W        W83576  23.507  22.536  10.565
13762W        W83577  25.043   9.825   3.829
13763W        W83578  36.392  24.145   1.424
13764W        W83579  34.096  29.557  13.809
13765W        W83580  42.847   7.221  13.438
13766W        W83581  18.712  14.764   0.872
13767W        W83582  28.545   0.800  12.935
13768W        W83583   9.302  25.068   2.829
13769W        W83584   2.414   6.722   2.841
13770W        W83585   5.878  27.048   4.135
13771W        W83586  16.274  21.171   5.300
13772W        W83587   5.800  20.654  12.464
13773W        W83588   2.457  40.950  11.000
13774W        W83589  43.336  17.606  13.845
13775W        W83590  40.396  37.910   0.879
13776W        W83591  20.592  11.236   1.725
13777W        W83592  31.554  12.286   4.667
13778W        W83593  28.100  38.396  14.383
13779W        W83594  30.924  27.544  12.576
13780W        W83595   3.440  13.764   4.285
13781W        W83596  41.313   9.296   2.773
13782W        W83597  25.605  22.584  12.028
13783W        W83598  11.714   7.789   2.806
13784W        W83599  17.739  10.219   3.252
13785W        W83600  25.579  27.179  11.018
13786W        W83601  28.038  26.546  10.966
13787W        W83602   8.879  15.692   2.712
13788W        W83603  35.528  24.099   1.774
13789W        W83604  32.908   0.834   3.805
13790W        W83605  34.934  25.510   3.347
13791W        W83606  40.321  31.973   3.195
13792W        W83607  29.534  42.429  14.782
13793W        W83608  28.626  33.422  11.047
13794W        W83609   4.810  23.565   9.944
13795W        W83610   5.285  33.620   3.370
13796W        W83611  15.098  19.223   3.367
13797W        W83612  34.927  27.172   1.809
13798W        W83613   8.215   8.729   4.765
13799W        W83614  10.652  33.129  11.602
13800W        W83615  32.907  28.953   3.152
13801W        W83616  41.339  42.983  11.514
13802W        W83617  16.115  33.562  10.537
13803W        W83618  14.820  25.213   5.120
13804W        W83619  23.509  19.090   2.888
13805W        W83620  11.180   7.339   4.790
13806W        W83621  38.338  44.985  14.854
13807W        W83622  16.671   4.798  10.503
13808W        W83623  24.227  27.008   2.227
13809W        W83624  17.799  27.023   1.734
13810W        W83625   7.677  33.913  13.379
13811W        W83626  27.036  38.059   4.713
13812W        W83627   2.233   1.294  12.834
13813W        W83628  18.117   5.914   2.186
13814W        W83629  21.636  21.599  14.987
13815W        W83630  37.901  34.102   4.348
13816W        W83631  24.491  34.523  11.604
13817W        W83632  39.488  19.694  11.914
13818W        W83633   8.780  23.230  10.566
13819W        W83634  39.026  30.635   3.657
13820W        W83635  13.162  16.074   4.194
13821W        W83636  24.631  33.419   1.379
13822W        W83637  24.499   7.182   0.478
13823W        W83638  28.162  42.478  14.889
13824W        W83639  18.079  30.481  10.568
13825W        W83640  22.536  26.569   4.742
13826W        W83641  29.460   3.421  11.442
13827W        W83642  11.242  38.486  14.299
13828W        W83643  40.826  20.615   2.696
13829W        W83644   6.268  32.513  14.937
13830W        W83645  18.772   4.822  11.007
13831W        W83646  21.576  44.854  10.985
13832W        W83647  30.417  23.575   3.154
13833W        W83648  40.331  34.980  12.086
13834W        W83649  27.040  21.532  11.433
13835W        W83650  44.367   8.387  10.603
13836W        W83651  36.939   0.390   3.735
13837W        W83652  19.127  16.227  14.506
13838W        W83653   3.272   3.461   4.270
13839W        W83654  40.370  38.054   4.224
13840W        W83655   3.715  33.118  13.350
13841W        W83656  22.718  11.706   9.962
13842W        W83657  41.399  27.504   0.856
13843W        W83658   2.730  23.510   4.755
13844W        W83659  25.642  20.676  12.045
13845W        W83660  24.188  14.237  13.912
13846W        W83661  22.531  15.253   0.382
13847W        W83662  31.466   0.308  11.510
13848W        W83663  15.205  37.478   4.741
13849W        W83664  44.991  11.265   1.348
13850W        W83665  30.593  17.068  13.040
13851W        W83666  34.960  20.568   4.610
13852W        W83667  19.078  33.909  14.947
13853W        W83668  21.239  30.465  10.989
13854W        W83669  41.390  34.409   1.788
13855W        W83670  40.042  20.621  14.995
13856W        W83671  15.772  12.709  14.785
13857W        W83672  29.918  19.098   0.355
13858W        W83673   1.836  11.844  10.619
13859W        W83674  24.576   5.890   2.841
13860W        W83675  15.202   8.812   1.706
13861W        W83676   3.763  38.842  10.004
13862W        W83677  13.634  25.604   0.334
13863W        W83678   7.800  27.602  12.410
13864W        W83679  24.113   6.894   1.855
13865W        W83680   6.781  29.546   1.424
13866W        W83681   3.786  26.008  14.393
13867W        W83682   8.250   0.849   1.866
13868W        W83683  18.690  28.627   1.418
13869W        W83684  42.822  25.588   1.236
13870W        W83685  38.545  34.421  13.359
13871W        W83686   2.377  16.171   3.648
13872W        W83687  41.502   4.323  12.939
13873W        W83688  24.696   8.360   3.345
13874W        W83689  25.993  22.100   1.762
13875W        W83690  34.968  38.977   2.203
13876W        W83691  17.148  24.056  11.972
13877W        W83692  23.502  16.791   0.243
13878W        W83693  21.715  27.953   9.965
13879W        W83694  37.834  33.526   3.729
13880W        W83695  18.583  26.535  11.114
13881W        W83696  26.996  26.664   3.196
13882W        W83697  24.602  33.016  13.538
13883W        W83698  21.248  10.237  12.937
13884W        W83699  13.298  27.054   2.680
13885W        W83700  11.174  13.172  14.459
13886W        W83701   0.848  12.333   0.335
13887W        W83702  28.008   8.833  13.366
13888W        W83703  16.752   7.793   2.788
13889W        W83704  34.442  28.132  13.405
13890W        W83705  39.361  43.476  14.775
13891W        W83706  37.991  44.490  10.643
13892W        W83707   5.216  10.828   0.387
13893W        W83708  33.105  21.157   1.446
13894W        W83709  35.035  33.106  13.011
13895W        W83710  34.457  12.643  14.275
13896W        W83711  29.468  12.148  14.874
13897W        W83712  18.571  41.425  14.378
13898W        W83713  31.969  26.113   1.800
13899W        W83714  11.318   5.385   1.302
13900W        W83715  10.219  41.395  12.544
13901W        W83716  41.317  33.497  14.771
13902W        W83717  36.873  18.633   4.626
13903W        W83718   9.172   4.270   3.292
13904W        W83719  10.282  16.190  13.873
13905W        W83720  26.106  20.151   3.849
13906W        W83721  42.887  32.140  11.860
13907W        W83722  18.060  15.294  10.929
13908W        W83723  37.521  17.625   4.302
13909W        W83724  12.618   3.739  13.820
13910W        W83725  44.321  15.201   2.725
13911W        W83726  15.748  38.941   1.290
13912W        W83727  41.796   4.266   0.417
13913W        W83728  28.023   6.283   4.823
13914W        W83729  17.076  40.519  11.551
13915W        W83730  24.654   8.671   1.251
13916W        W83731  37.989  10.755  12.886
13917W        W83732  15.127  30.607  10.641
13918W        W83733  26.463  30.945  12.539
13919W        W83734  17.679  40.388   2.681
13920W        W83735  30.094  31.041   2.380
13921W        W83736   2.795  11.244  12.417
13922W        W83737  25.164   2.427  12.390
13923W        W83738  18.776  31.405  11.577
13924W        W83739  18.594  41.825  13.926
13925W        W83740   4.828   8.820   1.357
13926W        W83741  25.134  16.582   3.819
13927W        W83742  15.630  43.896  13.913
13928W        W83743  26.106  28.568  10.598
13929W        W83744  24.985  36.019  13.809
13930W        W83745  28.517  28.050   1.255
13931W        W83746   8.803  37.073  10.433
13932W        W83747  40.841  35.915  12.520
13933W        W83748  43.824  35.497   2.307
13934W        W83749  26.059  19.186  12.499
13935W        W83750  33.060  33.065  11.396
13936W        W83751  25.076   2.830  13.448
13937W        W83752  27.137  43.466  12.832
13938W        W83753  18.126   7.344  10.427
13939W        W83754   8.311  36.428  12.452
13940W        W83755  43.327  34.029  11.439
13941W        W83756   2.911  43.930  13.935
13942W        W83757  26.608  37.407  10.541
13943W        W83758  29.508  18.276   5.242
13944W        W83759  19.080  10.334  12.484
13945W        W83760  40.803  38.388   4.333
13946W        W83761  19.065  39.008  14.762
13947W        W83762  10.265  25.968   0.898
13948W        W83763  27.670  12.297   0.873
13949W        W83764  25.508  16.727  11.605
13950W        W83765  19.641  19.249  11.064
13951W        W83766  24.129  12.685  14.951
13952W        W83767  11.656  27.155   3.287
13953W        W83768   3.840  15.724   0.734
13954W        W83769   2.765  12.203   4.810
13955W        W83770  30.982   3.749  13.016
13956W        W83771  12.332  14.288  14.027
13957W        W83772   1.742  27.148   2.341
13958W        W83773   5.800   8.793   1.228
13959W        W83774  43.942  27.583  14.984
13960W        W83775  17.709  37.523  13.045
13961W        W83776  32.436  29.152  14.387
13962W        W83777  26.614  29.649  13.874
13963W        W83778  12.743  35.984  12.941
13964W        W83779  13.692  23.231   4.676
13965W        W83780  25.022  10.684   5.096
13966W        W83781  14.731   4.933   3.243
13967W        W83782   8.347  10.798   3.718
13968W        W83783   7.675  19.696  12.089
13969W        W83784  37.480   1.944   4.258
13970W        W83785  14.196  34.521   0.468
13971W        W83786  15.801  44.999  11.455
13972W        W83787  34.515  21.588  12.923
13973W        W83788  27.454  24.561   3.365
13974W        W83789  41.477   3.946  12.426
13975W        W83790  33.102  34.369   4.333
13976W        W83791  33.130  15.310   2.721
13977W        W83792  16.144  29.605   2.407
13978W        W83793  19.254  37.456   4.609
13979W        W83794  20.248  35.576  11.057
13980W        W83795   4.368  13.669  11.963
13981W        W83796  14.227   4.405  14.779
13982W        W83797  25.126   4.422   0.476
13983W        W83798  19.581  40.512  10.569
13984W        W83799  24.207  21.697   3.230
13985W        W83800  43.954  24.164  11.427
13986W        W83801  24.724  38.064  12.566
13987W        W83802  19.140  31.585   3.377
13988W        W83803  33.559   3.893  14.032
13989W        W83804  21.535  19.538  10.989
13990W        W83805  40.934  12.199   3.312
13991W        W83806  14.760  15.619   1.760
13992W        W83807  36.038  11.209  11.897
13993W        W83808  33.563  39.498   0.333
13994W        W83809  12.687  37.000   3.759
13995W        W83810   7.832   9.705  11.404
13996W        W83811  21.099  24.028  14.873
13997W        W83812  38.883   0.960   0.753
13998W        W83813  42.308  21.081  11.018
13999W        W83814  14.300  31.125   0.768
14000W        W83815  23.570  12.637   1.835
14001W        W83816   9.847  20.132  14.834
14002W        W83817  41.901  44.902   1.802
14003W        W83818  28.038  26.991   4.599
14004W        W83819  16.268  36.915  12.955
14005W        W83820  36.924   4.423   3.152
14006W        W83821  20.671  21.693  14.428
14007W        W83822  14.136   0.950   4.609
14008W        W83823  19.653  16.157   3.328
14009W        W83824   0.960  36.042  13.932
14010W        W83825  33.032   3.886   4.272
14011W        W83826  36.574  43.891  12.538
14012W        W83827   6.907   0.956  12.983
14013W        W83828  24.012  42.795  11.045
14014W        W83829  33.090  34.416  12.077
14015W        W83830  20.706  26.518  14.487
14016W        W83831   5.868  43.765  13.922
14017W        W83832  13.697  23.598   3.364
14018W        W83833  33.503  29.496   4.127
14019W        W83834  42.810  19.079  11.601
14020W        W83835  44.938   2.305  11.989
14021W        W83836  31.442  24.987  12.573
14022W        W83837  41.490  11.240  12.084
14023W        W83838  41.878   6.203  11.077
14024W        W83839   0.378  41.320   1.419
14025W        W83840  16.276  30.526  13.998
14026W        W83841   1.854   8.790  14.006
14027W        W83842  41.800  24.584  12.834
14028W        W83843  28.031  17.650  14.962
14029W        W83844  25.708   3.242   2.695
14030W        W83845  27.117  37.517   4.656
14031W        W83846  28.017   7.752  12.865
14032W        W83847  40.545  24.541  12.979
14033W        W83848  13.824   0.826   0.867
14034W        W83849   9.781  29.977   4.153
14035W        W83850   9.863  13.318   4.169
14036W        W83851  19.695  12.700  11.096
14037W        W83852  19.650  14.618   2.295
14038W        W83853  26.029  10.748   0.783
14039W        W83854   4.700  26.498   4.313
14040W        W83855  43.905  41.030  10.465
14041W        W83856  21.616  19.770   1.268
14042W        W83857  19.627   6.278  12.944
14043W        W83858  15.243  11.154   3.322
14044W        W83859  14.716  34.049   1.392
14045W        W83860   1.450  23.622  10.529
14046W        W83861  22.050  20.677  13.003
14047W        W83862   2.335   2.317  15.000
14048W        W83863   0.898  34.539  12.367
14049W        W83864   9.202  27.522   2.773
14050W        W83865  24.683   8.804  14.841
14051W        W83866  20.727   6.841   0.318
14052W        W83867  39.898   2.872  12.418
14053W        W83868  31.584  30.122  14.015
14054W        W83869  33.098  11.637   3.842
14055W        W83870  10.654  40.812   2.793
14056W        W83871   7.232  36.405   0.282
14057W        W83872  11.866  40.440   3.296
14058W        W83873  33.531  40.899   5.263
14059W        W83874  24.676  19.533   0.349
14060W        W83875   5.769   1.251   4.606
14061W        W83876  41.365  29.994   1.332
14062W        W83877  11.280  39.052   3.654
14063W        W83878   5.852  32.558  10.446
14064W        W83879  29.618  20.670   4.259
14065W        W83880  19.054  29.941   1.274
14066W        W83881  34.930   0.956   2.760
14067W        W83882   3.797  11.335  10.892
14068W        W83883  17.208  30.544   0.464
14069W        W83884   7.194   6.243  13.378
14070W        W83885  10.703   8.864  14.377
14071W        W83886  43.377  14.785  10.596
14072W        W83887  16.617  31.059   4.256
14073W        W83888  43.019   6.220  12.835
14074W        W83889  20.617  43.379  11.929
14075W        W83890  18.181  12.736   0.330
14076W        W83891  25.582   9.867   1.357
14077W        W83892  34.593  15.105   3.159
14078W        W83893  24.005  17.613  14.379
14079W        W83894  30.600  28.680   4.122
14080W        W83895  13.274  28.027  10.410
14081W        W83896  21.583  23.555  11.997
14082W        W83897  25.989   7.707  13.482
14083W        W83898  34.968   5.430  12.355
14084W        W83899  33.608   8.704   5.251
14085W        W83900  42.919   1.244   4.787
14086W        W83901  18.772   4.742   2.307
14087W        W83902  17.673  38.945  14.296
14088W        W83903  21.584   0.967   5.690
14089W        W83904  16.263   9.354  12.054
14090W        W83905  39.036  25.964  11.408
14091W        W83906  27.979   0.445  11.036
14092W        W83907  30.053  18.580   4.124
14093W        W83908  36.853  32.522   3.779
14094W        W83909   9.343  11.212   0.934
14095W        W83910  10.302  44.961   4.837
14096W        W83911  24.614   4.880   4.837
14097W        W83912   3.857   5.220   0.745
14098W        W83913  16.804  42.473  12.484
14099W        W83914  12.159   8.781  12.852
14100W        W83915  29.444  16.194  13.913
14101W        W83916  30.028  35.967  11.081
14102W        W83917   5.307  22.713  11.891
14103W        W83918  29.559  41.881   2.820
14104W        W83919  17.779  29.152   2.306
14105W        W83920  21.096  18.165  10.949
14106W        W83921  20.257  29.957   4.671
14107W        W83922  18.557   8.334   0.451
14108W        W83923  36.046  40.437   4.779
14109W        W83924  30.145   8.271  10.529
14110W        W83925  28.081  24.131   1.856
14111W        W83926   1.789  20.553  14.452
14112W        W83927   9.842  39.921   0.355
14113W        W83928   0.420  29.934  12.062
14114W        W83929  34.450  33.527  12.048
14115W        W83930  16.722  30.649  12.865
14116W        W83931  34.463   0.853  11.442
14117W        W83932  20.656  16.592  10.966
14118W        W83933  32.556  15.318  10.935
14119W        W83934  12.681  37.469   4.212
14120W        W83935   4.222  44.936   0.765
14121W        W83936   7.418  37.048   3.316
14122W        W83937  16.252  40.798   3.348
14123W        W83938  18.786  20.199  11.102
14124W        W83939  43.016  40.473   0.322
14125W        W83940   9.181   3.716   1.848
14126W        W83941  17.266  21.580   3.239
14127W        W83942   0.827   0.814  12.350
14128W        W83943  32.943  43.483   0.407
14129W        W83944  35.947  33.126   3.717
14130W        W83945   4.293   1.805  14.836
14131W        W83946  25.690  21.524  14.791
14132W        W83947   2.880  39.814  12.005
14133W        W83948  12.311  23.639   3.795
14134W        W83949  14.807  20.207   4.620
14135W        W83950   3.408  20.035  10.414
14136W        W83951  19.562   9.847  10.596
14137W        W83952  37.502  12.129   3.814
14138W        W83953  44.947  21.077   3.196
14139W        W83954  10.829  38.041  11.386
14140W        W83955  15.822   8.251   1.442
14141W        W83956  30.025  20.263  11.032
14142W        W83957  38.336   4.905  12.060
14143W        W83958  30.577   4.882   4.149
14144W        W83959  39.822  38.957  12.894
14145W        W83960   8.221  15.286   0.336
14146W        W83961  17.109  30.081  12.078
14147W        W83962  11.848  24.708  11.577
14148W        W83963  44.821  29.455   3.758
14149W        W83964  23.585  44.429   2.366
14150W        W83965   2.332  14.727  13.373
14151W        W83966  11.717  39.526  12.503
14152W        W83967   6.703   2.347  14.887
14153W        W83968  44.503  44.006  14.481
14154W        W83969   7.807  14.098   2.385
14155W        W83970   6.766  41.374  14.418
14156W        W83971  14.610  32.608  14.367
14157W        W83972   0.964  21.171  10.931
14158W        W83973  15.193   1.784  11.951
14159W        W83974  42.519  43.010  12.932
14160W        W83975  33.607  37.507   2.215
14161W        W83976   6.307  11.170   4.304
14162W        W83977  11.703  15.749  14.475
14163W        W83978  31.143  32.026  10.525
14164W        W83979  21.534  11.776   3.633
14165W        W83980  26.664   9.679  12.863
14166W        W83981   2.844  34.983   4.116
14167W        W83982  25.622   4.290   0.481
14168W        W83983  13.219  28.592  10.507
14169W        W83984  36.386  19.647  11.551
14170W        W83985  23.540  29.127  12.427
14171W        W83986  17.095  41.407  11.113
14172W        W83987  18.648  25.478   1.807
14173W        W83988   1.954   9.212   1.768
14174W        W83989  19.593  39.386  13.462
14175W        W83990  30.953  23.580  11.436
14176W        W83991  10.724   2.922   0.368
14177W        W83992  18.554  37.384  13.493
14178W        W83993   1.857  10.754  14.009
14179W        W83994  10.354  15.644  13.928
14180W        W83995  39.964  23.725   1.426
14181W        W83996  22.076   2.788   2.339
14182W        W83997  22.060  37.501   4.192
14183W        W83998  29.140  38.073  13.454
14184W        W83999  30.419  26.091   3.857
14185W        W84000  40.833  26.567   4.194
14186W        W84001  22.147  14.238  11.487
14187W        W84002  17.759  29.044   1.331
14188W        W84003   7.318   7.413   1.237
14189W        W84004  30.037  20.757   2.329
14190W        W84005  21.229  13.678   2.793
14191W        W84006   1.379  31.068  12.359
14192W        W84007   5.241  20.672   1.848
14193W        W84008   9.788  38.859   2.290
14194W        W84009   9.886  10.712   4.733
14195W        W84010  29.918   5.286  12.489
14196W        W84011  36.926  19.581   4.226
14197W        W84012   3.946   2.301   3.703
14198W        W84013   3.825  43.791   1.331
14199W        W84014  25.218  22.620   0.746
14200W        W84015  29.974  32.943   3.682
14201W        W84016  28.985  37.887   2.333
14202W        W84017  17.569   4.417  12.906
14203W        W84018  13.131  12.712  13.063
14204W        W84019  40.956  25.996  13.968
14205W        W84020   6.265  20.587  14.925
14206W        W84021  23.735  21.083   4.692
14207W        W84022   2.895  19.645  14.457
14208W        W84023  30.455  29.426  14.942
14209W        W84024  31.969  16.623   1.352
14210W        W84025  24.032  38.483   4.644
14211W        W84026   9.717  23.686   2.851
14212W        W84027   8.837  30.100   1.416
14213W        W84028  29.960  40.014   0.334
14214W        W84029  20.061  23.730  13.029
14215W        W84030  41.379  16.583  14.781
14216W        W84031  29.094  18.135   2.849
14217W        W84032   8.258   5.885   0.359
14218W        W84033   4.432  13.810  13.475
14219W        W84034   8.207  13.337  11.595
14220W        W84035  22.092  16.799   2.818
14221W        W84036  40.375  21.083   2.782
14222W        W84037  30.032  18.704   1.374
14223W        W84038   0.310  22.524   0.328
14224W        W84039  33.936  13.230  13.494
14225W        W84040   5.246  38.387   3.730
14226W        W84041   4.708  27.070  14.459
14227W        W84042   1.453  19.546   0.445
14228W        W84043  32.505  34.008  10.966
14229W        W84044   3.290  39.019   0.763
14230W        W84045  27.528  41.897  11.557
14231W        W84046  30.606  24.149   3.787
14232W        W84047  38.901  15.324  11.011
14233W        W84048  42.457   3.954  12.871
14234W        W84049   8.177  33.600  10.643
14235W        W84050  27.188  30.993   0.775
14236W        W84051  18.106  23.530  14.421
14237W        W84052   0.492  41.382  12.574
14238W        W84053  37.357   9.775  14.990
14239W        W84054  17.123  31.546  11.551
14240W        W84055  25.019   2.229   3.777
14241W        W84056  26.185  15.314  12.984
14242W        W84057  26.185  17.268  11.601
14243W        W84058  24.092  38.830   1.795
14244W        W84059   1.316  14.118  11.107
14245W        W84060   8.266  37.384   2.193
14246W        W84061  14.758  35.969  10.929
14247W        W84062  15.605   8.716  10.411
14248W        W84063  27.131  11.332  11.085
14249W        W84064  30.144   2.295  12.971
14250W        W84065  36.877  10.789  10.457
14251W        W84066   9.726   1.347   2.353
14252W        W84067  29.614   7.771  10.980
14253W        W84068  19.047  44.397  14.815
14254W        W84069  32.448  23.004  14.512
14255W        W84070   7.885  14.107   1.866
14256W        W84071  42.858  20.693   4.725
14257W        W84072  13.144  40.354   1.763
14258W        W84073  28.158   1.266  12.371
14259W        W84074   9.163   7.792   2.336
14260W        W84075  18.188   0.840  12.005
14261W        W84076  30.035  15.169   0.931
14262W        W84077  18.635  43.479   4.121
14263W        W84078  42.023   7.309  13.497
14264W        W84079  12.246  34.042   0.470
14265W        W84080  19.638  10.640   4.292
14266W        W84081   5.719   3.789  13.418
14267W        W84082  10.823  28.037   3.800
14268W        W84083  34.065   7.770  13.428
14269W        W84084  31.116  27.544   1.731
14270W        W84085   8.725  26.204  14.767
14271W        W84086  30.475  27.455  11.391
14272W        W84087  37.528   5.871   2.394
14273W        W84088  40.336  24.616  14.801
14274W        W84089  40.317  16.269   1.884
14275W        W84090  20.634   6.214   0.308
14276W        W84091  13.751  44.984   1.307
14277W        W84092  12.176  38.897  10.432
14278W        W84093  42.522   6.765   0.942
14279W        W84094  37.541  38.820  14.930
14280W        W84095  39.049  23.154  13.950
14281W        W84096  26.503  35.910  14.501
14282W        W84097  29.161  11.219   4.631
14283W        W84098   9.361  25.088   4.314
14284W        W84099  42.024   6.385  13.941
14285W        W84100  25.974  13.160  12.942
14286W        W84101  43.893  18.118  14.457
14287W        W84102  22.728  20.122   2.873
14288W        W84103  22.246  43.938   1.308
14289W        W84104  44.923  40.944   3.180
14290W        W84105  15.597  26.145   4.147
14291W        W84106  42.303  31.929   1.792
14292W        W84107  42.426  30.939  12.911
14293W        W84108  40.453  22.582   0.340
14294W        W84109  44.297  28.529  12.976
14295W        W84110   9.731  12.324  11.407
14296W        W84111  17.275  15.265   0.285
14297W        W84112  38.857  13.631  12.011
14298W        W84113   7.324  26.020   1.285
14299W        W84114  43.014  35.391   3.349
14300W        W84115  39.896  26.019  11.916
14301W        W84116  40.807  18.632  14.880
14302W        W84117  11.363  26.952  12.460
14303W        W84118   8.737  21.621   1.835
14304W        W84119  43.433  10.865   4.125
14305W        W84120  43.845  11.343  11.959
14306W        W84121  16.607  29.944  13.408
14307W        W84122  31.644  40.469  12.898
14308W        W84123  26.488  36.369  13.466
14309W        W84124   1.949  32.582   4.679
14310W        W84125  34.035  15.099   3.315
14311W        W84126  32.493  42.395  12.991
14312W        W84127  36.481  38.489   2.690
14313W        W84128  40.452  26.551   2.409
14314W        W84129  38.829   5.700  14.337
14315W        W84130   5.838  25.161  12.074
14316W        W84131  42.835  31.561  13.888
14317W        W84132  29.443  33.888   1.443
14318W        W84133   3.347  25.554   4.277
14319W        W84134  29.927  31.614   0.816
14320W        W84135  43.339  40.807  11.396
14321W        W84136  12.147  31.996  11.422
14322W        W84137  41.851  30.100   4.209
14323W        W84138  29.484  40.881   1.866
14324W        W84139  20.223  17.123  14.820
14325W        W84140  33.085   2.848   4.138
14326W        W84141  28.468  34.874  11.931
14327W        W84142  28.972  38.368  10.438
14328W        W84143   0.944  32.128   2.411
14329W        W84144   2.399  35.915   1.923
14330W        W84145  36.947  28.075   1.449
14331W        W84146  24.015  13.834  10.476
14332W        W84147  34.866   5.843  13.431
14333W        W84148  14.179  30.595  10.128
14334W        W84149  20.107  19.239   1.408
14335W        W84150  37.869  11.821   1.260
14336W        W84151  36.006  29.966   1.826
14337W        W84152  22.170  11.248   4.806
14338W        W84153  44.927  39.512   0.878
14339W        W84154   4.368  16.676   1.408
14340W        W84155  32.045  40.507   0.404
14341W        W84156   0.836  39.317  12.891
14342W        W84157  11.146  11.249  12.054
14343W        W84158  29.929  17.281   1.364
14344W        W84159  37.407   9.177  12.567
14345W        W84160  44.002  25.195  12.561
14346W        W84161  36.985  29.072   0.783
14347W        W84162   6.334  19.678  10.562
14348W        W84163   7.377   4.812  11.375
14349W        W84164  38.914  26.694   1.306
14350W        W84165  37.034  37.367   0.830
14351W        W84166  44.377   2.752   1.840
14352W        W84167  35.577  14.257  11.098
14353W        W84168  43.479  32.973   2.687
14354W        W84169  11.349  29.609  10.936
14355W        W84170  17.800  25.673  13.459
14356W        W84171  11.198  20.149  13.821
14357W        W84172  28.142  44.273   1.393
14358W        W84173   1.791  37.490   5.175
14359W        W84174   0.959  35.045  10.926
14360W        W84175  40.323  36.394   4.725
14361W        W84176   8.259  20.064  11.124
14362W        W84177  16.646  31.150   2.190
14363W        W84178  26.959  43.999  11.995
14364W        W84179  31.957  25.082  13.034
14365W        W84180  24.214  36.585  14.836
14366W        W84181  29.122  39.867  14.029
14367W        W84182  26.977   0.752   3.375
14368W        W84183  34.025  22.182   3.819
14369W        W84184  31.594  16.704   2.723
14370W        W84185  20.136  30.952  12.067
14371W        W84186  16.227  11.734   2.199
14372W        W84187  35.604  44.295  11.878
14373W        W84188  13.230  44.277   5.132
14374W        W84189  10.791   6.912  12.910
14375W        W84190  23.693  20.769   0.319
14376W        W84191  40.990  25.691  12.509
14377W        W84192   3.731  21.173   4.323
14378W        W84193  24.684  37.989   4.740
14379W        W84194   0.381   7.712  12.063
14380W        W84195  42.811  31.452  12.354
14381W        W84196  12.244  40.841  13.993
14382W        W84197  40.454  35.883   0.324
14383W        W84198  26.682  19.727   4.281
14384W        W84199  43.813  28.078  10.934
14385W        W84200   1.240  12.787  13.005
14386W        W84201   4.316  20.644  14.874
14387W        W84202  15.103  14.778   1.906
14388W        W84203  41.510   3.745   1.793
14389W        W84204  11.830  34.551  13.372
14390W        W84205   3.228   3.350  13.508
14391W        W84206   0.950  36.064   5.122
14392W        W84207   4.407  21.715  11.559
14393W        W84208   7.294  19.668   1.903
14394W        W84209  43.378   2.279   2.400
14395W        W84210  25.556  26.959  11.906
14396W        W84211  43.271  15.282  13.851
14397W        W84212  37.954  12.145   4.657
14398W        W84213  33.414  18.113   4.619
14399W        W84214   3.324  34.896  11.926
14400W        W84215  23.218   9.656  10.489
14401W        W84216  43.488  30.054  13.322
14402W        W84217   6.320  13.121   0.368
14403W        W84218  33.621  23.715  13.392
14404W        W84219  27.969   0.926   2.319
14405W        W84220  32.465   6.345   4.224
14406W        W84221  15.736   0.782  13.870
14407W        W84222  44.466   6.708  12.016
14408W        W84223  19.233   4.881  13.312
14409W        W84224  33.390  39.555  12.887
14410W        W84225  15.236  16.747   4.625
14411W        W84226  44.404   4.789   1.426
14412W        W84227  29.438   2.863  12.463
14413W        W84228  42.910  44.337   1.724
14414W        W84229  26.153  10.291  10.949
14415W        W84230  14.154  17.096   2.757
14416W        W84231   7.282  30.123  14.447
14417W        W84232   8.243   6.794   1.437
14418W        W84233  34.929  34.502   2.411
14419W        W84234  11.181  33.083   3.308
14420W        W84235  43.297  30.107   3.167
14421W        W84236  37.027   9.793   2.675
14422W        W84237  44.316   9.237  12.838
14423W        W84238  35.057  25.034  13.920
14424W        W84239   6.751  16.651  13.930
14425W        W84240  21.718  35.984   4.215
14426W        W84241   7.346  39.889  10.153
14427W        W84242  32.946  10.271  12.398
14428W        W84243  30.636  20.599   2.381
14429W        W84244  30.546  13.149  11.433
14430W        W84245  43.471  15.730  14.452
14431W        W84246  39.912  44.299  14.409
14432W        W84247  30.453  27.518   2.801
14433W        W84248  21.648   5.907   0.314
14434W        W84249  23.666  33.875  11.997
14435W        W84250  13.217  32.568   0.382
14436W        W84251   5.830  22.543  14.979
14437W        W84252  27.123  12.656  10.074
14438W        W84253  11.288  16.318  13.970
14439W        W84254  23.194  32.048   0.476
14440W        W84255  35.938  27.678  13.479
14441W        W84256  18.110  42.925   1.247
14442W        W84257  13.108  38.933   1.352
14443W        W84258   3.932  43.840   1.790
14444W        W84259  21.538  11.648   2.802
14445W        W84260  36.511   5.788   2.354
14446W        W84261  30.916  22.152   2.304
14447W        W84262  43.359   5.429   3.837
14448W        W84263  14.773   4.254   2.701
14449W        W84264   9.702  11.312   3.276
14450W        W84265  10.282  41.432  13.433
14451W        W84266  24.069  27.035   2.808
14452W        W84267  25.053  22.600  14.797
14453W        W84268  39.364   5.841   4.642
14454W        W84269  11.677  36.878   1.410
14455W        W84270   8.192  42.438   3.297
14456W        W84271  44.481   9.745  10.983
14457W        W84272  39.810  15.110  10.996
14458W        W84273  21.218  29.624   4.223
14459W        W84274  24.183  37.005  13.357
14460W        W84275  34.948  16.600  14.005
14461W        W84276  17.776  33.896   1.792
14462W        W84277   0.351   3.278   0.793
14463W        W84278  41.992  15.300   1.406
14464W        W84279  39.847  37.986   1.914
14465W        W84280  13.247  39.980  13.413
14466W        W84281  31.085  35.072   2.838
14467W        W84282  34.465  43.331  11.962
14468W        W84283  38.871   7.776   2.297
14469W        W84284  25.197  15.087  10.993
14470W        W84285   1.797   9.685  13.326
14471W        W84286  36.038  41.918   0.771
14472W        W84287   9.307  20.240   1.800
14473W        W84288  23.072  16.262   3.188
14474W        W84289   0.876   2.469  11.999
14475W        W84290  24.091  25.635  11.978
14476W        W84291   9.355  32.920  11.128
14477W        W84292   2.785  30.543  12.387
14478W        W84293  37.525  40.527   4.253
14479W        W84294  17.687   8.879  12.021
14480W        W84295  30.039  37.432  10.981
14481W        W84296  19.645  18.652   4.281
14482W        W84297  16.609  41.444   2.401
14483W        W84298  16.773  34.904   3.160
14484W        W84299   2.397  17.227  11.519
14485W        W84300  37.364  27.005   4.284
14486W        W84301  19.638   6.792  13.358
14487W        W84302  39.821  18.072  12.075
14488W        W84303  15.720  22.624   2.204
14489W        W84304  32.537  19.155  12.563
14490W        W84305  12.819  23.138  12.927
14491W        W84306  36.091   5.714   1.215
14492W        W84307   8.405  25.172  11.958
14493W        W84308  15.258  26.039   4.182
14494W        W84309  35.369  32.969  14.761
14495W        W84310  41.023  27.464   2.850
14496W        W84311   2.826  38.938   1.252
14497W        W84312  31.496  38.387  10.488
14498W        W84313  27.090   0.938  14.315
14499W        W84314   8.746   6.906   3.732
14500W        W84315  23.491  12.767  13.451
14501W        W84316   1.930   0.431   0.270
14502W        W84317  15.709  28.532   3.748
14503W        W84318  19.682  35.537   3.258
14504W        W84319   2.437  23.522  14.373
14505W        W84320  42.917  38.957   1.844
14506W        W84321   8.284  22.156  14.992
14507W        W84322  21.214  27.046  14.021
14508W        W84323  44.302  24.629  12.478
14509W        W84324  23.150  11.297   2.864
14510W        W84325  32.999  27.656   4.287
14511W        W84326  24.173  14.267  13.363
14512W        W84327   3.865   1.910   0.896
14513W        W84328  44.822  15.104   3.253
14514W        W84329   8.854  28.124  11.385
14515W        W84330  34.988   6.297   3.708
14516W        W84331  40.797  29.081  13.997
14517W        W84332  42.437  35.554  11.978
14518W        W84333   5.434   7.705   2.815
14519W        W84334  10.685  16.809  11.123
14520W        W84335  26.699   9.873  12.412
14521W        W84336  26.005   9.196   2.209
14522W        W84337  14.777  39.519   1.710
14523W        W84338  28.001  38.929   4.633
14524W        W84339  22.029  26.090  14.893
14525W        W84340  30.992  44.481  13.438
14526W        W84341   1.477  43.811  12.080
14527W        W84342  31.125  15.760  12.489
14528W        W84343  18.780  21.540  10.558
14529W        W84344  18.260  11.626  13.456
14530W        W84345  32.129  27.026  11.993
14531W        W84346  23.682  15.180   1.861
14532W        W84347   7.868  31.939  13.514
14533W        W84348  38.871  29.432  13.039
14534W        W84349  35.596  43.823  12.945
14535W        W84350  39.364  41.854   3.650
14536W        W84351  33.051  31.935  12.040
14537W        W84352  17.297  14.304   1.355
14538W        W84353  32.115  17.237   4.301
14539W        W84354   3.460  29.549  13.338
14540W        W84355  18.565  13.775  14.417
14541W        W84356  35.430  23.004   0.407
14542W        W84357  41.351   3.222  14.355
14543W        W84358   6.226  13.110  13.444
14544W        W84359  17.306  12.331  13.395
14545W        W84360  28.147  40.929   1.855
14546W        W84361  34.092   3.845   0.444
14547W        W84362   2.761  24.131  12.351
14548W        W84363  36.475  24.095   4.208
14549W        W84364  40.889   1.306  13.807
14550W        W84365  20.246  24.563  11.005
14551W        W84366  31.613  22.505   2.778
14552W        W84367  32.051  32.891  14.287
14553W        W84368  33.972  26.071  11.999
14554W        W84369  24.623  13.679   0.308
14555W        W84370  24.142  21.741   1.411
14556W        W84371  11.216  24.537  13.947
14557W        W84372   1.965   0.318  12.846
14558W        W84373  14.700  18.123   2.226
14559W        W84374  20.602  42.011   4.221
14560W        W84375   7.300   5.709  13.898
14561W        W84376  21.520  16.616  10.552
14562W        W84377  35.949  38.417  10.993
14563W        W84378  11.686   0.889  12.027
14564W        W84379   0.816  30.485  12.035
14565W        W84380  21.028  19.572   4.788
14566W        W84381  32.068  29.016  11.014
14567W        W84382   3.227  14.613   4.813
14568W        W84383  40.871  10.759   2.855
14569W        W84384   2.767  16.576   1.429
14570W        W84385  37.060  14.742  12.457
14571W        W84386  36.015   1.792  14.329
14572W        W84387  35.393   2.327   3.281
14573W        W84388  14.339   1.971  14.978
14574W        W84389  42.959  12.275  11.097
14575W        W84390  11.165  41.361   0.479
14576W        W84391   5.368  21.249   2.903
14577W        W84392  33.542  39.434   3.234
14578W        W84393  18.075  25.182  13.911
14579W        W84394   8.866  43.406   3.236
14580W        W84395  15.725   7.322   2.889
14581W        W84396  40.905  14.338  10.923
14582W        W84397  12.709  42.805  12.477
14583W        W84398  32.024   3.772  12.445
14584W        W84399  26.586  19.230   0.268
14585W        W84400  26.114  15.711   2.389
14586W        W84401  33.477   5.270  11.480
14587W        W84402  30.000  34.924   2.411
14588W        W84403  36.072  16.122  14.479
14589W        W84404  27.676  32.430  14.026
14590W        W84405  39.419  26.131   2.720
14591W        W84406  11.839   8.398   2.369
14592W        W84407  22.026  23.092  11.476
14593W        W84408  36.973  33.121   1.433
14594W        W84409   1.813  12.850   0.291
14595W        W84410  19.705  11.349   1.306
14596W        W84411  19.141  43.908  13.046
14597W        W84412  20.739  14.290   4.338
14598W        W84413   0.876  17.174   0.726
14599W        W84414  40.386  14.772  11.919
14600W        W84415  31.577  27.589  12.484
14601W        W84416  44.270  24.091  12.049
14602W        W84417  21.622  18.623  11.043
14603W        W84418  19.748   3.783  11.022
14604W        W84419   8.282  28.677  12.940
14605W        W84420  28.040  26.498  10.551
14606W        W84421  18.598  43.401  11.592
14607W        W84422  12.812  26.103  14.854
14608W        W84423  15.760  29.649   1.246
14609W        W84424  32.459  11.861   0.958
14610W        W84425  35.928  18.741   4.214
14611W        W84426  32.026   3.410   3.726
14612W        W84427  44.280  27.525   2.725
14613W        W84428  41.843  17.125   2.223
14614W        W84429  19.760  41.939   0.920
14615W        W84430  27.446  26.164  13.040
14616W        W84431  17.595  36.435  13.842
14617W        W84432   3.819  35.460   2.208
14618W        W84433  25.052  29.041   0.377
14619W        W84434  16.648   5.691   3.334
14620W        W84435   0.849  37.057   1.751
14621W        W84436  44.404  44.987  10.035
14622W        W84437   5.219  39.476   1.814
14623W        W84438   3.923  44.852   1.284
14624W        W84439  30.589  29.581  13.008
14625W        W84440  25.060  13.259   4.285
14626W        W84441   8.297   6.897   3.169
14627W        W84442   2.772   3.869   3.801
14628W        W84443  11.783  13.686  12.503
14629W        W84444  30.476  43.318   0.764
14630W        W84445  32.632  15.625  12.858
14631W        W84446  21.263   3.261   4.743
14632W        W84447  44.961   9.180   1.917
14633W        W84448  34.990  21.243  12.461
14634W        W84449   5.861   3.952   1.212
14635W        W84450  39.902  40.841  12.090
14636W        W84451  26.990  11.661   4.214
14637W        W84452   3.296   8.897  13.315
14638W        W84453  30.148   1.843   2.223
14639W        W84454  38.522   0.447  12.013
14640W        W84455  32.005  25.557   2.718
14641W        W84456  16.756  13.112   0.247
14642W        W84457   2.262  43.359   0.821
14643W        W84458   9.177   3.395   4.788
14644W        W84459   7.676   9.315  10.992
14645W        W84460  11.753  18.756  11.986
14646W        W84461  29.079   0.395  11.956
14647W        W84462   9.361  32.027   2.316
14648W        W84463  11.353  18.216  12.361
14649W        W84464   0.858   0.879  11.932
14650W        W84465  34.518   7.881   1.427
14651W        W84466  40.010  20.168  10.484
14652W        W84467  16.689  32.406   0.332
14653W        W84468  37.566  40.978   4.826
14654W        W84469  41.859  10.860  11.410
14655W        W84470   9.352  40.827  10.619
14656W        W84471   1.258  44.962  14.841
14657W        W84472  19.254  34.118   3.748
14658W        W84473   6.305  22.091  14.277
14659W        W84474  28.081  12.783  11.589
14660W        W84475  15.090   2.917  11.891
14661W        W84476   6.775  20.166  14.962
14662W        W84477  22.251   7.398  11.550
14663W        W84478  29.062  37.543  13.845
14664W        W84479  11.362  19.685  14.411
14665W        W84480  28.592   1.285   0.359
14666W        W84481  11.654  18.560  13.386
14667W        W84482  11.852   4.929   4.116
14668W        W84483  43.920   9.834   3.162
14669W        W84484   5.374  20.564   1.306
14670W        W84485  36.861  38.044   3.240
14671W        W84486  25.586  24.031  12.376
14672W        W84487   4.877  21.591  13.364
14673W        W84488  38.546  11.352  12.941
14674W        W84489  10.689   0.889  13.546
14675W        W84490  27.007  21.159   2.730
14676W        W84491   9.737  16.633  10.932
14677W        W84492  30.147  41.873  11.374
14678W        W84493   3.911  35.018   4.174
14679W        W84494  34.601  19.653  12.021
14680W        W84495  34.587   9.324  11.437
14681W        W84496  28.678  40.996   0.351
14682W        W84497  18.680   4.404   0.763
14683W        W84498  31.482  31.929  12.377
14684W        W84499  12.233  17.614  12.996
14685W        W84500  10.841   9.871   4.750
14686W        W84501  10.301  23.205   0.872
14687W        W84502  21.642  42.791   0.345
14688W        W84503  44.792  16.591   0.369
14689W        W84504  14.796   2.948   4.607
14690W        W84505  20.120  23.210   2.347
14691W        W84506  21.634  21.261   2.376
14692W        W84507  24.560  31.552  12.404
14693W        W84508   9.769   6.698  14.832
14694W        W84509  27.521   2.281   0.460
14695W        W84510   5.919  40.462  14.301
14696W        W84511  17.215  33.606   2.388
14697W        W84512   3.350  27.690  10.561
14698W        W84513  28.612  20.076   3.850
14699W        W84514   4.816  17.111   1.843
14700W        W84515  20.576  19.710   3.177
14701W        W84516   6.844  43.443   0.786
14702W        W84517   8.395  32.428   2.233
14703W        W84518   4.436  20.702  12.870
14704W        W84519   0.350  43.313  12.090
14705W        W84520   2.875  33.610  14.805
14706W        W84521  15.798  31.016   1.422
14707W        W84522  43.445   0.428  13.831
14708W        W84523  25.174  37.474   4.126
14709W        W84524   5.847  16.658  11.128
14710W        W84525   3.752   9.155  14.881
14711W        W84526  14.126  31.478   0.934
14712W        W84527  35.429   1.384   2.242
14713W        W84528   4.410   7.862   4.702
14714W        W84529   5.824  30.069  11.903
14715W        W84530  28.985  14.328   1.252
14716W        W84531   9.265   8.193   0.927
14717W        W84532   0.967  43.446   0.853
14718W        W84533   3.914  20.622  12.011
14719W        W84534  20.670  29.653   0.941
14720W        W84535  11.228  40.840   3.268
14721W        W84536   0.419  38.348  13.959
14722W        W84537  15.132  20.044  10.495
14723W        W84538  22.696  19.768   0.451
14724W        W84539  32.115   3.231   1.760
14725W        W84540  31.403  37.540   2.281
14726W        W84541  22.047  31.977   3.724
14727W        W84542   5.384  24.700   4.210
14728W        W84543   3.819   1.779  13.532
14729W        W84544   3.899  42.001  14.868
14730W        W84545  21.589  13.829   0.813
14731W        W84546  22.099   0.324  12.573
14732W        W84547  29.426   0.928   2.714
14733W        W84548   8.654  36.067  13.474
14734W        W84549   7.230  38.441   3.217
14735W        W84550  22.616  38.492   2.319
14736W        W84551   0.767   9.245  11.923
14737W        W84552  19.168  30.517  14.442
14738W        W84553   4.941  30.646  12.437
14739W        W84554   7.718  42.282  13.854
14740W        W84555  37.435  19.564   5.195
14741W        W84556  42.316   0.861  10.551
14742W        W84557  26.488   6.761   4.119
14743W        W84558  39.426  19.055   4.761
14744W        W84559  34.546  10.340   0.764
14745W        W84560  41.519  11.808  11.397
14746W        W84561  18.186  22.610   2.242
14747W        W84562   0.380   1.392   3.320
14748W        W84563  19.768  18.629   5.230
14749W        W84564  36.017  44.774   4.291
14750W        W84565   4.710   5.721  14.006
14751W        W84566  21.204  21.118  14.837
14752W        W84567  39.320  17.753  10.499
14753W        W84568  24.587  25.027  11.032
14754W        W84569  36.387  32.059   2.225
14755W        W84570   0.875  17.098  11.880
14756W        W84571  22.128  36.075   1.406
14757W        W84572  36.522  37.834  11.427
14758W        W84573  12.794  35.857   3.178
14759W        W84574  23.590  37.887  10.890
14760W        W84575  10.758  25.205   3.278
14761W        W84576  27.605  21.613  13.039
14762W        W84577  40.444  36.867  13.381
14763W        W84578  29.641  23.655   3.284
14764W        W84579   0.252  43.434  14.823
14765W        W84580  39.913  29.597  13.961
14766W        W84581  38.469  35.988  14.381
14767W        W84582  34.029  27.072  12.871
14768W        W84583  40.418  10.180  11.549
14769W        W84584   4.387   0.488   3.269
14770W        W84585  29.428  24.526   4.133
14771W        W84586  22.504  12.176   9.993
14772W        W84587  28.099   0.818   3.362
14773W        W84588  16.780  25.639  12.522
14774W        W84589  41.374  19.565   4.189
14775W        W84590   2.341   4.754  14.412
14776W        W84591   2.779  10.253   4.709
14777W        W84592  41.328  35.522  13.951
14778W        W84593  33.398   3.908   1.911
14779W        W84594  31.438  14.662   1.768
14780W        W84595  20.595  14.594  10.956
14781W        W84596   4.874  37.538   2.695
14782W        W84597  34.492  32.054   0.344
14783W        W84598  24.572  22.119  11.605
14784W        W84599  20.049  40.010   1.801
14785W        W84600  21.560   3.758  14.874
14786W        W84601  35.026  11.728  13.403
14787W        W84602  17.286   3.788   3.384
14788W        W84603   2.830  34.522   3.653
14789W        W84604   6.772  36.883   0.341
14790W        W84605  17.635  28.992   0.748
14791W        W84606  33.509  33.612  10.977
14792W        W84607   5.837  27.056   1.213
14793W        W84608  21.571   9.269   4.755
14794W        W84609  36.394  38.894  14.500
14795W        W84610  22.647   3.401  13.014
14796W        W84611  34.981  11.745   4.611
14797W        W84612  10.636  31.046  10.552
14798W        W84613  13.233   0.455   2.310
14799W        W84614  21.591   9.674  11.042
14800W        W84615  39.409   6.848   1.833
14801W        W84616  32.629  37.013   4.792
14802W        W84617   3.857  30.561  12.051
14803W        W84618   5.787  13.238  10.490
14804W        W84619   0.931  12.161  11.492
14805W        W84620  19.596  34.944  11.910
14806W        W84621  23.140  40.344  10.970
14807W        W84622  42.833  18.696   5.311
14808W        W84623  34.518  32.620   1.795
14809W        W84624   1.356  28.509  12.502
14810W        W84625  25.977  43.909   0.430
14811W        W84626  35.926  21.737   1.775
14812W        W84627  25.651  39.808  11.031
14813W        W84628  22.521   2.301  12.858
14814W        W84629  14.603  42.399   4.264
14815W        W84630  21.102   6.280   5.251
14816W        W84631   4.805  29.613  14.958
14817W        W84632  19.554  24.669   0.770
14818W        W84633  29.043  14.227  12.352
14819W        W84634   9.759   2.759  11.508
14820W        W84635  40.383  40.872  10.593
14821W        W84636   1.387  28.604  14.986
14822W        W84637   9.718   3.284   2.899
14823W        W84638  13.710  15.188   1.773
14824W        W84639  41.027  12.832   0.925
14825W        W84640  14.792  37.891  11.874
14826W        W84641  23.711  17.595  13.514
14827W        W84642  37.906  25.592  12.415
14828W        W84643   5.839  39.958   1.895
14829W        W84644  10.843  34.400   5.115
14830W        W84645   1.911  41.463   4.797
14831W        W84646  27.688  21.706   4.784
14832W        W84647  10.692   3.422   0.477
14833W        W84648  30.653  25.629   3.676
14834W        W84649  23.116  38.998  14.306
14835W        W84650  41.427  40.479  13.434
14836W        W84651  27.120   1.299   3.719
14837W        W84652  28.943  33.037  12.031
14838W        W84653  36.964  39.463  10.525
14839W        W84654  23.641  39.962  11.129
14840W        W84655  34.371   6.788   1.256
14841W        W84656  24.044  30.574   9.944
14842W        W84657   1.366  39.974   1.443
14843W        W84658  18.709  36.868   3.250
14844W        W84659   9.693   6.895  10.942
14845W        W84660  40.433  33.946   0.909
14846W        W84661  39.914  37.035   4.208
14847W        W84662  14.738  26.552  10.909
14848W        W84663  21.701  44.478  11.000
14849W        W84664  18.058   8.251   1.835
14850W        W84665  23.644  27.612  11.495
14851W        W84666   7.330  34.959   4.202
14852W        W84667   7.852  40.366  13.873
14853W        W84668   7.770  41.513   1.406
14854W        W84669  16.109  37.974   2.239
14855W        W84670  24.635  13.750   0.839
14856W        W84671  20.099  28.118   1.380
14857W        W84672  43.341   1.435  11.524
14858W        W84673  21.694  19.222   3.702
14859W        W84674  27.073  13.714  11.376
14860W        W84675  17.287   4.718  14.794
14861W        W84676  44.986   2.249   0.789
14862W        W84677  32.504   9.286  14.373
14863W        W84678   5.234  34.411   2.725
14864W        W84679  30.601  29.073   1.376
14865W        W84680  44.476   0.830   1.802
14866W        W84681  25.698  24.622   0.419
14867W        W84682  20.662  22.128  13.921
14868W        W84683  19.666  17.231  13.313
14869W        W84684  42.500  32.054  11.023
14870W        W84685  30.008  34.089  10.629
14871W        W84686  13.671   9.364  14.347
14872W        W84687  37.046  35.443  12.558
14873W        W84688  42.783   4.753   0.794
14874W        W84689  30.996  37.978   2.849
14875W        W84690  31.592  13.733  10.547
14876W        W84691   3.889  35.559   1.361
14877W        W84692  23.611  24.085   3.819
14878W        W84693  26.595  14.607   1.225
14879W        W84694  21.078  31.481  11.504
14880W        W84695  17.285  28.944   2.293
14881W        W84696  42.908  32.072  14.319
14882W        W84697  28.150  21.585   0.844
14883W        W84698  42.476  22.099   1.902
14884W        W84699  35.854  31.108  12.436
14885W        W84700   2.277  18.635   5.135
14886W        W84701   6.815  33.509  14.848
14887W        W84702  33.071  22.622   4.654
14888W        W84703  26.566   5.218  13.483
14889W        W84704   2.340  21.558   0.405
14890W        W84705  33.504  17.286   4.720
14891W        W84706  28.436   2.326  14.377
14892W        W84707  40.303  24.551   0.839
14893W        W84708  37.987  43.976  14.377
14894W        W84709   5.340  12.630  10.439
14895W        W84710  44.834   7.290  11.518
14896W        W84711  21.044  14.104  11.088
14897W        W84712  35.404  15.320  12.891
14898W        W84713   1.923  24.582  11.005
14899W        W84714   6.394   0.953   1.734
14900W        W84715  40.401  14.253  10.643
14901W        W84716  36.368  22.620   3.154
14902W        W84717   9.712  10.375   3.293
14903W        W84718  12.643   4.235   4.826
14904W        W84719  44.401   4.897  12.937
14905W        W84720  21.557  31.110   0.379
14906W        W84721   5.428  27.088   2.893
14907W        W84722  40.475  26.048  11.429
14908W        W84723  31.502  34.545   0.801
14909W        W84724  28.552   2.735   2.293
14910W        W84725   0.342  10.682   2.331
14911W        W84726  37.557  36.932  11.412
14912W        W84727  23.525  38.455   0.422
14913W        W84728  36.453  30.930  10.581
14914W        W84729   6.300   6.397   2.350
14915W        W84730   5.793   7.171  12.417
14916W        W84731  20.760  12.334  11.495
14917W        W84732  29.955  26.656  14.953
14918W        W84733  42.375  29.530   4.687
14919W        W84734  12.295  12.799  11.037
14920W        W84735  13.323  25.605  11.888
14921W        W84736  15.233  33.049   0.281
14922W        W84737  28.181  18.730  14.383
14923W        W84738  16.658   1.452  10.457
14924W        W84739   3.871  21.539  14.927
14925W        W84740   0.984  23.573   0.955
14926W        W84741  14.103  33.083  11.939
14927W        W84742  42.941  33.419   2.322
14928W        W84743  40.534   1.418  13.996
14929W        W84744   5.195  41.492   2.806
14930W        W84745  41.935  19.664   2.220
14931W        W84746  24.034  17.794  11.458
14932W        W84747   9.352  10.177  12.840
14933W        W84748  43.471  44.899  14.902
14934W        W84749  27.589  29.950   4.813
14935W        W84750   2.446  16.153   3.355
14936W        W84751  16.174  14.180   3.152
14937W        W84752  25.497  43.954  13.392
14938W        W84753  27.463  20.570   1.923
14939W        W84754  10.314  34.877  12.359
14940W        W84755  37.044  29.096  14.826
14941W        W84756  44.782   6.772   3.182
14942W        W84757  30.507   4.287  12.480
14943W        W84758  27.624   6.883  14.993
14944W        W84759   4.861   8.742  10.926
14945W        W84760  42.496  34.949  13.876
14946W        W84761  17.082  23.074  12.340
14947W        W84762   4.242  17.559   3.677
14948W        W84763  35.030   4.755   3.309
14949W        W84764  30.953   6.373   1.898
14950W        W84765  44.429  43.785  11.878
14951W        W84766  13.345  32.098   5.252
14952W        W84767  43.431   6.389   2.735
14953W        W84768  10.305  31.022  12.521
14954W        W84769  31.416   8.890   3.818
14955W        W84770  37.968  40.483  10.625
14956W        W84771  21.643  26.058  14.873
14957W        W84772   8.670  26.480  14.792
14958W        W84773  28.636  20.574   1.866
14959W        W84774  13.276  13.252  12.907
14960W        W84775  37.879  16.665   0.871
14961W        W84776  14.632  27.649   2.701
14962W        W84777   5.327   9.255  13.308
14963W        W84778  38.501  42.334  13.013
14964W        W84779  26.172  38.009  14.884
14965W        W84780  19.242  36.847  14.910
14966W        W84781  21.725  18.782   1.828
14967W        W84782  19.679   5.865  10.985
14968W        W84783  27.090  12.248   0.757
14969W        W84784  34.445  22.724  11.512
14970W        W84785  19.617  20.137   3.729
14971W        W84786   9.347  26.469   1.335
14972W        W84787  14.127  25.107  12.838
14973W        W84788  22.666   6.254  12.914
14974W        W84789  39.030  12.857   2.241
14975W        W84790   3.460  14.120   0.787
14976W        W84791  37.910  30.512  13.797
14977W        W84792   5.391   2.381  10.554
14978W        W84793   0.974  32.927   0.933
14979W        W84794  23.168   6.851   0.877
14980W        W84795  25.519  29.525  14.925
14981W        W84796  32.923   3.454   1.263
14982W        W84797  28.091   1.832  14.793
14983W        W84798   9.853  32.980  10.406
14984W        W84799  15.793  32.458  13.969
14985W        W84800  10.675  20.623  14.314
14986W        W84801  27.529   1.917   1.830
14987W        W84802  42.955  27.685   0.453
14988W        W84803  13.647  40.524   3.305
14989W        W84804  30.090   1.945   1.410
14990W        W84805  44.810  11.744  13.891
14991W        W84806  29.606  37.031   0.316
14992W        W84807  21.758  14.201   5.163
14993W        W84808   9.682  30.549  10.442
14994W        W84809  15.264  23.581  12.544
14995W        W84810  21.261  11.194   1.305
14996W        W84811   1.349  28.625   0.428
14997W        W84812  31.941  32.577  11.469
14998W        W84813  20.091  41.415  11.105
14999W        W84814  38.836  43.419  11.531
15000W        W84815  18.191   1.265   0.374
15001W        W84816  18.279  42.443   2.395
15002W        W84817  18.193  13.345  13.891
15003W        W84818  11.169   6.236   0.447
15004W        W84819   2.401  40.812   1.733
15005W        W84820  35.932  30.552  12.419
15006W        W84821  25.593  13.615   4.755
15007W        W84822  32.479  38.508  12.408
15008W        W84823  12.621  33.902   1.774
15009W        W84824  33.622  39.811  13.386
15010W        W84825  42.852  36.592   3.280
15011W        W84826  41.823  22.516   3.228
15012W        W84827  25.494  27.611   2.871
15013W        W84828  16.701  11.819  12.346
15014W        W84829  26.542  12.829   4.267
15015W        W84830  13.187   0.831  11.905
15016W        W84831  14.160  29.528   0.304
15017W        W84832  27.012  20.216  14.348
15018W        W84833  17.105  12.665  13.547
15019W        W84834  32.961  34.453  10.943
15020W        W84835  30.565   4.916  11.541
15021W        W84836  31.907  39.943   1.854
15022W        W84837   8.869  13.329   3.342
15023W        W84838  16.740   5.920   4.706
15024W        W84839   0.442  40.363  13.863
15025W        W84840  41.444  38.377   1.714
15026W        W84841   7.689  25.613   1.263
15027W        W84842  35.488  11.851  13.851
15028W        W84843  22.675  16.202  12.566
15029W        W84844   8.356  32.118   3.311
15030W        W84845  26.581  25.468  10.965
15031W        W84846  37.895  36.008  10.940
15032W        W84847  10.176  33.077   1.769
15033W        W84848  20.679  36.382   2.670
15034W        W84849  21.554  23.502   0.347
15035W        W84850  24.691  29.089   4.781
15036W        W84851  17.185  18.560  14.946
15037W        W84852  17.607  20.227   3.149
15038W        W84853   4.358  35.365   3.683
15039W        W84854  27.969  10.293   5.315
15040W        W84855   9.187  42.868   2.221
15041W        W84856  34.435  40.366   1.717
15042W        W84857   3.399  17.118  12.994
15043W        W84858   0.348   1.901   4.329
15044W        W84859  24.554  28.015  11.377
15045W        W84860  24.983  10.182  11.064
15046W        W84861  35.891  38.456  13.974
15047W        W84862  34.047  11.264   4.148
15048W        W84863   9.672  25.181   0.254
15049W        W84864  37.891   3.863  12.484
15050W        W84865  18.679  22.074   4.171
15051W        W84866  30.574  30.969  12.550
15052W        W84867  38.454   3.225   4.321
15053W        W84868  13.623   3.346  12.984
15054W        W84869  36.952  34.547   2.353
15055W        W84870  26.635  41.871   4.792
15056W        W84871  28.560  26.002   0.854
15057W        W84872  34.025  10.829  14.306
15058W        W84873  38.337  22.106   1.784
15059W        W84874   1.257   8.847  12.358
15060W        W84875  38.935  43.979   1.727
15061W        W84876  36.481  22.084   3.378
15062W        W84877  25.995  18.226   1.891
15063W        W84878   1.878  22.072   4.631
15064W        W84879  32.123  41.004  10.510
15065W        W84880   5.261  33.101   3.310
15066W        W84881  30.574   4.243   0.423
15067W        W84882  23.558  44.964  14.000
15068W        W84883   7.344  38.965   3.698
15069W        W84884  17.296   7.260  10.999
15070W        W84885  43.457  31.986  11.033
15071W        W84886  36.428   9.752  11.566
15072W        W84887  20.572  42.347   3.213
15073W        W84888  42.977  14.123  10.423
15074W        W84889   4.932  37.040   4.671
15075W        W84890  13.230  44.980  12.911
15076W        W84891  29.608  26.543  11.524
15077W        W84892  31.556  26.459  13.834
15078W        W84893   7.339  31.940  12.980
15079W        W84894   7.366  21.577   1.710
15080W        W84895  11.698  29.471  12.390
15081W        W84896  36.893   6.421   1.273
15082W        W84897   0.947   8.799   1.400
15083W        W84898  24.074  22.061  10.968
15084W        W84899  43.001  19.711  14.452
15085W        W84900  19.740   2.789  13.344
15086W        W84901  26.612  27.547  11.067
15087W        W84902  36.517  19.197  13.805
15088W        W84903  17.761   0.782  13.944
15089W        W84904  37.887  16.585  10.100
15090W        W84905   7.261  17.780   1.876
15091W        W84906  35.078   4.368  11.024
15092W        W84907  41.303  33.418   1.885
15093W        W84908  39.937   5.225  14.856
15094W        W84909  33.878  30.099   3.290
15095W        W84910  15.710  37.450  13.810
15096W        W84911   1.475  27.165   1.426
15097W        W84912  23.592   5.910   1.906
15098W        W84913  40.406   4.796  10.551
15099W        W84914  22.197   0.918   4.802
15100W        W84915  33.433  38.436   0.474
15101W        W84916  22.225  23.602  14.785
15102W        W84917  20.591   9.721  13.455
15103W        W84918  17.594  34.542   4.243
15104W        W84919  38.519  19.709   2.833
15105W        W84920   7.808  44.890   0.812
15106W        W84921  30.029  37.047  11.127
15107W        W84922  27.484  31.511  10.439
15108W        W84923   0.398  25.072   1.868
15109W        W84924  14.238  32.989   2.326
15110W        W84925  10.668   5.364   4.349
15111W        W84926  29.987  25.123  13.849
15112W        W84927   2.358  24.565   2.709
15113W        W84928   0.929  31.571   3.691
15114W        W84929  11.625  18.710   4.211
15115W        W84930  17.680  17.628   2.214
15116W        W84931  28.651  25.557  12.092
15117W        W84932  34.043   5.234   4.730
15118W        W84933   7.403  41.858   4.627
15119W        W84934   8.297  36.068   2.255
15120W        W84935  38.325  19.079  11.911
15121W        W84936  15.262  34.078   2.768
15122W        W84937  25.063  40.545  14.005
15123W        W84938  28.016  16.181   1.347
15124W        W84939   7.777   6.748   2.224
15125W        W84940  42.319  33.443  14.790
15126W        W84941  25.036   3.329   2.811
15127W        W84942  31.437   5.868  14.025
15128W        W84943   5.306  44.354  11.386
15129W        W84944  20.756  15.677  13.341
15130W        W84945  38.915  31.966  13.440
15131W        W84946  40.877   6.803   4.606
15132W        W84947  10.371  10.710  14.416
15133W        W84948  36.349   9.240  14.378
15134W        W84949   2.264   1.801  12.928
15135W        W84950   3.881   2.727  10.521
15136W        W84951  42.923  33.550   2.711
15137W        W84952   6.198  15.255  11.906
15138W        W84953  44.454  36.491   4.619
15139W        W84954  40.343  16.157  11.979
15140W        W84955   3.789  24.129   1.288
15141W        W84956  10.781   0.786   3.751
15142W        W84957  20.032  43.481  10.612
15143W        W84958  37.890  34.044  12.928
15144W        W84959   7.891  36.973  13.958
15145W        W84960  35.959  21.567   1.320
15146W        W84961  43.496  22.096   0.442
15147W        W84962  44.488  39.952   0.754
15148W        W84963  38.565  12.281   2.735
15149W        W84964  30.071  16.203   1.859
15150W        W84965  39.915  16.226   5.749
15151W        W84966   8.695  21.120   3.305
15152W        W84967  22.572  15.098  13.939
15153W        W84968   0.416  39.374  12.914
15154W        W84969  10.153   4.852   3.824
15155W        W84970   8.848   1.871  11.081
15156W        W84971  35.861   9.861   2.298
15157W        W84972  20.738  36.992  13.510
15158W        W84973  21.229  35.442   0.334
15159W        W84974  18.061  18.074   3.341
15160W        W84975  19.594  12.174   4.315
15161W        W84976  37.908  23.681  14.294
15162W        W84977  15.116  21.181   1.767
15163W        W84978  37.068  32.470  10.578
15164W        W84979  37.532  30.987   1.425
15165W        W84980  37.580  21.225   2.235
15166W        W84981  42.379  12.172  11.884
15167W        W84982   5.797   1.810  10.493
15168W        W84983  35.591  24.133   0.273
15169W        W84984  25.487  35.888  12.866
15170W        W84985  15.785   3.246   1.771
15171W        W84986  21.158  42.799  13.044
15172W        W84987  15.327   7.306  14.850
15173W        W84988  10.138   1.821   1.394
15174W        W84989  25.964   1.732  13.819
15175W        W84990  36.939  43.303   3.704
15176W        W84991  14.322  12.249  10.951
15177W        W84992  18.077  32.480  12.878
15178W        W84993  31.565   1.809   1.704
15179W        W84994  20.707  42.839  13.478
15180W        W84995   0.916  30.475   3.373
15181W        W84996  13.786  34.584  14.506
15182W        W84997  25.213  33.896  13.001
15183W        W84998   5.918  11.771   3.232
15184W        W84999   2.936  27.582   0.342
15185W        W85000  36.479  41.820   4.687
15186W        W85001  32.017  26.617  11.896
15187W        W85002   5.362  30.081   4.329
15188W        W85003  25.138  37.494  12.994
15189W        W85004   8.779  31.462   0.249
15190W        W85005  43.327  29.008  13.393
15191W        W85006  13.684  31.553  10.475
15192W        W85007  38.492   6.236   2.863
15193W        W85008  39.385  33.586  13.903
15194W        W85009  27.509  25.713  13.020
15195W        W85010  41.962   7.407   4.673
15196W        W85011  13.164  31.031  13.899
15197W        W85012   0.412  24.002  11.094
15198W        W85013  41.874  28.523  12.914
15199W        W85014  43.908  40.055   3.711
15200W        W85015  10.655  24.645  14.332
15201W        W85016  35.468  31.070   2.709
15202W        W85017  36.987   4.816   4.801
15203W        W85018  38.039  44.373  12.495
15204W        W85019  25.990  30.042   3.168
15205W        W85020   8.393  15.681   4.193
15206W        W85021  23.648  20.560  12.436
15207W        W85022  37.531  26.461  12.553
15208W        W85023  14.326  39.931  11.932
15209W        W85024  41.464  19.686  14.782
15210W        W85025  40.344   0.448  11.110
15211W        W85026  38.939  39.910  11.892
15212W        W85027   4.829  34.908  10.117
15213W        W85028  42.895  18.239   2.858
15214W        W85029  18.778   8.778   3.256
15215W        W85030  15.290  22.159   0.254
15216W        W85031   8.244  16.694   1.767
15217W        W85032  20.565  15.642   3.331
15218W        W85033  23.174  31.562  13.834
15219W        W85034  34.393   9.215  10.494
15220W        W85035  17.753  39.373  13.022
15221W        W85036  13.127  33.499   4.347
15222W        W85037  28.569  36.436   4.325
15223W        W85038  29.172  16.236   1.256
15224W        W85039  13.341  15.221   1.871
15225W        W85040  13.146   6.684  12.876
15226W        W85041  22.195   1.929  14.489
15227W        W85042  12.311   6.901  10.625
15228W        W85043  28.579  38.921   4.777
15229W        W85044  12.316  43.350   3.335
15230W        W85045   8.725  34.383  13.463
15231W        W85046  11.652  32.405   2.244
15232W        W85047  37.381  28.589   0.867
15233W        W85048  27.550  37.501   3.818
15234W        W85049  24.662  32.068   3.792
15235W        W85050  33.005  26.984   1.857
15236W        W85051   3.379   8.828  11.964
15237W        W85052  12.207   9.666  10.928
15238W        W85053   4.870  29.485   5.250
15239W        W85054  26.113  15.649  13.392
15240W        W85055  39.433  28.456   1.710
15241W        W85056  18.070  28.674  10.606
15242W        W85057  28.570   4.350  11.914
15243W        W85058  19.622  28.494   2.864
15244W        W85059  15.631  40.913   0.384
15245W        W85060  24.673  16.213  12.000
15246W        W85061  44.854  29.565  11.091
15247W        W85062  12.117  37.418   2.715
15248W        W85063  35.979  36.062  14.459
15249W        W85064  14.630  20.637   3.191
15250W        W85065   9.801  27.996  12.388
15251W        W85066  11.641  12.357  10.411
15252W        W85067   3.284   4.801  12.535
15253W        W85068  42.969  44.301   4.637
15254W        W85069  26.460   3.782   4.139
15255W        W85070  26.156   9.887  12.402
15256W        W85071  42.843  40.027   1.420
15257W        W85072  23.578  35.493   4.764
15258W        W85073  37.501  14.328  14.978
15259W        W85074  38.546  36.035  11.053
15260W        W85075  34.518  16.776  14.447
15261W        W85076  36.414  40.837  12.067
15262W        W85077  29.124  32.521  11.518
15263W        W85078   5.389  32.895  11.898
15264W        W85079   0.902   9.682  13.462
15265W        W85080  12.787   0.948   0.293
15266W        W85081  12.656  18.056  11.533
15267W        W85082  35.106  43.473   1.722
15268W        W85083   3.327  16.783   3.364
15269W        W85084  42.991  39.508  11.433
15270W        W85085   2.800  16.102   3.302
15271W        W85086  26.651  26.005  14.985
15272W        W85087  27.564  27.986  14.440
15273W        W85088  42.925   4.351   3.702
15274W        W85089   5.809  19.720   4.740
15275W        W85090   9.659  26.131  11.073
15276W        W85091   8.896  18.784  13.895
15277W        W85092  13.680  12.762   0.964
15278W        W85093  39.857  33.990   3.808
15279W        W85094   2.384  12.673  10.549
15280W        W85095   3.730  40.015  14.348
15281W        W85096  36.570  33.576  11.527
15282W        W85097  32.593  28.057   0.871
15283W        W85098   7.384  13.806   2.882
15284W        W85099  14.102  30.652  11.109
15285W        W85100   5.218  42.405   2.724
15286W        W85101  10.265  20.054  10.927
15287W        W85102   7.752  15.748  11.600
15288W        W85103  24.688  22.719   1.331
15289W        W85104  30.647   8.845  12.565
15290W        W85105  10.222  39.550   4.298
15291W        W85106  37.503  32.060   3.658
15292W        W85107  17.164   2.799   3.187
15293W        W85108  30.030   7.260  10.618
15294W        W85109  30.452  28.494   0.268
15295W        W85110   4.923   5.248   2.851
15296W        W85111  22.615  24.488  14.990
15297W        W85112   0.393  35.886   4.197
15298W        W85113  18.584  30.143  14.902
15299W        W85114  35.390  25.183   2.767
15300W        W85115  14.632  42.305  11.400
15301W        W85116  21.699  41.310   3.248
15302W        W85117  41.821  28.093  10.944
15303W        W85118  43.909  12.193  11.523
15304W        W85119   8.335  20.246  14.425
15305W        W85120  13.169  36.864   0.838
15306W        W85121  30.019   0.452  10.590
15307W        W85122  25.148  13.309   4.678
15308W        W85123  40.432  31.468  13.493
15309W        W85124   9.770  39.892   3.308
15310W        W85125  42.856  25.696   4.113
15311W        W85126   1.811  41.786   1.860
15312W        W85127  14.796  26.670   2.805
15313W        W85128   3.820  13.266  12.535
15314W        W85129  31.078  26.092  13.351
15315W        W85130  36.922  30.552   3.303
15316W        W85131  27.613  41.313  13.308
15317W        W85132   1.865  17.679   2.708
15318W        W85133  34.543  14.652   4.643
15319W        W85134  15.749  37.486  12.089
15320W        W85135  43.384  12.644   1.438
15321W        W85136   7.707   6.324  13.906
15322W        W85137  39.313  24.635   0.747
15323W        W85138   1.290  36.389  13.911
15324W        W85139   0.396  35.390   2.814
15325W        W85140  16.101  40.543  12.448
15326W        W85141  34.558   1.359  11.046
15327W        W85142  13.609  44.290  12.428
15328W        W85143   8.875   5.687  11.000
15329W        W85144  20.178  15.800  11.047
15330W        W85145  44.265  36.379   2.845
15331W        W85146  41.922  29.960   1.247
15332W        W85147  18.078   4.933  12.053
15333W        W85148  24.101  16.163   3.281
15334W        W85149  24.988  40.885  14.442
15335W        W85150   7.774  32.135  14.312
15336W        W85151  21.037  25.064   4.215
15337W        W85152   4.229  21.123   0.832
15338W        W85153  43.847  41.495   3.703
15339W        W85154  16.157  19.186   0.809
15340W        W85155  19.237  44.831  14.832
15341W        W85156  24.481   2.416  14.283
15342W        W85157   3.940  28.548  14.865
15343W        W85158  27.667  31.418  13.337
15344W        W85159  12.683  23.022  14.940
15345W        W85160  28.680  28.488   3.283
15346W        W85161  26.185  40.416   1.916
15347W        W85162  44.010  13.219  11.401
15348W        W85163  38.954  16.274   0.828
15349W        W85164  19.240   2.391   3.843
15350W        W85165  27.162  26.470  13.800
15351W        W85166  20.170  19.627   1.709
15352W        W85167  28.120  28.015   4.819
15353W        W85168  43.510   8.855   1.858
15354W        W85169  37.068  33.974  10.057
15355W        W85170   8.394  10.290  13.831
15356W        W85171   6.261  22.047  10.990
15357W        W85172  43.852  28.475   4.766
15358W        W85173   5.807   4.442  13.054
15359W        W85174  35.022   4.269  11.404
15360W        W85175  29.664  29.638   0.785
15361W        W85176  11.221  25.584  11.602
15362W        W85177  40.462   0.902   4.299
15363W        W85178   1.743  30.059   1.877
15364W        W85179   8.340  19.270  13.323
15365W        W85180  34.895   3.854   0.894
15366W        W85181   4.800  40.463   3.649
15367W        W85182  43.404  30.642   1.762
15368W        W85183  19.127   7.832  11.998
15369W        W85184  29.055   4.227  11.867
15370W        W85185  35.370   0.247   4.796
15371W        W85186  15.262  32.132   2.690
15372W        W85187  13.205  14.763   4.622
15373W        W85188  34.420  33.397   2.314
15374W        W85189   6.706  24.692   1.859
15375W        W85190  31.425  19.686   1.300
15376W        W85191  37.362  16.249  13.971
15377W        W85192  35.021  28.095  13.052
15378W        W85193  11.768  28.620   0.455
15379W        W85194  25.474   7.337   9.982
15380W        W85195  15.141  32.018   1.303
15381W        W85196  20.577  33.002   0.432
15382W        W85197  10.307  43.010   4.284
15383W        W85198  19.086  24.166  10.509
15384W        W85199  31.148  18.136  11.372
15385W        W85200  43.770  26.596   2.756
15386W        W85201  21.200  10.362  14.439
15387W        W85202   8.224  40.533  13.473
15388W        W85203  39.504  13.347  10.561
15389W        W85204  15.733  24.594   2.787
15390W        W85205  13.113  42.802  10.952
15391W        W85206  13.830  26.974   4.816
15392W        W85207  26.540  18.120   2.878
15393W        W85208  26.187   0.355  14.860
15394W        W85209  37.927  11.768  14.831
15395W        W85210  42.971  23.566  11.865
15396W        W85211   0.483  15.147   1.916
15397W        W85212  14.336  17.802  14.015
15398W        W85213   6.372  15.693  11.409
15399W        W85214   9.239   8.716  11.396
15400W        W85215   4.242  32.990  11.902
15401W        W85216  24.609  27.105  14.030
15402W        W85217  22.069  32.055  13.476
15403W        W85218   0.745  42.310  12.986
15404W        W85219  23.613  40.853  11.988
15405W        W85220  43.961  33.062  11.388
15406W        W85221  29.542  37.547  13.814
15407W        W85222  16.173   6.882   1.856
15408W        W85223   3.915  20.733  14.483
15409W        W85224   0.819  36.469  14.330
15410W        W85225  36.510   8.390  14.834
15411W        W85226  24.228  14.770   4.756
15412W        W85227  40.886  41.805  12.366
15413W        W85228  41.510  26.049   2.275
15414W        W85229  13.348  25.646   1.389
15415W        W85230  41.906  38.864   0.244
15416W        W85231  36.031   8.238  14.311
15417W        W85232   4.889   8.189   4.776
15418W        W85233  43.004  44.373  13.926
15419W        W85234  15.736  42.372  11.458
15420W        W85235   3.906  22.569   2.885
15421W        W85236   8.362  33.615  14.329
15422W        W85237  23.695  44.854  11.864
15423W        W85238   1.377  23.141   0.742
15424W        W85239  32.628  18.096  13.051
15425W        W85240  27.057  37.381  11.924
15426W        W85241  29.927  39.423   4.161
15427W        W85242  21.758  23.670  11.425
15428W        W85243  41.409  28.164  13.027
15429W        W85244  25.167  32.928  13.460
15430W        W85245  20.253  10.640  13.952
15431W        W85246  43.376   6.740   4.836
15432W        W85247  23.655  43.414  10.987
15433W        W85248  20.150  43.928  11.452
15434W        W85249  32.626  42.945  10.592
15435W        W85250  13.696  36.903   3.152
15436W        W85251   3.426  18.224   1.287
15437W        W85252  16.174   5.297   1.845
15438W        W85253  23.618  37.941   1.897
15439W        W85254   3.319   8.263  11.022
15440W        W85255   6.763  27.972   2.415
15441W        W85256  41.362  29.112   0.319
15442W        W85257  16.190   4.422  13.332
15443W        W85258  43.332  16.745   4.673
15444W        W85259  16.697   4.421  11.128
15445W        W85260  30.979  14.777   2.828
15446W        W85261  16.130   1.365  12.498
15447W        W85262  28.533  14.792  11.959
15448W        W85263  43.999  25.977   4.224
15449W        W85264  25.980  27.031   1.211
15450W        W85265  35.537  42.438   3.367
15451W        W85266  11.270  36.050   4.776
15452W        W85267   6.803  41.309   5.246
15453W        W85268  41.875  24.975  13.054
15454W        W85269  34.901  31.042  10.522
15455W        W85270  38.929  27.041  11.395
15456W        W85271   9.873  20.676  14.899
15457W        W85272  43.382  21.697  11.897
15458W        W85273   0.284  36.370   2.707
15459W        W85274  30.004  17.634  12.577
15460W        W85275   4.317   4.922   9.941
15461W        W85276  24.619  26.610  13.333
15462W        W85277  19.144   4.773   2.836
15463W        W85278  34.020  15.628   2.872
15464W        W85279  32.438  33.902   1.826
15465W        W85280  37.533  30.021  11.525
15466W        W85281  13.711  32.938  12.503
15467W        W85282   4.247   4.362   4.641
15468W        W85283  11.685  39.963   9.960
15469W        W85284  18.263  26.977  14.409
15470W        W85285   4.433  22.190  10.576
15471W        W85286  43.432  23.996  14.458
15472W        W85287  22.097   0.772  11.869
15473W        W85288  14.807  34.878  12.358
15474W        W85289  22.120  29.047  13.541
15475W        W85290  16.585  21.694   0.842
15476W        W85291  42.421   8.188  13.019
15477W        W85292  41.855  28.099  10.485
15478W        W85293   2.879  41.484   2.776
15479W        W85294  37.491   3.937  14.459
15480W        W85295  17.726  23.051   2.388
15481W        W85296  41.030  11.742  14.405
15482W        W85297  34.906  16.739  14.278
15483W        W85298  42.781  12.304   3.690
15484W        W85299  21.642  19.586  13.049
15485W        W85300   3.757  43.305  14.808
15486W        W85301  13.272  24.999  13.823
15487W        W85302   1.315  23.043  10.949
15488W        W85303   1.275  33.581  11.957
15489W        W85304  27.460   7.344   2.871
15490W        W85305  10.235  29.974   4.755
15491W        W85306  10.660  27.084  11.482
15492W        W85307  43.367  32.107   0.455
15493W        W85308  35.968  38.445  13.386
15494W        W85309  37.930  28.594   4.160
15495W        W85310  25.500  29.950  12.537
15496W        W85311  35.903  19.215   3.684
15497W        W85312  21.166   9.710  14.338
15498W        W85313   7.186  33.624  14.894
15499W        W85314  11.846  13.281  10.429
15500W        W85315  37.964  12.191  13.370
15501W        W85316   7.238  19.215   4.130
15502W        W85317   3.925  14.197  10.508
15503W        W85318   4.927  30.064   4.777
15504W        W85319  24.067   9.328  12.856
15505W        W85320  10.655  13.152   2.838
15506W        W85321  42.300  34.080   1.822
15507W        W85322  25.066  22.234  11.399
15508W        W85323  21.022  37.418  11.418
15509W        W85324  33.958  29.969   4.212
15510W        W85325  22.730   6.714  13.529
15511W        W85326   2.460   6.820  14.279
15512W        W85327  37.952  32.493  14.858
15513W        W85328  44.979  24.557  12.018
15514W        W85329  12.726   4.349  12.033
15515W        W85330  41.301  17.730  12.535
15516W        W85331   8.212   9.375  11.458
15517W        W85332  24.183  31.059   4.659
15518W        W85333   6.268  31.072   2.273
15519W        W85334  22.611   1.467   1.756
15520W        W85335  13.193  35.907   3.240
15521W        W85336  32.621   5.821   3.341
15522W        W85337   6.705  11.766   1.897
15523W        W85338  25.079   6.327   4.134
15524W        W85339  29.117  17.603   0.846
15525W        W85340  37.573  16.599   3.643
15526W        W85341  23.662  24.495  14.948
15527W        W85342  18.639   3.854   1.763
15528W        W85343  11.656  20.699   4.667
15529W        W85344  40.827  13.222   3.767
15530W        W85345   8.812  40.501  13.340
15531W        W85346  19.280  22.599   1.444
15532W        W85347  36.428  12.747   4.139
15533W        W85348   5.779  15.654   1.878
15534W        W85349  10.235  32.966   2.266
15535W        W85350  23.728   1.379   1.933
15536W        W85351   0.976  17.693  10.580
15537W        W85352  11.755  33.418  14.781
15538W        W85353  15.294  35.490  14.479
15539W        W85354  39.017  12.774   4.685
15540W        W85355  32.931  14.661   1.342
15541W        W85356  42.934  30.023  11.102
15542W        W85357  29.625  10.364  14.413
15543W        W85358  32.627  30.610   0.916
15544W        W85359  26.480  32.022   3.794
15545W        W85360  30.107  34.035   3.800
15546W        W85361  36.578  27.476   2.824
15547W        W85362  29.959  39.049  14.454
15548W        W85363  41.792  12.319  12.398
15549W        W85364  34.545  29.953  12.854
15550W        W85365  14.806  30.976  14.513
15551W        W85366  25.053  37.453  10.503
15552W        W85367  33.115   0.798  10.585
15553W        W85368  20.167  28.521  14.288
15554W        W85369   0.381  36.567  12.448
15555W        W85370  41.895  15.628   2.740
15556W        W85371  29.160   6.860   1.785
15557W        W85372  26.972  10.738   5.257
15558W        W85373  36.463   0.941   1.906
15559W        W85374   5.867  21.092  10.530
15560W        W85375  21.521   0.357  13.445
15561W        W85376  11.205  19.608   5.661
15562W        W85377  41.966  10.288   4.133
15563W        W85378  33.125  34.990   0.775
15564W        W85379   7.843  29.168  11.864
15565W        W85380  40.404  39.984   0.897
15566W        W85381   9.740  21.754   2.381
15567W        W85382  44.413   5.821  14.407
15568W        W85383  36.030  16.296  11.995
15569W        W85384   0.858  33.583  10.640
15570W        W85385  34.567  36.359  12.846
15571W        W85386  25.082  34.590  11.423
15572W        W85387  34.024  22.595   0.399
15573W        W85388   0.490  21.099  13.898
15574W        W85389   0.939  38.465   3.380
15575W        W85390  13.223  33.939  11.114
15576W        W85391  29.949  34.944  12.362
15577W        W85392  13.642  34.084  11.062
15578W        W85393  24.990  36.534  13.967
15579W        W85394   1.241  14.821  14.450
15580W        W85395   3.413  29.618   1.904
15581W        W85396  44.882  21.239   4.191
15582W        W85397  28.585  12.671   3.788
15583W        W85398  41.325  34.498  11.397
15584W        W85399  16.175   0.382   1.377
15585W        W85400  18.209  10.672   2.732
15586W        W85401  13.191  33.001  14.313
15587W        W85402   9.241   5.373   3.197
15588W        W85403  40.512  38.992  14.492
15589W        W85404  41.533  11.743  11.098
15590W        W85405  13.235  10.722   2.284
15591W        W85406  36.959  23.224  14.284
15592W        W85407  42.959   6.295   1.696
15593W        W85408  19.695  31.613   4.745
15594W        W85409  27.618  41.005   2.336
15595W        W85410  32.465  19.214   3.630
15596W        W85411  19.258  30.446   4.260
15597W        W85412   1.901  25.667   2.260
15598W        W85413  24.560   8.222   2.784
15599W        W85414  31.411  11.812   1.358
15600W        W85415   4.298  13.194  13.916
15601W        W85416  33.969  44.993  10.522
15602W        W85417   3.282   5.277   1.705
15603W        W85418   2.338   3.438  14.294
15604W        W85419  28.972   3.421  11.083
15605W        W85420  11.660   6.277  10.455
15606W        W85421  12.702  31.131  10.604
15607W        W85422  38.843  11.851   2.832
15608W        W85423   9.655  31.030  10.965
15609W        W85424   9.666  21.255   1.881
15610W        W85425  28.966  31.982   0.840
15611W        W85426  19.737  24.112  12.954
15612W        W85427  36.995  19.277  10.550
15613W        W85428  19.275   3.246  10.523
15614W        W85429  16.782  18.775   0.408
15615W        W85430  36.920  44.857   0.930
15616W        W85431  27.677  40.840  10.409
15617W        W85432  38.053  13.773  12.908
15618W        W85433  18.688  17.560   3.266
15619W        W85434   5.224   3.861   3.192
15620W        W85435   2.434  36.514   0.819
15621W        W85436  12.258   8.882  11.430
15622W        W85437  41.844  32.607   4.785
15623W        W85438  28.114   3.385  11.595
15624W        W85439  15.176   7.695   1.815
15625W        W85440  25.606  21.630  10.497
15626W        W85441  33.974  16.181  12.393
15627W        W85442  16.590  19.607   1.752
15628W        W85443  28.951   4.731   4.650
15629W        W85444  21.723  34.073  10.610
15630W        W85445  28.018  30.928   2.797
15631W        W85446   0.897  19.606   0.399
15632W        W85447   9.814  17.299  14.446
15633W        W85448  16.655  15.176   4.252
15634W        W85449  34.062  40.799  12.867
15635W        W85450  31.555  12.786  14.483
15636W        W85451  32.120  24.717   1.748
15637W        W85452  17.237  40.051  13.002
15638W        W85453  24.561  25.469   0.849
15639W        W85454  38.460  24.088   0.868
15640W        W85455  14.105   9.294   0.383
15641W        W85456  20.635  15.775   3.694
15642W        W85457   3.439  38.559   4.737
15643W        W85458  17.076  14.120   3.200
15644W        W85459  35.482  11.279   1.771
15645W        W85460   2.435  18.633  13.983
15646W        W85461  38.957  23.088   2.414
15647W        W85462  40.945  15.089   3.333
15648W        W85463  43.403  36.981  12.476
15649W        W85464  12.235  11.322   2.276
15650W        W85465   8.349  37.369  12.040
15651W        W85466   6.250  22.609  11.938
15652W        W85467   3.845  21.514   1.926
15653W        W85468   5.733   6.849   1.291
15654W        W85469  32.015  32.540  12.464
15655W        W85470  39.062  40.365   0.795
15656W        W85471  14.139  27.510   0.928
15657W        W85472   9.760  34.075   4.709
15658W        W85473   1.744  20.229   0.862
15659W        W85474  11.798  20.685  13.973
15660W        W85475  11.692   3.858  14.964
15661W        W85476  35.093  31.095   4.625
15662W        W85477  18.555  36.394   2.854
15663W        W85478  19.712  28.101   4.321
15664W        W85479  34.877  26.058   0.767
15665W        W85480  20.682   8.873  11.550
15666W        W85481   6.203  23.593   4.836
15667W        W85482  13.210  18.055  11.885
15668W        W85483   8.747  21.584  13.951
15669W        W85484  16.685   9.807   2.295
15670W        W85485   3.758   4.934  13.038
15671W        W85486  44.263  18.109  10.598
15672W        W85487  33.027  37.982  11.994
15673W        W85488   1.450  44.980   3.706
15674W        W85489  15.258  35.893  14.311
15675W        W85490   2.376  17.070  14.292
15676W        W85491   2.772   9.256   1.842
15677W        W85492  20.629   2.346   3.653
15678W        W85493  30.440  23.087   2.285
15679W        W85494  25.627  44.896   0.733
15680W        W85495   2.262  11.699   3.778
15681W        W85496  10.190   0.365   4.666
15682W        W85497   8.788  39.432   9.505
15683W        W85498  29.592   6.301   3.359
15684W        W85499   6.231  17.744  11.080
15685W        W85500  12.730  18.085  14.501
15686W        W85501  14.252   4.319   2.694
15687W        W85502  13.263   6.911   2.343
15688W        W85503  32.966  21.755  12.976
15689W        W85504  24.617  42.309  11.011
15690W        W85505  11.214  35.402  10.459
15691W        W85506  32.555  17.655  14.874
15692W        W85507  14.232  39.847  12.495
15693W        W85508  13.763  27.470  13.351
15694W        W85509  30.120  29.462  12.075
15695W        W85510  44.780  30.580   3.766
15696W        W85511   4.441  39.490  10.577
15697W        W85512   9.149   4.825   0.345
15698W        W85513   0.750   4.755  10.594
15699W        W85514  29.649  18.191  13.907
15700W        W85515  37.965  40.903   2.404
15701W        W85516  14.112  27.008  13.900
15702W        W85517   7.170  25.975  14.800
15703W        W85518   6.857  27.949  14.914
15704W        W85519  41.014  35.580   2.825
15705W        W85520  14.294  40.377  13.849
15706W        W85521  43.874  40.959   4.782
15707W        W85522  12.274   7.241  14.501
15708W        W85523  14.197  35.434  13.894
15709W        W85524  43.914  27.994   0.383
15710W        W85525  26.139   6.682  11.056
15711W        W85526  29.167  18.621   0.965
15712W        W85527  44.280  18.235  12.475
15713W        W85528  29.460  25.066  13.002
15714W        W85529   8.358  33.511  11.971
15715W        W85530  38.397  32.887   2.278
15716W        W85531  21.591  40.490   2.903
15717W        W85532   1.270  27.591  14.883
15718W        W85533  13.814   7.841   1.369
15719W        W85534  32.898   1.837  11.966
15720W        W85535  13.637  42.398  13.902
15721W        W85536   4.258   0.334   1.302
15722W        W85537  13.760  18.700   0.421
15723W        W85538   9.382  36.933  13.028
15724W        W85539  30.495   7.344  13.531
15725W        W85540  34.021  11.734   1.254
15726W        W85541   1.754  16.264  14.854
15727W        W85542  10.667  24.643  10.457
15728W        W85543  16.585   5.426   1.422
15729W        W85544  31.630  26.994   4.658
15730W        W85545  24.150  19.185   5.161
15731W        W85546  36.042  37.511   2.313
15732W        W85547   5.693  15.713   2.384
15733W        W85548  13.689  25.570  12.863
15734W        W85549  29.932  40.449  11.005
15735W        W85550  14.599  26.650  10.051
15736W        W85551   0.418   9.298  11.942
15737W        W85552  32.091  24.478  14.776
15738W        W85553  32.467   0.761   1.261
15739W        W85554  39.929   7.680  12.037
15740W        W85555  44.331  20.102   2.670
15741W        W85556  27.016  27.561  14.302
15742W        W85557  40.920  43.322   2.888
15743W        W85558  33.956  37.908   4.605
15744W        W85559  27.644  24.986  10.409
15745W        W85560   7.826   7.327   1.240
15746W        W85561  22.152  39.502   3.162
15747W        W85562  33.049  32.072  13.895
15748W        W85563  26.149  27.641   4.236
15749W        W85564  41.948  34.930   1.877
15750W        W85565  43.996   6.681  13.348
15751W        W85566  42.009  15.813   0.412
15752W        W85567  15.719  21.698   2.201
15753W        W85568  42.813   0.970   1.825
15754W        W85569  39.416  40.822   2.768
15755W        W85570  27.505  21.696   0.836
15756W        W85571  39.530  13.613  14.353
15757W        W85572  37.582  34.069   1.215
15758W        W85573  25.190  22.080  12.846
15759W        W85574  37.380   1.289   4.230
15760W        W85575   8.233  11.651   0.929
15761W        W85576   1.916  26.676   1.871
15762W        W85577  26.960   0.346   2.228
15763W        W85578  25.582  33.382   0.245
15764W        W85579  21.158  38.416  14.995
15765W        W85580  17.680   8.244   3.212
15766W        W85581  30.027  11.791  12.517
15767W        W85582  19.655  34.373   0.849
15768W        W85583  12.635   1.471  14.464
15769W        W85584  39.506  32.023  13.416
15770W        W85585  39.531   7.888   1.898
15771W        W85586  27.588  27.493   1.377
15772W        W85587  27.454   6.322  10.928
15773W        W85588  30.597  37.463  10.617
15774W        W85589  12.694  31.600   1.415
15775W        W85590  21.641  11.364   4.259
15776W        W85591   0.955   8.670   4.729
15777W        W85592  28.560  20.652   0.930
15778W        W85593  43.307   2.802   0.275
15779W        W85594  38.026   2.817  12.009
15780W        W85595   7.289   2.742  13.455
15781W        W85596   4.878   1.931   1.750
15782W        W85597  19.217  39.001  14.358
15783W        W85598  16.806  21.627  12.423
15784W        W85599   1.925  31.424   1.431
15785W        W85600  26.674  37.480   0.857
15786W        W85601  23.160   1.264  10.571
15787W        W85602  31.043  43.428  12.462
15788W        W85603   4.907   0.345  12.436
15789W        W85604   0.917  10.796  14.850
15790W        W85605  12.752   2.953  12.398
15791W        W85606  18.737   3.923   3.791
15792W        W85607  33.435   0.883   2.686
15793W        W85608  37.490  25.580  14.369
15794W        W85609  27.663  29.969   0.313
15795W        W85610  43.395   0.955  13.935
15796W        W85611  22.527  34.872   4.182
15797W        W85612  41.444  24.570   3.230
15798W        W85613  33.488  38.367  14.002
15799W        W85614   0.288  12.722  12.451
15800W        W85615  21.224  26.603   2.291
15801W        W85616   6.417   7.415  12.985
15802W        W85617  19.712  24.186   4.652
15803W        W85618  25.045  35.540  12.071
15804W        W85619  13.170   4.391   1.920
15805W        W85620   2.282  29.987  10.963
15806W        W85621  43.927   4.271  11.525
15807W        W85622  37.022   3.768  13.881
15808W        W85623  43.767  25.003   3.767
15809W        W85624  23.217  23.173  10.517
15810W        W85625  11.310  17.125   0.781
15811W        W85626  24.722  37.475   1.853
15812W        W85627  41.342  15.817  14.449
15813W        W85628   1.946  17.178   3.731
15814W        W85629  27.090  43.968   0.870
15815W        W85630   8.246   7.238   3.162
15816W        W85631   4.810  41.805   3.774
15817W        W85632   6.687   2.817  13.459
15818W        W85633  29.991  42.886   4.238
15819W        W85634  25.204  23.064   0.370
15820W        W85635   2.940  37.563   1.234
15821W        W85636  19.203  28.942  11.477
15822W        W85637  29.670   8.850  13.865
15823W        W85638  19.760  29.942   1.848
15824W        W85639   5.387   1.825  14.869
15825W        W85640  27.039   3.444   4.167
15826W        W85641  13.344  25.064   1.781
15827W        W85642  32.570  31.455  12.930
15828W        W85643  42.957   4.435  12.024
15829W        W85644  20.254  41.522   0.447
15830W        W85645  21.595  22.630   1.351
15831W        W85646  14.337  37.989  13.396
15832W        W85647  12.657  41.445  12.574
15833W        W85648  22.663  41.400  13.502
15834W        W85649  31.091  36.949  13.454
15835W        W85650  39.004  43.978  12.865
15836W        W85651   5.803  24.124   0.952
15837W        W85652   6.340  30.533  10.891
15838W        W85653  32.932  17.154   3.859
15839W        W85654  33.908  42.927  10.489
15840W        W85655  25.558  37.538   3.773
15841W        W85656  37.911  14.685  11.924
15842W        W85657  39.003  10.241   0.766
15843W        W85658  41.355  24.009  14.316
15844W        W85659   0.315  31.991  10.533
15845W        W85660   9.807  28.117  14.862
15846W        W85661  33.078  36.439  13.541
15847W        W85662   1.468  32.014  11.975
15848W        W85663   7.320  42.801  14.439
15849W        W85664  10.848  10.867   3.843
15850W        W85665  11.271  41.994  10.444
15851W        W85666  25.108  33.454   1.857
15852W        W85667  23.182  39.922   0.785
15853W        W85668  44.386  44.329  14.780
15854W        W85669  34.399  20.239   3.764
15855W        W85670  36.448  10.761   0.938
15856W        W85671  19.710  44.815   4.755
15857W        W85672   0.778   4.936   4.770
15858W        W85673  25.480  24.497  12.057
15859W        W85674  10.370  41.789   4.818
15860W        W85675  41.352  35.935  11.071
15861W        W85676  40.902  44.382  11.536
15862W        W85677  44.386  36.078   2.374
15863W        W85678  20.667   2.935  13.435
15864W        W85679  40.886   5.774  14.962
15865W        W85680  27.101  40.809  10.617
15866W        W85681  21.018  16.213   3.722
15867W        W85682  36.458  44.967  12.975
15868W        W85683   0.493  10.662  11.078
15869W        W85684  21.130   3.715  12.053
15870W        W85685  28.618   4.356  11.411
15871W        W85686  30.442   9.158   3.748
15872W        W85687   3.798  19.169   3.288
15873W        W85688   7.706   4.817   4.142
15874W        W85689  18.247  21.657  11.488
15875W        W85690  27.956  37.067  13.810
15876W        W85691  37.066   6.694   4.743
15877W        W85692   1.884   1.345  11.466
15878W        W85693  40.487  43.997  12.527
15879W        W85694  25.476  14.645   3.160
15880W        W85695  38.355  44.868   4.290
15881W        W85696  27.999   6.717  14.439
15882W        W85697   2.295  14.720  14.954
15883W        W85698   4.260  22.537  10.510
15884W        W85699  31.528  42.327  12.410
15885W        W85700  33.895  42.972   2.794
15886W        W85701  23.516  30.506  10.435
15887W        W85702  17.161  36.956  11.058
15888W        W85703  23.695   2.821  13.813
15889W        W85704  17.648  23.510  14.423
15890W        W85705   5.253  40.337   2.387
15891W        W85706   3.329   4.879  10.891
15892W        W85707  20.208  37.914   2.307
15893W        W85708  28.156   5.838  10.898
15894W        W85709  44.343   6.413  10.996
15895W        W85710  35.385  39.927   0.937
15896W        W85711  15.160  41.877  14.005
15897W        W85712  31.956  24.694  12.893
15898W        W85713  13.800   4.228   4.191
15899W        W85714  14.618  20.600   0.937
15900W        W85715  43.284  33.036   4.718
15901W        W85716  33.916  26.006  13.541
15902W        W85717  20.704  36.880   0.766
15903W        W85718  31.074  28.100  14.510
15904W        W85719  20.626  15.606   1.343
15905W        W85720  40.424  18.172   4.720
15906W        W85721   7.836  32.419  13.818
15907W        W85722  42.789  20.605  11.981
15908W        W85723  34.020   8.854  13.826
15909W        W85724  36.571  39.876   0.242
15910W        W85725   8.163  42.348  10.121
15911W        W85726  28.572  15.215   2.381
15912W        W85727  16.276  28.618  12.403
15913W        W85728   2.315   3.824   4.787
15914W        W85729  14.773  36.547  12.360
15915W        W85730  23.725   3.250  11.428
15916W        W85731   3.263   9.706  11.069
15917W        W85732   0.376  24.702  10.956
15918W        W85733  22.178  12.312  13.799
15919W        W85734  19.224  20.624  11.927
15920W        W85735  40.958  41.533   2.401
15921W        W85736  31.558  19.686   5.162
15922W        W85737  15.604   4.309   3.673
15923W        W85738  34.002   1.282  14.806
15924W        W85739  36.396  21.690  11.569
15925W        W85740  41.368   2.731  10.510
15926W        W85741  38.438   0.941  10.013
15927W        W85742  31.992  31.041   4.807
15928W        W85743  33.008  10.840   0.939
15929W        W85744   6.695  34.943   3.755
15930W        W85745  41.385  14.321   1.849
15931W        W85746  33.993  20.686   2.213
15932W        W85747  22.636  44.276  14.993
15933W        W85748   0.289  37.009  10.937
15934W        W85749  26.466  37.929  11.433
15935W        W85750   2.962  22.225  13.938
15936W        W85751   7.891  25.025   3.167
15937W        W85752  16.184  11.794  14.863
15938W        W85753  12.223   6.213  12.920
15939W        W85754  37.046  34.962  11.091
15940W        W85755  27.638  13.132  14.508
15941W        W85756  13.334  24.222  11.101
15942W        W85757  44.398   3.843   5.211
15943W        W85758   4.412  32.480   0.786
15944W        W85759   8.372  17.745  14.844
15945W        W85760  30.921  39.902  10.977
15946W        W85761   7.901  30.441   2.378
15947W        W85762  24.120  26.536   2.330
15948W        W85763  19.147  30.423  10.496
15949W        W85764  33.078  23.240   1.269
15950W        W85765  22.725  39.430   0.814
15951W        W85766   8.204  37.417   0.363
15952W        W85767   1.314  20.044   0.265
15953W        W85768  17.194  36.458   4.138
15954W        W85769  13.120  25.078  13.039
15955W        W85770  39.034  44.794   5.128
15956W        W85771  31.913  14.114  12.962
15957W        W85772   1.944  21.709   0.345
15958W        W85773  41.961  14.718  10.941
15959W        W85774  41.834   0.968  14.933
15960W        W85775  36.499  32.943   1.294
15961W        W85776  18.059  44.363   1.786
15962W        W85777  24.551   9.797   0.850
15963W        W85778  33.469   6.406  13.973
15964W        W85779  12.229   7.838   0.269
15965W        W85780  24.082   4.777  13.805
15966W        W85781  32.547  29.457   1.839
15967W        W85782  17.226  28.602  12.893
15968W        W85783   2.423  25.657   1.417
15969W        W85784  32.063   4.410   2.342
15970W        W85785   6.320  28.964  10.563
15971W        W85786  13.621  21.752  14.773
15972W        W85787  27.551  16.080   1.441
15973W        W85788   0.814  37.364   1.379
15974W        W85789  41.998  38.040  10.515
15975W        W85790  20.175  14.269  10.071
15976W        W85791  13.681   1.458   2.773
15977W        W85792  42.910  42.943   9.933
15978W        W85793  32.960  26.154   1.706
15979W        W85794  11.653  24.173  12.578
15980W        W85795  35.036   6.333  10.501
15981W        W85796  29.162  40.435   0.357
15982W        W85797   4.861  15.737  14.516
15983W        W85798  10.145  32.889  10.989
15984W        W85799  32.598  29.020  14.771
15985W        W85800  34.004  35.922  13.941
15986W        W85801   1.900  13.687  14.411
15987W        W85802   0.826  27.476  14.026
15988W        W85803   3.848  43.332  14.309
15989W        W85804  39.013  31.615   1.448
15990W        W85805   3.732  26.481  11.057
15991W        W85806  15.122   7.749  10.544
15992W        W85807  29.172  25.216   2.857
15993W        W85808  40.344  40.824  14.400
15994W        W85809  35.919   2.325  10.967
15995W        W85810  43.866  32.131  14.004
15996W        W85811  36.053  39.838   1.290
15997W        W85812   7.370  35.549   2.844
15998W        W85813  25.656  15.596  13.505
15999W        W85814  32.556  26.525   1.406
16000W        W85815   3.710  16.629  14.932
16001W        W85816  41.011  43.876  14.310
16002W        W85817  17.631  23.698  11.955
16003W        W85818  17.677  27.489  13.498
16004W        W85819  13.289  26.534   1.270
16005W        W85820  16.743  12.750  14.032
16006W        W85821  22.744  12.305  11.545
16007W        W85822  25.154  42.020   0.329
16008W        W85823  39.345  18.613  12.910
16009W        W85824  24.550  23.559   1.862
16010W        W85825   5.417  32.520  10.913
16011W        W85826   8.841  16.718   0.436
16012W        W85827  23.075  39.375  11.387
16013W        W85828  32.495  21.521  14.916
16014W        W85829  15.814  15.119  10.623
16015W        W85830  24.169  33.547   0.370
16016W        W85831  32.524  15.220  13.011
16017W        W85832   7.851  44.352   3.383
16018W        W85833  29.585  39.841  13.469
16019W        W85834  16.151   1.896  10.951
16020W        W85835  42.872   9.357   1.424
16021W        W85836   1.425  13.342   2.896
16022W        W85837  15.652  22.633   1.418
16023W        W85838  15.682  15.653  11.971
16024W        W85839  38.479  37.499   0.836
16025W        W85840  30.420  19.616  14.760
16026W        W85841  37.385  19.651   0.885
16027W        W85842  14.768   8.894   5.129
16028W        W85843   5.239  27.100  10.889
16029W        W85844  39.849   7.746   5.290
16030W        W85845  42.775   5.333  14.330
16031W        W85846  34.508  12.336   3.383
16032W        W85847  19.538  10.869  12.474
16033W        W85848  23.102  31.460   3.192
16034W        W85849  28.123  14.158   4.747
16035W        W85850  35.988  26.045  12.983
16036W        W85851  18.155  36.918   0.873
16037W        W85852  44.475  43.316   3.703
16038W        W85853  33.560  22.633  13.498
16039W        W85854  15.726  23.563  11.590
16040W        W85855  37.490  20.107  14.338
16041W        W85856  31.443  25.601  11.094
16042W        W85857  43.314  20.193   2.385
16043W        W85858  36.576  19.105   0.382
16044W        W85859  10.640  18.125  11.448
16045W        W85860  29.476   0.432   3.243
16046W        W85861  22.592  44.343  13.477
16047W        W85862  15.712  35.562  13.368
16048W        W85863  42.855   0.782  11.017
16049W        W85864  16.582  13.203   0.874
16050W        W85865  35.527  13.253  13.872
16051W        W85866   5.876  29.606   4.733
16052W        W85867  40.870   7.869   5.259
16053W        W85868  38.403   4.419  11.572
16054W        W85869  11.796   7.828   1.315
16055W        W85870  14.265  42.371  14.297
16056W        W85871  20.262  33.064   2.241
16057W        W85872  37.830  11.747   3.662
16058W        W85873  37.867   2.440   2.383
16059W        W85874  42.289  42.327  11.858
16060W        W85875  16.223  11.316  13.426
16061W        W85876  43.876  31.003   3.802
16062W        W85877   7.259   7.907  12.542
16063W        W85878  26.003  43.460  14.285
16064W        W85879  14.633  22.504   4.118
16065W        W85880   4.748  25.091  11.957
16066W        W85881  29.055  26.470  11.548
16067W        W85882  14.118  38.982  13.411
16068W        W85883  25.619  27.074  14.938
16069W        W85884  22.672  10.354  12.402
16070W        W85885  33.083  39.861  12.459
16071W        W85886  34.021   3.888   4.765
16072W        W85887   3.288  27.098   4.623
16073W        W85888  10.168  18.565   1.287
16074W        W85889  30.445   7.815  11.405
16075W        W85890  42.940  10.809   1.816
16076W        W85891  23.491   7.819  13.344
16077W        W85892   3.956  22.682   2.198
16078W        W85893  31.042  14.628  13.370
16079W        W85894   9.270  39.052   3.327
16080W        W85895  13.789  14.745   0.835
16081W        W85896  24.986  14.221  13.795
16082W        W85897  21.107  19.683  11.041
16083W        W85898  14.651   6.769   2.277
16084W        W85899  26.696   1.837  11.968
16085W        W85900  30.597   1.482   1.801
16086W        W85901   3.296  19.059   2.794
16087W        W85902  18.275   8.164  13.408
16088W        W85903  26.581   7.728   2.189
16089W        W85904  35.022  13.649   2.799
16090W        W85905  39.330  44.436   0.380
16091W        W85906  15.654  28.013  14.909
16092W        W85907   4.421  12.226  14.801
16093W        W85908  18.764  40.860  14.354
16094W        W85909  39.345  41.476   2.251
16095W        W85910  10.715  32.003  11.566
16096W        W85911  19.640  22.634  11.382
16097W        W85912  25.535  27.528   1.885
16098W        W85913  21.522  44.419   3.817
16099W        W85914  22.609  36.428  11.501
16100W        W85915  40.802  10.230  14.377
16101W        W85916  23.160  43.794  12.355
16102W        W85917   2.947  25.705   0.256
16103W        W85918  10.182   9.169   3.670
16104W        W85919  25.528  14.179  13.899
16105W        W85920  31.998  30.561   1.228
16106W        W85921  13.621  29.565  13.915
16107W        W85922   8.315  25.034   4.206
16108W        W85923  13.728  19.281   3.324
16109W        W85924  15.276  23.703   3.670
16110W        W85925  41.973  23.002  11.508
16111W        W85926   1.906  12.204  14.292
16112W        W85927   9.331  16.645  13.847
16113W        W85928  26.048  43.417  13.922
16114W        W85929   2.721   4.866  10.557
16115W        W85930  10.684  16.220   4.674
16116W        W85931  36.424   2.820  13.804
16117W        W85932  20.106   9.289   4.293
16118W        W85933   9.695  35.583  14.023
16119W        W85934  22.616  10.319   0.435
16120W        W85935  36.536   5.436  10.503
16121W        W85936  37.895  19.269  13.448
16122W        W85937  26.496  44.939  11.440
16123W        W85938   1.325   7.411   0.298
16124W        W85939   7.713  18.765  14.876
16125W        W85940   9.738  39.544   2.381
16126W        W85941  20.116  41.330   3.789
16127W        W85942  20.700  41.009   0.854
16128W        W85943  10.680  34.942   2.739
16129W        W85944  20.624  35.542   0.754
16130W        W85945  39.529  34.494   4.265
16131W        W85946   7.294  36.537   4.342
16132W        W85947  16.627  34.926  13.501
16133W        W85948   2.356  43.340  14.869
16134W        W85949  14.286  16.299   3.679
16135W        W85950  17.610  40.029   2.240
16136W        W85951  35.551  28.151   4.205
16137W        W85952  41.449  39.385   2.792
16138W        W85953  29.434  29.938   1.856
16139W        W85954  36.347  36.866  12.931
16140W        W85955  22.672  13.698   1.226
16141W        W85956  23.644  19.708  13.955
16142W        W85957   0.977  32.025   3.379
16143W        W85958  34.566  20.705   0.381
16144W        W85959  14.799   1.742   2.225
16145W        W85960  20.144   6.712  13.407
16146W        W85961  36.445  28.494   3.842
16147W        W85962  37.392  30.599   1.360
16148W        W85963  21.663   6.411   9.978
16149W        W85964  33.536  10.800   0.292
16150W        W85965   1.258  24.605   0.831
16151W        W85966  33.425  23.545   3.716
16152W        W85967  23.096  29.531   0.417
16153W        W85968   5.841  21.044  11.464
16154W        W85969  20.183   9.882   3.845
16155W        W85970  38.856   6.254  13.361
16156W        W85971   9.788  34.114  14.875
16157W        W85972   1.949   8.258  14.760
16158W        W85973  41.975   3.351   4.736
16159W        W85974  38.359  39.032  13.846
16160W        W85975   4.350  22.150  11.092
16161W        W85976  44.987  41.891  10.602
16162W        W85977  14.124   4.303   3.147
16163W        W85978  19.045  31.041   0.769
16164W        W85979   0.336  40.519   0.430
16165W        W85980  27.014  25.121  11.537
16166W        W85981  26.093  20.712   0.944
16167W        W85982  35.100  16.649  12.067
16168W        W85983  17.239  27.678   0.808
16169W        W85984  42.521  11.853  13.362
16170W        W85985  14.317  21.052   9.981
16171W        W85986  12.239  37.488   3.313
16172W        W85987  19.715  27.675   2.221
16173W        W85988  17.131  23.173  14.437
16174W        W85989  42.804   2.410   0.792
16175W        W85990  43.855   8.759  13.320
16176W        W85991   4.398  34.117   0.922
16177W        W85992  39.833  20.197  13.990
16178W        W85993   4.915  28.521   3.270
16179W        W85994  43.285  24.120   1.358
16180W        W85995  17.634  41.970  14.286
16181W        W85996  27.076  25.578  13.967
16182W        W85997  31.111  36.045   3.166
16183W        W85998  40.372  21.729  11.415
16184W        W85999  44.417  24.681  11.016
16185W        W86000  27.656  20.558  13.832
16186W        W86001  35.061  33.595   2.771
16187W        W86002  11.724  21.629   4.326
16188W        W86003  24.572  32.064  11.587
16189W        W86004  42.419  11.789   1.372
16190W        W86005  13.328  44.802  12.568
16191W        W86006   2.785  21.609   1.809
16192W        W86007  21.666  34.938   1.449
16193W        W86008  27.011  25.592  14.824
16194W        W86009  18.181   7.265   2.769
16195W        W86010   8.739   6.830  14.910
16196W        W86011  25.073  36.475  12.827
16197W        W86012   7.308  34.052  11.509
16198W        W86013  33.092  35.043   1.218
16199W        W86014  15.242  41.955  14.940
16200W        W86015  30.973  10.359  13.466
16201W        W86016   6.920  10.200  13.928
16202W        W86017   8.802  31.644   2.278
16203W        W86018   8.673  19.215   4.824
16204W        W86019  24.995  10.362   2.691
16205W        W86020  31.430  29.425  12.481
16206W        W86021  40.394  17.266  12.879
16207W        W86022   4.815   4.410   4.615
16208W        W86023   4.331  42.351  13.063
16209W        W86024  24.538   5.231  11.396
16210W        W86025   9.746  35.509  14.957
16211W        W86026  43.330  43.475   3.316
16212W        W86027  15.293   5.836   4.765
16213W        W86028  11.166  25.657   4.832
16214W        W86029  41.012  23.561  11.870
16215W        W86030  23.565  19.197  12.439
16216W        W86031   5.323  14.650  12.083
16217W        W86032   9.222  30.591   0.743
16218W        W86033  10.790  12.290  11.885
16219W        W86034   2.321  18.694  14.944
16220W        W86035   2.310  13.221  14.854
16221W        W86036  31.423  37.038   4.632
16222W        W86037  28.119  14.632   2.750
16223W        W86038  27.676  20.749   4.738
16224W        W86039  18.129   6.294   0.880
16225W        W86040  38.984   6.908   3.808
16226W        W86041   0.770  13.825   2.705
16227W        W86042  40.369  37.548  11.107
16228W        W86043  27.195   2.262  11.456
16229W        W86044  11.700   3.434   1.742
16230W        W86045  10.247  22.744   5.271
16231W        W86046   5.243   8.797   0.930
16232W        W86047  11.273  12.334   0.883
16233W        W86048  39.338  35.416   4.170
16234W        W86049  39.836  36.046  14.871
16235W        W86050  22.070  13.754  11.994
16236W        W86051  39.356  36.348   3.223
16237W        W86052  31.926  15.237  14.842
16238W        W86053   8.238  11.652  11.466
16239W        W86054  10.647  33.579  12.364
16240W        W86055  38.415  16.666   1.364
16241W        W86056   9.774  11.867   4.833
16242W        W86057  41.455  44.919   2.216
16243W        W86058  26.613  14.297  10.011
16244W        W86059  20.098  25.640   0.423
16245W        W86060  21.116  40.513   3.746
16246W        W86061   3.228   2.357  14.456
16247W        W86062  38.033  28.930   4.640
16248W        W86063  32.986   6.204   3.325
16249W        W86064  18.628  31.934   4.685
16250W        W86065  10.851  16.774  10.545
16251W        W86066   0.320  30.907  10.921
16252W        W86067  33.509  38.545   3.184
16253W        W86068   9.776  19.660  13.415
16254W        W86069  43.937  44.288  11.396
16255W        W86070  15.651  21.201   4.261
16256W        W86071  38.402  13.105   4.139
16257W        W86072   9.372   4.815  11.005
16258W        W86073  14.663  43.852  11.985
16259W        W86074  17.205  14.305  14.823
16260W        W86075   4.224   6.825   3.809
16261W        W86076  36.865  28.565  12.452
16262W        W86077  28.514  24.046   2.836
16263W        W86078  32.044  27.570  11.493
16264W        W86079  19.623  35.404  13.030
16265W        W86080  16.177  42.311   2.753
16266W        W86081  33.429   1.269   4.706
16267W        W86082  21.097   0.939   9.986
16268W        W86083   2.232  16.599   3.158
16269W        W86084  13.766  26.503   2.249
16270W        W86085  11.754  13.623  11.054
16271W        W86086   5.772   5.725  11.547
16272W        W86087  41.850   2.836   3.711
16273W        W86088  21.569  11.768  13.430
16274W        W86089  19.574   5.409  13.481
16275W        W86090  23.572  22.114  14.926
16276W        W86091  29.515  27.692  12.868
16277W        W86092   7.369  44.785   4.827
16278W        W86093   5.736  32.439  11.956
16279W        W86094   8.832  25.199  13.546
16280W        W86095  17.795  16.071   0.758
16281W        W86096   7.712  40.478  14.458
16282W        W86097  34.556  33.070   2.662
16283W        W86098  43.356  36.940   2.372
16284W        W86099   2.249  10.306  14.931
16285W        W86100  27.541  13.336   2.801
16286W        W86101  29.146  32.030   4.153
16287W        W86102  30.571   3.265  11.897
16288W        W86103  28.179  21.610   4.730
16289W        W86104  39.522   2.472  12.929
16290W        W86105  22.585  12.832   5.122
16291W        W86106  40.425  41.421  13.427
16292W        W86107  33.903  40.953  13.389
16293W        W86108  24.643  31.942   2.662
16294W        W86109  32.619  37.566   1.435
16295W        W86110  36.499  21.136   0.794
16296W        W86111   0.911   3.860  14.816
16297W        W86112  30.016  16.153   3.803
16298W        W86113  36.389  26.581  12.950
16299W        W86114   4.310  21.681  10.419
16300W        W86115  34.003   0.886   2.304
16301W        W86116   0.958   7.818  13.027
16302W        W86117  16.660  11.357  10.467
16303W        W86118  33.945  30.488   3.675
16304W        W86119   8.678  25.116  12.955
16305W        W86120  16.670  28.469   2.858
16306W        W86121  24.717  42.889  12.050
16307W        W86122   9.291   5.263   2.853
16308W        W86123  41.023  34.468   3.790
16309W        W86124  19.538  12.833   4.661
16310W        W86125  31.129  18.657  11.511
16311W        W86126  31.065  43.435   2.823
16312W        W86127  10.718  24.230   1.316
16313W        W86128  29.667   2.338  14.953
16314W        W86129  31.027  22.231  12.942
16315W        W86130  28.990  35.936  14.293
16316W        W86131  44.933  29.544  14.761
16317W        W86132  18.645  11.797   5.167
16318W        W86133   0.976  14.719  14.944
16319W        W86134  21.202  22.630  11.020
16320W        W86135  34.092  32.126  13.979
16321W        W86136   5.914  35.423  14.940
16322W        W86137  19.248   2.325  12.040
16323W        W86138   2.425  29.539   4.754
16324W        W86139  16.791  34.032   2.297
16325W        W86140   2.802   8.371  13.420
16326W        W86141  26.696  30.491  11.988
16327W        W86142  14.159   8.248   0.768
16328W        W86143  32.945  13.750   1.288
16329W        W86144  12.120   4.836   4.124
16330W        W86145  16.105   8.210  10.631
16331W        W86146   8.386   1.963   1.347
16332W        W86147  25.144   9.715   1.697
16333W        W86148  21.119   8.389   3.671
16334W        W86149   1.922   3.871  13.506
16335W        W86150  34.909  27.563  14.013
16336W        W86151   2.433  17.221  10.932
16337W        W86152  24.553  27.498   4.250
16338W        W86153  43.506  28.639   0.790
16339W        W86154  37.437  11.678   0.457
16340W        W86155  39.950  38.983  12.037
16341W        W86156   4.271  35.393  12.441
16342W        W86157  38.519  12.216  11.108
16343W        W86158  24.183  43.911  11.068
16344W        W86159  31.449  39.833  14.468
16345W        W86160  20.670   2.752   1.842
16346W        W86161   1.780  43.456   1.899
16347W        W86162  38.359   8.855  13.819
16348W        W86163  19.716  22.194  11.888
16349W        W86164  19.697  11.174   3.719
16350W        W86165  39.469  39.354  12.012
16351W        W86166  44.367   5.722  12.535
16352W        W86167  31.576  25.650  12.014
16353W        W86168   0.895  13.737  14.960
16354W        W86169  39.044  36.529   0.273
16355W        W86170  13.309  44.854  11.029
16356W        W86171  34.963   3.368   0.886
16357W        W86172  26.079  14.717  13.909
16358W        W86173  38.958   4.387  10.473
16359W        W86174  12.282   0.383   4.777
16360W        W86175   1.930  35.440   0.892
16361W        W86176   4.217  42.938  13.432
16362W        W86177  20.225  17.267  13.323
16363W        W86178  20.625  14.655  11.589
16364W        W86179  26.473  32.996   4.215
16365W        W86180  37.483  21.721  13.052
16366W        W86181  21.192   3.268   2.720
16367W        W86182  19.149  43.855  11.566
16368W        W86183  29.169  13.683  13.845
16369W        W86184   8.323  34.559  11.941
16370W        W86185  36.519  43.515  14.920
16371W        W86186  12.848   9.197   1.384
16372W        W86187   0.285   6.696  10.630
16373W        W86188   7.894   0.921  12.467
16374W        W86189  40.831   2.745   0.444
16375W        W86190  42.882   7.851  12.980
16376W        W86191  39.030  17.266   3.666
16377W        W86192  44.283  34.080   2.316
16378W        W86193  36.841  28.476   2.377
16379W        W86194  33.895  19.650  13.050
16380W        W86195  31.632   1.332  13.039
16381W        W86196  35.422  27.096  12.412
16382W        W86197  33.486  38.481  14.297
16383W        W86198  39.890  35.095  14.499
16384W        W86199  17.207   3.840  14.867
16385W        W86200  36.915  35.889  11.114
16386W        W86201  26.616   1.929   1.281
16387W        W86202  40.027  27.034   0.398
16388W        W86203  15.705   8.728   3.776
16389W        W86204  11.806  26.005   1.850
16390W        W86205  22.692  43.846   1.926
16391W        W86206  41.354   8.336  13.345
16392W        W86207   2.767  27.054  10.947
16393W        W86208  11.208  28.182   3.732
16394W        W86209  19.194   4.339  10.416
16395W        W86210  42.471  19.771   5.083
16396W        W86211  11.825  18.719  10.917
16397W        W86212  44.378  11.735   4.739
16398W        W86213   8.765  25.969  11.930
16399W        W86214  17.600  38.435  12.438
16400W        W86215   4.259  14.671  14.010
16401W        W86216  22.196  43.856   5.640
16402W        W86217  31.084  42.790   2.820
16403W        W86218   2.426  25.174  12.383
16404W        W86219  33.099  29.579   2.812
16405W        W86220  43.973   2.314  10.504
16406W        W86221  13.751   6.700   4.206
16407W        W86222  33.614  23.160   1.916
16408W        W86223   7.822  31.587   0.808
16409W        W86224   3.828  17.133  12.985
16410W        W86225  10.638  36.929  14.954
16411W        W86226  17.233  34.069  10.061
16412W        W86227  41.854  34.088  12.843
16413W        W86228  27.687  27.489   3.310
16414W        W86229  19.195  19.246   4.807
16415W        W86230  18.691  21.197  10.054
16416W        W86231  16.139  14.251  13.466
16417W        W86232  24.016  29.000  11.913
16418W        W86233  22.648  42.800   5.233
16419W        W86234   3.391  34.536  14.400
16420W        W86235   9.394  21.650  12.399
16421W        W86236   7.411  35.368  13.865
16422W        W86237  28.035  24.509  11.071
16423W        W86238  28.986  31.059   1.395
16424W        W86239  41.835  12.160   2.776
16425W        W86240   4.899  43.425   1.751
16426W        W86241  28.555  24.227  14.450
16427W        W86242   5.700  19.114   1.926
16428W        W86243   3.871  32.433   2.336
16429W        W86244  36.427   9.769  12.879
16430W        W86245  22.108  17.723  13.928
16431W        W86246  40.837  14.667   1.310
16432W        W86247  17.265  16.163   1.293
16433W        W86248  10.144  11.801   1.245
16434W        W86249  10.731  32.104   1.358
16435W        W86250  35.089   5.822   3.277
16436W        W86251  27.557  32.444  12.044
16437W        W86252  19.704  26.675   0.245
16438W        W86253  15.582  22.651   3.320
16439W        W86254  26.590  12.684   1.742
16440W        W86255  43.463  33.529  12.089
16441W        W86256  22.089  25.523  14.476
16442W        W86257  39.822  36.863  13.430
16443W        W86258   2.950  12.819  11.502
16444W        W86259  23.674  30.074   4.330
16445W        W86260  42.986  11.850   1.699
16446W        W86261  33.610   7.872  10.538
16447W        W86262   7.728  34.022   0.945
16448W        W86263  25.540  23.496  11.918
16449W        W86264  22.556  19.652   4.313
16450W        W86265  41.872  22.693   4.246
16451W        W86266  12.338   3.773  11.427
16452W        W86267  16.655   5.249   1.706
16453W        W86268  21.586  27.971  13.844
16454W        W86269  10.676  16.241   1.278
16455W        W86270  25.496   6.271   4.665
16456W        W86271  42.494  42.899   2.674
16457W        W86272  22.737  11.766   0.302
16458W        W86273  33.955   8.718   4.614
16459W        W86274  40.461  33.455  12.873
16460W        W86275   6.823  39.928   3.169
16461W        W86276   3.820  17.678  13.801
16462W        W86277  21.610  37.494   1.330
16463W        W86278  37.386  19.585   4.139
16464W        W86279  23.115   3.745  13.916
16465W        W86280  18.651   4.226   0.481
16466W        W86281   6.350  30.958  11.966
16467W        W86282  25.021  39.012  12.866
16468W        W86283  11.686  10.199   1.857
16469W        W86284  16.741  32.069   4.217
16470W        W86285  16.147   0.913  12.568
16471W        W86286  20.689  36.919   1.879
16472W        W86287  37.446  28.565  14.347
16473W        W86288  36.488  11.373  12.894
16474W        W86289  22.592  25.528   1.257
16475W        W86290  23.565   7.723  13.963
16476W        W86291  12.619  35.566  14.385
16477W        W86292  32.489   0.486   1.694
16478W        W86293   8.727  34.510  11.062
16479W        W86294   4.326   3.769  11.114
16480W        W86295   5.256  30.637   0.283
16481W        W86296   2.893  32.005  13.868
16482W        W86297  38.464   3.865  14.344
16483W        W86298  11.753  27.660   0.887
16484W        W86299  22.622  33.526   3.288
16485W        W86300  44.502   5.753   5.254
16486W        W86301  17.687  12.798  13.061
16487W        W86302  27.460  42.962  14.335
16488W        W86303  14.642  39.439  11.121
16489W        W86304   3.320  36.455   3.260
16490W        W86305  26.623  37.985  14.994
16491W        W86306   5.194  29.025   2.682
16492W        W86307  33.040  44.954  14.477
16493W        W86308   0.887  44.378   1.748
16494W        W86309  43.515  37.365  13.889
16495W        W86310   0.831  35.023   1.810
16496W        W86311  18.646  11.295  13.323
16497W        W86312  15.098  38.050  14.829
16498W        W86313   2.428  23.022  11.106
16499W        W86314  28.086  39.837   4.127
16500W        W86315  13.202  42.905   4.622
16501W        W86316  37.032   1.735   2.340
16502W        W86317   1.784  43.863  13.480
16503W        W86318  40.017   8.859   3.207
16504W        W86319  25.477  10.307  14.936
16505W        W86320  24.663  40.529  11.864
16506W        W86321  39.320  15.618   2.405
16507W        W86322  24.650  20.619   2.676
16508W        W86323  34.015  11.354  12.444
16509W        W86324   6.237  42.796  11.081
16510W        W86325  16.143   6.256  12.890
16511W        W86326  12.848   8.317   0.956
16512W        W86327  34.588  21.522  14.784
16513W        W86328  43.388  20.084   0.938
16514W        W86329  43.462   8.309  12.076
16515W        W86330  33.586  39.927   2.389
16516W        W86331  34.573  27.477   3.372
16517W        W86332   4.409   4.876  10.961
16518W        W86333   1.470  11.768  13.009
16519W        W86334  41.915  23.089   1.842
16520W        W86335  34.038  22.706  11.015
16521W        W86336  19.268   7.402   4.144
16522W        W86337  11.712  30.939   1.313
16523W        W86338  22.127  30.586  13.958
16524W        W86339  43.849  20.096   3.843
16525W        W86340  16.112  38.433   4.738
16526W        W86341  32.126  43.994  14.296
16527W        W86342  23.025   8.200   0.900
16528W        W86343   8.788  38.402   3.277
16529W        W86344  25.983  14.729  12.035
16530W        W86345   9.760  12.146  14.787
16531W        W86346  31.455  37.353   2.688
16532W        W86347   2.382  14.111   0.770
16533W        W86348  44.405  38.536   1.808
16534W        W86349  42.284  24.110   4.803
16535W        W86350  14.791  29.974   3.251
16536W        W86351   6.693  11.854   3.172
16537W        W86352  11.174   8.732  14.029
16538W        W86353  39.814   2.337  11.932
16539W        W86354  20.089  44.435   3.179
16540W        W86355  18.580   5.417   1.422
16541W        W86356   3.423   3.799  12.050
16542W        W86357  38.525   2.944  10.982
16543W        W86358  28.587  16.242   0.825
16544W        W86359   6.828  18.155   0.763
16545W        W86360  26.661   3.330   3.386
16546W        W86361  26.187  16.585  14.027
16547W        W86362   2.236  10.372  11.898
16548W        W86363  35.091  33.028   2.852
16549W        W86364  33.564  13.670  12.546
16550W        W86365   4.918  31.131   2.334
16551W        W86366  31.063  26.122  14.322
16552W        W86367  20.643   9.887  14.971
16553W        W86368  26.464  17.569  12.915
16554W        W86369  35.390  38.859  14.275
16555W        W86370   1.376  35.918  10.568
16556W        W86371  34.062  23.509  13.404
16557W        W86372   1.844  39.849  14.371
16558W        W86373  17.570  13.148   3.225
16559W        W86374   9.764  44.454   2.205
16560W        W86375  36.898  38.480  11.575
16561W        W86376   1.290  13.120  11.021
16562W        W86377  17.556  15.222   1.288
16563W        W86378  36.532  39.030  10.585
16564W        W86379  14.775   8.306  14.983
16565W        W86380   4.734  42.839   0.454
16566W        W86381   1.432  31.061   0.765
16567W        W86382  38.348   6.833   4.829
16568W        W86383  44.777  40.852   4.781
16569W        W86384  26.530  17.662   2.279
16570W        W86385  13.247  39.933  13.964
16571W        W86386  20.574  27.532   2.405
16572W        W86387  19.123  41.886  12.998
16573W        W86388  37.870  41.365   2.896
16574W        W86389  21.101  41.369  13.451
16575W        W86390  12.612   9.723   2.892
16576W        W86391  16.162  17.087  14.376
16577W        W86392  37.542  18.646   2.681
16578W        W86393  10.241   3.226  12.399
16579W        W86394  28.101  42.000  14.938
16580W        W86395  42.443   8.354   3.220
16581W        W86396  42.982  25.567   2.712
16582W        W86397  32.135   5.435   3.251
16583W        W86398   3.804   4.290  14.433
16584W        W86399  25.981  40.519  13.403
16585W        W86400  20.051  34.535  13.840
16586W        W86401  11.216   5.236  10.950
16587W        W86402  26.036  28.122   4.743
16588W        W86403  14.330  31.998  14.297
16589W        W86404  27.163  28.975  14.901
16590W        W86405  27.085   4.719  11.917
16591W        W86406   7.246   3.797   1.426
16592W        W86407  18.556   9.857   1.338
16593W        W86408  36.088  41.303   1.377
16594W        W86409  19.063  38.955   2.286
16595W        W86410  31.582  34.385   2.231
16596W        W86411  15.628  39.870   4.323
16597W        W86412  25.673  41.856   0.937
16598W        W86413   7.832  41.373  12.839
16599W        W86414  24.225  42.829   2.743
16600W        W86415  30.998   8.265   3.840
16601W        W86416   7.186  44.920  10.614
16602W        W86417  14.808   3.919  13.319
16603W        W86418  37.541   3.715   0.318
16604W        W86419  38.349   7.355   1.443
16605W        W86420  33.560   8.382   0.885
16606W        W86421  43.437  41.322  11.590
16607W        W86422  12.277  27.573  12.452
16608W        W86423   7.888  27.624  14.913
16609W        W86424  25.533  13.669  14.423
16610W        W86425  21.135   6.207  10.630
16611W        W86426  17.564  16.137  13.376
16612W        W86427  22.155   7.293  10.559
16613W        W86428   2.955  38.385  10.543
16614W        W86429   8.741  37.475   4.664
16615W        W86430  26.113   1.267   1.858
16616W        W86431   2.933   8.255  10.485
16617W        W86432  42.945  19.667   3.230
16618W        W86433  11.814   0.320  12.987
16619W        W86434  20.034  16.722  12.485
16620W        W86435  36.583   4.233  14.890
16621W        W86436   4.409  16.581   2.847
16622W        W86437  42.311  20.617  14.350
16623W        W86438   1.269  14.117   3.694
16624W        W86439  42.010  22.110   2.340
16625W        W86440  36.025  25.477  13.427
16626W        W86441  42.815   8.754  14.313
16627W        W86442   3.945  22.055   1.345
16628W        W86443   4.235  29.613  13.044
16629W        W86444  11.731  41.884  11.509
16630W        W86445  16.244  39.971  14.510
16631W        W86446  12.846  31.939   3.756
16632W        W86447  20.247  19.611  12.502
16633W        W86448  17.196  16.140   2.761
16634W        W86449  22.642  21.226   2.285
16635W        W86450  16.785  23.608   2.686
16636W        W86451  18.273  25.109   1.737
16637W        W86452  31.982   1.812   0.796
16638W        W86453  33.498  40.515   2.215
16639W        W86454  19.704  16.709  11.547
16640W        W86455  19.634   8.746  13.414
16641W        W86456  39.484   7.229  11.565
16642W        W86457  16.121   9.865   3.822
16643W        W86458  12.768  31.898  13.524
16644W        W86459   8.722  28.520  13.364
16645W        W86460  27.488  27.642  11.965
16646W        W86461  20.728   8.858   4.702
16647W        W86462  14.267   2.332   3.193
16648W        W86463   9.346  20.617   0.772
16649W        W86464  31.916  22.645  11.867
16650W        W86465   1.286  37.859   2.821
16651W        W86466  18.254  43.895   3.736
16652W        W86467  42.339  27.459  10.413
16653W        W86468  25.072  14.211   1.933
16654W        W86469  39.877  29.944  11.588
16655W        W86470  13.309   0.803  14.346
16656W        W86471  27.113  17.599  11.858
16657W        W86472  16.751   4.749   3.270
16658W        W86473  25.206  32.990  12.502
16659W        W86474   7.836  12.621  14.279
16660W        W86475  29.996  38.007   2.764
16661W        W86476  34.602  12.624   1.309
16662W        W86477  36.585  30.556  12.341
16663W        W86478  34.540   9.707  13.370
16664W        W86479  10.307  32.550  11.876
16665W        W86480   4.796  13.813   3.351
16666W        W86481  31.928  24.592   0.255
16667W        W86482  28.618  28.082   3.185
16668W        W86483  10.138   4.364  14.918
16669W        W86484  43.434  26.501   4.150
16670W        W86485   4.392  17.642   1.740
16671W        W86486   5.342   4.395  11.884
16672W        W86487   7.194  24.101   1.820
16673W        W86488  30.970   6.226   4.690
16674W        W86489   6.777   4.263  12.036
16675W        W86490  44.387  24.017  13.310
16676W        W86491  15.201   7.844  14.364
16677W        W86492  38.454  37.039  10.628
16678W        W86493  40.922  30.653  10.997
16679W        W86494  38.350  10.238  13.882
16680W        W86495  32.015  20.612   3.220
16681W        W86496  43.855  34.954  12.531
16682W        W86497  11.805  19.692  11.461
16683W        W86498  41.293  36.037   1.868
16684W        W86499   6.732  36.494  10.560
16685W        W86500  30.615  13.154   2.232
16686W        W86501  32.008  35.421   2.704
16687W        W86502  43.891  29.449  13.976
16688W        W86503  36.543  44.364   0.734
16689W        W86504  12.346  40.877   3.222
16690W        W86505  14.761  12.299   1.393
16691W        W86506  13.842  12.346  12.828
16692W        W86507  11.823  28.529  10.464
16693W        W86508   1.253  29.424   1.700
16694W        W86509   8.730  23.996   4.644
16695W        W86510  21.066   7.332  14.313
16696W        W86511  17.796  29.927   2.214
16697W        W86512   4.817   1.315   1.861
16698W        W86513  25.476  32.092  12.359
16699W        W86514  10.209  40.445  13.527
16700W        W86515  12.763  35.097  14.794
16701W        W86516  31.059   9.653  10.996
16702W        W86517  41.520  33.027  13.904
16703W        W86518  34.558  14.210   1.899
16704W        W86519   2.426  31.005  11.882
16705W        W86520  13.787  21.227  13.913
16706W        W86521  41.022  22.998   4.764
16707W        W86522  22.133  38.488  11.935
16708W        W86523  23.640   3.750  13.972
16709W        W86524  20.139  28.075   0.731
16710W        W86525  33.461  39.003   1.845
16711W        W86526  39.832  40.868   2.788
16712W        W86527   3.244  18.167  13.805
16713W        W86528  20.215  15.096  10.579
16714W        W86529  29.074  43.366   0.918
16715W        W86530   9.344  41.037   3.286
16716W        W86531   0.425  22.701  12.920
16717W        W86532  17.197   1.738   5.165
16718W        W86533   5.876  35.409  13.978
16719W        W86534  30.560  36.050  11.489
16720W        W86535  31.917   5.319   0.740
16721W        W86536  38.018   5.895   1.309
16722W        W86537   9.874   0.366   2.789
16723W        W86538  17.711  20.183  10.633
16724W        W86539  33.089  26.470   0.942
16725W        W86540  34.580  44.384   1.301
16726W        W86541   6.317  18.178  14.857
16727W        W86542  29.159  31.500  14.784
16728W        W86543  35.894  38.366  11.862
16729W        W86544  29.951  25.120   3.310
16730W        W86545  21.726  10.709   2.815
16731W        W86546  19.575  24.491  13.883
16732W        W86547   0.862  27.183   1.891
16733W        W86548  44.818   4.836   0.781
16734W        W86549  31.137  26.983   1.264
16735W        W86550   1.366  36.028  11.381
16736W        W86551   8.663   1.478   4.598
16737W        W86552  36.927  22.055   2.780
16738W        W86553  28.660  21.714   1.395
16739W        W86554   8.701  16.075  12.862
16740W        W86555  34.444  29.174   2.864
16741W        W86556  27.952   8.347  10.488
16742W        W86557   3.759  10.766   4.114
16743W        W86558  10.858  43.311  14.295
16744W        W86559   8.738  25.980  13.980
16745W        W86560   6.751  37.575   5.187
16746W        W86561  24.125  21.174   0.440
16747W        W86562  12.674   7.718  12.067
16748W        W86563  14.711  12.786  12.891
16749W        W86564  23.684  10.671   3.152
16750W        W86565   4.308  18.619  10.953
16751W        W86566   1.931  15.322   4.742
16752W        W86567  36.935  26.108  12.437
16753W        W86568   0.868  29.587   4.681
16754W        W86569  11.235  32.126  14.904
16755W        W86570   9.700   3.385  14.822
16756W        W86571  22.207  12.126   2.311
16757W        W86572  36.867   1.253   0.379
16758W        W86573  19.181  33.404  11.879
16759W        W86574  25.595   2.380   1.301
16760W        W86575   4.362  29.431  12.571
16761W        W86576  20.756  26.456   2.789
16762W        W86577   3.733   5.341   4.247
16763W        W86578   1.764  15.113  11.005
16764W        W86579  10.340  11.171  11.993
16765W        W86580  37.984   3.863   4.636
16766W        W86581   3.947   0.839   0.814
16767W        W86582  20.720  29.973   4.243
16768W        W86583   2.756  21.514  13.319
16769W        W86584  42.868  25.573   3.280
16770W        W86585  11.331   1.245   4.699
16771W        W86586  34.505  31.098  12.079
16772W        W86587  28.574  43.307   1.884
16773W        W86588   0.382  10.223  13.400
16774W        W86589   5.334  22.141  12.530
16775W        W86590  40.369  11.722   4.657
16776W        W86591  42.380  14.310   2.870
16777W        W86592  16.579  30.076  12.972
16778W        W86593  28.981   5.701   0.822
16779W        W86594   4.222  35.521   2.276
16780W        W86595  25.588  43.999  14.352
16781W        W86596  13.338  28.102  12.026
16782W        W86597  32.003  31.607  12.079
16783W        W86598  12.325   8.708   3.870
16784W        W86599  39.994  31.911  10.894
16785W        W86600  10.373   6.791  13.349
16786W        W86601  38.335  15.629   1.740
16787W        W86602  38.558  39.835  14.371
16788W        W86603  39.992  22.081   1.816
16789W        W86604  15.124  13.740  11.940
16790W        W86605  13.694  13.340   4.703
16791W        W86606  10.694  37.567   1.422
16792W        W86607  27.685  43.959   0.279
16793W        W86608  20.161   3.315  13.517
16794W        W86609  22.241  10.874   3.841
16795W        W86610   1.343  11.745  10.898
16796W        W86611   2.910  26.648   1.812
16797W        W86612   3.401  30.158   1.427
16798W        W86613   7.762   3.751   3.745
16799W        W86614  14.589  38.830  12.901
16800W        W86615   9.647  37.343  10.015
16801W        W86616  42.345  36.491  13.347
16802W        W86617  20.214  28.957   2.184
16803W        W86618   0.958  32.623  10.463
16804W        W86619  33.018  33.588   0.469
16805W        W86620  34.536  29.539   0.965
16806W        W86621   6.751  22.584  13.972
16807W        W86622  20.175  13.226   3.170
16808W        W86623  38.008   1.261  12.059
16809W        W86624  24.608   2.957  11.418
16810W        W86625  26.647   6.358  10.535
16811W        W86626   3.803  40.831  14.447
16812W        W86627  34.906   1.306   0.803
16813W        W86628  39.382  41.969  11.471
16814W        W86629  41.439   3.938  13.468
16815W        W86630  10.269   7.739   4.749
16816W        W86631  20.557  25.195   1.800
16817W        W86632   7.362  28.661  11.568
16818W        W86633  24.033  44.423   0.726
16819W        W86634  21.060  38.983  12.075
16820W        W86635  16.146  21.720  14.329
16821W        W86636   6.817  23.062   0.441
16822W        W86637   8.668  14.308  12.008
16823W        W86638   1.863  44.867  14.837
16824W        W86639  37.833   0.370   4.604
16825W        W86640  34.012   3.290  12.999
16826W        W86641  19.628   0.255   4.349
16827W        W86642  18.773   3.877  14.337
16828W        W86643  44.387   9.718  10.596
16829W        W86644  25.643  35.407  10.609
16830W        W86645  37.436   4.903  13.441
16831W        W86646   2.830  31.906   2.219
16832W        W86647  32.563   5.257  10.506
16833W        W86648   3.865  24.108  14.296
16834W        W86649  27.636  14.274  13.047
16835W        W86650  39.017  31.623  14.998
16836W        W86651   2.832  23.198   3.807
16837W        W86652  36.027   1.917   0.812
16838W        W86653   8.387   5.854  12.377
16839W        W86654  20.129  21.136  14.318
16840W        W86655  26.486  37.518  13.494
16841W        W86656  14.326  21.700   1.413
16842W        W86657   2.904  25.543   4.317
16843W        W86658  38.968  39.012  14.344
16844W        W86659  23.101  23.142  11.043
16845W        W86660  33.428  17.268  10.435
16846W        W86661  33.046  36.537  13.063
16847W        W86662  40.938  14.660   0.350
16848W        W86663   6.808  30.946  12.964
16849W        W86664   4.376  38.003   3.810
16850W        W86665  32.613  15.628   0.432
16851W        W86666   3.814  13.788   4.679
16852W        W86667  24.206   5.771   1.225
16853W        W86668  34.581  21.260  11.062
16854W        W86669  29.521  36.077  13.534
16855W        W86670  40.870  24.656  12.945
16856W        W86671  39.374   6.732  10.582
16857W        W86672   1.439  42.990  13.830
16858W        W86673  11.703  18.637   1.316
16859W        W86674  40.869  23.062  14.801
16860W        W86675  17.788  30.116  11.123
16861W        W86676  14.781   9.212   1.831
16862W        W86677  18.614  27.969   3.256
16863W        W86678  40.040   8.714  14.945
16864W        W86679  41.456  18.666  14.772
16865W        W86680   8.874  30.118  12.393
16866W        W86681   7.201   3.778   3.273
16867W        W86682  24.527  33.950  14.323
16868W        W86683  34.031  33.096   3.783
16869W        W86684  10.746  28.659   4.143
16870W        W86685  32.525  27.976   1.216
16871W        W86686  37.921   3.346   3.676
16872W        W86687  21.043  13.775  12.523
16873W        W86688  32.425  20.084  14.439
16874W        W86689  41.931  25.157   4.777
16875W        W86690  33.451   9.198   2.332
16876W        W86691  16.798  42.437  13.025
16877W        W86692  20.574  17.265   3.351
16878W        W86693  20.685  39.891   3.269
16879W        W86694  15.710  33.538  10.466
16880W        W86695  27.157  17.250  11.125
16881W        W86696  14.302   7.834   4.139
16882W        W86697  37.488  11.675  12.418
16883W        W86698  13.155  17.721  14.326
16884W        W86699  26.599   4.255   9.937
16885W        W86700  15.762  35.103   3.360
16886W        W86701  19.091  10.244  10.587
16887W        W86702  42.338  21.255  13.998
16888W        W86703  15.136  31.135  13.324
16889W        W86704  22.620  22.172   3.701
16890W        W86705  13.733  35.918  10.893
16891W        W86706  17.182  20.208   9.939
16892W        W86707  41.011  19.150   0.732
16893W        W86708  21.752  39.418  13.490
16894W        W86709  44.965  39.944   0.756
16895W        W86710   5.809  41.905   2.845
16896W        W86711  39.443   4.893  12.397
16897W        W86712  24.147  35.053  11.420
16898W        W86713  21.697  43.814  14.280
16899W        W86714   7.806  38.053   4.820
16900W        W86715  40.546  26.142   1.934
16901W        W86716  27.088  16.611   2.781
16902W        W86717  13.144  29.554   0.867
16903W        W86718   1.274  34.590  11.870
16904W        W86719   5.361  10.717   2.197
16905W        W86720  21.562  26.022  13.005
16906W        W86721   4.413  30.520  11.599
16907W        W86722  13.777  31.021  10.572
16908W        W86723  40.805  43.440   0.932
16909W        W86724   0.842  19.658   3.371
16910W        W86725  17.740   5.829   1.765
16911W        W86726  26.056  36.397   4.679
16912W        W86727  27.088  41.496  11.473
16913W        W86728   5.433  38.371   3.201
16914W        W86729  19.211  13.611  13.013
16915W        W86730  32.894   0.319  10.966
16916W        W86731  18.716  31.132  12.069
16917W        W86732   3.712  40.044  14.813
16918W        W86733  16.595  38.441  10.605
16919W        W86734  44.950  11.633  12.884
16920W        W86735  14.326  41.977  12.354
16921W        W86736  37.354  28.629  11.988
16922W        W86737   3.401  17.190  11.573
16923W        W86738  29.435  21.234  13.503
16924W        W86739   9.857  41.915   0.268
16925W        W86740  22.996  20.160   2.333
16926W        W86741  40.048  15.300   5.652
16927W        W86742  39.534  30.497   2.235
16928W        W86743  18.257  26.982   0.394
16929W        W86744  40.374   6.894   2.251
16930W        W86745  19.652  16.312   4.660
16931W        W86746  22.707  12.236   0.947
16932W        W86747  19.686  44.359  12.477
16933W        W86748  12.620  43.866  10.615
16934W        W86749  11.722  20.634  13.484
16935W        W86750  18.619  20.673   3.358
16936W        W86751  20.051  15.224   3.733
16937W        W86752  23.624  23.621   4.325
16938W        W86753  12.321  36.425   0.423
16939W        W86754  42.971  12.653   3.813
16940W        W86755   1.977  23.194   1.325
16941W        W86756  31.499  12.139  12.865
16942W        W86757  39.021   0.394  11.460
16943W        W86758  21.698  30.990  14.889
16944W        W86759  19.542  32.044   4.777
16945W        W86760  27.112   1.822   1.790
16946W        W86761  15.732  21.108   3.313
16947W        W86762  30.523  39.397  12.464
16948W        W86763  24.132   0.844   0.862
16949W        W86764  37.534  26.111  11.960
16950W        W86765  44.929  44.278   2.187
16951W        W86766  12.252  32.455  12.088
16952W        W86767   4.927   2.405  10.943
16953W        W86768  21.227  15.237   3.658
16954W        W86769  31.642  36.012  12.544
16955W        W86770  14.095  40.053  10.977
16956W        W86771  16.262  23.591   0.446
16957W        W86772   6.190  40.485  11.477
16958W        W86773  12.268   7.307  14.802
16959W        W86774  43.427   6.216   0.461
16960W        W86775  41.308  18.286   3.630
16961W        W86776  33.622   1.382  10.927
16962W        W86777  18.551  11.738   2.345
16963W        W86778  23.609   4.335   2.663
16964W        W86779  32.905  28.562  11.976
16965W        W86780  16.648  33.417  12.931
16966W        W86781   9.748  16.746   1.389
16967W        W86782  37.399   6.685  13.915
16968W        W86783  12.797  39.969   3.772
16969W        W86784  44.432  20.202  10.480
16970W        W86785  18.103  10.323  12.994
16971W        W86786   8.857  37.479  12.408
16972W        W86787  37.889  11.822   2.338
16973W        W86788  12.125  24.545  14.484
16974W        W86789   1.863  33.392   3.857
16975W        W86790  36.018  22.097  11.055
16976W        W86791  16.593   5.747  10.575
16977W        W86792  32.532  26.613  13.319
16978W        W86793   5.929  25.219   3.803
16979W        W86794  21.049  29.090  12.502
16980W        W86795  16.739   1.848   3.670
16981W        W86796  36.565  16.707  14.367
16982W        W86797  25.216   3.434   2.241
16983W        W86798  17.635   7.251   1.816
16984W        W86799  36.911  19.709  13.000
16985W        W86800  31.444  17.766  13.325
16986W        W86801  19.749  29.982   4.255
16987W        W86802  20.212  39.351   3.741
16988W        W86803  40.970  19.153  10.501
16989W        W86804  17.072  39.382   4.699
16990W        W86805   6.334  13.731   4.252
16991W        W86806   8.860  15.126  13.030
16992W        W86807  25.603  14.624   1.312
16993W        W86808  44.837  10.649  11.924
16994W        W86809  42.782  25.100  13.502
16995W        W86810  19.115  12.776  11.458
16996W        W86811   3.905  28.164  14.457
16997W        W86812  22.596   5.934  13.872
16998W        W86813  15.257  12.183  13.001
16999W        W86814  19.268  13.236   4.794
17000W        W86815   2.446  30.415  12.485
17001W        W86816  31.132   0.293   1.317
17002W        W86817   5.353  42.031  11.906
17003W        W86818  34.929  19.245  11.586
17004W        W86819   5.293  42.376  11.975
17005W        W86820   3.938  19.152   4.346
17006W        W86821  17.770   9.668   3.377
17007W        W86822  12.706   8.795  13.384
17008W        W86823  38.550  36.440  11.575
17009W        W86824  24.112   6.408  14.013
17010W        W86825   4.837  14.258  14.382
17011W        W86826  19.542  23.656   3.841
17012W        W86827  17.063  23.191  14.847
17013W        W86828  23.073   8.231  13.529
17014W        W86829   9.706  13.287  12.866
17015W        W86830   0.374  18.721   3.843
17016W        W86831  33.419  26.636  14.328
17017W        W86832  26.105  29.597   1.376
17018W        W86833  44.330  42.289  11.504
17019W        W86834   0.425   2.934   1.356
17020W        W86835  36.540  14.196   0.479
17021W        W86836  17.568  15.767   2.241
17022W        W86837  14.801  40.393  10.639
17023W        W86838   7.198  14.730   0.737
17024W        W86839  26.167  30.010  11.053
17025W        W86840  13.152  15.185   2.804
17026W        W86841   3.247  28.581  14.343
17027W        W86842  42.920   7.372  14.004
17028W        W86843   4.739  44.947   3.652
17029W        W86844   8.334  17.566   1.780
17030W        W86845   5.291  34.067   1.327
17031W        W86846  34.974  11.327  13.538
17032W        W86847  30.645  37.916  13.511
17033W        W86848  27.125  19.767   2.226
17034W        W86849  21.703  27.096   2.246
17035W        W86850   3.279  39.473   4.815
17036W        W86851  41.309  22.231   3.743
17037W        W86852   6.427  34.101  12.017
17038W        W86853  30.006   7.306  12.999
17039W        W86854  17.176  17.286   9.985
17040W        W86855  31.107   5.798   0.933
17041W        W86856  17.698  23.241   1.273
17042W        W86857  13.786   5.209   3.684
17043W        W86858  29.003  40.022   1.240
17044W        W86859  10.874  28.081  13.535
17045W        W86860  31.076  32.590  11.128
17046W        W86861  28.481  21.104  14.856
17047W        W86862   6.899  37.915   4.804
17048W        W86863  11.815   5.436  14.986
17049W        W86864  17.660   5.425  12.488
17050W        W86865  37.002  12.140   4.719
17051W        W86866   3.954  42.925   3.668
17052W        W86867  27.502  31.417  11.502
17053W        W86868   9.169  34.566  14.931
17054W        W86869   8.257   8.706   3.780
17055W        W86870  35.446  10.285  10.895
17056W        W86871  41.488  13.282   1.839
17057W        W86872  40.950  23.640   3.769
17058W        W86873  43.926   6.832  13.971
17059W        W86874   1.322   9.280   0.348
17060W        W86875  39.816  18.551  12.873
17061W        W86876  41.014  13.246   4.255
17062W        W86877  35.942  16.769  14.290
17063W        W86878  14.654  11.799  13.477
17064W        W86879   2.269  28.625   0.379
17065W        W86880   6.243   0.336  14.772
17066W        W86881  42.402  26.561   5.307
17067W        W86882  20.134  35.996   9.967
17068W        W86883  23.707  32.597  10.408
17069W        W86884  24.973  11.224  13.483
17070W        W86885  23.240  42.994  13.063
17071W        W86886  23.528  11.127   1.435
17072W        W86887  10.734  31.050  12.899
17073W        W86888  36.036  39.320  12.845
17074W        W86889  28.938  24.544  13.863
17075W        W86890  19.637  36.552  14.284
17076W        W86891  32.952  20.615   3.844
17077W        W86892  26.992  14.633   1.819
17078W        W86893   2.846  14.177   2.301
17079W        W86894  10.384   9.277   1.430
17080W        W86895  20.726  30.459   4.723
17081W        W86896  28.067  27.043   3.707
17082W        W86897  36.961  42.005  13.354
17083W        W86898  12.180  29.575  10.990
17084W        W86899   8.284  35.470   3.805
17085W        W86900  24.658  31.641   3.269
17086W        W86901  42.978  14.777   2.292
17087W        W86902  41.919   6.414  10.063
17088W        W86903  16.199  37.551  12.852
17089W        W86904   4.905  44.880  10.964
17090W        W86905  41.396  17.782  14.461
17091W        W86906  29.119  41.974   4.193
17092W        W86907  14.256  27.615   3.373
17093W        W86908  37.411  42.324   0.250
17094W        W86909  28.170  22.700  13.495
17095W        W86910  40.401  23.993  13.943
17096W        W86911  31.522  13.677   3.777
17097W        W86912  15.782  21.172   2.857
17098W        W86913   0.781  16.297  14.475
17099W        W86914  16.602  15.127   3.227
17100W        W86915  22.050  16.292   2.317
17101W        W86916  43.764   8.750  10.913
17102W        W86917  38.973  15.229  12.013
17103W        W86918  21.638  32.448  14.500
17104W        W86919  28.498  33.128  10.506
17105W        W86920  38.406  26.532  13.846
17106W        W86921   8.770   7.779   2.773
17107W        W86922  25.692  26.682   0.747
17108W        W86923   7.349  34.394  13.408
17109W        W86924  13.784  39.455  12.855
17110W        W86925  13.161  41.922   1.839
17111W        W86926  37.975  26.588   4.337
17112W        W86927  35.072  17.633  12.836
17113W        W86928   0.829  12.318   2.383
17114W        W86929  23.515  13.229  11.919
17115W        W86930  22.688  43.315   4.351
17116W        W86931   7.186  23.571  11.406
17117W        W86932   0.854  17.737  11.372
17118W        W86933  22.142  29.456   4.646
17119W        W86934  18.060   1.460   4.326
17120W        W86935   4.712  43.978  14.032
17121W        W86936  28.012  22.553  14.973
17122W        W86937  12.723  43.372   1.729
17123W        W86938  27.006   8.219  14.960
17124W        W86939  23.577  36.042  10.423
17125W        W86940  29.135  35.366  12.079
17126W        W86941   4.411  33.581  11.021
17127W        W86942   1.895  15.678   1.828
17128W        W86943  43.281  40.048  10.497
17129W        W86944  26.061   1.268   0.293
17130W        W86945  38.501  12.361   1.367
17131W        W86946  19.254  24.589  14.841
17132W        W86947   8.168  39.505   1.320
17133W        W86948   1.851  33.057  13.998
17134W        W86949   9.250  43.382   3.221
17135W        W86950  23.581  35.036   2.371
17136W        W86951   2.867  35.974   3.815
17137W        W86952  10.323   1.746   9.964
17138W        W86953   8.396  39.515   0.745
17139W        W86954   9.691   5.355  14.345
17140W        W86955   2.433  42.370   2.710
17141W        W86956  30.000  18.724   4.785
17142W        W86957  28.540  36.863   1.718
17143W        W86958  27.617  12.786  14.413
17144W        W86959  38.433  24.667  14.935
17145W        W86960  18.164  36.031   1.818
17146W        W86961  11.751  43.417   0.267
17147W        W86962  41.852  35.434  10.931
17148W        W86963  20.059  25.053   9.947
17149W        W86964  27.134   3.459   0.293
17150W        W86965   9.221  15.222   4.749
17151W        W86966  13.296  20.708  14.358
17152W        W86967   1.408  16.590  12.503
17153W        W86968  26.539  11.636   1.227
17154W        W86969  27.671   4.922   2.289
17155W        W86970  10.297  40.382   5.264
17156W        W86971  38.451  27.664  10.949
17157W        W86972  24.559  23.573   0.413
17158W        W86973  18.748  13.166   1.244
17159W        W86974  25.511  42.829   0.276
17160W        W86975   1.461  23.578  11.492
17161W        W86976   1.241   9.368  14.023
17162W        W86977  32.114  17.624   3.745
17163W        W86978  29.447  41.983  12.386
17164W        W86979  40.513  39.458  11.966
17165W        W86980  33.555  34.377  13.506
17166W        W86981  21.084  25.538  13.802
17167W        W86982   0.421  28.019   3.869
17168W        W86983  24.215   9.266   3.862
17169W        W86984  31.130  19.693   1.699
17170W        W86985   1.314  35.526  12.532
17171W        W86986  36.387   5.379  13.412
17172W        W86987  20.201  18.608  13.502
17173W        W86988  14.612   4.419   0.303
17174W        W86989  31.022  38.917   1.360
17175W        W86990   6.723  31.454   1.333
17176W        W86991  40.544  39.840  10.546
17177W        W86992  19.048  17.124  14.475
17178W        W86993   1.483  19.272   0.265
17179W        W86994  18.581  11.833  13.423
17180W        W86995  28.586  11.200   3.823
17181W        W86996   5.836  12.269  11.060
17182W        W86997  14.690  12.355   4.222
17183W        W86998  35.604  28.454  13.010
17184W        W86999  36.558  34.119  13.802
17185W        W87000  23.680  35.461  12.033
17186W        W87001  15.146  11.695   3.294
17187W        W87002  36.483  22.701  13.846
17188W        W87003  34.025   1.361   2.757
17189W        W87004   8.713  36.874   4.262
17190W        W87005   8.684  12.266  12.496
17191W        W87006   1.754  37.556   4.747
17192W        W87007   4.920  44.305  12.426
17193W        W87008  31.584   0.301   4.747
17194W        W87009   9.389  33.603   0.437
17195W        W87010  38.521  33.602  13.030
17196W        W87011  25.695  17.171  12.023
17197W        W87012  37.897  43.501  10.896
17198W        W87013  19.729   0.802  13.468
17199W        W87014  26.206   8.864  12.089
17200W        W87015  38.034  15.811   3.360
17201W        W87016  25.009  24.520  13.354
17202W        W87017  42.316  38.329   0.471
17203W        W87018  13.749  27.995  12.849
17204W        W87019  15.227  21.522   2.793
17205W        W87020   0.302   2.828  14.364
17206W        W87021  21.745  43.411  11.117
17207W        W87022  11.293   9.890  10.462
17208W        W87023  18.188   5.744   1.900
17209W        W87024  34.069   4.717  13.038
17210W        W87025  28.578  12.736   0.959
17211W        W87026  13.199  14.735  14.804
17212W        W87027  33.469   1.469  11.856
17213W        W87028  18.163   7.404  12.517
17214W        W87029   9.655   6.393  10.440
17215W        W87030  14.337  28.082  10.498
17216W        W87031   5.277  35.966  10.428
17217W        W87032   1.276  29.133   3.246
17218W        W87033  40.462  30.123   3.638
17219W        W87034  30.493  40.823  14.341
17220W        W87035  38.556   2.338   2.308
17221W        W87036   2.346  44.459  13.473
17222W        W87037  15.598  36.895  12.039
17223W        W87038  23.195   9.343   2.722
17224W        W87039  16.771  15.295  14.436
17225W        W87040   7.810  27.194  14.982
17226W        W87041  34.581  37.902   0.304
17227W        W87042  28.101   2.434  10.633
17228W        W87043  33.617   5.882  14.304
17229W        W87044  25.201   7.894   0.735
17230W        W87045  41.850  10.680  10.475
17231W        W87046  28.960  30.131  10.579
17232W        W87047   6.703  44.357   4.212
17233W        W87048   1.855  34.039   3.313
17234W        W87049  19.175  42.481  11.105
17235W        W87050  27.031  37.009  13.403
17236W        W87051  35.360  30.419  12.882
17237W        W87052  19.277  14.256  10.625
17238W        W87053  42.371  41.388  14.885
17239W        W87054  15.246   6.702  11.127
17240W        W87055  35.941   2.464  11.477
17241W        W87056  32.068  13.643   0.319
17242W        W87057  29.658  44.498  13.827
17243W        W87058  16.272   5.713  10.553
17244W        W87059  43.367  13.167  12.926
17245W        W87060  16.799   0.428   1.888
17246W        W87061   6.739   5.288   1.359
17247W        W87062   9.765  28.174   2.226
17248W        W87063  41.461   7.879  10.586
17249W        W87064  18.070   9.372  10.508
17250W        W87065  40.453  33.399   3.278
17251W        W87066  35.866  27.571  11.888
17252W        W87067  32.972  41.031  13.493
17253W        W87068  23.096  28.451  10.558
17254W        W87069  22.126  34.566  14.350
17255W        W87070   0.305  30.124  11.490
17256W        W87071  12.629  25.002   2.842
17257W        W87072  13.283  10.291   3.732
17258W        W87073  10.316   9.724   3.763
17259W        W87074  26.043  22.629   0.727
17260W        W87075  15.136  28.645  12.829
17261W        W87076  11.760  33.973   1.328
17262W        W87077  25.176   7.375  12.860
17263W        W87078  30.503  42.490  14.765
17264W        W87079   7.868  35.503  14.358
17265W        W87080  23.665  32.896   2.272
17266W        W87081  12.296  18.179   5.156
17267W        W87082  12.846   1.850  11.930
17268W        W87083  28.141   5.739   0.402
17269W        W87084  12.649   0.492  11.118
17270W        W87085  14.733  33.398   2.178
17271W        W87086  43.344  25.144  12.550
17272W        W87087  29.479  40.960   0.287
17273W        W87088  14.233   3.237  12.459
17274W        W87089  36.053  34.534   3.374
17275W        W87090  20.044  29.432   2.397
17276W        W87091  12.211  26.963  14.322
17277W        W87092  32.546   2.949  12.494
17278W        W87093   5.728   3.815   3.785
17279W        W87094  13.840  31.593   0.383
17280W        W87095  28.163   2.377   3.341
17281W        W87096  12.855  40.005  11.604
17282W        W87097  44.817  28.621  12.914
17283W        W87098  16.098  37.570   0.849
17284W        W87099   9.238  30.060  11.520
17285W        W87100  35.500   5.406   0.441
17286W        W87101  36.470  14.626   3.805
17287W        W87102  36.432  42.016  14.762
17288W        W87103  17.577  36.945   4.718
17289W        W87104  23.143  15.728   5.196
17290W        W87105  39.868  15.726   9.453
17291W        W87106  24.512  17.167  14.820
17292W        W87107  42.490  11.643   0.857
17293W        W87108  32.589  22.717  13.836
17294W        W87109  13.726  39.488   2.383
17295W        W87110  34.924  21.648  14.958
17296W        W87111  18.196  16.198   2.358
17297W        W87112  21.643  37.909   4.692
17298W        W87113  14.104  20.102   4.115
17299W        W87114   1.397  31.905   4.224
17300W        W87115  26.041  16.281  12.921
17301W        W87116  42.457  34.007  14.409
17302W        W87117   1.801  44.305  10.946
17303W        W87118  43.955  24.582   2.304
17304W        W87119  18.241  39.911   0.859
17305W        W87120  32.534  25.638   1.784
17306W        W87121  30.575  44.266   3.322
17307W        W87122  38.934  28.064   1.740
17308W        W87123  36.974  38.844   2.706
17309W        W87124  41.042  12.650   1.212
17310W        W87125  20.201  28.537   3.683
17311W        W87126   1.366  31.640  11.433
17312W        W87127  37.563   4.277   0.479
17313W        W87128  43.377  39.869  12.510
17314W        W87129   1.811  41.343   3.722
17315W        W87130  23.208  17.752   4.777
17316W        W87131  44.447   2.739   2.234
17317W        W87132   0.842  19.148   4.681
17318W        W87133  39.529  18.245  13.039
17319W        W87134   0.422  22.625  11.912
17320W        W87135  13.818  39.813  12.458
17321W        W87136  26.169  27.155  14.478
17322W        W87137  27.997  20.100  14.884
17323W        W87138   3.933   0.457  13.855
17324W        W87139  34.478   8.749  12.856
17325W        W87140  28.994   6.728  13.970
17326W        W87141  39.028  14.757  12.027
17327W        W87142  31.030  13.282   1.319
17328W        W87143  22.739  24.973   2.399
17329W        W87144  16.629  14.796  10.488
17330W        W87145  16.260  23.652  13.381
17331W        W87146  14.726  42.413   1.371
17332W        W87147  29.667   7.851   3.826
17333W        W87148  26.062  18.076   0.462
17334W        W87149  36.867  30.973  13.964
17335W        W87150  41.967  24.995   5.250
17336W        W87151  18.254  27.021  12.097
17337W        W87152  13.811   8.729  12.900
17338W        W87153  16.713   9.656   4.189
17339W        W87154  40.918  44.910   3.292
17340W        W87155   9.333  39.434  13.902
17341W        W87156   5.726   4.370  14.021
17342W        W87157  37.569  10.708  12.006
17343W        W87158  33.404  35.868  14.288
17344W        W87159  37.853  29.641  13.870
17345W        W87160   7.329   0.254   0.254
17346W        W87161  28.568  19.570   1.807
17347W        W87162  35.404  12.620   2.848
17348W        W87163  32.973  32.393  14.987
17349W        W87164  11.804  28.507   4.134
17350W        W87165   9.850  20.651   4.119
17351W        W87166   1.267  11.839  12.031
17352W        W87167  42.305   8.385  11.539
17353W        W87168   5.816  43.469  10.475
17354W        W87169  39.832  35.995  14.414
17355W        W87170  34.896  36.001  13.918
17356W        W87171  12.819  23.665   4.173
17357W        W87172  31.039   1.481   4.128
17358W        W87173  38.035  22.018   0.453
17359W        W87174  15.145  16.185  11.075
17360W        W87175   6.266  14.340   0.297
17361W        W87176   4.447  35.058  12.452
17362W        W87177   1.448  21.581   0.775
17363W        W87178  42.487   0.796   1.300
17364W        W87179  24.191  36.083  11.394
17365W        W87180   9.697   7.711   2.856
17366W        W87181  20.205  35.398   1.231
17367W        W87182  43.277  25.067   0.424
17368W        W87183  36.036  24.175  11.887
17369W        W87184   9.694  31.402  13.359
17370W        W87185   8.230  35.930   4.305
17371W        W87186   2.757   3.763  13.473
17372W        W87187  41.443  16.194  12.884
17373W        W87188  17.136   6.211   9.990
17374W        W87189  10.248  30.620   5.208
17375W        W87190  42.786  16.189  12.532
17376W        W87191   2.329   0.747  11.509
17377W        W87192  10.178  10.696  14.848
17378W        W87193   6.237  39.811   3.845
17379W        W87194  30.927  10.141   3.840
17380W        W87195  16.086  39.463   0.811
17381W        W87196   7.245  33.918   0.920
17382W        W87197  26.530  19.773  13.978
17383W        W87198   5.695  43.851  11.954
17384W        W87199   4.323  41.031  12.441
17385W        W87200  39.542  30.144   2.836
17386W        W87201  17.292  10.361   5.260
17387W        W87202  27.108   9.815  13.939
17388W        W87203   2.780  43.467  13.901
17389W        W87204  26.027  14.809  14.442
17390W        W87205  20.194  17.571  14.853
17391W        W87206  36.017  21.243  13.873
17392W        W87207  43.938  31.439   1.894
17393W        W87208  30.099  13.223   3.158
17394W        W87209  19.732  37.457  12.020
17395W        W87210  35.362   0.469   1.301
17396W        W87211  28.435   1.746  13.336
17397W        W87212  14.789  18.135   4.686
17398W        W87213  27.497   6.381   0.865
17399W        W87214  25.205  20.586   4.121
17400W        W87215   4.373   1.819   1.323
17401W        W87216   4.375  24.188   1.808
17402W        W87217  20.752   2.954  13.911
17403W        W87218  29.620  42.781  13.975
17404W        W87219  12.152  31.066   4.770
17405W        W87220  32.085  18.078  14.422
17406W        W87221  33.496  21.530  13.542
17407W        W87222  31.053  14.130  10.550
17408W        W87223   0.826  30.612  12.891
17409W        W87224  10.703  44.908   3.774
17410W        W87225  12.673  24.666  14.930
17411W        W87226  29.055  38.327   4.688
17412W        W87227   5.802  29.523   4.318
17413W        W87228   1.368  25.569  14.849
17414W        W87229  37.022  28.051  11.900
17415W        W87230   4.763   7.694   1.391
17416W        W87231  14.102  40.802   0.325
17417W        W87232  36.465  31.498   3.265
17418W        W87233  29.964  44.947   3.787
17419W        W87234  40.358   4.383  13.447
17420W        W87235  17.270  43.371  12.085
17421W        W87236  32.973   2.384  13.860
17422W        W87237  38.532   6.293   5.623
17423W        W87238  14.648   3.354  14.363
17424W        W87239   8.894  23.649  10.638
17425W        W87240  11.168   8.193   2.215
17426W        W87241  24.544  22.108  12.499
17427W        W87242   3.414  32.055   1.766
17428W        W87243   1.801   2.363   1.848
17429W        W87244   4.380  41.310   0.912
17430W        W87245   2.731   2.747  11.500
17431W        W87246  36.906  28.513  12.943
17432W        W87247  37.528  22.642  12.512
17433W        W87248   2.258   2.862  14.867
17434W        W87249  21.627  31.429   4.262
17435W        W87250  40.875  33.427   0.837
17436W        W87251   8.764  38.550  12.396
17437W        W87252  41.419  36.410   2.771
17438W        W87253   5.260  13.312  11.482
17439W        W87254  27.131   8.740  14.830
17440W        W87255  10.241   4.773  12.535
17441W        W87256   1.969  19.553  14.858
17442W        W87257  20.544  29.154  11.872
17443W        W87258   7.826   7.778   1.753
17444W        W87259  36.476   5.802  14.930
17445W        W87260  37.469   5.742  10.501
17446W        W87261  16.630  37.460   4.269
17447W        W87262  26.021  30.922   0.352
17448W        W87263  20.037  26.564   2.723
17449W        W87264  34.033  37.548  13.869
17450W        W87265  26.546   2.751   3.233
17451W        W87266   7.673   3.939  12.451
17452W        W87267   2.285  37.370   3.775
17453W        W87268  20.173   1.868   2.408
17454W        W87269  22.048   3.435  13.030
17455W        W87270  16.219   5.758   4.631
17456W        W87271  27.605  34.611   4.260
17457W        W87272  36.948  43.977   2.341
17458W        W87273  28.022  28.944   1.819
17459W        W87274  25.166  25.168  11.041
17460W        W87275  37.382  41.974   2.191
17461W        W87276  26.699   6.414   5.207
17462W        W87277  26.063  34.484  12.929
17463W        W87278  32.030  43.318  14.959
17464W        W87279  34.523  10.876   3.315
17465W        W87280   4.856  17.765   1.914
17466W        W87281  18.071  31.110  11.956
17467W        W87282   7.317  33.012   2.419
17468W        W87283  44.772   3.755   2.297
17469W        W87284  44.442   3.787  10.558
17470W        W87285  25.104  38.447   5.249
17471W        W87286  35.940  15.150  10.614
17472W        W87287  30.539  22.513  11.596
17473W        W87288  20.645  22.668  10.603
17474W        W87289  32.509  21.580   3.746
17475W        W87290  28.675   3.361  12.533
17476W        W87291  13.135  13.142   2.189
17477W        W87292  10.822  11.814  14.777
17478W        W87293  23.212  10.825   0.726
17479W        W87294  22.237  28.143  14.375
17480W        W87295  11.704   5.421  13.060
17481W        W87296  25.508  38.829   1.272
17482W        W87297  42.832  24.038   0.847
17483W        W87298  10.292  41.987  13.362
17484W        W87299  23.033  25.094   1.730
17485W        W87300  24.719   1.948  13.343
17486W        W87301  35.509  42.813  11.475
17487W        W87302  11.286  37.398  12.004
17488W        W87303  43.798   9.749  14.373
17489W        W87304  39.869   8.259   2.828
17490W        W87305  34.047   3.380   2.209
17491W        W87306  41.958  24.484   2.273
17492W        W87307  26.548  34.523  11.070
17493W        W87308  14.754  25.670   2.886
17494W        W87309  31.987  24.713   3.760
17495W        W87310  39.396   4.401  11.889
17496W        W87311  13.657  13.163  13.981
17497W        W87312  12.613   2.333  11.375
17498W        W87313  41.964  26.658  13.392
17499W        W87314  44.337   1.360   1.450
17500W        W87315   2.329  34.000   1.442
17501W        W87316   6.312  43.015   3.296
17502W        W87317  12.612   9.868   2.300
17503W        W87318  19.163  35.425  13.463
17504W        W87319  40.957  36.878  12.095
17505W        W87320  13.232  20.537  11.544
17506W        W87321  32.950  38.433  11.988
17507W        W87322  37.486   7.302   0.396
17508W        W87323  42.949  23.532  14.800
17509W        W87324  33.534  31.523   0.924
17510W        W87325  39.445  14.182  11.437
17511W        W87326  27.564  29.024  10.554
17512W        W87327  18.215  43.479   4.242
17513W        W87328  18.210   0.852   4.198
17514W        W87329  30.507   3.952   1.374
17515W        W87330  31.934  44.922  13.474
17516W        W87331  13.670  27.041   0.343
17517W        W87332  44.788  17.136   4.676
17518W        W87333  25.205  14.215   4.664
17519W        W87334  17.142  14.236   2.354
17520W        W87335  33.405   8.332  13.380
17521W        W87336   5.689   1.276   3.290
17522W        W87337  13.752  35.462  13.015
17523W        W87338  31.111   5.395   3.648
17524W        W87339  25.193   7.739  14.302
17525W        W87340  10.185  16.681  12.495
17526W        W87341   7.305  21.626  14.991
17527W        W87342  41.469  42.348   0.408
17528W        W87343  26.961  15.234   0.819
17529W        W87344  12.336  21.515   3.751
17530W        W87345   9.362  11.330   2.727
17531W        W87346  17.120  32.926  10.409
17532W        W87347  31.418  29.058  12.423
17533W        W87348  27.544  15.699  13.425
17534W        W87349  20.644  21.738   1.844
17535W        W87350  12.208  30.623   1.330
17536W        W87351  37.487  18.084  10.563
17537W        W87352  23.216   2.792   1.222
17538W        W87353  31.445   2.323  11.977
17539W        W87354  21.543  10.813  11.874
17540W        W87355  44.444  35.582   1.281
17541W        W87356  40.436   0.810  12.521
17542W        W87357  36.864  30.159  11.103
17543W        W87358   0.917   3.735  12.475
17544W        W87359  27.647   4.401   3.200
17545W        W87360   6.337  36.089  13.333
17546W        W87361  13.291  36.515  13.467
17547W        W87362  23.017  35.980   0.895
17548W        W87363  25.013  37.343  13.894
17549W        W87364  29.167   2.299   0.900
17550W        W87365   0.325  24.158  13.512
17551W        W87366  20.629   5.206  13.880
17552W        W87367  43.493  33.939  11.037
17553W        W87368  10.241   2.852  10.972
17554W        W87369  25.536   0.321  10.566
17555W        W87370  18.599  43.291  11.996
17556W        W87371  35.869   8.370  12.462
17557W        W87372  40.418  29.547  14.860
17558W        W87373  44.912  30.942   3.765
17559W        W87374  35.547  42.351   2.691
17560W        W87375  29.559  23.524   0.801
17561W        W87376  19.548  34.425   1.796
17562W        W87377  30.164  28.990   4.638
17563W        W87378  12.677   5.290   3.218
17564W        W87379  34.907  14.294   1.702
17565W        W87380   5.929  12.851  12.090
17566W        W87381  39.862  29.078   0.409
17567W        W87382  24.203  42.882  14.944
17568W        W87383  26.163  38.369  10.035
17569W        W87384  13.605  17.628   4.237
17570W        W87385  25.536  23.116  14.431
17571W        W87386  27.453  37.412   1.392
17572W        W87387  16.700  42.806  13.022
17573W        W87388  26.109  12.116   1.716
17574W        W87389  41.910   2.820   2.776
17575W        W87390   6.712  34.889   1.737
17576W        W87391  13.133   7.195   2.781
17577W        W87392   1.780  10.288   0.807
17578W        W87393  34.385  12.839   2.675
17579W        W87394  22.127   2.383   0.444
17580W        W87395   2.344  36.977  14.876
17581W        W87396  16.074  28.665  14.941
17582W        W87397  22.152  31.096  12.831
17583W        W87398  17.069  15.728   4.760
17584W        W87399   7.904  41.516   4.721
17585W        W87400  44.292   7.176  12.934
17586W        W87401   0.312  38.340  14.294
17587W        W87402  24.641  22.646   4.297
17588W        W87403  17.760  28.992  11.452
17589W        W87404  10.848  36.532   0.798
17590W        W87405  17.204  30.413   3.798
17591W        W87406  15.757  21.544  10.914
17592W        W87407  11.697  10.704  12.045
17593W        W87408  25.693  30.506   4.628
17594W        W87409  12.323   7.860  11.036
17595W        W87410  29.117   0.743  11.963
17596W        W87411  28.001  16.193  10.547
17597W        W87412   8.814  19.260   2.414
17598W        W87413  15.621  43.433  12.450
17599W        W87414  38.394  34.941  12.377
17600W        W87415   7.900  33.925   2.721
17601W        W87416  17.178   8.185   0.440
17602W        W87417   9.296  20.722   0.451
17603W        W87418  15.597  44.774   1.829
17604W        W87419  16.599  18.272   2.203
17605W        W87420   5.741  28.017  13.019
17606W        W87421  14.834   6.230   2.232
17607W        W87422  31.091  21.250   4.327
17608W        W87423   3.784  11.706   4.338
17609W        W87424  37.039   7.220   4.233
17610W        W87425  17.599  22.107  14.316
17611W        W87426  20.571  28.135   2.721
17612W        W87427  43.901  16.315  10.549
17613W        W87428   9.343  34.011   0.426
17614W        W87429  37.927  33.115   1.731
17615W        W87430  16.791   3.815  13.356
17616W        W87431  26.035   4.818   1.703
17617W        W87432  41.347   6.894   0.960
17618W        W87433  17.269  11.715  10.504
17619W        W87434   2.840  39.321  12.928
17620W        W87435  31.572   5.398  12.864
17621W        W87436  34.532  43.482   2.199
17622W        W87437   3.215  17.153  14.369
17623W        W87438  13.824  42.828   3.229
17624W        W87439  32.057  30.556  11.485
17625W        W87440  25.643  25.986   3.200
17626W        W87441  16.147  18.224  10.942
17627W        W87442  16.105  22.730  11.087
17628W        W87443  26.056  12.700  13.954
17629W        W87444  35.939   8.734  10.411
17630W        W87445  23.082   6.396   4.277
17631W        W87446  37.080   8.748   0.335
17632W        W87447  14.751   5.840  11.560
17633W        W87448  44.355  38.564  11.078
17634W        W87449  21.716   8.339   4.193
17635W        W87450  37.515   3.902  10.893
17636W        W87451  34.893  27.488  11.502
17637W        W87452  14.140   1.352   1.378
17638W        W87453  25.209   5.841  11.993
17639W        W87454  17.585   2.806   2.697
17640W        W87455  40.489  34.573  10.418
17641W        W87456   5.918  41.399   2.324
17642W        W87457   7.794  34.579   4.607
17643W        W87458  21.720  21.074  14.880
17644W        W87459   7.310   1.900   3.767
17645W        W87460   5.247  22.094  11.028
17646W        W87461  25.205  42.398  13.941
17647W        W87462  38.852  18.716   0.948
17648W        W87463  14.292  20.745  13.465
17649W        W87464   5.924  17.306  14.448
17650W        W87465  43.363  12.722   4.181
17651W        W87466   9.177   2.930   0.353
17652W        W87467  43.507  29.601   3.329
17653W        W87468   5.780  31.518  13.521
17654W        W87469  15.759  30.439   0.880
17655W        W87470  18.758  19.129   0.320
17656W        W87471  43.484  40.859   1.869
17657W        W87472  43.796  23.554  10.931
17658W        W87473   3.790  28.053   4.331
17659W        W87474  19.158  32.461   0.259
17660W        W87475  31.951  20.644   4.784
17661W        W87476  13.322   9.259  14.320
17662W        W87477  12.835  39.002  12.561
17663W        W87478  24.009  10.222   3.821
17664W        W87479   1.299  14.300  11.896
17665W        W87480  25.182   1.964  10.925
17666W        W87481  39.015   9.324  10.458
17667W        W87482   5.816  28.515  12.926
17668W        W87483  29.961  22.244  13.447
17669W        W87484   5.827  13.264  11.524
17670W        W87485  16.585  24.999   1.335
17671W        W87486  39.837   9.386  14.948
17672W        W87487  34.512   0.384   4.778
17673W        W87488  40.895  36.440  11.471
17674W        W87489  27.143  25.586   2.843
17675W        W87490  23.731   3.345   3.160
17676W        W87491  21.054  32.558  10.986
17677W        W87492  28.145  28.172   3.712
17678W        W87493  35.933  16.768  10.596
17679W        W87494   0.315   0.853  13.336
17680W        W87495  38.895  19.767   1.870
17681W        W87496  23.702  29.034   3.785
17682W        W87497   9.171   4.886  12.952
17683W        W87498   0.277  43.945  14.959
17684W        W87499  18.271  25.057  14.366
17685W        W87500  19.143  25.639   1.228
17686W        W87501   6.919  13.162  12.096
17687W        W87502  33.948   0.406  11.952
17688W        W87503  39.866  36.966   1.280
17689W        W87504  30.134  33.559  12.041
17690W        W87505  36.571  12.704   2.770
17691W        W87506  43.289  27.990   4.811
17692W        W87507   3.449  31.424  10.950
17693W        W87508  26.514   7.743   1.824
17694W        W87509  40.336  22.596   1.696
17695W        W87510  35.860  23.166  14.287
17696W        W87511  19.550  35.546   1.767
17697W        W87512  26.084  15.245   4.144
17698W        W87513  14.253  44.897  14.979
17699W        W87514   9.372  43.429   2.813
17700W        W87515  13.608  37.005   1.371
17701W        W87516  19.608  25.162   4.342
17702W        W87517  33.116   4.449  13.968
17703W        W87518  12.188  19.138   5.143
17704W        W87519  22.061  37.888   2.788
17705W        W87520  26.691  21.517   2.309
17706W        W87521  41.377  15.208   4.254
17707W        W87522   3.334  13.302  13.309
17708W        W87523   7.750  20.110  12.956
17709W        W87524  42.313  40.816   1.717
17710W        W87525  14.193  22.736  12.383
17711W        W87526  29.487  38.913   1.864
17712W        W87527  24.710  42.424   4.713
17713W        W87528  22.556   7.892   4.116
17714W        W87529  18.615  29.137   4.173
17715W        W87530   5.918   0.984  14.407
17716W        W87531  44.784   9.185  12.939
17717W        W87532  26.638  12.808  14.874
17718W        W87533  31.152  31.996   2.185
17719W        W87534  29.085   2.820  13.500
17720W        W87535   7.267  37.890  12.957
17721W        W87536  18.119  34.387   2.876
17722W        W87537   9.171  34.419  12.919
17723W        W87538  37.833   1.769  12.885
17724W        W87539  35.887   1.788  10.900
17725W        W87540   7.800  34.090  13.009
17726W        W87541  27.110  27.947   1.437
17727W        W87542  14.701  18.267  11.116
17728W        W87543  16.123  25.570   1.933
17729W        W87544  31.551  37.474  12.013
17730W        W87545  30.046  33.528  13.936
17731W        W87546   6.307  37.445  14.973
17732W        W87547  14.833   2.877   0.890
17733W        W87548  31.498  26.504  12.953
17734W        W87549   3.886  37.966   4.187
17735W        W87550   7.227  40.828   0.896
17736W        W87551  18.264  33.121  12.558
17737W        W87552  21.621  28.061   0.791
17738W        W87553  39.031  21.149  13.815
17739W        W87554  42.965   3.817  11.989
17740W        W87555  11.728  21.550  11.597
17741W        W87556   1.422   1.877   3.837
17742W        W87557  16.203  20.750  13.953
17743W        W87558  27.060  12.132   5.760
17744W        W87559  32.057   9.260   1.212
17745W        W87560  42.872  25.502   1.803
17746W        W87561  28.631  27.968  12.433
17747W        W87562  27.146   9.294  14.964
17748W        W87563   6.702  33.904  13.906
17749W        W87564  12.296  14.783   1.427
17750W        W87565  12.686  11.796  10.907
17751W        W87566   8.325  17.730  13.488
17752W        W87567  38.026  44.836   1.403
17753W        W87568  17.179  15.201  12.834
17754W        W87569  18.769  20.154   0.868
17755W        W87570  44.855  43.458   2.354
17756W        W87571  41.352  40.931   3.337
17757W        W87572  35.602  26.677   0.887
17758W        W87573  41.373   3.259  10.097
17759W        W87574  10.635  41.887   2.407
17760W        W87575  14.222  21.017   4.259
17761W        W87576  32.082  43.310   0.856
17762W        W87577  10.350  34.119   2.778
17763W        W87578   2.229  35.058  12.552
17764W        W87579  14.774  24.129   2.673
17765W        W87580  28.439  18.211  10.958
17766W        W87581  43.477  34.120  13.812
17767W        W87582   4.426  29.459   1.733
17768W        W87583  22.223  35.468   4.676
17769W        W87584  27.520  20.185   0.895
17770W        W87585  21.629  44.428  13.318
17771W        W87586  19.281  11.783  12.024
17772W        W87587  26.529  17.724   4.618
17773W        W87588  18.115  20.200  11.433
17774W        W87589   1.871  22.170  13.483
17775W        W87590   5.412  38.048   1.779
17776W        W87591  25.108  13.845  13.994
17777W        W87592   3.853  20.111  10.552
17778W        W87593  31.108   5.347   3.305
17779W        W87594  25.050   0.445   4.166
17780W        W87595   6.846   3.942  13.929
17781W        W87596  25.705   0.343  12.004
17782W        W87597  17.599  28.437  12.848
17783W        W87598  32.919   7.340   0.815
17784W        W87599  39.937  25.037   0.758
17785W        W87600  44.926  39.413  13.908
17786W        W87601  21.654  28.614   2.178
17787W        W87602  26.018  37.086  14.287
17788W        W87603  15.137  38.388   4.145
17789W        W87604  42.501  26.081  11.032
17790W        W87605  33.105  14.612   3.668
17791W        W87606  40.922  36.050   4.290
17792W        W87607  14.293  25.031   0.276
17793W        W87608  17.662  14.696  10.917
17794W        W87609   1.447  22.053   0.387
17795W        W87610   1.431  40.858   4.151
17796W        W87611  27.970  14.784  12.956
17797W        W87612  13.761   5.882  10.617
17798W        W87613  23.653  34.911   0.371
17799W        W87614  35.397  27.041   2.360
17800W        W87615   9.872  35.363   1.702
17801W        W87616  29.980  41.997   4.222
17802W        W87617  41.466  22.168   0.750
17803W        W87618  16.216   3.296   2.878
17804W        W87619  39.487   4.794  14.768
17805W        W87620  24.995  39.821   0.947
17806W        W87621  31.410  23.605  14.437
17807W        W87622  32.617  38.406  11.579
17808W        W87623  12.624  32.904  12.509
17809W        W87624  28.988  38.877  13.455
17810W        W87625  21.141  43.998   4.711
17811W        W87626  37.939  40.907  11.112
17812W        W87627  33.459   8.359   4.261
17813W        W87628  30.437   5.812  11.055
17814W        W87629   8.858  24.542  12.908
17815W        W87630   8.754  18.552   4.786
17816W        W87631  24.170  36.543  11.406
17817W        W87632  44.347   7.248   1.845
17818W        W87633  25.080   8.879   1.935
17819W        W87634  26.206  43.960  13.909
17820W        W87635  23.048  17.690   3.776
17821W        W87636   7.776  38.834  13.919
17822W        W87637  30.006   1.257   3.808
17823W        W87638  25.148  39.422   0.446
17824W        W87639  34.611  35.581   3.193
17825W        W87640  21.078  20.140  12.068
17826W        W87641  24.633  36.063   2.210
17827W        W87642  24.628   4.761   4.246
17828W        W87643   4.344  41.318   1.699
17829W        W87644   3.893  19.280   2.751
17830W        W87645   1.788   2.316   2.721
17831W        W87646  22.203  17.776  10.640
17832W        W87647  30.067  42.823  11.109
17833W        W87648  38.502  27.447  12.513
17834W        W87649   5.733  19.087  13.806
17835W        W87650  30.643  35.913  14.374
17836W        W87651  43.869  34.496   1.850
17837W        W87652  24.182  19.641   3.337
17838W        W87653  24.573  25.482   1.746
17839W        W87654  28.153  34.592   0.965
17840W        W87655  33.473  42.854   2.361
17841W        W87656   3.859  43.358  13.447
17842W        W87657  28.186   1.315   1.814
17843W        W87658  10.321   9.864  10.404
17844W        W87659  29.979  28.039  14.472
17845W        W87660  23.567  26.614   3.841
17846W        W87661  16.604  39.868  13.874
17847W        W87662  13.106  42.856  13.527
17848W        W87663   0.368  39.863  11.409
17849W        W87664  30.007  25.121   3.657
17850W        W87665  25.054  19.712   1.741
17851W        W87666  33.036  44.783   0.885
17852W        W87667  38.419  16.079   0.409
17853W        W87668   4.734   7.336   0.812
17854W        W87669   7.172  44.889  14.991
17855W        W87670  26.546  23.735  11.002
17856W        W87671  44.973  10.140  14.305
17857W        W87672   2.759  28.600   3.691
17858W        W87673  24.616   2.754  13.336
17859W        W87674  32.004  42.973  10.521
17860W        W87675  14.688  16.086   1.835
17861W        W87676  32.109  13.845   4.148
17862W        W87677   3.873  34.583   4.808
17863W        W87678  14.235   5.258  11.937
17864W        W87679   6.231  19.655   1.747
17865W        W87680   6.786  15.661  12.863
17866W        W87681  21.121  15.674   4.615
17867W        W87682  25.144  27.955   1.834
17868W        W87683   8.367   3.369   0.259
17869W        W87684  24.996  15.101  13.505
17870W        W87685   8.257   7.258  14.777
17871W        W87686  21.597  13.602  14.871
17872W        W87687  39.356  35.578  11.046
17873W        W87688  23.622  18.119  11.997
17874W        W87689  15.799  18.279   1.754
17875W        W87690   6.741  20.117   4.172
17876W        W87691  35.372  27.596  11.391
17877W        W87692  26.496  22.157  14.379
17878W        W87693  40.500   8.182   0.756
17879W        W87694  26.067  33.922  14.294
17880W        W87695  12.758  16.710   5.792
17881W        W87696  31.133  43.791  14.798
17882W        W87697   4.290   0.791  13.487
17883W        W87698   6.419  21.182   4.119
17884W        W87699  14.314  15.594   3.313
17885W        W87700  33.596  15.313   2.850
17886W        W87701  32.040  26.526  12.359
17887W        W87702  35.498  32.963  13.998
17888W        W87703  22.712   5.306   2.201
17889W        W87704   6.853  20.604   1.216
17890W        W87705   8.786  10.382   5.254
17891W        W87706  38.995   5.244  13.368
17892W        W87707  22.245   8.325  14.012
17893W        W87708  12.329  42.796  14.817
17894W        W87709  36.964   2.357   3.752
17895W        W87710  10.335  36.943  13.878
17896W        W87711   6.277   2.783   4.118
17897W        W87712  36.500  34.372  12.465
17898W        W87713   6.382  28.086  12.853
17899W        W87714  18.176   1.475  14.275
17900W        W87715  38.436  24.146   0.461
17901W        W87716  13.672  12.235   2.324
17902W        W87717  40.313  36.082  11.919
17903W        W87718  25.714  32.995   3.161
17904W        W87719  39.469   1.457  14.406
17905W        W87720  21.554   2.317  11.465
17906W        W87721  27.037  22.218  14.814
17907W        W87722  12.824  36.451  13.466
17908W        W87723  27.154   2.850   2.300
17909W        W87724  11.341   1.795  12.355
17910W        W87725  43.839  22.645   3.655
17911W        W87726  36.016  12.338  11.585
17912W        W87727  39.862  28.539   4.343
17913W        W87728   1.385  38.953  11.090
17914W        W87729   1.390  22.595  14.511
17915W        W87730  39.316  43.428   3.798
17916W        W87731  10.344  36.422  13.810
17917W        W87732  16.632   6.214  14.389
17918W        W87733   0.387  38.391  13.446
17919W        W87734   1.737  33.501  11.061
17920W        W87735  28.986  23.092   3.243
17921W        W87736  14.744  25.526  12.929
17922W        W87737   7.325   0.268  10.951
17923W        W87738  30.961  19.686   1.366
17924W        W87739  30.033  40.854  12.921
17925W        W87740  43.930  22.143  11.483
17926W        W87741  24.685  26.086  12.988
17927W        W87742   7.322  10.781   0.814
17928W        W87743   6.203   4.832  14.404
17929W        W87744  14.726  15.122   0.316
17930W        W87745  30.458   3.807  12.080
17931W        W87746  34.002  20.592  14.388
17932W        W87747  39.415  28.986  13.513
17933W        W87748  34.009  12.311   1.426
17934W        W87749  39.482   3.455  10.958
17935W        W87750  28.951   9.285  12.561
17936W        W87751  19.563  40.902  14.378
17937W        W87752  29.618  28.673   0.455
17938W        W87753   9.846   7.801  10.995
17939W        W87754   2.295  36.950  11.431
17940W        W87755  38.909  32.046   3.649
17941W        W87756  32.397  31.528   2.314
17942W        W87757  28.960   2.947  14.496
17943W        W87758  33.433  42.488  14.803
17944W        W87759  18.570  18.699  10.074
17945W        W87760  26.552  20.722  12.905
17946W        W87761  42.014  29.593  10.909
17947W        W87762  28.107  18.555  13.479
17948W        W87763   7.188  22.061  10.596
17949W        W87764  11.177  11.747  11.127
17950W        W87765  38.900  37.437   3.269
17951W        W87766  42.342   2.810  12.453
17952W        W87767  21.225  13.734   0.930
17953W        W87768  27.690  17.653   0.255
17954W        W87769  31.937   8.714  11.924
17955W        W87770  17.189  14.244  13.316
17956W        W87771  11.278   9.391  13.021
17957W        W87772  39.885  30.416  13.907
17958W        W87773  16.072   2.726  11.965
17959W        W87774   8.387  15.137   1.817
17960W        W87775  29.991  17.307   0.244
17961W        W87776  31.126  35.417   1.829
17962W        W87777  17.730   2.417   2.795
17963W        W87778  34.026  30.139   0.744
17964W        W87779  34.484  38.895   4.677
17965W        W87780  40.872  29.439  14.436
17966W        W87781  25.038  18.072  13.895
17967W        W87782  22.636  24.513   1.389
17968W        W87783  10.304  32.100   0.393
17969W        W87784  23.695  42.520  14.766
17970W        W87785  39.910   3.265   0.956
17971W        W87786   2.899  44.466  13.944
17972W        W87787  24.710  36.961  12.907
17973W        W87788  31.404  17.248   4.312
17974W        W87789  27.068   5.211  13.369
17975W        W87790  14.817  38.964   0.858
17976W        W87791  13.151  40.501   3.193
17977W        W87792  25.140  17.773  13.921
17978W        W87793   0.815  16.766  14.508
17979W        W87794  23.102  43.925   0.770
17980W        W87795  25.187  24.643  14.383
17981W        W87796  16.805  44.756   2.819
17982W        W87797  40.543  39.012  12.438
17983W        W87798  21.042  32.474  13.972
17984W        W87799   8.245  34.440  10.894
17985W        W87800  38.368  23.053   3.350
17986W        W87801   7.755  18.767  14.282
17987W        W87802  19.665  38.341   1.790
17988W        W87803  28.656  30.130   2.212
17989W        W87804  43.946  44.266  13.940
17990W        W87805  28.153  38.559   4.616
17991W        W87806  14.267  11.210   3.739
17992W        W87807   2.918  22.080   1.862
17993W        W87808  15.814  44.360  14.439
17994W        W87809  25.072  28.118   1.440
17995W        W87810   9.355  15.765  11.931
17996W        W87811  30.041  38.858   0.326
17997W        W87812  23.051  20.567   2.764
17998W        W87813  14.828   4.437   1.717
17999W        W87814   5.809  31.130   3.769
18000W        W87815   7.400  26.685   3.327
18001W        W87816  35.468  10.162   0.310
18002W        W87817  12.218  10.763   1.791
18003W        W87818  22.666  37.905   1.254
18004W        W87819   3.832  44.866  10.556
18005W        W87820  24.605   4.363  10.958
18006W        W87821  38.365  19.050  13.326
18007W        W87822  10.226  17.772  10.516
18008W        W87823  14.675  33.535  12.893
18009W        W87824  23.126  23.030  11.607
18010W        W87825   6.275  33.604  12.088
18011W        W87826  25.134  36.892   3.849
18012W        W87827  39.891   3.819   3.327
18013W        W87828  19.573  37.912  13.487
18014W        W87829  37.979  30.992  12.569
18015W        W87830  24.526   5.291   2.758
18016W        W87831   4.408  40.985   4.681
18017W        W87832  36.882   1.456  10.950
18018W        W87833  19.656  19.536  12.370
18019W        W87834  40.019  22.574   3.154
18020W        W87835  25.177  23.099   3.653
18021W        W87836  27.553   0.361  14.385
18022W        W87837   9.645  24.666   0.308
18023W        W87838  39.873  19.695  12.478
18024W        W87839  20.563   3.453  13.957
18025W        W87840  37.066  37.336  11.545
18026W        W87841  24.651  21.135  11.914
18027W        W87842  10.875  26.975   0.273
18028W        W87843  29.587  17.091   1.927
18029W        W87844   5.230  12.273   4.277
18030W        W87845   6.843  27.627   3.799
18031W        W87846  18.051  29.960  10.629
18032W        W87847  18.553  27.056   2.298
18033W        W87848   6.889  16.270  13.045
18034W        W87849  27.075  43.824  14.293
18035W        W87850   2.806  14.735   4.114
18036W        W87851  11.853  19.640  13.419
18037W        W87852  42.380  39.018  11.477
18038W        W87853   5.389  36.558  11.437
18039W        W87854  20.540  13.812   3.328
18040W        W87855  15.817  31.913   2.733
18041W        W87856  29.086   7.783   4.706
18042W        W87857  10.364   0.482   1.920
18043W        W87858  24.586  33.044  10.481
18044W        W87859  18.278   9.764  11.534
18045W        W87860  24.618  31.607   0.475
18046W        W87861  34.462  25.666  13.438
18047W        W87862  37.564  38.876   2.661
18048W        W87863  17.107  32.992  10.016
18049W        W87864  28.466  37.891  10.461
18050W        W87865   3.720   9.342  11.059
18051W        W87866   3.312  19.617   2.870
18052W        W87867   2.961  12.139  14.516
18053W        W87868  35.517  33.030  11.400
18054W        W87869  30.964  41.944  13.987
18055W        W87870  44.861   3.331  14.394
18056W        W87871   0.777  24.528  12.835
18057W        W87872  18.187  38.563   1.288
18058W        W87873   9.386  42.443  12.937
18059W        W87874   9.889  21.581  13.459
18060W        W87875  37.557   6.911   1.429
18061W        W87876  41.913   8.385   0.796
18062W        W87877  34.029  16.756   3.204
18063W        W87878  20.758   3.298   1.314
18064W        W87879   4.831   0.277   0.839
18065W        W87880  34.503   2.808  13.395
18066W        W87881  27.566  16.156   4.347
18067W        W87882  39.982  36.562  13.482
18068W        W87883  44.962  12.741   2.269
18069W        W87884   7.822   2.733   3.196
18070W        W87885   7.701  12.217  14.954
18071W        W87886  41.886  24.579  13.356
18072W        W87887  11.245  20.720   2.407
18073W        W87888   3.900   2.315   1.380
18074W        W87889  34.097  24.545  12.374
18075W        W87890  11.836  16.609   2.885
18076W        W87891   1.933  17.767   3.357
18077W        W87892  37.028  12.291  10.624
18078W        W87893   5.735  17.568   3.841
18079W        W87894  17.588   8.655  11.504
18080W        W87895  18.137   7.312   1.890
18081W        W87896  42.356  10.718   0.733
18082W        W87897  32.003  15.653  10.916
18083W        W87898   0.871  31.067   0.412
18084W        W87899  21.636  43.872  14.845
18085W        W87900  35.595  32.494   2.185
18086W        W87901  24.617  10.308  12.909
18087W        W87902  24.129  37.842   0.754
18088W        W87903  12.610  16.222   4.228
18089W        W87904   6.285   9.737   3.383
18090W        W87905  23.668  12.700  10.500
18091W        W87906  42.479  14.693   4.823
18092W        W87907   9.795  12.117  13.796
18093W        W87908  13.724  41.964   1.218
18094W        W87909  29.452  14.652  14.490
18095W        W87910  42.835  44.403   0.349
18096W        W87911  21.138  23.190   2.675
18097W        W87912   2.918   1.774   1.218
18098W        W87913  32.921   8.780  10.473
18099W        W87914   5.341  43.931  14.799
18100W        W87915   3.260  18.669  11.102
18101W        W87916  41.032   0.261   4.660
18102W        W87917  38.829  24.162   1.760
18103W        W87918  35.950  21.704   3.318
18104W        W87919  33.622  15.089   2.382
18105W        W87920   5.754  36.937  14.022
18106W        W87921  24.714  11.175  10.964
18107W        W87922  19.053   6.766   0.753
18108W        W87923  41.945   7.736   1.773
18109W        W87924  40.829  37.087   4.264
18110W        W87925  25.170  18.261   2.758
18111W        W87926  39.841  19.628  11.565
18112W        W87927  13.161  37.496  10.630
18113W        W87928  31.483  40.880  13.821
18114W        W87929  28.664   4.427  14.483
18115W        W87930  26.604  39.979   2.807
18116W        W87931  11.689  43.382  14.299
18117W        W87932  24.721  15.095   1.261
18118W        W87933   5.763  26.474  10.558
18119W        W87934  11.839  44.428   2.178
18120W        W87935  34.525  17.234   0.849
18121W        W87936   8.207  11.265  13.019
18122W        W87937   0.365  34.040  10.438
18123W        W87938  36.465  15.757   0.898
18124W        W87939  26.656  24.152   0.757
18125W        W87940  43.766  15.242  12.358
18126W        W87941  22.680  27.664   0.378
18127W        W87942  30.984   0.924  12.447
18128W        W87943   4.895  32.607   0.738
18129W        W87944  25.136  13.172   0.473
18130W        W87945  18.239  10.277  12.574
18131W        W87946  39.809  32.531  11.034
18132W        W87947   9.760   9.832   3.214
18133W        W87948  26.015   0.872   2.377
18134W        W87949  12.225  35.054   4.209
18135W        W87950  41.965   1.290   3.646
18136W        W87951  14.589  11.644   4.290
18137W        W87952  26.158   6.812   4.320
18138W        W87953  22.166  30.560  11.417
18139W        W87954  19.166  22.576   0.917
18140W        W87955  35.384  42.355   4.602
18141W        W87956  37.441  22.710  11.486
18142W        W87957  27.106  28.169   0.738
18143W        W87958   4.707  25.584  13.392
18144W        W87959  36.961  11.305  10.458
18145W        W87960   8.171  39.046  14.961
18146W        W87961   3.838  24.224   4.160
18147W        W87962   1.953   9.691   0.273
18148W        W87963  42.968  29.080   0.804
18149W        W87964   8.725  25.060  12.426
18150W        W87965  14.308  18.287   0.894
18151W        W87966  40.549  12.293   1.287
18152W        W87967  42.889  23.151   3.687
18153W        W87968  27.972  22.639  11.883
18154W        W87969  23.156  39.041  13.510
18155W        W87970  34.519  16.119   2.298
18156W        W87971  39.967  30.087   4.338
18157W        W87972   0.307  14.682   4.270
18158W        W87973  38.484  33.993  10.996
18159W        W87974  41.354  19.223   2.896
18160W        W87975  23.113  16.236   2.406
18161W        W87976  44.854   9.238   2.727
18162W        W87977   9.824  31.939  14.309
18163W        W87978  24.479  43.335  13.476
18164W        W87979   3.932  39.501  12.575
18165W        W87980  29.599  27.166   4.181
18166W        W87981  21.092  37.419  13.356
18167W        W87982  37.830   1.781   2.766
18168W        W87983   7.736  21.250  11.453
18169W        W87984   8.267   4.852   2.711
18170W        W87985  29.106  17.647  11.570
18171W        W87986  26.690  18.102  11.391
18172W        W87987   4.252  21.049  12.533
18173W        W87988  41.030   8.264   9.954
18174W        W87989  28.958  18.723  12.090
18175W        W87990  29.080   9.770   0.948
18176W        W87991  41.357  41.451  14.794
18177W        W87992  32.985   4.221   4.779
18178W        W87993   8.375  22.105   4.816
18179W        W87994  40.391  19.773   3.846
18180W        W87995   4.706  35.969   3.203
18181W        W87996  26.047  19.141   1.922
18182W        W87997  35.101   1.811   0.383
18183W        W87998  23.193  12.253  12.438
18184W        W87999  37.052  39.552  11.537
18185W        W88000  22.569  27.642  14.934
18186W        W88001   2.318  14.264   4.639
18187W        W88002  14.177  25.109   1.744
18188W        W88003  24.500  30.441   2.760
18189W        W88004  41.881  14.319   1.358
18190W        W88005  28.551  23.040  11.609
18191W        W88006  19.251  25.116   2.284
18192W        W88007  25.202  44.819   1.767
18193W        W88008  36.479  38.933  11.040
18194W        W88009  17.774  27.964  13.963
18195W        W88010   3.917  29.663   3.262
18196W        W88011   9.678  29.527  11.950
18197W        W88012  18.118   9.351   1.700
18198W        W88013   5.194  14.337  10.605
18199W        W88014   4.289  19.259   1.245
18200W        W88015   4.319  32.055   1.758
18201W        W88016  21.755  24.169  11.486
18202W        W88017  13.326  40.864   2.890
18203W        W88018  39.355  16.085   0.820
18204W        W88019  30.584   7.385   3.634
18205W        W88020  39.000  12.321   0.955
18206W        W88021  16.239  21.108  14.360
18207W        W88022  16.120  28.157   3.736
18208W        W88023   5.404  32.128   0.757
18209W        W88024  36.007   7.803   3.278
18210W        W88025  42.892  31.577  13.062
18211W        W88026  42.305  32.539  10.943
18212W        W88027   5.834  29.975  12.872
18213W        W88028  31.585  10.743  14.025
18214W        W88029   6.266  13.655   1.278
18215W        W88030   6.831  41.490   3.233
18216W        W88031  19.064  20.587  10.596
18217W        W88032  40.447  16.802  12.495
18218W        W88033  21.025  44.917  14.485
18219W        W88034  28.056   7.837   3.163
18220W        W88035  39.989  11.176  12.958
18221W        W88036   1.907  18.689   2.339
18222W        W88037  43.790   5.213  10.510
18223W        W88038   4.371  36.953   4.831
18224W        W88039  12.629  30.645   3.280
18225W        W88040   5.913  11.822  13.524
18226W        W88041  34.118  14.315  10.458
18227W        W88042  27.100  19.270   4.706
18228W        W88043   3.797  38.558   4.242
18229W        W88044  27.500  41.853  14.781
18230W        W88045   6.403   6.826   2.761
18231W        W88046  25.074  24.581   0.884
18232W        W88047  41.476  30.164   1.708
18233W        W88048  24.191  40.891  11.536
18234W        W88049  12.812   5.307   2.872
18235W        W88050  37.870  33.058   4.777
18236W        W88051   3.382   8.758  14.324
18237W        W88052  16.743  26.690  11.460
18238W        W88053  25.504  12.213   4.179
18239W        W88054  31.572  25.634  14.289
18240W        W88055  39.017  38.895  12.915
18241W        W88056  22.736  28.929  10.915
18242W        W88057  44.295  28.546  10.473
18243W        W88058  27.679  25.061   0.833
18244W        W88059   0.313  32.035  14.972
18245W        W88060   7.389  25.999  14.368
18246W        W88061  12.223  15.150   0.297
18247W        W88062  19.540  37.499  11.064
18248W        W88063   6.745  41.911  13.866
18249W        W88064   3.270  11.370  13.042
18250W        W88065  34.555  11.333   0.436
18251W        W88066  24.495  38.487   0.344
18252W        W88067  38.859   9.715   0.938
18253W        W88068  18.141  28.155  13.416
18254W        W88069  20.064  11.196  13.892
18255W        W88070  26.022  39.425  14.861
18256W        W88071  19.683   2.230   3.195
18257W        W88072  32.901  43.412  12.087
18258W        W88073  27.636  12.140  12.407
18259W        W88074  35.437  18.653   4.340
18260W        W88075  37.980  26.002   1.318
18261W        W88076   4.940   5.805   1.316
18262W        W88077  38.473   9.719  12.958
18263W        W88078  19.278  14.619  11.054
18264W        W88079  37.455  27.143   3.178
18265W        W88080  19.584   3.840   3.286
18266W        W88081  12.696  36.873  12.416
18267W        W88082  24.992  10.335   4.773
18268W        W88083  44.386  41.009  11.454
18269W        W88084  36.932   9.785   2.369
18270W        W88085  29.522  13.217  14.852
18271W        W88086  35.965  33.919   3.837
18272W        W88087  23.018  43.019   3.381
18273W        W88088  35.443  21.652   4.185
18274W        W88089  43.821   3.847   3.853
18275W        W88090   3.717  10.746  13.007
18276W        W88091  35.513  32.115   2.224
18277W        W88092  40.521  10.163   4.695
18278W        W88093   9.339   4.243   1.290
18279W        W88094  10.748  16.773   5.642
18280W        W88095  10.138   9.261   1.762
18281W        W88096  34.607  14.337  14.870
18282W        W88097   7.895  39.903  12.352
18283W        W88098  34.991  15.672   3.720
18284W        W88099  18.563  37.508   5.095
18285W        W88100  28.110  10.720  10.930
18286W        W88101  44.819   7.866  12.085
18287W        W88102  42.341   8.664  11.452
18288W        W88103   7.712  39.510  12.365
18289W        W88104   4.776  19.627   1.354
18290W        W88105  32.412  18.133   4.338
18291W        W88106  33.492  32.075  12.030
18292W        W88107  23.148  22.643   3.854
18293W        W88108  22.147   2.797  12.026
18294W        W88109  35.052   3.386  11.099
18295W        W88110  41.296  43.310   3.655
18296W        W88111   0.343  18.771   2.782
18297W        W88112  29.660  36.845   1.884
18298W        W88113  20.144  14.237  11.547
18299W        W88114   0.357  29.144  11.004
18300W        W88115   3.943  39.957   4.245
18301W        W88116  39.018  25.681  12.559
18302W        W88117   9.876  36.576   4.230
18303W        W88118  16.105  22.130  12.558
18304W        W88119   9.722  41.027   1.261
18305W        W88120  15.219  20.532  13.857
18306W        W88121  28.045  16.180  11.462
18307W        W88122  32.489  42.984   1.819
18308W        W88123  41.896  32.571   1.885
18309W        W88124  11.649  25.141   0.394
18310W        W88125  16.778  17.241  12.866
18311W        W88126  29.664  22.138  12.364
18312W        W88127   1.754  43.274   4.312
18313W        W88128  10.854  20.254  11.996
18314W        W88129  11.197   6.899   3.326
18315W        W88130  32.557   2.244  14.330
18316W        W88131  33.969  42.474  11.943
18317W        W88132  31.567  40.504   3.671
18318W        W88133  42.397  20.113  11.378
18319W        W88134  17.182   9.803  12.341
18320W        W88135  29.517  35.550  12.896
18321W        W88136  25.067  34.950  14.948
18322W        W88137  16.626  31.152  14.349
18323W        W88138  14.829   7.874  13.037
18324W        W88139   7.379  29.168  12.540
18325W        W88140  42.519  16.594   3.165
18326W        W88141  28.613  12.316  12.014
18327W        W88142  16.123  37.428  11.377
18328W        W88143   4.297  20.766   4.350
18329W        W88144  37.911  13.314   3.715
18330W        W88145  22.614  16.123  12.829
18331W        W88146  39.964   7.212   0.440
18332W        W88147  20.716  22.513   0.764
18333W        W88148  32.063   3.368   4.202
18334W        W88149  36.855  40.983  12.945
18335W        W88150  27.633  12.830  13.804
18336W        W88151  11.716   8.860  13.491
18337W        W88152  44.366  34.478  12.554
18338W        W88153  29.595   6.303  10.950
18339W        W88154  32.503  40.308   1.445
18340W        W88155  18.207  42.990  10.627
18341W        W88156  25.522  16.112  14.483
18342W        W88157   5.251  13.645  12.932
18343W        W88158  37.929   9.164   4.138
18344W        W88159  36.368   0.356  10.901
18345W        W88160   2.908  36.531  11.919
18346W        W88161  23.034  23.084  13.830
18347W        W88162  12.149  27.941   4.649
18348W        W88163   4.239  28.993  14.839
18349W        W88164   2.935   4.833   3.725
18350W        W88165  30.632  19.631   2.223
18351W        W88166  23.591   7.225   1.250
18352W        W88167  32.448  43.909  13.792
18353W        W88168  36.060   7.739   4.240
18354W        W88169  38.970  30.443  12.484
18355W        W88170  21.103  12.170  14.887
18356W        W88171  23.680  18.052   1.325
18357W        W88172  32.531  10.870   4.767
18358W        W88173  36.562  18.726   3.650
18359W        W88174  29.517  29.093   0.314
18360W        W88175  13.242  11.354  10.620
18361W        W88176   9.692  31.059   1.377
18362W        W88177  35.571  21.527  12.847
18363W        W88178  44.932   9.303  14.290
18364W        W88179  26.608  21.681  12.531
18365W        W88180  32.573   6.739  14.773
18366W        W88181  33.545  28.676  14.455
18367W        W88182   2.362  44.833  11.888
18368W        W88183   2.929  43.471   2.209
18369W        W88184  19.700  33.388  14.992
18370W        W88185  33.062  32.943   0.853
18371W        W88186  33.524  42.326   2.205
18372W        W88187  25.507   4.847   2.356
18373W        W88188   7.267  37.907  14.795
18374W        W88189  19.219   4.436   4.800
18375W        W88190   5.781  30.957   4.677
18376W        W88191   7.821   5.866  11.001
18377W        W88192  18.174   2.290   4.753
18378W        W88193  25.582   2.394  13.973
18379W        W88194   5.910  12.834   3.218
18380W        W88195  30.113  17.657   3.732
18381W        W88196   6.332  27.983   4.675
18382W        W88197   0.911   1.316   1.275
18383W        W88198  29.155  42.470  14.856
18384W        W88199  16.811  20.266   4.311
18385W        W88200   6.384  22.127   1.367
18386W        W88201   7.773  16.306  12.418
18387W        W88202  35.473  23.100   3.181
18388W        W88203  24.658  21.131   2.848
18389W        W88204  33.515  32.633   3.180
18390W        W88205  43.360   9.174  12.511
18391W        W88206  42.778  31.517  13.529
18392W        W88207  22.703  30.995  12.940
18393W        W88208  44.315  15.111   3.230
18394W        W88209  39.549   3.746  11.382
18395W        W88210   5.788  41.861  12.847
18396W        W88211  22.154   6.677   1.339
18397W        W88212  40.016  32.470   2.256
18398W        W88213  38.833   9.385   2.861
18399W        W88214  18.082  29.037   0.832
18400W        W88215  15.297  24.975   2.385
18401W        W88216  36.911  11.364  12.859
18402W        W88217  12.172   6.751   0.877
18403W        W88218  42.776  39.549  14.444
18404W        W88219  21.740   2.470  12.956
18405W        W88220  34.009  32.519  12.909
18406W        W88221  28.036  31.121   4.727
18407W        W88222   5.914  18.547  10.609
18408W        W88223  16.115  15.171   2.410
18409W        W88224  16.172  29.563  14.005
18410W        W88225  30.646  23.627   4.259
18411W        W88226  25.703  36.992   0.436
18412W        W88227   4.930  25.586   3.205
18413W        W88228   7.711   6.786   4.790
18414W        W88229  23.230  41.954   3.183
18415W        W88230   6.283  10.254  12.567
18416W        W88231  19.598  21.238  13.542
18417W        W88232  39.027   4.928   3.383
18418W        W88233   7.353  27.106   4.704
18419W        W88234   6.329  43.343  12.440
18420W        W88235  19.072  24.619  11.547
18421W        W88236   1.362   5.196  11.084
18422W        W88237  19.580   4.324   0.781
18423W        W88238  18.592  18.560  11.412
18424W        W88239  40.479  39.533   2.810
18425W        W88240  44.886  43.365  10.430
18426W        W88241  14.310  17.600   3.194
18427W        W88242   3.235  31.047   4.831
18428W        W88243  40.971  24.998  13.311
18429W        W88244  26.514   4.214   0.771
18430W        W88245  21.083  38.539   3.330
18431W        W88246   8.671  39.926   3.714
18432W        W88247  25.150  25.057   5.097
18433W        W88248  28.005  39.060  13.508
18434W        W88249  15.192  21.052  13.377
18435W        W88250  13.285  40.371  11.449
18436W        W88251  40.483   4.883   5.204
18437W        W88252  36.525  24.624   0.815
18438W        W88253   4.915  25.706  13.013
18439W        W88254   9.152  17.204   3.345
18440W        W88255   1.329  18.061   2.304
18441W        W88256  37.382  27.178   3.812
18442W        W88257  27.622  10.308   4.723
18443W        W88258  19.069  43.992   1.801
18444W        W88259  15.629  24.622  12.010
18445W        W88260  39.338  22.088  10.454
18446W        W88261   0.795   2.746   2.185
18447W        W88262  11.727  26.483   4.714
18448W        W88263  38.067  15.632  13.401
18449W        W88264  22.697   0.410   2.679
18450W        W88265  15.643  32.985   1.904
18451W        W88266   7.734  14.277   4.608
18452W        W88267  20.697   0.849   2.293
18453W        W88268  39.414  32.511  11.473
18454W        W88269   0.463   8.216   1.429
18455W        W88270  16.614  34.455  13.009
18456W        W88271   7.778  36.999  13.506
18457W        W88272  30.998  31.009  12.944
18458W        W88273  33.044  42.360   3.237
18459W        W88274   4.834   0.868   2.826
18460W        W88275   1.307  37.530  14.301
18461W        W88276   7.709  27.081   3.696
18462W        W88277  24.713  29.548  13.055
18463W        W88278   4.416  36.074   4.149
18464W        W88279  31.085   1.397  11.984
18465W        W88280  34.434  30.444  10.614
18466W        W88281   0.447  22.047  12.439
18467W        W88282  12.632  36.080  13.924
18468W        W88283  40.489  19.735   4.699
18469W        W88284  14.823  35.019   2.206
18470W        W88285  36.883  15.198   1.442
18471W        W88286  43.968  10.305  11.912
18472W        W88287  21.599  42.913  11.538
18473W        W88288   0.385  32.941  11.536
18474W        W88289  38.527  20.642   3.784
18475W        W88290  12.613   6.300  10.976
18476W        W88291  44.837  43.932   4.775
18477W        W88292   6.317  30.148  10.406
18478W        W88293  38.043  27.050  11.540
18479W        W88294   8.357  26.005   2.858
18480W        W88295   9.767  23.638   1.393
18481W        W88296  38.571  30.148  13.910
18482W        W88297   5.858   5.799   0.419
18483W        W88298  18.245   3.350   1.443
18484W        W88299  13.808  30.522  12.355
18485W        W88300  11.714  37.943  13.383
18486W        W88301  39.061   0.253   1.700
18487W        W88302  44.773  20.057   2.727
18488W        W88303  18.138  12.161   0.478
18489W        W88304  11.306  18.150   1.935
18490W        W88305   7.351  33.433   3.662
18491W        W88306  16.263  40.035   1.754
18492W        W88307  37.928  37.468   4.637
18493W        W88308  24.022  22.684  11.482
18494W        W88309  16.769   5.736  14.434
18495W        W88310  25.614  28.631   1.770
18496W        W88311   6.422  33.487   4.281
18497W        W88312  11.372   8.891   3.816
18498W        W88313   0.981  32.073   3.635
18499W        W88314  15.767  38.058  14.920
18500W        W88315  11.212  30.572  12.455
18501W        W88316  14.665  39.953   2.268
18502W        W88317   8.884   3.215  10.042
18503W        W88318  26.635  23.623   1.436
18504W        W88319  13.137  29.150   0.331
18505W        W88320  27.175  10.863   3.320
18506W        W88321   0.900   4.759  12.042
18507W        W88322   1.404   9.780  11.861
18508W        W88323  20.150   5.747  12.966
18509W        W88324  40.938  38.938  13.446
18510W        W88325   0.828  18.229  14.861
18511W        W88326  39.907  11.143   0.272
18512W        W88327  25.091  27.004  13.459
18513W        W88328  13.133   3.932  13.430
18514W        W88329  29.559  22.729  13.038
18515W        W88330  20.549   8.327   0.362
18516W        W88331  21.033  19.081   2.380
18517W        W88332  33.937  13.248   1.361
18518W        W88333  29.042  33.495  11.876
18519W        W88334  19.115  43.502  14.327
18520W        W88335  12.276  29.466  14.449
18521W        W88336  11.207  11.339   3.380
18522W        W88337  40.345  33.060   3.706
18523W        W88338  42.968   5.729  14.463
18524W        W88339  43.991   6.323  10.628
18525W        W88340  18.775  21.166  11.983
18526W        W88341  35.950   0.302  12.519
18527W        W88342  17.205  23.131   1.785
18528W        W88343  22.241  26.474  14.890
18529W        W88344   9.660  33.127   2.395
18530W        W88345  21.166  33.031  14.974
18531W        W88346  37.839  25.152   2.830
18532W        W88347  14.299  25.005   0.792
18533W        W88348  26.999   0.871   4.760
18534W        W88349  25.648   6.835  13.504
18535W        W88350  22.140   5.791   1.795
18536W        W88351  29.959  24.209  13.452
18537W        W88352   6.720  38.527   4.295
18538W        W88353  39.046   7.722   0.249
18539W        W88354  11.804  23.601  11.884
18540W        W88355  22.716  36.518   3.219
18541W        W88356   2.378   4.354  11.118
18542W        W88357   0.918  44.979   1.775
18543W        W88358  15.601  40.400  13.453
18544W        W88359   3.381  36.414  12.926
18545W        W88360   6.864  39.885   1.446
18546W        W88361   3.358  19.677   5.133
18547W        W88362  11.809  36.473   1.292
18548W        W88363  27.984  25.109  11.112
18549W        W88364   1.256  25.589   0.736
18550W        W88365  16.158  12.263   1.733
18551W        W88366  29.575  41.848   3.171
18552W        W88367  36.045  21.047   2.215
18553W        W88368   0.977  41.925  12.996
18554W        W88369  15.710  34.458  11.581
18555W        W88370  44.304  34.060   2.811
18556W        W88371  20.184  19.747  13.512
18557W        W88372  26.692  12.348   3.817
18558W        W88373  23.157  31.423   1.709
18559W        W88374  23.097  29.502   2.219
18560W        W88375  14.296  36.068  14.895
18561W        W88376   8.820  28.946   0.864
18562W        W88377  42.525  41.966  11.071
18563W        W88378  33.906  32.985   0.468
18564W        W88379  40.826   6.383  11.467
18565W        W88380  12.198   1.731  10.405
18566W        W88381  28.011  40.511  14.933
18567W        W88382  41.466   8.360   0.404
18568W        W88383  40.009  21.249  11.938
18569W        W88384  12.349  16.650  11.129
18570W        W88385  44.266  31.619   1.251
18571W        W88386  28.003  44.360   4.606
18572W        W88387  29.516  31.517  11.470
18573W        W88388  33.028  23.030  14.377
18574W        W88389   0.384  42.895   2.356
18575W        W88390  35.056  40.448   1.292
18576W        W88391   5.357  17.132  11.539
18577W        W88392  23.633  40.470   1.790
18578W        W88393  43.274  36.042   0.451
18579W        W88394  14.266  12.739   2.270
18580W        W88395  19.066  39.535  11.603
18581W        W88396  42.780  36.063  13.477
18582W        W88397  11.802   9.864   4.761
18583W        W88398  18.743  31.081  10.443
18584W        W88399  35.867  35.559   3.739
18585W        W88400   5.908   7.730  13.921
18586W        W88401  29.986   8.894  11.899
18587W        W88402   4.422  29.126   3.314
18588W        W88403  34.454  23.718  13.398
18589W        W88404  25.481  40.859   2.706
18590W        W88405  43.376  36.843   4.747
18591W        W88406  25.190   9.365   2.742
18592W        W88407   9.704   2.745  14.317
18593W        W88408  37.454  19.077   1.333
18594W        W88409  30.014   7.780  14.915
18595W        W88410  16.153  14.184  11.539
18596W        W88411  20.640  23.598   2.262
18597W        W88412  20.134  35.571  12.494
18598W        W88413  39.030  23.499  11.961
18599W        W88414  44.496  32.430   4.830
18600W        W88415  34.964   2.830   3.222
18601W        W88416  33.052   3.716   3.691
18602W        W88417  27.525   0.391   0.761
18603W        W88418  27.146   3.865   1.793
18604W        W88419  29.509  15.183  13.804
18605W        W88420  28.045  23.700  14.496
18606W        W88421  30.588  12.672   3.198
18607W        W88422  39.061  20.243  13.851
18608W        W88423   9.274  15.299   3.708
18609W        W88424  29.603  26.550   2.818
18610W        W88425  33.539   6.326   5.220
18611W        W88426  20.541  44.935  14.825
18612W        W88427  40.037   9.365  10.613
18613W        W88428  38.399  17.711  13.402
18614W        W88429  28.056  27.617   3.821
18615W        W88430  17.708  10.701  12.092
18616W        W88431  38.863   0.974   0.324
18617W        W88432   8.769  26.610  14.322
18618W        W88433  30.460  20.539  13.836
18619W        W88434  10.766   5.903  11.401
18620W        W88435  35.474  17.588  12.009
18621W        W88436  29.122  23.073  10.549
18622W        W88437  31.996   7.809   4.131
18623W        W88438  12.172  17.588   5.165
18624W        W88439  37.416  19.777  13.952
18625W        W88440  40.865  44.924   1.306
18626W        W88441  34.893  16.629  11.102
18627W        W88442  22.193  28.517   0.399
18628W        W88443   3.289  37.394  14.873
18629W        W88444  40.007  28.671   3.282
18630W        W88445  34.480   5.241   3.634
18631W        W88446  43.422  34.539  11.534
18632W        W88447  36.987  16.660  10.901
18633W        W88448  37.428  35.585  11.969
18634W        W88449  19.216  36.043  14.418
18635W        W88450  36.931  13.702   4.147
18636W        W88451  42.424   7.698   1.389
18637W        W88452  27.459  30.016   3.863
18638W        W88453  23.540  16.667  14.830
18639W        W88454  27.963  13.196  14.027
18640W        W88455  41.530  29.562  10.903
18641W        W88456  39.929   3.259   4.216
18642W        W88457  22.506  10.279   3.762
18643W        W88458  40.049  26.621  14.835
18644W        W88459  37.038  39.914   3.801
18645W        W88460  30.066  23.581   3.287
18646W        W88461  32.577   0.886   4.778
18647W        W88462  28.963  29.597   4.802
18648W        W88463   3.407  34.567   2.866
18649W        W88464  34.455  18.589   2.743
18650W        W88465  27.454  16.127   3.721
18651W        W88466   9.297  41.427   2.864
18652W        W88467  11.831   1.357   2.662
18653W        W88468   4.698   2.337   1.311
18654W        W88469  36.572   4.874  11.861
18655W        W88470  13.320  14.142  12.393
18656W        W88471  35.090   0.821  14.808
18657W        W88472  20.571   1.384  11.464
18658W        W88473  26.997   5.715  11.443
18659W        W88474  32.570   5.700  14.773
18660W        W88475  12.258  37.430  14.781
18661W        W88476   0.859   6.279   1.313
18662W        W88477   4.836   9.875  14.838
18663W        W88478  38.045  21.099   1.422
18664W        W88479  14.234  44.969  12.565
18665W        W88480  35.985   3.436  11.376
18666W        W88481  37.080  30.132   2.805
18667W        W88482  40.877   6.406  13.900
18668W        W88483   7.754  23.078  11.934
18669W        W88484  38.465  33.500  12.512
18670W        W88485  40.022   2.266   3.219
18671W        W88486  13.206  39.449   0.745
18672W        W88487  17.293  25.113   1.290
18673W        W88488  35.568  38.421   2.385
18674W        W88489  22.686  39.471  11.576
18675W        W88490  16.161  34.108  14.422
18676W        W88491  31.609  44.991   2.796
18677W        W88492  30.541  41.965   3.310
18678W        W88493   5.198   6.762  10.902
18679W        W88494  20.060  25.632   4.321
18680W        W88495   5.247  26.976  13.359
18681W        W88496  29.653   2.778  13.533
18682W        W88497  17.230  26.692  13.928
18683W        W88498  38.547  18.090  11.470
18684W        W88499   1.812  18.093   4.631
18685W        W88500  17.096  32.544   4.772
18686W        W88501  41.364  17.259   0.878
18687W        W88502  15.084  17.159   2.357
18688W        W88503   9.324  26.976  13.964
18689W        W88504  36.906  20.700  11.862
18690W        W88505  33.091  18.095   4.780
18691W        W88506  19.189  25.595   0.342
18692W        W88507  25.102  30.040  13.875
18693W        W88508  25.594  10.185   3.720
18694W        W88509  38.483  20.169  12.346
18695W        W88510  25.524  10.751  10.971
18696W        W88511  20.723   6.865  10.489
18697W        W88512  16.075   7.379  11.389
18698W        W88513  44.995  36.924   2.890
18699W        W88514   2.347  34.031  14.285
18700W        W88515  23.110  25.184   0.321
18701W        W88516  15.676  23.559   4.307
18702W        W88517  33.111   4.864  11.873
18703W        W88518   6.411   5.348   3.637
18704W        W88519  20.033   9.657  14.943
18705W        W88520  36.548  21.179  13.512
18706W        W88521  38.827  43.485  11.076
18707W        W88522   1.865   8.766   2.864
18708W        W88523  14.279  18.258  13.345
18709W        W88524  12.638   0.893   4.652
18710W        W88525  44.329  26.549  12.979
18711W        W88526  12.732  39.397  14.029
18712W        W88527  35.552  30.439   2.335
18713W        W88528  36.355  14.112   3.145
18714W        W88529  42.923  22.638   3.786
18715W        W88530  39.000   0.902  11.915
18716W        W88531  10.762   6.334   4.774
18717W        W88532  12.177  10.831  14.885
18718W        W88533  13.682  26.514  10.538
18719W        W88534  32.407  21.218   4.203
18720W        W88535  17.100   2.433  13.023
18721W        W88536   0.816  27.665  12.984
18722W        W88537  38.854  11.194  12.577
18723W        W88538  32.490   9.755  12.344
18724W        W88539  35.956   2.727   1.270
18725W        W88540   4.836  20.611  11.980
18726W        W88541  27.177  27.992   2.247
18727W        W88542  30.042  43.390   4.139
18728W        W88543  30.938   5.241  12.024
18729W        W88544  37.473  22.007   0.386
18730W        W88545  42.952  26.653  14.421
18731W        W88546  37.535  34.905   2.698
18732W        W88547   4.892  34.410   4.188
18733W        W88548   1.866  23.657  10.918
18734W        W88549  29.477  19.573   0.816
18735W        W88550  19.062   8.807   1.807
18736W        W88551  23.062  38.982   2.760
18737W        W88552  26.663  10.840   1.801
18738W        W88553  35.467   4.940   1.250
18739W        W88554  29.052  17.558   2.844
18740W        W88555  34.612  20.067  13.811
18741W        W88556  37.970  11.679  12.055
18742W        W88557  44.769  27.456   2.247
18743W        W88558  22.685   8.888   4.274
18744W        W88559  22.723   8.752   2.875
18745W        W88560  42.511  27.641   0.952
18746W        W88561  39.819  25.117   2.777
18747W        W88562  30.538  39.469  13.431
18748W        W88563  35.552   3.781  11.865
18749W        W88564  24.665  19.756   4.162
18750W        W88565   1.739  33.392   0.321
18751W        W88566  40.427  32.065   1.789
18752W        W88567  39.033  42.386  11.865
18753W        W88568   5.264  11.322   0.324
18754W        W88569  35.473  34.520   3.754
18755W        W88570   0.278   7.392  13.426
18756W        W88571  23.115  20.074  12.363
18757W        W88572  37.012  22.519   3.332
18758W        W88573  23.547  18.279   5.220
18759W        W88574  20.271   7.366  11.871
18760W        W88575  17.676  11.666   2.863
18761W        W88576  10.837  33.524   1.335
18762W        W88577  13.618  24.625  10.995
18763W        W88578   2.298  20.594   1.917
18764W        W88579  28.497  29.477  12.492
18765W        W88580  39.935  34.878  12.910
18766W        W88581   1.385  23.504  14.836
18767W        W88582   0.968   4.863  12.943
18768W        W88583  33.091   8.675  11.533
18769W        W88584  39.384  23.560  14.308
18770W        W88585  41.479  37.928   3.276
18771W        W88586  41.882  39.846   2.219
18772W        W88587  10.256  31.418   1.758
18773W        W88588   8.733  13.618  11.037
18774W        W88589  26.595  43.465   4.622
18775W        W88590  37.523  26.573  11.863
18776W        W88591  44.302  44.449   1.441
18777W        W88592  10.189  13.820   3.810
18778W        W88593  13.831  25.962  13.360
18779W        W88594  34.867  22.532   2.359
18780W        W88595  27.593  42.783  11.481
18781W        W88596   7.848  11.706   3.244
18782W        W88597  13.188   5.206   3.857
18783W        W88598  13.150  35.883  13.359
18784W        W88599  43.414  42.519   2.409
18785W        W88600  39.409   3.897  12.434
18786W        W88601   6.262  33.623   9.945
18787W        W88602  42.447  25.202  11.559
18788W        W88603  36.847  36.057  13.799
18789W        W88604  32.519  27.172   4.309
18790W        W88605   1.301  40.414  12.049
18791W        W88606  14.809  37.977  12.485
18792W        W88607  33.036  29.050  12.509
18793W        W88608  15.690   4.888   3.765
18794W        W88609  35.012  27.648   3.742
18795W        W88610  32.957  39.890   0.921
18796W        W88611  16.318  30.022   4.229
18797W        W88612  17.156  32.012  10.111
18798W        W88613   1.272  13.304   2.300
18799W        W88614  29.083  22.609   4.259
18800W        W88615   8.337  43.512  10.501
18801W        W88616  22.698  44.453  12.434
18802W        W88617   0.344  13.816  14.779
18803W        W88618  15.775  38.020   4.342
18804W        W88619  20.724  19.241   0.822
18805W        W88620   7.360  33.448   4.167
18806W        W88621  36.349  21.556   2.887
18807W        W88622  30.045  27.648  12.901
18808W        W88623  25.666  40.049  13.908
18809W        W88624  16.742   4.294   0.424
18810W        W88625  24.660   8.386  13.815
18811W        W88626  14.665  12.835   4.209
18812W        W88627  39.424  37.563   3.724
18813W        W88628  27.026  44.324   3.258
18814W        W88629  11.798  32.899   1.710
18815W        W88630  25.500   1.897   2.887
18816W        W88631  17.275  13.157  11.859
18817W        W88632   6.876  21.084   4.787
18818W        W88633  42.405  36.912   2.746
18819W        W88634  16.615   2.372  10.525
18820W        W88635   1.290  13.797  13.902
18821W        W88636  22.510  21.713  13.014
18822W        W88637  44.474  17.593   1.225
18823W        W88638  41.877  28.659  10.954
18824W        W88639  28.940  36.913   2.845
18825W        W88640  21.650  37.564   0.442
18826W        W88641  28.597  11.807   1.868
18827W        W88642   8.267  31.080  13.935
18828W        W88643   6.230   3.750   3.689
18829W        W88644  21.123  11.633   0.776
18830W        W88645  21.581   5.753  10.895
18831W        W88646  32.446  40.033  14.400
18832W        W88647  30.590  18.579   0.419
18833W        W88648  30.081  43.829   2.847
18834W        W88649  39.435  28.522   2.216
18835W        W88650  22.553  32.445   2.774
18836W        W88651  31.472  13.813   0.397
18837W        W88652  40.994  28.646  13.428
18838W        W88653   9.252  16.789  10.953
18839W        W88654  34.991  29.122   2.727
18840W        W88655  35.398   0.367   2.417
18841W        W88656  41.947   5.413  10.589
18842W        W88657   9.808  29.542  13.803
18843W        W88658  34.965  40.019  11.461
18844W        W88659   8.795  44.300   2.270
18845W        W88660  40.518  15.756  10.480
18846W        W88661  26.683   3.320  12.045
18847W        W88662  26.609   0.794   0.449
18848W        W88663  36.899   2.376   2.891
18849W        W88664  19.744  19.550  14.937
18850W        W88665  15.642  24.689  14.349
18851W        W88666  30.613  36.980   0.334
18852W        W88667  31.499  23.503  10.452
18853W        W88668  14.288  24.710  13.365
18854W        W88669  33.959  18.063  13.370
18855W        W88670   9.837  20.048   4.733
18856W        W88671  22.234  31.599   1.367
18857W        W88672  24.148  10.699   4.155
18858W        W88673   0.251  19.732   3.793
18859W        W88674  37.876  24.653   0.350
18860W        W88675  22.598  44.330   1.421
18861W        W88676  36.875  27.477  12.478
18862W        W88677  24.129   7.754  14.024
18863W        W88678  37.978  40.805  13.005
18864W        W88679   5.323  27.144   0.732
18865W        W88680  31.549  34.941  14.824
18866W        W88681  28.961  42.474   4.244
18867W        W88682   7.898  30.511   9.958
18868W        W88683  22.628  27.657  10.508
18869W        W88684  21.565  29.547   4.700
18870W        W88685   5.933  27.447  12.993
18871W        W88686  14.136  37.967   4.830
18872W        W88687   9.197  22.074   1.790
18873W        W88688   8.212  34.898  14.275
18874W        W88689  26.073  32.590  12.050
18875W        W88690  24.588   0.406   4.269
18876W        W88691   5.900  23.161  14.290
18877W        W88692  30.628  18.051   0.957
18878W        W88693   4.752  30.126  12.889
18879W        W88694  10.867  43.851   2.696
18880W        W88695  30.482  42.953  14.512
18881W        W88696  36.500  34.006   9.439
18882W        W88697   2.456  34.030   3.195
18883W        W88698   3.340  33.546  13.350
18884W        W88699   1.882   8.399  13.886
18885W        W88700  44.927   6.909  12.565
18886W        W88701  31.647   4.702   1.309
18887W        W88702   1.934  20.212  13.482
18888W        W88703  40.511  41.400  10.073
18889W        W88704   3.262   0.477  10.903
18890W        W88705   6.197   0.829   1.402
18891W        W88706  16.731  13.649   3.770
18892W        W88707  38.006  30.030  13.870
18893W        W88708  19.237  35.048  13.327
18894W        W88709  42.358  16.789  11.940
18895W        W88710  35.109  33.617  14.427
18896W        W88711  25.006  38.358  13.916
18897W        W88712   5.281  25.011   2.184
18898W        W88713  20.617   7.786  12.978
18899W        W88714  15.273  36.844  11.915
18900W        W88715  20.562  42.903  12.428
18901W        W88716  30.545  31.572   3.822
18902W        W88717  31.017  41.961  14.850
18903W        W88718  18.688   1.825  13.355
18904W        W88719  20.054  11.808  10.429
18905W        W88720  11.348  11.736   0.310
18906W        W88721  27.503   1.961   3.157
18907W        W88722  21.189   9.708   3.671
18908W        W88723  29.585   7.205  10.435
18909W        W88724  44.491  19.685  12.350
18910W        W88725  40.987  12.344   0.902
18911W        W88726   2.434  39.395  13.525
18912W        W88727  42.939  33.963  12.916
18913W        W88728  13.753  11.743  12.873
18914W        W88729  31.559  25.011   2.370
18915W        W88730   8.856  23.700   2.388
18916W        W88731  35.529  44.439  13.327
18917W        W88732  15.285   3.866  14.302
18918W        W88733   9.336   8.774   0.858
18919W        W88734  39.025  33.586  14.789
18920W        W88735  37.055   8.899  11.907
18921W        W88736  42.476  31.571   2.259
18922W        W88737  26.953   4.420  13.339
18923W        W88738  19.692   9.732   2.250
18924W        W88739  12.135  42.801   1.843
18925W        W88740  10.240  20.100   3.686
18926W        W88741   3.337   8.761   1.342
18927W        W88742  44.285   9.676  14.355
18928W        W88743  28.541  43.438  10.464
18929W        W88744  15.108  17.091   0.277
18930W        W88745  17.657  28.002   3.256
18931W        W88746  37.969   8.731   4.817
18932W        W88747  16.104   3.323  14.447
18933W        W88748  10.740   6.199  10.892
18934W        W88749  28.626   5.767   4.645
18935W        W88750  42.962  37.558  11.481
18936W        W88751   1.313  27.184   4.708
18937W        W88752  12.239  33.957  14.304
18938W        W88753  11.264   9.370  13.538
18939W        W88754   3.791   8.829  14.891
18940W        W88755  37.997  31.547   4.786
18941W        W88756  15.808   5.799  13.338
18942W        W88757  39.874  15.767  14.408
18943W        W88758  16.211  18.600  10.934
18944W        W88759  17.301  34.073  14.845
18945W        W88760  15.693  29.062   4.220
18946W        W88761  11.828  40.402   2.230
18947W        W88762  41.440  10.139  12.981
18948W        W88763  23.593  39.029   2.374
18949W        W88764   9.677  36.400  12.906
18950W        W88765  20.034   2.967  10.458
18951W        W88766   7.253  34.571  12.520
18952W        W88767  17.220  15.621   1.878
18953W        W88768   0.944  15.173   1.347
18954W        W88769  14.281  20.203  12.339
18955W        W88770   9.869   2.758  12.413
18956W        W88771  42.949  19.598  12.911
18957W        W88772  34.494  41.431  14.398
18958W        W88773  37.356   8.186  12.028
18959W        W88774   0.282  11.149  12.394
18960W        W88775  42.032  15.672  11.382
18961W        W88776  21.533  22.669  10.071
18962W        W88777  35.917  19.282   0.894
18963W        W88778  25.477  33.022  10.598
18964W        W88779  36.857  13.638  13.424
18965W        W88780  11.689  29.595  12.877
18966W        W88781   8.866  32.417   1.334
18967W        W88782   3.841  16.141  11.972
18968W        W88783  28.626  35.040  13.817
18969W        W88784   6.261  23.080   0.785
18970W        W88785   4.388  22.095   2.245
18971W        W88786   2.283  40.805   2.825
18972W        W88787  29.100  19.593  12.530
18973W        W88788  25.200  18.149  13.327
18974W        W88789  39.825  14.617  11.949
18975W        W88790  40.416  13.183   4.303
18976W        W88791  19.050  39.977  11.108
18977W        W88792   0.323   8.336  10.422
18978W        W88793  22.998  13.208   2.793
18979W        W88794  35.476   7.780  12.374
18980W        W88795   6.322  22.552   5.303
18981W        W88796  21.041  38.981  14.853
18982W        W88797  22.243   2.749  13.513
18983W        W88798   7.795   0.828  10.632
18984W        W88799   4.771  29.021  14.365
18985W        W88800  31.998  29.619   5.149
18986W        W88801  19.581  38.868   2.354
18987W        W88802  43.463   6.906   0.372
18988W        W88803  10.368  22.628   4.133
18989W        W88804  42.789   8.663   3.305
18990W        W88805  20.177  30.955   4.727
18991W        W88806   2.427  14.129  13.025
18992W        W88807   2.945  30.504   1.745
18993W        W88808  44.416  19.188   2.689
18994W        W88809   9.301   3.875   2.701
18995W        W88810  19.596  11.134   4.270
18996W        W88811  30.013   9.652  11.457
18997W        W88812  13.808   5.809   1.425
18998W        W88813  31.518  25.570  12.860
18999W        W88814  17.583  11.246   0.288
19000W        W88815  26.190  25.037  14.992
19001W        W88816  17.702  35.479   1.760
19002W        W88817  40.437  28.008  13.341
19003W        W88818  20.551   1.386   3.633
19004W        W88819  24.091  18.094   0.886
19005W        W88820  39.846  42.783   1.741
19006W        W88821  21.023  19.218  14.886
19007W        W88822  20.768  43.475   3.853
19008W        W88823  39.045  38.839  12.551
19009W        W88824  25.546  44.279  11.998
19010W        W88825  27.463  26.490  10.433
19011W        W88826   0.775  36.032  11.912
19012W        W88827  44.324   8.809  11.068
19013W        W88828  38.906  35.395  10.952
19014W        W88829  40.873  23.238  13.385
19015W        W88830   7.738   2.918  11.558
19016W        W88831   4.742  37.953  10.642
19017W        W88832  37.980  27.020  10.608
19018W        W88833  38.867  15.645   5.249
19019W        W88834  32.078  17.214  14.942
19020W        W88835  22.155  44.800   2.206
19021W        W88836  30.086   7.801   1.435
19022W        W88837   4.855  22.006   1.229
19023W        W88838  39.880  14.639  13.314
19024W        W88839  34.880  19.744  11.472
19025W        W88840  36.557   7.874   2.375
19026W        W88841   2.403  13.722  10.587
19027W        W88842   8.709  18.074  13.978
19028W        W88843  11.293  25.059  14.840
19029W        W88844  25.543  15.258  12.516
19030W        W88845  18.672  37.570  14.002
19031W        W88846   0.813  34.094  13.329
19032W        W88847  10.695   2.302  11.428
19033W        W88848  40.407  38.941  11.892
19034W        W88849  32.568  16.769   1.933
19035W        W88850   8.359   2.333  11.610
19036W        W88851  32.471  23.563   0.922
19037W        W88852   9.738  13.733   3.765
19038W        W88853   8.717  26.121   1.837
19039W        W88854  33.585   8.856   2.672
19040W        W88855   0.743   5.222  11.537
19041W        W88856   6.876   1.762   1.798
19042W        W88857  40.389   2.852  12.076
19043W        W88858  12.226  20.690  12.915
19044W        W88859   8.290  37.886   0.934
19045W        W88860  15.215   7.877  13.494
19046W        W88861   6.859  17.206  13.057
19047W        W88862  30.996  27.596   2.894
19048W        W88863  33.466  22.685  12.530
19049W        W88864  21.031  34.539   1.270
19050W        W88865  30.618  32.892   2.774
19051W        W88866  10.824  10.322  12.548
19052W        W88867  38.395  37.961   3.302
19053W        W88868   0.933  18.579   4.130
19054W        W88869  44.822  30.102   4.173
19055W        W88870  22.725  32.003   2.373
19056W        W88871   9.284  34.963   2.809
19057W        W88872  41.901  44.991   0.381
19058W        W88873  22.634  15.619  13.022
19059W        W88874  43.459  27.068  14.452
19060W        W88875  14.276  39.327   1.797
19061W        W88876  20.093  17.139  10.146
19062W        W88877   2.818  17.592  10.435
19063W        W88878   2.390  25.978  13.902
19064W        W88879  40.400  41.829   2.392
19065W        W88880  23.568   6.355  13.824
19066W        W88881  29.027  16.080  11.527
19067W        W88882   7.720  37.381   3.657
19068W        W88883   2.769  32.061  10.093
19069W        W88884  32.019  31.923   2.723
19070W        W88885  29.008  29.468   0.881
19071W        W88886  19.214   7.693   0.871
19072W        W88887  12.166  41.413   0.882
19073W        W88888  17.697  24.484   2.318
19074W        W88889  30.100  19.210   1.796
19075W        W88890   1.748  33.583  13.472
19076W        W88891  34.544   9.177  12.386
19077W        W88892  34.104  44.982   2.891
19078W        W88893  12.206  41.398  14.880
19079W        W88894  12.786  37.901   2.827
19080W        W88895  14.248  28.621   2.200
19081W        W88896  16.125   2.332  14.905
19082W        W88897   5.705  37.517  14.468
19083W        W88898  40.908  10.224   1.298
19084W        W88899  36.529  10.255   3.642
19085W        W88900  17.623  10.332  13.367
19086W        W88901  32.031  24.095  14.862
19087W        W88902  41.334  43.845  11.000
19088W        W88903  24.515   7.810   1.882
19089W        W88904  21.657   5.908  11.513
19090W        W88905   4.761  14.215   4.624
19091W        W88906  35.859  13.707   4.777
19092W        W88907   3.272  29.649   5.296
19093W        W88908  40.002  19.115   4.722
19094W        W88909   4.325  30.949   2.251
19095W        W88910   7.704   0.874   1.258
19096W        W88911   8.741  30.590  12.880
19097W        W88912   7.268  27.082  14.760
19098W        W88913  41.439  22.559  12.071
19099W        W88914  37.052  21.248  12.556
19100W        W88915  43.985   9.872   2.699
19101W        W88916  36.379  31.097   1.739
19102W        W88917  39.539  31.491  14.504
19103W        W88918  11.683  39.926  11.000
19104W        W88919   0.789   0.853   0.823
19105W        W88920  36.074  11.648  12.834
19106W        W88921  34.975  29.472   2.902
19107W        W88922  15.628  35.077  13.849
19108W        W88923  30.067   0.871  12.902
19109W        W88924  18.696  33.974  14.793
19110W        W88925  38.400  13.144   2.767
19111W        W88926  15.585   4.353  14.293
19112W        W88927   7.249  11.180  10.483
19113W        W88928  30.525   0.410  10.406
19114W        W88929  18.265  36.354  12.050
19115W        W88930   0.490  44.920  14.814
19116W        W88931  27.589  33.019   3.738
19117W        W88932  36.935  15.768   4.775
19118W        W88933  35.568  26.679  13.391
19119W        W88934  15.275  24.591   1.404
19120W        W88935   6.208  23.079   4.274
19121W        W88936  34.042  20.066   0.312
19122W        W88937   9.293  42.781  14.454
19123W        W88938  14.271  19.039  11.514
19124W        W88939   4.304   6.729   4.803
19125W        W88940  44.007  43.800   1.212
19126W        W88941   5.697   4.323   0.331
19127W        W88942  20.069  10.767  14.404
19128W        W88943   2.269  15.324   1.219
19129W        W88944  36.372  38.374   1.811
19130W        W88945   8.306  13.641  12.071
19131W        W88946  19.599   1.866  14.005
19132W        W88947  26.476  22.088  13.922
19133W        W88948  11.369  20.190   4.204
19134W        W88949  34.456  31.998  12.904
19135W        W88950  21.027  36.371  12.060
19136W        W88951  20.682   5.799   1.867
19137W        W88952   8.890  36.477   1.337
19138W        W88953   2.822  29.508   3.320
19139W        W88954  13.178  17.265  14.762
19140W        W88955  26.066  38.446  13.980
19141W        W88956  20.581  14.313  12.512
19142W        W88957   6.378  24.176  13.347
19143W        W88958  23.059  44.468   0.297
19144W        W88959  13.692  44.408   1.378
19145W        W88960  38.999  42.842   1.840
19146W        W88961  33.126   6.738   3.192
19147W        W88962  18.675  19.072  13.537
19148W        W88963  43.346  17.792   4.138
19149W        W88964  12.163  16.812   0.815
19150W        W88965   5.286  10.341   1.933
19151W        W88966  41.356   9.781   1.258
19152W        W88967   2.390  27.513  13.009
19153W        W88968   9.701  31.021   3.314
19154W        W88969  40.026   1.417   9.924
19155W        W88970  44.496   5.212   0.798
19156W        W88971  28.020  25.092   4.772
19157W        W88972  32.983  18.667  14.473
19158W        W88973  38.054   5.853  10.935
19159W        W88974   3.776  16.757  14.425
19160W        W88975  29.441  11.220   1.305
19161W        W88976  39.489  37.562  12.382
19162W        W88977  42.958  33.048  10.963
19163W        W88978  21.052   5.778  12.031
19164W        W88979  15.584   3.750  14.862
19165W        W88980  39.810  28.180  11.122
19166W        W88981   0.954  14.813   1.433
19167W        W88982  41.381  37.490  11.885
19168W        W88983  43.272  10.381  12.350
19169W        W88984  44.311  10.802   2.305
19170W        W88985  44.866  23.225  11.909
19171W        W88986  37.018  21.105   1.218
19172W        W88987  37.382   4.700  10.417
19173W        W88988  44.780  17.738   0.831
19174W        W88989   4.295   6.687  13.026
19175W        W88990  40.991  32.957  10.458
19176W        W88991  24.585   9.160   4.216
19177W        W88992  24.620  26.688  12.917
19178W        W88993  13.259   1.316   1.710
19179W        W88994  39.949  31.450  11.412
19180W        W88995  13.694  32.481   0.967
19181W        W88996  19.118   3.329  12.993
19182W        W88997  33.611   3.946  12.071
19183W        W88998  33.909  14.605  12.060
19184W        W88999  26.140  23.696  11.447
19185W        W89000  14.807  23.208  13.307
19186W        W89001  12.646  30.637  12.446
19187W        W89002  44.276  11.779  11.917
19188W        W89003  43.879  40.483   2.864
19189W        W89004  18.654  15.226   0.940
19190W        W89005  33.552  27.666  12.400
19191W        W89006  33.450  32.391   3.782
19192W        W89007  43.496  43.975   1.907
19193W        W89008  34.969  14.315   9.978
19194W        W89009  10.339  24.092  13.792
19195W        W89010  22.653  33.523  12.954
19196W        W89011  36.885  21.217  12.018
19197W        W89012  26.079  27.940  11.593
19198W        W89013  41.490  15.754   1.279
19199W        W89014   4.777  21.577  14.814
19200W        W89015  26.678  21.524   0.949
19201W        W89016  22.028  28.084   3.863
19202W        W89017  37.387   7.751   4.708
19203W        W89018  42.438   4.925   4.641
19204W        W89019  11.326  43.493  11.423
19205W        W89020  31.094  22.562   1.839
19206W        W89021   8.301  27.632   0.396
19207W        W89022  26.176  14.334   5.281
19208W        W89023  44.458  15.792  14.487
19209W        W89024  39.481   8.256   2.897
19210W        W89025   1.852   0.484   3.359
19211W        W89026  10.701  38.454  14.436
19212W        W89027  20.625   3.895  10.945
19213W        W89028  37.052   3.792   1.322
19214W        W89029   6.221  42.850   5.227
19215W        W89030  33.580  29.941  13.374
19216W        W89031  18.668  43.355   0.470
19217W        W89032  28.083  19.214   3.156
19218W        W89033   3.830  29.153   0.318
19219W        W89034  30.524   6.325  13.401
19220W        W89035  18.073  33.604  13.435
19221W        W89036   1.824  44.934   1.272
19222W        W89037  34.023  23.511  14.426
19223W        W89038   9.248   4.827  11.946
19224W        W89039  25.599   7.793   0.383
19225W        W89040  43.779  38.963   2.200
19226W        W89041  42.963  22.725  11.044
19227W        W89042  17.595  24.204   3.225
19228W        W89043  22.240   2.260   1.763
19229W        W89044  41.960  40.485  13.914
19230W        W89045  44.457  12.654  12.827
19231W        W89046  37.340   6.898  11.002
19232W        W89047  22.711  24.034  13.470
19233W        W89048   4.726  26.105  13.436
19234W        W89049  23.168  37.372  13.423
19235W        W89050   6.868  19.102   1.429
19236W        W89051   6.723  32.452   0.956
19237W        W89052   0.965  17.694   3.304
19238W        W89053  23.189   7.305   1.779
19239W        W89054  27.176   6.914   1.250
19240W        W89055  43.857  33.990   1.423
19241W        W89056  27.683  39.505  14.787
19242W        W89057  38.999  31.114  12.468
19243W        W89058  31.028  27.525   3.173
19244W        W89059  15.123  20.680  12.922
19245W        W89060  31.511  32.030  13.835
19246W        W89061   4.885  22.544   4.795
19247W        W89062   4.765  16.260   3.359
19248W        W89063  27.951  18.281  10.424
19249W        W89064  33.129  27.111  10.975
19250W        W89065  38.910   1.435   2.248
19251W        W89066  39.367  22.175  14.028
19252W        W89067  10.777  27.066   1.411
19253W        W89068  28.578  30.415   1.703
19254W        W89069  40.344  17.270   5.222
19255W        W89070  35.871   0.841  11.546
19256W        W89071  21.552   5.915  12.975
19257W        W89072  42.874  36.977  10.404
19258W        W89073  11.321   1.738  11.446
19259W        W89074   8.685  15.286   1.932
19260W        W89075  21.714  21.723   2.798
19261W        W89076  23.537   2.372   2.211
19262W        W89077  11.667   4.449   4.800
19263W        W89078  35.085  10.313  10.563
19264W        W89079   8.879  28.068  14.317
19265W        W89080  36.964  32.483  12.511
19266W        W89081  36.587  39.959  11.916
19267W        W89082   4.210  15.303  10.441
19268W        W89083  10.346  21.747   2.754
19269W        W89084  39.909  36.447  11.405
19270W        W89085  15.665  34.607  10.502
19271W        W89086  36.487   4.756  11.017
19272W        W89087  19.200  12.664   3.300
19273W        W89088  39.947  22.016   4.658
19274W        W89089  35.486   5.725  14.851
19275W        W89090   7.800  30.644  14.437
19276W        W89091   9.245   5.269  12.406
19277W        W89092   3.742   4.289   2.889
19278W        W89093  36.423  26.188   3.165
19279W        W89094  13.607   7.665   3.232
19280W        W89095  23.996  40.359  13.867
19281W        W89096   5.225  10.203   4.259
19282W        W89097  25.570   1.332  13.830
19283W        W89098   6.378   0.386   4.294
19284W        W89099  41.793  31.609  10.511
19285W        W89100   8.700  18.732  11.967
19286W        W89101   9.772  12.169  11.018
19287W        W89102   9.369  26.157   4.766
19288W        W89103   5.781  18.659   2.338
19289W        W89104   1.357  18.616   1.266
19290W        W89105  33.005  31.456  12.933
19291W        W89106  37.850  25.977   0.743
19292W        W89107  16.158   5.244  11.970
19293W        W89108   5.329  15.212   2.751
19294W        W89109  43.771  37.383   0.834
19295W        W89110  34.602   3.376   3.638
19296W        W89111  29.650  39.949   2.700
19297W        W89112   6.331  38.834   4.234
19298W        W89113  42.997   9.651  14.411
19299W        W89114   4.711  22.165  14.852
19300W        W89115  33.099  44.372   0.964
19301W        W89116  27.614  39.867  11.465
19302W        W89117   4.843   8.679  14.951
19303W        W89118  17.266  20.715  14.786
19304W        W89119  30.090  41.378   3.814
19305W        W89120  29.155  28.486  13.350
19306W        W89121  33.562  43.924  14.814
19307W        W89122   4.773  19.204  11.505
19308W        W89123  41.809  12.135  10.491
19309W        W89124  10.845  29.105   1.382
19310W        W89125  19.232   6.755  10.912
19311W        W89126  14.610  13.840  12.095
19312W        W89127   8.816   7.249  11.905
19313W        W89128  10.659   0.469   2.371
19314W        W89129  42.834  42.963   0.867
19315W        W89130  44.895   4.837   3.310
19316W        W89131  23.175  33.929  10.989
19317W        W89132   2.867  15.184  14.023
19318W        W89133   8.837  24.603  13.409
19319W        W89134   3.918  10.359   3.863
19320W        W89135  21.586  19.182   2.747
19321W        W89136  30.919  21.524   4.164
19322W        W89137  18.781  41.330  10.123
19323W        W89138  27.062  23.593   1.327
19324W        W89139  14.738  42.501   2.762
19325W        W89140  16.581  33.981   2.712
19326W        W89141  33.054  25.090  11.543
19327W        W89142  20.730  17.152  13.356
19328W        W89143  38.521  34.045   2.399
19329W        W89144  40.823  22.571   2.213
19330W        W89145  29.619  30.451   3.639
19331W        W89146  20.098  17.779   0.338
19332W        W89147  20.680  42.330   1.763
19333W        W89148  29.118  13.121  10.423
19334W        W89149  42.004   3.257   3.251
19335W        W89150  26.656  36.053  11.497
19336W        W89151  41.381  27.073   2.291
19337W        W89152  31.536  16.274  14.841
19338W        W89153   1.849  39.418   0.419
19339W        W89154  17.291  12.249  12.848
19340W        W89155  28.054   1.773   1.896
19341W        W89156  43.825  38.500  11.485
19342W        W89157   1.893   1.344  11.936
19343W        W89158   0.470  37.434   0.459
19344W        W89159  38.840  43.914  11.446
19345W        W89160  41.409  18.655   3.294
19346W        W89161   3.385  42.296  13.492
19347W        W89162   7.318  27.984   1.396
19348W        W89163  40.531  10.318  13.463
19349W        W89164  13.746  33.581  12.340
19350W        W89165  15.813   6.782  13.885
19351W        W89166  10.696  31.527   1.352
19352W        W89167  26.040  25.190  13.387
19353W        W89168  24.508  22.234  14.824
19354W        W89169  21.148   8.812  14.849
19355W        W89170   0.820  26.190  11.996
19356W        W89171  31.022  13.198   3.155
19357W        W89172  20.747  27.549   4.760
19358W        W89173   2.242  33.122   2.893
19359W        W89174   0.355   8.702   0.811
19360W        W89175  13.620  26.613   1.818
19361W        W89176  23.998  34.052  10.960
19362W        W89177  29.037  44.283  10.943
19363W        W89178  37.406  31.474  11.474
19364W        W89179  22.601  31.535   1.386
19365W        W89180   9.241  40.821  13.978
19366W        W89181  30.059   7.244   1.715
19367W        W89182  21.512  27.582  10.419
19368W        W89183  13.313  37.450  14.020
19369W        W89184  34.937  25.615   1.278
19370W        W89185   8.334  20.232   1.743
19371W        W89186  38.482   8.314  14.382
19372W        W89187  35.420  23.678   0.435
19373W        W89188   4.269  33.992  11.107
19374W        W89189  25.127   3.446   3.209
19375W        W89190  28.612   3.753  10.499
19376W        W89191  31.646  42.425   3.766
19377W        W89192  38.471  27.035   0.359
19378W        W89193  23.537  31.113  10.479
19379W        W89194  36.538  18.769  11.887
19380W        W89195  39.943  34.970   0.785
19381W        W89196  31.070  39.448   3.810
19382W        W89197  22.599  26.202  13.902
19383W        W89198  37.941  42.964   0.855
19384W        W89199   6.785  24.122   0.844
19385W        W89200  25.611  29.971  10.927
19386W        W89201  13.809  40.844   0.471
19387W        W89202   0.844  23.567  13.359
19388W        W89203  27.060  20.651   0.325
19389W        W89204   4.925   3.375   2.330
19390W        W89205   3.820  15.750   3.211
19391W        W89206  17.700  43.891  13.815
19392W        W89207  10.250   0.854  13.504
19393W        W89208  18.702  21.017  13.380
19394W        W89209   2.907  28.148   3.761
19395W        W89210  18.228   0.866  14.991
19396W        W89211  12.323  28.057  13.538
19397W        W89212  15.267  32.570  14.928
19398W        W89213  27.614   2.341   2.411
19399W        W89214  42.358  32.513   1.265
19400W        W89215  29.498  19.133  11.490
19401W        W89216  13.195  16.104   2.810
19402W        W89217  34.609  38.843   3.679
19403W        W89218  43.015  23.989   2.379
19404W        W89219  20.756  31.406   3.819
19405W        W89220   4.224  34.067   3.786
19406W        W89221  30.009  16.652  14.979
19407W        W89222  29.558  37.021  14.993
19408W        W89223  33.892  27.620  14.794
19409W        W89224  37.997   1.434  11.496
19410W        W89225   8.823  30.486  10.988
19411W        W89226  31.943  39.483  13.492
19412W        W89227   5.317  40.411   4.738
19413W        W89228  10.874  44.940   3.204
19414W        W89229  32.001  34.436   1.411
19415W        W89230  16.628  17.159   0.347
19416W        W89231  12.193   1.852  10.953
19417W        W89232  23.232  21.518   1.425
19418W        W89233  29.623  26.701   4.134
19419W        W89234  41.989   9.653   1.210
19420W        W89235   2.430   2.226  12.445
19421W        W89236  30.153  32.618  14.511
19422W        W89237  17.271  42.976   5.086
19423W        W89238  14.806  22.508  14.422
19424W        W89239  44.829  10.285  12.441
19425W        W89240  44.981  31.939   4.708
19426W        W89241   5.774  30.435   2.839
19427W        W89242  28.517  44.962  14.426
19428W        W89243  33.879  32.992  10.932
19429W        W89244  35.446  21.593   1.263
19430W        W89245  24.512  24.550  13.799
19431W        W89246   5.433  10.809   1.739
19432W        W89247  18.110  13.213   2.753
19433W        W89248   6.311  43.273   0.938
19434W        W89249  39.055   1.771  13.063
19435W        W89250  38.841   1.306   0.753
19436W        W89251   6.750  40.859   4.726
19437W        W89252  27.136   6.263  13.499
19438W        W89253  35.488   3.904  13.943
19439W        W89254   9.804   3.369  11.037
19440W        W89255  28.174  17.652   4.182
19441W        W89256  18.217  23.205  10.494
19442W        W89257  26.627  34.609   4.304
19443W        W89258   2.897  25.696   3.785
19444W        W89259   3.243  26.661   2.226
19445W        W89260  19.146   4.393  13.479
19446W        W89261  41.848   7.776  11.586
19447W        W89262  38.364  26.473   3.708
19448W        W89263   3.342  35.459  11.402
19449W        W89264  29.470  11.725   4.283
19450W        W89265  34.502  39.386   1.925
19451W        W89266  18.221  38.963   3.744
19452W        W89267  10.310  17.640   4.603
19453W        W89268   7.751  31.896   0.439
19454W        W89269   7.867  26.053   1.740
19455W        W89270  41.871  11.290   0.396
19456W        W89271  25.503  27.608   0.342
19457W        W89272  37.912   7.906  12.038
19458W        W89273  40.488  14.617  10.420
19459W        W89274   1.957  27.051  14.431
19460W        W89275   7.212   1.245  11.588
19461W        W89276  38.067  29.137  11.604
19462W        W89277  17.132  28.441  11.412
19463W        W89278  21.220  11.207  11.083
19464W        W89279   9.278  39.357   3.278
19465W        W89280  29.075  37.357   3.334
19466W        W89281  13.723  16.722   0.257
19467W        W89282  30.042  25.544  14.984
19468W        W89283  20.702  14.671  14.481
19469W        W89284  16.724  41.344   0.429
19470W        W89285  25.166  10.659  12.461
19471W        W89286  17.736   1.909  12.992
19472W        W89287  23.549  17.714   2.217
19473W        W89288  16.682   3.448   0.246
19474W        W89289  27.663  30.927  12.852
19475W        W89290   5.428  40.988  11.515
19476W        W89291  31.967   3.263   3.348
19477W        W89292  41.797  42.986   3.286
19478W        W89293  16.148  21.035  13.430
19479W        W89294  44.802   9.344  10.421
19480W        W89295  35.092  16.171   3.319
19481W        W89296  44.269  37.924  14.854
19482W        W89297   4.704  35.575  14.322
19483W        W89298  35.002   6.810  14.962
19484W        W89299  11.270   4.821   0.757
19485W        W89300  37.342  11.670   2.881
19486W        W89301  23.051  13.210  13.497
19487W        W89302  10.688  37.912   4.759
19488W        W89303  39.532   2.911  14.990
19489W        W89304   6.226  19.065   1.797
19490W        W89305  29.550   3.941  13.308
19491W        W89306  28.568   9.381   3.168
19492W        W89307  25.016  28.677   2.194
19493W        W89308  11.715  41.436   1.866
19494W        W89309  29.001  44.844   4.618
19495W        W89310  34.604  39.430  10.574
19496W        W89311  42.944  29.510   1.280
19497W        W89312  27.536   0.923   4.327
19498W        W89313  29.557  25.504   2.213
19499W        W89314  43.464  27.467   1.411
19500W        W89315  15.615  25.182   1.442
19501W        W89316  17.071   3.783   3.630
19502W        W89317  10.207   9.727  11.512
19503W        W89318  30.487  28.497  10.641
19504W        W89319  32.119  16.799  12.094
19505W        W89320  22.234   6.864   3.723
19506W        W89321   7.280  19.548  13.009
19507W        W89322  29.603  36.991  13.491
19508W        W89323  22.662  17.148   5.315
19509W        W89324  42.858  36.993   3.649
19510W        W89325  31.075  32.588  11.374
19511W        W89326   1.895  43.919   2.239
19512W        W89327  30.424  13.774  10.979
19513W        W89328  39.517  30.565  11.008
19514W        W89329  15.292   6.251  12.872
19515W        W89330  21.144   7.911  11.970
19516W        W89331  15.674  18.565  11.587
19517W        W89332  18.162   7.715  12.500
19518W        W89333  18.569  31.619  14.883
19519W        W89334   4.269  28.088   0.772
19520W        W89335  28.028   0.929  13.335
19521W        W89336  39.321  28.478   4.801
19522W        W89337  28.523   6.899  11.063
19523W        W89338  20.764   1.323   1.450
19524W        W89339  30.643  15.635   3.220
19525W        W89340   5.727  41.838   3.359
19526W        W89341  27.021  30.493   0.894
19527W        W89342   4.265  38.829   0.452
19528W        W89343  22.584  15.820   4.638
19529W        W89344  22.591   8.201  11.930
19530W        W89345  43.872  25.011  13.489
19531W        W89346  11.197   3.796  13.872
19532W        W89347  10.714  13.650   3.840
19533W        W89348  31.475  24.672   2.809
19534W        W89349  11.737   7.844  12.935
19535W        W89350   0.926  17.073   2.793
19536W        W89351  40.943  43.938  12.958
19537W        W89352  20.203  35.590  13.543
19538W        W89353  16.764   2.278   3.316
19539W        W89354  14.722   6.329  11.433
19540W        W89355  39.373  21.032   2.864
19541W        W89356  16.205  14.626  12.940
19542W        W89357  20.691  41.847  11.585
19543W        W89358  25.974  17.155   1.729
19544W        W89359  44.315  25.197   3.653
19545W        W89360   5.329  38.467  13.392
19546W        W89361  11.160  25.559   0.748
19547W        W89362  22.042   5.225   4.685
19548W        W89363  10.646  34.509  13.409
19549W        W89364  44.465  25.013  14.335
19550W        W89365  19.594  15.603   2.258
19551W        W89366  39.476   6.262  13.476
19552W        W89367  19.268   1.750   4.288
19553W        W89368  21.642  37.363  14.794
19554W        W89369  39.446  18.144  11.571
19555W        W89370  22.643   1.828  14.323
19556W        W89371  35.440  12.800  13.905
19557W        W89372  23.006  12.853   3.289
19558W        W89373   8.676  38.559  13.442
19559W        W89374  34.443  13.338   0.246
19560W        W89375  37.044  42.791  11.428
19561W        W89376   4.350  40.544   4.792
19562W        W89377   2.860  37.067  14.985
19563W        W89378  18.781   8.405  13.518
19564W        W89379  39.338  24.672   2.766
19565W        W89380  44.351  19.667  14.396
19566W        W89381   0.941  11.777  10.543
19567W        W89382   5.226  14.622  12.958
19568W        W89383  37.542   5.816   0.860
19569W        W89384  13.608  22.035   2.751
19570W        W89385   7.884  44.410  13.423
19571W        W89386  23.491  11.313  13.053
19572W        W89387  12.658  18.708   1.304
19573W        W89388  42.499  26.955  13.809
19574W        W89389  36.533   8.699   4.215
19575W        W89390  40.841   8.233  14.347
19576W        W89391  10.206  42.913  13.512
19577W        W89392   7.237  23.032   4.206
19578W        W89393   3.883  15.155  13.499
19579W        W89394  39.411  26.534   2.737
19580W        W89395   0.799  26.516  14.892
19581W        W89396  20.630  13.648   0.968
19582W        W89397  44.803   6.299   3.693
19583W        W89398  32.605  23.601   3.269
19584W        W89399  13.679  31.513  11.876
19585W        W89400  13.194  16.168  11.470
19586W        W89401  32.413   6.813   0.382
19587W        W89402  14.284  20.735  11.906
19588W        W89403  28.064   2.730   0.424
19589W        W89404   5.305  12.192   0.396
19590W        W89405  17.102  25.093   2.780
19591W        W89406  15.682  23.591  14.497
19592W        W89407  32.557  22.253  12.490
19593W        W89408  26.073   0.947   1.920
19594W        W89409  24.087   8.749  13.458
19595W        W89410  32.396  29.078   0.891
19596W        W89411  12.170   0.357  14.353
19597W        W89412  20.642  37.343   4.127
19598W        W89413  16.268  26.207   1.817
19599W        W89414  39.044  10.649   1.273
19600W        W89415   2.895  21.680  14.413
19601W        W89416  22.237  17.766  12.875
19602W        W89417  13.311  37.433   3.747
19603W        W89418   8.371  18.639  11.468
19604W        W89419  29.538  28.131   9.944
19605W        W89420   5.205  20.712  13.332
19606W        W89421  39.023  38.825  10.576
19607W        W89422  11.212  30.430  11.902
19608W        W89423  12.688  35.880  11.509
19609W        W89424  44.332  32.585  11.961
19610W        W89425  23.547  31.131   2.354
19611W        W89426  17.663  33.096  14.420
19612W        W89427  25.219  35.409   4.294
19613W        W89428   3.949  31.632   3.791
19614W        W89429  37.500  18.242  13.056
19615W        W89430  17.587  40.860   0.396
19616W        W89431  24.598   8.869   4.697
19617W        W89432   6.809  12.337   1.409
19618W        W89433  38.489   1.374  14.472
19619W        W89434  18.182  22.162   0.888
19620W        W89435   9.749   8.755  13.823
19621W        W89436  35.453  14.648  11.918
19622W        W89437   6.394   8.298   1.364
19623W        W89438  21.209   8.395  12.848
19624W        W89439  25.984   6.290   3.830
19625W        W89440  12.725  28.056  11.600
19626W        W89441  13.257  28.465   4.230
19627W        W89442  29.435  44.808   4.229
19628W        W89443  18.076  12.249   0.949
19629W        W89444  29.013   5.276   2.223
19630W        W89445  31.428  33.118  10.931
19631W        W89446   8.349  24.616  10.418
19632W        W89447  33.877  12.259   3.672
19633W        W89448  11.773  29.601  11.556
19634W        W89449  32.007  10.815  13.011
19635W        W89450  15.589  15.742  11.105
19636W        W89451  31.569  31.036  13.052
19637W        W89452  18.075   2.381  14.411
19638W        W89453  22.561  42.460   3.858
19639W        W89454  41.427  28.529   4.170
19640W        W89455   6.261  10.857   1.407
19641W        W89456  43.294  16.712   0.856
19642W        W89457  29.163  43.388   3.226
19643W        W89458   7.237  16.192   4.742
19644W        W89459  44.474  34.922   0.380
19645W        W89460  37.914  29.015  10.543
19646W        W89461  15.128   4.881   3.155
19647W        W89462   7.383   8.385   4.803
19648W        W89463  37.945  13.322  13.958
19649W        W89464  24.012   4.421  14.912
19650W        W89465  26.959  26.678  14.968
19651W        W89466  19.110  43.942  13.390
19652W        W89467  33.513  37.424  12.067
19653W        W89468  26.136  11.181  14.892
19654W        W89469  24.035  16.167   5.256
19655W        W89470  28.571  32.886  12.438
19656W        W89471  17.091  25.116  11.941
19657W        W89472  24.083   0.827   2.781
19658W        W89473  27.645  15.811   1.907
19659W        W89474  35.537  29.483   4.772
19660W        W89475  34.008   5.771   3.296
19661W        W89476  10.193  27.468  12.400
19662W        W89477   8.879   9.667  11.491
19663W        W89478   3.304  21.205  14.031
19664W        W89479  29.513   4.355  11.986
19665W        W89480   7.269  37.922   0.255
19666W        W89481  38.330  28.936  12.031
19667W        W89482  35.085  28.017   2.856
19668W        W89483  35.879  20.766  11.446
19669W        W89484   5.903  23.595   2.801
19670W        W89485   4.723  26.605  13.541
19671W        W89486   7.827  40.376  14.999
19672W        W89487  24.132  29.109  14.355
19673W        W89488   5.375  21.613  12.034
19674W        W89489  33.426  35.001  14.828
19675W        W89490  23.189   7.304  13.013
19676W        W89491  12.686  30.588   2.301
19677W        W89492  24.152   5.278   2.865
19678W        W89493  38.927  27.198   2.279
19679W        W89494  18.052  30.119  12.071
19680W        W89495   4.733  18.283  14.452
19681W        W89496  24.083  10.878  11.018
19682W        W89497  42.875   2.805  11.925
19683W        W89498  42.906   7.904  11.098
19684W        W89499   9.779  27.040  12.887
19685W        W89500  18.581   2.733   0.846
19686W        W89501  13.215   3.722  11.032
19687W        W89502   9.877  38.499   4.152
19688W        W89503   1.973  14.804   1.914
19689W        W89504  15.199  22.076   4.297
19690W        W89505  29.116  32.594   0.274
19691W        W89506  14.339  24.506   3.669
19692W        W89507   5.853  42.937  14.396
19693W        W89508  16.257  24.681   3.661
19694W        W89509  40.439  38.526   1.904
19695W        W89510  12.157  25.559  13.311
19696W        W89511   8.771  17.614   0.266
19697W        W89512  14.702   6.288   4.349
19698W        W89513   1.238  20.082  11.917
19699W        W89514  24.190   3.358  14.889
19700W        W89515  40.834   0.287   2.265
19701W        W89516  18.582   1.376  11.517
19702W        W89517  24.714  15.802   3.706
19703W        W89518  41.848   0.791   3.657
19704W        W89519   7.214   4.796  11.056
19705W        W89520  19.054  28.503  13.820
19706W        W89521  26.599   7.666  11.010
19707W        W89522  11.266   1.930   0.798
19708W        W89523   6.695   1.463   4.216
19709W        W89524   6.224  33.591  14.846
19710W        W89525  44.989  43.513   3.647
19711W        W89526  39.811  34.115   2.292
19712W        W89527  27.158  11.166   1.294
19713W        W89528  41.393  18.758  10.559
19714W        W89529  42.919  11.670   3.316
19715W        W89530  20.045   8.760  13.407
19716W        W89531  39.981  33.912   2.803
19717W        W89532  18.054  13.272   1.854
19718W        W89533  28.985  22.066  13.362
19719W        W89534  23.232  37.398   4.606
19720W        W89535  16.709   6.843   1.830
19721W        W89536  15.226  24.041   1.733
19722W        W89537   5.716  35.104   0.414
19723W        W89538  44.891  36.854  13.002
19724W        W89539   0.802   4.285  12.489
19725W        W89540  26.038   0.865  14.824
19726W        W89541  44.969   2.358   3.840
19727W        W89542  15.708  33.900  11.408
19728W        W89543  29.427  15.742   4.746
19729W        W89544   8.377  37.375   3.727
19730W        W89545   9.713  37.871  14.006
19731W        W89546  17.271  28.937   0.391
19732W        W89547  30.011  37.567   4.660
19733W        W89548  40.513  22.566  14.864
19734W        W89549  15.644  31.129   2.222
19735W        W89550  11.743  38.359   4.137
19736W        W89551  11.227  35.039  10.409
19737W        W89552   6.766  39.840   3.800
19738W        W89553  21.177  14.634   3.203
19739W        W89554  21.157  23.212   1.694
19740W        W89555  20.526  30.641  11.053
19741W        W89556  34.059  28.161  14.022
19742W        W89557   8.817  13.185  11.051
19743W        W89558  36.446  17.658   4.200
19744W        W89559  42.002  12.767   1.432
19745W        W89560   9.290  21.590  10.592
19746W        W89561   9.693  18.069  12.855
19747W        W89562  39.994  23.079  11.869
19748W        W89563  24.515   9.649   2.705
19749W        W89564  12.278  42.967  12.419
19750W        W89565  42.496   3.283   1.735
19751W        W89566  37.989  33.502   9.992
19752W        W89567  44.866  21.573   2.719
19753W        W89568  14.692   9.278  12.486
19754W        W89569   9.346  24.596  14.828
19755W        W89570   6.834  41.512   2.859
19756W        W89571  13.768  13.618   4.812
19757W        W89572  17.618  27.631   0.781
19758W        W89573   6.797  18.558  12.033
19759W        W89574  19.676  38.906  11.448
19760W        W89575  38.825  28.503   0.794
19761W        W89576  17.260  14.253  10.019
19762W        W89577  19.169  40.390  11.890
19763W        W89578  22.719  39.531   3.668
19764W        W89579  32.549   1.454   4.686
19765W        W89580  42.881  37.885  14.871
19766W        W89581  37.493   2.252   1.286
19767W        W89582  26.120  39.974  12.827
19768W        W89583  29.488  41.892   4.272
19769W        W89584  22.209  33.099   0.889
19770W        W89585  25.136  42.898   1.366
19771W        W89586   9.758  35.087  10.637
19772W        W89587  39.944  11.836  14.405
19773W        W89588  21.040  43.273  13.997
19774W        W89589  31.908   6.797  14.885
19775W        W89590  11.661  40.799  10.601
19776W        W89591  33.440  40.475  10.933
19777W        W89592  15.280  23.128  12.485
19778W        W89593  44.870  38.386  11.003
19779W        W89594  20.050   3.828  10.429
19780W        W89595   2.387  21.090  14.941
19781W        W89596  35.370  36.385   3.682
19782W        W89597  24.533  31.018   2.324
19783W        W89598   1.911  14.247  13.511
19784W        W89599  20.570  29.087  12.976
19785W        W89600   7.696  11.695  11.460
19786W        W89601  14.590  26.610   4.258
19787W        W89602  12.768   8.738   3.752
19788W        W89603  30.628  22.710  13.402
19789W        W89604  14.295  10.301  14.965
19790W        W89605  14.173  18.226   3.847
19791W        W89606  10.831  29.428  12.493
19792W        W89607  27.577   4.943   1.899
19793W        W89608  24.643  21.209   1.791
19794W        W89609  31.581  42.466  13.889
19795W        W89610  18.166   5.385   0.804
19796W        W89611  18.760   7.273   2.381
19797W        W89612  32.413  31.067  10.502
19798W        W89613  32.478  31.560   0.376
19799W        W89614  42.904  29.455   0.893
19800W        W89615   0.354  41.367   0.449
19801W        W89616  10.763  29.570   1.863
19802W        W89617  29.439   1.421   4.214
19803W        W89618   1.458  21.052   3.370
19804W        W89619  11.771  15.188   3.705
19805W        W89620  22.083  34.963  10.979
19806W        W89621  28.592  39.953   3.850
19807W        W89622  28.436  14.317  12.496
19808W        W89623  33.447  28.945   2.711
19809W        W89624  11.320  35.010   3.742
19810W        W89625  19.559   2.880  10.464
19811W        W89626   8.835  41.915   1.216
19812W        W89627  16.287  39.815  14.012
19813W        W89628  42.471  16.645   2.256
19814W        W89629   0.746  13.709   4.218
19815W        W89630  11.802  23.071   0.342
19816W        W89631  22.721   3.295   5.275
19817W        W89632   1.482  38.878  12.342
19818W        W89633  29.961  19.269   2.330
19819W        W89634  12.123   3.355  14.909
19820W        W89635  42.333  17.139   3.212
19821W        W89636  12.698  44.332   0.901
19822W        W89637  19.241  38.906  11.875
19823W        W89638  32.967  40.915   0.832
19824W        W89639   5.234  39.005   2.302
19825W        W89640  21.669  35.401  14.310
19826W        W89641  26.575  15.284   1.436
19827W        W89642  15.810  34.613   1.695
19828W        W89643  36.513  26.491   3.318
19829W        W89644  13.299  42.789   9.955
19830W        W89645  40.405  21.250   5.093
19831W        W89646   1.832  29.614  12.558
19832W        W89647  39.351   0.409   0.456
19833W        W89648  33.591  16.716   1.859
19834W        W89649  32.548  36.443  12.869
19835W        W89650  40.466   8.161  12.860
19836W        W89651  30.592   0.329  14.024
19837W        W89652  28.441  10.817   1.344
19838W        W89653  17.747  39.450   0.760
19839W        W89654  31.604  23.592   2.689
19840W        W89655   2.383  32.611  12.547
19841W        W89656  15.199  27.548   0.447
19842W        W89657  28.050  43.961  13.801
19843W        W89658  44.831  13.340  13.341
19844W        W89659  14.681  33.414   0.416
19845W        W89660  29.013  16.622  14.965
19846W        W89661  42.010  34.053  14.798
19847W        W89662  21.648  17.210  13.832
19848W        W89663  41.820  14.154  12.385
19849W        W89664   2.312  31.573  14.967
19850W        W89665  26.468  24.040  13.347
19851W        W89666  17.090  29.630  14.961
19852W        W89667  15.143  30.105  14.372
19853W        W89668  37.513   1.431  11.092
19854W        W89669  33.546   8.368   1.703
19855W        W89670   2.751  32.908  11.049
19856W        W89671  16.712  20.678  14.505
19857W        W89672  10.352  44.441  12.996
19858W        W89673   2.397  42.298   2.343
19859W        W89674  34.059  23.201  14.407
19860W        W89675  28.669   0.772  13.940
19861W        W89676  36.407  34.105  11.590
19862W        W89677  37.361  38.522   3.181
19863W        W89678   6.403  15.730   2.894
19864W        W89679  32.490  34.393  12.533
19865W        W89680  34.035  14.763  14.919
19866W        W89681   0.414  12.222   1.876
19867W        W89682  41.470  42.914   4.198
19868W        W89683  16.672  17.252   4.260
19869W        W89684   9.751  22.731  13.864
19870W        W89685  14.756   6.280   0.335
19871W        W89686  16.233   4.245  12.895
19872W        W89687  33.507  44.830  10.917
19873W        W89688  34.418  30.015   1.734
19874W        W89689  29.633  21.089  14.849
19875W        W89690  39.043  38.420   1.217
19876W        W89691   1.894  28.112   0.935
19877W        W89692  43.811  37.431  11.480
19878W        W89693   3.739  41.294   3.633
19879W        W89694  38.897  27.555  10.627
19880W        W89695  17.173  16.625   1.330
19881W        W89696  31.043   2.840   1.306
19882W        W89697  24.993  20.028   1.401
19883W        W89698  17.746   2.919  13.495
19884W        W89699   1.284   1.766  11.068
19885W        W89700  43.366  26.665  11.007
19886W        W89701  29.590  38.407   1.330
19887W        W89702  38.476  42.968  13.859
19888W        W89703  41.503  22.650  13.351
19889W        W89704  31.019  35.882  13.420
19890W        W89705   7.895  15.598  13.479
19891W        W89706   4.820   2.453   0.265
19892W        W89707  27.641  42.024  12.556
19893W        W89708  16.610  32.565  12.577
19894W        W89709  28.060  37.427   2.711
19895W        W89710  37.892   2.366  13.529
19896W        W89711  39.328   0.361  14.001
19897W        W89712  30.609   0.745   0.964
19898W        W89713   0.272  41.032  11.519
19899W        W89714   8.810  18.562   0.927
19900W        W89715  18.189   1.236  10.510
19901W        W89716  18.072  14.669   1.725
19902W        W89717  27.958  18.092  13.916
19903W        W89718  16.585  27.546  14.288
19904W        W89719  40.408  39.028  13.823
19905W        W89720  33.067  29.561  14.904
19906W        W89721  19.558  27.546  14.494
19907W        W89722  17.696  22.601  10.982
19908W        W89723   8.874  37.366  11.927
19909W        W89724  30.590  30.036  12.556
19910W        W89725   4.805  11.345  14.929
19911W        W89726  43.765  20.067   1.810
19912W        W89727  11.828   7.195   1.350
19913W        W89728   5.327  13.281   1.754
19914W        W89729  23.702  25.169  10.518
19915W        W89730  24.641   9.679  12.834
19916W        W89731  27.680  27.447  14.320
19917W        W89732  38.910  24.116   0.396
19918W        W89733  34.370  35.872  13.498
19919W        W89734  37.510   3.343   3.217
19920W        W89735  40.548   7.282   5.666
19921W        W89736   9.845  17.698   9.488
19922W        W89737   0.838  25.133  14.894
19923W        W89738   6.692  28.172   4.194
19924W        W89739  30.072  24.484   3.372
19925W        W89740  44.279  39.052  12.009
19926W        W89741  32.443  22.231   3.172
19927W        W89742  37.010  24.529   3.789
19928W        W89743  44.909  22.015   4.697
19929W        W89744  32.907  40.967  12.364
19930W        W89745  35.561  28.539   3.294
19931W        W89746  16.582  37.865   3.273
19932W        W89747  33.607  34.440  12.005
19933W        W89748  36.076  25.573  14.347
19934W        W89749  31.993   5.364  14.838
19935W        W89750  28.949  21.667   4.655
19936W        W89751  15.271  42.834   0.259
19937W        W89752  25.476  33.090   0.367
19938W        W89753  31.036   8.885  12.387
19939W        W89754  39.519  12.616  10.888
19940W        W89755   1.854  21.516   2.292
19941W        W89756   1.765  35.099  14.295
19942W        W89757  28.602  28.587   2.848
19943W        W89758  20.259  15.179   4.119
19944W        W89759   8.320  11.798  12.359
19945W        W89760  36.039   2.438  13.399
19946W        W89761   6.216  34.448  14.316
19947W        W89762  17.070  22.631   1.833
19948W        W89763   0.980  15.245  11.537
19949W        W89764   6.375  30.027   0.959
19950W        W89765  21.701  28.979  13.365
19951W        W89766  32.890  22.230  13.881
19952W        W89767  15.179  24.681   3.250
19953W        W89768   5.921  10.288  11.059
19954W        W89769   9.286   9.736   0.291
19955W        W89770  30.139   9.792  12.059
19956W        W89771  16.076  35.852  12.989
19957W        W89772  41.863  19.664  11.500
19958W        W89773  14.121  36.869  12.842
19959W        W89774  42.459  44.338  10.530
19960W        W89775  14.632  26.147   1.805
19961W        W89776  22.683  42.931   1.711
19962W        W89777   0.823  20.649  12.910
19963W        W89778  37.532  11.751   5.134
19964W        W89779  34.110  19.576   1.365
19965W        W89780  34.923  31.003   3.331
19966W        W89781  21.023   8.303   4.173
19967W        W89782  18.132  22.712   1.930
19968W        W89783  21.204   1.743   4.312
19969W        W89784  17.788  21.039   4.707
19970W        W89785  41.920   0.365   1.420
19971W        W89786  37.832  43.455  14.509
19972W        W89787   4.875   6.195  13.868
19973W        W89788   4.701  24.992  13.062
19974W        W89789  38.854  18.687   0.379
19975W        W89790  39.531  15.719  11.859
19976W        W89791  36.023   1.911  11.922
19977W        W89792   4.249  16.164  12.506
19978W        W89793   5.273  42.503   4.820
19979W        W89794  34.472  25.676  13.964
19980W        W89795   5.711  34.458  10.431
19981W        W89796  33.563  10.300   1.323
19982W        W89797  34.501   0.434  13.869
19983W        W89798  24.717  40.048   3.808
19984W        W89799  39.476   4.885  13.365
19985W        W89800   7.351  35.082   2.398
19986W        W89801  33.604  25.987   1.437
19987W        W89802  36.955  37.537   5.301
19988W        W89803   5.751   0.355   1.786
19989W        W89804  33.432  16.136  14.422
19990W        W89805   2.361  34.058   2.900
19991W        W89806  11.694   7.172   4.175
19992W        W89807  10.640  28.550   2.333
19993W        W89808  43.483  39.924  12.846
19994W        W89809  27.995   4.300   0.358
19995W        W89810  30.037  12.696   4.342
19996W        W89811  29.143  30.593   0.281
19997W        W89812   0.961   7.176   0.936
19998W        W89813  16.283  33.448   3.357
19999W        W89814  13.273  10.185  12.972
20000W        W89815   2.338  28.110   4.161
20001W        W89816   3.864  30.485   4.722
20002W        W89817  12.761   0.264   0.387
20003W        W89818  17.262  40.373  12.094
20004W        W89819  14.798   3.715   4.274
20005W        W89820  24.539  17.232  13.876
20006W        W89821  16.592  21.155   2.199
20007W        W89822  42.294  44.287  12.072
20008W        W89823  30.415   8.365  14.841
20009W        W89824  17.703  23.584  12.899
20010W        W89825  16.778  26.684  10.405
20011W        W89826   8.160   1.238  11.121
20012W        W89827  24.658  42.015  12.956
20013W        W89828  22.732  29.966  13.834
20014W        W89829  20.228  21.113   1.919
20015W        W89830  40.399  38.907   0.253
20016W        W89831  17.751   0.349  13.011
20017W        W89832  13.642   8.397  14.834
20018W        W89833  35.857  28.532   1.311
20019W        W89834  21.532  41.499  11.896
20020W        W89835   6.234   2.769   3.811
20021W        W89836  28.972  44.311   4.203
20022W        W89837  38.365  38.023   1.329
20023W        W89838  35.469   5.894   2.178
20024W        W89839  39.866  43.435  14.340
20025W        W89840   7.709  26.608   2.783
20026W        W89841  24.560  33.900  13.401
20027W        W89842  44.803  41.486   3.187
20028W        W89843  31.907   3.747  14.429
20029W        W89844  30.619   8.719  14.893
20030W        W89845  42.974  25.574  12.054
20031W        W89846  20.120  17.687  13.984
20032W        W89847  19.585  38.858   3.358
20033W        W89848   4.721  12.145   3.380
20034W        W89849   1.880   0.446   3.844
20035W        W89850  20.741  34.063   4.780
20036W        W89851  41.950  13.271   2.755
20037W        W89852  13.709   4.239   1.773
20038W        W89853  19.662  27.071  10.484
20039W        W89854   7.678  21.198  12.963
20040W        W89855  34.003   0.789  11.494
20041W        W89856  15.314  19.141  10.536
20042W        W89857   9.679   3.722   4.665
20043W        W89858  40.898  24.152  11.993
20044W        W89859  38.325  10.304   3.763
20045W        W89860  37.403  31.967   4.676
20046W        W89861  37.941   2.944   4.795
20047W        W89862   2.245  13.811  14.859
20048W        W89863  15.816   3.779  12.371
20049W        W89864  34.038  38.342  14.510
20050W        W89865   3.794  18.595  10.935
20051W        W89866   8.663  44.294  13.040
20052W        W89867  16.285  28.516   0.847
20053W        W89868  13.691  20.768  11.100
20054W        W89869   4.417  24.511  10.471
20055W        W89870   4.857  40.888  12.862
20056W        W89871  37.387  41.898   4.788
20057W        W89872  22.218  10.785  14.460
20058W        W89873  27.034  33.471   0.366
20059W        W89874  18.265   9.797   2.353
20060W        W89875  32.452  12.352   1.769
20061W        W89876  21.034   1.928  13.004
20062W        W89877  25.210  17.088   5.225
20063W        W89878  13.746  30.435  13.949
20064W        W89879  29.094  26.614  14.304
20065W        W89880  23.508   2.861  13.404
20066W        W89881  23.130  43.887   3.328
20067W        W89882  10.853  19.196  14.996
20068W        W89883  39.475  11.765  11.422
20069W        W89884  17.766  21.600  13.886
20070W        W89885  15.645  30.041   5.225
20071W        W89886  21.253  13.619  14.973
20072W        W89887  16.115  17.246  11.561
20073W        W89888  32.453  25.576  13.943
20074W        W89889  24.598  20.540   3.672
20075W        W89890  17.281  32.961   0.370
20076W        W89891  30.001  28.475   2.217
20077W        W89892  40.511  34.098  14.969
20078W        W89893  40.799  14.743  11.091
20079W        W89894  16.212  32.416   3.316
20080W        W89895  15.752  23.135  12.864
20081W        W89896  16.671   4.700  13.529
20082W        W89897   2.965  29.016  12.560
20083W        W89898  39.458  42.798   0.343
20084W        W89899  29.921  35.422  11.015
20085W        W89900  19.094  41.820   2.812
20086W        W89901  41.388  16.292   2.665
20087W        W89902  38.546  22.173  12.861
20088W        W89903  21.200  44.860   2.886
20089W        W89904  21.552  13.635   4.782
20090W        W89905  28.002  19.071   4.128
20091W        W89906  31.485  32.983  13.443
20092W        W89907  28.603  14.098   2.276
20093W        W89908  31.983  44.288   2.386
20094W        W89909  43.452   4.371  12.972
20095W        W89910  19.722  25.477  11.970
20096W        W89911  42.413  38.019   2.258
20097W        W89912   8.219  22.088  12.376
20098W        W89913  42.832   7.314  10.475
20099W        W89914   2.755  41.299   3.861
20100W        W89915  23.508  18.649  11.909
20101W        W89916  35.092  13.153   1.880
20102W        W89917  24.034   6.289  12.392
20103W        W89918  20.150  22.577   0.342
20104W        W89919  27.609   5.921  13.500
20105W        W89920  21.029  14.213   0.343
20106W        W89921   8.804   2.413  14.452
20107W        W89922  43.370  42.975   3.688
20108W        W89923  31.131   1.841  14.999
20109W        W89924  23.017  36.513   2.393
20110W        W89925  44.273   0.973   3.753
20111W        W89926  43.490   4.341   4.684
20112W        W89927  33.386  39.050   0.959
20113W        W89928  27.032  16.639  10.420
20114W        W89929  27.150  18.623   3.208
20115W        W89930  29.497   3.916  11.977
20116W        W89931  30.967   0.380  11.457
20117W        W89932  21.132  12.128   4.304
20118W        W89933  33.911  20.596   4.636
20119W        W89934  20.558   9.348   1.403
20120W        W89935  42.366  15.671  12.476
20121W        W89936  26.149  43.912   1.865
20122W        W89937  31.419   8.209   0.406
20123W        W89938   3.757   5.439   1.801
20124W        W89939  41.895  34.100  13.451
20125W        W89940   0.863   1.259   4.170
20126W        W89941  42.462   5.278  11.524
20127W        W89942  17.170   3.388  11.581
20128W        W89943  34.005  31.063   2.300
20129W        W89944  10.736  17.169  13.917
20130W        W89945  22.712  20.063  10.154
20131W        W89946  40.829  19.661  10.433
20132W        W89947  33.551  39.424   1.415
20133W        W89948  34.998  42.893   1.738
20134W        W89949  42.896   8.866  13.940
20135W        W89950   3.795  29.502  13.384
20136W        W89951   0.393  12.731   2.701
20137W        W89952   8.235  20.661   3.701
20138W        W89953  13.605  21.152   4.179
20139W        W89954   1.348  12.362  11.957
20140W        W89955  25.517  14.667  13.351
20141W        W89956  26.019  25.157  14.392
20142W        W89957  41.945  12.855  13.004
20143W        W89958   1.445  44.802  12.056
20144W        W89959  15.615  11.226  10.603
20145W        W89960  26.636   2.371  14.837
20146W        W89961   9.807  25.511   0.949
20147W        W89962  28.534  15.688  14.394
20148W        W89963   3.253  34.532   0.251
20149W        W89964  41.522  20.233   2.212
20150W        W89965  39.847  21.653   0.270
20151W        W89966  31.644  24.106   0.399
20152W        W89967   8.380   6.676  12.070
20153W        W89968  43.908  10.743   3.381
20154W        W89969  23.212   8.286  11.878
20155W        W89970   9.761  41.378   3.821
20156W        W89971  42.950  35.019   2.687
20157W        W89972  29.471  33.958  11.490
20158W        W89973  26.493   4.901   3.320
20159W        W89974  24.683  13.681   4.747
20160W        W89975  28.117   4.744   3.803
20161W        W89976  11.751   8.225   2.788
20162W        W89977  32.550   9.692  12.069
20163W        W89978  39.869  11.129  10.436
20164W        W89979  13.741  11.314  12.969
20165W        W89980  25.567   2.273  11.973
20166W        W89981  20.541  37.952  11.563
20167W        W89982  19.731  22.508  10.576
20168W        W89983  21.089  23.200  11.586
20169W        W89984  20.165  24.648   3.732
20170W        W89985   8.186  21.746   1.823
20171W        W89986  44.339  15.739  10.925
20172W        W89987  36.023  19.614   4.220
20173W        W89988  37.494   4.855   4.611
20174W        W89989  17.214  38.047   2.877
20175W        W89990   7.801   6.242  13.535
20176W        W89991  34.520   5.307  11.611
20177W        W89992  44.829  43.356  13.476
20178W        W89993  10.661   1.824   2.829
20179W        W89994   4.764  12.147   4.230
20180W        W89995  26.504  41.517  13.944
20181W        W89996  23.704  34.569  10.578
20182W        W89997  42.487  30.127  12.392
20183W        W89998  31.561  30.913   1.378
20184W        W89999  28.571   1.922  13.940
20185W        W90000  36.957  15.603   2.792
20186W        W90001  41.015  39.324   0.253
20187W        W90002   7.680  25.206   9.985
20188W        W90003   0.327  14.779   1.854
20189W        W90004  18.621  22.021  11.490
20190W        W90005  34.939   5.762  14.793
20191W        W90006   1.367  10.860   2.839
20192W        W90007  17.613  25.117   0.437
20193W        W90008  31.996  18.673  10.927
20194W        W90009  12.277  34.936   3.237
20195W        W90010  24.214   4.363  11.455
20196W        W90011  30.910  10.877   4.289
20197W        W90012  25.102  11.650   3.803
20198W        W90013  22.065   6.796   0.954
20199W        W90014  23.083  36.464  14.976
20200W        W90015  40.481  42.952   2.337
20201W        W90016  43.846  13.732   3.304
20202W        W90017  33.082   5.827  11.465
20203W        W90018  14.317  19.189   2.874
20204W        W90019  35.370  18.631   1.379
20205W        W90020  30.063   1.434  13.443
20206W        W90021  20.651  38.420   0.383
20207W        W90022  22.025  24.485   3.256
20208W        W90023  44.871   6.743  14.759
20209W        W90024  13.313  13.213  10.894
20210W        W90025  34.081  12.262  14.491
20211W        W90026  21.557  39.809   1.714
20212W        W90027  43.325  39.356   1.708
20213W        W90028  33.414  10.312   4.753
20214W        W90029  29.060  26.005   1.823
20215W        W90030  33.021  15.241   3.306
20216W        W90031  35.866  17.635   4.660
20217W        W90032  44.771  42.947   3.672
20218W        W90033  32.089  10.761   3.850
20219W        W90034  28.115   3.292   1.740
20220W        W90035  37.927   4.888  12.551
20221W        W90036  32.550   8.896  14.301
20222W        W90037  40.003   1.866  14.761
20223W        W90038  22.202  43.402  14.413
20224W        W90039  11.325  40.880  11.506
20225W        W90040  22.564   4.912   0.844
20226W        W90041  40.520   7.354   2.784
20227W        W90042  31.505  30.487  11.431
20228W        W90043  15.659  35.363  13.811
20229W        W90044   5.703  43.888  11.414
20230W        W90045   9.248  31.627   3.231
20231W        W90046   8.788  42.456   3.283
20232W        W90047   1.757  28.168  14.858
20233W        W90048  15.782  43.983   0.771
20234W        W90049   6.341  35.881  12.548
20235W        W90050  28.046  35.019   0.855
20236W        W90051  41.816  38.380   1.226
20237W        W90052   1.961  25.544   4.823
20238W        W90053  34.468  29.083  14.019
20239W        W90054   8.268  18.614  11.945
20240W        W90055  38.982  15.645   4.827
20241W        W90056   0.937   0.810   3.861
20242W        W90057  28.045  29.082  12.367
20243W        W90058  23.229  32.086   3.635
20244W        W90059   1.307  15.688  12.354
20245W        W90060  35.041  35.420  10.596
20246W        W90061  26.703  21.075  11.518
20247W        W90062  29.156  14.225  13.895
20248W        W90063  17.117  36.385  13.379
20249W        W90064  17.091   1.769   2.776
20250W        W90065  12.143  37.463  12.424
20251W        W90066  16.765  14.238  14.017
20252W        W90067  26.532  15.312   1.810
20253W        W90068   3.242   9.160   1.741
20254W        W90069   4.884  21.652  11.043
20255W        W90070  43.854  21.720   2.734
20256W        W90071  25.594  35.080   0.733
20257W        W90072  37.568  23.586  13.377
20258W        W90073   0.255   2.233  12.536
20259W        W90074   8.680  35.911   0.761
20260W        W90075  41.796  10.371   1.385
20261W        W90076   6.200  15.229   0.315
20262W        W90077  28.124   7.293  14.393
20263W        W90078  43.934  38.073  12.360
20264W        W90079  17.301  36.080   0.444
20265W        W90080  42.438  20.190   0.855
20266W        W90081  12.143  43.858   2.395
20267W        W90082  26.520  31.648   2.397
20268W        W90083  17.626  10.339  12.557
20269W        W90084  10.193  29.493   4.708
20270W        W90085  41.799  37.885   2.718
20271W        W90086  26.475  17.107  14.311
20272W        W90087  41.016  41.360  12.069
20273W        W90088  37.455  19.565   3.642
20274W        W90089  18.565  35.971   0.817
20275W        W90090  21.618  36.886  14.472
20276W        W90091   5.687  10.656   4.608
20277W        W90092  33.944  29.923  13.813
20278W        W90093  11.792  26.028  14.881
20279W        W90094  19.060   4.308  14.469
20280W        W90095   7.233   7.410   3.679
20281W        W90096  23.506  19.124   1.316
20282W        W90097  28.973  22.631  14.947
20283W        W90098  22.030  43.860  13.407
20284W        W90099  19.687  27.086   4.200
20285W        W90100  34.905  43.339  10.565
20286W        W90101   7.305   2.356   3.205
20287W        W90102  29.544  35.037  14.477
20288W        W90103   9.662   3.264   4.238
20289W        W90104  38.487  12.292   1.864
20290W        W90105  29.575  31.582  12.434
20291W        W90106  30.469  31.927   4.827
20292W        W90107   2.774   1.326  13.384
20293W        W90108  39.432  24.708  11.554
20294W        W90109  11.301   6.676  11.598
20295W        W90110  24.619  42.281   1.418
20296W        W90111   4.849  42.931   3.798
20297W        W90112   0.414  36.963   4.331
20298W        W90113  32.009  42.989   3.799
20299W        W90114  10.310  44.355  11.544
20300W        W90115  18.695  22.084   4.768
20301W        W90116   4.784  32.609  12.521
20302W        W90117  18.767  17.278   2.309
20303W        W90118  40.979  15.644  12.960
20304W        W90119  12.629  38.907   1.922
20305W        W90120  17.728  25.009  13.904
20306W        W90121  23.186  34.394   3.246
20307W        W90122  42.502  25.551  14.409
20308W        W90123  41.392  25.515  11.089
20309W        W90124  29.547  33.447   3.706
20310W        W90125   9.790   3.219  13.391
20311W        W90126   4.305  24.696  13.053
20312W        W90127  37.363  39.349   2.843
20313W        W90128  25.995  39.527   1.312
20314W        W90129  21.666  11.816   0.257
20315W        W90130  31.402  17.251   1.865
20316W        W90131   5.873   3.432   4.781
20317W        W90132  19.750   8.769   0.927
20318W        W90133  38.417  35.494   1.891
20319W        W90134   9.395  17.734   1.806
20320W        W90135  12.279   5.284   0.356
20321W        W90136  20.224  36.086   1.872
20322W        W90137  24.029  24.629   1.230
20323W        W90138  30.526   1.842   0.331
20324W        W90139  21.108  27.986  10.950
20325W        W90140  28.537  43.993  11.012
20326W        W90141  30.989  35.935  12.885
20327W        W90142  38.974  44.291  10.973
20328W        W90143   6.806  31.565  12.416
20329W        W90144  10.372  12.750  11.468
20330W        W90145  28.035   6.897   2.715
20331W        W90146  12.757   3.822   4.801
20332W        W90147  35.566   4.922  11.058
20333W        W90148  26.156  27.489  14.850
20334W        W90149  34.490  28.655   0.769
20335W        W90150  36.534  18.610  13.365
20336W        W90151   2.749  41.990  13.050
20337W        W90152  43.433  12.611  10.435
20338W        W90153  28.974   8.297  13.937
20339W        W90154  39.954   5.730  14.002
20340W        W90155  24.635  27.605   0.831
20341W        W90156  42.395  36.959   4.202
20342W        W90157   8.895  40.414  11.082
20343W        W90158  31.502  43.848   0.946
20344W        W90159   8.767  33.433  11.543
20345W        W90160  13.243  37.931  14.375
20346W        W90161  19.219  28.623   1.822
20347W        W90162   5.291   5.857   2.793
20348W        W90163   2.727  35.088   1.755
20349W        W90164  20.243  23.559   0.290
20350W        W90165  42.799  39.329  11.922
20351W        W90166  40.362   6.359  10.456
20352W        W90167  32.444   0.879  13.063
20353W        W90168  41.997  40.952  11.989
20354W        W90169  29.141  28.477   0.765
20355W        W90170   0.416  42.409  12.014
20356W        W90171  40.881  14.792   2.273
20357W        W90172  27.669  35.053   1.337
20358W        W90173  16.204  35.439  13.440
20359W        W90174  12.180  10.665  11.964
20360W        W90175   9.729  16.769   5.766
20361W        W90176  20.567  33.487   0.946
20362W        W90177  34.563  12.256  10.443
20363W        W90178  38.357  22.592  14.416
20364W        W90179   2.896  21.592  12.025
20365W        W90180  20.712  11.337   4.817
20366W        W90181  29.042  41.491   4.162
20367W        W90182   4.815  32.040  10.066
20368W        W90183  39.975   0.470  14.818
20369W        W90184   0.858  36.387   0.891
20370W        W90185  13.789   6.235   3.633
20371W        W90186   0.801  17.557  12.846
20372W        W90187  20.222  31.997  12.370
20373W        W90188  28.634  14.110  11.007
20374W        W90189   2.360   5.274  13.345
20375W        W90190  42.486  31.647   3.725
20376W        W90191   2.432  17.622  12.061
20377W        W90192   2.309  13.239  11.015
20378W        W90193  26.181  15.148   2.761
20379W        W90194   8.847   9.372  10.557
20380W        W90195  42.897  37.034   3.331
20381W        W90196  31.589  20.528  10.547
20382W        W90197  42.469  11.169  12.065
20383W        W90198  21.529   0.833   5.172
20384W        W90199  19.067  34.545   3.156
20385W        W90200  23.098  42.800   1.216
20386W        W90201  25.208   9.867  11.022
20387W        W90202  22.031  40.409   0.964
20388W        W90203  33.043  17.695  13.964
20389W        W90204  39.983  31.412  14.888
20390W        W90205  42.362  15.733   0.759
20391W        W90206  33.055  14.686   1.852
20392W        W90207  23.694   0.424  10.530
20393W        W90208  17.565  30.909  13.802
20394W        W90209  15.652  39.020  13.463
20395W        W90210  25.522  35.914   0.936
20396W        W90211  27.651   6.758  12.442
20397W        W90212   2.919  27.477  14.306
20398W        W90213  34.384  13.801  10.558
20399W        W90214   0.461  29.446  14.307
20400W        W90215   7.761  29.113  12.983
20401W        W90216  13.744   2.861   4.135
20402W        W90217  10.683  10.704   4.228
20403W        W90218  28.997  28.500  11.010
20404W        W90219  19.113  28.968   2.359
20405W        W90220  31.983  26.582   1.340
20406W        W90221  35.420  32.091  14.020
20407W        W90222  23.051  31.474   3.864
20408W        W90223  37.481  12.348   0.376
20409W        W90224  35.002  28.641  13.048
20410W        W90225   7.397   1.411  14.013
20411W        W90226   5.210  20.154   4.224
20412W        W90227  40.958   5.698  11.012
20413W        W90228   0.902   2.769   4.172
20414W        W90229   1.775   9.235  12.340
20415W        W90230   7.701  37.416   0.483
20416W        W90231  34.609   8.388   1.721
20417W        W90232   0.871  37.980  13.031
20418W        W90233  23.537  10.198  11.959
20419W        W90234  18.100  42.364  10.554
20420W        W90235   9.383  29.108   3.155
20421W        W90236  43.273   2.300  12.525
20422W        W90237  27.458  31.120  11.980
20423W        W90238   2.841  21.223   1.361
20424W        W90239  26.469  15.296  11.557
20425W        W90240  16.262  35.461  11.471
20426W        W90241  25.120   0.485   0.373
20427W        W90242  41.801  15.224  13.393
20428W        W90243  36.929   0.372  11.930
20429W        W90244   6.327  18.067  10.944
20430W        W90245  10.653   1.404   0.777
20431W        W90246  17.061  14.611  12.836
20432W        W90247   2.290  33.952   1.742
20433W        W90248  19.185  41.884   2.246
20434W        W90249  39.406  41.960  14.493
20435W        W90250   9.808  23.060  11.948
20436W        W90251  18.284  19.643  11.111
20437W        W90252   9.251  21.546  11.511
20438W        W90253  35.529   0.941  11.092
20439W        W90254  16.660  43.452  11.388
20440W        W90255  24.123  38.970   4.745
20441W        W90256   3.430  27.602  14.431
20442W        W90257  36.091  17.254  10.568
20443W        W90258  27.131   0.492   1.728
20444W        W90259  10.305  36.374   0.770
20445W        W90260  24.209  31.930   3.176
20446W        W90261  25.135  16.737   2.280
20447W        W90262  11.270  40.992  13.838
20448W        W90263  11.808  36.971  13.414
20449W        W90264  34.902  37.538   5.256
20450W        W90265  38.919   3.458   3.817
20451W        W90266  13.806  19.547  11.465
20452W        W90267  14.195  13.159   2.240
20453W        W90268  31.940  26.680   1.919
20454W        W90269  17.117   6.692   4.299
20455W        W90270  32.061  41.501   2.249
20456W        W90271   0.802  35.376  10.615
20457W        W90272   9.766   5.772  10.929
20458W        W90273  19.704   0.336  12.936
20459W        W90274  25.589  41.898   1.376
20460W        W90275   1.965  36.367  10.996
20461W        W90276   6.799  20.756   0.875
20462W        W90277  32.420  20.540   2.355
20463W        W90278  13.686  18.715  12.997
20464W        W90279  28.119  36.063   4.295
20465W        W90280  38.530  44.938  12.848
20466W        W90281  26.977  27.595   4.167
20467W        W90282   2.296  36.546  12.548
20468W        W90283   8.707  38.043   0.456
20469W        W90284  35.940  30.999   4.657
20470W        W90285  24.590  24.001  10.644
20471W        W90286  23.613  34.987   2.687
20472W        W90287   2.241  18.062   1.770
20473W        W90288  14.730  15.761  12.483
20474W        W90289  17.785  15.167  12.963
20475W        W90290  39.056  42.833   3.297
20476W        W90291  41.834  26.598   1.895
20477W        W90292  26.179  29.009  11.918
20478W        W90293   1.312  19.277   3.667
20479W        W90294   9.777  37.931   0.364
20480W        W90295  38.930  24.555  12.550
20481W        W90296  17.702  27.968   1.402
20482W        W90297  15.659  41.022   3.776
20483W        W90298  15.731  39.061   0.812
20484W        W90299  29.981  16.754   4.326
20485W        W90300   0.776  10.683  12.500
20486W        W90301  36.955  43.474   4.699
20487W        W90302   7.882  16.805  13.877
20488W        W90303  29.989  12.691  13.423
20489W        W90304   0.866  44.263   3.180
20490W        W90305  43.947  12.332   4.242
20491W        W90306  22.741  23.540  11.472
20492W        W90307  28.560  11.692   0.942
20493W        W90308  25.154  41.908   5.104
20494W        W90309  16.811  30.931  10.492
20495W        W90310  13.691  23.013  14.028
20496W        W90311  31.059  43.296  13.957
20497W        W90312  36.556  19.567  10.635
20498W        W90313  36.457  15.583  12.554
20499W        W90314  40.496   8.375  11.022
20500W        W90315  29.561  43.377   4.278
20501W        W90316   4.266  10.201   2.383
20502W        W90317  15.323   1.481   0.759
20503W        W90318  18.059  25.017  11.384
20504W        W90319  16.261  43.275   2.900
20505W        W90320  35.530   1.927   0.864
20506W        W90321  14.166  10.785  11.462
20507W        W90322   3.793  14.094   3.667
20508W        W90323  33.039   4.437   3.870
20509W        W90324   3.744   3.453  13.865
20510W        W90325  10.371  14.720   3.709
20511W        W90326  14.278  23.046  12.016
20512W        W90327  32.105  31.477   1.407
20513W        W90328  11.136  29.481  13.385
20514W        W90329  24.551  43.784   1.276
20515W        W90330  19.273  24.722   3.173
20516W        W90331  30.065  24.651  13.391
20517W        W90332  23.026   8.731  13.978
20518W        W90333  41.029  42.399   1.838
20519W        W90334  17.627  34.453  11.122
20520W        W90335  20.526  25.118   0.443
20521W        W90336  20.214  26.674  12.394
20522W        W90337  34.916  33.421  10.125
20523W        W90338  16.149  29.142   3.383
20524W        W90339  30.585  24.137  10.423
20525W        W90340   7.776  30.452   5.177
20526W        W90341   3.774  34.529   2.343
20527W        W90342  39.453   2.293  12.422
20528W        W90343  10.651   2.232  10.465
20529W        W90344  30.076  26.635  13.016
20530W        W90345  36.516  26.167  14.480
20531W        W90346  37.502  13.771  10.969
20532W        W90347  41.969  33.951   4.713
20533W        W90348   4.729  24.562   4.180
20534W        W90349  10.157   7.803   1.776
20535W        W90350   2.899  19.644  12.085
20536W        W90351  43.922  13.115   0.850
20537W        W90352   1.362  19.228  12.078
20538W        W90353  29.544   0.802  11.599
20539W        W90354   3.901  29.984  14.370
20540W        W90355  12.644  37.981   1.870
20541W        W90356  31.468  30.617   1.391
20542W        W90357  37.360  29.559   1.237
20543W        W90358  14.795  35.481   0.868
20544W        W90359  41.857  15.626   1.346
20545W        W90360  16.702  14.221   1.866
20546W        W90361  44.434  15.792   4.278
20547W        W90362  44.861  41.378   0.899
20548W        W90363   0.839  31.514   1.440
20549W        W90364   4.450   2.895  14.900
20550W        W90365   4.815  17.124   0.862
20551W        W90366  34.976  32.416  14.445
20552W        W90367   6.336  21.171   1.237
20553W        W90368  27.077  27.058   4.207
20554W        W90369  15.156  38.845   0.309
20555W        W90370  14.246  15.736   4.805
20556W        W90371  42.938   4.778   2.874
20557W        W90372  34.485  36.845   4.289
20558W        W90373  44.286   6.294   3.302
20559W        W90374   3.871  43.433   0.396
20560W        W90375  33.494  35.593   0.799
20561W        W90376  33.452  12.650   4.761
20562W        W90377  10.740  18.087   2.262
20563W        W90378  30.073   7.807   4.196
20564W        W90379  19.566  36.031  14.030
20565W        W90380  36.968  30.646  11.984
20566W        W90381  36.466   3.937   3.638
20567W        W90382  26.558   4.805   0.961
20568W        W90383  38.953  38.422   0.955
20569W        W90384   2.364  21.200   3.227
20570W        W90385  23.631  38.848   1.873
20571W        W90386  16.590   9.652  12.985
20572W        W90387  39.363  44.491   2.189
20573W        W90388  44.927  15.148   2.849
20574W        W90389   0.910  38.409   4.335
20575W        W90390  18.666  43.343   2.712
20576W        W90391  13.840  21.212  13.470
20577W        W90392  40.907  28.455  12.017
20578W        W90393   8.718   5.802   0.286
20579W        W90394  37.955  30.087   0.316
20580W        W90395   4.738  25.654  14.362
20581W        W90396  42.282  42.010  13.510
20582W        W90397  23.998  27.479  14.954
20583W        W90398  21.533  20.160   1.864
20584W        W90399   3.239  44.266  13.020
20585W        W90400  36.911   9.149  12.020
20586W        W90401   6.404  37.379  11.906
20587W        W90402  28.067   8.712  11.557
20588W        W90403  15.329  38.847   4.159
20589W        W90404  24.220  14.752   3.863
20590W        W90405   8.799  21.039   0.759
20591W        W90406  42.331  11.799  12.832
20592W        W90407  15.156   1.459  12.005
20593W        W90408  15.652  35.045   1.853
20594W        W90409  40.824  37.923  13.846
20595W        W90410  18.186  30.584  13.830
20596W        W90411  38.026  43.769   2.768
20597W        W90412  12.842  16.314   0.753
20598W        W90413   7.906  24.117  12.548
20599W        W90414  36.878  37.884   2.216
20600W        W90415  15.289  23.593  14.374
20601W        W90416  27.527  12.195  13.463
20602W        W90417  33.924  28.673   2.694
20603W        W90418  43.504  14.732   0.451
20604W        W90419   9.873  17.186   2.262
20605W        W90420  13.283  24.555   2.207
20606W        W90421   2.320   9.171   4.294
20607W        W90422   5.332  28.090  12.514
20608W        W90423  37.001  29.504   4.660
20609W        W90424  19.623  25.182  11.034
20610W        W90425   4.822  34.056  14.018
20611W        W90426  25.610   1.948  10.639
20612W        W90427  38.069  21.174  10.148
20613W        W90428  40.323  14.754  12.524
20614W        W90429  18.193   3.395   0.243
20615W        W90430  21.198  16.225  13.451
20616W        W90431   1.740  20.074  12.929
20617W        W90432  28.435  30.148  12.433
20618W        W90433   5.370  21.155   0.768
20619W        W90434  28.500  18.080  11.897
20620W        W90435  38.874  20.079   0.399
20621W        W90436  40.363   0.277  13.533
20622W        W90437   1.264  22.544   2.728
20623W        W90438  39.932  22.118  12.870
20624W        W90439  31.089  14.294  12.475
20625W        W90440  42.995  44.286   0.948
20626W        W90441  14.748  10.156  12.968
20627W        W90442  28.979   9.798  14.380
20628W        W90443  18.235   4.917   4.150
20629W        W90444  20.139  41.992  13.801
20630W        W90445   6.311  34.976   0.299
20631W        W90446  17.151  32.095   0.939
20632W        W90447  15.300   4.355  12.473
20633W        W90448  41.864  34.910  13.961
20634W        W90449  44.350   8.886   1.283
20635W        W90450  24.196  35.380  13.049
20636W        W90451   5.279   3.270   0.866
20637W        W90452  29.055  24.516  14.973
20638W        W90453  44.354  33.924  14.829
20639W        W90454  13.121  13.656  10.956
20640W        W90455  12.297  30.640   2.339
20641W        W90456  42.411   8.170  13.854
20642W        W90457  28.101  32.950   1.833
20643W        W90458  14.151  20.212  14.849
20644W        W90459  14.140  10.157   0.919
20645W        W90460  37.379   4.229  12.416
20646W        W90461  33.893   8.756   2.191
20647W        W90462  32.920  17.587   2.715
20648W        W90463  40.454  30.447   3.297
20649W        W90464  41.849  12.282   1.306
20650W        W90465   1.895   2.346   0.730
20651W        W90466  31.019  12.727   0.434
20652W        W90467   6.310   2.831  10.408
20653W        W90468  31.623  35.394  14.314
20654W        W90469  10.794  19.628   2.230
20655W        W90470  23.081  21.127  14.323
20656W        W90471  18.221  24.996   4.659
20657W        W90472  11.688  27.552  12.942
20658W        W90473  38.510  21.613   1.779
20659W        W90474  24.587  19.122  14.872
20660W        W90475   2.236   5.385   3.344
20661W        W90476  21.555  13.159  13.325
20662W        W90477  32.908   3.349  11.957
20663W        W90478  13.111  21.640  14.891
20664W        W90479  25.512  29.077   1.918
20665W        W90480  14.691  28.977  14.895
20666W        W90481  24.147   1.793  10.571
20667W        W90482  31.936   4.879  12.019
20668W        W90483  23.022  40.317   1.252
20669W        W90484   0.888  21.739  10.509
20670W        W90485  39.875  23.595  11.962
20671W        W90486  13.153  32.036  13.386
20672W        W90487  28.104  20.074  10.619
20673W        W90488  20.535   1.751  11.968
20674W        W90489  39.828  12.131   3.240
20675W        W90490  17.173  34.027  11.591
20676W        W90491  21.178  41.355  11.090
20677W        W90492   8.886  10.244  10.940
20678W        W90493  40.387  24.116   0.251
20679W        W90494  33.564  24.568   3.376
20680W        W90495  24.530  10.340  14.455
20681W        W90496  35.393   1.463   3.322
20682W        W90497  28.002  24.102   5.124
20683W        W90498  37.876   7.852   1.850
20684W        W90499   0.362  27.107   2.871
20685W        W90500  22.714   4.735   0.273
20686W        W90501   4.377   5.419   1.815
20687W        W90502  14.811  31.543   2.682
20688W        W90503   8.864  28.010  13.470
20689W        W90504   9.774  41.920   0.856
20690W        W90505  13.830   9.842   4.821
20691W        W90506  41.827  32.963   3.253
20692W        W90507  20.068  31.987   1.754
20693W        W90508  15.204   6.190   3.652
20694W        W90509  13.208   5.863   3.146
20695W        W90510  40.816   2.276   2.822
20696W        W90511  31.573  29.643   0.771
20697W        W90512   1.872  24.997  11.919
20698W        W90513  12.634  39.465  14.497
20699W        W90514  16.141  21.720   3.755
20700W        W90515  13.755  14.154  14.767
20701W        W90516  37.896  31.576  12.939
20702W        W90517   4.770  11.320   0.894
20703W        W90518  13.622  26.085   0.381
20704W        W90519  29.622   8.846   0.935
20705W        W90520  40.436  18.583  12.516
20706W        W90521   3.933   7.372  13.818
20707W        W90522  37.576  17.689  14.332
20708W        W90523  14.712  24.672   2.788
20709W        W90524   7.219  10.753  13.387
20710W        W90525  11.852   2.944   4.167
20711W        W90526  34.608   2.873  14.307
20712W        W90527  20.158  44.448   1.248
20713W        W90528   4.367  36.021   0.337
20714W        W90529   6.918  38.008   0.792
20715W        W90530   1.298  10.873  12.000
20716W        W90531   1.903  23.601  12.364
20717W        W90532  30.573  44.432   2.773
20718W        W90533  38.979  43.507   3.339
20719W        W90534  11.648  31.907   4.135
20720W        W90535  28.105   0.254   1.278
20721W        W90536  41.480  18.679  10.914
20722W        W90537  22.161  31.915  11.547
20723W        W90538  38.391  24.484   0.784
20724W        W90539  31.116   0.937   0.803
20725W        W90540  31.008  40.431   4.193
20726W        W90541   8.736  30.488  13.418
20727W        W90542  34.949  23.547   2.225
20728W        W90543  28.130   9.646  13.027
20729W        W90544  43.886  26.046  13.981
20730W        W90545  29.472  20.528   1.764
20731W        W90546  15.745  28.989   3.811
20732W        W90547  43.454  13.336  11.547
20733W        W90548  22.726   3.337   1.884
20734W        W90549  18.190  13.216  11.858
20735W        W90550   4.286  34.912   3.239
20736W        W90551  30.914  30.147  14.336
20737W        W90552  12.355  18.138   2.790
20738W        W90553  14.753  10.709   0.374
20739W        W90554  44.263  13.693  12.026
20740W        W90555  39.813  42.310   1.754
20741W        W90556  16.609  22.224   2.253
20742W        W90557   9.225  23.655   1.899
20743W        W90558  38.513  25.038   1.702
20744W        W90559  27.668  14.142   1.433
20745W        W90560  36.928  20.175  13.506
20746W        W90561  18.116  43.986   0.370
20747W        W90562   5.837   6.684   2.766
20748W        W90563   2.283  16.101   1.784
20749W        W90564   1.379  10.725  14.469
20750W        W90565   0.277   7.403   0.733
20751W        W90566   0.486   2.331  13.793
20752W        W90567  19.588  17.218   0.945
20753W        W90568  38.372  28.569  11.956
20754W        W90569  34.934   2.959   1.729
20755W        W90570  29.448  38.868   0.963
20756W        W90571  44.495  12.768   1.827
20757W        W90572  11.201  30.006  12.515
20758W        W90573   2.834  22.130  11.947
20759W        W90574  24.719  31.010   0.395
20760W        W90575   5.917  12.264   0.830
20761W        W90576  26.532  38.433   0.266
20762W        W90577   7.243  44.938   1.362
20763W        W90578  40.896   5.822  14.020
20764W        W90579   2.833  29.111   0.879
20765W        W90580   8.659  15.711  12.571
20766W        W90581   7.318  24.008  11.051
20767W        W90582  33.492  41.902   1.846
20768W        W90583  29.665  22.549   3.843
20769W        W90584   6.353  13.333  14.278
20770W        W90585  33.520  12.634  12.084
20771W        W90586  34.028   9.770  11.875
20772W        W90587  28.665  38.520  14.417
20773W        W90588  29.647  40.409  13.850
20774W        W90589  35.934  23.021  11.998
20775W        W90590  39.358   6.781   4.606
20776W        W90591  15.227  40.880  13.327
20777W        W90592  23.569  40.815  14.379
20778W        W90593   9.889   8.724   4.320
20779W        W90594  11.844  20.260   3.319
20780W        W90595  26.612   2.781  11.556
20781W        W90596  18.590  19.634   2.415
20782W        W90597  24.053  32.603   3.375
20783W        W90598   2.799  27.535   0.793
20784W        W90599  16.786   1.378  12.366
20785W        W90600  14.666  30.486   4.628
20786W        W90601  44.804  38.448   1.910
20787W        W90602  37.864  12.813  11.941
20788W        W90603  23.634  32.618   0.242
20789W        W90604   7.858  10.660   0.369
20790W        W90605  22.244  23.704   0.432
20791W        W90606  38.466  17.276   1.347
20792W        W90607  19.193  21.598   2.398
20793W        W90608  15.757  41.807   3.703
20794W        W90609   1.482  24.045   4.330
20795W        W90610  12.778  25.981   4.822
20796W        W90611  10.715  16.098  14.951
20797W        W90612  40.428  15.716   0.433
20798W        W90613   3.881   5.889  12.044
20799W        W90614  17.282  26.467  11.421
20800W        W90615  42.775   7.680   4.307
20801W        W90616  10.663  13.243  13.462
20802W        W90617   9.301  18.100   4.194
20803W        W90618  40.816  29.667   1.912
20804W        W90619   4.415  35.925   1.895
20805W        W90620  17.797  40.986   3.334
20806W        W90621  34.443   5.838   0.476
20807W        W90622  23.696  40.450   5.224
20808W        W90623  29.495  21.672  14.283
20809W        W90624   1.975  18.260  12.469
20810W        W90625  22.568  16.617  10.480
20811W        W90626  15.712   8.809  11.026
20812W        W90627  42.351   6.201  12.088
20813W        W90628  44.337  18.268  13.871
20814W        W90629  23.184  41.030   0.882
20815W        W90630  24.640  22.066   4.725
20816W        W90631  29.623  13.201   3.750
20817W        W90632  14.754   2.853   1.895
20818W        W90633  17.253   5.787   2.232
20819W        W90634   5.747  25.573   4.751
20820W        W90635  19.620  24.081  13.825
20821W        W90636  40.987  11.200   3.654
20822W        W90637   9.206  34.465   4.786
20823W        W90638  23.083  16.296  11.480
20824W        W90639  34.079   2.755   1.343
20825W        W90640  15.262   4.373  11.894
20826W        W90641  35.495  26.621  13.881
20827W        W90642   2.373  11.710  12.027
20828W        W90643  29.453  40.022   3.804
20829W        W90644  18.289  26.488   1.760
20830W        W90645  37.362  32.013   0.363
20831W        W90646  16.688  43.944  12.523
20832W        W90647   8.698  34.421   3.685
20833W        W90648  13.834  22.223   4.783
20834W        W90649  43.493  19.692  13.807
20835W        W90650   0.475  42.809  10.490
20836W        W90651  15.665   6.829  13.441
20837W        W90652  24.607   4.830  10.481
20838W        W90653  22.996  44.990   0.874
20839W        W90654   3.823  24.498   2.396
20840W        W90655  38.451  23.497  13.353
20841W        W90656  18.706   9.314   2.794
20842W        W90657  23.572   4.826   0.847
20843W        W90658  19.690   2.361  12.883
20844W        W90659   4.875  29.998  12.407
20845W        W90660  22.564  27.983   1.893
20846W        W90661  16.786   3.427  11.068
20847W        W90662  28.063  15.153  10.641
20848W        W90663  18.614  36.930   3.828
20849W        W90664  25.079  32.521  13.891
20850W        W90665   6.238  34.949  10.575
20851W        W90666  41.466   0.885   5.228
20852W        W90667  32.612  31.056  11.530
20853W        W90668  32.091  40.343   2.739
20854W        W90669  39.524  38.857   2.301
20855W        W90670  35.935  43.422  11.856
20856W        W90671  13.638  24.487   0.329
20857W        W90672   3.861  30.924  13.835
20858W        W90673  14.813  19.779   4.829
20859W        W90674  18.613  39.939  13.514
20860W        W90675  28.669  19.687  14.785
20861W        W90676  37.386  11.160   0.942
20862W        W90677  38.441  41.453   2.841
20863W        W90678  15.785  42.909   1.710
20864W        W90679  36.847  17.205   4.260
20865W        W90680  17.626  18.297   1.820
20866W        W90681  10.865   4.289   3.640
20867W        W90682  13.742  23.572  11.548
20868W        W90683  25.203  28.173   2.252
20869W        W90684   4.376   4.807   2.225
20870W        W90685   7.195  25.055   0.845
20871W        W90686   3.408  30.568   4.135
20872W        W90687  31.423  10.715   4.645
20873W        W90688  10.747  13.732  13.866
20874W        W90689   7.391  43.959  12.081
20875W        W90690  12.750  22.621   3.767
20876W        W90691  32.555  16.270  11.476
20877W        W90692  11.158  28.022   0.313
20878W        W90693  24.631  44.005  13.948
20879W        W90694  44.927  32.480  13.446
20880W        W90695  36.024   4.722  14.348
20881W        W90696  31.550  29.921  10.639
20882W        W90697  11.304  31.048   2.677
20883W        W90698  30.977  14.138  12.956
20884W        W90699  14.753  39.372   4.609
20885W        W90700  27.507  12.283   0.402
20886W        W90701  34.464  32.067  14.886
20887W        W90702  38.478   3.717   1.756
20888W        W90703  28.588  27.556  11.995
20889W        W90704  18.182  12.246   3.819
20890W        W90705   4.273  38.002  11.020
20891W        W90706  33.118  16.131  13.436
20892W        W90707  32.937  22.201  13.014
20893W        W90708  38.849   1.799   3.776
20894W        W90709  31.913   2.436   5.144
20895W        W90710  36.496  34.074   5.312
20896W        W90711  33.556  40.377   5.115
20897W        W90712  40.548  26.190   3.837
20898W        W90713   9.268  42.917  10.098
20899W        W90714  32.462   2.822   3.193
20900W        W90715  40.830  31.484   3.326
20901W        W90716   1.914  17.289  12.381
20902W        W90717  38.464   9.225  12.431
20903W        W90718  15.291  40.382  12.866
20904W        W90719  43.905  30.429   4.300
20905W        W90720  27.942  42.015   1.849
20906W        W90721   9.293   3.809   0.272
20907W        W90722  17.658  36.518  10.477
20908W        W90723  42.910  17.782   4.297
20909W        W90724   0.958   2.386   2.789
20910W        W90725  10.313   0.845  12.003
20911W        W90726   5.930   7.254  12.962
20912W        W90727  16.194  29.014   1.727
20913W        W90728  24.694  44.907  14.799
20914W        W90729  31.902  44.938   3.345
20915W        W90730  43.371  31.483  12.496
20916W        W90731   9.818  12.844  11.569
20917W        W90732  26.475   0.848  12.872
20918W        W90733   1.924  18.593  12.944
20919W        W90734  43.859  30.046  13.307
20920W        W90735   3.927   2.336  14.837
20921W        W90736  17.715  24.688  11.060
20922W        W90737  41.818  29.663   4.644
20923W        W90738  26.142  32.088  14.468
20924W        W90739  23.201  18.566  12.898
20925W        W90740  12.810   1.274  13.882
20926W        W90741  42.912  38.044  10.926
20927W        W90742  36.512  26.536  13.919
20928W        W90743  17.268  27.616  14.997
20929W        W90744  15.198  40.389   1.832
20930W        W90745   5.814  13.783  13.964
20931W        W90746  30.960  13.709   1.898
20932W        W90747  10.238   2.919  12.966
20933W        W90748   7.897  26.512  12.995
20934W        W90749   7.266  23.692   0.369
20935W        W90750  26.187  18.207  13.518
20936W        W90751  15.763  16.733  12.549
20937W        W90752  26.694  35.401   0.879
20938W        W90753  40.322   7.758  14.401
20939W        W90754  35.583  24.493   4.329
20940W        W90755  37.021  10.855  13.439
20941W        W90756  10.685  41.379   3.338
20942W        W90757  32.403  39.362   2.770
20943W        W90758  24.058  16.759   5.132
20944W        W90759  17.667  39.514  13.847
20945W        W90760  42.788   3.306  14.485
20946W        W90761   1.957   0.819   4.132
20947W        W90762  44.320  18.772   3.667
20948W        W90763  35.400  22.115  12.979
20949W        W90764  14.744   2.268  10.960
20950W        W90765  23.047  34.436  13.365
20951W        W90766  16.090   5.692   2.322
20952W        W90767  15.618   2.459  14.809
20953W        W90768  18.235   7.229  11.883
20954W        W90769   5.753  21.106  13.939
20955W        W90770  15.109  41.291   2.705
20956W        W90771  23.605  40.333  10.456
20957W        W90772   2.398  24.083  10.499
20958W        W90773   6.319  34.436   2.409
20959W        W90774   5.311  16.748  11.054
20960W        W90775  16.072   2.336  10.972
20961W        W90776  41.530   2.885   3.778
20962W        W90777  22.667  32.466   4.160
20963W        W90778   1.363  18.169  10.525
20964W        W90779  21.743  13.170   4.336
20965W        W90780   5.202  24.220   2.769
20966W        W90781  15.707  23.210  13.885
20967W        W90782  27.524  15.679   4.273
20968W        W90783  33.915  25.156  13.965
20969W        W90784   8.349  29.063   0.316
20970W        W90785  36.973  42.340   2.215
20971W        W90786   7.313  31.149  10.414
20972W        W90787  26.553  20.202  14.844
20973W        W90788  32.592  28.055  11.881
20974W        W90789  42.852  42.937   4.240
20975W        W90790  38.347  32.056  11.559
20976W        W90791  40.540  44.972   1.835
20977W        W90792  40.531  39.906   4.332
20978W        W90793   2.253   0.902  13.345
20979W        W90794  43.338  15.316   3.303
20980W        W90795  21.088  20.226   1.819
20981W        W90796   5.383  29.546  14.377
20982W        W90797   7.224   4.715   3.717
20983W        W90798  21.068  16.757  13.055
20984W        W90799   1.394  37.361  12.859
20985W        W90800   7.273   1.451   0.363
20986W        W90801  18.678  29.532  14.381
20987W        W90802   4.245  44.883  13.535
20988W        W90803  27.043  22.580   9.988
20989W        W90804   5.387   8.847   2.185
20990W        W90805  38.570  25.054   0.768
20991W        W90806  34.078  15.181  11.988
20992W        W90807  27.179   8.821  11.986
20993W        W90808   4.770  20.672  10.987
20994W        W90809  41.406  35.097  11.041
20995W        W90810  35.519  35.955   0.269
20996W        W90811  32.977  23.727   1.444
20997W        W90812  40.527  30.091  11.436
20998W        W90813  42.819   1.468   2.765
20999W        W90814  39.533   1.838  12.026
21000W        W90815  35.371  32.630   0.965
21001W        W90816   7.869  11.752   5.105
21002W        W90817  15.588  39.350  13.517
21003W        W90818  44.458  40.373   4.756
21004W        W90819  39.009  35.558   0.795
21005W        W90820  17.152  34.538   2.827
21006W        W90821   0.328  18.194   3.342
21007W        W90822   8.323  27.999   2.669
21008W        W90823  29.058  31.937   5.195
21009W        W90824  24.645  35.436  14.796
21010W        W90825  29.005   9.300  11.431
21011W        W90826  22.653  33.546   1.278
21012W        W90827  33.958  22.526  11.407
21013W        W90828  37.449  31.622  14.889
21014W        W90829  27.154  42.953   1.931
21015W        W90830  31.546  36.997   0.366
21016W        W90831  22.221  44.758   4.301
21017W        W90832   8.786   6.869  11.027
21018W        W90833  12.257  18.189   3.204
21019W        W90834   5.832  19.748   2.790
21020W        W90835  16.152   6.915  13.353
21021W        W90836  40.459  44.923  13.374
21022W        W90837  40.929  27.088  10.619
21023W        W90838  17.683  37.534   1.273
21024W        W90839  34.492  22.177  12.458
21025W        W90840  27.523  26.506   3.195
21026W        W90841  21.554   6.254   1.239
21027W        W90842  23.673  23.597   1.314
21028W        W90843  14.787  20.123   2.300
21029W        W90844  20.562  37.489  11.997
21030W        W90845  28.603  30.605  14.439
21031W        W90846  29.077   5.849   2.718
21032W        W90847   9.190  33.474   9.961
21033W        W90848  37.871  31.901  10.545
21034W        W90849  10.687   4.439   1.700
21035W        W90850  12.253   8.763   3.240
21036W        W90851  21.542  18.610   3.834
21037W        W90852  17.710  20.104  12.048
21038W        W90853  34.879  23.994   3.718
21039W        W90854  24.640   2.254   2.794
21040W        W90855  36.048   9.159  11.898
21041W        W90856  14.713  31.123  11.437
21042W        W90857  18.171  16.186   3.641
21043W        W90858  23.185  28.588  12.841
21044W        W90859  30.518  43.861  10.493
21045W        W90860  41.974   3.738  13.414
21046W        W90861  44.835  19.193  12.453
21047W        W90862  17.155   2.861  12.959
21048W        W90863  21.052  14.128   1.236
21049W        W90864   3.874  39.541  11.582
21050W        W90865  36.995  32.579  14.808
21051W        W90866  10.705   9.288   3.195
21052W        W90867  14.286   7.381   1.801
21053W        W90868   0.386   6.367   1.732
21054W        W90869  26.039   3.813   0.805
21055W        W90870   1.246  36.017  11.860
21056W        W90871  36.028  24.055  13.339
21057W        W90872  20.638  27.611   0.244
21058W        W90873  12.716  16.754  12.359
21059W        W90874  15.672  19.079  13.793
21060W        W90875   1.820   4.897  13.978
21061W        W90876  13.159  38.838  12.844
21062W        W90877   9.787  32.552  10.928
21063W        W90878  25.686   6.242   3.667
21064W        W90879  13.803  18.156  13.503
21065W        W90880   8.660  32.478   0.857
21066W        W90881   1.404  29.510   3.243
21067W        W90882   6.806  43.283  11.913
21068W        W90883  40.835  12.639  13.480
21069W        W90884  22.591  17.616   3.728
21070W        W90885  43.432  17.118   4.239
21071W        W90886   3.730  11.735  13.403
21072W        W90887  13.192  18.549  12.992
21073W        W90888  24.022   7.176   1.782
21074W        W90889  10.344  17.660   0.791
21075W        W90890  28.524  17.109  11.515
21076W        W90891   7.398  42.402  13.950
21077W        W90892  29.520   4.804   4.713
21078W        W90893  28.180  31.633   4.211
21079W        W90894  40.315  18.579  14.285
21080W        W90895  22.562  12.846  10.090
21081W        W90896   1.762   2.446  12.852
21082W        W90897  31.550  10.160   1.890
21083W        W90898  38.521  14.597  11.122
21084W        W90899  34.095  42.324  11.484
21085W        W90900  30.569  37.909   4.258
21086W        W90901  29.996   9.843  13.869
21087W        W90902  14.719  23.125   2.745
21088W        W90903  19.100  11.659   3.668
21089W        W90904   9.789  34.466  11.924
21090W        W90905  38.907  29.001   0.377
21091W        W90906  16.279   8.806  13.369
21092W        W90907   9.754  21.580   1.721
21093W        W90908  24.183  24.626   4.301
21094W        W90909  22.502  17.744  13.483
21095W        W90910  21.251  29.013  14.881
21096W        W90911   9.214  12.804  14.413
21097W        W90912   1.933  38.962  11.556
21098W        W90913   7.342  28.674   0.456
21099W        W90914  18.759  43.933   3.245
21100W        W90915   0.434  17.102  12.556
21101W        W90916  12.353  44.818  12.962
21102W        W90917   8.732  40.502   1.786
21103W        W90918  24.178   1.243   0.290
21104W        W90919  31.598  40.806  12.393
21105W        W90920  15.112  22.690   1.774
21106W        W90921  25.615  37.341   4.689
21107W        W90922  25.638   3.248   4.157
21108W        W90923  41.379  44.285  10.552
21109W        W90924  10.166   4.318   2.285
21110W        W90925  23.675  38.037   0.470
21111W        W90926  36.892  21.575  12.028
21112W        W90927  40.524  42.782   9.944
21113W        W90928  14.688  11.646   0.741
21114W        W90929  27.026  26.014  14.973
21115W        W90930  17.207  11.266   1.418
21116W        W90931  22.745  16.791   3.816
21117W        W90932  24.553  17.134  14.317
21118W        W90933  22.653  17.746  12.575
21119W        W90934  14.747  43.299  12.389
21120W        W90935  24.054  33.591   3.698
21121W        W90936  33.512  38.409   0.844
21122W        W90937  16.308  42.429   2.209
21123W        W90938  26.184  14.609   1.736
21124W        W90939   7.847  13.789  12.004
21125W        W90940  38.539  27.960  12.926
21126W        W90941  24.007  15.256  11.472
21127W        W90942  16.097  28.934  11.463
21128W        W90943  12.258  21.235  14.839
21129W        W90944  27.143  44.989  14.344
21130W        W90945  23.210  26.645   2.784
21131W        W90946  32.525   2.271  11.863
21132W        W90947   5.779  28.986   4.275
21133W        W90948  21.108  38.056   3.735
21134W        W90949  12.280  13.230  13.442
21135W        W90950  36.901  14.596  14.323
21136W        W90951   7.808   3.799  12.899
21137W        W90952  26.093  31.039   1.423
21138W        W90953  39.413  16.739   1.839
21139W        W90954   9.665  29.545   4.341
21140W        W90955   0.763   2.447  10.920
21141W        W90956  30.638  23.989   0.370
21142W        W90957  16.662  30.148   4.251
21143W        W90958  17.270  16.773   1.755
21144W        W90959  19.546   7.330   2.237
21145W        W90960   2.453  21.036   0.423
21146W        W90961   8.667  14.180  11.570
21147W        W90962  22.192  37.463  10.940
21148W        W90963  24.033   0.270  10.550
21149W        W90964   7.278  13.842   4.767
21150W        W90965  22.128  28.095  11.924
21151W        W90966  38.448   3.251  11.538
21152W        W90967  14.594  13.774  11.499
21153W        W90968  41.331  36.037  13.946
21154W        W90969   5.790  36.398   1.841
21155W        W90970  12.259  21.170   2.834
21156W        W90971  14.639  43.321   0.417
21157W        W90972  11.309   1.751  14.908
21158W        W90973  32.462  11.329  13.956
21159W        W90974  25.511  41.397   1.443
21160W        W90975   8.337  26.056   1.290
21161W        W90976   5.223  32.399  12.433
21162W        W90977  23.019  26.481   4.188
21163W        W90978   5.881  42.860   3.277
21164W        W90979  17.594  24.186  12.871
21165W        W90980  25.515  33.617   2.307
21166W        W90981  19.144  23.702   3.679
21167W        W90982  37.875   3.372  12.488
21168W        W90983  13.282  21.099  11.381
21169W        W90984  11.832  25.587  12.000
21170W        W90985   3.229  39.054  12.472
21171W        W90986   6.779  28.004   4.725
21172W        W90987  32.016  32.916   2.201
21173W        W90988  28.185  36.357   2.369
21174W        W90989  23.611   4.822   1.886
21175W        W90990  39.437   6.908  14.389
21176W        W90991   4.867  16.173   0.852
21177W        W90992  10.749   4.888  13.857
21178W        W90993  27.447  11.255   1.796
21179W        W90994  36.535  24.538  12.026
21180W        W90995  27.527  35.964   4.803
21181W        W90996  38.846  37.470   1.784
21182W        W90997  42.342  40.027  13.822
21183W        W90998  43.305  28.633   2.708
21184W        W90999  43.984   5.897   2.886
21185W        W91000  27.965  27.615   1.725
21186W        W91001  16.245  44.271   0.772
21187W        W91002  22.658  40.322   3.174
21188W        W91003  39.442  21.590   4.140
21189W        W91004  41.898   7.727   4.672
21190W        W91005  10.263  18.601   9.645
21191W        W91006  34.934  12.160   0.749
21192W        W91007  33.597  33.926   1.732
21193W        W91008  20.259  13.801  12.555
21194W        W91009  18.747  30.595  12.044
21195W        W91010  18.641  40.348  13.532
21196W        W91011  22.141  40.962  10.926
21197W        W91012   3.946  37.530  14.360
21198W        W91013  41.314   4.327   3.306
21199W        W91014   8.272  40.323  14.467
21200W        W91015  37.483  13.807   4.285
21201W        W91016  42.381  25.124  11.877
21202W        W91017  30.927  16.602   4.268
21203W        W91018  22.049  10.814  14.799
21204W        W91019   9.663  33.923   2.783
21205W        W91020  29.948  20.645  11.915
21206W        W91021  37.454   4.829   0.861
21207W        W91022  42.868  42.840   1.343
21208W        W91023   5.762  25.132   0.824
21209W        W91024  17.762  12.181   2.245
21210W        W91025  38.396   9.245  11.901
21211W        W91026  23.992  17.675  13.916
21212W        W91027  30.468  35.468   0.908
21213W        W91028  43.832   3.797   3.382
21214W        W91029  28.179  16.608  13.803
21215W        W91030  29.453  36.922  12.448
21216W        W91031  12.810  30.935  13.325
21217W        W91032  41.375  14.682  13.046
21218W        W91033   8.269  11.139   0.795
21219W        W91034  11.709  30.632   3.654
21220W        W91035  31.917  35.030  11.118
21221W        W91036  41.317  14.132   4.193
21222W        W91037  41.967  22.097   0.331
21223W        W91038  35.391  41.340   0.918
21224W        W91039  14.308  17.130  12.833
21225W        W91040  44.967   8.899   3.211
21226W        W91041  17.279   2.235   3.765
21227W        W91042  36.479  41.429   5.184
21228W        W91043  35.977  34.535  10.466
21229W        W91044  32.628  21.642   1.929
21230W        W91045   7.178  40.324   3.324
21231W        W91046   6.401  36.082  13.004
21232W        W91047   8.176   4.347   4.128
21233W        W91048  36.863   6.381  14.833
21234W        W91049  25.964  10.633   4.287
21235W        W91050  33.130  27.485  13.528
21236W        W91051  31.975   8.837  10.644
21237W        W91052  44.325   1.887  11.426
21238W        W91053  32.495  14.611   2.325
21239W        W91054  30.468   5.706   2.370
21240W        W91055  32.027  25.986   3.283
21241W        W91056  41.798  40.049  11.610
21242W        W91057  30.449  21.587  13.007
21243W        W91058  15.797  27.515   3.240
21244W        W91059  19.721  30.035   2.712
21245W        W91060  24.037  42.907   3.778
21246W        W91061   9.218   2.404   4.343
21247W        W91062   0.337  44.432  12.472
21248W        W91063   7.259   5.804  14.990
21249W        W91064  19.660  24.720   0.387
21250W        W91065  35.434  22.669   1.305
21251W        W91066  19.703  18.290  13.324
21252W        W91067  22.173  12.323  12.486
21253W        W91068  22.084  30.464   2.281
21254W        W91069   2.960   2.745  14.031
21255W        W91070  40.803  42.326   4.157
21256W        W91071   8.691  27.610   2.231
21257W        W91072  10.213  35.463  10.627
21258W        W91073  43.804  17.628  13.005
21259W        W91074  28.954  17.802   0.441
21260W        W91075  26.658  19.752  12.860
21261W        W91076  15.190  11.702   0.278
21262W        W91077  34.587   2.295   0.260
21263W        W91078  29.133  36.024   2.663
21264W        W91079  35.372  27.013   3.194
21265W        W91080  44.906  30.446  13.512
21266W        W91081  43.290  32.535   0.851
21267W        W91082   4.740   1.940   0.834
21268W        W91083  22.071  37.958   1.801
21269W        W91084  36.964  44.836  11.932
21270W        W91085  30.517  40.520  14.936
21271W        W91086  36.367   1.875  14.289
21272W        W91087  23.586  27.151   2.287
21273W        W91088  16.257   3.903   0.810
21274W        W91089   0.802  16.757   3.325
21275W        W91090  21.571  31.978   4.715
21276W        W91091  41.911  24.199   1.935
21277W        W91092   6.368  10.339  10.950
21278W        W91093  38.042  36.010  11.538
21279W        W91094  23.025   5.250  14.346
21280W        W91095  19.638  27.600   3.204
21281W        W91096  42.873  27.551  10.012
21282W        W91097   6.789  16.607   2.739
21283W        W91098  27.629  16.120   3.231
21284W        W91099   3.223  36.850  14.930
21285W        W91100  21.758  42.429  14.353
21286W        W91101  31.990  17.629  14.955
21287W        W91102  41.344   2.368  11.010
21288W        W91103  42.943   5.226  13.520
21289W        W91104  44.355  34.502   3.361
21290W        W91105   1.298  36.049  14.441
21291W        W91106  22.643  41.525  10.405
21292W        W91107  18.125  44.314  10.100
21293W        W91108  14.835  28.583   2.865
21294W        W91109   7.873   0.363   4.164
21295W        W91110  10.257  20.651  14.474
21296W        W91111  41.821  38.403  14.781
21297W        W91112  34.930  12.181  11.950
21298W        W91113  26.092  32.028   3.364
21299W        W91114  21.128  18.249   9.986
21300W        W91115  40.437  37.362   5.098
21301W        W91116  42.879  24.213  10.434
21302W        W91117  26.170   2.322  13.958
21303W        W91118   1.279  28.647   2.886
21304W        W91119  41.804  22.184   3.855
21305W        W91120  27.504  29.952   4.281
21306W        W91121  38.527  41.912  12.051
21307W        W91122  28.542  27.099  10.464
21308W        W91123  31.054   8.786   3.802
21309W        W91124  22.038  30.659   4.789
21310W        W91125   5.314  19.046   0.833
21311W        W91126  16.220   5.842  12.862
21312W        W91127  42.357  17.253  11.870
21313W        W91128  20.628  26.559   1.343
21314W        W91129  23.126  27.598  13.935
21315W        W91130  17.787   8.677  13.454
21316W        W91131  18.174  13.242   2.305
21317W        W91132  21.117  14.792  11.884
21318W        W91133   3.838  17.200   1.338
21319W        W91134   9.835  15.796   2.902
21320W        W91135   1.356  36.445   3.680
21321W        W91136  26.608  10.849   3.805
21322W        W91137  37.357  30.079  12.464
21323W        W91138  37.536   2.433  12.038
21324W        W91139   9.841  35.420   2.762
21325W        W91140  15.146  11.199   1.737
21326W        W91141  10.820  43.505  13.998
21327W        W91142  19.138  30.146  10.506
21328W        W91143   3.803  34.113  13.826
21329W        W91144  41.995  26.519   4.241
21330W        W91145   2.732   1.275  14.481
21331W        W91146  32.617  41.388  12.908
21332W        W91147   9.236  30.440   1.711
21333W        W91148  18.170  20.225   2.277
21334W        W91149  36.003   8.398   0.348
21335W        W91150   5.326  12.305   1.413
21336W        W91151  20.235  13.307  13.017
21337W        W91152  16.136  20.217  13.447
21338W        W91153  15.666  19.654  13.037
21339W        W91154  31.559  20.749  11.127
21340W        W91155  17.082  19.582  14.491
21341W        W91156  37.457  20.742  14.909
21342W        W91157  25.180  21.151   1.320
21343W        W91158   2.774  19.627   2.385
21344W        W91159  15.801   7.798  14.782
21345W        W91160  21.235  43.012   2.419
21346W        W91161  34.011  26.014  13.869
21347W        W91162  23.532  23.076   0.886
21348W        W91163  11.169  34.542   1.799
21349W        W91164   0.802   0.288   3.655
21350W        W91165  38.565  34.466  11.586
21351W        W91166  25.549  22.689   3.700
21352W        W91167   3.763  24.179   1.721
21353W        W91168  40.858  11.764   1.243
21354W        W91169  40.511  43.907  10.561
21355W        W91170   9.386  41.838   0.407
21356W        W91171   4.866  15.130   4.827
21357W        W91172  19.766  30.659  13.892
21358W        W91173   9.785  36.978   0.858
21359W        W91174  25.006  33.102  14.927
21360W        W91175  33.380  10.637  13.313
21361W        W91176  30.476  42.787  12.890
21362W        W91177   4.923   0.249   1.790
21363W        W91178  17.077  24.585   2.337
21364W        W91179  21.737  38.564  14.983
21365W        W91180  35.091  27.945   3.729
21366W        W91181  40.035   6.409  11.602
21367W        W91182  42.989  14.646  13.336
21368W        W91183  34.523  31.503  11.430
21369W        W91184   6.855  37.380  11.468
21370W        W91185   1.362  21.072  13.824
21371W        W91186   3.900  13.742   0.815
21372W        W91187  13.678  39.457   4.272
21373W        W91188   7.359  42.482   3.863
21374W        W91189  32.943  25.595   2.363
21375W        W91190  44.753  41.348  12.918
21376W        W91191  41.459  36.080  10.567
21377W        W91192  20.561  22.728  14.828
21378W        W91193  23.129  27.973  10.988
21379W        W91194  25.614  44.853  12.047
21380W        W91195   3.867  13.816   3.241
21381W        W91196  25.030   8.304  12.860
21382W        W91197  21.655   9.653  12.429
21383W        W91198  28.450   0.853   1.425
21384W        W91199  27.002  17.112   0.868
21385W        W91200  18.549  33.608  12.835
21386W        W91201  16.633  29.538   3.806
21387W        W91202   4.321  40.493  10.592
21388W        W91203  23.185  29.980  11.578
21389W        W91204  26.200  21.203   3.339
21390W        W91205  14.732  28.054  10.463
21391W        W91206   6.866   3.253  13.992
21392W        W91207  34.048   4.355   0.286
21393W        W91208  44.371  30.926   0.806
21394W        W91209  41.354  35.379   1.307
21395W        W91210  39.488  32.580  12.928
21396W        W91211  32.535   3.869   1.724
21397W        W91212  34.957   4.257  13.498
21398W        W91213  20.246  26.186  10.984
21399W        W91214  29.022  28.164  10.557
21400W        W91215  30.926  32.580   0.834
21401W        W91216  12.635  12.760  10.972
21402W        W91217  24.171   1.249   3.634
21403W        W91218   6.713  11.707  13.825
21404W        W91219  19.698   4.305  13.866
21405W        W91220  17.681   1.960  14.279
21406W        W91221  18.166  41.515   4.828
21407W        W91222  31.583  31.484   0.321
21408W        W91223   6.678  26.507  13.502
21409W        W91224  40.517   4.826  14.993
21410W        W91225   6.322  35.435   4.691
21411W        W91226  19.062   8.849   0.415
21412W        W91227  12.844  21.539  13.840
21413W        W91228  11.715  34.962  13.795
21414W        W91229  32.610  41.407  11.600
21415W        W91230   4.733  17.562   2.816
21416W        W91231   4.209  34.499   4.764
21417W        W91232  21.683   6.690   2.354
21418W        W91233  26.102   3.390  14.311
21419W        W91234  32.475   3.828   0.922
21420W        W91235  15.243  21.674  12.504
21421W        W91236   2.924   5.194   2.902
21422W        W91237  41.865  41.397   4.296
21423W        W91238   2.878  39.919   2.294
21424W        W91239  25.608  23.009   3.274
21425W        W91240   9.784  25.547  11.377
21426W        W91241  19.662   4.355   4.646
21427W        W91242  18.616  41.499  11.924
21428W        W91243  36.502  37.043   2.868
21429W        W91244  15.642  35.443   0.836
21430W        W91245   8.711  31.547  12.413
21431W        W91246  25.020  20.034  13.987
21432W        W91247  32.494  34.048  12.889
21433W        W91248  22.075  40.976  14.457
21434W        W91249  24.675  22.235  14.287
21435W        W91250   0.483  25.107  14.472
21436W        W91251  26.066   2.779  10.624
21437W        W91252  44.866   9.321   3.242
21438W        W91253  36.014  30.584  10.526
21439W        W91254  10.810  41.896   3.868
21440W        W91255  35.025  44.885  12.407
21441W        W91256  17.559  41.866  12.500
21442W        W91257  22.050  13.295   4.751
21443W        W91258  24.094   0.353   0.898
21444W        W91259  42.028   5.925  12.056
21445W        W91260  30.420  18.555  11.517
21446W        W91261  36.392  17.620  14.991
21447W        W91262   8.721  17.267  13.037
21448W        W91263   4.344  38.850  14.807
21449W        W91264  13.701  12.117  14.906
21450W        W91265  27.585  14.243   4.125
21451W        W91266   8.302  25.082   1.221
21452W        W91267  12.621  30.953   3.767
21453W        W91268  42.351  18.165   2.383
21454W        W91269   9.275  39.054   3.750
21455W        W91270   4.291  13.191  11.548
21456W        W91271  32.527  43.956  11.441
21457W        W91272  34.417  40.391  10.631
21458W        W91273  31.646   0.913  12.987
21459W        W91274  16.153  43.410  14.901
21460W        W91275   6.315  41.962  10.934
21461W        W91276   1.748  13.681   0.356
21462W        W91277   7.230  14.103  12.443
21463W        W91278  31.401  39.810   2.227
21464W        W91279  23.019   4.205  12.003
21465W        W91280   7.255  34.076  12.565
21466W        W91281  27.477  30.106  12.015
21467W        W91282  40.419  37.519   1.273
21468W        W91283  24.571  11.716  14.992
21469W        W91284  36.033  13.312   4.135
21470W        W91285  12.721  22.135  13.324
21471W        W91286  17.118  44.504  11.874
21472W        W91287  26.025   2.951   1.731
21473W        W91288  31.989   7.170  13.883
21474W        W91289  41.805  38.913  11.898
21475W        W91290  42.431  15.170  12.420
21476W        W91291  15.701  14.224   3.644
21477W        W91292   2.438  29.600   5.132
21478W        W91293  11.729  37.526   3.328
21479W        W91294  29.049  40.945   2.747
21480W        W91295  13.156  29.597  11.452
21481W        W91296  43.326  33.129   1.356
21482W        W91297   8.731  41.320   1.233
21483W        W91298  10.301  33.570  14.846
21484W        W91299  17.767  39.515  11.000
21485W        W91300   3.949  39.809   2.235
21486W        W91301   3.925  29.949   2.225
21487W        W91302  32.615  41.420   2.665
21488W        W91303   8.277  19.593  13.016
21489W        W91304   3.910   2.800   4.205
21490W        W91305  14.136   1.856  10.584
21491W        W91306  37.382  26.076   0.243
21492W        W91307  11.760  16.729   1.247
21493W        W91308  22.507   3.317  13.869
21494W        W91309  18.230  32.133   4.753
21495W        W91310   7.338  15.683   4.660
21496W        W91311  43.306  15.275   4.636
21497W        W91312  11.688  39.035   2.811
21498W        W91313  20.146  43.273   0.351
21499W        W91314  12.835  43.851  14.277
21500W        W91315   3.954  42.500   0.824
21501W        W91316  10.357   1.322   4.757
21502W        W91317  35.070  17.103  10.908
21503W        W91318  34.609  37.452   1.716
21504W        W91319  14.736   5.280   0.937
21505W        W91320  14.631  34.113  11.994
21506W        W91321  16.169  26.526  12.953
21507W        W91322  31.426  42.467  14.488
21508W        W91323  42.296  22.561   3.313
21509W        W91324  31.010  22.115  10.094
21510W        W91325   6.204  42.008  10.549
21511W        W91326  11.357  21.198   4.322
21512W        W91327  16.584  32.028   4.622
21513W        W91328  24.587   4.271  12.836
21514W        W91329  41.468  17.586   2.890
21515W        W91330  40.842  37.832  14.442
21516W        W91331  40.923  24.189  11.608
21517W        W91332  44.960  31.428  14.958
21518W        W91333  27.484  32.124  13.458
21519W        W91334  24.218  12.830   3.203
21520W        W91335  24.199  30.498  12.565
21521W        W91336  30.532  26.544  13.847
21522W        W91337  43.925  39.016   0.352
21523W        W91338  35.495  11.838   4.817
21524W        W91339   4.247  43.437   4.119
21525W        W91340   1.405  26.195   2.234
21526W        W91341   6.799  19.131  11.957
21527W        W91342   5.328  17.072  14.367
21528W        W91343  29.429  37.016  11.025
21529W        W91344  32.423  32.928   4.224
21530W        W91345  27.949  44.811   4.682
21531W        W91346  32.417  22.023   4.743
21532W        W91347  41.909  23.557   1.729
21533W        W91348  44.456  20.087   4.256
21534W        W91349  29.102  23.667  14.432
21535W        W91350  34.946   5.428  10.432
21536W        W91351   5.710  14.146   1.377
21537W        W91352  19.158   9.792   4.190
21538W        W91353  29.464  41.806  14.026
21539W        W91354  32.613  29.965  11.053
21540W        W91355  27.542  24.093   3.339
21541W        W91356  11.711  32.499   4.218
21542W        W91357   0.756   0.477  11.464
21543W        W91358   1.434  18.068  13.509
21544W        W91359  33.943  36.477  11.085
21545W        W91360   2.925   6.871  11.899
21546W        W91361  37.841  37.951  12.498
21547W        W91362  11.795  33.111   0.752
21548W        W91363   4.248  21.158   1.867
21549W        W91364  13.651  22.639   2.378
21550W        W91365  22.036   4.259   2.227
21551W        W91366  36.503  29.130  14.977
21552W        W91367   2.916  33.945  14.302
21553W        W91368  18.092  16.119   0.285
21554W        W91369  13.314  23.987   4.839
21555W        W91370  23.637  12.626  10.910
21556W        W91371  39.348  39.958   2.799
21557W        W91372  16.789  21.725   4.682
21558W        W91373  30.021  22.101  11.001
21559W        W91374  20.643  17.717  12.007
21560W        W91375  24.617  27.185  12.069
21561W        W91376  23.720  41.295  12.528
21562W        W91377  26.682  11.644   3.306
21563W        W91378  16.314  19.773  14.967
21564W        W91379  24.578  43.779  14.897
21565W        W91380  26.510   1.788  11.488
21566W        W91381   0.797  31.968   5.310
21567W        W91382  25.142  27.019  13.834
21568W        W91383  36.919  24.635  13.487
21569W        W91384  25.070   8.363   4.639
21570W        W91385   9.838  24.082  14.512
21571W        W91386  24.003  26.087   4.761
21572W        W91387  34.006  13.627   1.420
21573W        W91388  44.950  36.451  10.989
21574W        W91389  39.406  34.082  12.873
21575W        W91390  37.549   5.747   4.175
21576W        W91391  35.993   5.349  13.860
21577W        W91392  37.538  13.211  12.828
21578W        W91393  39.873  28.535  12.356
21579W        W91394  26.642  26.529  10.961
21580W        W91395  22.664  11.726  13.524
21581W        W91396  44.283  38.472  12.562
21582W        W91397  15.160  42.497  10.442
21583W        W91398   8.272  16.243  14.945
21584W        W91399  37.017  13.222  13.396
21585W        W91400  24.018  36.461   4.695
21586W        W91401   7.750  34.466  12.421
21587W        W91402  20.033  39.846   2.264
21588W        W91403  40.946  40.960  12.392
21589W        W91404  44.997  19.638  14.864
21590W        W91405  14.689  16.779  12.909
21591W        W91406  38.368  12.744   2.757
21592W        W91407  38.009  42.303   3.301
21593W        W91408  33.958  11.636  14.356
21594W        W91409  10.205  17.722   1.901
21595W        W91410   0.321  32.082   3.180
21596W        W91411   2.229  12.773  14.296
21597W        W91412  38.418  36.909  11.888
21598W        W91413   3.793  18.608   4.607
21599W        W91414  32.019  10.703   4.352
21600W        W91415  31.036  10.759  14.966
21601W        W91416  25.134   9.254  11.386
21602W        W91417  37.081  35.506   1.343
21603W        W91418  44.269  11.167   2.801
21604W        W91419  19.267   8.223   1.368
21605W        W91420  34.412  26.589   4.833
21606W        W91421  18.238  10.677   1.873
21607W        W91422   6.257  12.625   0.859
21608W        W91423  20.717  41.351   3.742
21609W        W91424  14.727  14.815   2.195
21610W        W91425  20.736   2.888  14.349
21611W        W91426  16.318  44.879   4.717
21612W        W91427  23.716  33.563   2.375
21613W        W91428  42.804   1.794   2.413
21614W        W91429   8.892  35.470  13.920
21615W        W91430  25.075  16.759  10.925
21616W        W91431  38.913  31.903  12.370
21617W        W91432  25.058  41.789   1.712
21618W        W91433   5.838  23.703  13.016
21619W        W91434  18.253   2.255  11.923
21620W        W91435  37.074  22.530   1.910
21621W        W91436  34.973  35.043  12.841
21622W        W91437  37.837  41.395  12.568
21623W        W91438  41.852   3.932  14.771
21624W        W91439   0.382   8.877  14.473
21625W        W91440  40.962  22.127   2.253
21626W        W91441  34.419   8.779   2.254
21627W        W91442   4.301  30.648   0.339
21628W        W91443  30.599  26.148   1.787
21629W        W91444  22.204  38.537   1.845
21630W        W91445  33.886  39.320  14.962
21631W        W91446  44.949  41.479  13.861
21632W        W91447  21.114   5.890  13.508
21633W        W91448  36.544  23.094   3.775
21634W        W91449  33.563   0.267  11.536
21635W        W91450  15.671  11.648  12.086
21636W        W91451  42.442   0.274   2.689
21637W        W91452  20.738  44.263   1.245
21638W        W91453  30.965  14.690   4.260
21639W        W91454  23.543   5.867  10.510
21640W        W91455  33.568   6.870  10.582
21641W        W91456   7.197  17.170  14.899
21642W        W91457  38.370  11.807   0.748
21643W        W91458   4.401  22.039  11.410
21644W        W91459  30.019  43.005   0.962
21645W        W91460  16.749  32.105   0.928
21646W        W91461  30.597  43.332  11.414
21647W        W91462   1.369  38.861  10.451
21648W        W91463  37.062  10.340   0.381
21649W        W91464   5.233  13.833   2.807
21650W        W91465  26.640   6.291   3.842
21651W        W91466  43.505   5.910  10.075
21652W        W91467  42.849  35.882  14.877
21653W        W91468  27.115   4.771   2.848
21654W        W91469  16.631  26.607   0.935
21655W        W91470  37.346   9.327   3.262
21656W        W91471  43.990   3.343  14.355
21657W        W91472  15.786  34.981  11.505
21658W        W91473  40.856  25.552   0.766
21659W        W91474  10.140  10.150  10.481
21660W        W91475  16.627  35.110   3.852
21661W        W91476  12.811   3.438   4.151
21662W        W91477  16.079   9.739   0.809
21663W        W91478  37.972  33.892  14.288
21664W        W91479  41.921  31.951   3.302
21665W        W91480  24.562   2.348   2.294
21666W        W91481  11.682  20.595   0.910
21667W        W91482  25.001  23.708  11.535
21668W        W91483  11.774  34.951   3.834
21669W        W91484  33.063  44.836  12.995
21670W        W91485   7.893  18.247  11.486
21671W        W91486  18.733  42.953   3.843
21672W        W91487  44.957   8.760   4.735
21673W        W91488   4.361  17.114  11.397
21674W        W91489  10.253  15.158  13.520
21675W        W91490  15.159  18.752  12.502
21676W        W91491  29.486  15.687   2.245
21677W        W91492  15.684  44.988  10.477
21678W        W91493   7.800   2.798   1.222
21679W        W91494  13.772  28.049  13.526
21680W        W91495  38.461  14.174   3.631
21681W        W91496   2.301   7.289  12.969
21682W        W91497   1.358  34.451   0.246
21683W        W91498   9.772  25.134   2.741
21684W        W91499   2.275  39.523   4.672
21685W        W91500   4.281  15.164   2.783
21686W        W91501  36.001  28.022   1.229
21687W        W91502  19.192  33.997  12.985
21688W        W91503  34.876  30.037   1.771
21689W        W91504   2.936  18.060  10.456
21690W        W91505  20.233  12.354  11.480
21691W        W91506  40.482  18.739  12.017
21692W        W91507  18.728  28.595   0.433
21693W        W91508   9.272  43.418   0.406
21694W        W91509   2.882  17.795   4.692
21695W        W91510  27.568  15.698  11.454
21696W        W91511  27.971  18.683   0.257
21697W        W91512  12.313  24.623   3.332
21698W        W91513   4.256   5.746  13.896
21699W        W91514   8.329  38.892  14.361
21700W        W91515  30.119  22.551   3.154
21701W        W91516   6.373  44.379  13.822
21702W        W91517   1.830  16.233  11.503
21703W        W91518  19.766  29.955  14.405
21704W        W91519  31.135  23.609  12.939
21705W        W91520   4.816   6.265   3.335
21706W        W91521  42.526  25.193   4.742
21707W        W91522  23.708  31.924  11.602
21708W        W91523  27.644   2.966   1.319
21709W        W91524  33.951  31.438   3.845
21710W        W91525   9.329   9.838  13.983
21711W        W91526  36.849  40.980   2.185
21712W        W91527  43.309  43.909   2.794
21713W        W91528  15.250  22.687  14.401
21714W        W91529  28.123   2.830   3.655
21715W        W91530   6.292  27.662  11.118
21716W        W91531  15.590  33.469  12.962
21717W        W91532  27.191  10.663  11.383
21718W        W91533  40.848  27.944   0.809
21719W        W91534  43.313  34.090   0.369
21720W        W91535  14.787  10.720   1.355
21721W        W91536  41.809  15.696  11.113
21722W        W91537   7.821  32.961   3.375
21723W        W91538  32.580   7.747  13.819
21724W        W91539  43.812  41.444   3.244
21725W        W91540  35.533   3.369   1.823
21726W        W91541  33.609  20.142   2.868
21727W        W91542  39.429  21.220  13.907
21728W        W91543  30.089   9.655   0.940
21729W        W91544  24.582  33.051  12.409
21730W        W91545  36.981  44.495   4.256
21731W        W91546  27.960   0.342  10.144
21732W        W91547  43.476  17.203  12.997
21733W        W91548   7.861  40.053   2.836
21734W        W91549  33.442  16.114   0.389
21735W        W91550  23.621  36.914   0.902
21736W        W91551  17.306  43.774  12.444
21737W        W91552  26.183  15.312   0.770
21738W        W91553   8.737   3.860  12.847
21739W        W91554  21.511  26.669  12.448
21740W        W91555  20.638  37.396   5.268
21741W        W91556  19.257  26.548  12.352
21742W        W91557   8.332   1.832   2.671
21743W        W91558  25.028  10.151   3.350
21744W        W91559  24.497   2.417   0.335
21745W        W91560  37.449  39.527   4.118
21746W        W91561   6.221  41.849  12.011
21747W        W91562  42.910  28.117   0.876
21748W        W91563  38.560   8.785   2.692
21749W        W91564  26.052  31.997  14.026
21750W        W91565  35.387  44.464   4.613
21751W        W91566   0.896  10.149  10.900
21752W        W91567  25.984   3.816   4.204
21753W        W91568  34.023  28.051  14.961
21754W        W91569  16.105  18.748   4.715
21755W        W91570  33.399  34.942   1.836
21756W        W91571  14.283  13.796   3.249
21757W        W91572  42.790  22.251   2.413
21758W        W91573  37.506  36.385  13.402
21759W        W91574  34.081  26.952   0.279
21760W        W91575  25.599  16.695  12.861
21761W        W91576  27.538  25.989   4.341
21762W        W91577  27.184  34.977   4.131
21763W        W91578  27.685  31.032   1.714
21764W        W91579   0.427  32.597  12.479
21765W        W91580  18.200  44.776  13.460
21766W        W91581  10.153   1.787   1.797
21767W        W91582  26.113   9.817  14.492
21768W        W91583  35.037  40.950  10.522
21769W        W91584  35.544  18.281   2.253
21770W        W91585  42.853  24.100   5.235
21771W        W91586  29.940  37.340  12.938
21772W        W91587  34.559  12.832  10.504
21773W        W91588  41.294  10.639  12.440
21774W        W91589  20.668  37.081  12.442
21775W        W91590  33.123   7.379   1.749
21776W        W91591   6.869  20.691  13.840
21777W        W91592  42.962  36.385  12.838
21778W        W91593  26.624  20.669  11.425
21779W        W91594  29.083   7.224  10.454
21780W        W91595   5.813   5.419  13.326
21781W        W91596   6.257  24.693   1.728
21782W        W91597   0.362  16.713  12.083
21783W        W91598  23.716  37.483   4.198
21784W        W91599  18.715   0.786   3.781
21785W        W91600  19.147  23.999  11.858
21786W        W91601  37.023  26.578   0.436
21787W        W91602  23.735  36.501   2.397
21788W        W91603  13.129  34.568  14.927
21789W        W91604  29.644   7.720   3.274
21790W        W91605  43.890  43.471   1.367
21791W        W91606  37.375  12.652  14.884
21792W        W91607  33.431  11.802  12.447
21793W        W91608  40.468  32.404  10.469
21794W        W91609  42.944  37.469   2.312
21795W        W91610  19.673  37.528  14.348
21796W        W91611  33.380   3.886  11.490
21797W        W91612   2.306  22.704   5.171
21798W        W91613  38.014   7.861   0.397
21799W        W91614  29.641  38.918  12.453
21800W        W91615  36.996  28.604  13.948
21801W        W91616  33.003   5.908   0.910
21802W        W91617  28.155  44.455  14.324
21803W        W91618  24.202  27.458  11.466
21804W        W91619   6.220   7.358   5.094
21805W        W91620   7.846  26.497  14.810
21806W        W91621  28.949  15.222  12.547
21807W        W91622  16.119  29.607   3.788
21808W        W91623   6.243  18.653   4.248
21809W        W91624  25.002  18.087  14.333
21810W        W91625  16.274  17.109  13.048
21811W        W91626  35.924  36.424  13.902
21812W        W91627  32.896  18.677  14.759
21813W        W91628  40.988  26.119   2.339
21814W        W91629  24.695  34.408   4.312
21815W        W91630  25.030  25.985   0.765
21816W        W91631  32.579   5.792   2.268
21817W        W91632  15.320  33.922  12.057
21818W        W91633  25.166  43.325  10.492
21819W        W91634  34.375  43.353   2.682
21820W        W91635  13.223  15.721   1.416
21821W        W91636  10.839  22.681   4.298
21822W        W91637  18.587  31.112   2.780
21823W        W91638  22.110  32.578  10.552
21824W        W91639  15.630  30.035   1.388
21825W        W91640  19.661   2.860  14.026
21826W        W91641   7.325   0.370  14.836
21827W        W91642  30.508  24.716   4.828
21828W        W91643   7.805  29.647  10.500
21829W        W91644  12.233  22.519   2.375
21830W        W91645  44.447  16.602   3.750
21831W        W91646  25.966  17.658  14.781
21832W        W91647  37.562  11.703   1.211
21833W        W91648  37.480   6.699   2.681
21834W        W91649  21.064  11.268   3.688
21835W        W91650  34.614  24.542   3.829
21836W        W91651  12.664  29.921   4.775
21837W        W91652  22.061   5.374   3.256
21838W        W91653  20.237   8.810  14.935
21839W        W91654  10.684   9.734  13.404
21840W        W91655  16.764   0.904  14.000
21841W        W91656  44.448  34.523   1.913
21842W        W91657  36.415  25.192   1.725
21843W        W91658  13.326  33.974  11.891
21844W        W91659  27.537  31.621   2.865
21845W        W91660   6.297  24.132  14.002
21846W        W91661   3.386  31.538  13.985
21847W        W91662  20.216   3.240   3.275
21848W        W91663  17.603  15.305  10.565
21849W        W91664  37.562  21.035   4.681
21850W        W91665  33.919  36.588   2.205
21851W        W91666  13.114  17.687   1.294
21852W        W91667  24.591  30.528  11.577
21853W        W91668  17.071  34.457   3.688
21854W        W91669  24.979  28.530   1.825
21855W        W91670   0.413  13.342  11.557
21856W        W91671  33.435  17.200  13.399
21857W        W91672  19.671  25.490   0.425
21858W        W91673  24.093   8.310   2.741
21859W        W91674   7.772  43.404  13.517
21860W        W91675   1.242  35.510   4.123
21861W        W91676  31.971  31.917   2.385
21862W        W91677  40.916   0.980   2.766
21863W        W91678   8.292   9.269   1.925
21864W        W91679  33.121  22.624   0.789
21865W        W91680   3.288  34.926  13.322
21866W        W91681  19.584  13.168   3.841
21867W        W91682  44.987  27.964  10.434
21868W        W91683  28.501  22.146  10.406
21869W        W91684  32.031  18.271   0.795
21870W        W91685  20.187   8.324   4.140
21871W        W91686  25.072  12.168  14.483
21872W        W91687  35.009  30.078   2.297
21873W        W91688  35.512  10.665   2.394
21874W        W91689  23.666  21.640   0.836
21875W        W91690  26.197  29.951   0.438
21876W        W91691  18.657  25.994  13.965
21877W        W91692  13.662  14.813  13.855
21878W        W91693  16.078  25.071  14.468
21879W        W91694  39.933  27.639   3.738
21880W        W91695  29.063  31.406   0.896
21881W        W91696  20.029  30.472   3.255
21882W        W91697  38.505  16.171  12.097
21883W        W91698  37.846  32.470  13.963
21884W        W91699  34.984  23.696   4.330
21885W        W91700  37.994  41.378   0.856
21886W        W91701   0.940  13.111   0.261
21887W        W91702  37.866  27.673   4.353
21888W        W91703  39.434  24.676   4.267
21889W        W91704  38.414  38.026  11.122
21890W        W91705  23.572  30.636  12.358
21891W        W91706  29.012  34.937   3.156
21892W        W91707   3.370  39.014   4.787
21893W        W91708  41.364  14.141   1.337
21894W        W91709  16.261  12.657  13.986
21895W        W91710  28.507  13.308  12.823
21896W        W91711  16.100  27.033   0.857
21897W        W91712  37.058  25.167   1.238
21898W        W91713  11.649  37.879  12.085
21899W        W91714  10.254  29.114  13.487
21900W        W91715   7.744   7.342  13.959
21901W        W91716   2.472  33.563   0.946
21902W        W91717  36.393  17.607   1.349
21903W        W91718  15.684  18.159   4.745
21904W        W91719   6.722   7.852   2.366
21905W        W91720   8.706  42.435  11.539
21906W        W91721   5.703  24.038   2.325
21907W        W91722   8.692   4.351  11.595
21908W        W91723  30.537  26.685   2.727
21909W        W91724  26.623  41.528  14.830
21910W        W91725   5.878  24.517   3.288
21911W        W91726  29.544  19.199   3.870
21912W        W91727  16.254  29.150   4.288
21913W        W91728  12.621  31.522   4.748
21914W        W91729  38.043   3.294   4.732
21915W        W91730  35.018  40.809   4.324
21916W        W91731   7.714  41.310  10.892
21917W        W91732   3.440  41.907  10.992
21918W        W91733  12.137  16.680  14.356
21919W        W91734   2.790   0.466   4.313
21920W        W91735  44.454  22.568   1.409
21921W        W91736  17.793  40.054  14.798
21922W        W91737  43.375  26.093   3.757
21923W        W91738  41.014   2.417   4.244
21924W        W91739  24.665  31.122  12.978
21925W        W91740  15.318  25.110   1.806
21926W        W91741  10.352  15.617   1.743
21927W        W91742   7.171  29.076  13.380
21928W        W91743   6.402  35.033  14.839
21929W        W91744  41.320  15.770   4.255
21930W        W91745  37.460  14.313   3.223
21931W        W91746   3.391  23.994   0.762
21932W        W91747  41.494  39.871  12.089
21933W        W91748  35.852  41.407  10.620
21934W        W91749  13.162  10.804  13.374
21935W        W91750  22.669  13.162   0.330
21936W        W91751  38.438   3.315   4.699
21937W        W91752  16.116  33.093   4.666
21938W        W91753  23.494   4.338  11.866
21939W        W91754  35.977  23.009  13.357
21940W        W91755  21.575  23.530  12.342
21941W        W91756  42.504  10.837   4.227
21942W        W91757  35.858  35.073   5.149
21943W        W91758   7.346  30.591   2.744
21944W        W91759  35.564  23.532   3.827
21945W        W91760  12.853  18.142   4.728
21946W        W91761  33.386  26.595  13.038
21947W        W91762  20.746  23.181  13.352
21948W        W91763  42.385  30.414  13.030
21949W        W91764  40.010   6.374   4.745
21950W        W91765   5.875  22.556   3.679
21951W        W91766   7.267  16.588  13.855
21952W        W91767  21.567  22.561   3.870
21953W        W91768   6.889  15.304   2.844
21954W        W91769  27.172  17.213   2.184
21955W        W91770   8.775  17.588  14.447
21956W        W91771   9.320  42.835  14.817
21957W        W91772  40.391  13.832  13.369
21958W        W91773  27.095   6.284  11.929
21959W        W91774   6.389   9.689  11.882
21960W        W91775  22.655  35.866  11.561
21961W        W91776  32.119   7.400   0.434
21962W        W91777   2.884  27.552  10.403
21963W        W91778  37.947   2.471   2.722
21964W        W91779  44.482  35.933  14.295
21965W        W91780  27.481  10.767   0.276
21966W        W91781  29.952  31.561   3.666
21967W        W91782   1.356   9.742  13.385
21968W        W91783   6.429  14.147   4.784
21969W        W91784  20.062  41.509   1.863
21970W        W91785  35.890  30.039  10.986
21971W        W91786  38.456  35.905  12.376
21972W        W91787   5.396  35.592   2.315
21973W        W91788  15.177  25.591   0.815
21974W        W91789  36.994  33.874  10.415
21975W        W91790  38.515   4.421  13.389
21976W        W91791   2.946   3.717  11.530
21977W        W91792  22.628  22.108  13.482
21978W        W91793  26.641  27.988  14.385
21979W        W91794  36.900  33.434   0.963
21980W        W91795   0.300  23.705   0.454
21981W        W91796  10.175  44.381  11.014
21982W        W91797  18.293  19.183   4.218
21983W        W91798  30.581  17.676  14.348
21984W        W91799  40.360   9.206  12.474
21985W        W91800   9.394  30.537  10.975
21986W        W91801  15.751   8.814   1.907
21987W        W91802  38.922   6.677   4.179
21988W        W91803  20.609  12.238  12.983
21989W        W91804  18.183  38.893  11.575
21990W        W91805   4.754  30.070  14.853
21991W        W91806  28.678   7.270   2.324
21992W        W91807   4.805  28.931  13.320
21993W        W91808  27.003   4.317   0.258
21994W        W91809  42.358  22.737  13.454
21995W        W91810  16.145  28.057  12.419
21996W        W91811   9.771  36.516   0.415
21997W        W91812  27.649   6.722   2.749
21998W        W91813   8.301   6.237   3.277
21999W        W91814   7.365  20.257   1.367
22000W        W91815   7.909  32.410  14.392
22001W        W91816  44.379  26.583  14.508
22002W        W91817   7.846   0.335  14.801
22003W        W91818  33.003  15.780   3.662
22004W        W91819  28.653   7.406  13.009
22005W        W91820  44.960  24.652   4.833
22006W        W91821  40.945  18.705   1.882
22007W        W91822   2.819   1.948   4.123
22008W        W91823   9.172   4.703  10.530
22009W        W91824  37.949  17.638   3.372
22010W        W91825   9.184  29.989  11.064
22011W        W91826  39.988   3.789  11.019
22012W        W91827  16.721   2.405  14.840
22013W        W91828  16.651  13.733  11.044
22014W        W91829  26.963  21.586  12.499
22015W        W91830  31.142   7.201  14.312
22016W        W91831   5.835  10.174  14.444
22017W        W91832  26.172  24.215   1.366
22018W        W91833  12.700  11.813   0.452
22019W        W91834  36.987  32.491  11.880
22020W        W91835  44.823   2.744   4.800
22021W        W91836  28.591   8.305  11.492
22022W        W91837  12.735  29.568  13.425
22023W        W91838  28.043  15.302   2.842
22024W        W91839  42.853  18.145  13.930
22025W        W91840  17.234  16.134  12.428
22026W        W91841  11.134  25.967   2.210
22027W        W91842  41.911  34.938   2.368
22028W        W91843  26.592   4.786   4.199
22029W        W91844  15.102  29.579   1.291
22030W        W91845  35.990  41.509  14.817
22031W        W91846  25.963   1.294   4.191
22032W        W91847   3.440  38.549  11.602
22033W        W91848  34.895   1.827  11.421
22034W        W91849  33.560  38.347  13.320
22035W        W91850  23.018  16.581   5.703
22036W        W91851  13.209  29.543  11.967
22037W        W91852  18.646  25.524  12.550
22038W        W91853  12.828  40.888   1.229
22039W        W91854   2.235  32.536   3.199
22040W        W91855  12.282   4.900  12.366
22041W        W91856  37.016  41.818   2.273
22042W        W91857  14.149  26.635  14.403
22043W        W91858   6.215  22.712   4.235
22044W        W91859  17.139   3.355  14.494
22045W        W91860   2.293  20.651   3.720
22046W        W91861  16.706   8.299   2.336
22047W        W91862  29.143   4.450  14.317
22048W        W91863  38.993  41.436   3.265
22049W        W91864  21.568  17.240   4.743
22050W        W91865   5.879  26.045  14.301
22051W        W91866   8.842  25.499  11.523
22052W        W91867  12.139  29.017  12.900
22053W        W91868  17.772   5.711   2.798
22054W        W91869  29.627   0.911   3.813
22055W        W91870  31.074  13.641  11.927
22056W        W91871  34.439  35.920   1.440
22057W        W91872  41.410   3.728  10.899
22058W        W91873   6.358  42.460  14.460
22059W        W91874  35.586  35.395   3.181
22060W        W91875  40.891   8.341  10.630
22061W        W91876  25.122  14.763  13.791
22062W        W91877  21.131  31.522   1.425
22063W        W91878  13.629   4.769  11.464
22064W        W91879  43.359  40.812   3.232
22065W        W91880  35.412  17.070   4.209
22066W        W91881  20.710  30.160  11.088
22067W        W91882   5.780   9.881  11.929
22068W        W91883  20.130   9.215  14.448
22069W        W91884  14.153   7.893   3.731
22070W        W91885  31.073   7.394   0.278
22071W        W91886  22.098  15.093  10.451
22072W        W91887  37.463  11.650  14.904
22073W        W91888  23.085  14.153  13.538
22074W        W91889  43.899  42.499  11.443
22075W        W91890   6.917  32.923  12.356
22076W        W91891  13.722   5.399  11.124
22077W        W91892  29.668   7.890  11.451
22078W        W91893  31.112  19.098  10.481
22079W        W91894   8.661  29.092   0.318
22080W        W91895  34.877  12.191  14.453
22081W        W91896  30.096  41.894  13.342
22082W        W91897  20.166   1.886  11.059
22083W        W91898  34.562  10.162  10.605
22084W        W91899  18.687  18.687   0.314
22085W        W91900  37.902  33.125   1.378
22086W        W91901   6.182  14.722   0.338
22087W        W91902  12.327  14.606   3.342
22088W        W91903  11.148  28.947   2.382
22089W        W91904  30.921  16.670  12.989
22090W        W91905  22.009  10.862   0.770
22091W        W91906  11.316  23.515  11.877
22092W        W91907  34.577  33.421   4.145
22093W        W91908  41.310  14.750  12.534
22094W        W91909  38.931  26.679   1.815
22095W        W91910  20.042  22.532   3.179
22096W        W91911  35.552  32.922  11.026
22097W        W91912  27.948  20.523  10.548
22098W        W91913   8.890  33.534   5.242
22099W        W91914  19.736  29.655   2.418
22100W        W91915  14.686   0.369  14.892
22101W        W91916  43.440  43.828   0.851
22102W        W91917   7.319  36.861  14.872
22103W        W91918   1.732   6.212  13.380
22104W        W91919   2.913  30.152   2.784
22105W        W91920  31.529  14.807   0.826
22106W        W91921  40.040  11.163  14.941
22107W        W91922   4.819  28.635  10.461
22108W        W91923  25.505  14.163  11.452
22109W        W91924  25.602  25.061   0.274
22110W        W91925  36.493  28.117  12.419
22111W        W91926  40.014  22.036   0.346
22112W        W91927   8.340  21.038   3.212
22113W        W91928  23.650  39.420   5.157
22114W        W91929  39.856  31.092   2.848
22115W        W91930  21.738   8.310  12.562
22116W        W91931  25.033  15.163   1.716
22117W        W91932  33.921  44.308  12.523
22118W        W91933  43.769  23.559   3.755
22119W        W91934  17.695  25.181  12.384
22120W        W91935  34.903   3.232   0.426
22121W        W91936   1.263  22.046  10.445
22122W        W91937   7.281  41.353  10.935
22123W        W91938  33.596  21.084   3.642
22124W        W91939   2.774  36.871  14.473
22125W        W91940  25.713  26.144   4.298
22126W        W91941  18.147  12.191  14.869
22127W        W91942   2.912   6.283   1.913
22128W        W91943   4.765  39.061   5.159
22129W        W91944  12.617  25.513  13.917
22130W        W91945  28.032  36.942  11.556
22131W        W91946  27.024  17.567   2.747
22132W        W91947  41.820  35.990   2.304
22133W        W91948  41.485  16.800   4.291
22134W        W91949  32.527  32.612   0.772
22135W        W91950  11.339  31.403   1.276
22136W        W91951  11.786   8.280   1.348
22137W        W91952  15.692  22.634  12.962
22138W        W91953  37.572  29.428  14.460
22139W        W91954  12.680   3.389   1.868
22140W        W91955  28.490  36.861   0.928
22141W        W91956  20.583  11.689  13.464
22142W        W91957   4.698   8.901   4.265
22143W        W91958  35.971  35.530  13.792
22144W        W91959  11.200  25.495   4.147
22145W        W91960  28.957  14.128  12.940
22146W        W91961   7.412   7.322  14.451
22147W        W91962   3.948   2.730  13.893
22148W        W91963   1.344  43.479   3.264
22149W        W91964   1.374  15.749  12.941
22150W        W91965  20.158  43.275  13.505
22151W        W91966   2.280  42.788   0.336
22152W        W91967  41.976  30.938   4.172
22153W        W91968   8.723  34.984  14.871
22154W        W91969  38.856  38.511  11.123
22155W        W91970   0.298  25.137  14.998
22156W        W91971   0.828  21.576   4.289
22157W        W91972   0.864  44.842   0.863
22158W        W91973   4.249  18.276  14.879
22159W        W91974  10.773  28.632  11.871
22160W        W91975  11.650   0.331   3.676
22161W        W91976   6.398  33.052   0.872
22162W        W91977  44.423  36.043   4.742
22163W        W91978  17.105  12.327  14.777
22164W        W91979  44.491  34.551  14.866
22165W        W91980  27.460  20.241  11.373
22166W        W91981  30.107  20.207  11.593
22167W        W91982  25.604   7.272  12.008
22168W        W91983  26.072  13.147   1.711
22169W        W91984  35.904   4.285  11.995
22170W        W91985  33.982  41.943   1.237
22171W        W91986  18.560   1.345   4.602
22172W        W91987  37.411   0.757   2.198
22173W        W91988  28.002  32.401  12.032
22174W        W91989  31.961   3.360   2.243
22175W        W91990   2.255  15.266   0.341
22176W        W91991  29.933  16.685  13.987
22177W        W91992   3.289  22.205   4.291
22178W        W91993  10.255   2.916  14.974
22179W        W91994   9.199  24.100  13.399
22180W        W91995  30.117  39.474   1.360
22181W        W91996  22.204  27.682  12.905
22182W        W91997  40.991  13.745  12.834
22183W        W91998   4.261  30.070  11.011
22184W        W91999  29.080   5.295   3.287
22185W        W92000  42.980  16.769   4.285
22186W        W92001   3.350   1.946  10.454
22187W        W92002  25.507  41.824   1.897
22188W        W92003  27.063  34.925   0.967
22189W        W92004  33.081  29.151   1.870
22190W        W92005  28.440   7.862   0.730
22191W        W92006   9.801  26.656  13.017
22192W        W92007  33.905  10.279   4.248
22193W        W92008  14.268   6.874  10.560
22194W        W92009  12.724  33.048  13.916
22195W        W92010  22.561  39.852   0.328
22196W        W92011  10.383   5.743  10.460
22197W        W92012  38.454  26.525   4.332
22198W        W92013  12.806  30.047  12.030
22199W        W92014   5.401   9.286   0.473
22200W        W92015   5.337  24.205  14.808
22201W        W92016  24.042  35.090   3.817
22202W        W92017   8.727   1.279  10.408
22203W        W92018  33.530  39.393   1.818
22204W        W92019  26.513  25.139   1.871
22205W        W92020  33.459   7.893   1.818
22206W        W92021  42.933  21.072   0.858
22207W        W92022  18.150  26.971  10.543
22208W        W92023   8.167  19.692  14.795
22209W        W92024  27.123  42.949   2.712
22210W        W92025  29.660  15.318  11.485
22211W        W92026  26.051  44.898  10.956
22212W        W92027   7.208  10.730   1.731
22213W        W92028  33.051  32.899  13.918
22214W        W92029  18.743  42.433  14.429
22215W        W92030  26.654  16.268   1.712
22216W        W92031  21.747  28.993   3.331
22217W        W92032  19.072  34.459   0.321
22218W        W92033   4.222  20.149  13.515
22219W        W92034  27.987  33.888  11.934
22220W        W92035  31.928  35.555   0.824
22221W        W92036  31.559  15.644  14.906
22222W        W92037   3.851  35.993  10.955
22223W        W92038  35.532   4.808   4.167
22224W        W92039   5.352  33.071   0.475
22225W        W92040  34.447  38.459  10.919
22226W        W92041  37.397   9.179   1.228
22227W        W92042  21.034  25.056   0.288
22228W        W92043  35.362  36.986  11.472
22229W        W92044   3.332  22.073  10.575
22230W        W92045  28.488  21.074  14.292
22231W        W92046  37.464  24.714   4.311
22232W        W92047  28.979  24.574   1.809
22233W        W92048   9.357  11.311   4.324
22234W        W92049  18.772  18.277   3.742
22235W        W92050  12.346  16.767   1.738
22236W        W92051  30.077  16.754  10.504
22237W        W92052  11.343  28.511  12.838
22238W        W92053  21.209  11.141   4.679
22239W        W92054   8.393  42.406   2.265
22240W        W92055  33.537   2.736   9.940
22241W        W92056  40.478  18.078  13.308
22242W        W92057  27.621  13.811  14.388
22243W        W92058  31.985  36.561   4.197
22244W        W92059  15.182  11.256   4.682
22245W        W92060  42.976  28.102   4.826
22246W        W92061  44.465   3.312   4.306
22247W        W92062  37.565  34.967   1.706
22248W        W92063  38.842  42.328   3.213
22249W        W92064  42.374   2.291  11.593
22250W        W92065  44.497   9.715   2.249
22251W        W92066  22.011  38.407  13.907
22252W        W92067  16.269  17.768  13.878
22253W        W92068  19.538  15.772   3.819
22254W        W92069  27.141  37.418   1.830
22255W        W92070  16.176  16.603  12.427
22256W        W92071  44.426  18.630   1.712
22257W        W92072   9.157  40.842  13.359
22258W        W92073   0.780   1.852  10.612
22259W        W92074  21.192  41.304   5.165
22260W        W92075   6.816  30.143   0.837
22261W        W92076  30.496  34.895   5.118
22262W        W92077   2.295   4.407  11.537
22263W        W92078  13.797   2.366   1.216
22264W        W92079   5.885   9.286  11.007
22265W        W92080  40.896  44.924   5.102
22266W        W92081  28.438  12.264  13.061
22267W        W92082  25.518   2.425   2.338
22268W        W92083  28.120   1.361  11.445
22269W        W92084  34.433   8.899   1.892
22270W        W92085   6.751  15.136   4.295
22271W        W92086   3.422  14.150   3.727
22272W        W92087   2.313  34.379  11.927
22273W        W92088  16.684  32.995  11.927
22274W        W92089  28.616  18.157   2.737
22275W        W92090  38.913  41.374  11.875
22276W        W92091   6.738  39.837   0.430
22277W        W92092  39.512   6.237  11.084
22278W        W92093   4.370  38.381  11.908
22279W        W92094  21.171  41.924  11.474
22280W        W92095  19.584  30.582  14.359
22281W        W92096   8.881  17.680   0.827
22282W        W92097  37.576  37.877   2.370
22283W        W92098  15.239  14.709  11.477
22284W        W92099  38.571  35.534   4.696
22285W        W92100  41.839  12.624  12.555
22286W        W92101  44.372  36.395  14.397
22287W        W92102  34.086  39.063  12.068
22288W        W92103  21.631  29.007  14.369
22289W        W92104  32.885   8.719  13.953
22290W        W92105  32.481  35.105   1.232
22291W        W92106  36.928  19.159   0.910
22292W        W92107  20.534  14.216  11.517
22293W        W92108  41.377   1.404   2.207
22294W        W92109  42.520  29.059  11.421
22295W        W92110   2.776   1.867  12.993
22296W        W92111   9.671   7.869   2.388
22297W        W92112  30.597  37.034   3.256
22298W        W92113   3.887  22.595  13.345
22299W        W92114  38.380   6.411   1.252
22300W        W92115  26.581  27.124  12.361
22301W        W92116  27.579  11.863   0.821
22302W        W92117  23.638   1.900   0.280
22303W        W92118  28.564   9.788  10.948
22304W        W92119  12.723  39.335   2.186
22305W        W92120  33.012  37.379  10.449
22306W        W92121  26.591  30.069   1.697
22307W        W92122   3.426  39.048   0.453
22308W        W92123  24.625  37.884  11.869
22309W        W92124   9.372  21.521   3.665
22310W        W92125  17.728  31.508  12.567
22311W        W92126   3.825   6.403  12.082
22312W        W92127  29.541  19.637   3.799
22313W        W92128  12.252  16.190  12.004
22314W        W92129  22.521  27.172   1.304
22315W        W92130   4.729  44.838   0.324
22316W        W92131  44.903  10.668   1.437
22317W        W92132  22.237  41.429  14.332
22318W        W92133  16.307  16.639   3.160
22319W        W92134  40.363   0.297   3.300
22320W        W92135  13.221   2.389   3.241
22321W        W92136  20.170  22.737   0.792
22322W        W92137  34.979   6.399   0.925
22323W        W92138  24.076  16.718  13.346
22324W        W92139   0.859  41.969   4.656
22325W        W92140  10.149  41.831   1.296
22326W        W92141  23.525  23.029   4.118
22327W        W92142  43.927  35.411  12.414
22328W        W92143  38.327  44.260  14.887
22329W        W92144   9.680  25.479  14.966
22330W        W92145  38.370   6.409   9.476
22331W        W92146  27.596  38.551  12.895
22332W        W92147  12.657  21.717  10.554
22333W        W92148  11.175  33.607   4.207
22334W        W92149  13.721  39.888  14.005
22335W        W92150  24.678  28.070   1.725
22336W        W92151   1.897  10.230   0.284
22337W        W92152   5.823   2.229   2.228
22338W        W92153  21.204  17.060  14.995
22339W        W92154  11.319  12.660   1.782
22340W        W92155  27.637   9.346  10.978
22341W        W92156  22.615  32.502   3.156
22342W        W92157  33.960  27.634   4.127
22343W        W92158  27.490  20.213  12.523
22344W        W92159  34.389  16.288   2.728
22345W        W92160   1.241  44.318   2.376
22346W        W92161  15.316  35.928   3.169
22347W        W92162  11.667  25.527   3.197
22348W        W92163  12.783  27.047  14.793
22349W        W92164  21.214  12.806   3.188
22350W        W92165  41.042  25.594   2.754
22351W        W92166  24.553   4.706   2.414
22352W        W92167  32.076   4.884   3.640
22353W        W92168  16.639  11.737  11.479
22354W        W92169  32.091  19.713  13.833
22355W        W92170  30.096  44.795  13.836
22356W        W92171  37.058  37.534   0.439
22357W        W92172  35.358  28.953   0.458
22358W        W92173   2.327  23.034  12.375
22359W        W92174  37.861  29.050   2.789
22360W        W92175  40.442  25.641  13.451
22361W        W92176  22.043  41.386  11.115
22362W        W92177  38.918  35.899  11.396
22363W        W92178  37.049  39.542   0.372
22364W        W92179  26.509   6.394  11.396
22365W        W92180  41.830  29.918   3.323
22366W        W92181  42.325   9.223  10.940
22367W        W92182  18.185  12.341  12.949
22368W        W92183   2.289  10.784   2.396
22369W        W92184  32.071  17.638   2.268
22370W        W92185   5.922  11.701   2.755
22371W        W92186  19.664  40.910   3.816
22372W        W92187  24.087  29.522  12.952
22373W        W92188  41.877   7.801  12.836
22374W        W92189  32.472   5.374   1.779
22375W        W92190  14.242  15.234  12.986
22376W        W92191  30.653  41.998  14.314
22377W        W92192  26.598  17.687  14.883
22378W        W92193   8.806  41.872   5.252
22379W        W92194  34.011  14.615   0.400
22380W        W92195  14.793   5.830   1.741
22381W        W92196  20.617  42.447  12.067
22382W        W92197  15.300  17.156  12.959
22383W        W92198  18.627   2.406   1.698
22384W        W92199  13.693  14.804  13.001
22385W        W92200  26.969   1.438  12.454
22386W        W92201  22.088  14.271   1.843
22387W        W92202  13.303  26.001  11.572
22388W        W92203  36.885  17.705  10.976
22389W        W92204  18.790  41.379  13.547
22390W        W92205  19.758  24.196  13.420
22391W        W92206   9.646  38.822  12.051
22392W        W92207  18.763  36.941   2.880
22393W        W92208  11.327  31.430  10.900
22394W        W92209  12.361  13.162   0.857
22395W        W92210  22.685  41.334   0.419
22396W        W92211  17.715  44.371   1.304
22397W        W92212  26.529   3.447   4.180
22398W        W92213  21.087  33.895   0.408
22399W        W92214  11.352   5.231   2.874
22400W        W92215  19.733   7.333   3.852
22401W        W92216  17.098  38.567   4.297
22402W        W92217  33.431  33.604   2.808
22403W        W92218  13.241  10.652   1.252
22404W        W92219   1.846  37.900  14.834
22405W        W92220  21.238  44.978  10.553
22406W        W92221   4.422   2.754   0.736
22407W        W92222  16.089  12.157   0.850
22408W        W92223   0.854  24.976  14.498
22409W        W92224  44.975  13.607   3.731
22410W        W92225  27.669   3.888  14.482
22411W        W92226  33.996  34.388  14.913
22412W        W92227   1.976  10.279  13.504
22413W        W92228  10.750  21.599   2.894
22414W        W92229   7.872  24.572  14.331
22415W        W92230  14.634   0.403  12.469
22416W        W92231  36.533   6.852  10.478
22417W        W92232  12.278  40.954  10.637
22418W        W92233  40.971  21.179   4.831
22419W        W92234  22.251  30.090   0.319
22420W        W92235   2.425  29.029  14.971
22421W        W92236  43.946  35.983   0.283
22422W        W92237  11.192  21.055  13.993
22423W        W92238  27.165  25.497   1.806
22424W        W92239   8.820   5.370  14.357
22425W        W92240  10.173   5.810  12.513
22426W        W92241  23.061  24.697  13.919
22427W        W92242   8.813  32.495  10.506
22428W        W92243  33.467  25.482  14.458
22429W        W92244   0.815  13.189   1.757
22430W        W92245   2.953  22.063   2.781
22431W        W92246  37.847  39.318   1.896
22432W        W92247   8.362  25.053  13.814
22433W        W92248  31.539  37.886  11.025
22434W        W92249   7.317  42.863  13.828
22435W        W92250  10.658  16.291  11.890
22436W        W92251  16.202   0.402   4.741
22437W        W92252  41.481  37.977  13.392
22438W        W92253  15.235  27.960  11.012
22439W        W92254  24.990  32.409  11.507
22440W        W92255  18.735  24.496  10.640
22441W        W92256  15.816   5.923  14.006
22442W        W92257   4.827   7.760  12.091
22443W        W92258  41.789  18.118   3.814
22444W        W92259  29.610   0.796   0.839
22445W        W92260  42.892  36.043  10.924
22446W        W92261  28.121  27.480   4.759
22447W        W92262  33.515  24.578  10.581
22448W        W92263  22.009  19.727   4.328
22449W        W92264  33.018  10.879   3.769
22450W        W92265  17.610  39.530  14.953
22451W        W92266  43.926  26.553  13.995
22452W        W92267  43.420   8.249   0.822
22453W        W92268  10.705  44.904  14.022
22454W        W92269  11.267  39.048  11.888
22455W        W92270  44.419   5.308   1.323
22456W        W92271  44.364  26.591   0.245
22457W        W92272  37.078  29.120   2.672
22458W        W92273  18.721  41.034   0.735
22459W        W92274  32.028  26.493   4.638
22460W        W92275   9.800   9.344  12.847
22461W        W92276  40.946  25.712  13.376
22462W        W92277  40.514   5.197  10.573
22463W        W92278  42.024   8.318   2.780
22464W        W92279   3.829   4.735   0.767
22465W        W92280  17.307  21.578  12.969
22466W        W92281   3.422  20.710  13.046
22467W        W92282   0.369  40.813  12.985
22468W        W92283  38.978  44.753  11.539
22469W        W92284  33.963  29.542   2.779
22470W        W92285  22.729  28.456  14.312
22471W        W92286   3.722  12.849   4.685
22472W        W92287  29.578   5.200   3.303
22473W        W92288  31.934   2.888   4.834
22474W        W92289  19.238   2.327   0.277
22475W        W92290  34.463   4.320  10.501
22476W        W92291  27.670  39.366   3.803
22477W        W92292  13.728  29.607   0.462
22478W        W92293  22.022  23.199  11.941
22479W        W92294  20.537  31.117  11.897
22480W        W92295  17.764  44.877  13.430
22481W        W92296  30.655  23.588   2.220
22482W        W92297  39.395  44.304   4.660
22483W        W92298   3.260  30.585  13.857
22484W        W92299  23.726  15.702   0.927
22485W        W92300  21.685  38.557   2.815
22486W        W92301  31.931  40.524  14.893
22487W        W92302  28.666  38.333  10.560
22488W        W92303  10.143  20.728  13.792
22489W        W92304  32.496  37.515  12.993
22490W        W92305  35.099   5.256   1.279
22491W        W92306  43.505  43.327  14.445
22492W        W92307  39.047  36.095   3.681
22493W        W92308  13.764   5.826  12.058
22494W        W92309  17.713   2.339  12.962
22495W        W92310   3.454  37.505  10.088
22496W        W92311   7.819  38.522  12.996
22497W        W92312  17.296  21.108   1.347
22498W        W92313  33.978   4.406  12.498
22499W        W92314   1.845  44.999   2.278
22500W        W92315  35.031   8.666  13.959
22501W        W92316  25.613  43.504  12.543
22502W        W92317   9.693  28.534  13.520
22503W        W92318   4.923  28.647   1.280
22504W        W92319  23.187  23.178   2.759
22505W        W92320   1.437   6.329   2.333
22506W        W92321  38.541  23.240   0.767
22507W        W92322  31.986  39.475   2.248
22508W        W92323  18.737  25.686   2.807
22509W        W92324  20.725  25.651  10.564
22510W        W92325  33.468  11.213   1.312
22511W        W92326  16.163   2.361  14.026
22512W        W92327  36.975   6.898  12.386
22513W        W92328  21.561   5.282   0.279
22514W        W92329  38.482  37.895   2.214
22515W        W92330  34.100  25.071  10.889
22516W        W92331  19.596  34.935   4.320
22517W        W92332  24.715  36.005  11.915
22518W        W92333  23.711   5.199  14.312
22519W        W92334   6.764   1.736   4.230
22520W        W92335  34.974   4.410  14.927
22521W        W92336  44.862  31.535  12.386
22522W        W92337  43.343  16.582  14.278
22523W        W92338  34.054  25.024   4.630
22524W        W92339   8.757   2.358  13.412
22525W        W92340  11.687  44.766  14.468
22526W        W92341  32.061  19.192  13.922
22527W        W92342  18.188   2.917   1.367
22528W        W92343  10.365  17.190   3.851
22529W        W92344   6.213  15.589  11.971
22530W        W92345  21.079  20.205   3.719
22531W        W92346  43.923   1.394   3.292
22532W        W92347  40.851  18.726   3.754
22533W        W92348  10.324   6.207  11.081
22534W        W92349  10.344   1.734   5.093
22535W        W92350   1.791   9.731   4.304
22536W        W92351  18.124   2.793   4.753
22537W        W92352  18.579   2.270  12.367
22538W        W92353  26.474   9.340  10.056
22539W        W92354  34.599  19.059   0.833
22540W        W92355  12.205  15.233  11.003
22541W        W92356  23.646  16.217  12.433
22542W        W92357  27.519  43.817  12.925
22543W        W92358  13.263  10.766   0.455
22544W        W92359   9.344  38.822  12.071
22545W        W92360  18.688  21.155   0.303
22546W        W92361   8.256  35.079  11.566
22547W        W92362   3.812  22.061   4.650
22548W        W92363  15.149  25.616  13.841
22549W        W92364  37.384  37.868  11.891
22550W        W92365  29.131  10.646  11.447
22551W        W92366   1.913   4.853   1.699
22552W        W92367   9.162  32.619   3.770
22553W        W92368  14.127   3.921  13.968
22554W        W92369  26.072  30.571  12.083
22555W        W92370  39.418  42.883   2.663
22556W        W92371  29.052  15.772  13.056
22557W        W92372  14.786  14.687  13.501
22558W        W92373   8.708  34.886  11.505
22559W        W92374  14.657  38.364  11.463
22560W        W92375  33.407   9.381   1.846
22561W        W92376  38.432  11.161  10.897
22562W        W92377   0.423  38.027  12.348
22563W        W92378  40.317   5.250  12.859
22564W        W92379  10.700  10.164  13.505
22565W        W92380   7.766  25.020  11.902
22566W        W92381   7.404  26.690  11.545
22567W        W92382  16.257  12.753  10.479
22568W        W92383  25.075   5.886   0.389
22569W        W92384   3.825  40.961  11.087
22570W        W92385  42.453   9.165  14.758
22571W        W92386   2.935   6.341   3.634
22572W        W92387   3.916  33.544   5.227
22573W        W92388  27.546   1.397   0.361
22574W        W92389  37.355  29.154  10.542
22575W        W92390  42.913  24.054  13.435
22576W        W92391   5.730   0.332   4.630
22577W        W92392  42.496   3.435   2.349
22578W        W92393   3.450  26.584   1.840
22579W        W92394  43.864  10.283   1.728
22580W        W92395  40.979  12.186  14.940
22581W        W92396   3.850   1.918   5.315
22582W        W92397  14.606  12.777   5.123
22583W        W92398  26.205  36.015   1.238
22584W        W92399  35.005  37.363   2.663
22585W        W92400  44.268  25.527  12.054
22586W        W92401   0.300  35.854  13.347
22587W        W92402  43.366  33.386  14.372
22588W        W92403  10.816   7.809   0.762
22589W        W92404  33.953  34.057   4.156
22590W        W92405  41.455  14.316  12.874
22591W        W92406   7.254  36.068  12.083
22592W        W92407  18.069  26.536   0.478
22593W        W92408  21.716   8.391  12.875
22594W        W92409  37.991   8.790   0.964
22595W        W92410   5.230   5.874  10.945
22596W        W92411  23.118  25.626  10.462
22597W        W92412  12.267  28.507  10.420
22598W        W92413   4.373  40.842   1.216
22599W        W92414  39.930  14.751   4.315
22600W        W92415  29.156  22.742   3.787
22601W        W92416  36.960  36.534  11.480
22602W        W92417  26.622  39.518   2.197
22603W        W92418  34.548   4.783  13.382
22604W        W92419  42.381   8.180   0.251
22605W        W92420   8.243  17.676  11.503
22606W        W92421   4.449  22.214   0.386
22607W        W92422  21.593  22.186   1.870
22608W        W92423  33.386  33.083   4.281
22609W        W92424  29.634  23.561  13.969
22610W        W92425   3.731  15.722   3.692
22611W        W92426  31.051  25.562   3.241
22612W        W92427  24.043   5.865  12.014
22613W        W92428   5.837  27.088   3.353
22614W        W92429  16.221  23.725   4.631
22615W        W92430  31.462  39.904  11.943
22616W        W92431  35.978  30.641  12.883
22617W        W92432   6.366  27.461  14.875
22618W        W92433  32.902   6.740  11.988
22619W        W92434  37.423  22.090  10.997
22620W        W92435  39.883  16.135   0.445
22621W        W92436  38.405   0.422   1.277
22622W        W92437  37.899  30.579   3.833
22623W        W92438  30.027  43.299  12.926
22624W        W92439  22.594  34.022   4.277
22625W        W92440  18.638   4.878   4.645
22626W        W92441  42.878   2.915   1.718
22627W        W92442  11.745  41.483  10.108
22628W        W92443   1.864  37.017  14.511
22629W        W92444   6.754   5.351   3.281
22630W        W92445   9.874  26.667  10.497
22631W        W92446  19.060  29.929   1.781
22632W        W92447   9.813  24.557   2.825
22633W        W92448   2.862   9.716   1.225
22634W        W92449  31.909  38.825  14.787
22635W        W92450  37.932  33.939  14.895
22636W        W92451  37.955  33.914   0.795
22637W        W92452   5.353   2.293   4.251
22638W        W92453  34.382  13.789  13.360
22639W        W92454  27.130   0.933   3.706
22640W        W92455  21.589  17.207  14.311
22641W        W92456  25.486  25.660   2.743
22642W        W92457  15.639   0.313   2.763
22643W        W92458  27.042   9.700   3.212
22644W        W92459   2.829  11.750   4.676
22645W        W92460  29.466  16.290  12.506
22646W        W92461  12.761  29.063   3.831
22647W        W92462  20.089  31.505  13.332
22648W        W92463   3.723  17.181  14.831
22649W        W92464  33.402  24.648  10.914
22650W        W92465  42.305  39.909   2.773
22651W        W92466   6.306  43.319   4.756
22652W        W92467  12.240  41.481  14.471
22653W        W92468   9.767  17.161   5.610
22654W        W92469  34.031  20.657  13.523
22655W        W92470   2.870  15.713   2.362
22656W        W92471   1.964  36.563   1.805
22657W        W92472  40.492   6.200   1.715
22658W        W92473  40.041   6.736   3.271
22659W        W92474  22.036  25.056   3.806
22660W        W92475  27.116  33.588   1.748
22661W        W92476  35.969  40.392  10.590
22662W        W92477  26.674   3.261  11.564
22663W        W92478  39.943  44.407  13.808
22664W        W92479   9.380  30.468  11.382
22665W        W92480  16.116  12.825   2.236
22666W        W92481   8.171  39.925   3.789
22667W        W92482  23.704  16.597   9.464
22668W        W92483  39.365  14.742  11.972
22669W        W92484   1.263  24.207   4.729
22670W        W92485  44.481   9.792  13.975
22671W        W92486   9.203   7.668   4.630
22672W        W92487  22.651  18.154  14.313
22673W        W92488   7.279  29.430  12.574
22674W        W92489   2.885  39.497  10.513
22675W        W92490  43.775  13.187  11.022
22676W        W92491  38.489  42.842  10.507
22677W        W92492  23.712  37.952  14.975
22678W        W92493  16.211  32.523  14.377
22679W        W92494  35.913  32.968   0.273
22680W        W92495   5.915  12.650   2.885
22681W        W92496  26.089  19.695  12.935
22682W        W92497   6.771  21.201  13.371
22683W        W92498  11.795   4.360   3.847
22684W        W92499  16.667  11.639   0.310
22685W        W92500  18.189  12.724   4.703
22686W        W92501   5.331  23.180   2.891
22687W        W92502  36.001  31.108  14.796
22688W        W92503  13.611  22.091  11.513
22689W        W92504   5.415  31.099   2.699
22690W        W92505  33.004  33.065  10.480
22691W        W92506  17.239  24.660  14.822
22692W        W92507   4.815  13.186   2.403
22693W        W92508  14.303   4.313  12.544
22694W        W92509   5.274  25.104  10.433
22695W        W92510   4.742  12.783   4.788
22696W        W92511  44.943   3.311   0.947
22697W        W92512   4.395   0.779  10.953
22698W        W92513  15.239   4.935  14.990
22699W        W92514  29.450  33.947   4.623
22700W        W92515  17.612   5.299  11.077
22701W        W92516  12.772  16.726   2.899
22702W        W92517  29.571  27.620   4.282
22703W        W92518  13.633   7.171  14.461
22704W        W92519  41.493  39.468   4.235
22705W        W92520  34.099   8.217   4.811
22706W        W92521  42.480  33.031   1.236
22707W        W92522  43.837  25.100  14.957
22708W        W92523  31.108  23.560   0.416
22709W        W92524  37.077   9.347   0.304
22710W        W92525   9.867  42.871  14.956
22711W        W92526   6.900  34.421  14.942
22712W        W92527  33.493  16.639  11.988
22713W        W92528   1.445  24.696   4.836
22714W        W92529  20.260  11.835   2.244
22715W        W92530  29.096   1.328  10.960
22716W        W92531  38.510   0.970   0.250
22717W        W92532  33.523  12.674  11.536
22718W        W92533  34.945   1.416   3.669
22719W        W92534   2.807  18.582   4.611
22720W        W92535   6.366  40.021  13.796
22721W        W92536   4.811  15.249  14.424
22722W        W92537   8.762   2.825  13.817
22723W        W92538   8.815  15.299   2.190
22724W        W92539  11.269  21.706   4.803
22725W        W92540   1.461  11.194   4.136
22726W        W92541  33.559  40.429   0.825
22727W        W92542  33.882  42.885   0.348
22728W        W92543  39.378  39.930   3.714
22729W        W92544  21.585  41.826  13.840
22730W        W92545  22.730   1.790  13.873
22731W        W92546   9.218  42.952   1.929
22732W        W92547  10.280  12.683   4.618
22733W        W92548  26.136  35.973   1.925
22734W        W92549  18.548  41.436   4.804
22735W        W92550  42.933  14.669   2.709
22736W        W92551  13.220  44.267  13.495
22737W        W92552  33.067  34.878   2.263
22738W        W92553   0.386  28.028   2.753
22739W        W92554   5.783  37.850   1.697
22740W        W92555  29.995  15.807  12.891
22741W        W92556  17.185  16.590  10.984
22742W        W92557  25.597  38.338   1.850
22743W        W92558   1.350  32.079   4.786
22744W        W92559  31.909  26.574   5.135
22745W        W92560  22.031  31.402  11.594
22746W        W92561  20.182  32.411  14.823
22747W        W92562  41.970   9.274  14.844
22748W        W92563  13.251   3.280   1.804
22749W        W92564  44.319  44.990  13.926
22750W        W92565  13.799  43.823   1.221
22751W        W92566  43.283  16.247  14.940
22752W        W92567  40.528   2.763   0.354
22753W        W92568  43.806  11.367  10.450
22754W        W92569  40.013   1.963   0.735
22755W        W92570  14.603  15.260   1.386
22756W        W92571   0.827  43.346  14.765
22757W        W92572  30.507  10.138  12.033
22758W        W92573  33.994  34.006  14.827
22759W        W92574  40.984  11.788   3.688
22760W        W92575  33.942  14.294  11.376
22761W        W92576   9.351   3.713  11.380
22762W        W92577  38.052  16.232   1.861
22763W        W92578  41.863  13.242   0.748
22764W        W92579  43.824  27.619  13.063
22765W        W92580   1.306  20.736   2.305
22766W        W92581  43.913  14.763  10.903
22767W        W92582  14.206  31.128  10.639
22768W        W92583  23.633  19.567   4.800
22769W        W92584  21.621  24.046   3.664
22770W        W92585  41.309  30.004   4.144
22771W        W92586  41.950  28.590   4.780
22772W        W92587   0.927  37.463   0.302
22773W        W92588  38.931  29.643  14.421
22774W        W92589   7.350   7.294   4.212
22775W        W92590  15.297   8.215   2.886
22776W        W92591  37.854  11.312  11.900
22777W        W92592  39.367  20.690   3.188
22778W        W92593  35.064  44.949  10.568
22779W        W92594   5.379   5.217  14.508
22780W        W92595  19.115   6.288   1.274
22781W        W92596  11.791  16.568   2.368
22782W        W92597  37.375  39.994   2.805
22783W        W92598   2.960  22.677  11.603
22784W        W92599  33.927  39.946   2.684
22785W        W92600  41.930  33.021   4.737
22786W        W92601  25.594   8.856   2.352
22787W        W92602  17.180   0.368  11.918
22788W        W92603   5.256  12.844   3.267
22789W        W92604  38.866  39.863  12.834
22790W        W92605   2.763  15.142  13.037
22791W        W92606  10.727  28.451   0.283
22792W        W92607   9.284  15.593  14.986
22793W        W92608   7.850  23.157  14.357
22794W        W92609  30.446  36.412  10.640
22795W        W92610   4.332   6.251   4.166
22796W        W92611   1.460  24.488   2.760
22797W        W92612  42.305  22.699   2.681
22798W        W92613  41.853  44.973   3.673
22799W        W92614   9.786  40.806   5.128
22800W        W92615  32.503   0.308  11.444
22801W        W92616  11.141  27.673   1.774
22802W        W92617  17.195  27.975   3.146
22803W        W92618   3.384   2.401  10.587
22804W        W92619  39.931   8.313   4.611
22805W        W92620  14.801  14.595   0.864
22806W        W92621  26.003  21.249  10.952
22807W        W92622  17.562  37.042  14.765
22808W        W92623  10.249  40.454  13.816
22809W        W92624  25.055   6.748  13.495
22810W        W92625  21.647  43.951   4.252
22811W        W92626  30.952  34.576   2.267
22812W        W92627  37.875  35.433   3.821
22813W        W92628  22.077  31.064   2.735
22814W        W92629  33.917  38.379  11.583
22815W        W92630  35.449  18.702   2.675
22816W        W92631  37.953  43.466  12.917
22817W        W92632  31.112  26.498   3.646
22818W        W92633   1.801  27.519  11.587
22819W        W92634   0.840  22.236  11.488
22820W        W92635  15.128  24.994  14.412
22821W        W92636   9.867  25.632  11.106
22822W        W92637  14.675  34.095   1.839
22823W        W92638  11.632  42.353   0.443
22824W        W92639  37.563  33.566   2.797
22825W        W92640  43.367  40.515   0.276
22826W        W92641  23.543   2.935  11.442
22827W        W92642   5.728  41.965   1.210
22828W        W92643  10.768  27.651   2.371
22829W        W92644  36.847  17.703   4.610
22830W        W92645  39.039   8.288  11.487
22831W        W92646   2.472  15.738   2.213
22832W        W92647   8.804  25.182  10.470
22833W        W92648  39.461  32.139   3.227
22834W        W92649  17.722  16.725  11.460
22835W        W92650  40.830  13.239   2.322
22836W        W92651  20.741   1.787  12.538
22837W        W92652   2.786  21.210  13.058
22838W        W92653  23.059   4.351   4.216
22839W        W92654   8.365  43.897   0.832
22840W        W92655  15.202  37.877  12.387
22841W        W92656  44.812  43.898   2.825
22842W        W92657  28.515   9.861   0.964
22843W        W92658   3.714  10.808  14.321
22844W        W92659   3.439   2.284  11.965
22845W        W92660  10.708   0.915  14.293
22846W        W92661  24.122  15.628   4.200
22847W        W92662   7.907   3.853   0.261
22848W        W92663  40.429  40.913   0.338
22849W        W92664  23.682   7.405   0.742
22850W        W92665   3.839  36.911   2.668
22851W        W92666   7.398  14.216  10.516
22852W        W92667   6.405  43.902   4.829
22853W        W92668  19.646   3.318   0.925
22854W        W92669  20.590  14.831  12.921
22855W        W92670  11.697  30.919  14.968
22856W        W92671  28.510   6.701  14.815
22857W        W92672  28.181  38.391  10.042
22858W        W92673  30.517   7.311  12.911
22859W        W92674  31.530   8.275   1.878
22860W        W92675  31.446   7.405  11.536
22861W        W92676  39.817  39.463   0.879
22862W        W92677   6.802   3.419   2.208
22863W        W92678  27.458  25.091   5.186
22864W        W92679  26.125  13.737   4.312
22865W        W92680  14.166  38.946   4.702
22866W        W92681  23.128  24.020   3.799
22867W        W92682  43.929  31.034   4.658
22868W        W92683  19.609  20.737  13.863
22869W        W92684  41.809  25.559  12.913
22870W        W92685  25.679  29.441   2.335
22871W        W92686  33.055   1.819   3.804
22872W        W92687  24.514  16.637   5.261
22873W        W92688  21.726  35.551  10.603
22874W        W92689   7.340   2.722   2.290
22875W        W92690  20.239   8.227  12.075
22876W        W92691   8.253  43.403   3.683
22877W        W92692  23.506  34.550  13.484
22878W        W92693  29.096  33.927  13.409
22879W        W92694  23.723  17.089   0.253
22880W        W92695   1.456  23.166   3.360
22881W        W92696  17.687  14.600  10.515
22882W        W92697   3.414   7.674   1.740
22883W        W92698  29.918  30.526  14.382
22884W        W92699  25.584   0.296  14.332
22885W        W92700  34.955  42.484  12.438
22886W        W92701  35.049  34.447   1.743
22887W        W92702  18.784  35.366  10.972
22888W        W92703   4.358   6.291  12.877
22889W        W92704  22.145  12.848   1.729
22890W        W92705  13.187  11.248  13.309
22891W        W92706  19.236  35.498  12.942
22892W        W92707  37.348  24.186   0.916
22893W        W92708  34.945  44.858   1.210
22894W        W92709   2.444  44.451   4.355
22895W        W92710  12.807  42.408   1.292
22896W        W92711  11.729  38.540  11.093
22897W        W92712  27.084  24.974  12.480
22898W        W92713  35.871  34.906   4.775
22899W        W92714  34.404  42.008   1.739
22900W        W92715  32.535  30.472  13.041
22901W        W92716  37.990  35.882  14.337
22902W        W92717  20.768  20.168   1.451
22903W        W92718  24.078  22.715  11.057
22904W        W92719  30.927  31.896   3.190
22905W        W92720  43.808  21.236  14.017
22906W        W92721  17.138  25.647  13.408
22907W        W92722  16.571  35.982  14.780
22908W        W92723  37.042  13.300   1.349
22909W        W92724   5.212  36.977  12.555
22910W        W92725  29.630  30.460   2.214
22911W        W92726  37.350  35.554   3.293
22912W        W92727   4.918  39.025   2.305
22913W        W92728  34.020  25.008  14.387
22914W        W92729  15.097   5.258   1.287
22915W        W92730  13.817  16.097  13.511
22916W        W92731  40.831   0.809   4.670
22917W        W92732  23.985  36.845   3.741
22918W        W92733  25.692   7.880   4.772
22919W        W92734   8.228  25.494   4.823
22920W        W92735   6.210  12.297  14.466
22921W        W92736  16.697  35.449  11.558
22922W        W92737  35.878   5.262   1.314
22923W        W92738  36.024  23.695  14.407
22924W        W92739  43.503   7.808  10.638
22925W        W92740  10.700  19.093   4.248
22926W        W92741  29.919  14.174  10.937
22927W        W92742   2.741   5.760   1.291
22928W        W92743   7.173  33.908   2.267
22929W        W92744  15.206  23.132  10.457
22930W        W92745   6.871  39.051   2.880
22931W        W92746  43.297  17.558  11.386
22932W        W92747  13.629  20.028  14.878
22933W        W92748  13.643   7.823   2.862
22934W        W92749   0.843  14.690  11.882
22935W        W92750  14.321   5.300   2.227
22936W        W92751  33.877  41.398  13.527
22937W        W92752  21.727  11.277  14.837
22938W        W92753  43.349  13.623   1.252
22939W        W92754  14.100   0.389  10.009
22940W        W92755  10.335  11.821   4.601
22941W        W92756  26.494   7.871  13.055
22942W        W92757  22.599   1.302   3.759
22943W        W92758  32.502  22.637   4.785
22944W        W92759   8.334  25.134  12.577
22945W        W92760  32.997  21.067  14.974
22946W        W92761  28.566  16.145   4.748
22947W        W92762  25.506  32.109  14.344
22948W        W92763  13.755   1.400   1.234
22949W        W92764  21.215  30.445  13.352
22950W        W92765  40.332  29.424   4.311
22951W        W92766   7.901  20.080  11.530
22952W        W92767  23.179  28.108  13.967
22953W        W92768  13.632  28.991   1.773
22954W        W92769  37.349   5.902  12.993
22955W        W92770  38.356  17.072  12.957
22956W        W92771  13.314   7.708  13.494
22957W        W92772  30.416   0.784   1.305
22958W        W92773  10.728  10.733   1.763
22959W        W92774  43.327  44.871  11.093
22960W        W92775  42.865  18.086  11.910
22961W        W92776   0.362  21.542   1.252
22962W        W92777  26.496   5.194   3.178
22963W        W92778  22.718  29.572  11.372
22964W        W92779  17.264   4.894  11.989
22965W        W92780  34.992  24.041  12.002
22966W        W92781  32.552  37.461  13.411
22967W        W92782  16.714  31.576   3.828
22968W        W92783  27.654   5.301   1.264
22969W        W92784  26.959  18.089   4.199
22970W        W92785  12.143   1.915   2.736
22971W        W92786  19.196  38.406   4.257
22972W        W92787  11.798  15.324  12.552
22973W        W92788   1.278   7.292  11.059
22974W        W92789  18.745  13.246  12.386
22975W        W92790  20.156  19.172  13.455
22976W        W92791  27.510  21.230   2.403
22977W        W92792  37.549  10.173  13.325
22978W        W92793  23.151  30.469  14.921
22979W        W92794  10.809  24.704   3.656
22980W        W92795  41.343  23.674   4.747
22981W        W92796  26.061  30.141   2.335
22982W        W92797  32.437  31.577  14.931
22983W        W92798  33.920  22.646  13.414
22984W        W92799  43.376  44.312  11.998
22985W        W92800  30.157  44.372   3.319
22986W        W92801   9.672  21.152   0.968
22987W        W92802  30.953  38.995  11.416
22988W        W92803  36.489  41.900   2.243
22989W        W92804  31.640  30.596   0.453
22990W        W92805  19.723  19.659   3.205
22991W        W92806  26.545  33.468  12.381
22992W        W92807  27.187  25.624   4.239
22993W        W92808  15.740   8.178   3.188
22994W        W92809   7.304  38.517  11.552
22995W        W92810   8.663  34.506   0.940
22996W        W92811   5.780  41.405  11.012
22997W        W92812   0.942  24.657  13.829
22998W        W92813  10.666  43.435  12.932
22999W        W92814  28.494  27.640   3.670
23000W        W92815  21.221  15.103   1.439
23001W        W92816  20.054  11.654  10.004
23002W        W92817  11.139  31.101  12.516
23003W        W92818  42.777  19.117  14.818
23004W        W92819  36.907  22.184  10.493
23005W        W92820  30.520  23.099   1.279
23006W        W92821   7.412  32.460  14.847
23007W        W92822  44.266  16.722  12.459
23008W        W92823  13.832  16.738  10.889
23009W        W92824  18.119  11.275   0.757
23010W        W92825   2.323   5.861   3.668
23011W        W92826   4.815  43.013  12.960
23012W        W92827   3.248  10.212   0.363
23013W        W92828  18.132   6.724  13.419
23014W        W92829  13.303  32.049  12.540
23015W        W92830  10.840  14.334   5.297
23016W        W92831   8.760  38.997  13.802
23017W        W92832  24.488   5.787  10.639
23018W        W92833  17.599  11.729   1.873
23019W        W92834  41.911   8.695  12.903
23020W        W92835  20.631  24.630  11.024
23021W        W92836   9.189  10.875   0.910
23022W        W92837  37.366  29.435  10.615
23023W        W92838   6.405   8.690   2.188
23024W        W92839  18.622  26.492   4.161
23025W        W92840  29.940  40.353   3.187
23026W        W92841  30.003  33.534   3.806
23027W        W92842   1.861  21.149   3.166
23028W        W92843  19.593  24.046  14.388
23029W        W92844  20.629  16.645   4.768
23030W        W92845  27.690  42.844  14.008
23031W        W92846  44.853  38.032   2.883
23032W        W92847  38.891   4.241  14.941
23033W        W92848  22.726  14.614  10.955
23034W        W92849   1.247  39.500  12.356
23035W        W92850  15.094  40.338  14.877
23036W        W92851  31.957  38.442  13.539
23037W        W92852  41.835   7.698   1.355
23038W        W92853  14.324  12.233  12.450
23039W        W92854   3.399   2.278   4.824
23040W        W92855   9.359  38.516   3.176
23041W        W92856  12.169   5.296  13.016
23042W        W92857  28.671  29.668  14.351
23043W        W92858  43.388   3.746   2.842
23044W        W92859  34.448  26.978   1.843
23045W        W92860  21.180  30.961   3.798
23046W        W92861  33.124  18.631   2.840
23047W        W92862  34.066   1.372  13.806
23048W        W92863   5.318   5.223  12.392
23049W        W92864  13.197  37.838  10.557
23050W        W92865  35.543  40.821  14.791
23051W        W92866  23.540  22.138   3.234
23052W        W92867  32.603  10.165  13.961
23053W        W92868  28.154  19.062   4.651
23054W        W92869  18.770  32.576  10.939
23055W        W92870  31.134   6.816  10.972
23056W        W92871  10.740  35.865   3.264
23057W        W92872  32.479  19.243   2.357
23058W        W92873  30.136  30.975   3.766
23059W        W92874  16.187  30.520   3.177
23060W        W92875  11.848  21.106  14.877
23061W        W92876  32.960  37.955  10.599
23062W        W92877   6.371  31.926  11.447
23063W        W92878  41.958  39.936  11.034
23064W        W92879  23.689  16.129   2.258
23065W        W92880  13.240  13.203  13.466
23066W        W92881   4.758  31.048   3.785
23067W        W92882   7.775  40.549  11.036
23068W        W92883  32.609  23.569   4.160
23069W        W92884  30.922  34.941  11.044
23070W        W92885  33.981  36.551  14.401
23071W        W92886  25.016  27.486   1.402
23072W        W92887  23.024  41.892  14.972
23073W        W92888   2.839   4.870  14.275
23074W        W92889  32.409  28.594   4.295
23075W        W92890  30.583  16.622  12.476
23076W        W92891   2.761  42.486  10.906
23077W        W92892  13.304  29.105  11.577
23078W        W92893   2.293  23.554   3.302
23079W        W92894  27.498   7.840  12.370
23080W        W92895   9.348  25.005  12.823
23081W        W92896   1.826  31.042   4.646
23082W        W92897  28.645  12.659  12.014
23083W        W92898   5.803   9.307   3.868
23084W        W92899  40.350  31.588   1.815
23085W        W92900  10.207   7.349  10.908
23086W        W92901   6.277   5.933  12.370
23087W        W92902   6.774  33.453  14.344
23088W        W92903  27.132   1.327  12.842
23089W        W92904  33.484  22.625  12.921
23090W        W92905   6.345  23.186  12.554
23091W        W92906  14.309  30.534   3.796
23092W        W92907  41.984  33.943   1.282
23093W        W92908  21.124  10.293   0.849
23094W        W92909  28.990  44.977   3.634
23095W        W92910  36.909  43.779  12.572
23096W        W92911  32.615  35.994   2.210
23097W        W92912  43.949   0.954   0.384
23098W        W92913  34.926  32.058  14.419
23099W        W92914  39.509   9.210  12.517
23100W        W92915  21.117  13.186  11.879
23101W        W92916  20.078  16.588   1.270
23102W        W92917   6.678  38.869  10.492
23103W        W92918  33.510   3.887   4.791
23104W        W92919  36.453  17.220   2.699
23105W        W92920  33.946   3.280   0.890
23106W        W92921  20.579  29.921   0.368
23107W        W92922  16.181  42.926  14.342
23108W        W92923  20.597  16.316  11.394
23109W        W92924  14.134  15.695   1.429
23110W        W92925   8.733  21.124  11.526
23111W        W92926  27.556  27.641  12.893
23112W        W92927  13.739   1.739  10.632
23113W        W92928  43.346  25.697  13.496
23114W        W92929  43.939  12.722  13.480
23115W        W92930  24.621  13.329   3.765
23116W        W92931  37.568   4.327   4.705
23117W        W92932  27.062   9.309   1.760
23118W        W92933  31.626  13.179  13.498
23119W        W92934  43.393  15.214  11.018
23120W        W92935  23.510  24.694   4.229
23121W        W92936  20.689   2.954  11.917
23122W        W92937  26.095  29.528   2.808
23123W        W92938  25.095  32.613  10.902
23124W        W92939   0.819  18.748   1.376
23125W        W92940  39.043  19.217  12.920
23126W        W92941  28.098  38.958   4.286
23127W        W92942   7.697   0.428   0.480
23128W        W92943  26.083   9.664  14.018
23129W        W92944  42.284   3.814   1.729
23130W        W92945  41.792   1.449   4.777
23131W        W92946  30.098  15.749  14.904
23132W        W92947  19.757  28.506   1.919
23133W        W92948  23.075  19.635  13.845
23134W        W92949  19.052  44.994  13.356
23135W        W92950   3.248  43.863  11.586
23136W        W92951  33.492   3.368   3.659
23137W        W92952  23.608  18.176  14.876
23138W        W92953  11.347  34.370  14.003
23139W        W92954  25.471   6.248   0.961
23140W        W92955  40.534  10.138  11.028
23141W        W92956  22.561  12.616  12.866
23142W        W92957   7.736   7.756   3.251
23143W        W92958  24.510  40.334   5.110
23144W        W92959  14.742  42.003   2.265
23145W        W92960  15.746  33.922   2.338
23146W        W92961   6.410  16.766   1.907
23147W        W92962  10.229  26.999   4.219
23148W        W92963   1.893  40.393   2.384
23149W        W92964   5.917  26.578  13.878
23150W        W92965  28.483  32.574   3.846
23151W        W92966  33.548  27.044  10.473
23152W        W92967  26.487  12.276   2.863
23153W        W92968   0.842  28.468  14.468
23154W        W92969  10.781  22.727   0.811
23155W        W92970  35.519  33.496   1.417
23156W        W92971  33.062  35.579   0.398
23157W        W92972   8.236  25.503  11.062
23158W        W92973  25.559   8.278   2.887
23159W        W92974  14.608  40.870   0.373
23160W        W92975  16.711  29.582  14.800
23161W        W92976  39.418  13.237  13.818
23162W        W92977  28.663  11.682  13.333
23163W        W92978   2.363  27.139  14.760
23164W        W92979  38.376  39.510   3.847
23165W        W92980   9.383  22.082   0.447
23166W        W92981  10.738  28.533   4.667
23167W        W92982  35.553  11.641   2.702
23168W        W92983  39.450  15.110   3.767
23169W        W92984  32.964  27.550   1.240
23170W        W92985  18.748  40.999  12.434
23171W        W92986  39.461  41.527  12.892
23172W        W92987  30.936  31.431  11.080
23173W        W92988  10.279   3.727   1.289
23174W        W92989  21.233   3.736  13.995
23175W        W92990  29.469  28.065  12.839
23176W        W92991  21.164  44.857   3.685
23177W        W92992  16.810  12.666   2.724
23178W        W92993  36.848   4.320  14.802
23179W        W92994  42.297  17.220   3.765
23180W        W92995  41.850  42.953   1.308
23181W        W92996  11.667   5.897   0.348
23182W        W92997  26.199  10.149   2.814
23183W        W92998  33.566  19.241   3.323
23184W        W92999  32.046   2.236  12.448
23185W        W93000  42.425  41.340  14.329
23186W        W93001   1.964  21.120   3.810
23187W        W93002  21.549  31.502  12.855
23188W        W93003   0.765   6.692  14.392
23189W        W93004  22.589  39.462  12.931
23190W        W93005  38.985  30.577  12.891
23191W        W93006  13.688  42.894  14.022
23192W        W93007  28.523   0.412   0.253
23193W        W93008  41.887  28.124  14.780
23194W        W93009  12.714   4.789   2.291
23195W        W93010   5.687   9.816   4.814
23196W        W93011  31.425  35.906   2.186
23197W        W93012  20.601   7.269   4.222
23198W        W93013   7.296  42.301  10.571
23199W        W93014  34.450  16.242  13.387
23200W        W93015  24.694   1.836   0.868
23201W        W93016   5.886  20.647   4.707
23202W        W93017  18.787  18.188   0.953
23203W        W93018  30.530   9.252   2.365
23204W        W93019   1.287  42.287   0.770
23205W        W93020   8.406  15.312  14.954
23206W        W93021  27.482  24.530   4.752
23207W        W93022   0.813  32.435   4.125
23208W        W93023   0.342  17.193   4.713
23209W        W93024   6.811  42.340   1.336
23210W        W93025  16.097  27.982   0.423
23211W        W93026  37.415  12.724   0.749
23212W        W93027   9.237  23.734   2.854
23213W        W93028   1.786  17.779  14.778
23214W        W93029   8.792  15.200  13.516
23215W        W93030  25.174   9.646   2.834
23216W        W93031  35.413  35.931  13.440
23217W        W93032  36.518  16.210  10.495
23218W        W93033  37.435   2.803  14.909
23219W        W93034  15.594  37.558   2.194
23220W        W93035  36.588  21.628  13.916
23221W        W93036   6.856  27.073  12.472
23222W        W93037  33.957  17.218   1.725
23223W        W93038   4.346   7.344   0.262
23224W        W93039  24.563  30.056  14.874
23225W        W93040  21.634  43.413   5.581
23226W        W93041   7.814   9.151  14.512
23227W        W93042  42.426  18.632   2.716
23228W        W93043   3.405  10.665   4.664
23229W        W93044  30.123   1.480  14.420
23230W        W93045   4.275   0.922   2.861
23231W        W93046  31.572  42.434  10.560
23232W        W93047  18.659  24.084  11.950
23233W        W93048  26.962  20.271   0.829
23234W        W93049  38.473  12.143  13.010
23235W        W93050  19.196  33.879   0.730
23236W        W93051   6.780  17.189   4.727
23237W        W93052  30.438  11.717  11.858
23238W        W93053   2.855  40.434  11.509
23239W        W93054   7.770  29.021  13.441
23240W        W93055  15.620  39.901  14.336
23241W        W93056  10.340  23.045  12.538
23242W        W93057  44.920   3.262  13.513
23243W        W93058  27.000  37.575  14.923
23244W        W93059   4.225   1.398   4.324
23245W        W93060  16.767   0.986  11.447
23246W        W93061  12.676  33.510  13.843
23247W        W93062  39.865  24.090   0.309
23248W        W93063  22.526   4.377   0.774
23249W        W93064  39.433   6.425   0.840
23250W        W93065  27.077   1.970  11.928
23251W        W93066   6.221  18.084   3.292
23252W        W93067  19.728  41.453  14.788
23253W        W93068   9.332   8.318  13.447
23254W        W93069   2.840  13.329   3.868
23255W        W93070  41.517  35.487   4.774
23256W        W93071  13.126  23.643  13.336
23257W        W93072  17.067  11.791  14.318
23258W        W93073   5.412   7.365   3.666
23259W        W93074  21.073  30.162  11.387
23260W        W93075   4.862  23.214   3.702
23261W        W93076  10.762   7.681  11.466
23262W        W93077  13.757  25.510  11.905
23263W        W93078  34.380   1.380  12.053
23264W        W93079  40.970  21.583   2.287
23265W        W93080  25.638  43.450   1.365
23266W        W93081   0.896  11.371  11.422
23267W        W93082  10.747  21.693  10.597
23268W        W93083  37.965  30.042   3.753
23269W        W93084  22.543  24.573   3.240
23270W        W93085  31.942  22.212   4.116
23271W        W93086  39.468  43.296   1.369
23272W        W93087   2.754  17.174   2.275
23273W        W93088  26.192  35.542  10.576
23274W        W93089  26.093  41.301  11.451
23275W        W93090  20.118  28.082   1.794
23276W        W93091  41.952   7.351  12.963
23277W        W93092  10.725  44.309   3.251
23278W        W93093  34.454  34.466  11.907
23279W        W93094  44.817   5.884   1.286
23280W        W93095  27.132  18.703   1.746
23281W        W93096  11.205  40.349   1.415
23282W        W93097   5.217  39.363   3.364
23283W        W93098  28.528  13.180  11.490
23284W        W93099  41.837  40.975   2.381
23285W        W93100  10.196  21.091  11.476
23286W        W93101  33.415  11.301  14.854
23287W        W93102   6.753   1.757  11.063
23288W        W93103   7.876  27.582   3.260
23289W        W93104  33.524   2.735   1.412
23290W        W93105  16.189   7.344  12.377
23291W        W93106  26.954  23.668  14.848
23292W        W93107  32.139  14.103  10.516
23293W        W93108   9.831  18.586   5.297
23294W        W93109  42.894  28.678  12.460
23295W        W93110  15.707  39.824   3.194
23296W        W93111  44.768  35.028  14.944
23297W        W93112  13.258  35.466  14.917
23298W        W93113  37.352  13.839  12.368
23299W        W93114  36.388  20.617  10.606
23300W        W93115   5.415   1.242  14.973
23301W        W93116  11.335  19.068   0.904
23302W        W93117   4.839  44.455  11.115
23303W        W93118  43.279   7.359   0.817
23304W        W93119  29.449  13.696   0.349
23305W        W93120  39.465   6.756  13.879
23306W        W93121  31.134  15.633  13.390
23307W        W93122  41.397  25.706   5.252
23308W        W93123  37.960  32.608   5.214
23309W        W93124  31.643  14.750  13.497
23310W        W93125  24.563  11.319  13.311
23311W        W93126  17.597   5.238   1.244
23312W        W93127  12.621   7.761   4.234
23313W        W93128  35.368  19.700  11.993
23314W        W93129  23.051   3.274   3.338
23315W        W93130   8.811  42.465   4.191
23316W        W93131  38.876  29.043   4.685
23317W        W93132  31.004  42.479  12.400
23318W        W93133  35.979  32.092   5.156
23319W        W93134  30.101  34.011  12.406
23320W        W93135  27.526  38.340  12.418
23321W        W93136  39.948  31.001  10.561
23322W        W93137   1.361  26.649   0.415
23323W        W93138  29.452  28.610   4.652
23324W        W93139  14.804  20.088  11.113
23325W        W93140  17.150  15.329   1.797
23326W        W93141   4.337  33.914  13.831
23327W        W93142  28.052   3.243  12.895
23328W        W93143   5.293  36.921   4.184
23329W        W93144  38.374  13.690   2.178
23330W        W93145  25.684  34.525   2.240
23331W        W93146  40.313  11.334  14.479
23332W        W93147  31.014  36.440  12.006
23333W        W93148  27.186   4.828   2.286
23334W        W93149  21.615  39.974  12.017
23335W        W93150  14.255  38.901   3.224
23336W        W93151  18.569  34.880  12.493
23337W        W93152   0.273  14.292   0.777
23338W        W93153  37.901  14.636  12.828
23339W        W93154  36.382  16.675  11.090
23340W        W93155  35.079   6.754  13.846
23341W        W93156  14.251  35.398   2.802
23342W        W93157  23.103  31.123  14.368
23343W        W93158  28.943   5.265   1.766
23344W        W93159  34.534  25.982  14.516
23345W        W93160   9.329  44.339  14.366
23346W        W93161  10.231   6.283  10.486
23347W        W93162  42.435  13.267   0.944
23348W        W93163  36.469   4.714   2.354
23349W        W93164  29.623  24.499  13.352
23350W        W93165  28.635   9.342   2.871
23351W        W93166   5.730  31.529  14.986
23352W        W93167  44.783  32.409  11.891
23353W        W93168  12.747  35.360   1.751
23354W        W93169   9.158  39.953   3.252
23355W        W93170   7.719  15.251  11.066
23356W        W93171  32.012  13.695  14.431
23357W        W93172  37.838  18.572  11.943
23358W        W93173   1.401  42.452  13.990
23359W        W93174  18.639  27.495   4.602
23360W        W93175  36.073  44.844   3.227
23361W        W93176  16.679  41.513  14.907
23362W        W93177  30.589  41.821  14.900
23363W        W93178  10.234  21.041   2.774
23364W        W93179  20.551  33.492   1.732
23365W        W93180  11.242  36.460  11.904
23366W        W93181  42.934   6.235  14.032
23367W        W93182  18.706  36.453  11.992
23368W        W93183  16.130   6.188  14.030
23369W        W93184  14.618  22.140   0.395
23370W        W93185  12.740  14.253   4.159
23371W        W93186   3.870  42.387  13.833
23372W        W93187  42.941  43.501   1.339
23373W        W93188  28.120   3.292   2.750
23374W        W93189   0.988  28.535   3.235
23375W        W93190  13.651  20.132   3.356
23376W        W93191   4.402  21.023  14.316
23377W        W93192  35.570  36.577   4.266
23378W        W93193  25.203   5.697   4.198
23379W        W93194  36.986  39.885  12.411
23380W        W93195  36.042  24.666   1.908
23381W        W93196  23.592  29.632  14.454
23382W        W93197  33.047  28.940   0.411
23383W        W93198  24.623   9.869  14.799
23384W        W93199   8.843  39.424  12.943
23385W        W93200  33.041  35.095  10.636
23386W        W93201  16.775   5.346   3.819
23387W        W93202   1.449  33.970   1.894
23388W        W93203  34.531   7.375   0.397
23389W        W93204   5.827  18.208  12.018
23390W        W93205  41.811  25.168  10.422
23391W        W93206  42.510   9.833  13.425
23392W        W93207  33.910  22.130  14.872
23393W        W93208  20.596  21.243   0.465
23394W        W93209  24.714  18.236  14.977
23395W        W93210  17.703  18.132  11.042
23396W        W93211  25.174  42.942   3.840
23397W        W93212   2.248  22.009  11.895
23398W        W93213   5.364  20.680  13.012
23399W        W93214  16.595   1.861  12.957
23400W        W93215  39.922   8.391   3.794
23401W        W93216   0.782   7.343  12.351
23402W        W93217   5.850   3.320  13.810
23403W        W93218  35.569  28.137  13.053
23404W        W93219  42.850   0.460   1.895
23405W        W93220  41.324  43.341  13.056
23406W        W93221   1.293  31.525   3.178
23407W        W93222  26.481  18.057   2.196
23408W        W93223  20.760   3.942   4.308
23409W        W93224  44.799  44.808   1.724
23410W        W93225   1.944   7.395   2.801
23411W        W93226  31.591  20.560  12.563
23412W        W93227  11.156   5.302  13.361
23413W        W93228   7.863  25.692  14.466
23414W        W93229  44.322  17.237  13.795
23415W        W93230  43.790  22.642  14.292
23416W        W93231  19.278  18.269  14.923
23417W        W93232  31.112   4.369   0.407
23418W        W93233  14.736  26.054   0.931
23419W        W93234   5.779  10.759  10.626
23420W        W93235  14.773  28.165   4.298
23421W        W93236   4.420  30.045  13.523
23422W        W93237  10.281  17.238   2.748
23423W        W93238   5.358  19.672   4.279
23424W        W93239  30.102  35.853   0.411
23425W        W93240  15.619  21.728   0.863
23426W        W93241  19.557  16.146   1.413
23427W        W93242  42.978  34.539  11.520
23428W        W93243  30.032  44.477  10.414
23429W        W93244  40.372  34.435  10.910
23430W        W93245  29.981  21.627   2.729
23431W        W93246  21.578  39.513   0.761
23432W        W93247  36.531  31.442   2.333
23433W        W93248  12.808   3.291   1.440
23434W        W93249  13.115  37.465   2.710
23435W        W93250   0.847  15.227  14.869
23436W        W93251  21.546  43.974   4.668
23437W        W93252   1.897  38.413   0.400
23438W        W93253  43.420  25.019  13.361
23439W        W93254  39.505  34.948   1.751
23440W        W93255  19.141  33.553   2.359
23441W        W93256   6.820   1.402   4.770
23442W        W93257  39.983  18.096   1.427
23443W        W93258  27.103   8.369  11.973
23444W        W93259  31.562   3.338  11.375
23445W        W93260  43.913  44.495  14.907
23446W        W93261  15.298  16.199  12.345
23447W        W93262  18.583  26.139  13.040
23448W        W93263   4.401  34.057  12.372
23449W        W93264  22.539   4.809  13.969
23450W        W93265  11.179  13.844  11.095
23451W        W93266  22.091   6.202  14.822
23452W        W93267   6.286  19.085  14.899
23453W        W93268  21.171  26.685   0.923
23454W        W93269  16.665  18.070   1.876
23455W        W93270   8.757  30.621   3.752
23456W        W93271   7.320  41.478   1.277
23457W        W93272   3.868  26.145  12.093
23458W        W93273  40.931  28.038  12.358
23459W        W93274  28.525  12.318   3.692
23460W        W93275  13.213  36.043   5.251
23461W        W93276  43.959   6.414  13.827
23462W        W93277   5.750  17.720  14.896
23463W        W93278  42.335  23.985   2.334
23464W        W93279  37.957  41.905  12.032
23465W        W93280   8.717  41.882   5.699
23466W        W93281  17.667  24.626   0.906
23467W        W93282  12.342  43.923   4.716
23468W        W93283  33.515  43.500   2.903
23469W        W93284  39.350  23.702   3.803
23470W        W93285  31.586  23.669  13.475
23471W        W93286  12.714  14.187  14.486
23472W        W93287   0.917   6.225  12.828
23473W        W93288  35.536  31.087  12.568
23474W        W93289  24.484  38.457  11.032
23475W        W93290   9.263  32.427   1.733
23476W        W93291  15.204  26.154   1.831
23477W        W93292  33.623   0.777  11.084
23478W        W93293  18.143  43.482  12.558
23479W        W93294  30.146   5.207   4.639
23480W        W93295  23.995  23.723   4.348
23481W        W93296  27.617  16.137   4.810
23482W        W93297  16.755  20.218   1.778
23483W        W93298   5.881  19.613   0.805
23484W        W93299  19.711   6.905   2.307
23485W        W93300  25.102  27.449   1.859
23486W        W93301   9.674  15.752  13.347
23487W        W93302   3.443  30.003  12.476
23488W        W93303  35.406  13.821  11.538
23489W        W93304  12.752   4.280  13.943
23490W        W93305  12.148  28.665  13.431
23491W        W93306  13.267  26.629   2.750
23492W        W93307  11.861  30.581   4.254
23493W        W93308   9.182  36.550  12.342
23494W        W93309  25.590  38.879   0.274
23495W        W93310  28.966  16.218  14.382
23496W        W93311  40.464  32.521  13.824
23497W        W93312  26.521  42.957  13.876
23498W        W93313  15.316  24.538  12.843
23499W        W93314  26.697  14.823   3.264
23500W        W93315   4.373  23.114  10.634
23501W        W93316  33.058  43.854   1.410
23502W        W93317   5.858  21.120   1.700
23503W        W93318   7.897  19.649   0.439
23504W        W93319   6.386   7.693   2.263
23505W        W93320  26.580  28.602  10.552
23506W        W93321  23.573  34.119   2.707
23507W        W93322  33.614  33.925   2.364
23508W        W93323  32.051  37.414  12.380
23509W        W93324   1.402   0.332  10.574
23510W        W93325  35.908  30.118   4.241
23511W        W93326  26.534   4.371   4.602
23512W        W93327  16.587   3.890  13.815
23513W        W93328  24.589  15.296   2.897
23514W        W93329  42.968   1.474   2.288
23515W        W93330  14.728  32.002  12.463
23516W        W93331  15.590  29.950   3.265
23517W        W93332  25.565   3.445   1.418
23518W        W93333  38.074  21.045  12.957
23519W        W93334  22.680   9.782   4.832
23520W        W93335  37.446  18.118  14.320
23521W        W93336  44.935   3.236  13.944
23522W        W93337  25.696  17.776   0.888
23523W        W93338  16.805  15.752  11.040
23524W        W93339  37.040   9.703  12.404
23525W        W93340  18.694  41.953   3.206
23526W        W93341  33.941  21.639   3.291
23527W        W93342  38.505   2.261  13.541
23528W        W93343  18.659  27.044  10.491
23529W        W93344  41.361  44.792  12.524
23530W        W93345  21.662  44.821   0.753
23531W        W93346  10.657  25.138   1.240
23532W        W93347  15.151   7.372  14.295
23533W        W93348  34.946  36.388   4.650
23534W        W93349  18.239  10.147   0.891
23535W        W93350  13.126  14.614  11.992
23536W        W93351  37.455  17.066   1.849
23537W        W93352  21.204  19.717  14.345
23538W        W93353  19.591  15.094   1.878
23539W        W93354  16.197  10.191   4.743
23540W        W93355  14.294  31.627   4.756
23541W        W93356   4.370  20.596  14.390
23542W        W93357  25.675  11.702   3.172
23543W        W93358  41.416  14.826   9.987
23544W        W93359  19.063  19.050   4.310
23545W        W93360  36.419   2.767  12.825
23546W        W93361  26.078  19.631  14.874
23547W        W93362   1.808  40.821  11.056
23548W        W93363  28.646   5.327   4.351
23549W        W93364  34.440  31.053   2.193
23550W        W93365  29.009  37.010   3.692
23551W        W93366  21.192  14.188  12.041
23552W        W93367  15.725  38.873   5.292
23553W        W93368  40.043   1.784  14.494
23554W        W93369  36.354  25.192  10.609
23555W        W93370  20.545  43.919  14.418
23556W        W93371  33.036  28.945  13.843
23557W        W93372  35.881  35.526   4.247
23558W        W93373   5.327   0.282   3.288
23559W        W93374  44.778   3.954   4.783
23560W        W93375  22.637   5.428   0.342
23561W        W93376  24.054  43.811  14.925
23562W        W93377  32.578  20.208   0.744
23563W        W93378  23.565   9.871  10.487
23564W        W93379  23.640  23.115  14.513
23565W        W93380   8.186  24.570  12.935
23566W        W93381  40.826  35.412   0.877
23567W        W93382   2.348   5.408   0.430
23568W        W93383  26.585  18.772  13.843
23569W        W93384  20.084  36.028   0.326
23570W        W93385  14.695   7.861   0.298
23571W        W93386  11.743   6.236  13.467
23572W        W93387  43.823   6.271   0.259
23573W        W93388  30.417  14.212  12.069
23574W        W93389  40.897  35.404   3.343
23575W        W93390  14.745   4.864  13.535
23576W        W93391   4.445  31.931   2.356
23577W        W93392  11.781  26.073   0.872
23578W        W93393  18.233  20.146  10.470
23579W        W93394  30.521  13.817  14.374
23580W        W93395  40.855  29.657   2.697
23581W        W93396   4.829  24.483  11.957
23582W        W93397  28.161  22.685  10.159
23583W        W93398  30.065  12.122  12.043
23584W        W93399  25.015   6.232  11.957
23585W        W93400  36.965  33.560   2.201
23586W        W93401  13.144  20.620   0.855
23587W        W93402  17.148  14.742   0.864
23588W        W93403   1.846  31.468   0.459
23589W        W93404  37.074  27.485   3.274
23590W        W93405  43.954   3.308  12.861
23591W        W93406   7.216   2.776   4.795
23592W        W93407  37.424  44.809  13.026
23593W        W93408  43.997  27.025   1.921
23594W        W93409   6.297  12.313  13.333
23595W        W93410  23.562  17.627  14.786
23596W        W93411   3.256  43.310   2.759
23597W        W93412   3.326  36.411  10.426
23598W        W93413  13.304  42.354   0.769
23599W        W93414  25.023   2.943  14.293
23600W        W93415   5.282  19.638   2.869
23601W        W93416  42.411   5.361  10.990
23602W        W93417  17.764  31.424   1.244
23603W        W93418  40.962   1.946  14.916
23604W        W93419  27.512   1.736  12.014
23605W        W93420  32.892  31.594  14.927
23606W        W93421   9.188  10.718   3.178
23607W        W93422  34.071  13.157   2.202
23608W        W93423   4.880   6.788   3.304
23609W        W93424  31.095  14.730   1.742
23610W        W93425  44.424   3.896  14.012
23611W        W93426  17.231  33.941   4.238
23612W        W93427  20.596  37.999   2.397
23613W        W93428   7.339   3.379  11.914
23614W        W93429   3.912   7.729  13.545
23615W        W93430   6.408  28.631   3.355
23616W        W93431   8.755  30.439   3.202
23617W        W93432  19.535  15.275   2.828
23618W        W93433  24.177   7.843   1.402
23619W        W93434  22.597   7.886  12.034
23620W        W93435  35.452  30.058   3.679
23621W        W93436  44.326  31.140  12.875
23622W        W93437  34.939  24.682   1.800
23623W        W93438  21.063  20.646  12.858
23624W        W93439   1.946  38.826   2.262
23625W        W93440   3.760   6.801  13.415
23626W        W93441  27.534   9.774   3.219
23627W        W93442   4.919  31.087  14.484
23628W        W93443   9.691  14.654  13.317
23629W        W93444  35.482  35.105  10.939
23630W        W93445  12.809  33.899  13.943
23631W        W93446  21.227   4.889   1.283
23632W        W93447  11.231   6.894   4.656
23633W        W93448  15.085   3.412  12.836
23634W        W93449  14.682  40.874   3.372
23635W        W93450  39.375  25.040   2.211
23636W        W93451  33.128  29.960  12.924
23637W        W93452  17.705   9.255  14.835
23638W        W93453   9.757  37.392  10.899
23639W        W93454   1.381  22.072   2.759
23640W        W93455  38.373  11.730   3.807
23641W        W93456  30.429   7.280  11.918
23642W        W93457   9.274  35.568  12.469
23643W        W93458  38.518   7.352   3.341
23644W        W93459  44.396  14.777  13.410
23645W        W93460  40.359  28.134   9.924
23646W        W93461  13.664  37.384  11.397
23647W        W93462  41.471  12.729   3.755
23648W        W93463   2.424  38.547  14.377
23649W        W93464  25.060  42.388   2.299
23650W        W93465  22.146  23.129  14.886
23651W        W93466   5.847   2.759   3.375
23652W        W93467  44.971  43.800  11.473
23653W        W93468  36.022   0.924   4.200
23654W        W93469  22.106  14.261   3.313
23655W        W93470  20.606  26.989   0.920
23656W        W93471   3.798   8.781   3.213
23657W        W93472  21.723   8.683   5.153
23658W        W93473  36.444  11.753  11.106
23659W        W93474  38.069  38.357   4.834
23660W        W93475  36.983  14.823  13.407
23661W        W93476  41.516  36.077   4.742
23662W        W93477   8.195   3.218  11.991
23663W        W93478   7.795  12.221  12.958
23664W        W93479   2.788  44.864  14.363
23665W        W93480  20.213  11.301   3.295
23666W        W93481   6.213  15.091  12.937
23667W        W93482  36.560  19.193   4.274
23668W        W93483  38.384  11.253  12.349
23669W        W93484  31.420  31.925   0.414
23670W        W93485  30.587  11.780   1.769
23671W        W93486   4.223  29.458   4.618
23672W        W93487  15.672   8.768  11.609
23673W        W93488  16.767  25.500   0.887
23674W        W93489  30.466  44.966  10.898
23675W        W93490  38.468   0.862  14.937
23676W        W93491  14.727  25.514   4.656
23677W        W93492  43.414  40.482  11.867
23678W        W93493  33.897  44.977   3.179
23679W        W93494  26.171   5.700   4.735
23680W        W93495  19.709  18.073   0.384
23681W        W93496   6.334  41.016   0.910
23682W        W93497  28.973  15.099   2.703
23683W        W93498  19.143   8.241  14.400
23684W        W93499  42.803  28.098   3.165
23685W        W93500  37.369  15.681   0.375
23686W        W93501   8.302  30.055  13.976
23687W        W93502  39.409   3.296   5.238
23688W        W93503  30.993   0.927  11.998
23689W        W93504   1.442  35.386  13.464
23690W        W93505  16.743  21.569   2.714
23691W        W93506  39.988  43.834  12.544
23692W        W93507  27.484   7.699   2.245
23693W        W93508   9.761  29.472   3.681
23694W        W93509  18.624  35.380  13.842
23695W        W93510  12.849  38.033  14.482
23696W        W93511   4.335  43.327  14.973
23697W        W93512  42.790  23.113   4.726
23698W        W93513  21.186  29.529  13.540
23699W        W93514  19.076  38.830   1.304
23700W        W93515  29.657   6.902  12.008
23701W        W93516  11.733  12.269  10.125
23702W        W93517   9.703  29.488   0.784
23703W        W93518  11.732  23.654   4.254
23704W        W93519   6.229  18.744  12.413
23705W        W93520  20.085  27.178  12.863
23706W        W93521   5.933  22.104   0.958
23707W        W93522  32.902  38.914   2.741
23708W        W93523  30.108  33.921   1.823
23709W        W93524  12.358  29.135  11.435
23710W        W93525  27.573  20.732  12.841
23711W        W93526   0.848  40.463   0.459
23712W        W93527  29.490  34.585  14.947
23713W        W93528  15.749  32.937  14.027
23714W        W93529  16.072  18.767   2.308
23715W        W93530  18.594   9.177   2.341
23716W        W93531  17.706   5.387  12.068
23717W        W93532  20.223  12.212   4.175
23718W        W93533  30.436  23.103   3.174
23719W        W93534  36.500  27.104   3.148
23720W        W93535  31.623  36.591   4.781
23721W        W93536   7.751  11.196  13.843
23722W        W93537  38.975  11.793  14.922
23723W        W93538  15.758   8.382  10.519
23724W        W93539  32.110  35.891   4.280
23725W        W93540  30.654  33.119   1.767
23726W        W93541  12.243  21.740  14.938
23727W        W93542  12.749   5.212  13.056
23728W        W93543  43.352  32.534   1.218
23729W        W93544  27.637  32.975   0.956
23730W        W93545  35.010   3.857  11.986
23731W        W93546   0.757  39.497   0.785
23732W        W93547  25.683  19.190   3.183
23733W        W93548  26.198  14.594   1.244
23734W        W93549   4.291  24.174  13.000
23735W        W93550  19.715  10.345   4.180
23736W        W93551  31.440   3.415  14.462
23737W        W93552  17.174   6.744  14.955
23738W        W93553   8.831  24.514  14.005
23739W        W93554  22.055  37.936  11.107
23740W        W93555  39.487   0.365  14.793
23741W        W93556  31.029   7.867  12.489
23742W        W93557  31.045   9.692   0.933
23743W        W93558   3.803  17.136   2.267
23744W        W93559  21.116  25.080  10.022
23745W        W93560  44.924  37.362   1.216
23746W        W93561  39.031   9.309  11.527
23747W        W93562   5.893  17.105  14.934
23748W        W93563  20.765  27.478  11.857
23749W        W93564   2.382  20.576   0.903
23750W        W93565   5.699   6.833  14.958
23751W        W93566  34.615  36.409  14.861
23752W        W93567  31.460  41.447  14.368
23753W        W93568  29.128  13.798   0.921
23754W        W93569  30.114  20.118  13.893
23755W        W93570  19.169  44.854   0.838
23756W        W93571  24.161  33.910  10.463
23757W        W93572  31.143   1.760  11.025
23758W        W93573   9.303  26.648  14.830
23759W        W93574   1.787  14.763  11.953
23760W        W93575   5.298  33.012  12.853
23761W        W93576  31.402  11.849   0.894
23762W        W93577  36.039  40.818  14.406
23763W        W93578   8.222  40.918  12.517
23764W        W93579  20.118  16.586   4.751
23765W        W93580  18.097  28.962  14.497
23766W        W93581  14.155   6.384   1.749
23767W        W93582  18.730  15.182  13.917
23768W        W93583   6.330   1.859  13.518
23769W        W93584  19.142  27.010  13.508
23770W        W93585  20.267   2.796   0.369
23771W        W93586  19.644  14.234  14.921
23772W        W93587  16.101  34.878   3.761
23773W        W93588  19.106  42.459   1.916
23774W        W93589  32.943  13.695   2.803
23775W        W93590   6.750  34.492   1.418
23776W        W93591  17.739  34.374   0.480
23777W        W93592  20.166  16.191   3.630
23778W        W93593  17.128  43.333  10.953
23779W        W93594   7.352  44.375  13.032
23780W        W93595   3.950  27.159  13.338
23781W        W93596  16.775   7.305   1.755
23782W        W93597  21.734  34.438   0.285
23783W        W93598  34.065  21.565  11.041
23784W        W93599  29.554  26.496   0.281
23785W        W93600  31.577   2.822   4.670
23786W        W93601  35.495  40.053  11.116
23787W        W93602   1.948  41.523  14.816
23788W        W93603  27.970   5.363  12.563
23789W        W93604  40.948  13.153   9.511
23790W        W93605   3.888  11.863   0.731
23791W        W93606  32.947  41.020  14.319
23792W        W93607  18.572  22.614  10.952
23793W        W93608  16.583  42.473   2.364
23794W        W93609  32.419  44.864   2.835
23795W        W93610   1.944  41.978   1.283
23796W        W93611  26.666   7.868   5.081
23797W        W93612   0.878   8.885   0.242
23798W        W93613  24.086  33.386  11.591
23799W        W93614   2.845   7.200   0.308
23800W        W93615  29.973  12.679   1.387
23801W        W93616   8.371  19.133   0.874
23802W        W93617  41.379  43.430   2.737
23803W        W93618   3.769  43.347  13.921
23804W        W93619  11.743   7.225  10.077
23805W        W93620  33.450  14.311  10.025
23806W        W93621  30.442  33.106  14.772
23807W        W93622  25.696  39.865   0.777
23808W        W93623   9.266  24.037   5.185
23809W        W93624  24.693  44.800   1.236
23810W        W93625   5.330   7.285   2.812
23811W        W93626  42.427  12.120  10.586
23812W        W93627   8.716  39.957   2.183
23813W        W93628   3.268  13.218   5.263
23814W        W93629  16.267  28.028   4.338
23815W        W93630  12.798  43.325   4.177
23816W        W93631   9.237  38.430  11.959
23817W        W93632  21.738  21.567  13.447
23818W        W93633  33.914  37.845  10.540
23819W        W93634  32.562  37.965  14.851
23820W        W93635  16.207  20.617   0.856
23821W        W93636   4.290  43.020  10.527
23822W        W93637  14.144   7.688  11.028
23823W        W93638  12.328  19.049  10.578
23824W        W93639   2.230  21.149  14.437
23825W        W93640  17.271  29.482  10.889
23826W        W93641  16.214  28.136   2.847
23827W        W93642  22.172   7.811  11.953
23828W        W93643  37.470  32.571  10.609
23829W        W93644  15.789  25.206   4.797
23830W        W93645  35.513  21.248  14.029
23831W        W93646   0.803   5.427   4.278
23832W        W93647  14.610  24.008  11.066
23833W        W93648  25.172   2.380  12.073
23834W        W93649  36.586   7.336   3.797
23835W        W93650  41.312  42.495  14.845
23836W        W93651  41.487  23.491  11.595
23837W        W93652  34.392  41.302   4.824
23838W        W93653  20.034  20.590   4.616
23839W        W93654   6.325  19.156   4.599
23840W        W93655  18.101  41.957  10.633
23841W        W93656  14.184  34.097  14.927
23842W        W93657  37.969   8.812   0.365
23843W        W93658  25.532  37.925  13.971
23844W        W93659   3.412  36.451   0.741
23845W        W93660  22.023   1.326  12.867
23846W        W93661   9.823  44.968  14.340
23847W        W93662  42.440  25.207   1.326
23848W        W93663  29.941  16.118   0.383
23849W        W93664  39.484  26.529   1.388
23850W        W93665  32.143  19.562   0.374
23851W        W93666   7.224   1.763   2.410
23852W        W93667   5.784   5.364   0.434
23853W        W93668   8.355   5.400   3.769
23854W        W93669  32.093  10.328   5.169
23855W        W93670  30.068  29.931   0.782
23856W        W93671  34.098  43.876  11.960
23857W        W93672   2.376   2.828   3.241
23858W        W93673  41.472  43.864   1.704
23859W        W93674  42.491  21.218   2.777
23860W        W93675   7.765  31.011   0.260
23861W        W93676  34.014   1.435  12.939
23862W        W93677  27.491   8.335  14.876
23863W        W93678  43.338  32.911   3.184
23864W        W93679   2.809  36.015  13.418
23865W        W93680  12.668  14.624  10.506
23866W        W93681  41.888  40.991  11.554
23867W        W93682  33.974   1.442   3.761
23868W        W93683  38.050   8.264   4.148
23869W        W93684  20.562   3.929   4.755
23870W        W93685  15.263  16.118   1.436
23871W        W93686  44.803  10.705  12.382
23872W        W93687  18.656  27.145  11.893
23873W        W93688  32.403   2.938  11.097
23874W        W93689   7.799  22.130   0.792
23875W        W93690  13.742  41.014   3.801
23876W        W93691  15.610  26.129   1.283
23877W        W93692  10.312  13.644  13.529
23878W        W93693  41.526   7.798   0.794
23879W        W93694   0.894  28.674  11.397
23880W        W93695   8.670  43.414  10.971
23881W        W93696  36.860  14.215  11.459
23882W        W93697   0.373  39.484  11.561
23883W        W93698  37.556   1.477  14.275
23884W        W93699  42.014  15.258   1.869
23885W        W93700  41.838  38.490   1.707
23886W        W93701   4.935  17.279   2.713
23887W        W93702  29.919  30.458  13.999
23888W        W93703   3.790   6.204  12.928
23889W        W93704   6.854  29.097   1.237
23890W        W93705  23.169  37.481  13.849
23891W        W93706  20.615  31.910   1.853
23892W        W93707  17.171  12.351  10.013
23893W        W93708   0.755  35.874  14.320
23894W        W93709  24.132  30.456  11.926
23895W        W93710  25.647  25.694   1.299
23896W        W93711   8.236  28.987   4.698
23897W        W93712  33.955   0.272  11.380
23898W        W93713  28.680  37.084   2.874
23899W        W93714  37.055  43.021  13.859
23900W        W93715   6.230   0.372   2.369
23901W        W93716  44.488   3.849   4.703
23902W        W93717   1.383  38.857   2.240
23903W        W93718  16.290  36.891  11.387
23904W        W93719   8.205   8.699  11.861
23905W        W93720  26.181  37.938  12.512
23906W        W93721  37.571   1.889   0.841
23907W        W93722  41.951  44.768  11.928
23908W        W93723  10.751  14.174   3.310
23909W        W93724  37.430  36.517   2.287
23910W        W93725  34.017  30.922   0.927
23911W        W93726  33.586  14.272   5.263
23912W        W93727  38.511  21.687   2.804
23913W        W93728  26.074  39.933   5.133
23914W        W93729   1.934  41.352   3.154
23915W        W93730   2.454  33.402  10.482
23916W        W93731   5.328  31.552  12.988
23917W        W93732   7.303   3.797  13.878
23918W        W93733  10.309  14.789  10.624
23919W        W93734  24.060  36.567  13.031
23920W        W93735  19.672   6.743  10.575
23921W        W93736  37.900   3.920  11.048
23922W        W93737  15.298  19.757  11.487
23923W        W93738  27.022  24.136  12.974
23924W        W93739  19.241  26.676  14.361
23925W        W93740  44.275   7.882   1.816
23926W        W93741  33.053  40.324  12.823
23927W        W93742  19.685  43.831  11.458
23928W        W93743  11.713   2.315  10.639
23929W        W93744  13.236  29.174   2.392
23930W        W93745  12.744  22.020   3.717
23931W        W93746  43.505  27.557   0.774
23932W        W93747   9.683  11.696   1.842
23933W        W93748  28.447  18.259   3.764
23934W        W93749  43.477  29.089   1.734
23935W        W93750  26.644  31.065   4.211
23936W        W93751   8.661  43.495  12.906
23937W        W93752  22.607  36.494  11.028
23938W        W93753  13.761  28.972  11.946
23939W        W93754  26.477   4.744  11.512
23940W        W93755  33.097   7.837   2.307
23941W        W93756  44.825  37.874  13.026
23942W        W93757  40.885  30.603   0.761
23943W        W93758   5.726  24.513   0.445
23944W        W93759  26.611   0.250   4.223
23945W        W93760  26.031  22.041   0.359
23946W        W93761   7.757   9.841  10.918
23947W        W93762  36.867  33.067  10.644
23948W        W93763   9.865  21.715  14.023
23949W        W93764  14.681  40.495  12.943
23950W        W93765  11.632  38.059  10.490
23951W        W93766  40.367  40.437  12.917
23952W        W93767  14.636  18.728  11.031
23953W        W93768  23.631  31.562  12.895
23954W        W93769  11.356  35.065  12.003
23955W        W93770  13.232   5.707   2.339
23956W        W93771  42.304  40.021  12.400
23957W        W93772  29.055  21.682  11.022
23958W        W93773  39.431  35.400   3.334
23959W        W93774   6.242  36.903   1.874
23960W        W93775   9.888  13.630   4.807
23961W        W93776  13.106  42.401   2.397
23962W        W93777  29.094  26.660  13.953
23963W        W93778   2.844  39.460   0.482
23964W        W93779  29.643   8.892   4.281
23965W        W93780   6.192  35.106  13.315
23966W        W93781  37.058   9.333   4.754
23967W        W93782  40.885  38.831   2.844
23968W        W93783   2.334  40.438  10.017
23969W        W93784  21.024  12.789  14.987
23970W        W93785  15.725  25.492  12.914
23971W        W93786  13.603  27.975   0.371
23972W        W93787  15.136  10.671   0.422
23973W        W93788  26.465  41.494   0.853
23974W        W93789  23.520  38.471   3.177
23975W        W93790   1.251  26.519   1.420
23976W        W93791  42.793   8.364   3.780
23977W        W93792  44.936  21.029   3.675
23978W        W93793  37.022  25.632   3.340
23979W        W93794  41.954   0.949   9.946
23980W        W93795  36.508  30.639   4.674
23981W        W93796   9.379   5.732   2.723
23982W        W93797   7.222  24.043  12.950
23983W        W93798  33.972  29.619  11.398
23984W        W93799  44.001  20.734   0.835
23985W        W93800  39.020   6.314  10.050
23986W        W93801   8.190   5.841  11.987
23987W        W93802  25.050  42.346  11.401
23988W        W93803   0.752  10.362   2.800
23989W        W93804  15.717   5.221   5.194
23990W        W93805  26.551   0.437   0.255
23991W        W93806  20.590  27.179  13.420
23992W        W93807   9.881   9.782   2.821
23993W        W93808  38.900   5.308  10.938
23994W        W93809  41.886   5.705  10.548
23995W        W93810  37.993  41.004  14.948
23996W        W93811  40.952  43.953  12.093
23997W        W93812   5.293  36.437   1.866
23998W        W93813   5.721  15.711  12.535
23999W        W93814  37.844  29.604   2.769
24000W        W93815   4.832   4.936   0.399
24001W        W93816  40.802  43.507   4.239
24002W        W93817  32.529  18.648  12.371
24003W        W93818  34.461  43.449   1.281
24004W        W93819   1.419  12.773  11.575
24005W        W93820  27.953  28.616  10.445
24006W        W93821   1.282  34.877  11.923
24007W        W93822  22.058   0.843  11.530
24008W        W93823  38.970   4.423   2.319
24009W        W93824   3.761  41.302   5.302
24010W        W93825   0.813  35.395   2.868
24011W        W93826  26.991  32.070  12.409
24012W        W93827  39.897  22.034   2.759
24013W        W93828  37.962   5.820  12.028
24014W        W93829  12.269   5.690   1.764
24015W        W93830  43.476   7.769  11.487
24016W        W93831  22.146  11.336  10.975
24017W        W93832  12.742  37.459   3.838
24018W        W93833   4.437   5.866   2.765
24019W        W93834  24.013  29.064  14.850
24020W        W93835  42.391  14.217   3.273
24021W        W93836  22.147  37.959   2.242
24022W        W93837  12.629   4.818  10.482
24023W        W93838   4.409  24.063   4.204
24024W        W93839  27.552   8.162   4.304
24025W        W93840  36.922  19.772  12.544
24026W        W93841  25.032   9.697   5.194
24027W        W93842  29.059  14.251  11.878
24028W        W93843  33.456  13.786   3.264
24029W        W93844  41.428   2.884   0.356
24030W        W93845  18.271  24.584  11.959
24031W        W93846  14.169  25.469  11.994
24032W        W93847  43.399  32.458  10.906
24033W        W93848  23.104  44.279  12.555
24034W        W93849  24.583  14.274  14.793
24035W        W93850  22.523  37.942  13.829
24036W        W93851  36.416  19.215  14.910
24037W        W93852  38.357  23.996  11.440
24038W        W93853  43.438   9.218  13.798
24039W        W93854  31.998  25.700   5.148
24040W        W93855  33.551   2.253   3.215
24041W        W93856  16.165  38.976  12.008
24042W        W93857  39.939  17.643   0.741
24043W        W93858  18.702  33.530  14.284
24044W        W93859  35.494  25.107  11.607
24045W        W93860  33.485  18.198   1.722
24046W        W93861  16.154  10.324  14.940
24047W        W93862  34.453  30.100   1.210
24048W        W93863  22.105  16.264  14.907
24049W        W93864  18.600  11.643   4.218
24050W        W93865  28.457  32.531   0.819
24051W        W93866   5.206   1.477  13.377
24052W        W93867   0.760  19.537  14.908
24053W        W93868  19.721  12.703  12.480
24054W        W93869  16.680   0.404   3.687
24055W        W93870  31.458  42.939   0.729
24056W        W93871  14.607   9.658   2.332
24057W        W93872   3.351  20.566   2.217
24058W        W93873  30.556  31.625   4.271
24059W        W93874  28.153  15.776   1.356
24060W        W93875   5.760   2.762   2.811
24061W        W93876  30.066  36.496  11.613
24062W        W93877  32.619  44.359  14.505
24063W        W93878   3.417  40.468   5.286
24064W        W93879   0.332  29.481  11.892
24065W        W93880   7.772  43.463  13.957
24066W        W93881  37.450  33.606   1.757
24067W        W93882  33.076  26.545   4.130
24068W        W93883  10.224  37.576   2.741
24069W        W93884   4.708  37.426  11.875
24070W        W93885  40.511  14.790   0.355
24071W        W93886  14.626  15.820   1.447
24072W        W93887  33.445  31.439   1.700
24073W        W93888  10.266  24.212   0.249
24074W        W93889  16.120  26.030   3.781
24075W        W93890   0.454  43.932   1.702
24076W        W93891  39.338  25.212  14.918
24077W        W93892  44.459  27.602  13.875
24078W        W93893  44.945   5.705   0.881
24079W        W93894  28.165  32.106   5.125
24080W        W93895  31.050  16.593  10.479
24081W        W93896   2.361   8.760   0.947
24082W        W93897  34.012  34.398  14.479
24083W        W93898  25.623  15.293   0.800
24084W        W93899  13.336  35.107   0.828
24085W        W93900   0.916  26.634   0.804
24086W        W93901  26.199  31.914   0.835
24087W        W93902   1.297  25.176  14.891
24088W        W93903  19.145  13.695   4.714
24089W        W93904  16.225  22.520   1.859
24090W        W93905  43.863  36.516  11.902
24091W        W93906  28.972   1.289   1.401
24092W        W93907  23.654  32.393   1.787
24093W        W93908   9.232  27.063   2.366
24094W        W93909  32.066  40.839   2.359
24095W        W93910   3.371  20.073   0.320
24096W        W93911  35.495  37.424  11.887
24097W        W93912  38.472  23.989   4.248
24098W        W93913  31.899   9.695  14.485
24099W        W93914  31.438  33.940   2.880
24100W        W93915  16.079  41.974   4.811
24101W        W93916   6.811  13.620   4.222
24102W        W93917  14.790  32.492   0.794
24103W        W93918  13.841   0.801   4.816
24104W        W93919   4.787  14.719   4.648
24105W        W93920  16.108  27.112   1.274
24106W        W93921  42.022  38.889   2.269
24107W        W93922  13.341   4.326  10.570
24108W        W93923  16.223  22.186  13.901
24109W        W93924  28.934  10.298   4.820
24110W        W93925  23.082  28.474   2.680
24111W        W93926  17.651  40.305  11.487
24112W        W93927   3.715   9.791   3.813
24113W        W93928  11.660   7.754   2.202
24114W        W93929  20.193  42.384  14.917
24115W        W93930  34.599  30.996   1.424
24116W        W93931  25.128  22.187   2.257
24117W        W93932  33.625  37.053  10.036
24118W        W93933   9.889  12.615   3.774
24119W        W93934  17.161  40.508   4.276
24120W        W93935  23.608  13.776   1.234
24121W        W93936  32.965  29.552   3.789
24122W        W93937  16.595  32.615  12.827
24123W        W93938  23.649   6.729   1.426
24124W        W93939  17.740  28.111  12.967
24125W        W93940  14.238   3.931  10.494
24126W        W93941   3.881  11.354  14.895
24127W        W93942  41.307  40.345  12.955
24128W        W93943   9.153  20.219  10.924
24129W        W93944  20.047  34.107  13.063
24130W        W93945   7.365  39.416  14.343
24131W        W93946  20.035  43.514   3.261
24132W        W93947  15.324  13.280  13.798
24133W        W93948   2.821  10.193   3.657
24134W        W93949  25.205  43.870  11.533
24135W        W93950   7.205  34.075   1.774
24136W        W93951  25.654  19.778  14.877
24137W        W93952  27.990  15.160  14.026
24138W        W93953  11.732  41.862  13.966
24139W        W93954  18.668  33.875   1.779
24140W        W93955  28.501   6.872  12.046
24141W        W93956  31.551   4.845   3.231
24142W        W93957   5.821  11.209   0.816
24143W        W93958  35.554  16.262  14.889
24144W        W93959  33.578  32.086   0.769
24145W        W93960   6.290  23.136  14.922
24146W        W93961   9.302  38.832   2.704
24147W        W93962  15.680  23.176   2.378
24148W        W93963   6.421  34.501  14.869
24149W        W93964  36.516  23.088  10.581
24150W        W93965  44.757   0.772   9.979
24151W        W93966  30.544  21.667  13.990
24152W        W93967  30.011   6.813   0.389
24153W        W93968  31.054  15.697  10.049
24154W        W93969  32.523  10.719  14.836
24155W        W93970  16.216  34.974  11.473
24156W        W93971  19.580  28.108   3.677
24157W        W93972  21.100  11.264  14.831
24158W        W93973  28.591  17.575  14.930
24159W        W93974   5.712  16.095  11.409
24160W        W93975  34.044   4.730  13.895
24161W        W93976  19.201   2.782   0.828
24162W        W93977  41.865  14.237   1.769
24163W        W93978  38.922  12.213   1.720
24164W        W93979  23.530  33.982   3.378
24165W        W93980  12.625  15.189  14.873
24166W        W93981  19.104  10.733  13.547
24167W        W93982   6.756  20.178  14.024
24168W        W93983  15.649   5.804   2.263
24169W        W93984   9.254  10.158  14.811
24170W        W93985   9.682  41.971   2.860
24171W        W93986   1.943  21.202  11.979
24172W        W93987  41.838  23.146   2.822
24173W        W93988  24.225  27.949  11.392
24174W        W93989  24.087  18.063   4.118
24175W        W93990  11.178  30.913   1.919
24176W        W93991  27.950   0.766  14.461
24177W        W93992  36.925  33.917   4.345
24178W        W93993   8.277  15.818   1.838
24179W        W93994   0.403  44.899   2.326
24180W        W93995  27.112  16.751  14.275
24181W        W93996  26.503  40.879   0.356
24182W        W93997  32.397  39.849   3.752
24183W        W93998  17.100  15.736   1.284
24184W        W93999  33.437  26.963   0.466
24185W        W94000  32.941  35.929   0.450
24186W        W94001  23.608  24.996  11.405
24187W        W94002  23.047  29.038  10.578
24188W        W94003  28.661  33.043   3.290
24189W        W94004  27.973  24.112   2.813
24190W        W94005  29.941  41.506   3.337
24191W        W94006  33.497  14.655   2.764
24192W        W94007   4.333   2.308   4.125
24193W        W94008  12.136  14.149  11.126
24194W        W94009   1.431   7.243  12.500
24195W        W94010  23.109  14.756   3.257
24196W        W94011  15.136  25.210  11.938
24197W        W94012  28.584  38.871   1.892
24198W        W94013  23.210  37.949  11.379
24199W        W94014  26.481  40.978   5.183
24200W        W94015  28.134  19.067  11.968
24201W        W94016  35.549  41.951  13.814
24202W        W94017  23.046  29.571   4.816
24203W        W94018  34.109   2.931   2.404
24204W        W94019  36.546  21.528  11.114
24205W        W94020  11.865  21.088   3.653
24206W        W94021  17.150   4.404   4.705
24207W        W94022  24.006  18.110   3.181
24208W        W94023   3.225   0.412   0.783
24209W        W94024  36.025  38.945  11.601
24210W        W94025   3.256  18.139  12.870
24211W        W94026   3.881  24.007   2.200
24212W        W94027  44.941  22.711   0.953
24213W        W94028  26.053  33.973   2.242
24214W        W94029  23.518   5.367   2.407
24215W        W94030  14.200  29.979   1.713
24216W        W94031  42.015  11.144  10.977
24217W        W94032   7.397  26.091   4.802
24218W        W94033   7.717  23.730   1.230
24219W        W94034  37.883  12.173   2.287
24220W        W94035   0.358  31.977  14.331
24221W        W94036  22.049  38.943   0.732
24222W        W94037  15.139   7.900   0.393
24223W        W94038  42.370  38.985   3.701
24224W        W94039  15.200  26.981  10.464
24225W        W94040  35.019  37.020  12.960
24226W        W94041  12.284  44.886  10.889
24227W        W94042  25.525  17.608  14.373
24228W        W94043  35.092  30.478  12.904
24229W        W94044  15.208  30.643  13.852
24230W        W94045  27.545  29.166  12.452
24231W        W94046   1.420   1.356  12.452
24232W        W94047   1.962  21.643   1.270
24233W        W94048  20.618  22.630  12.510
24234W        W94049  25.478  10.213  12.042
24235W        W94050  13.177  35.537   3.283
24236W        W94051  34.985   4.844  14.445
24237W        W94052  24.677   4.804  11.952
24238W        W94053  40.543  41.937  12.432
24239W        W94054  26.577   4.832  10.933
24240W        W94055  33.946  26.534   2.836
24241W        W94056   1.302  43.933   3.674
24242W        W94057  30.645   5.402   0.265
24243W        W94058  26.207   2.416  12.568
24244W        W94059  34.041  30.427   0.777
24245W        W94060  14.232  38.839   0.957
24246W        W94061   4.903  21.067   1.905
24247W        W94062  13.321  33.623  14.477
24248W        W94063  33.507  26.458  14.000
24249W        W94064   1.806   1.280   0.775
24250W        W94065  44.768  14.734  14.029
24251W        W94066   0.326  40.506  12.081
24252W        W94067  42.286  10.846  12.053
24253W        W94068   0.926   9.790   4.348
24254W        W94069  33.406   0.365   4.297
24255W        W94070  27.032  12.815   3.384
24256W        W94071   2.936  32.025  14.435
24257W        W94072  25.188   0.825   1.447
24258W        W94073  12.852   5.422  13.516
24259W        W94074   4.283  25.584  14.025
24260W        W94075  27.134  12.770  12.921
24261W        W94076   2.761   8.668  14.943
24262W        W94077  24.986  22.699  11.507
24263W        W94078  27.632  27.069  11.503
24264W        W94079  44.329   1.848  10.990
24265W        W94080  27.610  25.687   1.352
24266W        W94081  24.092  18.592   0.290
24267W        W94082  21.749  40.954  14.969
24268W        W94083  25.125  21.069   4.764
24269W        W94084  11.230  30.922  11.990
24270W        W94085  13.165  34.941   1.440
24271W        W94086  40.811   8.282  12.914
24272W        W94087  32.065  18.228  13.841
24273W        W94088  31.078  31.980  13.058
24274W        W94089   9.741  28.621  14.893
24275W        W94090  11.827  33.497  12.015
24276W        W94091  23.121  37.933  11.035
24277W        W94092  26.626  17.563   3.768
24278W        W94093  26.517  33.388   4.704
24279W        W94094  41.315   3.791  11.408
24280W        W94095  15.725   5.710   4.665
24281W        W94096  40.545  31.639  10.433
24282W        W94097  39.498   9.745   0.434
24283W        W94098  29.527   8.680   4.699
24284W        W94099  34.977  43.017  12.055
24285W        W94100  25.066  14.268  12.014
24286W        W94101  40.879   6.750  12.369
24287W        W94102  22.124  35.504   4.301
24288W        W94103  21.674  21.726  11.963
24289W        W94104   4.305  11.162   2.346
24290W        W94105  21.556   1.314   2.344
24291W        W94106  34.584  24.509  11.100
24292W        W94107  16.709   7.760   2.335
24293W        W94108  37.410  44.857   4.736
24294W        W94109  21.752  29.017  13.030
24295W        W94110  39.355  40.025  12.063
24296W        W94111  17.657  16.113  14.946
24297W        W94112  27.609  12.261  11.543
24298W        W94113   5.409  42.778  14.019
24299W        W94114  44.803  12.773   4.748
24300W        W94115  13.801   2.348  11.080
24301W        W94116   8.396  34.965  12.564
24302W        W94117  35.864  11.667  11.445
24303W        W94118  40.532  34.475   1.855
24304W        W94119  12.229  23.041  14.384
24305W        W94120  27.172  24.169   1.754
24306W        W94121  36.575  29.480   3.869
24307W        W94122  33.438   9.310  12.907
24308W        W94123  41.825   3.367  10.156
24309W        W94124  41.965  36.888  11.062
24310W        W94125  23.171  26.103   0.946
24311W        W94126  14.221   4.271  13.812
24312W        W94127  25.031   0.817   0.446
24313W        W94128  33.462  18.751   4.641
24314W        W94129  17.713  19.720   0.940
24315W        W94130  11.310  22.623   0.727
24316W        W94131  17.667  19.622  12.531
24317W        W94132  11.186  16.218   0.900
24318W        W94133  12.646  26.568  11.966
24319W        W94134  16.249  35.402  11.018
24320W        W94135  10.337  36.087  11.991
24321W        W94136  20.755   6.830   2.255
24322W        W94137  21.731  22.743   4.143
24323W        W94138  12.200  28.438   1.332
24324W        W94139  18.176  17.711   1.265
24325W        W94140  21.209  35.487  11.007
24326W        W94141  31.906  11.692  13.330
24327W        W94142  10.234  24.094   0.890
24328W        W94143  39.549  27.601   0.251
24329W        W94144  15.109  30.644   3.756
24330W        W94145   6.231  20.066  10.642
24331W        W94146  31.005  44.992  10.602
24332W        W94147  37.532   5.689   0.408
24333W        W94148  30.546  14.657  12.887
24334W        W94149  17.604   9.722   1.422
24335W        W94150   4.939  26.010   1.907
24336W        W94151  14.323  27.546  13.824
24337W        W94152  34.966  17.684  14.363
24338W        W94153  29.986  15.719   3.653
24339W        W94154  14.633  38.344   4.160
24340W        W94155  29.988  39.940  10.413
24341W        W94156   5.396  38.414  10.968
24342W        W94157  14.728  17.555   1.718
24343W        W94158  28.476  31.088  14.944
24344W        W94159  15.626   0.831   9.976
24345W        W94160  20.143  33.876  14.913
24346W        W94161  28.444   4.832  14.405
24347W        W94162   3.297  22.187  12.840
24348W        W94163  22.577  40.471   4.708
24349W        W94164   9.672  19.759   2.797
24350W        W94165  44.935   8.302   2.204
24351W        W94166   3.815  20.202   2.270
24352W        W94167  10.814   0.456  14.769
24353W        W94168  14.323  36.952   2.874
24354W        W94169  29.576  10.838   3.673
24355W        W94170  40.993  24.057  11.066
24356W        W94171  13.332  11.166  12.967
24357W        W94172  39.480  42.523  14.493
24358W        W94173  41.906   1.395  11.997
24359W        W94174  38.946  36.051   4.332
24360W        W94175  24.601  26.622  10.615
24361W        W94176  28.138   3.888  12.468
24362W        W94177  21.576  24.038  10.451
24363W        W94178  32.943   9.814  12.901
24364W        W94179  11.648  23.042  11.491
24365W        W94180  23.089  25.584   1.378
24366W        W94181  14.787  11.145   1.725
24367W        W94182  23.085   2.431   4.200
24368W        W94183  19.183  28.961   1.716
24369W        W94184  11.744  19.646   4.717
24370W        W94185  24.665  37.466  12.375
24371W        W94186  34.065   2.286  13.377
24372W        W94187   0.953  37.036  11.898
24373W        W94188  31.631   6.854   1.388
24374W        W94189  35.864  41.445  11.527
24375W        W94190  39.892  26.078   1.706
24376W        W94191  28.069  18.205  12.851
24377W        W94192   2.918  14.151  13.320
24378W        W94193  10.157  21.679  10.414
24379W        W94194  16.589  16.160   0.359
24380W        W94195  43.429  38.359   0.380
24381W        W94196  17.150  40.361  12.425
24382W        W94197  18.242   7.396  14.322
24383W        W94198   7.812   3.307  14.986
24384W        W94199  34.987   5.262  13.526
24385W        W94200  29.426  43.807   2.734
24386W        W94201  20.767  16.131  14.387
24387W        W94202  12.331  15.616  14.922
24388W        W94203  14.117  34.932   3.644
24389W        W94204  36.908  32.071  11.959
24390W        W94205  29.486  26.461   3.166
24391W        W94206  17.700  11.790  11.857
24392W        W94207  18.663  19.674   1.729
24393W        W94208  22.203  36.884   0.381
24394W        W94209  33.968  14.642   0.938
24395W        W94210  33.908  36.482  11.480
24396W        W94211  36.906  24.169  10.438
24397W        W94212  21.536  19.587   2.896
24398W        W94213  39.497  35.458   3.646
24399W        W94214  39.844  27.504  14.855
24400W        W94215  16.231   4.718  13.959
24401W        W94216  18.273  30.007  13.945
24402W        W94217  16.636  33.009   2.814
24403W        W94218  23.035  17.067  13.331
24404W        W94219   6.329   0.342  13.463
24405W        W94220  34.090  11.698   3.787
24406W        W94221  32.090  38.940  12.030
24407W        W94222   2.327   1.378  11.122
24408W        W94223  17.116  25.031  10.435
24409W        W94224  10.702  23.127   0.407
24410W        W94225  43.351  14.659  14.462
24411W        W94226  43.449  34.596   2.285
24412W        W94227  36.945  13.711  14.881
24413W        W94228  43.824  31.899   2.335
24414W        W94229   4.698   9.807  13.504
24415W        W94230   9.393   6.212  10.937
24416W        W94231   9.674  12.853  11.980
24417W        W94232  16.139  17.704   0.796
24418W        W94233   7.787  12.683   1.244
24419W        W94234  15.582  32.437  12.349
24420W        W94235  22.133  23.217   3.664
24421W        W94236  28.987  26.055   3.824
24422W        W94237   6.197  11.225   1.872
24423W        W94238   6.419  40.051   0.369
24424W        W94239   3.851   6.787  11.474
24425W        W94240  25.162  24.033  12.031
24426W        W94241   3.256  12.761   2.787
24427W        W94242  36.524  34.092   0.388
24428W        W94243  27.092  36.511   1.733
24429W        W94244   3.421  19.687  13.012
24430W        W94245  32.907  21.169   4.220
24431W        W94246   5.282  19.544   1.751
24432W        W94247  28.567  19.154  13.345
24433W        W94248  10.729  25.976   0.321
24434W        W94249  25.540   5.220  12.553
24435W        W94250   9.355  25.571   3.697
24436W        W94251  30.548   4.869  12.438
24437W        W94252   5.727  14.727   2.776
24438W        W94253   2.726  19.687   3.681
24439W        W94254  10.728   9.292   1.932
24440W        W94255  24.166  18.554   5.206
24441W        W94256  12.344  20.600   1.370
24442W        W94257  31.615   1.274   4.805
24443W        W94258  35.530  44.464   2.211
24444W        W94259  35.971   3.303  13.447
24445W        W94260  16.594  18.560  13.373
24446W        W94261  15.731   4.258  10.032
24447W        W94262  29.032  13.188   1.862
24448W        W94263  42.351  17.194   0.317
24449W        W94264  11.277   8.204   3.316
24450W        W94265  28.979  36.844   4.637
24451W        W94266  17.719  37.959   4.265
24452W        W94267   8.850  19.567   5.289
24453W        W94268  31.023  13.633   3.850
24454W        W94269  28.968  11.323   2.372
24455W        W94270   3.920  35.017  10.617
24456W        W94271   6.293  44.502  10.044
24457W        W94272  23.661  27.131   3.240
24458W        W94273  32.588   4.824   0.388
24459W        W94274  44.864  28.642  14.444
24460W        W94275  21.076  29.083   1.389
24461W        W94276  11.729  10.717   3.698
24462W        W94277   1.874   8.264   1.216
24463W        W94278  23.682  24.638   2.330
24464W        W94279   7.718  30.972   1.370
24465W        W94280  36.960  20.563  14.861
24466W        W94281  10.816   3.777  13.019
24467W        W94282   5.199  25.515  12.482
24468W        W94283   9.871  36.958  13.887
24469W        W94284  24.199  38.374  13.874
24470W        W94285   7.333  26.589   4.652
24471W        W94286  37.457  10.352  14.930
24472W        W94287   8.340   1.794   4.743
24473W        W94288  42.303  25.484  11.075
24474W        W94289  27.645  41.327  13.854
24475W        W94290  14.762  35.593  12.409
24476W        W94291  44.332  12.150  12.376
24477W        W94292  19.594  10.154   1.407
24478W        W94293   6.308  32.581  10.640
24479W        W94294  41.861  29.429  14.913
24480W        W94295  33.609  24.008   4.225
24481W        W94296  38.409  40.364   1.737
24482W        W94297  25.626  22.170   0.836
24483W        W94298  12.829  33.016  13.427
24484W        W94299  32.092  35.065  11.452
24485W        W94300  30.043   6.894  11.440
24486W        W94301  29.170  28.934  13.327
24487W        W94302  27.543  40.926   4.747
24488W        W94303  15.632  39.521  10.594
24489W        W94304  25.979  16.072  10.908
24490W        W94305   4.227  32.083   3.743
24491W        W94306   3.926   4.208  10.605
24492W        W94307  36.353   9.204   0.839
24493W        W94308  18.276  28.157  12.474
24494W        W94309  26.046  14.264  13.511
24495W        W94310  17.594  16.102   2.305
24496W        W94311  11.660  37.882   0.257
24497W        W94312  21.068  37.461   0.480
24498W        W94313  41.960  44.324   0.340
24499W        W94314  12.657  15.683  11.477
24500W        W94315  20.080  42.527   0.339
24501W        W94316   1.313  38.547  10.631
24502W        W94317  15.289   8.749  11.891
24503W        W94318  38.533  22.085  14.389
24504W        W94319  18.073  37.019  14.901
24505W        W94320   5.885   9.707  12.890
24506W        W94321  18.765   8.655  10.520
24507W        W94322   6.912  12.809  12.879
24508W        W94323   7.904   4.265   3.740
24509W        W94324  26.975  42.454   0.413
24510W        W94325  38.061  24.127   2.892
24511W        W94326   6.894  41.439  10.491
24512W        W94327  14.788  34.481  14.934
24513W        W94328   8.351  28.037  14.859
24514W        W94329   1.257   4.393  11.996
24515W        W94330  39.842   0.283   3.646
24516W        W94331  22.567  20.041  13.823
24517W        W94332  19.684  20.610   0.758
24518W        W94333  20.275  23.635  11.613
24519W        W94334  36.060  39.825   1.913
24520W        W94335  36.348  35.866  12.344
24521W        W94336  10.810   4.331   0.948
24522W        W94337  29.992  43.946  11.441
24523W        W94338   1.783  37.422  13.529
24524W        W94339  11.191   0.462   1.801
24525W        W94340  26.488   9.698   1.876
24526W        W94341  34.997  40.384   4.725
24527W        W94342   5.221  10.236  13.307
24528W        W94343  17.214  15.299  11.466
24529W        W94344   8.222  39.449   2.854
24530W        W94345  27.177  16.607  13.487
24531W        W94346  42.788  28.457   1.438
24532W        W94347  12.827  34.534   2.747
24533W        W94348  18.253  24.063   0.867
24534W        W94349  13.803  15.089   3.196
24535W        W94350  14.241   8.836  11.978
24536W        W94351  42.487  31.465   0.254
24537W        W94352  27.675  10.695  14.856
24538W        W94353  43.944  15.691  13.361
24539W        W94354  31.961   1.278   1.794
24540W        W94355  29.553   0.900  13.825
24541W        W94356  33.112  14.812  10.593
24542W        W94357  10.692  22.690   2.787
24543W        W94358  10.770   3.419   2.754
24544W        W94359   4.762  40.315   0.471
24545W        W94360  27.016  44.886  10.629
24546W        W94361  26.118   8.326  11.059
24547W        W94362   5.697   7.414  10.621
24548W        W94363  36.528  28.595   0.312
24549W        W94364  34.597   5.227   0.791
24550W        W94365  38.535  38.993  11.374
24551W        W94366  30.127  36.549  10.591
24552W        W94367   8.858  15.323   0.454
24553W        W94368  38.471  24.522  14.295
24554W        W94369  27.614  27.190   0.920
24555W        W94370  21.538  14.170  10.986
24556W        W94371  22.501  43.984  13.417
24557W        W94372  12.257  27.563   2.184
24558W        W94373   2.368  26.466   0.457
24559W        W94374  14.130   4.885   5.154
24560W        W94375  28.148  40.976   4.185
24561W        W94376  44.935  11.735   4.668
24562W        W94377  38.932  41.032   4.604
24563W        W94378   8.701  27.581  12.901
24564W        W94379  16.239  14.717   2.334
24565W        W94380  16.244   0.766   2.692
24566W        W94381  36.394  31.032   4.816
24567W        W94382  22.734  35.073  13.945
24568W        W94383   9.744  14.300   2.375
24569W        W94384  24.981  29.074  13.801
24570W        W94385  27.056  16.749   3.209
24571W        W94386  22.124  32.613   1.303
24572W        W94387   7.372  17.260   3.209
24573W        W94388  26.072   6.868   4.631
24574W        W94389   9.769  16.575   1.906
24575W        W94390  43.481  29.052  12.993
24576W        W94391   8.401  19.636   2.319
24577W        W94392  23.579  19.151  14.933
24578W        W94393  12.225  36.366  11.560
24579W        W94394  31.145  40.375   4.743
24580W        W94395  13.621  43.339   4.802
24581W        W94396  22.218   1.320   1.371
24582W        W94397  34.939  23.715   1.255
24583W        W94398  12.119  44.004  13.002
24584W        W94399   8.669   8.361   4.659
24585W        W94400   7.756  26.090  10.439
24586W        W94401  29.602  33.588   1.870
24587W        W94402  20.542  33.539  14.007
24588W        W94403   1.453  26.592  14.438
24589W        W94404  18.159  42.813  12.556
24590W        W94405  40.966  28.124   0.327
24591W        W94406  34.464  42.426  14.438
24592W        W94407  37.015  24.498  11.964
24593W        W94408  16.245  16.149   4.166
24594W        W94409  27.518  10.238   3.779
24595W        W94410  24.171   7.745   2.865
24596W        W94411  14.788  36.843   2.302
24597W        W94412  23.561  32.622  12.842
24598W        W94413  36.959   1.865   2.677
24599W        W94414  17.651  31.465   0.949
24600W        W94415  30.109  33.556  13.380
24601W        W94416  41.446  26.577   3.776
24602W        W94417  15.193  24.497   0.266
24603W        W94418  12.837   2.748   2.668
24604W        W94419  20.598  30.452  11.386
24605W        W94420   0.387  12.139   4.829
24606W        W94421  27.682  12.290   2.846
24607W        W94422   8.377  10.309   9.997
24608W        W94423  23.990   2.793  12.824
24609W        W94424   2.779  34.076  11.921
24610W        W94425  33.001  42.399   2.822
24611W        W94426  15.738   4.214   0.813
24612W        W94427  38.856  38.033  12.848
24613W        W94428  24.502  18.573   2.320
24614W        W94429  44.934  13.619  14.454
24615W        W94430   4.385  30.108   3.799
24616W        W94431   7.248  27.661   2.221
24617W        W94432  43.303  25.713   3.803
24618W        W94433  44.275   2.891   0.244
24619W        W94434  27.178  35.586   4.711
24620W        W94435  28.605  20.683   4.786
24621W        W94436  29.641  43.829   4.612
24622W        W94437   3.737   3.284   2.782
24623W        W94438  30.448  22.144   4.687
24624W        W94439  36.923  22.114  11.094
24625W        W94440   7.869  25.978  14.416
24626W        W94441  12.231  21.234  13.337
24627W        W94442  25.079  16.083  11.036
24628W        W94443  38.377  27.977  10.484
24629W        W94444  13.288   7.412  12.869
24630W        W94445  23.220  15.199   3.756
24631W        W94446  33.999  10.277  12.548
24632W        W94447  25.016   3.712  12.024
24633W        W94448   0.479  41.322   0.808
24634W        W94449  30.544  37.418   3.185
24635W        W94450  12.149  34.427  12.001
24636W        W94451  31.925  24.560  10.594
24637W        W94452  20.099  11.262  12.855
24638W        W94453  14.217   8.271   3.175
24639W        W94454  33.093  29.924   4.664
24640W        W94455  10.217  27.162   3.356
24641W        W94456   3.373  12.178   4.306
24642W        W94457  19.656   2.310  10.544
24643W        W94458  20.143  17.099   4.196
24644W        W94459  12.708   5.787   3.286
24645W        W94460  35.945  22.173  13.980
24646W        W94461  25.686  17.787   3.816
24647W        W94462  29.439   9.868  14.005
24648W        W94463  41.331   9.825  10.426
24649W        W94464  25.613  32.617   4.215
24650W        W94465   8.309  30.503  11.507
24651W        W94466  32.559  24.581  13.315
24652W        W94467  10.160  33.916   0.913
24653W        W94468  44.821  13.124  12.074
24654W        W94469  20.106  14.141  12.429
24655W        W94470  22.552  25.032   0.915
24656W        W94471  40.024  14.244   2.679
24657W        W94472  15.226  14.278  14.286
24658W        W94473   2.847   5.779  13.944
24659W        W94474   7.696   1.760  13.020
24660W        W94475  35.887  25.592   2.243
24661W        W94476   7.796   2.963  14.865
24662W        W94477  14.723  35.962  11.444
24663W        W94478  25.054  42.337   4.125
24664W        W94479   1.830  41.476  12.523
24665W        W94480  32.460  40.458   2.391
24666W        W94481  24.015  44.918  11.013
24667W        W94482  11.813   7.338   3.263
24668W        W94483   7.218  40.396  10.432
24669W        W94484  12.188  31.064  10.590
24670W        W94485   5.859   5.874  11.964
24671W        W94486  40.892  35.048  10.975
24672W        W94487  31.610  28.448   1.446
24673W        W94488  20.595  40.478  11.865
24674W        W94489  28.040  32.474  13.059
24675W        W94490  23.710  10.364   3.811
24676W        W94491  29.173  23.068  14.389
24677W        W94492   9.271  19.156   4.805
24678W        W94493  15.664  40.431   1.723
24679W        W94494  22.539  42.470   1.915
24680W        W94495   0.317   6.779   0.778
24681W        W94496  42.027  36.465   1.878
24682W        W94497  44.994  24.008   4.119
24683W        W94498  40.830  25.520   4.800
24684W        W94499  29.430   8.369   4.222
24685W        W94500  10.205  31.441   2.888
24686W        W94501  21.524  33.944  11.082
24687W        W94502  17.731  11.720  11.441
24688W        W94503  12.185   6.692   2.407
24689W        W94504  10.731  21.553  13.822
24690W        W94505  32.624  21.545  14.394
24691W        W94506  18.575  24.008   4.690
24692W        W94507  20.240  32.067  14.393
24693W        W94508  38.824  42.874  10.131
24694W        W94509  22.090  27.650   4.161
24695W        W94510   2.346  10.807  12.898
24696W        W94511   8.865  44.469   4.214
24697W        W94512   7.693  30.618   1.826
24698W        W94513   6.883  43.936   4.758
24699W        W94514  42.443  43.895  13.329
24700W        W94515  35.580  43.887   3.209
24701W        W94516  11.261  11.293  13.836
24702W        W94517  42.393  21.753  14.999
24703W        W94518  32.521   3.844  12.892
24704W        W94519  24.504   6.368   2.256
24705W        W94520  17.178  12.811   3.723
24706W        W94521   0.969  34.963  14.351
24707W        W94522   3.780  33.016   1.816
24708W        W94523  32.485   9.656   4.825
24709W        W94524  20.768  15.137  11.893
24710W        W94525  20.252   1.788   0.797
24711W        W94526   7.855  28.051   3.367
24712W        W94527   9.874  11.320  12.885
24713W        W94528  27.550   2.229  11.966
24714W        W94529  19.189  19.571   4.727
24715W        W94530  31.028  40.400  13.461
24716W        W94531  35.006  21.705   2.211
24717W        W94532   4.279   0.888   3.318
24718W        W94533  28.675   1.481   1.445
24719W        W94534  35.860   2.865   0.368
24720W        W94535   3.442  15.143  14.900
24721W        W94536  26.185  27.630   1.852
24722W        W94537  21.038  38.541   2.691
24723W        W94538   9.187  21.207  13.975
24724W        W94539  22.572  12.279  12.429
24725W        W94540  24.482  30.039  11.502
24726W        W94541  12.664  18.100  12.871
24727W        W94542  29.033  42.474  14.448
24728W        W94543   1.778  14.219  13.806
24729W        W94544   4.212  13.189   2.723
24730W        W94545  36.573  26.189   2.342
24731W        W94546  10.869  19.572  11.410
24732W        W94547   6.367  15.757  10.122
24733W        W94548  21.676   2.767   2.841
24734W        W94549  17.088  25.649  14.877
24735W        W94550  24.709  32.578   2.256
24736W        W94551   2.925  34.935  12.407
24737W        W94552  19.607  37.012  10.463
24738W        W94553  12.674  25.060  14.307
24739W        W94554   1.904  10.868   2.226
24740W        W94555  29.580   4.302  11.082
24741W        W94556  41.908  12.785   0.839
24742W        W94557  19.228   7.686  10.590
24743W        W94558  27.194   4.414  11.090
24744W        W94559  36.998   8.775  11.453
24745W        W94560  32.457   6.222  12.539
24746W        W94561  34.495  11.715   3.333
24747W        W94562  44.427  29.454  13.842
24748W        W94563  13.697  38.077  10.920
24749W        W94564  35.539  31.501  13.458
24750W        W94565  42.943  22.995  14.883
24751W        W94566  30.104   0.459   0.275
24752W        W94567  14.757  29.567  12.547
24753W        W94568  27.945  24.974   0.370
24754W        W94569  36.927  22.031  14.899
24755W        W94570   5.857   4.297   2.764
24756W        W94571   4.715  20.606   0.379
24757W        W94572  26.500  35.942  10.022
24758W        W94573  32.143  33.052   4.155
24759W        W94574  15.173   6.819  14.948
24760W        W94575   9.851   1.750   3.797
24761W        W94576  20.572  35.385   4.304
24762W        W94577  35.437  17.724   0.819
24763W        W94578  33.567  20.080   0.820
24764W        W94579  30.496   9.748   3.166
24765W        W94580  10.267  43.765   0.327
24766W        W94581   4.316  28.607  13.861
24767W        W94582  27.624  25.000  14.970
24768W        W94583  38.867   8.879   9.973
24769W        W94584  19.263   7.281  13.012
24770W        W94585  11.725  27.127   1.257
24771W        W94586   4.825  18.697  14.343
24772W        W94587  33.493  19.049  14.466
24773W        W94588  39.046  16.661  14.400
24774W        W94589  40.899  32.914  12.986
24775W        W94590  43.996  35.101  13.980
24776W        W94591  17.126   6.250  12.534
24777W        W94592   0.930   5.219   0.331
24778W        W94593   6.269   2.825  12.890
24779W        W94594  15.797  20.660  14.466
24780W        W94595  20.651  39.971  11.446
24781W        W94596  22.247  25.045  14.013
24782W        W94597   8.346  30.156   2.811
24783W        W94598  22.519  13.316   2.389
24784W        W94599  23.642  40.883   0.422
24785W        W94600  25.081  37.936  11.376
24786W        W94601   2.329   7.721   3.266
24787W        W94602  34.601   7.670  11.605
24788W        W94603   8.274   8.659   0.843
24789W        W94604   9.846   7.874   1.762
24790W        W94605  14.193  37.959  12.040
24791W        W94606  31.138  35.893   0.356
24792W        W94607  19.553   9.300   1.242
24793W        W94608  22.595  31.930  10.898
24794W        W94609  35.950  24.610  14.470
24795W        W94610  20.740  32.405  13.852
24796W        W94611  25.967  23.537  11.890
24797W        W94612   4.930  39.917  14.439
24798W        W94613  12.160   2.324  13.502
24799W        W94614  21.053  44.421  13.331
24800W        W94615   6.713  32.548   3.737
24801W        W94616  13.703   7.869   2.290
24802W        W94617  10.694  22.512   1.370
24803W        W94618  31.143  42.865  11.462
24804W        W94619  22.208  11.657   0.740
24805W        W94620  29.011  19.125   3.794
24806W        W94621  19.246  28.626   4.649
24807W        W94622  29.670  30.619  14.802
24808W        W94623   1.790  16.712  13.985
24809W        W94624  11.266  16.653   5.083
24810W        W94625   5.391   6.752   3.354
24811W        W94626   8.797   5.253   3.298
24812W        W94627  40.803  18.269  12.925
24813W        W94628  24.493  10.372  10.519
24814W        W94629  27.186  38.997   0.834
24815W        W94630  35.033  26.119  15.000
24816W        W94631   3.937  11.263  13.399
24817W        W94632  31.001   5.773   1.414
24818W        W94633   4.843  37.489   2.406
24819W        W94634   7.335  12.243   4.608
24820W        W94635  30.948  29.468   2.756
24821W        W94636  22.044  28.177  12.876
24822W        W94637  44.493  25.154   2.733
24823W        W94638   8.396   6.854  10.894
24824W        W94639   8.681  41.930  13.414
24825W        W94640  30.994  34.020   0.818
24826W        W94641   0.285  20.694   3.250
24827W        W94642  21.595  22.183  13.056
24828W        W94643   1.384  30.024  13.394
24829W        W94644  11.776  24.616  13.967
24830W        W94645   6.725  24.205  14.288
24831W        W94646  12.190  43.007   2.740
24832W        W94647  13.239   0.488   0.884
24833W        W94648  39.466  11.788   2.855
24834W        W94649  19.573  31.979   3.691
24835W        W94650  13.120  41.919   0.862
24836W        W94651  38.356  36.349  13.319
24837W        W94652  28.507   9.386   4.125
24838W        W94653   9.681   2.882  11.925
24839W        W94654  13.734  16.701  14.859
24840W        W94655  25.603  12.297  13.336
24841W        W94656  32.008   1.366  10.442
24842W        W94657  26.980  27.545   0.258
24843W        W94658   5.798  26.093  11.435
24844W        W94659  43.774  31.001  13.961
24845W        W94660  12.347  43.931  11.508
24846W        W94661  22.121  20.551   4.286
24847W        W94662  15.313  30.489  14.464
24848W        W94663  43.292   5.325   3.192
24849W        W94664  41.413  16.206   3.151
24850W        W94665  44.274   4.786   2.309
24851W        W94666  19.745  44.771  11.125
24852W        W94667  20.123  21.103  13.475
24853W        W94668  24.665   7.682  10.467
24854W        W94669  33.115  44.777   4.300
24855W        W94670   1.376  17.577  12.339
24856W        W94671   1.406  22.689  11.911
24857W        W94672   5.198  24.505   3.814
24858W        W94673   4.779  39.397  12.952
24859W        W94674   2.369  38.898   0.824
24860W        W94675  38.980   9.712  13.525
24861W        W94676  43.849   8.820   3.666
24862W        W94677   7.348  44.431   3.663
24863W        W94678  11.784  15.807  13.398
24864W        W94679  16.756   1.950   3.236
24865W        W94680  16.737  35.885   1.270
24866W        W94681   2.820  31.947   4.659
24867W        W94682  30.414  36.585   2.318
24868W        W94683  30.955  24.995  13.402
24869W        W94684   2.432  44.848  10.521
24870W        W94685   4.865  24.710   1.279
24871W        W94686  39.417  42.330   4.221
24872W        W94687  31.022  35.542   3.664
24873W        W94688  34.517  18.229  14.994
24874W        W94689  15.766  10.794   1.799
24875W        W94690  29.435  26.081  13.930
24876W        W94691  29.507   3.795   0.862
24877W        W94692  38.038  24.678   4.199
24878W        W94693  43.278  17.602  11.985
24879W        W94694   9.343  11.354   0.314
24880W        W94695  42.875  31.622   1.742
24881W        W94696  30.148  44.411   4.822
24882W        W94697  44.952  36.533  14.361
24883W        W94698  29.666  22.051  10.904
24884W        W94699  17.290  40.849   3.707
24885W        W94700  17.257   0.479   4.816
24886W        W94701  12.288  14.179   2.670
24887W        W94702  22.141  28.053   4.619
24888W        W94703  41.850  44.994  13.316
24889W        W94704  35.854   0.469   4.335
24890W        W94705   1.344  31.046  11.862
24891W        W94706  39.054  41.929  14.961
24892W        W94707  34.030  37.888  13.989
24893W        W94708  24.599  22.136   1.211
24894W        W94709   0.812  10.873   1.305
24895W        W94710   6.917  23.146   0.826
24896W        W94711  31.141   5.287   2.688
24897W        W94712  19.533   2.945   0.471
24898W        W94713  42.325  29.551  12.577
24899W        W94714  13.844  33.524  11.069
24900W        W94715  41.952  20.197   3.810
24901W        W94716  23.721  31.982   3.316
24902W        W94717   1.806  17.787   1.316
24903W        W94718  12.850  39.042  10.551
24904W        W94719   6.721  43.863  14.464
24905W        W94720   6.205  23.219   2.179
24906W        W94721  29.114   6.322  11.552
24907W        W94722  27.520  44.368  11.091
24908W        W94723   2.913  38.949   0.337
24909W        W94724  17.635  18.634  11.503
24910W        W94725  40.349  16.080   9.993
24911W        W94726  22.102  13.335  14.905
24912W        W94727  29.071  22.623  12.359
24913W        W94728  15.189   6.306   2.247
24914W        W94729  34.999  21.117  13.479
24915W        W94730  16.154  36.452   1.738
24916W        W94731  11.215  33.935  13.539
24917W        W94732   3.361  20.607  13.405
24918W        W94733  32.079  17.742  14.322
24919W        W94734  29.921  32.430  13.880
24920W        W94735   9.776  11.637   0.473
24921W        W94736   5.193  41.381   1.701
24922W        W94737  36.418  32.947   4.251
24923W        W94738  38.009  39.995  10.963
24924W        W94739  13.252  19.750   1.371
24925W        W94740   0.866  12.160   3.210
24926W        W94741  44.815  37.385  12.874
24927W        W94742   8.801  14.298   4.787
24928W        W94743  32.073  30.626  12.982
24929W        W94744  32.090  27.554   0.442
24930W        W94745   2.328   9.333  12.530
24931W        W94746  13.167  24.222  14.850
24932W        W94747  27.069  36.921  10.602
24933W        W94748  28.665  18.224  13.418
24934W        W94749  16.079  23.060  12.047
24935W        W94750  42.818  10.769   0.405
24936W        W94751   0.755  35.407  11.004
24937W        W94752  31.640  42.459   4.252
24938W        W94753   0.332  23.509  12.948
24939W        W94754  22.603  26.055  12.481
24940W        W94755   7.839  28.997  13.884
24941W        W94756  21.156  24.688  10.633
24942W        W94757  28.007  12.790   3.808
24943W        W94758  26.043  19.687  13.858
24944W        W94759  31.583  22.997   0.471
24945W        W94760  15.611  12.294   3.830
24946W        W94761  27.113  20.110  14.964
24947W        W94762  14.709  43.831   1.307
24948W        W94763  20.127  33.419  14.887
24949W        W94764  27.991  38.433   3.671
24950W        W94765  18.746  37.340  10.580
24951W        W94766   4.737  36.928   2.190
24952W        W94767  42.448  31.052  10.433
24953W        W94768  36.349  21.184   2.903
24954W        W94769   7.760  34.974   2.278
24955W        W94770  13.764  18.678  13.315
24956W        W94771  13.148   0.443  14.907
24957W        W94772  43.005   8.842  11.376
24958W        W94773  35.488  13.789   1.233
24959W        W94774  30.086   7.695  13.498
24960W        W94775   3.294   4.817   3.312
24961W        W94776   1.444  21.246  14.957
24962W        W94777  37.496  36.933   2.402
24963W        W94778  40.025  32.465   0.813
24964W        W94779   6.677  18.690   1.771
24965W        W94780  18.178  25.709   1.856
24966W        W94781  39.332   5.346   5.271
24967W        W94782  15.609  34.034  14.900
24968W        W94783  27.061   5.902  12.847
24969W        W94784  36.935  15.590   2.210
24970W        W94785  42.974   9.294   2.252
24971W        W94786  41.878  32.969  11.443
24972W        W94787  13.232  11.130   4.128
24973W        W94788  11.812  44.792  10.071
24974W        W94789  33.472  13.269   1.718
24975W        W94790  16.589   9.335   0.929
24976W        W94791  44.996  14.735  13.373
24977W        W94792   6.886  37.405   4.806
24978W        W94793  11.808  35.384   0.276
24979W        W94794  26.166  19.628  10.456
24980W        W94795  20.621  24.057  14.023
24981W        W94796  35.060  16.609   0.254
24982W        W94797   4.276  43.293   2.298
24983W        W94798   6.305  39.495  12.915
24984W        W94799  36.465  25.570  10.463
24985W        W94800  43.803  19.623  11.025
24986W        W94801  12.183  36.848  12.554
24987W        W94802  41.890   0.796  13.044
24988W        W94803  13.117   3.340   2.839
24989W        W94804  17.710  12.328  11.917
24990W        W94805   6.755  25.686  11.974
24991W        W94806  42.913   6.818   4.281
24992W        W94807  39.325  12.758  12.410
24993W        W94808  29.527  34.524  12.419
24994W        W94809  44.895  35.099  12.525
24995W        W94810  30.656  30.150   4.253
24996W        W94811   2.418   7.261  13.385
24997W        W94812   1.870  43.362   0.310
24998W        W94813   0.389  29.015   1.695
24999W        W94814  38.890  14.684  14.374
25000W        W94815  38.561  13.694   0.345
25001W        W94816  16.278  13.199  12.518
25002W        W94817  41.406   4.911   2.419
25003W        W94818  33.886  23.531   0.829
25004W        W94819   1.755  15.781  13.949
25005W        W94820  40.464  15.616  12.540
25006W        W94821  42.291   9.238   1.448
25007W        W94822  19.247   9.224  13.911
25008W        W94823  34.580  38.363  11.873
25009W        W94824  23.236  20.115  11.414
25010W        W94825  39.039  39.044  13.856
25011W        W94826  18.201  16.771   2.737
25012W        W94827   3.288  29.008  10.980
25013W        W94828  12.801  22.606   2.189
25014W        W94829  11.709  11.690  14.952
25015W        W94830  43.991  29.961  11.108
25016W        W94831  22.673  12.255  14.931
25017W        W94832  42.515  11.248  13.345
25018W        W94833   0.922  28.472  12.871
25019W        W94834  15.198  33.581   2.828
25020W        W94835  10.142  27.520   3.273
25021W        W94836  41.429  21.086   4.335
25022W        W94837  27.126  10.370  11.892
25023W        W94838  26.467  34.465   2.211
25024W        W94839  13.752   6.918   4.783
25025W        W94840   1.914  38.030   2.184
25026W        W94841  19.571  38.433   2.307
25027W        W94842  18.577  10.746  10.538
25028W        W94843   2.742  41.441  11.476
25029W        W94844   6.681   0.326   1.399
25030W        W94845  38.509  38.016  14.022
25031W        W94846  19.123  29.483   4.712
25032W        W94847  10.196  19.712   4.814
25033W        W94848   8.403  37.874  10.492
25034W        W94849   6.282  33.109  14.934
25035W        W94850   2.895  19.079   4.347
25036W        W94851   3.323  44.948   3.345
25037W        W94852  39.336  11.343  11.484
25038W        W94853  22.041  43.419  11.527
25039W        W94854  14.287  41.979   0.870
25040W        W94855  26.053  21.139  13.446
25041W        W94856  22.065  18.061   1.332
25042W        W94857  44.936  31.428  14.315
25043W        W94858   9.365  25.579   4.762
25044W        W94859  31.484   5.252  14.944
25045W        W94860  34.864  21.670   1.382
25046W        W94861  21.617  19.051   0.887
25047W        W94862  32.498   8.685   9.990
25048W        W94863  42.781   1.292   1.420
25049W        W94864   8.768   0.918   1.444
25050W        W94865  41.535  21.713   2.363
25051W        W94866  10.713  32.041   4.276
25052W        W94867  22.562  21.526  13.428
25053W        W94868   6.718  22.670   0.829
25054W        W94869  43.384  38.383  13.841
25055W        W94870  12.167  44.927   1.259
25056W        W94871  22.058  32.925   2.414
25057W        W94872  43.768  21.589  14.859
25058W        W94873  23.582  29.619  11.088
25059W        W94874  10.694  39.042  10.441
25060W        W94875  14.316  36.877  14.330
25061W        W94876  11.286   9.711  11.951
25062W        W94877   4.258  10.708   1.770
25063W        W94878  37.009  14.821   3.218
25064W        W94879  14.248  11.655  12.069
25065W        W94880  12.647  44.835   1.447
25066W        W94881   9.244  43.798   0.753
25067W        W94882  35.064  27.466  12.447
25068W        W94883  15.180  44.299   0.778
25069W        W94884  19.579  19.764  11.589
25070W        W94885  17.562   2.937   1.873
25071W        W94886   6.225   7.176   3.761
25072W        W94887  14.646   3.455   3.725
25073W        W94888  19.598  42.343  13.872
25074W        W94889  29.965   3.216   3.636
25075W        W94890  39.504  31.975  11.908
25076W        W94891  28.577   4.790   0.736
25077W        W94892  43.901  33.487  13.376
25078W        W94893  33.120  19.282   2.304
25079W        W94894  43.271   6.702  11.548
25080W        W94895  18.578  37.449   2.676
25081W        W94896  18.656  13.757  12.463
25082W        W94897  39.447  41.916   0.312
25083W        W94898  38.917  22.563  14.289
25084W        W94899  15.754  29.642  13.443
25085W        W94900  10.694  37.428  14.016
25086W        W94901  29.016  17.112   3.367
25087W        W94902  36.515  17.069  12.860
25088W        W94903  20.078  31.006  14.882
25089W        W94904  10.794  34.572  12.427
25090W        W94905   7.887  18.239  10.957
25091W        W94906  16.797  24.484  14.346
25092W        W94907  29.456  17.585  11.861
25093W        W94908  14.696   7.327   1.451
25094W        W94909  28.937  28.017   1.830
25095W        W94910  40.460  11.682  12.367
25096W        W94911  11.318  22.522  12.993
25097W        W94912  15.655  29.935  10.089
25098W        W94913  14.769  35.457   1.716
25099W        W94914  26.512  18.677  12.501
25100W        W94915   1.873  34.089  10.894
25101W        W94916  19.700  44.967  11.920
25102W        W94917   9.163  43.399  12.831
25103W        W94918  35.455  26.977   0.342
25104W        W94919  19.284  40.318   3.153
25105W        W94920  42.988  38.988   4.337
25106W        W94921  17.777  40.887   3.709
25107W        W94922  24.691  38.850  14.779
25108W        W94923  41.911  23.162   0.910
25109W        W94924  35.546  42.968   2.679
25110W        W94925  38.347   2.806  13.920
25111W        W94926  40.803  10.203   0.362
25112W        W94927  44.759  36.497   0.783
25113W        W94928  39.873  33.131   3.293
25114W        W94929  24.172  23.999   0.335
25115W        W94930  40.054  34.942  10.898
25116W        W94931  37.438  13.138  12.560
25117W        W94932  10.763  24.997  13.379
25118W        W94933  21.036  42.308  11.576
25119W        W94934  18.640  17.095   5.133
25120W        W94935  43.778   9.354   2.415
25121W        W94936  39.993  29.166  11.493
25122W        W94937  36.567  19.716   2.666
25123W        W94938   2.278   4.937  13.344
25124W        W94939  15.279   6.258   3.234
25125W        W94940  18.065   5.408   2.321
25126W        W94941   6.254  10.772   3.710
25127W        W94942  17.685  10.158   0.955
25128W        W94943  16.796  15.746  12.417
25129W        W94944   7.796  31.896  11.378
25130W        W94945  37.347  29.578   0.414
25131W        W94946   0.792   5.698   4.805
25132W        W94947  14.317   9.360   3.684
25133W        W94948  39.328  25.712   3.372
25134W        W94949  27.666  20.558   3.340
25135W        W94950  31.120  32.598   1.428
25136W        W94951   9.762  14.740   3.321
25137W        W94952   6.887   9.200   2.219
25138W        W94953   3.946  30.451  13.990
25139W        W94954  28.500  33.393   4.601
25140W        W94955  26.473  16.751   3.241
25141W        W94956  12.297  30.436  11.918
25142W        W94957  33.983  31.981   4.599
25143W        W94958   8.387  30.043  10.984
25144W        W94959  43.804  32.399   3.287
25145W        W94960  21.524   0.309   2.328
25146W        W94961  40.499  33.029  12.471
25147W        W94962  41.454  11.265   3.686
25148W        W94963  21.516  17.304  12.000
25149W        W94964  39.971  19.158  11.955
25150W        W94965  33.420  39.444   0.751
25151W        W94966  29.458  33.928  14.502
25152W        W94967  35.033  34.893  11.458
25153W        W94968   0.836  10.878  10.488
25154W        W94969  26.511  10.643  13.401
25155W        W94970  11.244  25.980   0.388
25156W        W94971  40.982  30.132  11.862
25157W        W94972  31.533  15.710  14.377
25158W        W94973  40.925  32.949  12.093
25159W        W94974  27.497  29.531   3.781
25160W        W94975   4.925  44.286   0.852
25161W        W94976   1.325  42.423  12.827
25162W        W94977   2.323  34.508  12.918
25163W        W94978  19.775  18.570   3.733
25164W        W94979  37.388   2.831   3.775
25165W        W94980   9.238   2.243  14.434
25166W        W94981   8.229  16.309   1.340
25167W        W94982  44.005   4.857  14.305
25168W        W94983  23.096   6.273   2.679
25169W        W94984  18.145   3.794   1.216
25170W        W94985  10.278  36.073  14.950
25171W        W94986  34.542  25.198   3.257
25172W        W94987  34.110   3.405  14.779
25173W        W94988  23.571  23.025   2.851
25174W        W94989  30.637  40.317  12.888
25175W        W94990   1.248  22.683  11.461
25176W        W94991  17.126  20.217  13.906
25177W        W94992  44.492   8.287   2.732
25178W        W94993  33.402  10.213   2.209
25179W        W94994  17.801  21.028   2.819
25180W        W94995   7.809  32.392  14.880
25181W        W94996  27.621  20.713  12.064
25182W        W94997  30.016  33.924  13.997
25183W        W94998  13.188  24.633  13.042
25184W        W94999   5.363   0.443   3.821
25185W        W95000  15.282  12.148  13.865
25186W        W95001   8.788  24.595   3.728
25187W        W95002  10.859  42.501  14.867
25188W        W95003  10.244  31.004   3.152
25189W        W95004   6.315  31.446   4.670
25190W        W95005  40.407  32.107   1.429
25191W        W95006  10.862   6.331   3.781
25192W        W95007  25.667  40.474  11.927
25193W        W95008  29.487  29.135   3.818
25194W        W95009  25.472   9.305  13.818
25195W        W95010   2.414   7.685  13.486
25196W        W95011  40.809  17.073  13.523
25197W        W95012  11.810  35.876  12.979
25198W        W95013  14.272  38.013   1.229
25199W        W95014  25.206  15.190  13.062
25200W        W95015  33.092  39.411   0.861
25201W        W95016   7.181   4.301   1.825
25202W        W95017  26.999  26.139  12.055
25203W        W95018  20.665   1.732   1.931
25204W        W95019  21.083   9.770   2.810
25205W        W95020   3.403  20.199  13.409
25206W        W95021   5.330  37.367   3.207
25207W        W95022   2.896  18.779  14.788
25208W        W95023  41.335  37.072   2.691
25209W        W95024  24.685  43.834   0.331
25210W        W95025  13.731  25.598   1.228
25211W        W95026  12.252  33.455   1.782
25212W        W95027  18.749  32.581   2.324
25213W        W95028  20.148  36.090   0.870
25214W        W95029  21.571  32.428   1.418
25215W        W95030  37.034   2.335  14.903
25216W        W95031   9.764  37.077  10.594
25217W        W95032   3.409  16.316  12.452
25218W        W95033  32.540   6.216   1.303
25219W        W95034  11.303  19.630  11.544
25220W        W95035  18.093  38.014   3.797
25221W        W95036  14.284   7.393   0.247
25222W        W95037  35.987   4.329   1.812
25223W        W95038  20.268  35.508   2.669
25224W        W95039  17.788  12.666   2.779
25225W        W95040   3.804  29.531  12.830
25226W        W95041  18.719  32.979   3.733
25227W        W95042  42.797  34.031  11.960
25228W        W95043  21.116  42.309   4.232
25229W        W95044  31.631  12.138   4.167
25230W        W95045  18.566  19.220  14.426
25231W        W95046  39.956  25.476  14.486
25232W        W95047   9.351  18.740  12.860
25233W        W95048  41.982  17.612   4.268
25234W        W95049  30.000   5.355  10.941
25235W        W95050   4.750  32.910  14.827
25236W        W95051   7.349   1.889   0.745
25237W        W95052  40.046  17.278   3.365
25238W        W95053   9.665  21.113   0.441
25239W        W95054  12.728  15.297  10.948
25240W        W95055  35.520  11.807  11.391
25241W        W95056   3.307  39.894   4.216
25242W        W95057  23.044  14.108   2.812
25243W        W95058  16.675   8.833   4.782
25244W        W95059  29.461  29.528   9.971
25245W        W95060  26.643  29.430   4.127
25246W        W95061   9.820   5.763   2.666
25247W        W95062  32.410  21.538   0.748
25248W        W95063   7.743  42.928  10.462
25249W        W95064  33.423  17.138   1.338
25250W        W95065  43.909   3.872  11.587
25251W        W95066   4.316  15.117   3.186
25252W        W95067  14.694  42.812   2.298
25253W        W95068  15.692  30.612  14.012
25254W        W95069  31.588  42.812   0.284
25255W        W95070  37.581  29.507  13.832
25256W        W95071  43.510  11.193   1.844
25257W        W95072  34.949  41.531   1.228
25258W        W95073   7.311  37.416  10.122
25259W        W95074  27.075  31.141  10.894
25260W        W95075  13.123  18.741  10.999
25261W        W95076   8.278  22.596   0.953
25262W        W95077  10.267  14.633  13.990
25263W        W95078  32.497  21.111  14.354
25264W        W95079  44.978  27.662   0.817
25265W        W95080  24.058  13.211   2.827
25266W        W95081  40.347  29.159  13.452
25267W        W95082  43.287  42.949   4.684
25268W        W95083   4.361   1.854   0.777
25269W        W95084  37.441  31.544   5.766
25270W        W95085  23.598   9.846   4.265
25271W        W95086   1.859  25.982  14.807
25272W        W95087  33.386  41.481   5.151
25273W        W95088  42.871  10.216   9.982
25274W        W95089   6.422  43.408  10.522
25275W        W95090  15.685  40.320   0.270
25276W        W95091  22.038   4.440  11.502
25277W        W95092  30.554  30.516   0.471
25278W        W95093  10.235  27.528  13.032
25279W        W95094  12.322  12.693   4.613
25280W        W95095  10.248  39.876  14.934
25281W        W95096  29.530  15.091   4.811
25282W        W95097  36.980   4.245  11.453
25283W        W95098   7.902  34.522  14.882
25284W        W95099   3.329  42.784   1.419
25285W        W95100   6.226  28.084   1.746
25286W        W95101  26.548  37.976   0.850
25287W        W95102  15.306  11.255   4.340
25288W        W95103  35.570  10.367  13.892
25289W        W95104  35.558   7.304   2.387
25290W        W95105  37.379   8.256  13.488
25291W        W95106   8.888  15.689   4.320
25292W        W95107  10.201  35.979  12.906
25293W        W95108  21.158  15.229   1.824
25294W        W95109  43.400  22.561  11.577
25295W        W95110  16.281   4.425  13.942
25296W        W95111  12.312  35.470  11.418
25297W        W95112  10.177  20.160  10.041
25298W        W95113   6.895  30.093  10.467
25299W        W95114  25.032  31.447   0.341
25300W        W95115  37.833  15.794  12.524
25301W        W95116   9.825  25.044   1.923
25302W        W95117  31.020   4.930  13.831
25303W        W95118  11.831  42.850   3.200
25304W        W95119   8.172  26.972   2.353
25305W        W95120  19.048  37.471  12.542
25306W        W95121   2.731  25.998   1.829
25307W        W95122  11.152  23.689   1.892
25308W        W95123  25.060  27.067  10.629
25309W        W95124  31.032  37.409   3.184
25310W        W95125  44.283   9.810   1.733
25311W        W95126  42.459  42.372  14.021
25312W        W95127  30.563  17.573   4.605
25313W        W95128  28.089   1.333  14.879
25314W        W95129   5.924  14.816  13.865
25315W        W95130  24.173  38.483  10.128
25316W        W95131   9.350  13.144  11.923
25317W        W95132   8.345  24.113  10.473
25318W        W95133  16.734   1.836  13.464
25319W        W95134  17.134  12.710  11.494
25320W        W95135  44.341  44.310  13.032
25321W        W95136  18.623  17.178   3.647
25322W        W95137  24.511   9.179   0.923
25323W        W95138   7.276  15.322  11.515
25324W        W95139  30.079   4.383   1.416
25325W        W95140  16.607  44.265  14.933
25326W        W95141  25.613  33.469  14.458
25327W        W95142  33.601   9.655   0.912
25328W        W95143  28.107  12.309   0.898
25329W        W95144   7.349  25.555  10.530
25330W        W95145   0.452  25.552   0.271
25331W        W95146  16.674  13.767   0.344
25332W        W95147  33.570  19.063  13.998
25333W        W95148  41.034  26.595  10.980
25334W        W95149  20.119  21.020   2.186
25335W        W95150   9.371  29.032  12.856
25336W        W95151  37.870  31.151  11.464
25337W        W95152  10.665   0.285  12.345
25338W        W95153  15.605   9.158  12.409
25339W        W95154  17.275   6.312   5.312
25340W        W95155  33.483  10.300  11.104
25341W        W95156  18.635  43.785  12.984
25342W        W95157   8.735  20.194   0.890
25343W        W95158  19.623   0.386  10.413
25344W        W95159   3.393  17.670   4.123
25345W        W95160  40.455  22.252   0.895
25346W        W95161  12.700  33.119   2.418
25347W        W95162   1.829  38.003  13.817
25348W        W95163  23.552  42.339  11.113
25349W        W95164  39.961  41.411   4.304
25350W        W95165   3.310   1.820  12.517
25351W        W95166  28.941  41.942   2.807
25352W        W95167   0.385   3.889   1.814
25353W        W95168  26.479  35.476  13.893
25354W        W95169  40.523  10.680   0.928
25355W        W95170  35.553   8.240  13.362
25356W        W95171  44.449  34.092   1.822
25357W        W95172  35.521  19.167  14.953
25358W        W95173   5.815  13.671  12.895
25359W        W95174  37.465  36.845   4.688
25360W        W95175  44.913   7.389   2.833
25361W        W95176   2.439   2.439   4.341
25362W        W95177  14.264  10.834  12.913
25363W        W95178  36.950  31.150   1.732
25364W        W95179   9.203  30.075   1.370
25365W        W95180  10.816  41.521   4.772
25366W        W95181   7.853  22.084  10.956
25367W        W95182   1.830   0.905   1.919
25368W        W95183  29.610   4.354  14.363
25369W        W95184  42.876  19.285   1.426
25370W        W95185  37.413  13.602  14.490
25371W        W95186  37.059   2.453   0.766
25372W        W95187  36.491  38.384  11.104
25373W        W95188  42.996  30.581  11.379
25374W        W95189  11.205  41.804   4.759
25375W        W95190  26.474  27.099   0.396
25376W        W95191  13.714  22.540  14.293
25377W        W95192  38.336   8.862   1.290
25378W        W95193  25.145  39.911  14.792
25379W        W95194  17.082  42.473   0.279
25380W        W95195  17.654  14.152  10.570
25381W        W95196  32.471   5.339  13.910
25382W        W95197   9.800   5.351  12.944
25383W        W95198  28.133   4.295  10.134
25384W        W95199   7.791   4.395  11.576
25385W        W95200  21.161  43.009  14.384
25386W        W95201  36.576  18.242  13.052
25387W        W95202  44.418  39.465   4.729
25388W        W95203  26.491  13.350   5.208
25389W        W95204  12.252   3.298   0.954
25390W        W95205  10.792   7.804   2.749
25391W        W95206  17.705  10.658   4.246
25392W        W95207  24.089  25.604   1.320
25393W        W95208  24.493  30.947  10.574
25394W        W95209  23.636  37.952  14.326
25395W        W95210  33.941  34.502  11.965
25396W        W95211  19.580  38.532   1.286
25397W        W95212  10.310   5.352  10.571
25398W        W95213  40.359  31.044  11.058
25399W        W95214   4.769   7.683  12.881
25400W        W95215  11.867  26.969  14.408
25401W        W95216  38.403   6.820   1.269
25402W        W95217  24.021   4.371  12.528
25403W        W95218  22.078  30.024   2.804
25404W        W95219  43.892   9.645   4.288
25405W        W95220  33.064  21.698   2.739
25406W        W95221   2.456  28.648  10.974
25407W        W95222  28.999  27.101  11.429
25408W        W95223  20.192  17.769  12.561
25409W        W95224  39.337  20.601  13.438
25410W        W95225  24.546   9.238   2.188
25411W        W95226   0.763  44.921   1.354
25412W        W95227   9.245   2.306   2.414
25413W        W95228  43.842  38.830   1.245
25414W        W95229   9.253   2.228  13.057
25415W        W95230  37.839  28.114   4.303
25416W        W95231  21.212  25.467  14.910
25417W        W95232  32.482   1.779  12.869
25418W        W95233  24.035   9.880  13.964
25419W        W95234  40.412  14.616  11.438
25420W        W95235  31.092   6.853   4.353
25421W        W95236  35.082   8.755   4.612
25422W        W95237   0.831  14.624   2.357
25423W        W95238  24.595  13.778   3.228
25424W        W95239  41.324  29.997   4.606
25425W        W95240  44.406  18.157  14.812
25426W        W95241   5.727  31.035  13.410
25427W        W95242  17.124  42.936  13.983
25428W        W95243   0.492   0.408  10.927
25429W        W95244   4.378  31.040   1.435
25430W        W95245  12.827  28.443   1.365
25431W        W95246  27.196  21.550   0.827
25432W        W95247  24.097  31.073   2.319
25433W        W95248  41.417  27.950  12.567
25434W        W95249  43.474  17.681   3.359
25435W        W95250  14.170   3.828   0.865
25436W        W95251  15.798  23.574   3.302
25437W        W95252  21.588  15.293   3.817
25438W        W95253  41.394  30.136  12.370
25439W        W95254  43.310  11.205   3.164
25440W        W95255  14.271  37.927   1.922
25441W        W95256  15.805   0.371  11.110
25442W        W95257  19.096  36.362   2.684
25443W        W95258  31.016  39.487   1.700
25444W        W95259  10.851  11.369   2.296
25445W        W95260   3.299  25.702   3.194
25446W        W95261   3.901  34.911   1.446
25447W        W95262  35.060  35.878  14.338
25448W        W95263  28.562  24.192   0.365
25449W        W95264  38.486  44.942  12.476
25450W        W95265  14.203   2.424  10.618
25451W        W95266  31.641   6.836  13.399
25452W        W95267  24.095  13.812   1.239
25453W        W95268  30.537  44.494  13.356
25454W        W95269  17.718  26.582  13.455
25455W        W95270  42.886   5.392   1.847
25456W        W95271   8.209  18.133   1.762
25457W        W95272  10.741  12.283  10.909
25458W        W95273  25.697  11.155   0.870
25459W        W95274  33.528  23.546   0.798
25460W        W95275   1.459  27.961   2.207
25461W        W95276   4.933  39.861  11.064
25462W        W95277  25.687  17.608  13.843
25463W        W95278  23.143  20.680   3.240
25464W        W95279  28.048  19.140   1.379
25465W        W95280  25.712  28.070   4.254
25466W        W95281  17.555  23.662  12.495
25467W        W95282   8.375  14.618  14.466
25468W        W95283  41.970  30.466   2.399
25469W        W95284  36.848  21.173  13.402
25470W        W95285  12.844  24.054   4.727
25471W        W95286   9.313  17.740  13.320
25472W        W95287   3.719  18.086   1.435
25473W        W95288  23.706   6.721   1.737
25474W        W95289  10.683  26.529   3.782
25475W        W95290  32.947  38.049  14.009
25476W        W95291  26.051  10.698   3.384
25477W        W95292  26.119  31.916  12.373
25478W        W95293   2.933  15.746   3.265
25479W        W95294  32.018  11.654   5.101
25480W        W95295  18.147  43.322  13.857
25481W        W95296  19.753   3.720  14.964
25482W        W95297  27.059  16.129  14.011
25483W        W95298  15.164  20.161  13.009
25484W        W95299  30.442  19.098   1.828
25485W        W95300  39.327  44.787   1.914
25486W        W95301  40.938  21.546  11.549
25487W        W95302  27.586  44.799  11.589
25488W        W95303  44.460  42.484   4.259
25489W        W95304  26.526  42.806   0.945
25490W        W95305  31.115  43.899  13.361
25491W        W95306  21.030  42.839   0.359
25492W        W95307  31.036  15.777  13.919
25493W        W95308  39.808  32.056   0.294
25494W        W95309   0.925  18.249  12.544
25495W        W95310  24.043  44.922  12.921
25496W        W95311  33.898  34.020  11.484
25497W        W95312  40.335  12.677   0.730
25498W        W95313  33.573  34.476   4.312
25499W        W95314  25.080   1.266  10.634
25500W        W95315  34.036  41.933   2.229
25501W        W95316  12.844   4.776   0.278
25502W        W95317  18.220  38.435  12.036
25503W        W95318  32.082   8.880  10.962
25504W        W95319  43.806  24.588   4.625
25505W        W95320  21.673   4.737   0.244
25506W        W95321  21.201  28.171   3.199
25507W        W95322   0.484  29.941  13.869
25508W        W95323  19.628  29.134   3.722
25509W        W95324  12.339   7.787  14.906
25510W        W95325   6.912  28.538  11.425
25511W        W95326  36.934  40.050   0.767
25512W        W95327  28.015  31.972  10.988
25513W        W95328  44.919  34.011  14.325
25514W        W95329  12.126  23.239  13.511
25515W        W95330  43.307  23.500  13.922
25516W        W95331   7.344  11.864   0.445
25517W        W95332  28.956  15.726   1.926
25518W        W95333  23.068  16.714   4.706
25519W        W95334   1.393  21.116  12.075
25520W        W95335  41.504  28.627  13.820
25521W        W95336  34.543  40.994   3.283
25522W        W95337  14.597  38.059  13.987
25523W        W95338  40.940  11.798  14.029
25524W        W95339  43.944  22.231   0.418
25525W        W95340  14.188  41.310   3.662
25526W        W95341  25.154  33.963   0.453
25527W        W95342  33.918  29.662  12.994
25528W        W95343  38.972   0.268   3.284
25529W        W95344  39.051  31.415  10.551
25530W        W95345  11.804  36.872   0.814
25531W        W95346  27.119  15.231  11.546
25532W        W95347  14.695  28.183  10.936
25533W        W95348   0.831  38.068   1.715
25534W        W95349   9.375   6.895  11.967
25535W        W95350  36.419  18.743   3.370
25536W        W95351  44.936  13.185   1.277
25537W        W95352   5.392  35.445   1.392
25538W        W95353  21.600  26.203   0.481
25539W        W95354  34.890  18.752   4.778
25540W        W95355  24.172  38.959  12.498
25541W        W95356   5.237  22.192  13.839
25542W        W95357  21.138  23.543  10.546
25543W        W95358  33.981  36.584  12.932
25544W        W95359   1.265  18.201  11.537
25545W        W95360  16.255  15.124  14.962
25546W        W95361   3.437   5.414  14.371
25547W        W95362  11.634  11.220  14.947
25548W        W95363   2.297  41.854  12.576
25549W        W95364  33.909  11.355  14.897
25550W        W95365  26.697  24.146   3.667
25551W        W95366  32.466  33.437  10.567
25552W        W95367  28.130  24.049  11.085
25553W        W95368  19.239  13.279  12.484
25554W        W95369  33.524  36.015   3.281
25555W        W95370  42.850  33.967   0.744
25556W        W95371  23.606  38.038  12.547
25557W        W95372   2.345  15.795  13.825
25558W        W95373   1.823  35.487  14.938
25559W        W95374   7.272   9.260  12.408
25560W        W95375   3.422  11.725   1.398
25561W        W95376  21.165  40.050   1.715
25562W        W95377  34.109  25.579   0.448
25563W        W95378   0.795  20.534   1.251
25564W        W95379  14.812  23.126  12.026
25565W        W95380  36.993  30.988  13.308
25566W        W95381  35.978  15.234   1.324
25567W        W95382  10.207  24.600  12.427
25568W        W95383   8.219  35.032   3.726
25569W        W95384  24.088  42.899  12.969
25570W        W95385  14.136  28.064  13.902
25571W        W95386  11.320   2.270  14.384
25572W        W95387  38.432  31.146   3.708
25573W        W95388  36.027   2.771  13.520
25574W        W95389  32.991   7.716   3.797
25575W        W95390  14.309   1.357   4.155
25576W        W95391  43.390   1.894   4.151
25577W        W95392  31.435  41.012   2.736
25578W        W95393  16.095  30.454  12.055
25579W        W95394  27.520  34.565  12.529
25580W        W95395  20.716   6.278   1.285
25581W        W95396   0.358  27.561  11.082
25582W        W95397  25.520  20.718   0.902
25583W        W95398  19.276  22.055   1.770
25584W        W95399   0.373  24.620  13.018
25585W        W95400  33.002  17.673  12.969
25586W        W95401  13.695  42.425  12.054
25587W        W95402  27.484  32.620   3.223
25588W        W95403  34.440  33.006   3.744
25589W        W95404  44.848  38.873   4.263
25590W        W95405   8.797  32.094   0.430
25591W        W95406  31.603  43.292   3.318
25592W        W95407  25.142  36.909   1.841
25593W        W95408   9.341  13.104   3.799
25594W        W95409   0.355  23.641  14.321
25595W        W95410  10.756  11.253   2.711
25596W        W95411  41.002  40.946   3.760
25597W        W95412  10.810  37.545  13.347
25598W        W95413  12.746  31.451   0.331
25599W        W95414  34.596  25.688   3.803
25600W        W95415  10.318  26.670  13.923
25601W        W95416  37.582  10.339   2.740
25602W        W95417  35.448   0.284   3.220
25603W        W95418  22.077  13.127  10.945
25604W        W95419  37.876   1.814   5.121
25605W        W95420  35.502  16.221  13.985
25606W        W95421  30.417   8.323   3.155
25607W        W95422  25.191   7.722   2.353
25608W        W95423   0.934  24.115   1.351
25609W        W95424   1.743   3.931   1.835
25610W        W95425  42.928   7.294   1.913
25611W        W95426  24.985  25.984  13.453
25612W        W95427  10.693  13.324  12.029
25613W        W95428  15.137   4.744   3.802
25614W        W95429  28.463  44.433  12.540
25615W        W95430   4.326  27.194   3.207
25616W        W95431  14.634  18.119   2.677
25617W        W95432  43.934  43.854   4.172
25618W        W95433  44.369  37.008   0.401
25619W        W95434  36.992  15.785   3.641
25620W        W95435  16.243   8.846  14.435
25621W        W95436   5.232   7.354   0.789
25622W        W95437  40.026  15.103  13.026
25623W        W95438  22.512  39.988   0.797
25624W        W95439  19.161  30.646  14.027
25625W        W95440  39.998  37.378  12.096
25626W        W95441  11.231  20.079   9.553
25627W        W95442   1.953  20.261  11.552
25628W        W95443  30.048  15.114   1.285
25629W        W95444  14.125  25.471  12.941
25630W        W95445  34.495  41.371   1.728
25631W        W95446  13.195  18.169  10.455
25632W        W95447   5.347   1.828  13.818
25633W        W95448   5.729  13.199   3.234
25634W        W95449  42.516   0.871  12.913
25635W        W95450   3.443  24.682   4.130
25636W        W95451   3.866  29.473   0.821
25637W        W95452  25.011  19.652  12.947
25638W        W95453  17.185  18.656   4.285
25639W        W95454  30.424  31.072   2.746
25640W        W95455  25.118  37.450   0.874
25641W        W95456  12.711  42.381  11.909
25642W        W95457  30.556   6.854   4.261
25643W        W95458  18.085   8.733  12.463
25644W        W95459   8.832  31.457   4.617
25645W        W95460  37.087  24.549   3.273
25646W        W95461  32.885  37.391   2.807
25647W        W95462  33.950   2.237   0.457
25648W        W95463  31.416  24.012  13.416
25649W        W95464  39.837   3.867  12.873
25650W        W95465  22.251   9.365  12.402
25651W        W95466  28.974  11.291   1.915
25652W        W95467  43.932  26.608   1.248
25653W        W95468  44.004  31.071   2.813
25654W        W95469  12.158  15.811   0.813
25655W        W95470  11.639   5.335  13.892
25656W        W95471  11.631   1.275   3.303
25657W        W95472  27.613  32.460  14.424
25658W        W95473  24.230  19.089   2.403
25659W        W95474   6.921   8.175  12.004
25660W        W95475  19.223  21.756  14.865
25661W        W95476   1.918  26.602   4.161
25662W        W95477  37.991  21.149   3.191
25663W        W95478   5.367  44.354  14.328
25664W        W95479  37.484  26.472  14.761
25665W        W95480  19.091  21.680  12.483
25666W        W95481  21.243  24.704   4.201
25667W        W95482  10.353  22.192   4.783
25668W        W95483  16.795   3.331   4.188
25669W        W95484   1.914  37.084  12.878
25670W        W95485  26.180  35.086  10.638
25671W        W95486  44.317  19.088   2.275
25672W        W95487  28.555  35.586  10.516
25673W        W95488  30.954  14.332  10.891
25674W        W95489  30.481  41.962   2.892
25675W        W95490  36.095  20.118   1.892
25676W        W95491  25.188  36.384  13.426
25677W        W95492  12.163  13.287  12.016
25678W        W95493  43.383  21.674  14.419
25679W        W95494  15.268   9.275  13.527
25680W        W95495  20.135  37.963   3.870
25681W        W95496   1.437   1.298   0.863
25682W        W95497  28.015   0.977   2.863
25683W        W95498  11.669  15.755   3.809
25684W        W95499  23.510  38.039  10.617
25685W        W95500   0.964  23.002   2.873
25686W        W95501  28.185  43.402  13.920
25687W        W95502  16.182   0.334   0.449
25688W        W95503  40.993  44.827   2.399
25689W        W95504  32.079  24.032  12.038
25690W        W95505  13.612  32.619   3.188
25691W        W95506   5.854  38.556   2.230
25692W        W95507  43.397  33.069   0.265
25693W        W95508   6.761   6.289   4.635
25694W        W95509  44.877  30.520   5.125
25695W        W95510   3.359  29.576  13.015
25696W        W95511  30.586   1.897  13.347
25697W        W95512   0.862   3.254  13.339
25698W        W95513  14.298  30.120  13.014
25699W        W95514  26.043  44.871   2.805
25700W        W95515  22.168  37.034  14.955
25701W        W95516  37.363  32.614   2.841
25702W        W95517  35.908  19.276  12.361
25703W        W95518  29.548  20.169   3.787
25704W        W95519  12.283  10.688   2.866
25705W        W95520   1.454  10.148   3.297
25706W        W95521  10.820  24.105   1.872
25707W        W95522  29.975  22.178  14.931
25708W        W95523  11.129  22.608  10.514
25709W        W95524  27.626  29.492  11.913
25710W        W95525  30.122  21.162   5.130
25711W        W95526  28.482  16.580  10.560
25712W        W95527  22.645  10.805   3.849
25713W        W95528  21.025  15.701  13.040
25714W        W95529   7.293   0.761   1.393
25715W        W95530  22.190  43.918   1.770
25716W        W95531  25.637  12.671   1.306
25717W        W95532  36.844  40.901  14.843
25718W        W95533  39.829  18.750  14.481
25719W        W95534  35.414  20.547   3.366
25720W        W95535  21.633  20.033  11.594
25721W        W95536  27.005  24.593   2.680
25722W        W95537  14.263  40.375   2.276
25723W        W95538  12.816   6.915   1.403
25724W        W95539  19.731  20.181  10.542
25725W        W95540  33.915  25.998   3.301
25726W        W95541  44.284  14.307   3.829
25727W        W95542  40.400  41.021  12.530
25728W        W95543   8.834   6.328  12.866
25729W        W95544  36.423  34.447  10.414
25730W        W95545   1.311   4.780   2.834
25731W        W95546  28.962  19.200  10.920
25732W        W95547  25.170  20.172   1.892
25733W        W95548  18.608  34.934   4.598
25734W        W95549  13.726  26.126  13.845
25735W        W95550  19.135  12.653   1.777
25736W        W95551  39.498  10.820  14.307
25737W        W95552  36.510   4.887  13.357
25738W        W95553  19.729  31.409  11.517
25739W        W95554  14.225   3.886  12.043
25740W        W95555  39.420  37.040  10.547
25741W        W95556  16.269  22.027   3.868
25742W        W95557  42.931  13.610   1.744
25743W        W95558  36.874  33.935   4.805
25744W        W95559  34.885  32.593   0.777
25745W        W95560  22.243  20.203  12.348
25746W        W95561  35.397  40.982  14.031
25747W        W95562  28.642   9.798   2.736
25748W        W95563  33.099   0.288  12.089
25749W        W95564  32.435  29.512  12.044
25750W        W95565   5.858   7.242   0.808
25751W        W95566  10.709  34.058  13.795
25752W        W95567   8.762  36.094   2.375
25753W        W95568   6.263   9.337  11.900
25754W        W95569  32.084   2.910  14.322
25755W        W95570  33.051  40.864  14.011
25756W        W95571  39.361  33.891  14.796
25757W        W95572  14.154  13.687  10.637
25758W        W95573   7.370  38.542  10.507
25759W        W95574  13.209  32.615   2.702
25760W        W95575   9.734   3.235  10.544
25761W        W95576  13.768   6.793   2.393
25762W        W95577  43.427   5.228  14.499
25763W        W95578  26.637  39.001   9.933
25764W        W95579  34.595   5.898  13.370
25765W        W95580  10.166  31.108   4.636
25766W        W95581  27.485  37.541  13.871
25767W        W95582  26.969   3.373  12.539
25768W        W95583   9.735  34.108   0.440
25769W        W95584   5.789  29.599  14.416
25770W        W95585  44.280  26.964  10.522
25771W        W95586  23.608   6.332   0.857
25772W        W95587  41.493  35.568  11.508
25773W        W95588  12.348  23.603  14.484
25774W        W95589   4.362  31.047  12.016
25775W        W95590   1.909   3.795  14.379
25776W        W95591  25.602  28.138   3.267
25777W        W95592   8.733  13.220  12.832
25778W        W95593  11.764  14.743  11.377
25779W        W95594  39.366  16.739   3.368
25780W        W95595  26.684  40.367  12.984
25781W        W95596  44.775  32.951   2.185
25782W        W95597  19.231  36.008   0.914
25783W        W95598  30.989   3.225  14.292
25784W        W95599  17.071  12.682   2.295
25785W        W95600  36.351  38.032   4.245
25786W        W95601   2.431  20.214   4.327
25787W        W95602  28.667   5.753  14.947
25788W        W95603  12.676   1.859  12.458
25789W        W95604  13.219   9.158  12.088
25790W        W95605   9.388   0.839  11.493
25791W        W95606  41.509  12.177  12.569
25792W        W95607  30.123   3.247   4.716
25793W        W95608  43.405  38.949   0.808
25794W        W95609   8.727   4.811  14.363
25795W        W95610  43.000   6.903   4.832
25796W        W95611  23.196  26.997   3.668
25797W        W95612  20.612  37.026  14.829
25798W        W95613  26.146  39.407  12.892
25799W        W95614   5.907  22.721   1.429
25800W        W95615  25.986  12.179  11.941
25801W        W95616   2.940  41.857   1.397
25802W        W95617  43.435   0.318   3.828
25803W        W95618   8.789  13.267   1.774
25804W        W95619  17.259  19.280  14.415
25805W        W95620  40.403  27.972   5.282
25806W        W95621  19.654  16.152   1.914
25807W        W95622  13.131  33.940  14.433
25808W        W95623  32.018  25.016   0.376
25809W        W95624  21.685  32.415   1.789
25810W        W95625  44.385  39.922   2.393
25811W        W95626  35.379  16.615   2.707
25812W        W95627  32.439  16.167   2.254
25813W        W95628  20.141  22.724   4.132
25814W        W95629   2.282  10.846   0.407
25815W        W95630  37.445   2.354   0.947
25816W        W95631  21.522  34.110  12.559
25817W        W95632  15.150   5.411   1.872
25818W        W95633  43.801  18.224  12.478
25819W        W95634  16.609  16.176   0.966
25820W        W95635  20.147  27.690   2.210
25821W        W95636   4.228  40.987  10.560
25822W        W95637   9.853  36.452  14.284
25823W        W95638  38.842   3.840   0.804
25824W        W95639  43.846  44.953  13.372
25825W        W95640  21.125   3.774   2.381
25826W        W95641  34.866  32.965   2.283
25827W        W95642  36.415  12.812   1.242
25828W        W95643  27.967  26.458  12.900
25829W        W95644  43.278  29.037  12.473
25830W        W95645  25.560   9.678   3.725
25831W        W95646  35.097   4.833   9.993
25832W        W95647  42.295  37.571  12.014
25833W        W95648  25.601  21.218  12.002
25834W        W95649   4.245  26.698  11.415
25835W        W95650  30.017  38.441  10.505
25836W        W95651  29.641  25.670   0.813
25837W        W95652  35.968   0.781  13.794
25838W        W95653  27.190  35.855   2.808
25839W        W95654  19.691  25.116  14.001
25840W        W95655  20.219  39.895  13.875
25841W        W95656   6.856   2.449  11.415
25842W        W95657  25.217  17.208  10.517
25843W        W95658  26.131  38.024   0.467
25844W        W95659   1.379  44.326  12.953
25845W        W95660   2.366  41.389   3.234
25846W        W95661  35.976  26.552  11.072
25847W        W95662  37.021  35.528   2.677
25848W        W95663  41.318  11.797   3.326
25849W        W95664  42.300   5.746  12.832
25850W        W95665   9.867   8.319   1.324
25851W        W95666  39.897  15.698   2.667
25852W        W95667  39.365   5.698  10.107
25853W        W95668   6.322  40.828   0.400
25854W        W95669  34.384  38.003  14.305
25855W        W95670  20.051  33.933   0.314
25856W        W95671  43.493   3.909   4.654
25857W        W95672  10.814  16.213   1.735
25858W        W95673  14.299   7.203  14.794
25859W        W95674  24.087  14.286   0.763
25860W        W95675  19.603  22.601  10.919
25861W        W95676  32.607  26.161   4.602
25862W        W95677  28.468   9.863  12.349
25863W        W95678  39.981  30.995  13.811
25864W        W95679  21.233  35.946  10.135
25865W        W95680  35.016   1.349  13.524
25866W        W95681  41.864   8.362  10.517
25867W        W95682  22.642  11.337   4.752
25868W        W95683  18.124   5.792   4.762
25869W        W95684   7.410  32.636   1.785
25870W        W95685  24.672  39.986  10.094
25871W        W95686  38.421  32.530   1.926
25872W        W95687  12.725  26.103  14.376
25873W        W95688  39.843  41.938  10.515
25874W        W95689  40.382  29.595   0.841
25875W        W95690  25.625   3.416  10.074
25876W        W95691  12.268  15.752  13.990
25877W        W95692  24.074  36.068   4.722
25878W        W95693  19.589  24.126   2.739
25879W        W95694  30.413  40.035  14.955
25880W        W95695   2.250  34.385   2.404
25881W        W95696  28.571   9.202  11.397
25882W        W95697  24.138  25.526  12.515
25883W        W95698  14.122  24.555  12.021
25884W        W95699  20.534  24.152  13.353
25885W        W95700  28.076  35.358   3.672
25886W        W95701  27.945  16.721   4.735
25887W        W95702  33.570   6.896   1.771
25888W        W95703  44.395   8.773  10.440
25889W        W95704  29.170  32.513   4.200
25890W        W95705  38.056  14.260  11.608
25891W        W95706  31.460  37.553   0.465
25892W        W95707  37.509  20.117   2.869
25893W        W95708  44.328  42.429   3.741
25894W        W95709  44.791  18.112   1.754
25895W        W95710  11.762  28.947  11.926
25896W        W95711   6.788   2.729  14.466
25897W        W95712  41.451  44.781   0.766
25898W        W95713  42.826  43.468   3.347
25899W        W95714  34.107  15.115   4.832
25900W        W95715  39.860  19.634   1.347
25901W        W95716  16.579  38.401  11.590
25902W        W95717   2.298  31.637  11.042
25903W        W95718  38.514  28.501  14.467
25904W        W95719   4.825  12.164  12.999
25905W        W95720   6.379   6.752  13.959
25906W        W95721  33.983  29.574  14.914
25907W        W95722  27.153  11.204  11.487
25908W        W95723  37.414  29.536   4.120
25909W        W95724  34.375  33.983  13.859
25910W        W95725  42.789  30.049   4.628
25911W        W95726  13.685  30.418   2.197
25912W        W95727   8.363  34.094  14.332
25913W        W95728  10.827   0.490   3.147
25914W        W95729   1.904  10.307   3.324
25915W        W95730  43.372   9.184   2.800
25916W        W95731  40.317  33.890  12.368
25917W        W95732  33.884  36.569  14.994
25918W        W95733  27.664  19.665   3.814
25919W        W95734  31.036  28.647   4.630
25920W        W95735  14.291  18.290   2.718
25921W        W95736  26.664   0.773   3.279
25922W        W95737  31.969  38.416   2.281
25923W        W95738  20.554  25.137  10.643
25924W        W95739  10.317  28.002   2.261
25925W        W95740   2.262  17.201   2.790
25926W        W95741  24.124   2.857  11.124
25927W        W95742  44.864   9.650  11.993
25928W        W95743  29.659  10.225  12.418
25929W        W95744  44.866   1.441  10.999
25930W        W95745   3.900  42.358   2.667
25931W        W95746  35.374  10.733  11.021
25932W        W95747  10.878   7.879   3.175
25933W        W95748  10.189   2.935   5.220
25934W        W95749  43.924  25.500   3.271
25935W        W95750   5.739  13.842   1.375
25936W        W95751   0.952  38.889  13.449
25937W        W95752  36.064  36.899  14.371
25938W        W95753  23.682   2.777   2.372
25939W        W95754  43.015  30.919   3.729
25940W        W95755  17.712  11.181  12.854
25941W        W95756   1.340  42.966  12.896
25942W        W95757  27.964  12.778  13.886
25943W        W95758  10.316   2.387   3.698
25944W        W95759  36.966  19.694   3.300
25945W        W95760   5.393  39.388  12.068
25946W        W95761   4.794  26.613   2.897
25947W        W95762  12.776  13.214  14.290
25948W        W95763  22.517   3.874   3.762
25949W        W95764   6.427  20.600   3.643
25950W        W95765  27.039  34.102  14.331
25951W        W95766  12.317  10.714   3.696
25952W        W95767   4.889  38.877  11.005
25953W        W95768  19.557  19.043  11.443
25954W        W95769  41.891  15.134  11.394
25955W        W95770  38.850   9.797  13.813
25956W        W95771  12.121  16.227   0.912
25957W        W95772   7.319  15.756  12.428
25958W        W95773  24.014  18.247  12.838
25959W        W95774  20.132  34.071  12.498
25960W        W95775  44.947  24.977   0.323
25961W        W95776   7.849  26.531  13.928
25962W        W95777  29.998  35.940  12.389
25963W        W95778  15.721  22.161   1.786
25964W        W95779  41.499  32.934   1.214
25965W        W95780  24.976  10.322   1.931
25966W        W95781  15.717  43.893   0.364
25967W        W95782  20.737  37.835   3.255
25968W        W95783   2.797  40.420   2.268
25969W        W95784  28.130  15.628  13.005
25970W        W95785  18.191  27.459  11.926
25971W        W95786  16.582  39.453  12.555
25972W        W95787   3.377  15.617  14.023
25973W        W95788  17.775  24.694  10.446
25974W        W95789   2.910  28.990  13.307
25975W        W95790  32.120   6.732  14.425
25976W        W95791  39.553  24.179  13.509
25977W        W95792  35.943  16.277  10.892
25978W        W95793  41.356  32.406  14.412
25979W        W95794  30.077  28.504  14.300
25980W        W95795   1.377   5.847   1.232
25981W        W95796  20.211  34.467   1.752
25982W        W95797   2.766  33.623  11.033
25983W        W95798  13.670   9.219   1.918
25984W        W95799  39.936   3.945  13.324
25985W        W95800   3.388  40.814   3.757
25986W        W95801  28.621   2.926  14.304
25987W        W95802  22.136  35.070   0.745
25988W        W95803  37.997  42.963  14.990
25989W        W95804  28.542  29.045  14.320
25990W        W95805  12.705  17.672   0.799
25991W        W95806   3.345  44.332   0.420
25992W        W95807  17.643  27.122  12.860
25993W        W95808  33.066  20.235   4.600
25994W        W95809   4.708  33.606  13.971
25995W        W95810  35.856  18.564   3.637
25996W        W95811  39.905  11.147  12.092
25997W        W95812  20.087  33.972  13.878
25998W        W95813  42.815  42.400   1.318
25999W        W95814  17.778  38.006  12.968
26000W        W95815  35.970  42.861   1.244
26001W        W95816   0.788   2.316   4.189
26002W        W95817  28.967  21.116  11.499
26003W        W95818  19.058  41.475   0.274
26004W        W95819  39.544  24.549   3.718
26005W        W95820  17.201  18.557   3.350
26006W        W95821  15.750  33.117   1.270
26007W        W95822  20.034   8.884   1.248
26008W        W95823   7.348  26.524  11.892
26009W        W95824   7.188  29.570  14.281
26010W        W95825  22.068  17.679   3.791
26011W        W95826  36.498  33.029   3.718
26012W        W95827  18.246  12.741   3.684
26013W        W95828  25.553  37.018   2.321
26014W        W95829  39.512  21.261  10.631
26015W        W95830  26.113   5.351  11.556
26016W        W95831  37.989   7.793  13.055
26017W        W95832  39.013   0.433  14.806
26018W        W95833  36.430   3.452   2.900
26019W        W95834   5.880  30.062   4.809
26020W        W95835  38.047  43.408   1.446
26021W        W95836  31.931  22.598   0.341
26022W        W95837  40.415  15.276  14.802
26023W        W95838  40.526   0.419   0.366
26024W        W95839  23.208  42.507  12.371
26025W        W95840  38.899  11.663  11.435
26026W        W95841  43.308  40.445  14.872
26027W        W95842  40.903  27.584  14.398
26028W        W95843  17.559  22.603   4.833
26029W        W95844   7.315  35.533   1.422
26030W        W95845  44.410   6.826   4.144
26031W        W95846  39.864  13.604  11.464
26032W        W95847  29.543  21.189   1.270
26033W        W95848   1.808  16.160   2.265
26034W        W95849  14.590  18.562   2.678
26035W        W95850  17.171  36.940   3.780
26036W        W95851  10.743  29.100   0.262
26037W        W95852  34.120  43.456   1.221
26038W        W95853  41.007   9.768  13.453
26039W        W95854  13.727  17.150  10.960
26040W        W95855  22.731   5.775  14.822
26041W        W95856   7.786  14.154  13.424
26042W        W95857   7.202  35.360  11.085
26043W        W95858  15.233  34.489   2.385
26044W        W95859  12.815  17.184  13.018
26045W        W95860  23.499  43.846   3.838
26046W        W95861  20.550  35.992  12.348
26047W        W95862  12.132   2.837   3.227
26048W        W95863  28.955  44.919  14.863
26049W        W95864  12.128  30.908   2.716
26050W        W95865   5.409  21.741   1.824
26051W        W95866  21.165  13.233  13.062
26052W        W95867  28.499  25.063   3.369
26053W        W95868  44.494  20.063   1.237
26054W        W95869  35.966  12.679   4.223
26055W        W95870  27.464  13.745   2.278
26056W        W95871  30.972   3.300  11.406
26057W        W95872  40.042  18.732   4.732
26058W        W95873   7.173  17.203  14.504
26059W        W95874  16.671  38.508   1.730
26060W        W95875   9.832  36.037  14.300
26061W        W95876  42.883  42.494   3.856
26062W        W95877  19.174  33.580   3.689
26063W        W95878  35.409  14.703   2.775
26064W        W95879  32.128  25.572  10.994
26065W        W95880  23.230  10.787  12.457
26066W        W95881  16.075   2.247   3.318
26067W        W95882  29.076  11.746   0.953
26068W        W95883  43.322  22.234   1.792
26069W        W95884  28.438  19.239  11.897
26070W        W95885   6.270  23.601  11.911
26071W        W95886  40.486  28.023  12.998
26072W        W95887  23.560   3.460  12.392
26073W        W95888  26.639   9.322   3.308
26074W        W95889  29.087  32.459   1.875
26075W        W95890  16.695  38.367   2.419
26076W        W95891   8.807  17.152   3.852
26077W        W95892   2.340  44.837   2.205
26078W        W95893  38.333  20.243   4.758
26079W        W95894  24.684  34.069   1.285
26080W        W95895  42.994  38.908   5.271
26081W        W95896  14.180  19.183  10.404
26082W        W95897  38.554  10.657   4.664
26083W        W95898  30.125  31.525  12.478
26084W        W95899  32.601  42.962   1.443
26085W        W95900  30.921  43.335   4.188
26086W        W95901  29.973  35.424  10.450
26087W        W95902  18.097  37.041   4.274
26088W        W95903  30.922   2.791   2.181
26089W        W95904  30.481  31.430   1.232
26090W        W95905  29.160  29.929  12.975
26091W        W95906   4.413  39.460   3.645
26092W        W95907  17.611  16.595   2.694
26093W        W95908   7.707   1.818   0.904
26094W        W95909  19.660  19.732  12.892
26095W        W95910  13.155  29.431   3.319
26096W        W95911  21.020  27.492   4.833
26097W        W95912  24.542  22.579   2.692
26098W        W95913  23.235  38.929  10.642
26099W        W95914  38.935  24.636   3.716
26100W        W95915  26.673   8.194   1.297
26101W        W95916  12.772  35.032   1.415
26102W        W95917  35.962  32.542   4.736
26103W        W95918  35.022  18.199  11.525
26104W        W95919  28.076   0.980   1.373
26105W        W95920  27.195  39.385   3.819
26106W        W95921  39.356   3.430  13.063
26107W        W95922  36.545  41.035   0.733
26108W        W95923  22.662  28.074  13.450
26109W        W95924  34.059   1.461  12.516
26110W        W95925   2.352   4.753   2.812
26111W        W95926  17.297  31.520  12.063
26112W        W95927  17.633   3.768   1.927
26113W        W95928  34.952  30.550  13.855
26114W        W95929  39.000   7.176   4.722
26115W        W95930  19.622  29.957  12.006
26116W        W95931  11.308  34.569  10.891
26117W        W95932  20.112  15.619  13.965
26118W        W95933  16.638  43.805   1.388
26119W        W95934  13.349  34.525   0.900
26120W        W95935  34.076  36.093  13.470
26121W        W95936  44.339  10.876  14.320
26122W        W95937   2.339   6.841   3.657
26123W        W95938  20.674  15.726   1.796
26124W        W95939  38.961  30.995  11.440
26125W        W95940   7.675  33.485  12.863
26126W        W95941  35.102  42.930   1.356
26127W        W95942  41.976  25.626   0.902
26128W        W95943  10.682  26.068   2.759
26129W        W95944  29.995  19.236   1.339
26130W        W95945  20.185  44.887  14.359
26131W        W95946  30.002   6.283  14.434
26132W        W95947  17.176   2.967  11.054
26133W        W95948  32.042  18.064  14.911
26134W        W95949   8.229  42.934  12.960
26135W        W95950  32.630   8.232  12.973
26136W        W95951  14.801   5.790  14.326
26137W        W95952  13.309   4.706   1.720
26138W        W95953  13.614  30.645  13.537
26139W        W95954  25.517  27.530  13.431
26140W        W95955  42.005  39.448  14.366
26141W        W95956  43.390   4.314   0.244
26142W        W95957   3.416   1.915   4.243
26143W        W95958  25.149  15.791   0.861
26144W        W95959  16.107  30.562   4.689
26145W        W95960  40.890   3.739   3.212
26146W        W95961  22.055  43.353  11.859
26147W        W95962  19.075  10.247  13.823
26148W        W95963   7.343  11.215   1.866
26149W        W95964   6.326  18.556  10.410
26150W        W95965  26.460   3.238   0.790
26151W        W95966   5.300  26.528  12.431
26152W        W95967   8.689   7.249   4.664
26153W        W95968  44.345   3.845   1.433
26154W        W95969  35.911   4.850   0.278
26155W        W95970  17.238  18.110  10.634
26156W        W95971  35.505  15.295   1.309
26157W        W95972  28.501  35.962  13.444
26158W        W95973  12.309  40.997  13.376
26159W        W95974  13.803  13.225  11.480
26160W        W95975  41.978  30.024  10.467
26161W        W95976   8.324   6.368  11.476
26162W        W95977  11.676  25.034   1.750
26163W        W95978  44.935  25.577  11.962
26164W        W95979  28.447  17.109   0.393
26165W        W95980  41.351  20.676  12.978
26166W        W95981  43.789  19.710  13.009
26167W        W95982  18.293  19.616  12.873
26168W        W95983  25.670  10.654  14.778
26169W        W95984  35.068  39.896  13.385
26170W        W95985  36.481  34.874   5.287
26171W        W95986   2.439  40.325  12.924
26172W        W95987  18.193  19.258  12.893
26173W        W95988  43.799  18.657  10.431
26174W        W95989   7.776   0.436   3.645
26175W        W95990  28.122  22.648   1.876
26176W        W95991   8.855   3.813  14.284
26177W        W95992  25.974  22.531   1.895
26178W        W95993  35.868  27.689   4.158
26179W        W95994   6.420   1.750  12.940
26180W        W95995  31.984  34.036  12.426
26181W        W95996   6.340  44.367   1.342
26182W        W95997  30.599  11.175   0.308
26183W        W95998  12.790   4.811   3.164
26184W        W95999  37.378   8.252  14.875
26185W        W96000  23.538  12.834  11.979
26186W        W96001  11.228  19.166   5.793
26187W        W96002  36.962   2.940  10.616
26188W        W96003  23.729  44.494  14.032
26189W        W96004  11.329  28.531  14.379
26190W        W96005  11.655  21.653  13.940
26191W        W96006  32.132  13.151  12.367
26192W        W96007  41.807  30.504   3.255
26193W        W96008  24.007  10.187   3.253
26194W        W96009  34.540  25.175   3.736
26195W        W96010  22.553   7.276  10.041
26196W        W96011  31.611  36.564  13.418
26197W        W96012  44.421  41.524   3.374
26198W        W96013   6.424   9.345   3.798
26199W        W96014  11.162  37.893   2.897
26200W        W96015  35.463  12.122   3.703
26201W        W96016   7.820  25.644   3.800
26202W        W96017  36.844  26.019   1.739
26203W        W96018  39.877  15.713  10.407
26204W        W96019  19.047  11.838   1.281
26205W        W96020   1.800  34.484   0.423
26206W        W96021  18.066  42.467   2.864
26207W        W96022  14.744  36.949   1.823
26208W        W96023  20.115  11.658   4.260
26209W        W96024  37.965  43.402   4.650
26210W        W96025  33.070  20.529  11.892
26211W        W96026  41.510  13.179  12.557
26212W        W96027  28.984   0.479   3.146
26213W        W96028  33.595  16.598  10.075
26214W        W96029  32.121  23.513  13.334
26215W        W96030  18.786   7.670  10.528
26216W        W96031  11.167   9.229   0.481
26217W        W96032  21.062  12.838  14.021
26218W        W96033  31.592  23.041  10.487
26219W        W96034  24.124  36.016   0.810
26220W        W96035  32.439  22.195  14.372
26221W        W96036  42.491   7.211  11.950
26222W        W96037  22.700  28.530   0.789
26223W        W96038  37.538   6.407  12.026
26224W        W96039  27.198  18.124  11.426
26225W        W96040  18.768  35.422  11.398
26226W        W96041  44.394  43.785  14.953
26227W        W96042  36.963  39.508   1.759
26228W        W96043  38.492  15.726   2.390
26229W        W96044  28.536  35.468   4.150
26230W        W96045   6.417  14.168   0.901
26231W        W96046   6.901   6.220  10.417
26232W        W96047   2.900  15.684  12.007
26233W        W96048  36.456  14.715  10.968
26234W        W96049  35.551  19.621  14.300
26235W        W96050  38.468  31.956   1.752
26236W        W96051  24.040  19.140   3.367
26237W        W96052  21.229  13.688   3.752
26238W        W96053  35.561  11.688  10.973
26239W        W96054   9.819  11.148   4.217
26240W        W96055  21.678   4.424  14.308
26241W        W96056   1.766  16.189  10.406
26242W        W96057   3.748   3.410  14.435
26243W        W96058   4.387  35.507   2.898
26244W        W96059  18.055  11.335  11.491
26245W        W96060  11.786  13.782  10.629
26246W        W96061  40.426   6.900   4.352
26247W        W96062  41.343  41.850   4.783
26248W        W96063  27.608  19.079   1.443
26249W        W96064  40.001  35.974  11.975
26250W        W96065   7.218  42.798  12.956
26251W        W96066  34.544  30.100  13.450
26252W        W96067   0.462  33.957  13.964
26253W        W96068  37.959  11.838  12.552
26254W        W96069  41.474  34.060  13.898
26255W        W96070  44.825  33.050  14.409
26256W        W96071  14.224   7.373   4.265
26257W        W96072  10.316  35.382   3.791
26258W        W96073   7.764  44.876   1.355
26259W        W96074  34.423  41.965  13.326
26260W        W96075  37.401   4.336  14.835
26261W        W96076  27.028  14.237  11.600
26262W        W96077  15.097  43.386   4.643
26263W        W96078  39.960   8.160  10.543
26264W        W96079  22.198  17.702   4.732
26265W        W96080  15.304  14.174  13.447
26266W        W96081  44.957  35.461   3.721
26267W        W96082  15.685  30.996   3.638
26268W        W96083  11.726  27.498  11.590
26269W        W96084   1.861  19.660  11.069
26270W        W96085  17.072   6.302  13.367
26271W        W96086  39.479   5.202  11.451
26272W        W96087  43.360  28.626  13.864
26273W        W96088   3.276   0.888   1.858
26274W        W96089  25.522  44.780  11.580
26275W        W96090  16.297   3.925   4.778
26276W        W96091  42.345   8.394   1.714
26277W        W96092  31.956   3.295  14.762
26278W        W96093   5.324  28.552  10.930
26279W        W96094  38.535  29.608   4.600
26280W        W96095  28.120  22.100   3.261
26281W        W96096  24.504   0.467   0.922
26282W        W96097  40.549  35.010   3.868
26283W        W96098   1.777  12.720   3.648
26284W        W96099  14.188   6.279   3.195
26285W        W96100  35.900  36.947   4.281
26286W        W96101  37.506  43.468   0.748
26287W        W96102  26.087  24.045  13.843
26288W        W96103  17.236  35.871  13.906
26289W        W96104   5.427  34.931  11.445
26290W        W96105  40.019  24.089  14.373
26291W        W96106  13.777  24.016  11.892
26292W        W96107   8.291  14.664  12.446
26293W        W96108  32.981  22.097   2.208
26294W        W96109  11.181   7.239   1.362
26295W        W96110  25.677  28.530   4.801
26296W        W96111   1.734  34.558   1.775
26297W        W96112  35.015  39.973  12.517
26298W        W96113  30.150  33.035   2.232
26299W        W96114  15.653  10.723   3.635
26300W        W96115  10.209   8.289   2.363
26301W        W96116  23.730  22.236   2.280
26302W        W96117  28.437  19.751   4.644
26303W        W96118  26.089  13.227  13.433
26304W        W96119  22.593  39.546  10.076
26305W        W96120   8.887  33.559  14.802
26306W        W96121  11.137  41.469  11.115
26307W        W96122  25.681  22.138   2.297
26308W        W96123  25.492  24.554  10.577
26309W        W96124  14.593  41.304  13.057
26310W        W96125   7.787  17.220  11.966
26311W        W96126  10.295  27.602   3.738
26312W        W96127   2.741  40.820  11.588
26313W        W96128  34.374  26.668   2.732
26314W        W96129  34.966  26.655   2.384
26315W        W96130  41.355  38.995  13.322
26316W        W96131  30.582  43.892  13.019
26317W        W96132  42.830   7.882  11.916
26318W        W96133  18.137   8.212   3.341
26319W        W96134  40.904  26.208  13.047
26320W        W96135  22.236   6.919   2.698
26321W        W96136  10.793  39.929   0.968
26322W        W96137  17.634  21.758  14.292
26323W        W96138   8.739  43.899   3.790
26324W        W96139  28.516  12.817  13.032
26325W        W96140  30.424  25.125   2.219
26326W        W96141  33.387  14.681  10.894
26327W        W96142  30.918   7.851  14.876
26328W        W96143  44.450  16.764   4.328
26329W        W96144  42.523  27.945   1.736
26330W        W96145  43.825   8.266  14.970
26331W        W96146  13.751   7.714  11.431
26332W        W96147  24.594  30.907  14.795
26333W        W96148  30.126  13.329   0.888
26334W        W96149  22.100   5.390   2.720
26335W        W96150  21.653   3.711   0.254
26336W        W96151  13.775   1.432  10.890
26337W        W96152  31.436  29.065  11.075
26338W        W96153  39.908  11.655  13.429
26339W        W96154  12.249  24.175  13.539
26340W        W96155   1.774   2.229  10.547
26341W        W96156  41.943  20.110   2.756
26342W        W96157  13.624  12.357   4.275
26343W        W96158  38.975  32.921  14.320
26344W        W96159   0.274   3.412   2.188
26345W        W96160  24.117   2.897  14.330
26346W        W96161  32.514  16.685   4.735
26347W        W96162  29.660  31.075  12.008
26348W        W96163  32.103  13.612  14.848
26349W        W96164   9.197  16.704  13.526
26350W        W96165  42.848  13.150  11.036
26351W        W96166  25.034  42.833  10.604
26352W        W96167  18.153  35.963  10.952
26353W        W96168  25.116  16.590   2.868
26354W        W96169   8.878  36.469   1.767
26355W        W96170  24.582  34.386   0.276
26356W        W96171  33.488  33.554   4.634
26357W        W96172  22.112   5.735   0.917
26358W        W96173  13.789  13.270   0.779
26359W        W96174  40.375  30.933  13.439
26360W        W96175  15.219  10.842   1.823
26361W        W96176  31.564   3.820   0.317
26362W        W96177  37.077  43.949  14.915
26363W        W96178  16.804   3.918  10.473
26364W        W96179  18.617  37.861  11.908
26365W        W96180  36.471  15.738  10.427
26366W        W96181   9.345  20.737  14.015
26367W        W96182  32.409   0.271   0.251
26368W        W96183  13.702   7.396  11.877
26369W        W96184  16.143  17.755  12.059
26370W        W96185  12.244  24.722  11.121
26371W        W96186  41.835  21.064  14.336
26372W        W96187  18.105  38.349   0.845
26373W        W96188  29.023  14.271   3.251
26374W        W96189  21.756  32.490   3.638
26375W        W96190   6.210  16.696  13.866
26376W        W96191  42.792  21.611   2.326
26377W        W96192  36.495  11.262  11.992
26378W        W96193  37.036  33.448   1.927
26379W        W96194  44.495  13.135   2.764
26380W        W96195   4.862  34.469   3.770
26381W        W96196   0.447  44.468  14.287
26382W        W96197  21.232   2.951  10.967
26383W        W96198  10.146  19.732   1.878
26384W        W96199   5.227  29.089   3.257
26385W        W96200  16.198  44.387  11.036
26386W        W96201  27.554  15.192  11.584
26387W        W96202   8.863  20.168  11.934
26388W        W96203  16.684  19.053   2.703
26389W        W96204  11.642  10.155   5.174
26390W        W96205  28.085   4.792  12.382
26391W        W96206  25.197  44.500  13.017
26392W        W96207  23.593   7.903  13.013
26393W        W96208  22.025  17.579   4.305
26394W        W96209  12.728  40.004  12.440
26395W        W96210  38.867  35.065   2.323
26396W        W96211   9.326  42.010   2.687
26397W        W96212  33.113  25.986   4.602
26398W        W96213   4.788  21.136   0.395
26399W        W96214  35.981  34.394   5.171
26400W        W96215  33.909  40.411  13.502
26401W        W96216  11.231  12.659   2.722
26402W        W96217  34.523  39.439   2.777
26403W        W96218  41.450  34.953   2.885
26404W        W96219  22.215  14.267  12.941
26405W        W96220  39.386   4.324   2.337
26406W        W96221   4.256  12.283   0.913
26407W        W96222  23.041  31.515  10.576
26408W        W96223  25.006  16.208  12.050
26409W        W96224   5.728   1.400  11.550
26410W        W96225  24.096  28.137  14.364
26411W        W96226  19.229  25.085   4.169
26412W        W96227  30.106  26.682   0.760
26413W        W96228  43.484  30.496  13.320
26414W        W96229   5.873  21.705  14.001
26415W        W96230  30.652  27.190  12.853
26416W        W96231  40.021  41.390  11.570
26417W        W96232  32.928  20.581   4.260
26418W        W96233  31.468  26.679   4.303
26419W        W96234  30.946   7.367  10.147
26420W        W96235  43.847  42.495   2.200
26421W        W96236   4.281  24.210   0.854
26422W        W96237  17.209  17.214  14.774
26423W        W96238  44.344  11.254  14.856
26424W        W96239  27.072  43.857   2.391
26425W        W96240   3.317  32.988   2.828
26426W        W96241   3.442  14.805  13.308
26427W        W96242  44.427  28.614   2.223
26428W        W96243  44.502  17.099  11.470
26429W        W96244  24.032  29.140   2.675
26430W        W96245  29.128  28.474   0.370
26431W        W96246  23.120   3.371  13.427
26432W        W96247  35.891  11.185   1.916
26433W        W96248   5.314  40.357  12.905
26434W        W96249  41.404   1.446   4.183
26435W        W96250  14.326  24.074   2.361
26436W        W96251  40.472  42.961   4.173
26437W        W96252   8.815   4.719  12.402
26438W        W96253  27.638   5.325  14.456
26439W        W96254  43.376  35.085   1.246
26440W        W96255  21.151  41.000  12.492
26441W        W96256  22.746  25.683  12.855
26442W        W96257  35.986  32.426  10.447
26443W        W96258   2.850  17.194   0.951
26444W        W96259   1.774  44.796   1.934
26445W        W96260  24.118  30.998   0.915
26446W        W96261   9.827  17.689  11.925
26447W        W96262  34.388  35.364  11.578
26448W        W96263  33.568  31.057  13.910
26449W        W96264  25.129   2.232  12.847
26450W        W96265  37.440  23.588   2.693
26451W        W96266   3.899  44.303   3.629
26452W        W96267  19.616  33.582  12.413
26453W        W96268  17.654  12.164   1.283
26454W        W96269  44.934  12.329  13.020
26455W        W96270  40.310  34.563  13.426
26456W        W96271   4.218  17.111   0.787
26457W        W96272  15.657  36.911  12.380
26458W        W96273  14.101   9.344   5.144
26459W        W96274  35.974  30.974   3.862
26460W        W96275  12.302   2.793   4.336
26461W        W96276  41.450  21.511  14.978
26462W        W96277  34.929  40.439  10.940
26463W        W96278  11.849  16.657  11.919
26464W        W96279   3.279   8.884  10.518
26465W        W96280  43.886  21.746  11.379
26466W        W96281  22.524  36.865   2.833
26467W        W96282  20.634  41.292  11.557
26468W        W96283  29.938   2.843  12.385
26469W        W96284  25.146   5.338  12.538
26470W        W96285  28.609   0.754   3.336
26471W        W96286  25.128  26.494  14.819
26472W        W96287  22.505   0.938   2.369
26473W        W96288  20.654  13.667  12.870
26474W        W96289  14.606  12.841   4.743
26475W        W96290  22.741  16.746   5.115
26476W        W96291   0.835  31.512   0.455
26477W        W96292  15.631  32.032  13.028
26478W        W96293  10.201  37.413   0.245
26479W        W96294  19.675  37.491  13.030
26480W        W96295   9.258   0.876  10.557
26481W        W96296  26.175   1.932  11.426
26482W        W96297  28.957  22.111   1.262
26483W        W96298   1.754   0.844  10.576
26484W        W96299  10.300   2.331   4.766
26485W        W96300  12.631  43.952   1.331
26486W        W96301  42.858  41.456   3.241
26487W        W96302   6.760  23.177   4.725
26488W        W96303  34.615   0.986   3.331
26489W        W96304  42.373   7.371  10.569
26490W        W96305   9.392  30.446   4.670
26491W        W96306  20.750   9.744  13.023
26492W        W96307   2.261  22.182   1.248
26493W        W96308  29.647  41.409   3.770
26494W        W96309  30.066   0.269   1.426
26495W        W96310  42.451  22.623  13.803
26496W        W96311  16.697  17.782  14.495
26497W        W96312  26.032  32.461   2.838
26498W        W96313   8.682  14.665  14.414
26499W        W96314  42.370  16.146   4.689
26500W        W96315  10.840  44.337  12.554
26501W        W96316  17.100   4.884  13.978
26502W        W96317  31.545  30.133   4.648
26503W        W96318  26.612  23.593   4.664
26504W        W96319  35.968  21.197   5.308
26505W        W96320  24.597  38.970   0.307
26506W        W96321  34.866   5.324  11.409
26507W        W96322  37.349   6.284   3.839
26508W        W96323  18.671  44.830  13.509
26509W        W96324  27.138  34.082   1.743
26510W        W96325  39.482  23.590   4.746
26511W        W96326  41.827  17.203   5.108
26512W        W96327  29.594   5.798  10.505
26513W        W96328  27.656  10.380   4.248
26514W        W96329  17.667  15.702   3.283
26515W        W96330   3.718  15.104   4.600
26516W        W96331  29.550  23.135   0.391
26517W        W96332  22.251   5.806  11.948
26518W        W96333   5.766  23.107   0.374
26519W        W96334   1.479  17.617   1.785
26520W        W96335   1.823  14.219   1.405
26521W        W96336  15.678  22.680  11.889
26522W        W96337  30.914  19.128   3.315
26523W        W96338  39.429  12.715  12.955
26524W        W96339  44.811  11.264   4.733
26525W        W96340  22.663  34.537  12.824
26526W        W96341  15.640  24.493  10.471
26527W        W96342  44.001   7.227  13.945
26528W        W96343  40.471  16.313   3.380
26529W        W96344  12.358  21.253  11.596
26530W        W96345  41.535   2.800  13.978
26531W        W96346  38.885  34.572  10.565
26532W        W96347  28.669  14.166  11.502
26533W        W96348  28.986   7.860  13.477
26534W        W96349  35.519   9.334  13.895
26535W        W96350  11.261  22.722  10.947
26536W        W96351  23.657  20.193   1.818
26537W        W96352   6.237  36.917   0.318
26538W        W96353  16.159  35.489   0.329
26539W        W96354   9.812  44.378   3.742
26540W        W96355  18.662  27.502  11.930
26541W        W96356   8.298  16.303  13.356
26542W        W96357  21.639  42.485  11.598
26543W        W96358  37.993   1.362  13.440
26544W        W96359  29.169  18.692   2.897
26545W        W96360  19.636  24.077  11.551
26546W        W96361  14.767  33.978   3.203
26547W        W96362   9.742  12.220  13.409
26548W        W96363   7.761  41.968   1.795
26549W        W96364  23.224   7.844   2.900
26550W        W96365  36.856   3.459  10.598
26551W        W96366  23.085  33.554   0.740
26552W        W96367  26.122  17.661  13.860
26553W        W96368   8.700  24.993  11.514
26554W        W96369  12.699  40.334   3.219
26555W        W96370  23.226  33.088   1.793
26556W        W96371  21.710  26.595   2.760
26557W        W96372  41.461  22.710  12.470
26558W        W96373  27.028  38.503  10.990
26559W        W96374   2.847  34.992   1.291
26560W        W96375  15.804  23.193   0.294
26561W        W96376  20.634  26.005  10.946
26562W        W96377  20.036   2.364  13.890
26563W        W96378  15.136  37.975   0.864
26564W        W96379  41.822  43.007  12.890
26565W        W96380  38.501  11.246  13.467
26566W        W96381  20.095  36.057  10.631
26567W        W96382  28.154  20.748   4.266
26568W        W96383  16.576  11.690  13.814
26569W        W96384  19.193  28.587   0.906
26570W        W96385   3.391  21.222   3.849
26571W        W96386   7.402  27.657  12.992
26572W        W96387   8.732  15.796  10.902
26573W        W96388  23.513   1.795  11.045
26574W        W96389  44.872  35.030  10.076
26575W        W96390  37.053  23.179  11.908
26576W        W96391  10.848  41.902  13.410
26577W        W96392   4.325  15.780  11.967
26578W        W96393  42.808  29.171   2.792
26579W        W96394  20.126  38.476   1.248
26580W        W96395  33.449  18.575   4.329
26581W        W96396   1.354  26.048   2.747
26582W        W96397  26.531  25.168  11.099
26583W        W96398  29.629  29.980   2.281
26584W        W96399  23.628  34.543  11.611
26585W        W96400  39.040  26.648  12.932
26586W        W96401   7.407  17.280  12.877
26587W        W96402  14.156  15.267  12.440
26588W        W96403  43.892  33.030   0.928
26589W        W96404   5.345   5.694   4.612
26590W        W96405  31.455   7.749   4.286
26591W        W96406  13.244  44.434  14.999
26592W        W96407  31.990  38.848   0.452
26593W        W96408  23.191  26.540  12.901
26594W        W96409  34.089  21.647   0.409
26595W        W96410  12.812  20.174  13.407
26596W        W96411  30.907  26.663   1.274
26597W        W96412   4.429  23.095   4.764
26598W        W96413  22.549  15.258  10.412
26599W        W96414  36.369  11.762  14.373
26600W        W96415   4.362  35.449   0.739
26601W        W96416  27.069  26.685  10.941
26602W        W96417   4.361   6.828   0.449
26603W        W96418  21.181   0.940  12.938
26604W        W96419  39.515   5.343  12.415
26605W        W96420  44.488  13.820  12.932
26606W        W96421  42.468  36.521  12.563
26607W        W96422  27.648   3.899   4.782
26608W        W96423  14.289  22.228  13.837
26609W        W96424  42.485   4.251  14.329
26610W        W96425  27.112  21.041  10.941
26611W        W96426  41.973   2.847   1.364
26612W        W96427  29.631   1.324  12.555
26613W        W96428  40.888  13.274  12.451
26614W        W96429   8.892  10.873   3.188
26615W        W96430   3.860  22.173   3.381
26616W        W96431  21.170  44.881   0.757
26617W        W96432  30.165  10.167  10.587
26618W        W96433  12.160   3.813  13.382
26619W        W96434   2.878   4.289   3.719
26620W        W96435   3.827  23.238  14.799
26621W        W96436  17.630  37.469   4.800
26622W        W96437  16.221  17.278   1.433
26623W        W96438   2.296  30.435   3.331
26624W        W96439   5.698   1.811   2.894
26625W        W96440  32.417  27.023  14.334
26626W        W96441  16.729  18.129  14.024
26627W        W96442  41.960  13.680   1.383
26628W        W96443  18.745  26.470   0.836
26629W        W96444  18.086  41.326   0.407
26630W        W96445  39.317   0.809  12.436
26631W        W96446  12.119   0.408   1.289
26632W        W96447  33.979  40.807   1.344
26633W        W96448  37.465  43.502  12.554
26634W        W96449   9.822  27.012   3.322
26635W        W96450  38.339  15.652   0.787
26636W        W96451  24.165  12.696  12.411
26637W        W96452  40.038   1.959  10.067
26638W        W96453  42.438   2.751   4.681
26639W        W96454  30.462  36.480  11.909
26640W        W96455  40.898  32.504  13.421
26641W        W96456  44.390  17.122  12.347
26642W        W96457  30.569  29.037  13.816
26643W        W96458  44.939  19.644  11.915
26644W        W96459  36.862  37.002   2.714
26645W        W96460  26.139  26.528   3.257
26646W        W96461   4.827  14.812   1.749
26647W        W96462   8.213  38.383  14.905
26648W        W96463  22.046  14.615   0.773
26649W        W96464   2.317  14.819   2.264
26650W        W96465  28.147  40.815  13.531
26651W        W96466  27.143  23.702   1.784
26652W        W96467  13.731  39.900   1.919
26653W        W96468   9.185  41.329  11.556
26654W        W96469  41.300  20.694   2.857
26655W        W96470  40.328  29.487  14.515
26656W        W96471  14.720  30.562   1.839
26657W        W96472  29.447  32.037   3.330
26658W        W96473  13.704  34.456  10.574
26659W        W96474  27.083  19.713   2.848
26660W        W96475  37.932  42.009   2.771
26661W        W96476   8.293   1.910   0.795
26662W        W96477  31.490  12.856   2.247
26663W        W96478  36.543   2.235   0.872
26664W        W96479   1.922  40.835  12.896
26665W        W96480  34.923  38.346  14.331
26666W        W96481  44.310  39.954  10.493
26667W        W96482  31.487  12.307   3.774
26668W        W96483  10.204  16.121   1.240
26669W        W96484  18.205  44.938   0.930
26670W        W96485  32.542  27.647  13.792
26671W        W96486  15.676   1.305   4.612
26672W        W96487  22.535  20.730  10.442
26673W        W96488  38.943   1.445  13.866
26674W        W96489   7.806  23.083   1.316
26675W        W96490   3.383  40.444  12.878
26676W        W96491  37.879  12.337   4.285
26677W        W96492  18.209  20.566   4.343
26678W        W96493  21.152   2.920  13.796
26679W        W96494  41.292  11.272  12.428
26680W        W96495  11.653   4.349  11.432
26681W        W96496  37.396  27.975   0.741
26682W        W96497  39.514   4.754  14.337
26683W        W96498  23.678  31.641  10.618
26684W        W96499  37.979  22.551   3.671
26685W        W96500  10.848  43.788   4.301
26686W        W96501  24.166  33.123  13.335
26687W        W96502  33.440  11.634   0.469
26688W        W96503  14.651   2.299  13.494
26689W        W96504  37.362  28.662   2.690
26690W        W96505  34.995   0.934  13.905
26691W        W96506  18.119  35.558   3.849
26692W        W96507  11.201  11.314   4.214
26693W        W96508  43.329  23.148   0.397
26694W        W96509  14.298  38.450  11.437
26695W        W96510  42.428  43.018  11.578
26696W        W96511  25.211   0.295   3.200
26697W        W96512  14.643  10.210  10.493
26698W        W96513   4.814  23.200  11.595
26699W        W96514   2.437  27.519   1.395
26700W        W96515  20.036  40.956   2.302
26701W        W96516  21.535  21.123   3.741
26702W        W96517  19.538  13.155  13.968
26703W        W96518   9.651   7.192   2.368
26704W        W96519  40.504  14.338  14.991
26705W        W96520  18.105  21.066  11.856
26706W        W96521  28.154  39.542   4.768
26707W        W96522  19.687  43.320   1.330
26708W        W96523  26.699  10.781   5.113
26709W        W96524  28.055  39.476  11.552
26710W        W96525  29.534   2.724   2.882
26711W        W96526  20.049  16.290  14.369
26712W        W96527  27.081  39.950  12.433
26713W        W96528  21.133   2.815  12.348
26714W        W96529  10.638  22.032  13.884
26715W        W96530  33.031  26.494  10.426
26716W        W96531   1.905  34.465  13.482
26717W        W96532  38.992  29.581  14.987
26718W        W96533  19.105  30.101  13.005
26719W        W96534  21.583  15.111  14.371
26720W        W96535  10.683  14.686  13.398
26721W        W96536   8.345  15.239  10.611
26722W        W96537  24.145  14.782  14.498
26723W        W96538  39.001  21.537   0.923
26724W        W96539   2.280   9.824  10.551
26725W        W96540   7.687  22.046  13.904
26726W        W96541  41.015  18.247   2.181
26727W        W96542  28.439  27.558  11.493
26728W        W96543  35.991  42.945   1.926
26729W        W96544  41.941  31.906   2.829
26730W        W96545  15.110   8.382   1.924
26731W        W96546  22.542  31.986  14.363
26732W        W96547  42.903  38.050   4.151
26733W        W96548  28.615  17.244   4.227
26734W        W96549  27.113  43.952  12.504
26735W        W96550  10.191  40.375   1.307
26736W        W96551  32.433  24.123   1.274
26737W        W96552  44.839   5.853  10.557
26738W        W96553  42.523  31.543  14.462
26739W        W96554  20.062  26.124  13.899
26740W        W96555  40.903  10.834   4.280
26741W        W96556  13.759   4.805  12.572
26742W        W96557  30.625  20.138   1.698
26743W        W96558  13.710   5.227  14.281
26744W        W96559  39.912  13.254   3.192
26745W        W96560  24.044  19.648   2.666
26746W        W96561  32.108  18.634   2.853
26747W        W96562  32.463  10.678  12.361
26748W        W96563   6.325  44.877   3.210
26749W        W96564  24.067  22.077   1.881
26750W        W96565  33.113  16.203  10.931
26751W        W96566  15.737  28.023  10.580
26752W        W96567  29.017  23.214  11.539
26753W        W96568   2.287  28.969   3.290
26754W        W96569  21.622  31.989  13.040
26755W        W96570  35.593  14.596   1.758
26756W        W96571  18.748  20.117  13.367
26757W        W96572  33.050  32.043   1.725
26758W        W96573  38.039  12.346  11.586
26759W        W96574   1.321   2.886  10.587
26760W        W96575  42.327  16.661   0.286
26761W        W96576  23.659  23.052  13.979
26762W        W96577   2.732  26.663   1.396
26763W        W96578  26.166  18.744  13.904
26764W        W96579  42.458  42.915  11.067
26765W        W96580  22.232  16.172   2.837
26766W        W96581  19.539  26.459   2.216
26767W        W96582   1.835  30.079   4.608
26768W        W96583  17.127  20.765  12.494
26769W        W96584  20.064  14.132   5.093
26770W        W96585  18.731   9.859  10.554
26771W        W96586  43.437  39.553   3.185
26772W        W96587  11.723   4.323   2.197
26773W        W96588  31.584   5.920  13.016
26774W        W96589  44.355   5.715   1.342
26775W        W96590   4.826  30.560  12.000
26776W        W96591  41.820   8.661   0.947
26777W        W96592  32.546   1.238   0.306
26778W        W96593  12.763   1.323  14.877
26779W        W96594  36.892  16.259  12.916
26780W        W96595   9.281  31.928   3.194
26781W        W96596  42.971  25.971  11.430
26782W        W96597  25.155  33.407  13.510
26783W        W96598  34.959  10.350  13.334
26784W        W96599  12.289  19.730  13.862
26785W        W96600  11.308  24.028   4.189
26786W        W96601  41.793   1.823  11.049
26787W        W96602  21.157  38.996  10.418
26788W        W96603  29.002  15.099  14.316
26789W        W96604   8.315  18.721  12.484
26790W        W96605  21.213  23.593   2.899
26791W        W96606  12.806  17.591   2.213
26792W        W96607  30.516  32.512  14.022
26793W        W96608  38.454  20.531   4.226
26794W        W96609  20.190   1.777   2.804
26795W        W96610  25.479  12.268  11.584
26796W        W96611   7.870  42.928  10.127
26797W        W96612  24.603  31.540  13.507
26798W        W96613  35.084  42.419   3.168
26799W        W96614  27.180  10.244  14.430
26800W        W96615  26.656   9.348   4.189
26801W        W96616  37.507  10.778  11.524
26802W        W96617   7.216   6.827   1.266
26803W        W96618  10.362  36.003  10.026
26804W        W96619  31.412  41.990   2.682
26805W        W96620  36.557  38.049   2.846
26806W        W96621  15.134  23.191   3.706
26807W        W96622   7.312  14.613   1.423
26808W        W96623  43.892  42.476   4.802
26809W        W96624  15.654  28.618   3.386
26810W        W96625  39.492  40.364   0.451
26811W        W96626  37.576  38.945   3.175
26812W        W96627   4.206   1.342  13.022
26813W        W96628  30.101  12.280  11.039
26814W        W96629  28.938  26.045   0.311
26815W        W96630  32.401  17.270  13.062
26816W        W96631  37.357  31.551  10.967
26817W        W96632   1.426  18.762  12.543
26818W        W96633  36.468  43.313   4.136
26819W        W96634  15.136  43.957   2.733
26820W        W96635  21.062   8.728   4.731
26821W        W96636  13.132  32.050   0.778
26822W        W96637   7.864  41.872   5.125
26823W        W96638  25.646  27.116   4.353
26824W        W96639  31.940   2.857   4.189
26825W        W96640  23.539   4.815  12.851
26826W        W96641   0.791  37.947  11.490
26827W        W96642  44.851  10.182   3.158
26828W        W96643   0.762  28.028  10.146
26829W        W96644  32.928  43.784   4.145
26830W        W96645  22.040  29.918  11.103
26831W        W96646  19.729  30.430  12.997
26832W        W96647   3.436  38.866   3.220
26833W        W96648   5.342   3.224   2.219
26834W        W96649  23.079  42.356  13.946
26835W        W96650  12.333  39.369   2.266
26836W        W96651  13.769  14.127  11.460
26837W        W96652  20.273   5.878  10.944
26838W        W96653  18.074  15.242  13.000
26839W        W96654   8.748   3.934  14.768
26840W        W96655  34.385   2.291   4.797
26841W        W96656  20.692  28.059  10.895
26842W        W96657  18.204  41.348  11.574
26843W        W96658   2.868  44.946   1.336
26844W        W96659  23.724  36.439   1.228
26845W        W96660  18.291  17.181   3.152
26846W        W96661   9.866  33.104  12.962
26847W        W96662  30.483   0.457   0.906
26848W        W96663   4.904  32.978   0.291
26849W        W96664  40.499  41.931   2.841
26850W        W96665  24.097  14.278   4.254
26851W        W96666  43.340   7.797  13.837
26852W        W96667   5.845  33.509   2.291
26853W        W96668   3.216  42.322   1.221
26854W        W96669   3.812  13.210   3.272
26855W        W96670  32.410  13.279   4.293
26856W        W96671   4.723  41.449  13.457
26857W        W96672  42.524   6.304   4.665
26858W        W96673  33.614  16.590  12.505
26859W        W96674  27.470  33.108  11.471
26860W        W96675   5.235  27.952   9.939
26861W        W96676  26.070  20.621   4.708
26862W        W96677  17.587  21.700   4.330
26863W        W96678  43.785  28.005   4.340
26864W        W96679  35.037  35.940  13.323
26865W        W96680  32.437   8.312   4.280
26866W        W96681  18.189  28.560   4.324
26867W        W96682  41.857  37.414   0.783
26868W        W96683  37.897  31.063   2.737
26869W        W96684   9.674  10.138   3.722
26870W        W96685  11.697   7.748   4.794
26871W        W96686   3.291  25.561  11.567
26872W        W96687   4.776   4.834   1.902
26873W        W96688  40.483  36.081  10.020
26874W        W96689  19.154  29.019  10.509
26875W        W96690  23.557  19.153  10.552
26876W        W96691   8.682  32.073  12.508
26877W        W96692  17.574  34.085   1.287
26878W        W96693  10.380  21.698  12.027
26879W        W96694   3.409   6.300  11.954
26880W        W96695  36.852  31.907   1.350
26881W        W96696   1.242  21.630  12.979
26882W        W96697  12.162  11.152  11.990
26883W        W96698  43.462   0.361   2.388
26884W        W96699  42.919  31.947   3.337
26885W        W96700  38.367   2.907  12.074
26886W        W96701  23.503  43.297  10.529
26887W        W96702   3.722  39.002   1.765
26888W        W96703  25.151   6.730   0.397
26889W        W96704   1.379   1.776  14.922
26890W        W96705   5.398  24.546   2.197
26891W        W96706  21.255   1.761  14.325
26892W        W96707   6.918  27.629  13.489
26893W        W96708   4.858   5.308  10.051
26894W        W96709  19.061  21.652   1.856
26895W        W96710  35.879   7.843  14.489
26896W        W96711  41.998   7.833  14.774
26897W        W96712  34.930  10.746   1.412
26898W        W96713  27.521  38.486   3.776
26899W        W96714   1.257  37.944   2.271
26900W        W96715  19.132   8.805   0.800
26901W        W96716  13.698  29.563   0.861
26902W        W96717  43.300  34.419   0.963
26903W        W96718  12.667  41.842   0.440
26904W        W96719  39.026  12.299   0.456
26905W        W96720  21.622   7.377   4.118
26906W        W96721  31.099  35.065  10.157
26907W        W96722  31.979  13.821   2.411
26908W        W96723   6.349  33.428   0.829
26909W        W96724  31.942  22.681  12.481
26910W        W96725  31.028  42.391   0.340
26911W        W96726   8.379   4.360   0.338
26912W        W96727  34.565  27.595  11.089
26913W        W96728   0.265  24.081   4.268
26914W        W96729  19.135   2.831   3.846
26915W        W96730  36.897  21.638  12.520
26916W        W96731  29.157   9.344   1.805
26917W        W96732   6.743  43.406   3.285
26918W        W96733  33.563   6.893  12.844
26919W        W96734  34.996  44.374  10.955
26920W        W96735  17.626  38.511   0.392
26921W        W96736  17.575  11.631   3.311
26922W        W96737   4.349  21.655  14.309
26923W        W96738   3.336  31.030   3.221
26924W        W96739  14.117   3.427  14.873
26925W        W96740  42.998  44.845  10.995
26926W        W96741  16.685  25.176   3.704
26927W        W96742  31.103  29.034  13.808
26928W        W96743  31.088  41.460  14.993
26929W        W96744  17.583  26.148  12.906
26930W        W96745  40.353  41.406   0.812
26931W        W96746  24.704  24.578   4.761
26932W        W96747  44.475  22.022  11.108
26933W        W96748   2.775  16.757   3.178
26934W        W96749  10.280  21.095   0.965
26935W        W96750   1.448   5.899   3.645
26936W        W96751   3.925  25.482   2.872
26937W        W96752  32.981   8.845   4.286
26938W        W96753  26.032  11.622   9.949
26939W        W96754  43.808   2.291  12.967
26940W        W96755  35.072   9.879   4.177
26941W        W96756  38.401  42.283  13.384
26942W        W96757   1.762   5.912   3.752
26943W        W96758  35.935  11.736   1.833
26944W        W96759  21.050   1.930   2.408
26945W        W96760  27.489  22.512   3.305
26946W        W96761   9.216  11.676  13.928
26947W        W96762  28.088  43.292  11.033
26948W        W96763  38.565  34.542  12.350
26949W        W96764  23.214  13.772  10.482
26950W        W96765  40.445  11.652  12.931
26951W        W96766  15.295  12.715   1.425
26952W        W96767  16.601  40.445  11.484
26953W        W96768  13.307  11.355   0.433
26954W        W96769   2.348  38.436   2.794
26955W        W96770   9.687  22.728   0.457
26956W        W96771  40.414  17.677   1.237
26957W        W96772  28.591  40.905   2.693
26958W        W96773  11.344  35.381   3.708
26959W        W96774   2.932  16.810   0.739
26960W        W96775  37.979  13.255   0.942
26961W        W96776  43.419  34.472   1.428
26962W        W96777  16.079   6.761  10.472
26963W        W96778  11.768  16.203   3.813
26964W        W96779  19.567  22.079   4.114
26965W        W96780   7.208  18.643  14.891
26966W        W96781  38.941  40.851  12.523
26967W        W96782   7.318  20.556   1.227
26968W        W96783  11.140  41.451   1.294
26969W        W96784  27.037   7.329   4.178
26970W        W96785  33.060  30.562  12.052
26971W        W96786   2.315   0.955  12.943
26972W        W96787   0.930  34.569   3.649
26973W        W96788   8.356   1.956   1.745
26974W        W96789  37.442  27.651  14.791
26975W        W96790   3.457  30.521   3.833
26976W        W96791  18.748  13.718  11.481
26977W        W96792  17.229  43.278  14.823
26978W        W96793  25.116   1.839  13.823
26979W        W96794  21.041  33.406   0.950
26980W        W96795  29.656   1.851  10.630
26981W        W96796  14.745  14.614  11.967
26982W        W96797   9.276   2.355   3.382
26983W        W96798  24.661  26.175   1.708
26984W        W96799   2.436  41.340  12.390
26985W        W96800   3.783  28.948   1.788
26986W        W96801  36.022   2.306   4.816
26987W        W96802  25.127  39.062  11.384
26988W        W96803   4.412  28.955  10.505
26989W        W96804  19.710  21.143   0.463
26990W        W96805  39.440  28.943   2.769
26991W        W96806  17.758   2.738  11.855
26992W        W96807   9.665  43.874   0.263
26993W        W96808  30.527  12.638  14.325
26994W        W96809   9.311  13.313  13.392
26995W        W96810  18.124  32.595   2.400
26996W        W96811  10.232  19.637  14.830
26997W        W96812  40.323   1.888   5.243
26998W        W96813  37.046   0.311  13.355
26999W        W96814  23.177  41.838  13.063
27000W        W96815  24.176  22.516   2.840
27001W        W96816  14.672  38.952   4.630
27002W        W96817  15.234   5.250  10.417
27003W        W96818  13.786  35.558  14.025
27004W        W96819   1.935  11.706  13.800
27005W        W96820  24.479  10.325   3.378
27006W        W96821   5.313  28.141   2.418
27007W        W96822  30.607  24.525   2.329
27008W        W96823  29.545  42.814   5.208
27009W        W96824   3.364  20.553   1.298
27010W        W96825  32.494  38.389  13.523
27011W        W96826  20.109  28.172  14.826
27012W        W96827  30.013  28.593  13.438
27013W        W96828   8.304  24.569  13.882
27014W        W96829  21.196  21.523  14.310
27015W        W96830  32.015  30.532   4.114
27016W        W96831  41.844  31.526   1.768
27017W        W96832  36.458   1.819  11.424
27018W        W96833  12.832  41.503  12.053
27019W        W96834  30.076   6.783   2.253
27020W        W96835   5.699   0.426  13.539
27021W        W96836  34.952  18.748  12.949
27022W        W96837  43.365  28.936   4.218
27023W        W96838  30.425  16.308  12.514
27024W        W96839  42.001  16.631   0.474
27025W        W96840  15.688  32.579  11.017
27026W        W96841  19.735   3.942  11.377
27027W        W96842  30.630  18.198  11.536
27028W        W96843  30.138  24.565   1.428
27029W        W96844  21.623   2.285   3.806
27030W        W96845  35.443   8.198  10.889
27031W        W96846   7.303  28.658   3.350
27032W        W96847  14.181  19.203   0.734
27033W        W96848  27.639   7.275  13.321
27034W        W96849  29.542  32.986   4.171
27035W        W96850  16.627  36.924   1.743
27036W        W96851  17.594  25.526   2.321
27037W        W96852  31.488   1.294   1.249
27038W        W96853  22.247   0.887   2.866
27039W        W96854  27.624  41.458  10.610
27040W        W96855  18.650  40.422  11.069
27041W        W96856  31.627  10.710   3.809
27042W        W96857  13.797   3.242  12.578
27043W        W96858  18.675  30.464   3.336
27044W        W96859  10.317   9.369   2.780
27045W        W96860  21.605   5.386   4.332
27046W        W96861  39.059  31.479   1.863
27047W        W96862  44.300  19.775   1.446
27048W        W96863  18.652  29.149   0.829
27049W        W96864  44.778  31.576   0.785
27050W        W96865  31.052   6.721   1.350
27051W        W96866  25.163  41.366   2.696
27052W        W96867   6.280  31.480  11.977
27053W        W96868  42.385  36.032  12.897
27054W        W96869  19.247  39.878  11.565
27055W        W96870  44.320  43.464   0.428
27056W        W96871  13.245  40.387   9.966
27057W        W96872   6.338  27.472  14.415
27058W        W96873   4.845  16.162  12.573
27059W        W96874  42.449  25.218   4.122
27060W        W96875  42.405  16.277  11.434
27061W        W96876  26.020  30.117   2.815
27062W        W96877   5.902  19.560  11.500
27063W        W96878  34.918  16.698  13.025
27064W        W96879  17.653   4.721  11.882
27065W        W96880  24.632  33.561   3.268
27066W        W96881   5.212   7.878  14.475
27067W        W96882  38.058  17.798  12.983
27068W        W96883  41.517  18.772   1.371
27069W        W96884  20.198  31.459  12.053
27070W        W96885  16.125  17.127   1.744
27071W        W96886  27.180  32.477  11.495
27072W        W96887  22.513  16.752  12.409
27073W        W96888  18.717  23.002  11.047
27074W        W96889  20.661  37.540   2.322
27075W        W96890  13.659  30.039  10.442
27076W        W96891  28.434  44.408  13.820
27077W        W96892  21.179  34.592  10.939
27078W        W96893  14.793  16.097   3.718
27079W        W96894  31.148  22.650  11.070
27080W        W96895  21.629  39.363   4.185
27081W        W96896   4.271  28.092   0.378
27082W        W96897  41.454  31.119  10.436
27083W        W96898  43.392  41.510  12.889
27084W        W96899  39.387  33.020  13.865
27085W        W96900   2.850  27.646   3.189
27086W        W96901  33.417  19.607   4.173
27087W        W96902  43.272  37.375  12.492
27088W        W96903   2.321  20.169  12.562
27089W        W96904  13.237  29.965   1.271
27090W        W96905   4.345  18.610   1.857
27091W        W96906  17.071  18.758   1.338
27092W        W96907  43.869  39.367   4.827
27093W        W96908  37.349  17.795  14.759
27094W        W96909  35.969  28.558   4.228
27095W        W96910  41.991  34.595   4.656
27096W        W96911  20.536  27.086  10.976
27097W        W96912  19.129  38.996   1.739
27098W        W96913  42.912  41.794  14.763
27099W        W96914  40.469  31.935   0.963
27100W        W96915  39.932  32.440   4.667
27101W        W96916   7.330   7.700  11.082
27102W        W96917   9.183   2.787  14.514
27103W        W96918  18.178  33.490   4.330
27104W        W96919  30.595  30.651   2.208
27105W        W96920  10.226  33.922  14.350
27106W        W96921  17.192  35.535  14.783
27107W        W96922  14.781  20.690   1.791
27108W        W96923  10.193   5.362  11.120
27109W        W96924  29.570  11.821   0.957
27110W        W96925  20.545  41.417  13.380
27111W        W96926  39.322  12.319   1.698
27112W        W96927  42.460   3.343  11.400
27113W        W96928  13.649  35.972   4.340
27114W        W96929  43.489  14.717   3.171
27115W        W96930  42.437  40.322   1.225
27116W        W96931  26.175  32.994   0.883
27117W        W96932  24.990  39.522  14.926
27118W        W96933  26.599  11.751   1.915
27119W        W96934  18.616   6.696  11.982
27120W        W96935   4.303  15.162   3.725
27121W        W96936   7.823  18.743   3.780
27122W        W96937  30.124  29.967  13.059
27123W        W96938  30.958  19.548   0.814
27124W        W96939  18.220  33.432  12.079
27125W        W96940  33.440  37.843   4.738
27126W        W96941  22.594  22.527  12.564
27127W        W96942  39.044   8.221   2.179
27128W        W96943  14.644   5.877  14.791
27129W        W96944  39.056  37.384   3.725
27130W        W96945   8.344  11.657   2.326
27131W        W96946   7.219  20.111  11.533
27132W        W96947   6.411  20.195  13.865
27133W        W96948  13.784  35.583  11.605
27134W        W96949  13.169  31.932   1.336
27135W        W96950  42.028  33.069  12.426
27136W        W96951  36.438  17.739  11.572
27137W        W96952  23.683  27.619  12.453
27138W        W96953  37.845  16.662  11.530
27139W        W96954   5.867  37.037   3.848
27140W        W96955  25.177   0.792  12.840
27141W        W96956   5.263  28.097   1.232
27142W        W96957  36.381   2.376  14.816
27143W        W96958  29.567  17.632   1.715
27144W        W96959   3.716  36.850   0.769
27145W        W96960  43.954   5.309   4.184
27146W        W96961   6.215  29.442   2.259
27147W        W96962   7.406  20.037  13.014
27148W        W96963   0.890  41.334  12.825
27149W        W96964  33.435   8.749  13.410
27150W        W96965  18.642  39.533  13.931
27151W        W96966  33.049  40.838  14.927
27152W        W96967   1.976  14.818   0.926
27153W        W96968  11.196   6.287  10.590
27154W        W96969  42.371   0.946   4.809
27155W        W96970  13.716  11.274  10.577
27156W        W96971   1.818  32.034  13.854
27157W        W96972  31.467  29.108   4.326
27158W        W96973  23.169   2.777  11.405
27159W        W96974  21.191  32.912   3.820
27160W        W96975  28.575  25.097  12.975
27161W        W96976  42.523  13.203   1.866
27162W        W96977   4.266  33.594  14.330
27163W        W96978  44.419  23.497  12.046
27164W        W96979  17.169   9.693  11.958
27165W        W96980   7.234   8.855  14.460
27166W        W96981  35.860  41.945   5.270
27167W        W96982  27.956  44.492   3.819
27168W        W96983  31.903  42.800  14.504
27169W        W96984  37.959  17.219  13.809
27170W        W96985  31.077   9.675   2.672
27171W        W96986  40.419  29.099  11.919
27172W        W96987  18.113  29.653   0.851
27173W        W96988  29.555  37.353   1.845
27174W        W96989  25.664   3.289  11.566
27175W        W96990  28.678  36.097   0.726
27176W        W96991  33.960  10.355   4.629
27177W        W96992   3.924  15.820  11.979
27178W        W96993  13.678  40.975  12.570
27179W        W96994  25.996  43.840   4.135
27180W        W96995  16.269  30.105  10.435
27181W        W96996  40.421  43.824  14.413
27182W        W96997  27.034  17.126   1.432
27183W        W96998  24.995  27.523  10.924
27184W        W96999  25.048  30.076   1.880
27185W        W97000  22.704   9.357  10.914
27186W        W97001  20.191   7.305  12.939
27187W        W97002  10.784  43.283  13.310
27188W        W97003  22.667  23.199   3.859
27189W        W97004  35.370  14.305  14.460
27190W        W97005   0.387  42.953  12.929
27191W        W97006  27.048  29.152  14.293
27192W        W97007  22.576   6.264   0.393
27193W        W97008   6.330  30.115   2.848
27194W        W97009  27.063  38.041  10.966
27195W        W97010   8.273  35.960   3.170
27196W        W97011  24.189  31.964   1.338
27197W        W97012   8.860  41.904  11.905
27198W        W97013   1.882  12.274  13.360
27199W        W97014  42.924  40.398   1.868
27200W        W97015  41.956  16.594   3.207
27201W        W97016  13.241  43.860   4.148
27202W        W97017  33.911  18.741   0.291
27203W        W97018  13.653  23.517  10.476
27204W        W97019   3.326  41.007   3.329
27205W        W97020  21.554  15.629   3.324
27206W        W97021  31.063   3.877  12.080
27207W        W97022  13.633  32.594  13.515
27208W        W97023  26.121  40.424   0.251
27209W        W97024   7.761  20.631  13.427
27210W        W97025  27.110  28.996   2.859
27211W        W97026  11.644  30.162  14.977
27212W        W97027  41.966  27.495   2.853
27213W        W97028   5.807  19.717  11.913
27214W        W97029  37.348  25.021  13.004
27215W        W97030   5.850  13.151   0.368
27216W        W97031  44.910  25.504  10.588
27217W        W97032  17.244  40.422   4.718
27218W        W97033  10.328  36.547   9.945
27219W        W97034  42.370  12.214   2.416
27220W        W97035  31.012  32.070   1.215
27221W        W97036  42.450   9.219   2.300
27222W        W97037  20.194  28.479   2.851
27223W        W97038  34.546  32.091  13.507
27224W        W97039  19.607  11.693  13.309
27225W        W97040   4.753  22.156  13.430
27226W        W97041  34.374  26.555  12.551
27227W        W97042   2.839   4.221   2.825
27228W        W97043  34.514   7.796   4.785
27229W        W97044  34.882   8.683  11.968
27230W        W97045   1.330   0.785   4.637
27231W        W97046  14.588   7.410  10.504
27232W        W97047  16.193  44.833   0.918
27233W        W97048   5.922  32.576   1.934
27234W        W97049  12.688   2.236  12.575
27235W        W97050  38.557  10.764   4.132
27236W        W97051   5.276  44.827  12.538
27237W        W97052  14.682  23.220  11.541
27238W        W97053   2.296   5.707   3.309
27239W        W97054   6.281  21.164   2.221
27240W        W97055   5.784  14.776   1.329
27241W        W97056  22.162  16.245   1.219
27242W        W97057  26.658  33.035   1.428
27243W        W97058  15.224  15.774  12.051
27244W        W97059   3.401  37.539   3.151
27245W        W97060  34.552  26.538  11.585
27246W        W97061  28.650   6.833   0.317
27247W        W97062  24.178  42.326   1.885
27248W        W97063   5.869  17.684  11.110
27249W        W97064  42.434  13.702   1.297
27250W        W97065  11.777   5.840  10.019
27251W        W97066   8.896  22.218   4.723
27252W        W97067  17.619  36.953  13.899
27253W        W97068   5.285   8.266  14.305
27254W        W97069  24.664  30.165   4.224
27255W        W97070   4.846  36.589   3.195
27256W        W97071   2.313   0.401  14.355
27257W        W97072  30.155  33.496   1.811
27258W        W97073  19.117  17.061  13.412
27259W        W97074  12.857  12.856   0.251
27260W        W97075  37.494   9.738   1.731
27261W        W97076  19.613  28.941  13.377
27262W        W97077   6.381   7.323   2.220
27263W        W97078  20.091  25.541  13.309
27264W        W97079  37.352  37.342   2.707
27265W        W97080  40.909  35.401   1.766
27266W        W97081  31.092   6.389  13.526
27267W        W97082  43.335  22.724  14.499
27268W        W97083  12.190  19.566  13.402
27269W        W97084  25.101  18.094   4.714
27270W        W97085  37.921  38.354  12.988
27271W        W97086  18.176  11.341   3.367
27272W        W97087  41.980  34.393  13.045
27273W        W97088  13.711  40.054   3.163
27274W        W97089  23.669  39.411  10.094
27275W        W97090  32.940  38.344   2.364
27276W        W97091  40.501   7.828  11.063
27277W        W97092  41.873   2.828  14.301
27278W        W97093  12.353  20.237  13.457
27279W        W97094  32.002  35.961  13.387
27280W        W97095  32.523  38.973   2.684
27281W        W97096   8.734  41.813   4.147
27282W        W97097  28.561   6.229   2.683
27283W        W97098  15.193  34.031   0.880
27284W        W97099   8.871  39.875  12.394
27285W        W97100  43.362  31.435   3.694
27286W        W97101  41.485   9.655   3.651
27287W        W97102  19.043  44.384  11.570
27288W        W97103   6.424   0.988  10.921
27289W        W97104  32.022  32.892   4.686
27290W        W97105   2.273  12.134   0.299
27291W        W97106  22.709  18.130   4.178
27292W        W97107  25.145  26.026   2.354
27293W        W97108   8.169  25.196  13.060
27294W        W97109   2.353  20.634   2.822
27295W        W97110   5.898  29.992  11.384
27296W        W97111  21.599  13.752   0.465
27297W        W97112  18.079   5.291   1.877
27298W        W97113  21.541  32.038  13.495
27299W        W97114   2.852   2.934   3.658
27300W        W97115   9.375  19.663  12.941
27301W        W97116  32.597  26.099  10.423
27302W        W97117   5.234   9.829  13.499
27303W        W97118  33.611  20.100   3.766
27304W        W97119  11.785  38.557  13.471
27305W        W97120  38.874   4.765   3.868
27306W        W97121   7.888  39.888  12.922
27307W        W97122  40.942  36.981   3.850
27308W        W97123   3.357  34.479   4.336
27309W        W97124  26.174  35.590   0.729
27310W        W97125  40.311   5.734  12.023
27311W        W97126   5.221  33.092   1.232
27312W        W97127  23.675  34.112   4.823
27313W        W97128   5.772  29.168   1.752
27314W        W97129  29.535  30.462   1.333
27315W        W97130  17.567  36.964  11.874
27316W        W97131  44.757   0.775  14.490
27317W        W97132  11.669  13.246   2.320
27318W        W97133  10.333  25.513  11.487
27319W        W97134   6.800  14.750  12.916
27320W        W97135  25.178  41.313  12.567
27321W        W97136  18.779   0.404   3.854
27322W        W97137  14.152  44.867   4.602
27323W        W97138   8.269  14.708   2.322
27324W        W97139  43.870  35.395   0.424
27325W        W97140   7.249   0.794   3.289
27326W        W97141  34.446  25.593  11.481
27327W        W97142  25.656  34.996  12.030
27328W        W97143  16.769   9.710  14.512
27329W        W97144  42.953  21.698   1.837
27330W        W97145  17.627  18.278  10.489
27331W        W97146  26.957  31.452  12.568
27332W        W97147  20.740   5.906  12.912
27333W        W97148   7.801  19.591   5.309
27334W        W97149   2.410  15.673  13.395
27335W        W97150  43.422  13.722   0.769
27336W        W97151  31.555  23.158  12.419
27337W        W97152  24.020  15.741   3.298
27338W        W97153  26.477  31.431   4.236
27339W        W97154  28.506  13.351  13.870
27340W        W97155  33.617   6.850  11.987
27341W        W97156  42.855   1.837   0.370
27342W        W97157   7.218  20.738   3.691
27343W        W97158  31.053   7.851  13.423
27344W        W97159  11.633  18.281  13.421
27345W        W97160  15.233  17.174  10.966
27346W        W97161   0.777  29.649   2.329
27347W        W97162  27.040  10.639   4.251
27348W        W97163   6.330  22.616  13.372
27349W        W97164   7.308  35.881  14.030
27350W        W97165  34.864  37.513  14.344
27351W        W97166   1.796  26.051   4.624
27352W        W97167   0.375  11.330   0.737
27353W        W97168  12.641  19.699  10.985
27354W        W97169  25.610  16.745   2.271
27355W        W97170   9.727   8.289  14.409
27356W        W97171  21.053  39.956   1.407
27357W        W97172  34.615  34.936  10.492
27358W        W97173  23.664  31.121  12.393
27359W        W97174  31.631  38.448  14.968
27360W        W97175   2.929  13.619   0.954
27361W        W97176  40.799   1.475  10.600
27362W        W97177  30.921  17.729  10.917
27363W        W97178  43.854  33.087  11.932
27364W        W97179  44.471  41.811   1.699
27365W        W97180  32.921  28.071   2.732
27366W        W97181  10.720  15.287  10.596
27367W        W97182  44.449  32.890  13.407
27368W        W97183  39.548  32.943   2.323
27369W        W97184  19.670  31.032  13.058
27370W        W97185  24.634   9.336  12.373
27371W        W97186  23.190  12.269  10.551
27372W        W97187  16.772  33.412  13.367
27373W        W97188  25.664   3.765   3.238
27374W        W97189  27.116  28.613  12.069
27375W        W97190  40.305  13.728  12.352
27376W        W97191  25.530   8.298  14.807
27377W        W97192   4.288   2.891   4.762
27378W        W97193   8.382   4.358   1.803
27379W        W97194  40.371  16.295  10.598
27380W        W97195  42.844   4.427   0.812
27381W        W97196  30.142  32.622   2.316
27382W        W97197  20.715  10.860   2.199
27383W        W97198  24.102   5.721  12.879
27384W        W97199  10.270  23.989  12.097
27385W        W97200   0.793   7.189  10.481
27386W        W97201  22.548  20.237   3.747
27387W        W97202   0.417  13.612  12.398
27388W        W97203   4.750   3.332  12.402
27389W        W97204   5.757  15.243   3.286
27390W        W97205  20.685  17.681  10.511
27391W        W97206  30.633  27.988   2.248
27392W        W97207   9.698   3.775  13.487
27393W        W97208  25.015  17.730  13.471
27394W        W97209  28.028  29.621  10.527
27395W        W97210  16.185  18.167   1.719
27396W        W97211  38.371  10.716   2.305
27397W        W97212  22.582  17.737   3.289
27398W        W97213   6.302  25.591   1.310
27399W        W97214  22.201  16.234   3.160
27400W        W97215  27.659  33.987  12.853
27401W        W97216   1.336  18.656  11.457
27402W        W97217  27.054   9.825  11.955
27403W        W97218  13.272   1.241   3.786
27404W        W97219  23.118  12.628  14.402
27405W        W97220  31.963  44.300  14.031
27406W        W97221   0.469  29.923  14.802
27407W        W97222  12.786  21.045   3.180
27408W        W97223   2.852   9.777  11.454
27409W        W97224  41.826  25.641   2.413
27410W        W97225  37.056   3.403  13.029
27411W        W97226  41.458  10.334  11.464
27412W        W97227   5.205  28.585   4.297
27413W        W97228  10.223  27.012   2.218
27414W        W97229   3.426  18.182   4.262
27415W        W97230  22.006   6.829  14.819
27416W        W97231  19.085  13.233   2.874
27417W        W97232   5.318   6.420   3.662
27418W        W97233  16.082  35.529   4.328
27419W        W97234   4.903  26.665   1.296
27420W        W97235  20.230   9.361  11.508
27421W        W97236  42.490  14.655   1.821
27422W        W97237  28.165  34.558   4.227
27423W        W97238  30.641  14.614  11.094
27424W        W97239  11.679  38.538  14.029
27425W        W97240  22.588  43.976   2.855
27426W        W97241  16.155  27.512  14.438
27427W        W97242  34.507  18.264   3.770
27428W        W97243   7.824  26.086   2.886
27429W        W97244  16.579  23.653  14.348
27430W        W97245   1.836  13.700  13.060
27431W        W97246   0.911  36.891   2.219
27432W        W97247   7.295  13.710   3.323
27433W        W97248  10.241  35.067   0.778
27434W        W97249  28.485  15.712  11.547
27435W        W97250  15.603  21.070   0.244
27436W        W97251   7.319  33.557   1.446
27437W        W97252  27.974  44.991  14.903
27438W        W97253   7.709  35.465   4.310
27439W        W97254  32.425   7.760  11.524
27440W        W97255  18.224  18.242  10.613
27441W        W97256  19.177   6.412   0.883
27442W        W97257  22.557  30.623  12.526
27443W        W97258   6.817  44.945  13.803
27444W        W97259  12.279  21.092  11.874
27445W        W97260  16.249   0.409  12.467
27446W        W97261  36.972  31.538  10.906
27447W        W97262   1.839  31.463   4.263
27448W        W97263   3.261   3.744   5.107
27449W        W97264   2.936  13.673  13.910
27450W        W97265  12.238  11.210  12.905
27451W        W97266  38.475  16.230   3.351
27452W        W97267  24.652  41.940   0.276
27453W        W97268  25.067  42.951  14.437
27454W        W97269  18.737  14.603   3.243
27455W        W97270   0.324  39.471   0.963
27456W        W97271  33.941   1.918  13.932
27457W        W97272  28.577  23.648   0.458
27458W        W97273  42.904  37.987   2.260
27459W        W97274  34.991  37.861   1.210
27460W        W97275  21.112  14.646   4.648
27461W        W97276  25.526   9.688  11.567
27462W        W97277  35.918  22.562   3.328
27463W        W97278  30.418  34.920   3.368
27464W        W97279  41.396   2.441  13.023
27465W        W97280  16.078  39.925   3.783
27466W        W97281  34.463  14.319   3.292
27467W        W97282  16.605   1.322  11.910
27468W        W97283  11.736  31.908  13.339
27469W        W97284  35.596  33.551   2.731
27470W        W97285  15.619  12.630  11.440
27471W        W97286  39.451   2.930  13.030
27472W        W97287  16.237   8.401   4.661
27473W        W97288  39.511  30.065   0.260
27474W        W97289  33.432  17.760  10.493
27475W        W97290   1.318  27.167  11.102
27476W        W97291   9.715  40.827   3.730
27477W        W97292  22.501  26.063   4.664
27478W        W97293  32.633  31.945   3.805
27479W        W97294  39.505  12.172   0.960
27480W        W97295  28.616  11.693  11.512
27481W        W97296  39.963   3.776   3.749
27482W        W97297   1.743   8.327  11.382
27483W        W97298  37.054  43.287   0.259
27484W        W97299  10.673  25.150   4.775
27485W        W97300  22.052  33.403  12.579
27486W        W97301  10.173  20.154   0.833
27487W        W97302   0.942  19.759   1.735
27488W        W97303  36.900  22.117   4.286
27489W        W97304  36.480  42.343   4.761
27490W        W97305  31.494  24.513  13.535
27491W        W97306  10.795  27.588   4.172
27492W        W97307   7.834  36.934   3.776
27493W        W97308  39.431  34.507  12.566
27494W        W97309   8.248   0.828  14.377
27495W        W97310  15.102   4.707  13.380
27496W        W97311   6.338  29.518  12.359
27497W        W97312  18.786  18.621  11.883
27498W        W97313  27.643  27.053  14.500
27499W        W97314  31.494  44.829   0.967
27500W        W97315   1.814  38.893  13.970
27501W        W97316  35.954  44.909  12.025
27502W        W97317   8.867  35.426  10.496
27503W        W97318  23.557  20.244   3.156
27504W        W97319  14.736  18.702  12.444
27505W        W97320   4.831  18.292   4.618
27506W        W97321  18.057  23.494   3.829
27507W        W97322  14.326  34.372   2.880
27508W        W97323  21.618  35.933  11.086
27509W        W97324  44.782   1.348  14.864
27510W        W97325  28.070   6.294   2.694
27511W        W97326  40.815  12.130  13.797
27512W        W97327  30.995  41.301  12.021
27513W        W97328   6.373  40.409  13.484
27514W        W97329   0.981  38.906  10.628
27515W        W97330  36.578  33.488   4.194
27516W        W97331  24.679  32.028  13.945
27517W        W97332  25.519   3.758  13.379
27518W        W97333  44.419  33.009  11.482
27519W        W97334  26.004  33.398   0.345
27520W        W97335  43.875   2.304   1.375
27521W        W97336  13.165   4.724   4.319
27522W        W97337   7.787  40.964   0.347
27523W        W97338  39.560  31.518   3.348
27524W        W97339   3.341   1.288  12.978
27525W        W97340   1.900  19.592  14.462
27526W        W97341  38.831  13.685  10.561
27527W        W97342  23.591  28.526   3.828
27528W        W97343  39.857   5.840   0.848
27529W        W97344  44.266   5.782  11.554
27530W        W97345  36.535  17.065  10.131
27531W        W97346   9.752  11.345  13.451
27532W        W97347  35.916  10.678  11.019
27533W        W97348  27.003  27.165   4.834
27534W        W97349  32.541  18.625   1.356
27535W        W97350  13.253  10.775   0.899
27536W        W97351  26.666  16.629  10.111
27537W        W97352  32.510  35.507  13.838
27538W        W97353   5.850  29.456   1.733
27539W        W97354  23.662  24.706  10.505
27540W        W97355  28.443  23.159  14.817
27541W        W97356  38.559  14.729  14.799
27542W        W97357   6.761  17.571  13.435
27543W        W97358  26.511  31.092   2.230
27544W        W97359  32.442  24.701  14.932
27545W        W97360  20.230  44.820  11.579
27546W        W97361  29.619   8.760  14.366
27547W        W97362  15.154  44.979   4.244
27548W        W97363  31.077  35.866  11.434
27549W        W97364  16.810  13.283  12.936
27550W        W97365  12.681  17.563   1.255
27551W        W97366  27.956  40.465  12.076
27552W        W97367  33.931   5.242  13.357
27553W        W97368   7.382  34.903   2.697
27554W        W97369  31.633  14.269   3.381
27555W        W97370  28.065   9.211  13.532
27556W        W97371   5.223   6.676  11.490
27557W        W97372  38.347  21.750   1.248
27558W        W97373  27.057  43.875  12.890
27559W        W97374  44.766   9.789   1.262
27560W        W97375  43.332   8.785   1.312
27561W        W97376  28.140  42.370   0.790
27562W        W97377   5.357  12.785  10.897
27563W        W97378   5.216  23.054  13.323
27564W        W97379  17.787   7.392  10.985
27565W        W97380  41.942  42.480   0.827
27566W        W97381   9.344   4.726  12.464
27567W        W97382  31.109   8.216  12.452
27568W        W97383  27.169  34.518   0.952
27569W        W97384  38.556  27.133  14.965
27570W        W97385  15.783  40.857   0.752
27571W        W97386  22.508  42.284  13.806
27572W        W97387   5.934   3.370   0.279
27573W        W97388  35.517  11.235  14.340
27574W        W97389  44.894  17.663  11.080
27575W        W97390  36.573   6.697   3.754
27576W        W97391  23.222  26.687  12.040
27577W        W97392  36.413  40.817   4.354
27578W        W97393  23.039   5.407  12.925
27579W        W97394  31.597  39.492  13.026
27580W        W97395  38.335  11.291   4.692
27581W        W97396  18.636  39.832   1.871
27582W        W97397   2.299  18.211  12.973
27583W        W97398  15.701  11.182  14.281
27584W        W97399  20.163  15.329  14.031
27585W        W97400  38.471   0.981   3.830
27586W        W97401  42.859  35.062  12.852
27587W        W97402   3.838  18.751   3.252
27588W        W97403  39.932  31.563   4.682
27589W        W97404  36.045  23.582  13.815
27590W        W97405  17.572  41.479  11.435
27591W        W97406  21.207  43.936  14.330
27592W        W97407  43.339  35.446  10.960
27593W        W97408  22.712  34.517  10.541
27594W        W97409   2.951  20.613   2.389
27595W        W97410  31.039  12.132   2.265
27596W        W97411   3.236  25.539  10.959
27597W        W97412  15.266  10.694  14.356
27598W        W97413  13.148  34.918   1.794
27599W        W97414   0.251   8.393   3.679
27600W        W97415  44.950   5.908   3.686
27601W        W97416  43.403  32.002  13.033
27602W        W97417  14.261  37.922  12.357
27603W        W97418   3.437  34.114   0.746
27604W        W97419  14.751   6.426   0.913
27605W        W97420   2.373  37.357   1.933
27606W        W97421  26.488  31.990  11.955
27607W        W97422  13.220   7.179   3.834
27608W        W97423  12.357  35.589  14.366
27609W        W97424  42.915  13.772   2.810
27610W        W97425   1.911  18.146  13.324
27611W        W97426  12.205  24.479   0.433
27612W        W97427   6.865  28.485   0.370
27613W        W97428  27.547  15.633   4.808
27614W        W97429  17.093  16.108   0.460
27615W        W97430  19.687  22.516   3.861
27616W        W97431  16.640  29.008  13.005
27617W        W97432  13.777  41.500  12.934
27618W        W97433  41.923  34.596  13.324
27619W        W97434  29.613   5.875  13.450
27620W        W97435   5.321  33.385   0.446
27621W        W97436  23.719  37.918   4.767
27622W        W97437  42.520  18.294  13.894
27623W        W97438  10.837  30.118   3.182
27624W        W97439  33.400  29.166  12.836
27625W        W97440  10.161  11.645   1.761
27626W        W97441  17.689  13.799   2.407
27627W        W97442   9.329  44.803  11.083
27628W        W97443  41.802   5.325   0.759
27629W        W97444  27.654  41.391   0.276
27630W        W97445  30.561   0.297  11.871
27631W        W97446  36.457  12.169  10.443
27632W        W97447  16.653  41.459  14.360
27633W        W97448  43.964  17.650   1.703
27634W        W97449  18.646  31.423   3.738
27635W        W97450  14.220  26.039  13.399
27636W        W97451  37.933  34.391  14.306
27637W        W97452   5.296  34.594   1.765
27638W        W97453   5.845   2.236  14.429
27639W        W97454  40.542  30.975   1.334
27640W        W97455   6.840  24.540   3.304
27641W        W97456  19.106  41.419   1.899
27642W        W97457  14.301   9.672   3.686
27643W        W97458  42.519  30.003   4.704
27644W        W97459  21.599  21.109   3.336
27645W        W97460  14.115   2.239   4.811
27646W        W97461   3.361  39.884   4.619
27647W        W97462  20.583   2.453  11.864
27648W        W97463   3.813  29.163   4.346
27649W        W97464   4.293  18.656   4.612
27650W        W97465  19.178  28.172   1.340
27651W        W97466   8.895  31.481   3.810
27652W        W97467  29.142  19.235   0.419
27653W        W97468  33.548  15.729   2.720
27654W        W97469  30.006  32.547   4.307
27655W        W97470  34.915   2.784  11.102
27656W        W97471  26.644   0.838  14.851
27657W        W97472  29.445   2.363   3.773
27658W        W97473   5.338  21.584   0.291
27659W        W97474  42.941   1.417  11.562
27660W        W97475  31.049  33.875   1.317
27661W        W97476  13.772  24.999   4.831
27662W        W97477  27.073   2.748  14.859
27663W        W97478  15.626  38.328   1.438
27664W        W97479   0.885  41.297  13.873
27665W        W97480  12.334  33.926   0.874
27666W        W97481   3.749   9.282   4.644
27667W        W97482  26.073  24.978  12.090
27668W        W97483  34.495  13.106  14.803
27669W        W97484   2.856  28.675   4.185
27670W        W97485  23.002  33.109   2.186
27671W        W97486  30.143  15.196  13.865
27672W        W97487  28.139  15.279   5.322
27673W        W97488  33.497  29.423   3.825
27674W        W97489  11.250  42.969  10.944
27675W        W97490  19.623  25.057  10.523
27676W        W97491  39.988  39.389   1.742
27677W        W97492   5.883  18.572   1.915
27678W        W97493   4.703  44.344  13.519
27679W        W97494   2.739  30.020  14.889
27680W        W97495   9.748   5.781  12.894
27681W        W97496  31.941   9.306  11.937
27682W        W97497  11.222   8.248  12.486
27683W        W97498  23.007  28.634   1.901
27684W        W97499   1.950  43.888  12.974
27685W        W97500  23.106  10.277  12.522
27686W        W97501  43.990  20.148   3.172
27687W        W97502  21.667  20.623   1.932
27688W        W97503  33.404  33.421  10.502
27689W        W97504   8.656  38.007  13.028
27690W        W97505   7.245  25.085  14.814
27691W        W97506  31.935   6.295   3.670
27692W        W97507  11.690  10.870   2.665
27693W        W97508   2.819  21.704   0.801
27694W        W97509  41.999  28.616   1.406
27695W        W97510  36.090  31.444   3.362
27696W        W97511  16.108  13.272   1.900
27697W        W97512  43.878  42.391   2.814
27698W        W97513  32.996  33.013   2.203
27699W        W97514   0.383   8.291  13.519
27700W        W97515  42.319  43.803   2.328
27701W        W97516  17.223  19.165  10.491
27702W        W97517  18.648   9.358   0.402
27703W        W97518  33.579  12.742   2.205
27704W        W97519  20.609  20.029  12.386
27705W        W97520  15.692  20.202  11.083
27706W        W97521  44.408  38.383  11.427
27707W        W97522  16.743   2.882  13.819
27708W        W97523  36.400  41.026  14.463
27709W        W97524  17.700  22.075   3.717
27710W        W97525  40.902  31.138   4.663
27711W        W97526  41.390   6.377  12.961
27712W        W97527   6.237   7.841   4.745
27713W        W97528  12.318  41.817  13.886
27714W        W97529   5.745   4.871  12.837
27715W        W97530  29.942  28.159  14.986
27716W        W97531  36.018  35.519  12.412
27717W        W97532  37.548   1.773   3.185
27718W        W97533   0.291   3.877   4.639
27719W        W97534  18.593  35.949   0.402
27720W        W97535  28.463  33.072   1.737
27721W        W97536  33.103  18.715   0.762
27722W        W97537  31.903  16.744  11.098
27723W        W97538  16.727   7.348  13.503
27724W        W97539  19.779  37.001  11.589
27725W        W97540  16.788   1.796  14.847
27726W        W97541  43.842   2.866  13.869
27727W        W97542  31.913  42.495  14.424
27728W        W97543  14.741  40.488   3.290
27729W        W97544  41.977  20.670  10.560
27730W        W97545  31.454  11.187  12.079
27731W        W97546  21.619  17.691  12.989
27732W        W97547  25.109  24.497  11.597
27733W        W97548  10.336  44.307   2.832
27734W        W97549  32.051  16.164  13.467
27735W        W97550   5.771  36.436   4.137
27736W        W97551  36.975  15.310  11.896
27737W        W97552   9.360  34.545  14.032
27738W        W97553  20.558  21.687   2.210
27739W        W97554  41.505  21.547  12.482
27740W        W97555  15.290  12.780   3.804
27741W        W97556  24.718  41.450   4.648
27742W        W97557  14.294  16.146  13.062
27743W        W97558  15.323  26.032  12.980
27744W        W97559  27.100  17.739   1.697
27745W        W97560  35.921  28.158  11.545
27746W        W97561  33.959  37.948  11.479
27747W        W97562  31.921  44.399   4.270
27748W        W97563  17.176  36.938  12.930
27749W        W97564   5.814   0.951   0.421
27750W        W97565  10.188  26.597  10.139
27751W        W97566   0.252  15.321  13.903
27752W        W97567  44.813  31.095   3.167
27753W        W97568   6.246   1.394   2.879
27754W        W97569  19.266  43.862   2.340
27755W        W97570  36.555  41.825  10.595
27756W        W97571  30.522  40.311  10.632
27757W        W97572  43.891  23.185  14.508
27758W        W97573   7.759  42.376  10.917
27759W        W97574  41.979  15.090   2.312
27760W        W97575  29.482  31.516   3.636
27761W        W97576  23.002   6.746   2.378
27762W        W97577  25.049  44.971  13.484
27763W        W97578  19.184  35.976  13.466
27764W        W97579   0.947  14.301   2.739
27765W        W97580   4.856  37.506  10.643
27766W        W97581  10.366  18.140   4.290
27767W        W97582   4.941  13.210   0.425
27768W        W97583  31.043  30.499  10.118
27769W        W97584  37.078  32.520   4.207
27770W        W97585  35.385  31.567   9.583
27771W        W97586  23.635  21.070   3.822
27772W        W97587   7.217  16.125  14.349
27773W        W97588  32.993   6.914   1.713
27774W        W97589  41.022  18.200  10.632
27775W        W97590   3.801   7.885   3.827
27776W        W97591   7.902  32.433   1.439
27777W        W97592  44.923  37.039   2.297
27778W        W97593  14.805  44.374  10.509
27779W        W97594  44.406  33.543   3.267
27780W        W97595  14.610  33.626   1.335
27781W        W97596   1.284  23.181   3.850
27782W        W97597  22.558  17.580   1.310
27783W        W97598  21.714   2.380   3.168
27784W        W97599  38.935  19.600   0.288
27785W        W97600   9.193  40.533   1.291
27786W        W97601  25.712  40.889   3.376
27787W        W97602  43.913   8.273  14.432
27788W        W97603  11.242  30.477  10.916
27789W        W97604  14.750  38.479  11.066
27790W        W97605  16.758  18.294  12.084
27791W        W97606  34.080  27.996  10.473
27792W        W97607  38.917  38.332  14.896
27793W        W97608  17.227  41.466  13.991
27794W        W97609  15.267  15.261  13.042
27795W        W97610  30.593   3.907  10.527
27796W        W97611  33.502  33.626   3.643
27797W        W97612  20.635   5.409   1.717
27798W        W97613  16.224  25.984  14.886
27799W        W97614  40.475  29.640   3.869
27800W        W97615  32.986  31.911   0.426
27801W        W97616  23.043  37.958  14.277
27802W        W97617  42.866  33.988  11.100
27803W        W97618  43.897  32.615   3.816
27804W        W97619  24.060   8.200   1.304
27805W        W97620   6.298  26.676   4.764
27806W        W97621  44.887  40.417   1.275
27807W        W97622  43.333  14.148   0.358
27808W        W97623   5.878   4.820   1.734
27809W        W97624  37.566  26.532  10.590
27810W        W97625  32.468  25.616  12.987
27811W        W97626  23.679  10.704  11.581
27812W        W97627  24.228  21.131  11.517
27813W        W97628  13.607  22.502  11.583
27814W        W97629  35.935   5.364  14.436
27815W        W97630  33.972  14.802   3.343
27816W        W97631  35.570   2.267   0.249
27817W        W97632  26.087  31.918   4.711
27818W        W97633  35.418  37.514  14.422
27819W        W97634  18.248  37.372  10.630
27820W        W97635  37.968  22.745   0.393
27821W        W97636  43.343   3.830  10.528
27822W        W97637  36.869  40.799  14.325
27823W        W97638  38.045  13.191  11.959
27824W        W97639  31.959   9.300   4.290
27825W        W97640  25.215   8.709   4.238
27826W        W97641  36.433  21.575   3.243
27827W        W97642  33.943  19.733   2.775
27828W        W97643  22.072  23.178   0.337
27829W        W97644  21.257   0.770   0.279
27830W        W97645   7.881  22.735   4.662
27831W        W97646  10.182   1.390  11.030
27832W        W97647  40.310  38.386  14.975
27833W        W97648  12.643  32.637  11.542
27834W        W97649  16.210   7.880  12.913
27835W        W97650  37.435  11.824   4.128
27836W        W97651   3.898  29.014  13.890
27837W        W97652   2.941  30.493  14.501
27838W        W97653  13.639  26.169   2.829
27839W        W97654   9.239  15.325  11.415
27840W        W97655  41.464  41.852   5.156
27841W        W97656  41.037   7.186   3.810
27842W        W97657  44.334  15.735   0.735
27843W        W97658  33.073  28.569   2.187
27844W        W97659  29.977   4.277  13.514
27845W        W97660  21.684  39.053  12.093
27846W        W97661  24.038  42.506  12.354
27847W        W97662  29.113  14.680  11.500
27848W        W97663  34.901   1.797   1.712
27849W        W97664  14.174  22.603  12.087
27850W        W97665  18.121  28.455   0.829
27851W        W97666  23.570  13.285  12.862
27852W        W97667   9.223  12.794   0.825
27853W        W97668   1.325  10.381  13.929
27854W        W97669   8.886  15.730   5.163
27855W        W97670  28.020  19.070   2.364
27856W        W97671  34.889  30.419   3.725
27857W        W97672  26.147   6.717  11.396
27858W        W97673  11.684   3.936   1.387
27859W        W97674   2.393   6.325   4.264
27860W        W97675   5.887  36.531  13.473
27861W        W97676  35.483   7.194   4.235
27862W        W97677  28.000  37.947  12.550
27863W        W97678   9.707   8.325  13.479
27864W        W97679   4.310   8.890   0.960
27865W        W97680   6.801  24.196  14.019
27866W        W97681  35.437  28.093  10.605
27867W        W97682  39.966   6.679   9.925
27868W        W97683  19.617   4.274  13.427
27869W        W97684   6.688   5.426  11.609
27870W        W97685  22.153  39.999  10.934
27871W        W97686  16.092   5.874   3.342
27872W        W97687   8.241  31.457  11.485
27873W        W97688  35.970  39.508  11.407
27874W        W97689  43.284  28.494  12.863
27875W        W97690  32.139   0.299   0.946
27876W        W97691  41.830  11.853   3.721
27877W        W97692  28.552  29.443  11.086
27878W        W97693   1.754  41.024  10.494
27879W        W97694  36.951  42.420   0.884
27880W        W97695   9.348  39.331   4.803
27881W        W97696  42.292  18.644   2.315
27882W        W97697  11.261  10.226  12.566
27883W        W97698  44.348  17.289  12.849
27884W        W97699  44.380   5.688   4.780
27885W        W97700  40.927   2.338   0.866
27886W        W97701  16.271   9.807   2.724
27887W        W97702   4.234  11.807  11.077
27888W        W97703  12.684   7.414  12.825
27889W        W97704  17.653   8.221   2.228
27890W        W97705  43.395  21.171  13.855
27891W        W97706  27.112  39.903   2.200
27892W        W97707  16.154  40.052  10.944
27893W        W97708  32.437   8.178  13.837
27894W        W97709  27.101   8.901   3.354
27895W        W97710  26.523   4.264   0.350
27896W        W97711  29.628   7.850  12.438
27897W        W97712  12.174  29.467   0.385
27898W        W97713  31.645  10.255  13.053
27899W        W97714  10.777  21.216  10.425
27900W        W97715  28.063  31.001  13.990
27901W        W97716  41.424  11.648   4.666
27902W        W97717  20.061  27.506   1.235
27903W        W97718  19.195  43.764   4.655
27904W        W97719  30.126  15.635   0.730
27905W        W97720  21.094  22.071   3.724
27906W        W97721  37.002  33.587  12.063
27907W        W97722  18.285  34.045  10.909
27908W        W97723   6.863  35.548  14.308
27909W        W97724  18.705  24.224   2.362
27910W        W97725  33.499  35.962  10.976
27911W        W97726  11.281  34.059  14.984
27912W        W97727  18.199   5.818  10.510
27913W        W97728  24.658  18.287   5.144
27914W        W97729  40.488  23.647   4.183
27915W        W97730  43.471   2.889   4.753
27916W        W97731  29.628  32.590   0.903
27917W        W97732  24.162  29.562  14.910
27918W        W97733  31.491  17.160  12.506
27919W        W97734  20.168   7.255  10.434
27920W        W97735   3.271  39.032   1.263
27921W        W97736  26.471  15.104  11.012
27922W        W97737  37.971   4.819  14.338
27923W        W97738  26.189  25.556  12.937
27924W        W97739  28.626   6.911   1.871
27925W        W97740  36.963   0.281   1.934
27926W        W97741   4.436  38.552  14.764
27927W        W97742  14.618  44.912   2.813
27928W        W97743   2.431   2.741   2.676
27929W        W97744  41.322  36.033   0.915
27930W        W97745  27.997  38.439  11.947
27931W        W97746  22.117  10.221  10.989
27932W        W97747  13.299  29.927  14.473
27933W        W97748   1.739  39.896   4.692
27934W        W97749  15.811  13.151   1.361
27935W        W97750  41.356   3.269  14.842
27936W        W97751  31.462  20.575   2.183
27937W        W97752  26.145   4.791  10.524
27938W        W97753  20.699  34.582  14.391
27939W        W97754  25.080  11.179   4.734
27940W        W97755  42.416  30.644   3.639
27941W        W97756  16.095  21.166   1.861
27942W        W97757  43.967  11.660   2.198
27943W        W97758  43.879  27.999   3.830
27944W        W97759   9.786  10.289  13.312
27945W        W97760  44.933  11.257   3.749
27946W        W97761  14.658  35.528   3.644
27947W        W97762  23.509  32.443  10.898
27948W        W97763  22.646   4.363   0.313
27949W        W97764  42.512  31.424   0.789
27950W        W97765  38.395  13.160  13.028
27951W        W97766  26.535  26.017  13.893
27952W        W97767  41.348  17.137  11.481
27953W        W97768  35.495  19.623  14.979
27954W        W97769  23.018   5.305  12.564
27955W        W97770   4.767  12.662  11.504
27956W        W97771   9.325  29.458   4.810
27957W        W97772  40.377  35.095  12.946
27958W        W97773  21.142  34.394   3.330
27959W        W97774  40.972  21.116  11.125
27960W        W97775  40.474  35.546  12.064
27961W        W97776  26.633  39.855  11.057
27962W        W97777  35.996  31.617  14.839
27963W        W97778  15.637  43.901   1.879
27964W        W97779  39.499  18.591  12.047
27965W        W97780  27.561  20.607  10.895
27966W        W97781   4.380  17.659   3.271
27967W        W97782  33.402  33.502   1.424
27968W        W97783  35.026  17.117  13.962
27969W        W97784  28.516  10.726  12.580
27970W        W97785  29.523   7.391   0.258
27971W        W97786  13.779  42.879  13.401
27972W        W97787  21.117  29.134  12.094
27973W        W97788  17.192  14.295   0.780
27974W        W97789  37.340   5.320   3.673
27975W        W97790  42.407   5.332  11.958
27976W        W97791  41.031  19.088   2.180
27977W        W97792  26.653  16.202   1.253
27978W        W97793   3.265  27.997  13.796
27979W        W97794  43.322  37.352   4.726
27980W        W97795  42.775  35.566   1.853
27981W        W97796  17.200   9.353  11.901
27982W        W97797  18.099  37.353   3.329
27983W        W97798  28.485  12.242   5.761
27984W        W97799  40.016  19.709  13.526
27985W        W97800  27.168  18.709   0.481
27986W        W97801  35.456  44.377  11.508
27987W        W97802  28.033  27.454  10.072
27988W        W97803   7.882  33.001   1.419
27989W        W97804  12.672  41.407   3.679
27990W        W97805  28.516  13.188  12.519
27991W        W97806   1.331  16.697  12.951
27992W        W97807  20.097  28.948  12.960
27993W        W97808   6.240  15.137   4.184
27994W        W97809  16.211   5.428  12.998
27995W        W97810  34.915   0.298  11.885
27996W        W97811  41.861  25.570  14.818
27997W        W97812   3.350  10.833  10.947
27998W        W97813   2.460  21.061  12.396
27999W        W97814  14.804  25.712  11.487
28000W        W97815  32.631  26.179   2.726
28001W        W97816  32.399   9.720   1.437
28002W        W97817  42.913  17.196  14.422
28003W        W97818  20.698  11.774  13.857
28004W        W97819  29.557   6.395  12.495
28005W        W97820  12.658  12.292   2.867
28006W        W97821   4.206  23.678  11.490
28007W        W97822  12.266  35.569   1.393
28008W        W97823  12.208  40.011   3.338
28009W        W97824  40.322  27.528   4.201
28010W        W97825  33.907  24.125   2.673
28011W        W97826  22.695  39.965   2.871
28012W        W97827   2.814  31.036   4.714
28013W        W97828  43.295   7.759   0.299
28014W        W97829   3.323  33.006  11.887
28015W        W97830   7.728  14.146  14.296
28016W        W97831  19.245  25.991   1.279
28017W        W97832  37.064  44.901  12.387
28018W        W97833  20.671  28.497  12.966
28019W        W97834  34.368  11.777  11.095
28020W        W97835  42.525  38.992  13.821
28021W        W97836  18.565  42.958  11.401
28022W        W97837  33.091  33.523   3.772
28023W        W97838  40.494  13.820   4.805
28024W        W97839  21.619  29.514   0.346
28025W        W97840  10.275  13.601  13.025
28026W        W97841  10.316   2.352  13.838
28027W        W97842  13.292   6.296   3.364
28028W        W97843  34.881   4.277   1.909
28029W        W97844   9.840  32.592  11.452
28030W        W97845  28.077  14.782   0.941
28031W        W97846  40.938  24.032   1.803
28032W        W97847  36.957  32.087   0.728
28033W        W97848  43.001  10.853  14.904
28034W        W97849  21.653  31.545   1.301
28035W        W97850   6.188   3.808  12.900
28036W        W97851  14.609  32.924   1.311
28037W        W97852  15.773   8.361   1.723
28038W        W97853  29.988  44.399   2.348
28039W        W97854  15.224  27.585  12.961
28040W        W97855   3.901  44.362  14.914
28041W        W97856  38.010  39.836   1.443
28042W        W97857   8.724   9.860   0.408
28043W        W97858  19.196  11.155   0.308
28044W        W97859  12.702  18.230   9.952
28045W        W97860  39.978  10.739  14.293
28046W        W97861  20.603  10.258  12.387
28047W        W97862  31.954  19.693  13.028
28048W        W97863  41.788  17.158  14.486
28049W        W97864  26.021  23.996  10.952
28050W        W97865  10.667   1.423   4.687
28051W        W97866  19.225   3.851  14.466
28052W        W97867  42.283  25.650  14.824
28053W        W97868   2.318  16.306   1.383
28054W        W97869  27.179  28.477  14.459
28055W        W97870   2.309  31.606  13.538
28056W        W97871   4.827  43.797   4.329
28057W        W97872  43.321   9.268   1.768
28058W        W97873   1.352  14.638  11.532
28059W        W97874  32.034  36.384  13.429
28060W        W97875  12.815  30.156   2.897
28061W        W97876  29.528   9.814  10.426
28062W        W97877  38.378  26.118   3.748
28063W        W97878   2.903  12.328   2.318
28064W        W97879   6.765  25.173  12.467
28065W        W97880   6.212  41.387   4.160
28066W        W97881  16.115  19.674   3.205
28067W        W97882  23.206  23.067   1.380
28068W        W97883   1.330   8.202  14.815
28069W        W97884  15.299  17.784   3.867
28070W        W97885  35.928  42.006  13.936
28071W        W97886  26.966  29.643  12.966
28072W        W97887   3.338  39.471   1.327
28073W        W97888  28.044  38.860   3.294
28074W        W97889  42.461  10.763  14.498
28075W        W97890  14.687   4.381   4.210
28076W        W97891  20.754   3.797  12.991
28077W        W97892  31.455  34.997  13.867
28078W        W97893  25.119  23.606   1.347
28079W        W97894  27.476  41.473   3.734
28080W        W97895  37.488  40.838  13.428
28081W        W97896  10.704  19.679  10.425
28082W        W97897  18.681  31.465  13.838
28083W        W97898  42.787  16.581   2.875
28084W        W97899  28.987  35.591  11.106
28085W        W97900  32.519  21.034  13.965
28086W        W97901  24.053  13.178  12.482
28087W        W97902   9.293  35.092   3.676
28088W        W97903   8.207  34.499  14.943
28089W        W97904  26.043  23.184   4.273
28090W        W97905  35.903  16.777   0.452
28091W        W97906  23.688  36.380  12.053
28092W        W97907   4.699  39.949  12.437
28093W        W97908  21.133  26.684  13.049
28094W        W97909  38.827  21.194  14.864
28095W        W97910  10.326  10.846   0.264
28096W        W97911   0.975  19.549   3.770
28097W        W97912  42.921  12.246   0.867
28098W        W97913  24.210  40.436  10.990
28099W        W97914  33.537   4.895  10.942
28100W        W97915  25.600  12.245   2.266
28101W        W97916  22.145   4.230   4.123
28102W        W97917  44.391  43.270   2.258
28103W        W97918  26.551  38.893  13.342
28104W        W97919  27.568   6.402  13.877
28105W        W97920  24.089  23.053  10.595
28106W        W97921   2.903  16.607  14.480
28107W        W97922  23.685  13.262   0.439
28108W        W97923  35.465  42.526   2.205
28109W        W97924  25.472   1.844  11.012
28110W        W97925  33.428  13.275  14.842
28111W        W97926  33.431  36.524  14.887
28112W        W97927  24.190  21.130  10.159
28113W        W97928  24.204  17.661  10.541
28114W        W97929  31.928  27.130   2.409
28115W        W97930  22.622  12.167  11.025
28116W        W97931  43.466  20.053  14.494
28117W        W97932  43.952  28.444  12.875
28118W        W97933  28.619  16.777   4.673
28119W        W97934  25.686  29.556  11.862
28120W        W97935   5.704  29.017  13.928
28121W        W97936  29.538   5.225  11.977
28122W        W97937  13.121   2.819  10.404
28123W        W97938  25.088  18.113  12.463
28124W        W97939  13.838   1.849   3.261
28125W        W97940  44.815   5.402   3.742
28126W        W97941  18.752  26.661  14.941
28127W        W97942  36.940  39.912   2.843
28128W        W97943  22.032   7.877  13.432
28129W        W97944  29.092  41.811   4.725
28130W        W97945   3.850  15.244   4.160
28131W        W97946  37.440   6.784   4.760
28132W        W97947  41.914  11.213  13.402
28133W        W97948  12.834   4.731  12.830
28134W        W97949   4.766   9.663  10.976
28135W        W97950  26.524   9.801   9.546
28136W        W97951   5.790   4.436   2.325
28137W        W97952  43.985  35.053   0.483
28138W        W97953  19.262  12.619  13.962
28139W        W97954   4.381  32.094  12.458
28140W        W97955  31.417  16.208  12.469
28141W        W97956  24.673  30.124  10.554
28142W        W97957  33.562   2.834   0.301
28143W        W97958  43.321  20.689   0.262
28144W        W97959  18.734  30.522   5.149
28145W        W97960  22.085   2.331  11.502
28146W        W97961  11.743  21.086   1.446
28147W        W97962  23.731   8.872   4.704
28148W        W97963  34.875  37.337   3.290
28149W        W97964  16.172   8.710   4.746
28150W        W97965  10.282  13.339  11.554
28151W        W97966  12.786  23.171   3.193
28152W        W97967  33.490  20.122  11.493
28153W        W97968   0.479  42.516   3.294
28154W        W97969  32.612   2.283   2.229
28155W        W97970   8.837  25.657   4.736
28156W        W97971  40.859  24.175  12.566
28157W        W97972   8.727  24.682   1.417
28158W        W97973  15.782  39.481   3.786
28159W        W97974  23.695  21.202   2.380
28160W        W97975  34.931  15.614  12.536
28161W        W97976   0.786   1.976   9.978
28162W        W97977   4.219   7.236  12.914
28163W        W97978  43.396  17.724   2.841
28164W        W97979  32.580   9.847   1.780
28165W        W97980  14.736   5.748   1.442
28166W        W97981   1.853   1.246   3.179
28167W        W97982  15.611   6.370   2.803
28168W        W97983  15.185  18.263  12.955
28169W        W97984  21.206  28.947   2.232
28170W        W97985  24.204  36.039  14.379
28171W        W97986  15.288   9.815  10.979
28172W        W97987   4.439  15.732   0.357
28173W        W97988  27.144  40.473   3.314
28174W        W97989  42.459  35.852  11.006
28175W        W97990  14.726  15.695   2.373
28176W        W97991   9.674  27.516   3.716
28177W        W97992   4.709   5.894  13.374
28178W        W97993   0.469  34.419   4.739
28179W        W97994  31.066  20.686   2.891
28180W        W97995  14.750  14.196  10.990
28181W        W97996  39.996   6.234   1.361
28182W        W97997   2.296  44.819  11.463
28183W        W97998  24.515  13.219  11.875
28184W        W97999  32.027  27.082  11.599
28185W        W98000   7.209  40.853   1.424
28186W        W98001  19.734   4.863  11.545
28187W        W98002  18.245  34.415   1.719
28188W        W98003  27.559  34.518  13.996
28189W        W98004  29.538  19.637   4.659
28190W        W98005  17.693  26.623  14.355
28191W        W98006  44.908   2.319   1.806
28192W        W98007  29.581  20.572  13.058
28193W        W98008   8.894   1.779   2.243
28194W        W98009   0.441  18.191  14.795
28195W        W98010  31.940  12.197  13.965
28196W        W98011  22.726   3.399  12.049
28197W        W98012  10.749  26.199   3.172
28198W        W98013  22.080   3.321  13.470
28199W        W98014   9.291  31.494  10.565
28200W        W98015  43.857  21.051  11.870
28201W        W98016  32.008  24.110   3.826
28202W        W98017  19.577   9.853  11.037
28203W        W98018   2.911  42.842   4.320
28204W        W98019  19.148  22.615  14.484
28205W        W98020  31.034   3.244  12.009
28206W        W98021  44.406   6.839   1.444
28207W        W98022  37.455  41.835  14.892
28208W        W98023  27.017  23.534   4.823
28209W        W98024  39.522  32.080   1.706
28210W        W98025  44.951  37.904  13.953
28211W        W98026  31.545  10.716   1.340
28212W        W98027  18.709  26.578  13.933
28213W        W98028  23.985   9.651   1.756
28214W        W98029  32.422  28.666  10.978
28215W        W98030   7.867  42.352  13.392
28216W        W98031  17.164  11.246   0.823
28217W        W98032  22.067   4.223  12.959
28218W        W98033   9.186  18.693  13.540
28219W        W98034  18.606  38.939   5.164
28220W        W98035  42.939   0.494  10.539
28221W        W98036  21.254  24.015   1.868
28222W        W98037  42.350  40.044  12.883
28223W        W98038   3.239   9.206   1.441
28224W        W98039  19.581  30.119  12.368
28225W        W98040  10.329  21.678  13.313
28226W        W98041  42.005  29.049   4.837
28227W        W98042  40.982  27.653  10.612
28228W        W98043  37.067   2.763  13.540
28229W        W98044  19.658  16.633  12.492
28230W        W98045  22.117  42.820  14.802
28231W        W98046   7.343  37.388  14.905
28232W        W98047   1.743   3.920   4.244
28233W        W98048  31.407  44.336   4.806
28234W        W98049   9.157  18.247  14.303
28235W        W98050  37.365  29.630   2.229
28236W        W98051  23.593  31.905  14.767
28237W        W98052  34.392   3.305   0.843
28238W        W98053  33.004  15.144  11.876
28239W        W98054  31.910  28.507  14.384
28240W        W98055  33.384   5.436   1.743
28241W        W98056   8.692   8.189   0.251
28242W        W98057  20.045   2.846   3.222
28243W        W98058  40.365  33.071   4.798
28244W        W98059  37.058  31.562   4.736
28245W        W98060  22.606  42.321   4.838
28246W        W98061  24.145  19.152   0.337
28247W        W98062   4.369   9.376  13.498
28248W        W98063  27.607   5.421  12.503
28249W        W98064   0.374   4.855   1.796
28250W        W98065  41.441  31.002  13.358
28251W        W98066  13.166  41.043   1.332
28252W        W98067   8.335  28.018   3.804
28253W        W98068  18.717  15.703  10.954
28254W        W98069   7.895  21.087  11.052
28255W        W98070  27.649   1.263   3.339
28256W        W98071  14.589  17.263   2.333
28257W        W98072   0.819  43.513  12.485
28258W        W98073   3.730   8.658   5.088
28259W        W98074  35.096  19.616   4.759
28260W        W98075   3.223   7.849   3.236
28261W        W98076  43.302  36.554   3.352
28262W        W98077   8.800  13.810  14.516
28263W        W98078  21.132   7.390  13.924
28264W        W98079  43.964  35.425   4.318
28265W        W98080  22.142  10.223   3.219
28266W        W98081  26.572   5.817   3.241
28267W        W98082  13.736  22.236  14.017
28268W        W98083  21.049  35.429   2.865
28269W        W98084   4.379  30.506  12.357
28270W        W98085  24.129  26.202  14.831
28271W        W98086  34.944  22.146  11.895
28272W        W98087  19.215  31.565   4.763
28273W        W98088  12.615  19.087   4.777
28274W        W98089  11.158  32.983  14.808
28275W        W98090  25.048   3.451  13.423
28276W        W98091  36.415  36.490  12.870
28277W        W98092  13.826  32.421  10.513
28278W        W98093  32.135  41.903  10.963
28279W        W98094  19.096  39.931  10.524
28280W        W98095  28.146  19.576  11.417
28281W        W98096  10.316   0.776  14.833
28282W        W98097  34.454   4.256   1.359
28283W        W98098  43.935  43.947   3.856
28284W        W98099  21.107   4.750   0.852
28285W        W98100  26.518  28.156   2.309
28286W        W98101  42.964  22.206   0.817
28287W        W98102  19.263  27.657  14.288
28288W        W98103  41.298   5.412  13.933
28289W        W98104  19.565  26.103   4.194
28290W        W98105  31.961   7.776   1.340
28291W        W98106  37.519  31.031   5.226
28292W        W98107   9.279   5.688  10.534
28293W        W98108   2.370  42.369  11.500
28294W        W98109   7.337  40.930  13.824
28295W        W98110  33.523   1.773   0.812
28296W        W98111  19.104  37.900  14.492
28297W        W98112  38.481   1.888  11.465
28298W        W98113  27.077   5.248  12.508
28299W        W98114  40.515  44.915  11.951
28300W        W98115  44.424  10.303  10.567
28301W        W98116   9.647  42.001   1.889
28302W        W98117  24.711  37.448  14.943
28303W        W98118   6.913  37.936   2.417
28304W        W98119  17.671  18.638   1.261
28305W        W98120  14.789  34.524  11.580
28306W        W98121  35.010  32.054  12.425
28307W        W98122  19.555  32.608   1.865
28308W        W98123  24.001   0.945   1.790
28309W        W98124  17.210  39.376  12.077
28310W        W98125  25.071  18.625  11.863
28311W        W98126  22.628  36.938  11.950
28312W        W98127  10.337  33.903   3.793
28313W        W98128   6.863  31.096   0.872
28314W        W98129  15.159  43.276   2.266
28315W        W98130  19.128  15.716  10.579
28316W        W98131  38.365  14.612  13.415
28317W        W98132  10.642  38.936  13.984
28318W        W98133   9.289  41.887   0.832
28319W        W98134   3.320  25.169  10.424
28320W        W98135  32.619  22.744  12.864
28321W        W98136  23.132  22.597   3.216
28322W        W98137  26.998  33.606   0.839
28323W        W98138   2.404  38.033  11.474
28324W        W98139   6.245   2.892   0.728
28325W        W98140  11.754  27.481  12.064
28326W        W98141  18.203  43.285   0.351
28327W        W98142  22.138   2.936   0.276
28328W        W98143  34.469  28.473  13.542
28329W        W98144  27.026  13.278  10.641
28330W        W98145  30.024   0.252  14.499
28331W        W98146  29.997  16.627  11.373
28332W        W98147   4.859  21.091   4.223
28333W        W98148  41.468  41.445   0.916
28334W        W98149  22.543   4.827  11.380
28335W        W98150  26.053   7.795   2.264
28336W        W98151  40.451   5.855   5.703
28337W        W98152  14.095  16.078  11.089
28338W        W98153  24.534  22.524  14.899
28339W        W98154  24.132   3.269   1.437
28340W        W98155  28.520   8.331  12.835
28341W        W98156   5.323  10.652  10.506
28342W        W98157  16.617  28.464  11.611
28343W        W98158  34.548  28.166   0.254
28344W        W98159  15.269   2.315  10.482
28345W        W98160  18.753  41.353  10.597
28346W        W98161  23.145  17.151   9.998
28347W        W98162  32.571  17.280  11.879
28348W        W98163  24.658   2.881   4.133
28349W        W98164  20.611  31.590   0.836
28350W        W98165   9.375  19.742  11.994
28351W        W98166  29.928  21.694   2.340
28352W        W98167   5.857  44.999  11.058
28353W        W98168  22.615   4.931   2.784
28354W        W98169  35.377  20.730   0.781
28355W        W98170   0.449  21.625  14.479
28356W        W98171  31.073   9.683  14.960
28357W        W98172   3.241  20.626  14.000
28358W        W98173  40.378  22.115   1.281
28359W        W98174  32.117  41.028   1.323
28360W        W98175   4.317  44.975   3.346
28361W        W98176  41.413   0.778  13.373
28362W        W98177   6.257  20.123   3.192
28363W        W98178  32.505  42.989   2.348
28364W        W98179  44.389  21.565  13.372
28365W        W98180  16.678  30.530  13.878
28366W        W98181   8.735  13.756   3.736
28367W        W98182  31.578  15.783   0.733
28368W        W98183  11.648  35.388   4.735
28369W        W98184   3.756  37.949   2.749
28370W        W98185   1.895   8.682   0.274
28371W        W98186   4.348   8.271  14.412
28372W        W98187  34.051  27.142   0.797
28373W        W98188   5.696  35.384  11.498
28374W        W98189  29.172   2.909  12.543
28375W        W98190   7.700   3.354   5.181
28376W        W98191  31.628  18.747  13.834
28377W        W98192  25.129  37.408  11.915
28378W        W98193  44.869  41.983  10.961
28379W        W98194  11.706  41.389  11.464
28380W        W98195  39.044   2.839   3.835
28381W        W98196  10.727   7.764  11.888
28382W        W98197  17.770   6.309   0.831
28383W        W98198  43.421   7.884   2.866
28384W        W98199  42.953  26.590   0.248
28385W        W98200   7.239  32.527   0.460
28386W        W98201  15.189  24.079   4.797
28387W        W98202  42.808  23.103  12.558
28388W        W98203  18.254  21.176   0.423
28389W        W98204  23.647   6.270   2.773
28390W        W98205  32.142  18.586  13.018
28391W        W98206  34.985  13.208  13.972
28392W        W98207  23.229  16.246   4.838
28393W        W98208  40.845  15.216   1.282
28394W        W98209  32.020  32.611  14.373
28395W        W98210  34.512   0.284   3.817
28396W        W98211  42.470  14.788  14.336
28397W        W98212   4.737  36.996  13.376
28398W        W98213  16.641  31.119   1.413
28399W        W98214  19.207  37.515   0.868
28400W        W98215  26.966  42.410   2.776
28401W        W98216  25.108  33.609  10.644
28402W        W98217   3.449  27.061  12.481
28403W        W98218  41.494  11.186  14.510
28404W        W98219  35.879  13.217  14.964
28405W        W98220  10.834  21.583   1.934
28406W        W98221  27.995   2.312   2.185
28407W        W98222  29.133  37.000  10.409
28408W        W98223  15.674  13.823  12.480
28409W        W98224  33.013  30.538  10.471
28410W        W98225  32.564  27.109   0.483
28411W        W98226  43.853   0.931   0.955
28412W        W98227   6.225  34.112   2.183
28413W        W98228   8.797  39.381   5.158
28414W        W98229   3.846  26.495   3.266
28415W        W98230   4.425  18.598  13.848
28416W        W98231  30.938   6.227  12.566
28417W        W98232   7.394   1.773   1.399
28418W        W98233   6.225  12.840   0.339
28419W        W98234  22.025  26.520   5.126
28420W        W98235  19.635  19.724   2.418
28421W        W98236  35.513  17.609  10.996
28422W        W98237  41.788  26.169   3.821
28423W        W98238  37.462  40.797  14.317
28424W        W98239  21.051  30.449   0.966
28425W        W98240  31.417  21.045  14.301
28426W        W98241  24.718  34.484  12.988
28427W        W98242  39.464  35.027   3.284
28428W        W98243  11.132  13.782   1.795
28429W        W98244  29.968  28.598  10.898
28430W        W98245  15.730  27.569   1.707
28431W        W98246  13.278  30.414   5.298
28432W        W98247  35.388   7.316   0.441
28433W        W98248  15.624  39.316   2.709
28434W        W98249   8.799  32.461  13.386
28435W        W98250   0.429  42.808  13.424
28436W        W98251  37.085  32.034  14.880
28437W        W98252  23.206  15.791   1.710
28438W        W98253  36.529  10.866   0.472
28439W        W98254   1.862  25.012   2.238
28440W        W98255  17.760  22.046   2.710
28441W        W98256  11.135   8.380  11.927
28442W        W98257   6.332  11.156  14.451
28443W        W98258  16.268  29.930   1.406
28444W        W98259   9.775  13.238   1.298
28445W        W98260  37.980  28.112  13.384
28446W        W98261  15.317   0.870   4.291
28447W        W98262  37.508  34.568  10.632
28448W        W98263  10.165  19.650   2.771
28449W        W98264  30.428  33.895  11.948
28450W        W98265  35.532  23.624  13.411
28451W        W98266  30.597  37.407  13.006
28452W        W98267   0.269  10.282  11.981
28453W        W98268  33.007  29.164  10.501
28454W        W98269  17.598  25.713   4.772
28455W        W98270  41.375  17.175   0.368
28456W        W98271  33.457  38.475   3.679
28457W        W98272  23.014  35.417  13.973
28458W        W98273  36.860  21.223   1.726
28459W        W98274   2.404  28.608   3.165
28460W        W98275  44.901   3.774   1.850
28461W        W98276  12.720  42.965  14.387
28462W        W98277  14.798  16.282  13.478
28463W        W98278  43.873  20.618  14.784
28464W        W98279  34.946  29.622  14.852
28465W        W98280  10.187  10.777   1.824
28466W        W98281  33.114   6.380  13.014
28467W        W98282  23.574  26.695  12.942
28468W        W98283  34.531  27.948   0.948
28469W        W98284   1.275  11.784   2.751
28470W        W98285  41.036  22.148  14.413
28471W        W98286   8.764  28.651  11.949
28472W        W98287  30.923   5.810  10.587
28473W        W98288  19.647  13.227   4.309
28474W        W98289  17.095  27.521   4.672
28475W        W98290   5.849  35.411  11.113
28476W        W98291   1.752  18.561   0.366
28477W        W98292  27.493  27.084  12.015
28478W        W98293  43.283   3.423   4.203
28479W        W98294  23.669  20.207  10.044
28480W        W98295  22.053  25.965  11.083
28481W        W98296   7.239   2.781   1.339
28482W        W98297   1.742  27.081  11.031
28483W        W98298  25.015  40.930   0.847
28484W        W98299  37.021  17.664   2.884
28485W        W98300  38.911   5.438  14.462
28486W        W98301  25.557  42.807   4.290
28487W        W98302  14.589  19.545   2.763
28488W        W98303  12.205  35.443  12.462
28489W        W98304  37.487  15.214   3.713
28490W        W98305  21.520  40.365   4.209
28491W        W98306   1.838  38.448   3.760
28492W        W98307  34.948   2.368  10.993
28493W        W98308  41.328  28.947  13.524
28494W        W98309  26.079  24.157   0.366
28495W        W98310  16.238  44.404   4.620
28496W        W98311  35.399   1.933  13.002
28497W        W98312  30.993  30.014  11.474
28498W        W98313   3.873  18.144   2.723
28499W        W98314   2.381  11.293  14.031
28500W        W98315  23.532  26.057   3.655
28501W        W98316  44.850  10.801  12.913
28502W        W98317   6.262  42.848  10.468
28503W        W98318  25.214  33.408  12.040
28504W        W98319   5.739  28.611   4.838
28505W        W98320  43.825  12.645   2.773
28506W        W98321   8.253  40.994   3.843
28507W        W98322  41.929  35.586   0.299
28508W        W98323   0.967  44.366  14.486
28509W        W98324  38.418  26.476  14.993
28510W        W98325  42.978  34.527  10.952
28511W        W98326  29.606   5.366   2.734
28512W        W98327   7.754   4.367   4.193
28513W        W98328  38.065  26.691   3.289
28514W        W98329  26.177  13.194  13.796
28515W        W98330  34.552  33.009   1.362
28516W        W98331  19.716  40.407  13.439
28517W        W98332  43.911  21.141  12.547
28518W        W98333   9.757   1.813  10.478
28519W        W98334   4.879  28.127   3.237
28520W        W98335   3.317  28.956  12.983
28521W        W98336  12.693   0.270  14.464
28522W        W98337   0.793  31.138   4.195
28523W        W98338  42.968  10.158   2.202
28524W        W98339  37.508   5.329  11.607
28525W        W98340   9.873   1.912  14.451
28526W        W98341  26.001   5.689   0.739
28527W        W98342   8.822  20.261  13.538
28528W        W98343  14.340   4.398  11.021
28529W        W98344  12.645  27.978  13.541
28530W        W98345  16.163  17.195  13.940
28531W        W98346  32.558  24.655  11.043
28532W        W98347  16.571  33.995  14.276
28533W        W98348  23.214   3.812   2.383
28534W        W98349  35.935  27.168   1.861
28535W        W98350   6.278  44.974   4.830
28536W        W98351  13.682  29.993   4.646
28537W        W98352  43.441  28.079  12.514
28538W        W98353  22.113  23.092  12.890
28539W        W98354  20.035  10.187   2.402
28540W        W98355  30.015  28.159   2.773
28541W        W98356  27.056   1.798  11.112
28542W        W98357  33.998  20.757   4.260
28543W        W98358  30.026  10.790   1.765
28544W        W98359   6.360  42.793   4.767
28545W        W98360  21.218  38.380   1.353
28546W        W98361  22.654   2.821  14.275
28547W        W98362  38.995  10.877   1.799
28548W        W98363  44.403  26.592  12.380
28549W        W98364  24.135  24.046  14.419
28550W        W98365   7.229  43.784  11.553
28551W        W98366  12.617  28.611  11.554
28552W        W98367  22.701   1.297   4.779
28553W        W98368  40.538  36.360  14.826
28554W        W98369  17.594  20.542   4.146
28555W        W98370  15.696  31.490   3.807
28556W        W98371  33.589  14.716   0.733
28557W        W98372  27.151  19.255  10.450
28558W        W98373  44.400  40.876   3.344
28559W        W98374   1.756  16.566  10.920
28560W        W98375  37.016  38.558  10.527
28561W        W98376  28.123  12.293  14.314
28562W        W98377  34.524  25.212  11.108
28563W        W98378  28.460   6.697  10.631
28564W        W98379   2.802   3.885  12.863
28565W        W98380  10.848  15.237   3.795
28566W        W98381   9.805  39.546  14.359
28567W        W98382  33.095  22.081   0.886
28568W        W98383   4.285  31.927  10.442
28569W        W98384   4.774  14.642  11.101
28570W        W98385  36.906  42.438  13.860
28571W        W98386  12.260   7.197  11.873
28572W        W98387  12.234  26.135  13.494
28573W        W98388  13.118  13.165   1.832
28574W        W98389  17.127   2.901   2.378
28575W        W98390   1.276   4.883  14.946
28576W        W98391  27.146   0.258  12.362
28577W        W98392   3.300  17.728   1.889
28578W        W98393   8.855  43.784   1.362
28579W        W98394  32.550  29.937  10.529
28580W        W98395  17.628   6.833   0.347
28581W        W98396  24.565   4.857   0.403
28582W        W98397   2.731  36.864   1.335
28583W        W98398  16.088  13.699  13.017
28584W        W98399   7.197  23.114  12.493
28585W        W98400   7.257  24.626  11.422
28586W        W98401  24.482   7.824  13.806
28587W        W98402  24.613  10.689  12.840
28588W        W98403   7.687  44.347   2.834
28589W        W98404  32.930  16.186   1.724
28590W        W98405  24.623  29.584   1.321
28591W        W98406   3.791  26.995   1.897
28592W        W98407  32.103   5.261  14.352
28593W        W98408  14.213  42.811   0.774
28594W        W98409   2.340  27.647  13.857
28595W        W98410  10.253  34.045   4.722
28596W        W98411   5.285   8.833  13.530
28597W        W98412  44.317  24.529  10.498
28598W        W98413  44.492   8.819   5.082
28599W        W98414   9.239  44.754  11.576
28600W        W98415   3.447  34.077  10.567
28601W        W98416  35.984  22.542  11.003
28602W        W98417  29.078  21.083  11.102
28603W        W98418  39.925  34.590  11.869
28604W        W98419   5.265  17.760   3.810
28605W        W98420  41.897  38.822  14.885
28606W        W98421  18.233   5.906  13.901
28607W        W98422   8.766  35.505   4.159
28608W        W98423  20.717  19.157   3.250
28609W        W98424  37.410  17.560   0.882
28610W        W98425  28.637  41.979  14.350
28611W        W98426  23.583  32.421   2.201
28612W        W98427  27.598  27.021   1.250
28613W        W98428  43.889  13.241   3.168
28614W        W98429  20.619  40.893  14.292
28615W        W98430  22.136  12.147  10.917
28616W        W98431  34.966  39.541  11.112
28617W        W98432  36.056  28.508   2.411
28618W        W98433  19.640  29.112   1.696
28619W        W98434   4.208  27.948   4.660
28620W        W98435   9.833   6.358   3.726
28621W        W98436   7.258   9.313  11.883
28622W        W98437  13.342  15.653  12.438
28623W        W98438   7.798  24.131  13.917
28624W        W98439  30.595   2.750   0.890
28625W        W98440  38.380  34.018   3.752
28626W        W98441  14.691  23.123  14.317
28627W        W98442   5.268  24.668  11.514
28628W        W98443   3.904   6.743   2.849
28629W        W98444  32.585   8.761   2.188
28630W        W98445  11.711  28.097   4.833
28631W        W98446  18.680  32.139   2.402
28632W        W98447  28.445  23.695   3.691
28633W        W98448  13.706   0.746  11.037
28634W        W98449  43.356  14.201   2.825
28635W        W98450   3.784  10.743  12.049
28636W        W98451  44.407  15.172  11.471
28637W        W98452  42.997  15.684   0.799
28638W        W98453  16.314  25.624   4.307
28639W        W98454  29.015   1.887   0.399
28640W        W98455  16.302  24.510  10.997
28641W        W98456   7.739  42.828  13.048
28642W        W98457  25.096  13.209  13.339
28643W        W98458   7.207  19.730  14.837
28644W        W98459  25.657  28.037   1.273
28645W        W98460  24.176   1.349  13.879
28646W        W98461  40.866  38.488  13.310
28647W        W98462  16.153   1.890  14.363
28648W        W98463  44.301  11.364  12.427
28649W        W98464  37.987  34.574   1.212
28650W        W98465  25.089  30.457  12.081
28651W        W98466  38.461  10.741   2.751
28652W        W98467  43.796  25.470   2.268
28653W        W98468  13.282   1.907  11.099
28654W        W98469  12.219  42.804   2.275
28655W        W98470   7.679  10.156  10.434
28656W        W98471   8.222  14.120  13.882
28657W        W98472  23.561  32.981  13.456
28658W        W98473  15.632  10.814  11.594
28659W        W98474  41.021   4.723  11.934
28660W        W98475  15.179  12.688  12.853
28661W        W98476   3.329  13.312  11.612
28662W        W98477  39.460   9.194  11.552
28663W        W98478  39.428  16.298  11.107
28664W        W98479  36.560  20.215   1.210
28665W        W98480  36.407  36.561  14.896
28666W        W98481  13.315   7.710  14.992
28667W        W98482   1.810  25.215   4.793
28668W        W98483  41.354   2.947   2.380
28669W        W98484  41.490  17.662   3.205
28670W        W98485   0.858  40.013   4.263
28671W        W98486  24.002  40.509   1.755
28672W        W98487  33.486  12.297   3.677
28673W        W98488  16.301  31.453  10.409
28674W        W98489  22.617  13.121  11.564
28675W        W98490  39.929  41.533  14.009
28676W        W98491  43.854  19.597   3.341
28677W        W98492  11.753  33.551  13.806
28678W        W98493  43.428  19.569   2.886
28679W        W98494  15.204   3.383   3.766
28680W        W98495  21.579  35.110   3.278
28681W        W98496  35.896  15.689   2.828
28682W        W98497  37.007   5.276  10.618
28683W        W98498  22.564  32.969   0.854
28684W        W98499   8.899  18.064   4.191
28685W        W98500   2.299  32.959   3.643
28686W        W98501  31.608  41.790  13.991
28687W        W98502  11.624  35.026   4.749
28688W        W98503  15.733  26.981   0.873
28689W        W98504   8.275  44.459  14.790
28690W        W98505  16.810  32.103   3.307
28691W        W98506  30.132  38.455  13.393
28692W        W98507   8.237  15.743   2.312
28693W        W98508  17.755  33.049   3.653
28694W        W98509  36.497  21.552  14.960
28695W        W98510  35.023  26.671   2.697
28696W        W98511  10.237  28.963  10.527
28697W        W98512  43.292   5.232   1.365
28698W        W98513  27.501  17.640   2.829
28699W        W98514  30.917  20.687  11.527
28700W        W98515  44.358  32.455  10.509
28701W        W98516  20.728  27.062  14.946
28702W        W98517   3.267  25.058  11.493
28703W        W98518  30.573  10.296   1.708
28704W        W98519  16.593  11.251   3.292
28705W        W98520   8.832  20.573   4.647
28706W        W98521  38.947  13.301   5.238
28707W        W98522   8.866   7.888   1.430
28708W        W98523  11.132   2.339   3.805
28709W        W98524  18.266  36.888   1.819
28710W        W98525  27.969  42.847   0.432
28711W        W98526  29.643  31.594   2.773
28712W        W98527   9.229  13.800  14.317
28713W        W98528  16.780  29.569   4.138
28714W        W98529  34.502  11.832  12.844
28715W        W98530  34.061  39.398  10.956
28716W        W98531  29.112  23.593   2.288
28717W        W98532  36.480  24.087   2.408
28718W        W98533  13.345   6.217   1.283
28719W        W98534  22.668  23.235   1.426
28720W        W98535  42.838   0.449   0.959
28721W        W98536  31.957  37.052  13.872
28722W        W98537  40.831  37.498  12.946
28723W        W98538  17.076  18.192   4.342
28724W        W98539  16.260  11.257   4.729
28725W        W98540  25.173  28.582   2.679
28726W        W98541   7.258   7.205  13.883
28727W        W98542  30.919  11.823  11.450
28728W        W98543  43.274  19.176  14.867
28729W        W98544  43.373  27.541  12.458
28730W        W98545   7.237  12.313  13.809
28731W        W98546  40.424  19.256  12.006
28732W        W98547   3.222  41.879   0.295
28733W        W98548  23.638   1.277  10.412
28734W        W98549  44.269  26.106   2.235
28735W        W98550  35.535  35.380   1.738
28736W        W98551  40.986  13.635  11.560
28737W        W98552  24.224  39.815  11.992
28738W        W98553  37.481   0.951   4.796
28739W        W98554  15.684  32.076   3.214
28740W        W98555   8.737  28.129  14.810
28741W        W98556  42.322  21.703  13.475
28742W        W98557   7.304  30.106   0.270
28743W        W98558  12.738  23.172  10.466
28744W        W98559  28.982  27.480   2.381
28745W        W98560  38.329   7.208   4.120
28746W        W98561  10.288  41.863  12.462
28747W        W98562   6.332  44.880   0.930
28748W        W98563  15.631  30.556   1.857
28749W        W98564  24.163  43.921   2.315
28750W        W98565  13.322  27.118  11.071
28751W        W98566   2.794  18.725   2.379
28752W        W98567  37.056  31.569  14.288
28753W        W98568  17.099  27.550  10.622
28754W        W98569   2.922  11.152   2.836
28755W        W98570  25.570  12.693   2.222
28756W        W98571   5.740   7.737   3.214
28757W        W98572   3.915  10.859   3.641
28758W        W98573   9.191   6.335   2.864
28759W        W98574   0.479  24.599   1.925
28760W        W98575  23.673   1.335  12.390
28761W        W98576  23.124   2.829  13.937
28762W        W98577  35.093  10.835  13.397
28763W        W98578  43.775   9.383   0.458
28764W        W98579  41.016  24.703  13.396
28765W        W98580  17.724   7.293  14.939
28766W        W98581   0.369  17.792   0.779
28767W        W98582  31.082  25.073   5.313
28768W        W98583  37.853  29.490  11.874
28769W        W98584   3.374  12.206   3.380
28770W        W98585  38.523   6.858  10.153
28771W        W98586  40.040   2.957  11.949
28772W        W98587  24.512  10.802  11.929
28773W        W98588  25.584  33.946   2.382
28774W        W98589   1.346   5.930   2.266
28775W        W98590   3.878  15.266  11.435
28776W        W98591  39.409  43.294  14.002
28777W        W98592  18.071  25.150  10.645
28778W        W98593  41.812  30.544   4.172
28779W        W98594   4.714  14.125   2.267
28780W        W98595  22.051  23.028   2.758
28781W        W98596  29.002  43.020   1.371
28782W        W98597  18.627  25.984  14.499
28783W        W98598  40.845  31.943  11.449
28784W        W98599   3.721  37.065   4.708
28785W        W98600  19.670  40.418   3.745
28786W        W98601  12.348  41.034  11.510
28787W        W98602  17.752  27.028  14.002
28788W        W98603  22.130  17.149  11.409
28789W        W98604  20.186  24.670  14.952
28790W        W98605  30.657  21.629  14.813
28791W        W98606   8.301  34.070   2.356
28792W        W98607  12.753  14.590   0.751
28793W        W98608   8.807  35.523  13.378
28794W        W98609   9.794  16.742  13.314
28795W        W98610  35.972  22.190  10.598
28796W        W98611  21.704  43.419   5.110
28797W        W98612  38.344   7.888  13.509
28798W        W98613  13.133  36.969   4.156
28799W        W98614  37.884  11.195   4.251
28800W        W98615  25.550  35.858   2.317
28801W        W98616  25.575  23.546   2.296
28802W        W98617  13.211  39.971   2.320
28803W        W98618  37.011  30.075  12.880
28804W        W98619  11.702  11.679  11.432
28805W        W98620  42.021  23.706  14.417
28806W        W98621  22.202  11.235   2.373
28807W        W98622  15.301  38.351   3.844
28808W        W98623  11.316   3.448  13.925
28809W        W98624   9.384   7.206  10.460
28810W        W98625  32.501  25.189   5.238
28811W        W98626   7.186  28.046   3.813
28812W        W98627   2.824  18.697   3.806
28813W        W98628  14.781  13.299   1.697
28814W        W98629  31.518  24.603   2.332
28815W        W98630  26.105  27.060  11.947
28816W        W98631   5.921  36.524  10.630
28817W        W98632  16.643  35.367   3.177
28818W        W98633   1.966  10.317   1.876
28819W        W98634  19.162  23.063   2.190
28820W        W98635  25.606   8.872  12.984
28821W        W98636  15.641  38.058  12.536
28822W        W98637   2.388  42.347   0.350
28823W        W98638   5.725  38.897  12.946
28824W        W98639   5.699   1.827   3.153
28825W        W98640  10.172  18.653  14.862
28826W        W98641  41.860   6.377   0.464
28827W        W98642   1.269  27.128   2.701
28828W        W98643  28.547  43.002  12.893
28829W        W98644  22.210  43.766   3.368
28830W        W98645  28.102  29.537   0.860
28831W        W98646  32.124  41.345   3.719
28832W        W98647   6.221   8.680   1.418
28833W        W98648  34.474  16.625  13.447
28834W        W98649   5.317  17.238  12.091
28835W        W98650  21.618  16.626   3.674
28836W        W98651  21.586   0.459   0.351
28837W        W98652  43.785  40.521  11.959
28838W        W98653   9.201  37.992   1.387
28839W        W98654   9.757   6.767   2.783
28840W        W98655  11.321  18.607  13.849
28841W        W98656   8.800  42.007   4.651
28842W        W98657   5.728  18.281   1.920
28843W        W98658  40.948  33.091   3.248
28844W        W98659  25.498  26.648  14.396
28845W        W98660  18.271  10.727   2.316
28846W        W98661  44.965  31.631  13.444
28847W        W98662  33.621   0.894  12.826
28848W        W98663  18.695  17.267   0.314
28849W        W98664  23.004  17.180  10.529
28850W        W98665  43.402  26.575   5.269
28851W        W98666  41.928  33.899  14.476
28852W        W98667   3.218  20.719   2.680
28853W        W98668  19.565  14.634  10.947
28854W        W98669  12.816  36.993  14.397
28855W        W98670  24.992  18.150   2.359
28856W        W98671  11.751  33.463   3.846
28857W        W98672   5.868  22.213  13.912
28858W        W98673  22.601  11.843  11.026
28859W        W98674  29.017  27.192  13.976
28860W        W98675  20.609  32.991  14.941
28861W        W98676  39.556  25.073   3.871
28862W        W98677   9.225  25.508  10.502
28863W        W98678  19.071  35.593   4.329
28864W        W98679  28.113  18.639   1.715
28865W        W98680  41.908   0.946  13.399
28866W        W98681   1.942  41.786  14.943
28867W        W98682  32.104  20.612   0.847
28868W        W98683   3.949  43.901   4.123
28869W        W98684  37.339  38.829   1.697
28870W        W98685  34.461  21.043   0.842
28871W        W98686  35.865   1.289   4.341
28872W        W98687  27.092   2.892  12.824
28873W        W98688   0.281  15.660  10.426
28874W        W98689  41.414  33.410   2.233
28875W        W98690  25.642   5.392   0.925
28876W        W98691  16.202  40.487  10.623
28877W        W98692   9.199  13.657  11.458
28878W        W98693  18.554  43.937   0.884
28879W        W98694  44.886  28.977   1.847
28880W        W98695  36.553  31.000  12.090
28881W        W98696  27.058   6.846   3.191
28882W        W98697  36.480  18.220   2.264
28883W        W98698  16.246  26.595   0.463
28884W        W98699  42.522   3.220   3.749
28885W        W98700  17.204  28.665  12.038
28886W        W98701  40.949   1.425   2.681
28887W        W98702  23.037  24.983  13.007
28888W        W98703  10.288  38.488   9.998
28889W        W98704   5.793  13.778   4.124
28890W        W98705  40.453  34.523  13.048
28891W        W98706  10.254  27.666  14.935
28892W        W98707  36.058  18.101  13.032
28893W        W98708  31.056  26.155  11.894
28894W        W98709   1.408   5.916  12.553
28895W        W98710  10.296  20.741   3.846
28896W        W98711  13.622  12.651  13.406
28897W        W98712  37.927   0.311  12.438
28898W        W98713  16.710  31.549  12.561
28899W        W98714  25.555  38.447  12.855
28900W        W98715  41.444  33.561  12.450
28901W        W98716   2.752  10.787   1.321
28902W        W98717   4.806  12.831   0.349
28903W        W98718  34.096  30.543   2.323
28904W        W98719  10.195  22.048  13.407
28905W        W98720   1.800  28.038   1.434
28906W        W98721   3.387  31.119  10.967
28907W        W98722  24.511  20.579  13.521
28908W        W98723   0.464   1.464   1.368
28909W        W98724  14.603  22.531   1.400
28910W        W98725  16.074  36.865   2.183
28911W        W98726  42.478  33.966   4.746
28912W        W98727  29.629  13.620   4.667
28913W        W98728  15.236  17.217   3.277
28914W        W98729   5.235  13.820   0.341
28915W        W98730  27.585   8.827   0.438
28916W        W98731  11.835  44.810   4.606
28917W        W98732  28.965   6.750  11.589
28918W        W98733   4.944   1.346  14.397
28919W        W98734  15.702  18.774  12.988
28920W        W98735   5.299  28.164  13.818
28921W        W98736  41.915   6.236   0.861
28922W        W98737   4.923  39.851   3.360
28923W        W98738  37.350  15.676   0.793
28924W        W98739  23.153  43.290   4.233
28925W        W98740  41.339  26.484   9.942
28926W        W98741  20.208  12.774   4.327
28927W        W98742  22.999  10.828  12.005
28928W        W98743  18.657  16.164   4.648
28929W        W98744  25.688  39.508   0.761
28930W        W98745  44.337  28.610  14.471
28931W        W98746  35.458  35.962  13.818
28932W        W98747  14.734  25.134   1.743
28933W        W98748  26.575  10.323   0.751
28934W        W98749  11.162  42.342  14.994
28935W        W98750   9.162  44.848   2.680
28936W        W98751   1.361  29.524   2.671
28937W        W98752  42.367  18.618   0.352
28938W        W98753  34.377  37.924   0.908
28939W        W98754  26.597   7.356   1.375
28940W        W98755  19.114  38.364   0.361
28941W        W98756   8.214  39.425   1.906
28942W        W98757   2.319  32.581   1.716
28943W        W98758  20.179  22.010  10.121
28944W        W98759   8.744  40.988   1.855
28945W        W98760  13.630  17.075   0.260
28946W        W98761   4.806   7.173  11.034
28947W        W98762  13.331   7.763   1.914
28948W        W98763  24.680  15.636   2.856
28949W        W98764   6.271   8.323   9.986
28950W        W98765  11.664  22.628  10.142
28951W        W98766  26.034  42.393  12.438
28952W        W98767   5.343  36.353  12.445
28953W        W98768  13.294  35.463   1.320
28954W        W98769  23.629  13.346   4.827
28955W        W98770  35.952  38.445  11.542
28956W        W98771  22.066  38.434  10.491
28957W        W98772   2.834  17.216  13.852
28958W        W98773  29.476  25.173   5.097
28959W        W98774  10.706  13.614   2.848
28960W        W98775  23.076  19.187   1.392
28961W        W98776  25.479  29.476   0.730
28962W        W98777  17.620  44.876  10.612
28963W        W98778  31.900   4.845   1.284
28964W        W98779   4.205   5.810   3.261
28965W        W98780  13.347   4.762   4.664
28966W        W98781  19.068  26.543  14.923
28967W        W98782  40.526   8.278   4.326
28968W        W98783  26.678  37.868   1.929
28969W        W98784  38.929  21.082   3.678
28970W        W98785  24.482  34.063  11.884
28971W        W98786   8.873  18.221   1.846
28972W        W98787   0.263  23.544  13.883
28973W        W98788  15.612  15.769  13.508
28974W        W98789   3.426  41.448  10.024
28975W        W98790  35.966   1.353   3.340
28976W        W98791  23.166   3.883   1.416
28977W        W98792  23.164  20.269   1.409
28978W        W98793  35.973  10.347  10.062
28979W        W98794  32.018   7.260  14.978
28980W        W98795  30.982   7.722  10.510
28981W        W98796  36.073  43.461   1.424
28982W        W98797  20.101  28.507  12.386
28983W        W98798  36.071  30.602   1.302
28984W        W98799  38.438  16.581  13.395
28985W        W98800  41.932  33.589   1.289
28986W        W98801  14.219   0.471   0.965
28987W        W98802  23.113   8.394  12.912
28988W        W98803  15.656  24.998   3.351
28989W        W98804  25.156  20.212  11.902
28990W        W98805  11.206   2.310  13.913
28991W        W98806  15.647  23.728   3.695
28992W        W98807  15.618  42.788   2.282
28993W        W98808  16.624  32.967   0.334
28994W        W98809  17.696   6.316   4.159
28995W        W98810  18.651  30.101  13.970
28996W        W98811  42.339   5.245   4.780
28997W        W98812  17.089  33.953   3.701
28998W        W98813  26.577  42.816  13.446
28999W        W98814  29.587  11.286  12.863
29000W        W98815   7.322  20.670   2.314
29001W        W98816  31.124  22.117   4.139
29002W        W98817  20.674  26.158   3.315
29003W        W98818   9.294  22.079  12.040
29004W        W98819  29.989   1.850   0.407
29005W        W98820  18.577  42.002  14.281
29006W        W98821  23.152  33.619  10.099
29007W        W98822  22.102   2.336   0.803
29008W        W98823   6.247  28.574   1.721
29009W        W98824  33.459  37.879  12.018
29010W        W98825  23.609  40.305  13.799
29011W        W98826   6.783  14.610  13.825
29012W        W98827  44.753  19.642   3.818
29013W        W98828   3.713   1.375  13.337
29014W        W98829  12.747  23.040   2.344
29015W        W98830  43.358  20.066   3.754
29016W        W98831  11.225  16.142  12.046
29017W        W98832  17.558  27.503   0.280
29018W        W98833  12.636  42.025   2.259
29019W        W98834  22.565  10.151  11.029
29020W        W98835  19.224  30.456   2.388
29021W        W98836  40.364   7.718   5.571
29022W        W98837  41.351  29.051   1.231
29023W        W98838   5.390   2.843   2.772
29024W        W98839  32.528  33.441   3.789
29025W        W98840  15.657  10.161  12.536
29026W        W98841   7.824  44.832  12.856
29027W        W98842  28.585  12.800  14.875
29028W        W98843  16.249  31.629   1.788
29029W        W98844  28.579   2.325   0.375
29030W        W98845  44.895  21.193   4.727
29031W        W98846  43.450  24.126  10.975
29032W        W98847  13.752  32.436   1.742
29033W        W98848  32.457  29.031  10.572
29034W        W98849  12.816  22.638   0.245
29035W        W98850  10.787  32.431  11.939
29036W        W98851   7.777  20.681   4.240
29037W        W98852  23.159  35.462   4.288
29038W        W98853   7.758  15.693  13.839
29039W        W98854  17.702  20.733   2.776
29040W        W98855  11.192  15.156   4.783
29041W        W98856  11.348   4.724  14.026
29042W        W98857   1.958  34.433  12.371
29043W        W98858  33.935  40.013  13.035
29044W        W98859  13.782  32.468  12.042
29045W        W98860  44.309  42.799  14.793
29046W        W98861  17.613   5.200   4.257
29047W        W98862  25.683   6.412   1.367
29048W        W98863  28.572   1.807   4.614
29049W        W98864  42.944  10.362  14.887
29050W        W98865  26.185  10.161   4.748
29051W        W98866   2.309  40.945  12.975
29052W        W98867  28.571  41.531  11.521
29053W        W98868  42.798  32.413  12.395
29054W        W98869  42.324  38.529   0.728
29055W        W98870  19.283   2.471   2.281
29056W        W98871   6.696  14.280   1.708
29057W        W98872  42.346  18.673  13.850
29058W        W98873  42.873  36.487   4.623
29059W        W98874   7.686  23.607  10.591
29060W        W98875  40.432  28.664   1.357
29061W        W98876   5.326  31.970  12.946
29062W        W98877  23.157   0.975   1.419
29063W        W98878   5.331  13.827  14.306
29064W        W98879  18.143  40.471  11.099
29065W        W98880  29.575  16.702   3.744
29066W        W98881   9.711  29.547   1.747
29067W        W98882  38.534  25.582  12.978
29068W        W98883  15.276   5.847  10.973
29069W        W98884  40.802  11.763  10.556
29070W        W98885  37.483  25.469   4.179
29071W        W98886  17.797  16.627  14.487
29072W        W98887   2.227   3.378  13.458
29073W        W98888  38.060  29.553   2.238
29074W        W98889   2.275  20.584   0.254
29075W        W98890  23.199   1.465   4.229
29076W        W98891  35.543  30.097   1.351
29077W        W98892  25.081  34.039  13.824
29078W        W98893   6.392   4.892   5.210
29079W        W98894  25.044  41.815  12.435
29080W        W98895   8.714  23.583  13.887
29081W        W98896  27.591  42.974   3.218
29082W        W98897  38.421  13.124  14.276
29083W        W98898  30.534   0.910  14.928
29084W        W98899  27.623  36.871  10.475
29085W        W98900  30.005  17.146  10.449
29086W        W98901  24.725   6.874   0.852
29087W        W98902  16.274  38.943  10.949
29088W        W98903  37.867   4.745   4.614
29089W        W98904  28.661  33.044   0.908
29090W        W98905  35.580   4.352   0.450
29091W        W98906  13.789  38.954   2.761
29092W        W98907  20.541  36.466  12.552
29093W        W98908  39.872  43.464   3.708
29094W        W98909  44.765  21.084  12.564
29095W        W98910  26.141  25.037   2.222
29096W        W98911  34.041  17.125  10.479
29097W        W98912  43.451  41.797   0.384
29098W        W98913  41.794  14.594  13.958
29099W        W98914  31.078  23.599   5.082
29100W        W98915  20.060  26.693  10.936
29101W        W98916  36.515  12.138  11.901
29102W        W98917  42.357  36.513  10.923
29103W        W98918  35.383  44.784   1.793
29104W        W98919  36.375  10.749  14.760
29105W        W98920  33.606   3.311  14.411
29106W        W98921   6.908  29.437  11.584
29107W        W98922  42.887  36.557  14.803
29108W        W98923  26.150  36.078  11.468
29109W        W98924  20.559  27.094  13.942
29110W        W98925  36.023  34.950   2.743
29111W        W98926  18.138  43.385   2.302
29112W        W98927  21.236  41.888  13.539
29113W        W98928  34.886  17.582  11.520
29114W        W98929  11.727  29.481   2.869
29115W        W98930  22.534  40.949  12.463
29116W        W98931  41.400  29.062   4.124
29117W        W98932  15.699   3.374  10.922
29118W        W98933   3.821  27.593  14.435
29119W        W98934  29.136  17.196  10.451
29120W        W98935   6.875  30.078   2.734
29121W        W98936  33.414  44.294   0.477
29122W        W98937  22.547  13.838   1.817
29123W        W98938   3.308  27.640  11.051
29124W        W98939  13.622  19.166   4.283
29125W        W98940  22.517  19.236  14.791
29126W        W98941  33.099  18.686  13.391
29127W        W98942  18.617  15.670  12.843
29128W        W98943  44.293  37.842  11.988
29129W        W98944  26.581  20.709   4.242
29130W        W98945  21.622  19.723  11.593
29131W        W98946   0.361  12.345   1.448
29132W        W98947  29.026  42.525   0.425
29133W        W98948  21.698  22.613   0.744
29134W        W98949  25.686  37.897   9.950
29135W        W98950  26.700  37.065  11.553
29136W        W98951  24.059  11.756  10.078
29137W        W98952  18.726   9.822  12.560
29138W        W98953  37.868   3.301  10.499
29139W        W98954  43.494   3.247  10.120
29140W        W98955  19.088   1.350  13.879
29141W        W98956  37.972  29.092  12.526
29142W        W98957   4.817  22.609  10.935
29143W        W98958  38.511  43.420   3.373
29144W        W98959  31.582  43.852  11.020
29145W        W98960   0.384  11.642   2.770
29146W        W98961   5.863  33.433   4.672
29147W        W98962   3.881   0.847  13.438
29148W        W98963  40.337  18.762   0.869
29149W        W98964  39.433  29.665   4.233
29150W        W98965  33.444  25.057   0.872
29151W        W98966  22.197  14.793   2.692
29152W        W98967  11.855   0.854   0.483
29153W        W98968   9.822  32.038   2.681
29154W        W98969  33.119  36.383  11.486
29155W        W98970  36.503  18.261   4.289
29156W        W98971  12.135  29.627  10.485
29157W        W98972  13.139  12.131  11.498
29158W        W98973  23.524  43.019   4.601
29159W        W98974   4.310  24.567   2.899
29160W        W98975  25.985  19.068   3.838
29161W        W98976  27.069   7.722  13.836
29162W        W98977  25.606  22.216   3.307
29163W        W98978  17.771  21.045  12.467
29164W        W98979  23.199   3.252   2.361
29165W        W98980  38.331  40.978  13.830
29166W        W98981  41.969  10.746  14.489
29167W        W98982   4.299  15.637   2.338
29168W        W98983  14.809  30.561  14.858
29169W        W98984  19.608  44.445   0.362
29170W        W98985   7.833  30.574   1.261
29171W        W98986  18.609  16.669   3.200
29172W        W98987  28.095  30.908  12.428
29173W        W98988  28.973  25.106   0.791
29174W        W98989  39.859  27.041   2.855
29175W        W98990  30.420  22.679   1.779
29176W        W98991   6.192  27.029  13.543
29177W        W98992  10.140  19.158  13.818
29178W        W98993  30.438  24.569  14.332
29179W        W98994  37.840  10.146   0.771
29180W        W98995   5.330  29.921   3.368
29181W        W98996  10.316  18.720   1.906
29182W        W98997  32.117  18.579   3.832
29183W        W98998  31.901  33.990   1.281
29184W        W98999   3.871  40.466   2.351
29185W        W99000  17.143   7.845   1.728
29186W        W99001  30.129  12.318  14.325
29187W        W99002  16.809  10.743  14.980
29188W        W99003  44.444   7.824   3.293
29189W        W99004  36.349  43.447   1.320
29190W        W99005  18.651  16.204   4.196
29191W        W99006  25.104  28.571  13.487
29192W        W99007  27.994  37.975   3.637
29193W        W99008  39.350  16.737  13.021
29194W        W99009  25.103  43.850  13.049
29195W        W99010  36.570  36.554   0.398
29196W        W99011  15.254  38.037  11.456
29197W        W99012   6.846   5.814  12.360
29198W        W99013  25.491   9.819  12.057
29199W        W99014  20.549  43.900   5.181
29200W        W99015  21.209  32.968   3.339
29201W        W99016  26.970   9.831  10.621
29202W        W99017   6.826   1.452  11.918
29203W        W99018   5.297  34.588  13.438
29204W        W99019  28.444  39.015  14.831
29205W        W99020  11.287  26.591  14.840
29206W        W99021  35.916  16.282   1.710
29207W        W99022  29.050  17.752  14.365
29208W        W99023  12.338   1.827   3.708
29209W        W99024   4.405  14.136  14.367
29210W        W99025  22.053  15.793   2.288
29211W        W99026  19.200  26.467   2.692
29212W        W99027  39.833  22.021  10.569
29213W        W99028  31.899  18.245  11.877
29214W        W99029  15.100  23.662  14.797
29215W        W99030  10.638  24.701   4.224
29216W        W99031  28.554  17.070  14.838
29217W        W99032   6.335  37.469   1.390
29218W        W99033   3.824  38.563  12.497
29219W        W99034  24.974  42.451  12.410
29220W        W99035  34.564   8.843  11.532
29221W        W99036  40.440  34.939   4.803
29222W        W99037  18.618  10.758   1.298
29223W        W99038   7.230  12.160  11.949
29224W        W99039  14.668   1.460   2.303
29225W        W99040   8.391  17.572   3.296
29226W        W99041  38.846   6.197  10.610
29227W        W99042  28.614  17.663   2.751
29228W        W99043  27.637  19.619   2.786
29229W        W99044  13.836   7.324   0.781
29230W        W99045  40.303  37.550   4.208
29231W        W99046  23.033   1.387   0.310
29232W        W99047   3.937  24.140  11.118
29233W        W99048  13.618  35.493  11.890
29234W        W99049   9.838  37.839  13.530
29235W        W99050  40.907  26.513   1.417
29236W        W99051  42.296   1.381   0.339
29237W        W99052  28.009  11.313  11.081
29238W        W99053  43.391   5.905   0.283
29239W        W99054   2.874  14.684  11.476
29240W        W99055  31.572   4.927   1.787
29241W        W99056  20.743  42.364  10.629
29242W        W99057  31.479  17.702   2.794
29243W        W99058   3.374  12.260   0.483
29244W        W99059   3.422  24.693  11.997
29245W        W99060  21.211  34.371   2.385
29246W        W99061  23.194  40.817   0.478
29247W        W99062   1.917  18.264  12.982
29248W        W99063   9.281  43.363  12.046
29249W        W99064  44.344  17.226   1.320
29250W        W99065  23.051   7.783  11.005
29251W        W99066  32.902  18.761   4.824
29252W        W99067  36.936  10.344   0.808
29253W        W99068  27.075  36.065   4.302
29254W        W99069  19.132   2.903  10.588
29255W        W99070  41.968  35.408  14.452
29256W        W99071  21.700   2.935  13.882
29257W        W99072  36.843  36.485   2.688
29258W        W99073  44.285  25.994  13.970
29259W        W99074  14.633  25.095   4.602
29260W        W99075  12.626  26.125   2.382
29261W        W99076   4.382   9.726  12.392
29262W        W99077  26.499  42.008   2.803
29263W        W99078  40.042  16.259   4.719
29264W        W99079  18.770  30.982  13.916
29265W        W99080  10.823   0.970  10.438
29266W        W99081  44.308  26.526  14.778
29267W        W99082  25.590  38.063   1.376
29268W        W99083  32.586  27.961  14.773
29269W        W99084  35.060  29.629  11.995
29270W        W99085  41.430  23.019  12.993
29271W        W99086  29.136   6.715   4.832
29272W        W99087  35.959  36.079   2.224
29273W        W99088  39.834  44.785   3.822
29274W        W99089  22.167  14.751   1.867
29275W        W99090  33.456  24.606  14.279
29276W        W99091  17.778  44.410  13.863
29277W        W99092  26.120   3.407   2.272
29278W        W99093  33.918   4.844  13.448
29279W        W99094  29.021  35.007  13.363
29280W        W99095  38.836  18.121  11.110
29281W        W99096  17.160   3.353  11.973
29282W        W99097  24.086  26.607   0.391
29283W        W99098   7.725   0.963   3.692
29284W        W99099   1.921  18.142  14.852
29285W        W99100   8.342  33.002  10.977
29286W        W99101   6.755  23.218  11.475
29287W        W99102  31.055  14.303   1.297
29288W        W99103  17.674  10.814  11.013
29289W        W99104  17.108  24.639   2.782
29290W        W99105  15.766  42.904   4.270
29291W        W99106  10.669  28.591  12.478
29292W        W99107  17.695  23.555   3.145
29293W        W99108  21.685  34.597  11.456
29294W        W99109  32.434  22.731  11.127
29295W        W99110  25.158  34.958   1.403
29296W        W99111  29.494  13.748  12.386
29297W        W99112  41.533   2.390   1.933
29298W        W99113  11.761  10.749  14.890
29299W        W99114  36.080  38.468   4.716
29300W        W99115  26.525  14.241   4.252
29301W        W99116  14.275  36.406  14.318
29302W        W99117  10.686  10.731   2.707
29303W        W99118  42.421  27.059  10.428
29304W        W99119  18.757   3.292   2.882
29305W        W99120  28.027  38.956  10.500
29306W        W99121   2.795  16.730   2.285
29307W        W99122  27.462  17.111   3.262
29308W        W99123  20.768  43.366   5.800
29309W        W99124  36.509  24.704   1.218
29310W        W99125  44.917  34.066  11.050
29311W        W99126   0.353  17.128   0.374
29312W        W99127  26.529   4.744  13.369
29313W        W99128   1.797   4.759   4.676
29314W        W99129  35.011  24.013   1.365
29315W        W99130  19.119  16.136  12.035
29316W        W99131  37.939  44.347   4.839
29317W        W99132  35.479  13.156  11.589
29318W        W99133   7.239  33.486  10.505
29319W        W99134  43.891  14.785  11.963
29320W        W99135  33.490  26.663  12.015
29321W        W99136  13.606  10.291  11.937
29322W        W99137  19.209  36.874  14.375
29323W        W99138  40.910   3.761   4.811
29324W        W99139  32.933  11.861  14.898
29325W        W99140   2.893  35.528  11.475
29326W        W99141  23.038  27.158   0.448
29327W        W99142  20.219  39.333  12.973
29328W        W99143  28.572   5.396   2.199
29329W        W99144   2.346  40.490   4.311
29330W        W99145  43.475  18.611  12.365
29331W        W99146  44.931  24.147  11.430
29332W        W99147  12.631  11.280  12.550
29333W        W99148   6.387  20.258   2.859
29334W        W99149   6.201  41.039  10.408
29335W        W99150   0.337  18.199   0.365
29336W        W99151  35.391  15.143   2.890
29337W        W99152  17.770  30.491  11.070
29338W        W99153   0.746   4.405   0.924
29339W        W99154  41.525  14.151  10.451
29340W        W99155  37.968   3.916  11.873
29341W        W99156   3.834  42.989  14.848
29342W        W99157  44.417  12.782  10.617
29343W        W99158  42.313   1.482  14.879
29344W        W99159  29.110  30.490  14.911
29345W        W99160   9.287  34.514   3.633
29346W        W99161  39.922  20.665   3.750
29347W        W99162  31.958  15.311  14.026
29348W        W99163  27.623  16.178  11.426
29349W        W99164   7.855  25.548  14.967
29350W        W99165   0.904  10.701   2.872
29351W        W99166   8.386  12.162  14.762
29352W        W99167  12.279  22.732  14.934
29353W        W99168  26.507  37.351  13.908
29354W        W99169  39.963  35.571  13.945
29355W        W99170  39.410  43.885   0.752
29356W        W99171  33.611  28.179  14.951
29357W        W99172  38.481   7.349  11.003
29358W        W99173  20.170  19.147   4.125
29359W        W99174   7.355  29.547   4.707
29360W        W99175   4.387  35.064   4.720
29361W        W99176  42.421  43.798   4.734
29362W        W99177  15.118  12.327  14.921
29363W        W99178  28.133   5.234  11.570
29364W        W99179  23.230  21.631  14.853
29365W        W99180  37.473  10.239   3.291
29366W        W99181  35.952  18.678   3.292
29367W        W99182  25.134  44.423   4.825
29368W        W99183  38.863   9.758  10.557
29369W        W99184  10.372  29.134  13.872
29370W        W99185  26.612   7.368  11.923
29371W        W99186  23.733  22.082   0.742
29372W        W99187  13.347  43.341   4.782
29373W        W99188  28.016   0.790  13.050
29374W        W99189  40.518   7.378   3.863
29375W        W99190  10.232  16.584  10.896
29376W        W99191  18.677  31.402   3.325
29377W        W99192   4.391   0.398  13.883
29378W        W99193  44.845  31.007   1.723
29379W        W99194  10.680  32.910  11.037
29380W        W99195   3.855   9.798  14.388
29381W        W99196  20.557  18.286  13.347
29382W        W99197  42.811  28.128  11.060
29383W        W99198  15.113  19.580   0.428
29384W        W99199   7.876  26.969  11.121
29385W        W99200  37.394  11.253   3.180
29386W        W99201  30.056   7.413   3.703
29387W        W99202  32.011  16.119  13.020
29388W        W99203  16.714   7.757  10.431
29389W        W99204  40.036   6.723  13.974
29390W        W99205  28.076   5.284  12.908
29391W        W99206  10.234  26.202   2.880
29392W        W99207   1.953  37.365   3.207
29393W        W99208  27.513  12.640  13.322
29394W        W99209  21.251   1.457  11.503
29395W        W99210  40.003  19.201   0.953
29396W        W99211  42.816  20.094  12.477
29397W        W99212  13.185  34.915  14.334
29398W        W99213  26.953  21.091   4.245
29399W        W99214  40.379   9.885   3.855
29400W        W99215   2.230   8.729  14.323
29401W        W99216  42.282  16.076  14.896
29402W        W99217  25.678   5.821   1.698
29403W        W99218  38.020   7.329  10.474
29404W        W99219  38.861   0.464  10.924
29405W        W99220   0.822   3.268  11.543
29406W        W99221  29.168  16.104   1.872
29407W        W99222  12.617  35.495  12.990
29408W        W99223   2.893  15.593  13.522
29409W        W99224  41.805   8.839   1.385
29410W        W99225  10.307  23.495   1.213
29411W        W99226  24.484  16.227   2.228
29412W        W99227  21.705  18.179   1.282
29413W        W99228  31.582  44.402   3.249
29414W        W99229   7.742  12.760   4.304
29415W        W99230  13.222  34.444   3.153
29416W        W99231  35.856  21.516  14.968
29417W        W99232  31.966   7.730  14.493
29418W        W99233  41.909  24.716  10.635
29419W        W99234  29.580  13.158  11.450
29420W        W99235  23.006   3.745  12.357
29421W        W99236  37.494  12.307   3.328
29422W        W99237  12.194  26.138  11.439
29423W        W99238  21.619  18.683  10.590
29424W        W99239  27.514  14.224   0.933
29425W        W99240  27.584  23.627  14.949
29426W        W99241  25.681  10.325   0.921
29427W        W99242  11.234  37.909  13.803
29428W        W99243  18.604  23.149  10.558
29429W        W99244  27.112  35.924   1.860
29430W        W99245  13.723  21.089  12.476
29431W        W99246  18.220  23.075  11.044
29432W        W99247   9.323  30.936  10.619
29433W        W99248   4.813   3.314   1.908
29434W        W99249   0.469  22.236   1.765
29435W        W99250  11.807  13.262   9.973
29436W        W99251  44.388  16.221   2.770
29437W        W99252  30.498  30.119  12.008
29438W        W99253  20.070   2.398   1.269
29439W        W99254  41.445  34.994   4.165
29440W        W99255  43.913  42.497   1.273
29441W        W99256  31.492  30.979   2.400
29442W        W99257   1.909  12.350   2.893
29443W        W99258  23.735  44.442   3.740
29444W        W99259   3.941  26.164  14.962
29445W        W99260  33.064  44.938  14.766
29446W        W99261  10.245   4.326  12.900
29447W        W99262  44.401   3.788  14.346
29448W        W99263  44.861  30.432  12.512
29449W        W99264  10.228   8.202   3.703
29450W        W99265   7.414  15.251  13.342
29451W        W99266  24.224  12.280   2.313
29452W        W99267  12.660  40.013   3.193
29453W        W99268   2.315  27.059  13.836
29454W        W99269  44.919   7.361  13.935
29455W        W99270   5.822  30.475   4.797
29456W        W99271   1.409  12.769   1.286
29457W        W99272   1.896  31.921  14.798
29458W        W99273   9.875  44.010   1.749
29459W        W99274   6.848  22.126   0.825
29460W        W99275  29.454  35.453   0.741
29461W        W99276   1.455  39.416   3.705
29462W        W99277  43.020  37.947   5.215
29463W        W99278  35.518  26.962   0.851
29464W        W99279   7.199  39.460  12.542
29465W        W99280  35.853  33.084  12.981
29466W        W99281  32.489  25.991  11.985
29467W        W99282   7.309  43.419  13.363
29468W        W99283  16.110   2.461   4.248
29469W        W99284  37.518  25.044   4.715
29470W        W99285  23.557  35.939  14.314
29471W        W99286  11.266  33.586   0.966
29472W        W99287  31.957  42.790   0.341
29473W        W99288  13.843  42.525   3.385
29474W        W99289  44.809  17.266   1.891
29475W        W99290  33.087  13.677   3.277
29476W        W99291  25.074  19.633  14.332
29477W        W99292  26.109  15.581   3.157
29478W        W99293  42.339   7.834   3.195
29479W        W99294  31.416  25.987  12.922
29480W        W99295  21.038  16.594   0.857
29481W        W99296  19.693   7.328  14.364
29482W        W99297  14.117  10.737   1.775
29483W        W99298   3.734  19.163  12.384
29484W        W99299  34.608  42.004   4.248
29485W        W99300  17.592  26.992   4.647
29486W        W99301  40.376  36.498  12.051
29487W        W99302  24.614   7.705   3.739
29488W        W99303  25.517  25.155   2.860
29489W        W99304  27.628   8.311   4.650
29490W        W99305  20.146   5.754  13.432
29491W        W99306  29.999  41.004   0.417
29492W        W99307   7.912  12.819   0.378
29493W        W99308   9.820  16.669   3.849
29494W        W99309  12.735  38.369  10.621
29495W        W99310  37.047  33.012  10.149
29496W        W99311  42.936  13.326  11.971
29497W        W99312  11.830  10.348  14.967
29498W        W99313  11.214   8.238   0.738
29499W        W99314   8.359  15.618  13.032
29500W        W99315  40.990  10.671   4.807
29501W        W99316  28.669  35.377  12.837
29502W        W99317  16.173  29.972   0.379
29503W        W99318   2.822  13.639  11.575
29504W        W99319   3.932  13.613   0.325
29505W        W99320  43.369   0.870   4.750
29506W        W99321  15.255  12.312   2.898
29507W        W99322   6.825  44.322  10.543
29508W        W99323  15.111  44.757   1.877
29509W        W99324  44.364   0.438   4.119
29510W        W99325  43.275   8.868   4.826
29511W        W99326  40.404  20.097   3.821
29512W        W99327  15.086  25.102  13.818
29513W        W99328   9.844   2.304   3.669
29514W        W99329   2.727  23.632   4.308
29515W        W99330  29.432   2.900   0.817
29516W        W99331  17.118  31.939  11.478
29517W        W99332  10.284  37.991  10.480
29518W        W99333  34.612  20.695   2.845
29519W        W99334  36.094   4.861   0.764
29520W        W99335  43.407  23.006   3.270
29521W        W99336  32.572  11.314  13.397
29522W        W99337   0.479   1.386   2.876
29523W        W99338  11.209  18.610  14.497
29524W        W99339   2.261  44.385   4.791
29525W        W99340  34.895  27.096   4.275
29526W        W99341  40.529  23.628   2.782
29527W        W99342  16.233  36.411  12.967
29528W        W99343  19.629   2.333   4.817
29529W        W99344  28.033   9.308  14.879
29530W        W99345  32.969  12.182  12.066
29531W        W99346   3.368  40.004   2.878
29532W        W99347   8.811  34.114  12.840
29533W        W99348  31.905  18.677  13.360
29534W        W99349  42.985  41.309  14.367
29535W        W99350  27.144  34.523   2.358
29536W        W99351   3.422   1.897  11.388
29537W        W99352  19.237  18.228   0.257
29538W        W99353  34.022  32.514  14.284
29539W        W99354  23.992  38.976   3.368
29540W        W99355  40.022  27.066  13.818
29541W        W99356   7.238  34.008   4.202
29542W        W99357  16.804  25.506   3.353
29543W        W99358  44.348  36.433  10.906
29544W        W99359  15.678   8.255   4.132
29545W        W99360  36.074   9.816   0.310
29546W        W99361  30.453  34.050  12.917
29547W        W99362   5.306  31.935   2.234
29548W        W99363  34.921  38.858   0.881
29549W        W99364   8.804  36.905  14.279
29550W        W99365   5.886  40.928   3.284
29551W        W99366  27.963  12.672  14.325
29552W        W99367  32.038  30.491   0.359
29553W        W99368   4.789  26.658   5.084
29554W        W99369   4.780  18.755   1.820
29555W        W99370  25.212   0.440  10.452
29556W        W99371  43.510  36.079   1.763
29557W        W99372  13.203  16.611  14.516
29558W        W99373  43.980   7.737   4.263
29559W        W99374  34.897   8.789  11.435
29560W        W99375  38.910   6.189  14.801
29561W        W99376  40.323  25.143   3.290
29562W        W99377  29.995   0.830  14.883
29563W        W99378  39.424  24.514   3.199
29564W        W99379  10.230  17.254  13.330
29565W        W99380  44.285  43.511  14.466
29566W        W99381   1.850   5.706   0.813
29567W        W99382  15.715  44.273   3.301
29568W        W99383  25.045  21.582   2.777
29569W        W99384  22.127  27.131  13.463
29570W        W99385   1.955  42.337   4.797
29571W        W99386  29.124  43.477   2.218
29572W        W99387  18.741   6.888   0.913
29573W        W99388   9.688  39.891   5.220
29574W        W99389   0.919  12.343  11.974
29575W        W99390   2.880   4.831   0.877
29576W        W99391   2.913  24.014  11.438
29577W        W99392  42.958  33.874  13.437
29578W        W99393   4.910  15.798   4.646
29579W        W99394  10.319  31.570   3.668
29580W        W99395  31.062  23.526  14.275
29581W        W99396  38.461  35.498  12.925
29582W        W99397  26.987  16.247  13.535
29583W        W99398  26.595   3.796   3.666
29584W        W99399   9.242  24.178   4.761
29585W        W99400  14.676   1.916   1.347
29586W        W99401  11.812  43.879  14.853
29587W        W99402  28.028   0.765  11.605
29588W        W99403  13.725  43.500   3.186
29589W        W99404  37.883  13.680   2.753
29590W        W99405   5.895  31.625   3.635
29591W        W99406  43.832  10.247   1.310
29592W        W99407   1.406   0.299   2.208
29593W        W99408  44.999  36.580   3.199
29594W        W99409  25.062   8.897   0.302
29595W        W99410  13.179   7.228   1.795
29596W        W99411   3.757  41.876  13.895
29597W        W99412  42.357  12.141  13.514
29598W        W99413  15.653  19.695   3.691
29599W        W99414  40.850  17.122  12.042
29600W        W99415  36.075   3.757   2.700
29601W        W99416  27.156   9.377  11.880
29602W        W99417  23.068   5.370   2.217
29603W        W99418  18.228   2.824   2.364
29604W        W99419   2.771  40.956  13.349
29605W        W99420  14.629  21.585  13.321
29606W        W99421  32.633  12.118   4.618
29607W        W99422  24.071  33.119  12.021
29608W        W99423  31.501  14.657  10.476
29609W        W99424  42.474  20.047  11.925
29610W        W99425  40.384  17.085   4.169
29611W        W99426  25.118  16.203  14.942
29612W        W99427   9.801  30.966   4.713
29613W        W99428   5.291   4.780  11.995
29614W        W99429   8.863  35.405   4.782
29615W        W99430  13.150   7.742  12.892
29616W        W99431   5.401   9.326  13.990
29617W        W99432  16.252  20.163   3.685
29618W        W99433  12.806   9.371   2.220
29619W        W99434  29.076   6.716   3.283
29620W        W99435  37.552  28.931   4.223
29621W        W99436  28.604  43.331  14.839
29622W        W99437  39.482  41.000  14.304
29623W        W99438  16.742  39.365   4.621
29624W        W99439  17.256  22.549   4.201
29625W        W99440  35.446  40.513   3.319
29626W        W99441  17.765  27.592  13.974
29627W        W99442  18.159  24.680   3.644
29628W        W99443   4.345  27.187   2.686
29629W        W99444   8.784   8.814   3.850
29630W        W99445  26.124  14.697   4.169
29631W        W99446  27.194  38.861   2.259
29632W        W99447   4.840  43.412  14.007
29633W        W99448  21.634  36.436  14.446
29634W        W99449  17.205   9.303  11.087
29635W        W99450  14.725   6.885  13.856
29636W        W99451   0.750  19.537   4.769
29637W        W99452   4.779  32.474   4.275
29638W        W99453  13.340  11.137   1.383
29639W        W99454   9.223  22.690   1.423
29640W        W99455  38.461  28.024   3.314
29641W        W99456  17.170  21.082  14.377
29642W        W99457  24.649  29.164   3.814
29643W        W99458  31.490  17.788   3.742
29644W        W99459  27.045  15.186  13.796
29645W        W99460   1.429  28.494  11.930
29646W        W99461   6.704  32.987   0.799
29647W        W99462  39.834  10.157  13.540
29648W        W99463  28.621  11.645  13.829
29649W        W99464  20.063  19.697  14.005
29650W        W99465  17.755  13.167   1.765
29651W        W99466  21.250   8.219  12.002
29652W        W99467  29.016  41.465   2.683
29653W        W99468  38.904  27.057   3.658
29654W        W99469  41.864  23.072  11.964
29655W        W99470   3.725   0.875   4.254
29656W        W99471  23.213   6.272  11.904
29657W        W99472   7.328  19.078   3.725
29658W        W99473  37.537  30.651   4.641
29659W        W99474  40.446  10.659   4.267
29660W        W99475  12.193  32.622   2.752
29661W        W99476  34.017  35.937   4.326
29662W        W99477  26.568  41.988   0.286
29663W        W99478   3.891  36.857  12.441
29664W        W99479   9.867  17.716   2.249
29665W        W99480  41.316   0.262   4.773
29666W        W99481  38.955  40.879   2.775
29667W        W99482  43.957  37.990   1.776
29668W        W99483  43.891  31.146   1.903
29669W        W99484  20.256  26.099  14.395
29670W        W99485  34.527  41.024   4.298
29671W        W99486   3.726   9.362   4.142
29672W        W99487   9.774  20.145   1.710
29673W        W99488   3.216   0.831   3.171
29674W        W99489  14.774  42.013  14.928
29675W        W99490   2.437   4.910  10.081
29676W        W99491  13.662   1.309  14.403
29677W        W99492  24.651  23.228   2.251
29678W        W99493  23.176   8.710  14.349
29679W        W99494   2.385  31.105   4.637
29680W        W99495   7.900   8.354  11.075
29681W        W99496  33.905  14.742  11.552
29682W        W99497  39.832  39.060  10.440
29683W        W99498   2.377  18.560   0.371
29684W        W99499  11.714  25.069   0.778
29685W        W99500  26.627  10.269   4.275
29686W        W99501  18.281  36.978   3.698
29687W        W99502  30.451   0.785   2.671
29688W        W99503   4.910  17.111  13.535
29689W        W99504  25.135   8.695  13.896
29690W        W99505  19.041  19.184   2.745
29691W        W99506  13.123   2.390   0.483
29692W        W99507  40.501   7.697   1.709
29693W        W99508  36.869  22.617  12.847
29694W        W99509  35.523  40.012   2.863
29695W        W99510  42.804  35.889   0.306
29696W        W99511  20.230  27.460  11.893
29697W        W99512  26.468   8.194  12.523
29698W        W99513  39.866  42.413  12.360
29699W        W99514   3.762  34.027  11.962
29700W        W99515  25.986  16.810   2.183
29701W        W99516  16.701  24.084   0.358
29702W        W99517  20.136  42.019   2.665
29703W        W99518  32.494   4.219   2.730
29704W        W99519   9.338  41.031   0.832
29705W        W99520  11.259  23.082  12.835
29706W        W99521  22.527  25.043   4.621
29707W        W99522  19.185  44.465  10.013
29708W        W99523   7.699  42.282   1.417
29709W        W99524   6.723  43.319   1.823
29710W        W99525  23.621  39.827   0.935
29711W        W99526  28.056  28.538   4.201
29712W        W99527  42.780  38.927  12.364
29713W        W99528  15.259  21.154   2.701
29714W        W99529  17.263  11.864   4.123
29715W        W99530  44.837  23.652  11.862
29716W        W99531  25.099   9.886   1.262
29717W        W99532  12.335  17.135   4.679
29718W        W99533  26.201  41.527   0.897
29719W        W99534  38.873  37.019  14.960
29720W        W99535  12.176  26.591   3.663
29721W        W99536  15.175   9.667   1.321
29722W        W99537  19.256   5.700   1.406
29723W        W99538  16.615  20.273   3.291
29724W        W99539   6.258  40.351   1.269
29725W        W99540  19.154   4.266  14.914
29726W        W99541   5.436  23.578  13.430
29727W        W99542  25.669   6.756  14.462
29728W        W99543   9.733  19.212  11.985
29729W        W99544  40.499  25.620   0.456
29730W        W99545  13.189  13.252   4.674
29731W        W99546  15.647  18.233   0.950
29732W        W99547   9.226  10.701   3.673
29733W        W99548  25.606  32.935   1.445
29734W        W99549  38.027   2.336   3.831
29735W        W99550  16.288  37.336  11.955
29736W        W99551  23.046  34.520   3.725
29737W        W99552  37.536  17.067  13.470
29738W        W99553  12.615  29.918   1.371
29739W        W99554  34.532  30.972   1.867
29740W        W99555  10.814  40.880  11.500
29741W        W99556  39.930   0.797  13.527
29742W        W99557  41.379  33.390  14.429
29743W        W99558  19.266  28.084  13.961
29744W        W99559   4.826  19.598   0.457
29745W        W99560   8.833  35.951  14.986
29746W        W99561   4.356  28.491   3.791
29747W        W99562  22.654  16.748   5.721
29748W        W99563  10.647   6.184   1.709
29749W        W99564  37.411  12.838   2.859
29750W        W99565   3.401  31.995   5.169
29751W        W99566  24.545  38.557   2.789
29752W        W99567   6.419  44.959  13.890
29753W        W99568  36.056  35.579   2.207
29754W        W99569  37.872  11.325   2.890
29755W        W99570   7.785  37.028  14.950
29756W        W99571  19.693  37.360   2.791
29757W        W99572   3.259  35.439  13.022
29758W        W99573  11.343  17.676   9.962
29759W        W99574  12.696  29.982   0.290
29760W        W99575  28.976   9.380  13.415
29761W        W99576  41.511  20.071   0.346
29762W        W99577  34.512  38.412  11.531
29763W        W99578  17.678  16.641   4.721
29764W        W99579  21.040  42.921   4.212
29765W        W99580   8.749  25.146   4.621
29766W        W99581   6.292  13.625  13.360
29767W        W99582  28.162  10.155  11.416
29768W        W99583  41.412  35.877  13.532
29769W        W99584   6.683  29.077  12.429
29770W        W99585  42.849  39.334  10.549
29771W        W99586  43.833  37.504   4.174
29772W        W99587  36.976  42.356   1.847
29773W        W99588   3.350   5.821   0.735
29774W        W99589   4.879  11.283   9.949
29775W        W99590  13.749  12.358  13.512
29776W        W99591  35.902  25.595   1.339
29777W        W99592  43.480   7.341   2.762
29778W        W99593  31.977  36.967   4.314
29779W        W99594  13.786  18.096  14.822
29780W        W99595  25.605  44.876  14.493
29781W        W99596  13.812   5.231   4.732
29782W        W99597  10.269  36.911   4.765
29783W        W99598  35.430  35.521  10.463
29784W        W99599  43.882  12.299  12.521
29785W        W99600   3.838  39.536   4.647
29786W        W99601  18.678  40.313   0.464
29787W        W99602   5.267  22.123  11.883
29788W        W99603  13.218   7.351   4.252
29789W        W99604  14.767   1.282   0.755
29790W        W99605  23.514  13.243   2.199
29791W        W99606  24.715  23.686   3.765
29792W        W99607  29.548  27.948  14.296
29793W        W99608  20.577  39.388   2.340
29794W        W99609  17.087  19.571  11.415
29795W        W99610  40.469  38.073  12.959
29796W        W99611   4.735   6.890   1.769
29797W        W99612  37.073  29.044  12.055
29798W        W99613  37.430  32.075   2.775
29799W        W99614  23.022  26.961  12.962
29800W        W99615  39.526  42.394  12.034
29801W        W99616   7.285  38.484  14.791
29802W        W99617  23.525  10.683  11.950
29803W        W99618   8.186  32.587  13.541
29804W        W99619  24.621  16.786   4.710
29805W        W99620  13.676  38.420  10.970
29806W        W99621  27.127  24.622   0.472
29807W        W99622  14.241  32.552   3.718
29808W        W99623  44.994  34.377   1.302
29809W        W99624   0.317  29.165  13.014
29810W        W99625  17.200   6.183  14.860
29811W        W99626  34.979  32.552  10.154
29812W        W99627  13.697  14.614   4.185
29813W        W99628  23.025  13.193   3.153
29814W        W99629   1.788  27.163   0.809
29815W        W99630  42.925  25.066   2.784
29816W        W99631  14.702  11.656  14.775
29817W        W99632   5.294   8.672   2.678
29818W        W99633  32.395  11.310  12.938
29819W        W99634   6.811  44.815   4.648
29820W        W99635  22.634   2.785   3.171
29821W        W99636  27.492  43.291   4.327
29822W        W99637  31.572  36.470  12.012
29823W        W99638  32.039  43.022   1.229
29824W        W99639  27.574  28.544   0.844
29825W        W99640  44.393  32.430  10.999
29826W        W99641  43.482  40.423   3.858
29827W        W99642  25.064  13.661  13.315
29828W        W99643   3.332  43.867   3.222
29829W        W99644  12.652  34.029   2.674
29830W        W99645  11.341  32.127  14.370
29831W        W99646  38.920   8.696   1.390
29832W        W99647  43.994   3.928  12.489
29833W        W99648  34.098  23.678   1.852
29834W        W99649  29.438  25.052  14.962
29835W        W99650   9.316  33.561  12.358
29836W        W99651  13.203  28.949  12.555
29837W        W99652  11.786  39.462  10.533
29838W        W99653  16.600   8.187   1.226
29839W        W99654  17.281   2.464   0.242
29840W        W99655  39.334   2.928  11.085
29841W        W99656  18.075   7.847   4.760
29842W        W99657  10.196  13.758   2.736
29843W        W99658  18.703  16.691  13.360
29844W        W99659   5.800   4.420  11.884
29845W        W99660  29.006  25.203  11.525
29846W        W99661  13.785  39.351  14.306
29847W        W99662   7.235  42.026   2.750
29848W        W99663  19.160  37.943   1.321
29849W        W99664  19.662  19.118   4.768
29850W        W99665  17.065  30.609  10.889
29851W        W99666  24.500   9.858   4.598
29852W        W99667  28.174  25.617  10.999
29853W        W99668  14.668  12.142  13.425
29854W        W99669   0.786   8.296  14.932
29855W        W99670  11.841  30.117   1.213
29856W        W99671  18.100  44.008   4.815
29857W        W99672  42.345   2.298   1.357
29858W        W99673  14.240  12.776   2.856
29859W        W99674   7.259  43.270  12.419
29860W        W99675  18.236   9.201   0.419
29861W        W99676  28.670  31.141   2.180
29862W        W99677  34.474  33.604   5.804
29863W        W99678  17.604  22.670  12.339
29864W        W99679  29.503  19.551   1.784
29865W        W99680  14.627  27.505  12.037
29866W        W99681  27.150   7.846  14.976
29867W        W99682  22.050  31.606  13.994
29868W        W99683  20.254  26.560   2.283
29869W        W99684   0.898   4.224  13.478
29870W        W99685   5.246  44.440   1.833
29871W        W99686   4.374  22.616   3.157
29872W        W99687  13.234  25.604   2.896
29873W        W99688  19.721   0.846  13.014
29874W        W99689  43.937  20.142   0.343
29875W        W99690  43.360  20.599   4.312
29876W        W99691   1.940  21.066  10.420
29877W        W99692  27.496  14.290   2.884
29878W        W99693  35.534  36.911   1.415
29879W        W99694  27.603  33.472  14.831
29880W        W99695   2.839   6.863  13.843
29881W        W99696  15.111  17.776  11.479
29882W        W99697   7.726  25.625   2.346
29883W        W99698  44.765   1.972  11.058
29884W        W99699  27.975  29.446   3.171
29885W        W99700  14.247  30.989  13.395
29886W        W99701  41.531  27.666  10.496
29887W        W99702  18.088  38.362   0.347
29888W        W99703  42.453  28.657  14.352
29889W        W99704  18.773   6.785   2.818
29890W        W99705  29.147  10.156  14.830
29891W        W99706  20.526  29.512  12.088
29892W        W99707  41.950  43.508   1.252
29893W        W99708  38.353  32.114   4.192
29894W        W99709  35.475  33.954  12.987
29895W        W99710  37.872  10.186  10.955
29896W        W99711  38.835  17.178  11.428
29897W        W99712   4.854  32.105  10.993
29898W        W99713  31.916  22.047   2.780
29899W        W99714  15.741  17.558   4.753
29900W        W99715  24.503  23.099   4.825
29901W        W99716  28.513  35.036   3.339
29902W        W99717  40.394  13.696  12.942
29903W        W99718  39.906   1.849   9.573
29904W        W99719  14.247  14.795   1.437
29905W        W99720  22.526   7.786   3.653
29906W        W99721  36.459   4.878   1.865
29907W        W99722  35.098  31.619   1.702
29908W        W99723  10.220  20.033   3.182
29909W        W99724  41.795  23.211  13.454
29910W        W99725  18.099  29.976  11.418
29911W        W99726   2.284  34.879  10.923
29912W        W99727  18.776  39.553  14.826
29913W        W99728  23.116  38.887   1.804
29914W        W99729  25.990  19.630   0.748
29915W        W99730  41.312  14.677   2.718
29916W        W99731  24.002  19.217   1.854
29917W        W99732  18.244  25.637   2.364
29918W        W99733  14.172  11.658   2.764
29919W        W99734  23.984  16.198   1.879
29920W        W99735  13.610   7.814  10.460
29921W        W99736  36.967   3.378   4.165
29922W        W99737  44.460  23.566   1.927
29923W        W99738  34.067   2.447   4.269
29924W        W99739  35.886  23.542  12.386
29925W        W99740  19.093  15.622   3.836
29926W        W99741  27.133  11.710   4.715
29927W        W99742  35.075  25.162  12.454
29928W        W99743   4.895  23.089   0.376
29929W        W99744  10.648   9.186   2.227
29930W        W99745  12.253   3.942   1.372
29931W        W99746  25.162  20.637   3.279
29932W        W99747  13.771  31.953  10.633
29933W        W99748  10.229  22.705   0.391
29934W        W99749  27.483   7.370  11.570
29935W        W99750  17.580  26.615  13.848
29936W        W99751  10.222  43.803  14.352
29937W        W99752  28.023  27.023   3.306
29938W        W99753  43.800  23.642   4.137
29939W        W99754  29.564  10.725  12.919
29940W        W99755  13.716  13.796  14.908
29941W        W99756  25.159  18.644  12.547
29942W        W99757  34.114   7.687   1.736
29943W        W99758  25.622  23.547   4.228
29944W        W99759   7.816  12.254   0.862
29945W        W99760  19.202  24.484  10.994
29946W        W99761  12.700  25.595   1.216
29947W        W99762  26.482  22.587  11.544
29948W        W99763  35.479  36.486  10.547
29949W        W99764  16.673   2.255   1.790
29950W        W99765   6.412  27.586   4.791
29951W        W99766  20.726  13.311   1.425
29952W        W99767  31.948  37.001   0.963
29953W        W99768  30.953  22.532  11.971
29954W        W99769   1.880  31.068  13.869
29955W        W99770  14.329  33.519   0.316
29956W        W99771  24.138  28.987  13.448
29957W        W99772  44.462  44.396   3.866
29958W        W99773   8.209  18.656   0.746
29959W        W99774  43.771  21.609   3.690
29960W        W99775  20.727  24.513   0.299
29961W        W99776   9.193  34.076  12.399
29962W        W99777  21.226  31.057   0.364
29963W        W99778  14.315  26.568   4.253
29964W        W99779  43.503  26.090  11.427
29965W        W99780  32.927  13.820   2.207
29966W        W99781   6.244  11.201   2.818
29967W        W99782  32.043   9.753   3.302
29968W        W99783   4.872  42.292  14.022
29969W        W99784  28.492  42.867  11.004
29970W        W99785  40.345  40.018  10.142
29971W        W99786  31.447  15.280   2.763
29972W        W99787   4.773  13.618   0.279
29973W        W99788   6.289  12.759   2.338
29974W        W99789  43.290  34.592  12.964
29975W        W99790  20.263   8.802  13.888
29976W        W99791  34.542  32.019  13.896
29977W        W99792  18.157   5.832  14.889
29978W        W99793   9.812  17.776  10.925
29979W        W99794   7.213  41.489  13.990
29980W        W99795  39.962  13.778   3.843
29981W        W99796   1.417   7.360   4.801
29982W        W99797  17.766  14.695  12.077
29983W        W99798  36.491   0.935   3.146
29984W        W99799  12.143  33.029   0.294
29985W        W99800  24.988  29.442   0.386
29986W        W99801  19.709  42.442  13.013
29987W        W99802  34.388  23.689   4.178
29988W        W99803  13.228   4.284  13.868
29989W        W99804  27.468  11.222  12.361
29990W        W99805  42.949   6.406   5.153
29991W        W99806   0.340  20.756   3.756
29992W        W99807  20.754  21.054   9.998
29993W        W99808  23.063  30.625  11.427
29994W        W99809  35.879  37.491   0.364
29995W        W99810  29.094  24.126  12.946
29996W        W99811  42.827  38.436  13.352
29997W        W99812  26.629  33.876   1.764
29998W        W99813  26.000   8.794  10.892
29999W        W99814  19.692  22.505   2.746
30000W        W99815  21.187  26.051   2.813
30001W        W99816  24.145  25.581  11.073
30002W        W99817  24.084   9.373  13.447
30003W        W99818  19.264  31.041   2.710
30004W        W99819   0.860  25.601   1.788
30005W        W99820   9.359  40.447  10.945
30006W        W99821   8.671  34.378   2.261
30007W        W99822  10.740   5.363   3.196
30008W        W99823  23.098   9.662   3.672
30009W        W99824  18.564  32.434   4.621
30010W        W99825   2.468  30.968   3.732
30011W        W99826   5.222  31.149  10.539
30012W        W99827  32.587  10.794  10.596
30013W        W99828  20.235   4.269  14.280
30014W        W99829   4.834  13.198  14.992
30015W        W99830  44.273  31.641  11.014
30016W        W99831   1.826  30.481  12.833
30017W        W99832   2.937  32.094  13.506
30018W        W99833   8.668  24.024  13.981
30019W        W99834  43.939  28.451   3.192
30020W        W99835  19.725  13.293   3.318
30021W        W99836  33.600   1.797   1.815
30022W        W99837  20.171  20.040   0.730
30023W        W99838  17.581  15.222   0.740
30024W        W99839  12.302  35.073  14.457
30025W        W99840  36.372  29.508   0.409
30026W        W99841  44.488  16.732   0.379
30027W        W99842   5.920  27.950   2.356
30028W        W99843  26.077   3.374  13.330
30029W        W99844  16.663  16.693   1.359
30030W        W99845  18.704  25.017   3.346
30031W        W99846   9.882   2.237   3.295
30032W        W99847  12.287  41.815   0.344
30033W        W99848  33.527  16.310   3.248
30034W        W99849  15.709   2.275   3.868
30035W        W99850   2.947  33.874   1.819
30036W        W99851   5.283  36.027  12.343
30037W        W99852  16.097  30.031  11.472
30038W        W99853   2.880  22.146  14.348
30039W        W99854  11.348  14.770  13.521
30040W        W99855  17.713  18.666  13.917
30041W        W99856  20.624   5.760   0.363
30042W        W99857   9.180  27.585  14.426
30043W        W99858  32.954  37.043   3.673
30044W        W99859  15.199  40.887   2.274
30045W        W99860  29.512   3.271  12.062
30046W        W99861   0.333  19.656  10.598
30047W        W99862  41.302  31.505  11.061
30048W        W99863  41.810  10.194  12.941
30049W        W99864  14.219  15.772  10.567
30050W        W99865  18.286  17.131  13.855
30051W        W99866  34.584   5.898  11.477
30052W        W99867  30.058   4.249  10.536
30053W        W99868  39.911  31.488  13.019
30054W        W99869  36.478   9.387  11.394
30055W        W99870   6.290  35.504   2.768
30056W        W99871   9.733  26.622   2.377
30057W        W99872  33.957  42.849   1.808
30058W        W99873  44.004  13.760  12.077
30059W        W99874  27.645   5.929  12.995
30060W        W99875  37.354  34.408   3.227
30061W        W99876  21.515   4.747   3.264
30062W        W99877   1.964   6.835   2.665
30063W        W99878  41.860   4.870   0.847
30064W        W99879  32.052   4.700   4.300
30065W        W99880  15.784  20.186  12.455
30066W        W99881   2.871  26.045  11.856
30067W        W99882  30.004   7.350   2.337
30068W        W99883  39.461  14.121  10.518
30069W        W99884   7.910   9.763   3.690
30070W        W99885  43.820  38.038   3.184
30071W        W99886  39.042  10.220   4.806
30072W        W99887  28.970  42.984   2.290
30073W        W99888   5.865  34.370  11.601
30074W        W99889   7.838   3.837  11.011
30075W        W99890  18.101  28.455  13.332
30076W        W99891  24.998   4.444   0.910
30077W        W99892  37.557  22.229   2.376
30078W        W99893  42.887  38.966  14.841
30079W        W99894   8.208  28.115  12.934
30080W        W99895  36.054  42.444  10.438
30081W        W99896   2.789  24.084  12.021
30082W        W99897   9.776  20.565   3.788
30083W        W99898  23.985  43.393   3.381
30084W        W99899  25.100  11.801  10.109
30085W        W99900   4.431   0.341   0.341
30086W        W99901  20.183  28.155   4.783
30087W        W99902  43.978  23.631   4.794
30088W        W99903  39.062  19.110   1.261
30089W        W99904  39.459  43.861   4.758
30090W        W99905  19.645  43.399   3.204
30091W        W99906  36.920  19.549  13.419
30092W        W99907  34.866  41.526  10.614
30093W        W99908  20.739   7.756  11.032
30094W        W99909  44.966  29.647   2.415
30095W        W99910  18.182  10.663  11.468
30096W        W99911  40.366  10.178   3.160
30097W        W99912  12.217  40.452   1.874
30098W        W99913  26.998  23.086   3.242
30099W        W99914  41.969   9.766  14.798
30100W        W99915   6.273   5.262  14.500
30101W        W99916  39.877  20.660  11.558
30102W        W99917   4.376   6.708   1.753
30103W        W99918  42.450   2.461   4.827
30104W        W99919  39.329  29.545  14.290
30105W        W99920  12.760   7.268   1.918
30106W        W99921  41.456  33.528  12.077
30107W        W99922  10.274  36.511   2.805
30108W        W99923  11.366   7.212  10.443
30109W        W99924  35.531  30.041  11.902
30110W        W99925   8.724  16.643  11.940
30111W        W99926  43.906   0.964   4.343
30112W        W99927  34.051  21.250   4.139
30113W        W99928  17.155  35.535   2.735
30114W        W99929  16.779   6.366  13.871
30115W        W99930  34.886  32.500   4.262
30116W        W99931  37.047   3.799   3.330
30117W        W99932  27.098   3.417  10.537
30118W        W99933  29.937   1.787  12.555
30119W        W99934   4.366  42.443  13.527
30120W        W99935  42.810   6.715   3.828
30121W        W99936  28.032   1.394   0.426
30122W        W99937  11.753  18.050  13.957
30123W        W99938  12.314  18.187   3.768
30124W        W99939  28.986  14.113  14.910
30125W        W99940   5.923  37.014  10.955
30126W        W99941  40.941  15.609  13.925
30127W        W99942  28.174   4.393  12.450
30128W        W99943  16.298  16.645  10.439
30129W        W99944  15.724  36.466   1.762
30130W        W99945  33.917  42.893  13.820
30131W        W99946  14.331  36.540   4.781
30132W        W99947  25.642  41.292   3.714
30133W        W99948  25.217  33.439  13.795
30134W        W99949  22.179  31.553  13.365
30135W        W99950  27.941  14.340  10.956
30136W        W99951  40.370  27.066  12.848
30137W        W99952  25.499   0.270  12.482
30138W        W99953  27.188  18.680  13.849
30139W        W99954  35.872  26.559  11.564
30140W        W99955   6.209  16.111   0.831
30141W        W99956   4.419  10.165  10.556
30142W        W99957   7.214  28.436  12.970
30143W        W99958   3.376  40.528   0.738
30144W        W99959   7.377  17.699  10.464
30145W        W99960  25.115   7.681  11.397
30146W        W99961   9.673  27.022   4.187
30147W        W99962  37.917  32.504   1.226
30148W        W99963  41.826  40.848  10.590
30149W        W99964   9.228  37.503   4.261
30150W        W99965  17.790  27.988   9.966
30151W        W99966  28.106   4.909  10.958
30152W        W99967  38.871  24.080  11.870
30153W        W99968  29.960   4.375  14.948
30154W        W99969  40.488  18.161   0.916
30155W        W99970  17.692  14.201   0.373
30156W        W99971  30.620  19.256  14.027
30157W        W99972   0.320  36.374  14.426
30158W        W99973  16.138  12.694   4.183
30159W        W99974  34.891  43.865   4.738
30160W        W99975  33.959  40.967   1.827
30161W        W99976  13.724  21.649   0.444
30162W        W99977  22.629  26.988  10.428
30163W        W99978  19.763  13.836   2.376
30164W        W99979  35.023   6.679   1.368
30165W        W99980  28.169  35.981   3.850
30166W        W99981  36.853  33.500   4.272
30167W        W99982   0.388  40.506  14.802
30168W        W99983  30.421  18.706  11.005
30169W        W99984  42.814  42.461   1.887
30170W        W99985   5.215   1.483   4.279
30171W        W99986   2.843   5.872  11.574
30172W        W99987  40.471  26.952   3.176
30173W        W99988  27.010  34.061  12.434
30174W        W99989  29.641  23.543  10.412
30175W        W99990  17.276  36.562  13.793
30176W        W99991   6.878   2.888  14.901
30177W        W99992  40.800   3.854  13.947
30178W        W99993  21.212  36.996   2.418
30179W        W99994  20.757   8.174  11.497
30180W        W99995  20.219  27.667   2.695
30181W        W99996  21.651  30.467  14.389
30182W        W99997  18.114   5.382   1.273
30183W        W99998  36.583  34.884  12.461
30184W        W99999  44.950  35.879   2.818
30185W        W    0  28.163  16.609  12.883
30186W        W    1  19.060  44.415  13.486
30187W        W    2  31.058  25.112  10.103
30188W        W    3  10.660  35.921  13.373
30189W        W    4  26.975  43.382   2.396
30190W        W    5  16.168   6.851  10.970
30191W        W    6   1.426  29.934  13.987
30192W        W    7  39.962  13.617  12.920
30193W        W    8   5.763  34.116  10.914
30194W        W    9  43.412   6.185   4.759
30195W        W   10  22.177  25.126   1.285
30196W        W   11  11.320  38.849   0.309
30197W        W   12  14.197  16.748  14.354
30198W        W   13  36.539  11.129  14.968
30199W        W   14   3.450  39.374  11.978
30200W        W   15   3.430  29.943   4.158
30201W        W   16   2.782  28.101  11.878
30202W        W   17  22.240  20.677  12.033
30203W        W   18  39.840  41.021   2.188
30204W        W   19  20.708  21.167   2.871
30205W        W   20  39.948  26.020   1.403
30206W        W   21   4.736  16.789   3.735
30207W        W   22  27.511   4.914  13.009
30208W        W   23  36.897   6.264  11.401
30209W        W   24  32.054  22.215  14.029
30210W        W   25   4.860  15.624   1.754
30211W        W   26  40.357  16.282   2.825
30212W        W   27  26.624  34.580  10.490
30213W        W   28  30.116   0.253   2.784
30214W        W   29   8.289  11.282  10.434
30215W        W   30  39.818  16.146  11.438
30216W        W   31  25.029  40.454   0.900
30217W        W   32  35.472  14.749   0.306
30218W        W   33  19.748  37.052  12.438
30219W        W   34   6.762  36.063   4.206
30220W        W   35  26.508  18.656   1.805
30221W        W   36  41.338  30.466   0.350
30222W        W   37   6.683  30.465   1.791
30223W        W   38  13.245  12.352  13.891
30224W        W   39  16.744  29.949  13.921
30225W        W   40  38.852   4.867  11.523
30226W        W   41  14.810  22.561   2.839
30227W        W   42   8.289   4.794  13.320
30228W        W   43  35.589  23.541  13.883
30229W        W   44  26.694  28.457   1.347
30230W        W   45  36.972  25.058   3.785
30231W        W   46  43.009  19.629   1.439
30232W        W   47   5.779  44.985  10.499
30233W        W   48  22.647  19.615  14.916
30234W        W   49  38.929  29.983  13.041
30235W        W   50  22.662  23.189  13.863
30236W        W   51  34.946  33.547  11.064
30237W        W   52  38.570  12.327  12.427
30238W        W   53  15.151  21.749   0.284
30239W        W   54  21.203  40.979   0.385
30240W        W   55   3.313   1.474   3.319
30241W        W   56  36.511  36.943   3.821
30242W        W   57   2.766  28.490  11.548
30243W        W   58  38.461  24.652  10.614
30244W        W   59   1.444  11.286  12.960
30245W        W   60  27.669  43.375   0.923
30246W        W   61  17.704  30.545   1.752
30247W        W   62  25.689   4.772   2.716
30248W        W   63   8.811  34.889   2.795
30249W        W   64   9.866  29.044   1.781
30250W        W   65  43.926  28.629   1.899
30251W        W   66  34.945  23.008  11.447
30252W        W   67  35.869  12.713   0.953
30253W        W   68  11.208  41.886  14.811
30254W        W   69  22.717  27.545  11.035
30255W        W   70  33.570  33.013   3.211
30256W        W   71   6.813  28.659   1.771
30257W        W   72  18.243  31.555  11.965
30258W        W   73  17.238  37.834   0.753
30259W        W   74  13.308  13.833  14.960
30260W        W   75  18.696   1.442  13.819
30261W        W   76  36.473   6.407  14.899
30262W        W   77   6.428  10.190  13.901
30263W        W   78  20.206  11.219  11.489
30264W        W   79  33.127  44.894   4.762
30265W        W   80  30.471  42.370   0.277
30266W        W   81  23.998  27.566   4.771
30267W        W   82  40.866  39.900   1.349
30268W        W   83  34.496  11.646   4.742
30269W        W   84  26.952  25.962   2.288
30270W        W   85   7.886  11.636   2.307
30271W        W   86  25.074  37.008  14.816
30272W        W   87  34.075  22.096   4.636
30273W        W   88  32.934  36.956   0.458
30274W        W   89  22.560  10.816   4.158
30275W        W   90  10.239   8.284   4.639
30276W        W   91  39.553   9.675  12.410
30277W        W   92  25.681  36.448   3.148
30278W        W   93  42.839  41.534  13.901
30279W        W   94  35.473  17.276  13.876
30280W        W   95   7.734  24.705   3.278
30281W        W   96  30.003  38.916   4.665
30282W        W   97   0.484  17.228  13.969
30283W        W   98  32.943  29.437   4.748
30284W        W   99  25.056  42.918  11.473
30285W        W  100  31.430  11.655  14.372
30286W        W  101   3.450   9.833   3.320
30287W        W  102  43.465  15.701  12.367
30288W        W  103  35.360  23.160  13.052
30289W        W  104  12.823  33.890  11.582
30290W        W  105  33.554  42.358   1.753
30291W        W  106  26.968   9.365   1.324
30292W        W  107  27.080  24.685   4.644
30293W        W  108   5.271  44.770  14.822
30294W        W  109  36.515   8.752  10.017
30295W        W  110  31.448  32.612  11.461
30296W        W  111  28.134  36.064  13.307
30297W        W  112   7.324  35.387  10.469
30298W        W  113  22.640   9.277  14.014
30299W        W  114  11.718  43.469   1.254
30300W        W  115   6.391   0.290   3.768
30301W        W  116   7.697  34.442   1.393
30302W        W  117  11.302  22.608   3.239
30303W        W  118  24.204  27.656   4.237
30304W        W  119  40.950  34.912   2.406
30305W        W  120  17.116  39.463   1.920
30306W        W  121  30.085  26.647   1.931
30307W        W  122  38.990  23.598  11.608
30308W        W  123  23.198   3.247   1.371
30309W        W  124   6.808  41.292  11.855
30310W        W  125   3.792  20.213  14.919
30311W        W  126   9.230  42.000  11.885
30312W        W  127   1.298  28.506  13.955
30313W        W  128  10.378  26.995  12.947
30314W        W  129  37.437  17.586   3.172
30315W        W  130  13.659  28.438   4.759
30316W        W  131  37.835   0.458   3.380
30317W        W  132  36.548  29.622  13.446
30318W        W  133  19.221  22.585   3.229
30319W        W  134   0.293   3.448   2.729
30320W        W  135  37.907  23.539  14.006
30321W        W  136   2.434  12.673  11.933
30322W        W  137  16.588   8.377   4.205
30323W        W  138  15.143   8.758   2.351
30324W        W  139  28.567  21.567  14.915
30325W        W  140  41.984  28.673  13.961
30326W        W  141  39.994   5.875   2.808
30327W        W  142  27.115  11.662  12.923
30328W        W  143  11.858   4.717  10.115
30329W        W  144  27.131  15.661  10.559
30330W        W  145   2.318  37.027   2.225
30331W        W  146  22.202  16.704   4.739
30332W        W  147   4.420  17.767  10.488
30333W        W  148  24.169   2.806   4.607
30334W        W  149  42.342  14.810   3.173
30335W        W  150   5.432   9.889   2.285
30336W        W  151   2.777  24.184  10.591
30337W        W  152  17.193  19.599   1.231
30338W        W  153   7.329  38.337  11.094
30339W        W  154   3.802  26.582   4.235
30340W        W  155  32.926  30.133   4.302
30341W        W  156   0.817  39.448   3.181
30342W        W  157  22.588  10.213  11.536
30343W        W  158   4.327  26.113  14.940
30344W        W  159  23.658  31.101   0.388
30345W        W  160   8.747  12.141  12.026
30346W        W  161   7.688  20.676  13.959
30347W        W  162  17.673  14.710   3.832
30348W        W  163  11.771  22.133   1.931
30349W        W  164  15.095  26.602  13.396
30350W        W  165  12.758   4.303   3.324
30351W        W  166  36.062  42.001   3.842
30352W        W  167   3.286  12.149   2.200
30353W        W  168   4.854  16.218   4.167
30354W        W  169  38.888   0.932   4.327
30355W        W  170  43.004  18.094  10.641
30356W        W  171   0.803  12.728  12.010
30357W        W  172  22.010   7.696   1.795
30358W        W  173  16.718  37.469   2.293
30359W        W  174  23.501  13.784  11.010
30360W        W  175  18.269  26.649  13.456
30361W        W  176   9.230   4.813   1.861
30362W        W  177  29.523  27.058   4.653
30363W        W  178  42.923   8.696   1.261
30364W        W  179   6.286  12.829   1.806
30365W        W  180  21.717   1.824  13.924
30366W        W  181   6.311  25.472   4.771
30367W        W  182  25.975  26.480  10.491
30368W        W  183  11.217   9.722   3.190
30369W        W  184  10.218   3.426   3.763
30370W        W  185  39.936  12.846  10.576
30371W        W  186   3.218  17.610  11.050
30372W        W  187  37.059  35.979   2.815
30373W        W  188  44.452  31.626  14.419
30374W        W  189   2.251   1.778   9.984
30375W        W  190  37.524  29.556  11.599
30376W        W  191  36.497  21.078  13.868
30377W        W  192  19.141  26.987  12.914
30378W        W  193  42.370  18.222  10.511
30379W        W  194  41.013   5.732   2.391
30380W        W  195  12.175  10.288   1.842
30381W        W  196  25.554  43.479  14.962
30382W        W  197  41.415  16.245   0.891
30383W        W  198  27.628   3.933   3.256
30384W        W  199  18.682  22.041   1.308
30385W        W  200  33.113  19.541   1.721
30386W        W  201  20.577  22.227  12.831
30387W        W  202   6.274  17.292   0.311
30388W        W  203  32.533  10.279   9.939
30389W        W  204  13.237  21.634   1.213
30390W        W  205  38.410  35.490  14.352
30391W        W  206   5.890  16.263  14.412
30392W        W  207  12.658  23.160  14.384
30393W        W  208  33.419  37.907   3.788
30394W        W  209  15.092  12.264  13.331
30395W        W  210  12.359   5.740  12.457
30396W        W  211  40.449  44.392  14.453
30397W        W  212  30.551   7.769   3.641
30398W        W  213   4.275  13.112   4.685
30399W        W  214  19.156  14.689   2.355
30400W        W  215   3.443  25.072   4.826
30401W        W  216   2.881   2.954  12.520
30402W        W  217  34.936  12.836   1.770
30403W        W  218   7.331   4.725   2.667
30404W        W  219  18.705  22.200   1.838
30405W        W  220  22.043  29.064  14.362
30406W        W  221   3.453  38.882  13.411
30407W        W  222   2.786  35.877   2.264
30408W        W  223  34.951  38.876  14.490
30409W        W  224  23.182   8.712   0.423
30410W        W  225  32.590   2.734   4.635
30411W        W  226  38.895   5.211  12.912
30412W        W  227  16.600  16.246  13.997
30413W        W  228  33.989   2.802  11.892
30414W        W  229   5.424  26.051  13.460
30415W        W  230  36.980  11.669  10.644
30416W        W  231   0.444   7.778   4.749
30417W        W  232  19.761  13.627   2.665
30418W        W  233  43.372  23.551   4.823
30419W        W  234  31.942  36.844   1.803
30420W        W  235  32.911  25.558   0.364
30421W        W  236   5.836  41.503   0.422
30422W        W  237  12.840  10.247  12.050
30423W        W  238  21.177   4.208  14.386
30424W        W  239  44.811  10.683  13.543
30425W        W  240   0.483   2.335  11.396
30426W        W  241   6.814  33.884  14.283
30427W        W  242  27.003  41.863   2.194
30428W        W  243  15.578  21.143  10.961
30429W        W  244  23.700  33.440  10.917
30430W        W  245  11.128  30.007   4.299
30431W        W  246   8.365   5.393  11.949
30432W        W  247  42.850  37.392  14.323
30433W        W  248  26.526   0.962  13.519
30434W        W  249  38.831  25.116  14.419
30435W        W  250  32.070  31.597  10.629
30436W        W  251  30.038   6.677  10.494
30437W        W  252  20.180  29.653  10.150
30438W        W  253   9.856  18.777  11.888
30439W        W  254  30.943  37.530   0.480
30440W        W  255  28.006  16.266   0.944
30441W        W  256  15.291   9.208  12.937
30442W        W  257  34.450  27.618   4.203
30443W        W  258  40.314   2.833   3.290
30444W        W  259  39.391  14.748   2.800
30445W        W  260  23.001   1.293   4.727
30446W        W  261  44.921   9.764   1.748
30447W        W  262  28.540   5.428  11.562
30448W        W  263  29.121  11.718   3.844
30449W        W  264  25.631   6.373   2.377
30450W        W  265  30.958  13.639  11.377
30451W        W  266  23.653  10.213  10.521
30452W        W  267  19.269  12.825   3.672
30453W        W  268  24.549  27.977   3.762
30454W        W  269  44.355  24.204  12.866
30455W        W  270  31.131  37.353  11.601
30456W        W  271  28.444   3.258  13.439
30457W        W  272  29.602   0.435   1.915
30458W        W  273  10.710  32.487   0.801
30459W        W  274  29.949  19.264  14.409
30460W        W  275  26.084  24.193   4.599
30461W        W  276  36.548   2.783   0.400
30462W        W  277   3.790  39.338   3.199
30463W        W  278  29.567  10.857  14.458
30464W        W  279  16.134  35.021  12.403
30465W        W  280  40.313  25.533   1.805
30466W        W  281  43.849  30.072  11.924
30467W        W  282  14.098  42.922  10.057
30468W        W  283  21.577   7.329   3.343
30469W        W  284  17.199  24.016  12.456
30470W        W  285   1.395  23.685   1.233
30471W        W  286   2.726   0.819  12.935
30472W        W  287  35.040  24.138   2.305
30473W        W  288  11.763  37.380   1.440
30474W        W  289   5.813  42.874  12.539
30475W        W  290  36.476   3.944  14.292
30476W        W  291  41.852  26.962   4.782
30477W        W  292  35.939  43.462   0.288
30478W        W  293  12.213  26.201   0.924
30479W        W  294  41.876  33.451  14.486
30480W        W  295  10.686  16.651   3.836
30481W        W  296   0.905  23.140  12.409
30482W        W  297  25.648   2.921  11.114
30483W        W  298  42.999  29.042  10.422
30484W        W  299  32.431  41.528   4.205
30485W        W  300  38.011  30.074  14.428
30486W        W  301  11.152  35.430  14.477
30487W        W  302   8.661  19.768  13.028
30488W        W  303  12.181  38.053  11.522
30489W        W  304  12.338  23.500  10.502
30490W        W  305  24.031  21.746  13.494
30491W        W  306  27.150  25.091  12.823
30492W        W  307  22.701  30.606  11.470
30493W        W  308  44.811  26.960   1.275
30494W        W  309  12.776  31.595  13.378
30495W        W  310   5.783  13.828   3.315
30496W        W  311  33.619  20.541   0.809
30497W        W  312  35.514   4.258   2.256
30498W        W  313  36.021  40.961  14.944
30499W        W  314   5.913  33.953  11.959
30500W        W  315  28.541  25.552  11.411
30501W        W  316   8.315  23.661   3.752
30502W        W  317  11.133  38.012   3.197
30503W        W  318  26.997  13.835  14.968
30504W        W  319   2.784  41.459  11.955
30505W        W  320  36.922  23.065  13.318
30506W        W  321   8.247   0.461   2.719
30507W        W  322  39.983  19.608  14.349
30508W        W  323  11.204  31.425   4.281
30509W        W  324  32.978  27.139   0.475
30510W        W  325  18.658  28.127  14.878
30511W        W  326  41.302  33.015  14.946
30512W        W  327  24.581  12.631  12.871
30513W        W  328   5.888  19.536  10.467
30514W        W  329   6.379   0.418   1.764
30515W        W  330  19.679  19.701   1.372
30516W        W  331  11.238  25.017  11.416
30517W        W  332  33.933   9.857  11.542
30518W        W  333  21.051  10.680  13.528
30519W        W  334  42.900  21.177  13.806
30520W        W  335  23.200  29.135   1.222
30521W        W  336   9.395  28.642  10.897
30522W        W  337  32.459  11.152   3.163
30523W        W  338   1.353   0.907  11.867
30524W        W  339   2.233  31.084  13.042
30525W        W  340  23.729  18.602  12.964
30526W        W  341  29.609  29.591   3.218
30527W        W  342  12.746  35.042   2.689
30528W        W  343  17.636   8.162  11.587
30529W        W  344  33.005  11.280  12.549
30530W        W  345  26.638  16.294  12.388
30531W        W  346  34.486   3.955   1.809
30532W        W  347  25.673  32.942   2.842
30533W        W  348   1.298   2.921  11.591
30534W        W  349  25.521  28.501   0.291
30535W        W  350   0.436   4.210  14.805
30536W        W  351  11.175  14.282  11.556
30537W        W  352   2.277  43.412   3.156
30538W        W  353  17.259   5.891   0.425
30539W        W  354   3.833  27.515  13.435
30540W        W  355  40.032  41.360   2.419
30541W        W  356  36.844   5.693  14.802
30542W        W  357  27.615  24.179   1.363
30543W        W  358  23.669  36.548   4.192
30544W        W  359  24.034  42.322   2.838
30545W        W  360  19.651   2.387   1.442
30546W        W  361  29.468  13.603  13.865
30547W        W  362  37.070  41.002   0.448
30548W        W  363  35.050  14.630  14.485
30549W        W  364  18.690  31.561   2.899
30550W        W  365  25.666  39.046   2.860
30551W        W  366   1.810  38.917  14.901
30552W        W  367  24.068  33.108   4.172
30553W        W  368  19.259  19.124  14.861
30554W        W  369  15.137  11.691  13.412
30555W        W  370  34.541  25.166  10.616
30556W        W  371   9.334  16.803   0.772
30557W        W  372  31.074   3.729  10.962
30558W        W  373  12.121  29.440  14.884
30559W        W  374  20.626  22.237   1.920
30560W        W  375  38.889  44.322  10.539
30561W        W  376  32.610  34.425   3.295
30562W        W  377  40.327  43.515  12.927
30563W        W  378  44.895  31.961  12.954
30564W        W  379  35.383  33.940   5.676
30565W        W  380  28.086  31.506  13.853
30566W        W  381  31.468  21.158  14.965
30567W        W  382   2.252  31.910   3.208
30568W        W  383  34.542  34.527   3.774
30569W        W  384  31.530  19.128   4.122
30570W        W  385  13.694   6.226   0.844
30571W        W  386   4.804   1.869   2.191
30572W        W  387   2.283  28.018  10.895
30573W        W  388  10.357  23.505   1.745
30574W        W  389  41.423  42.352   3.312
30575W        W  390  22.649   0.353  14.495
30576W        W  391  33.064  25.137   3.687
30577W        W  392  34.485  13.157   2.210
30578W        W  393  11.777   7.278   2.767
30579W        W  394  38.854  34.019  12.402
30580W        W  395  32.393  30.024  11.499
30581W        W  396  31.598  21.547   0.480
30582W        W  397   6.707  31.434   0.295
30583W        W  398  44.836  24.987   2.894
30584W        W  399  44.784  29.570  12.950
30585W        W  400  13.299  34.083  12.850
30586W        W  401  16.219  30.069   3.196
30587W        W  402  23.184  18.104  12.485
30588W        W  403  36.016  23.000   4.661
30589W        W  404   6.199   9.378   3.243
30590W        W  405  11.651  24.535  14.888
30591W        W  406  12.788  40.470  11.881
30592W        W  407  13.140   6.420   5.269
30593W        W  408  28.145  10.647   1.857
30594W        W  409   7.796   1.872   0.292
30595W        W  410  31.902  41.507  10.602
30596W        W  411  43.792   9.307  12.973
30597W        W  412  29.451  43.825   1.800
30598W        W  413   0.375  24.147   3.702
30599W        W  414  32.893  14.791   4.609
30600W        W  415  44.370  11.657  10.959
30601W        W  416   1.797  11.845   1.808
30602W        W  417   2.243   4.258   4.243
30603W        W  418  29.048  18.707  12.462
30604W        W  419  24.185  28.977  10.409
30605W        W  420  34.477  13.729  14.291
30606W        W  421  32.428   5.321  14.308
30607W        W  422  21.711  11.760   3.231
30608W        W  423   4.865   2.740  11.605
30609W        W  424  19.659  17.220   2.700
30610W        W  425  26.511  22.217   3.781
30611W        W  426  23.000   3.899  12.066
30612W        W  427  43.395   6.278   3.680
30613W        W  428  28.677  22.241  10.918
30614W        W  429  27.666   3.867   1.338
30615W        W  430  25.576   5.919  13.041
30616W        W  431  16.266  22.075   0.310
30617W        W  432  14.609  31.487   4.282
30618W        W  433  43.400  10.753   1.393
30619W        W  434  24.111  22.241   0.915
30620W        W  435  26.084  37.043  10.522
30621W        W  436   1.335  38.563   1.423
30622W        W  437  31.051   4.939   1.808
30623W        W  438  21.203  32.101   3.335
30624W        W  439  38.874   1.385  14.982
30625W        W  440  38.004  44.882  11.942
30626W        W  441  34.047  25.970  10.952
30627W        W  442  30.602  39.044  10.921
30628W        W  443  26.467  14.740  12.028
30629W        W  444  32.396  28.112   0.261
30630W        W  445   0.264  40.485  14.471
30631W        W  446  19.217  15.203   1.326
30632W        W  447  10.272  11.148   2.220
30633W        W  448   6.224  34.396  13.827
30634W        W  449  21.669   0.337  11.590
30635W        W  450  42.848  11.219   2.246
30636W        W  451  25.150  15.249   2.862
30637W        W  452  30.140  39.983   3.793
30638W        W  453   5.922  12.684  14.021
30639W        W  454  40.324  31.149   0.893
30640W        W  455  42.310  12.142   2.823
30641W        W  456  29.139  39.482   4.228
30642W        W  457  29.095  40.541   0.876
30643W        W  458  37.520   3.265  11.005
30644W        W  459  19.560   0.771   2.708
30645W        W  460  41.374  23.519   1.740
30646W        W  461  15.193  40.530  11.055
30647W        W  462  25.992  27.138   1.897
30648W        W  463  25.484  40.548  13.029
30649W        W  464  18.187  36.883  13.820
30650W        W  465  24.049   3.424  12.853
30651W        W  466  12.279  41.887   0.758
30652W        W  467   9.768  31.958  10.976
30653W        W  468  27.990  11.798  13.938
30654W        W  469  16.639  22.178  14.448
30655W        W  470  27.991  36.564  12.988
30656W        W  471  20.183  37.470  10.122
30657W        W  472  29.023   7.724  12.493
30658W        W  473  29.932  18.157  11.096
30659W        W  474  12.686  25.472   1.851
30660W        W  475  44.005  38.491  11.914
30661W        W  476  39.034  13.346   2.841
30662W        W  477  18.127  18.210  13.956
30663W        W  478  12.851   9.827  14.931
30664W        W  479  25.627  31.988   4.628
30665W        W  480   5.893  43.357  11.019
30666W        W  481  10.377  29.010   3.349
30667W        W  482  22.156  20.566  10.621
30668W        W  483   4.309  26.204   3.274
30669W        W  484  39.376   5.359   1.920
30670W        W  485  11.204  41.306   4.837
30671W        W  486   6.312   2.270   4.199
30672W        W  487   8.194  42.962  11.519
30673W        W  488  39.008  33.475  12.002
30674W        W  489  16.161  36.569  13.926
30675W        W  490  12.706   5.382   2.294
30676W        W  491   9.834  36.054  12.033
30677W        W  492   0.862  31.959  10.111
30678W        W  493  39.963   0.870  10.001
30679W        W  494  21.165  37.899  11.114
30680W        W  495  40.977  15.170   1.764
30681W        W  496  37.365   3.344  10.484
30682W        W  497   6.726  42.390   4.203
30683W        W  498  15.623  23.238  14.832
30684W        W  499  12.786   4.752   1.433
30685W        W  500  30.478  42.911   1.223
30686W        W  501   7.864   1.377   4.602
30687W        W  502  31.977  33.396  12.426
30688W        W  503  24.185   7.359   9.981
30689W        W  504  33.455  33.036   1.366
30690W        W  505  12.690  42.004   1.317
30691W        W  506  38.071  15.218  13.370
30692W        W  507  14.185  25.012   3.171
30693W        W  508  10.142  13.134  12.995
30694W        W  509  11.155  39.495   0.777
30695W        W  510   7.759   1.891  13.798
30696W        W  511  40.966   7.215   1.253
30697W        W  512  36.517  18.268  12.462
30698W        W  513  37.976  22.674   0.861
30699W        W  514  33.379  17.212  13.911
30700W        W  515   5.786  32.625   1.273
30701W        W  516  22.072  28.648  10.410
30702W        W  517  14.167  11.254  11.535
30703W        W  518  20.638  42.887   3.668
30704W        W  519  23.169  42.313   0.742
30705W        W  520   4.362  18.761  13.017
30706W        W  521   9.365  15.659   1.315
30707W        W  522   3.864  26.965  13.931
30708W        W  523  32.575  26.543  11.985
30709W        W  524  27.585  22.646   4.774
30710W        W  525  10.782  21.223   0.825
30711W        W  526   2.333  26.193  14.427
30712W        W  527  33.941  42.841   3.631
30713W        W  528   5.330   4.703  14.363
30714W        W  529  30.464  14.823   4.183
30715W        W  530  21.594  32.633  12.938
30716W        W  531  16.752   5.838   1.753
30717W        W  532  40.538  16.744  13.345
30718W        W  533  12.851  19.167   2.262
30719W        W  534  38.545   4.780  10.455
30720W        W  535  22.527  32.031  10.084
30721W        W  536  20.528  25.111   3.167
30722W        W  537   7.806  33.082  11.505
30723W        W  538  21.540  33.044  12.515
30724W        W  539   7.859   6.745  12.984
30725W        W  540   5.778  10.787   3.852
30726W        W  541  30.437  30.439   4.693
30727W        W  542  31.574   2.390  13.981
30728W        W  543  28.636  19.059   0.871
30729W        W  544   8.894  32.998  10.477
30730W        W  545   3.764  37.006  10.971
30731W        W  546  11.673   8.836  13.048
30732W        W  547  36.950  16.712  12.448
30733W        W  548  28.516  40.342  13.496
30734W        W  549  26.572  38.950   2.220
30735W        W  550  23.172   2.441  13.980
30736W        W  551  13.604   2.234   4.173
30737W        W  552  41.499  29.426  14.455
30738W        W  553  41.925  35.530   2.361
30739W        W  554   7.734  40.549   0.736
30740W        W  555  40.010  33.612  12.476
30741W        W  556   8.798   3.314  14.445
30742W        W  557  36.559   5.410  14.999
30743W        W  558  31.017  33.910  12.069
30744W        W  559  21.594   2.267   2.375
30745W        W  560  31.975  13.328  11.090
30746W        W  561  42.494   7.807  12.442
30747W        W  562  19.122  22.107  12.441
30748W        W  563   4.807  39.354   0.726
30749W        W  564  43.987  35.517  11.390
30750W        W  565  43.811  25.638   4.131
30751W        W  566   7.859  19.110   4.758
30752W        W  567  39.555  33.082  11.975
30753W        W  568  23.542  20.656  14.389
30754W        W  569  34.610  19.616   3.262
30755W        W  570   1.839   1.973  12.024
30756W        W  571  22.568   1.932   0.436
30757W        W  572  19.770  26.122  12.064
30758W        W  573  23.565  41.335   1.916
30759W        W  574   5.768   6.823   3.264
30760W        W  575  23.109  24.014   3.300
30761W        W  576  28.047  43.793  11.535
30762W        W  577   7.226  39.391   3.804
30763W        W  578  38.488  42.453   4.614
30764W        W  579  16.569   7.830  11.017
30765W        W  580  40.811  26.676  12.428
30766W        W  581  26.185   8.657   0.297
30767W        W  582  29.622  40.532   5.190
30768W        W  583  44.381  41.021   0.453
30769W        W  584  32.926  33.112   4.299
30770W        W  585   0.343  35.464  13.392
30771W        W  586  39.390  24.182   4.338
30772W        W  587  28.040   6.373  13.421
30773W        W  588   0.775  30.024   0.329
30774W        W  589   5.330  16.095   4.142
30775W        W  590  28.560  35.553  14.008
30776W        W  591   1.304   7.710  14.398
30777W        W  592  21.064   1.317   3.644
30778W        W  593   2.419  13.612   1.822
30779W        W  594   8.194  17.220   2.840
30780W        W  595  32.487  25.645   4.193
30781W        W  596  11.632  44.841   0.913
30782W        W  597  31.426   7.686  14.504
30783W        W  598  38.959  35.043   1.281
30784W        W  599  33.381  10.246  13.488
30785W        W  600  16.150  19.133   4.652
30786W        W  601   6.258  11.860  10.148
30787W        W  602  29.488  31.626   1.819
30788W        W  603  39.060  25.636  11.580
30789W        W  604  41.970  14.103  10.442
30790W        W  605   9.842  40.031  12.991
30791W        W  606  13.114  30.438   3.748
30792W        W  607  29.134  32.094  12.413
30793W        W  608  22.595  28.014   5.218
30794W        W  609  29.436  34.114   4.290
30795W        W  610   6.809  19.621   2.340
30796W        W  611  36.387  43.450  10.905
30797W        W  612  24.122  36.918  11.547
30798W        W  613   9.834  36.390   0.824
30799W        W  614  26.034   5.249  13.926
30800W        W  615  29.029   8.244  11.534
30801W        W  616  23.087  42.349  12.920
30802W        W  617  18.552  44.759  10.892
30803W        W  618  27.590  11.321   1.426
30804W        W  619  27.684  25.707  11.596
30805W        W  620  30.516  41.293  13.035
30806W        W  621  10.162  42.814  10.047
30807W        W  622  42.511  43.280  13.027
30808W        W  623  40.490  35.988   2.227
30809W        W  624  39.884  21.525  11.603
30810W        W  625  37.438   4.224  10.127
30811W        W  626  43.921  44.318  14.315
30812W        W  627  44.297  29.019  10.470
30813W        W  628  26.061   7.266  12.850
30814W        W  629  24.127  35.992  10.953
30815W        W  630   9.671  15.240   1.398
30816W        W  631   0.327   2.846  14.003
30817W        W  632  43.012  30.514   0.839
30818W        W  633  34.432  24.016  13.370
30819W        W  634  10.852  29.551  13.312
30820W        W  635  25.485  18.085  13.501
30821W        W  636   3.867  27.945  11.948
30822W        W  637   5.266  27.063  10.567
30823W        W  638  30.549  27.601   0.280
30824W        W  639  40.532  28.167  14.922
30825W        W  640  28.475   9.834   4.162
30826W        W  641   3.403  24.044   3.302
30827W        W  642  33.390  41.293  14.292
30828W        W  643  40.322  42.932  11.017
30829W        W  644  35.472  40.936  14.477
30830W        W  645  17.165  15.712  10.064
30831W        W  646  21.198   4.209   0.959
30832W        W  647  21.739  33.529  12.442
30833W        W  648  35.365  22.559   4.315
30834W        W  649  28.451  23.559   1.898
30835W        W  650  43.862  25.174  11.111
30836W        W  651  44.362  17.204   9.949
30837W        W  652  34.416  33.037  14.376
30838W        W  653  27.101  13.183  14.381
30839W        W  654   4.304  19.576  12.083
30840W        W  655  17.162  20.588   4.806
30841W        W  656  18.658  43.427  14.861
30842W        W  657  42.335  13.724   9.662
30843W        W  658  33.910  42.379  12.342
30844W        W  659  41.506  15.723  14.865
30845W        W  660  33.005  16.236  14.967
30846W        W  661  38.539  23.587  12.084
30847W        W  662   0.779  13.794  13.911
30848W        W  663  44.922  17.744  12.545
30849W        W  664   9.863  12.298  12.565
30850W        W  665  34.915  33.939   0.877
30851W        W  666  31.480  10.696  12.471
30852W        W  667   4.873  18.758   0.726
30853W        W  668   4.783  30.996  14.957
30854W        W  669  43.498  12.741  10.921
30855W        W  670  30.974  31.917   3.835
30856W        W  671  26.629   3.272  10.991
30857W        W  672  14.136  18.108   4.275
30858W        W  673  43.272  23.656   3.776
30859W        W  674  42.431   8.840  13.912
30860W        W  675   1.875  32.929   0.928
30861W        W  676  17.671  26.028  14.879
30862W        W  677  11.805  32.980  13.824
30863W        W  678   9.727   7.368   0.270
30864W        W  679   0.842  25.681   3.346
30865W        W  680  44.895   7.766  14.489
30866W        W  681  24.549   3.298   2.786
30867W        W  682  39.531   8.750   0.301
30868W        W  683   0.944  11.753   3.719
30869W        W  684  42.818   6.681   2.883
30870W        W  685   2.882  37.925   4.172
30871W        W  686  13.252  38.437  12.095
30872W        W  687  33.387   6.726  13.800
30873W        W  688  16.807   5.689  13.043
30874W        W  689  22.680  43.889   4.674
30875W        W  690   1.250  29.972  10.446
30876W        W  691   1.275   2.288  11.978
30877W        W  692  31.150  44.272   2.813
30878W        W  693  31.923  43.427   4.608
30879W        W  694  42.976  24.218  14.493
30880W        W  695  37.513   8.397   0.462
30881W        W  696   3.903   0.810   0.376
30882W        W  697  28.467  10.257   4.662
30883W        W  698  36.572   8.787  11.532
30884W        W  699  18.296  39.489  11.544
30885W        W  700  30.003  12.127  11.439
30886W        W  701   9.245  31.614  14.965
30887W        W  702   1.769   8.771   1.827
30888W        W  703   7.855  23.684  14.382
30889W        W  704  34.439  37.534   4.235
30890W        W  705  31.118  10.211  14.445
30891W        W  706  13.135  26.095   0.405
30892W        W  707  34.120  31.447  14.335
30893W        W  708  34.381   4.311  14.470
30894W        W  709   0.485  13.710   2.809
30895W        W  710  24.131  35.988   2.821
30896W        W  711  39.432  20.583   0.927
30897W        W  712  20.667   2.336  10.545
30898W        W  713  12.152  20.218   0.772
30899W        W  714  42.320  32.138   1.400
30900W        W  715  18.674  44.842   4.785
30901W        W  716  30.967  39.380  13.509
30902W        W  717  44.317   3.378   3.769
30903W        W  718  32.071  16.640  12.978
30904W        W  719   7.685  10.877   2.702
30905W        W  720  30.112  39.527  10.938
30906W        W  721  28.051  32.108   2.667
30907W        W  722  32.426  38.505   0.346
30908W        W  723  25.642   5.893   2.226
30909W        W  724   6.867  16.779   4.285
30910W        W  725  22.189  17.632   1.903
30911W        W  726  21.118  10.732   2.746
30912W        W  727  44.422   8.759  11.456
30913W        W  728  25.190  21.129   4.268
30914W        W  729  25.548  11.367  14.508
30915W        W  730  18.267  41.799   4.762
30916W        W  731  39.397  14.142  14.498
30917W        W  732  10.274  39.315   3.759
30918W        W  733   7.854  22.525   2.732
30919W        W  734  24.044   0.908  14.973
30920W        W  735   3.834  44.474  12.008
30921W        W  736  26.576  25.076  10.056
30922W        W  737  31.523  35.600   1.903
30923W        W  738  21.185  30.040   4.820
30924W        W  739  32.925   0.754   2.392
30925W        W  740  17.069  37.503  10.917
30926W        W  741  10.816  29.438   3.283
30927W        W  742  30.532  38.331  12.045
30928W        W  743  15.703  23.007   1.336
30929W        W  744   8.304  34.869   2.816
30930W        W  745  10.383   4.832  14.801
30931W        W  746  41.390  26.178  13.967
30932W        W  747  23.546  11.128  14.973
30933W        W  748  41.814   7.743  13.361
30934W        W  749  19.568  43.844   2.312
30935W        W  750  30.526  41.806   4.261
30936W        W  751  41.420  36.579   3.300
30937W        W  752   7.887   4.902   2.676
30938W        W  753  31.517  39.430   0.326
30939W        W  754   1.462  17.654   1.257
30940W        W  755  24.618   5.350   4.763
30941W        W  756  19.177   0.953   4.753
30942W        W  757  11.287  14.179   3.228
30943W        W  758  30.627  15.300  13.990
30944W        W  759  26.965  13.741   4.621
30945W        W  760   5.374  40.447   4.135
30946W        W  761  25.039  40.445   5.588
30947W        W  762  25.050   8.775   3.754
30948W        W  763  37.010  32.566   2.266
30949W        W  764  25.213   4.916   2.354
30950W        W  765  34.399  42.432   0.859
30951W        W  766  28.564  41.448   1.807
30952W        W  767  11.207   7.213   0.763
30953W        W  768  20.710  39.058  10.577
30954W        W  769  44.291  15.748  12.362
30955W        W  770  28.167  42.378  13.802
30956W        W  771  35.889  28.128   4.295
30957W        W  772  44.444  44.482  12.019
30958W        W  773  33.491  24.974  11.972
30959W        W  774  44.393   5.197  14.511
30960W        W  775  26.087  27.541   0.384
30961W        W  776  29.619  18.126   1.892
30962W        W  777  21.615  22.662  12.975
30963W        W  778   2.786  34.554  13.440
30964W        W  779   7.851  14.291   4.185
30965W        W  780   4.248  31.131  14.787
30966W        W  781  19.574  37.399   1.434
30967W        W  782   6.328  34.606  12.994
30968W        W  783  18.701   7.766   0.809
30969W        W  784  17.598  28.027   2.889
30970W        W  785  23.177  39.863   1.759
30971W        W  786  11.801  32.942   2.666
30972W        W  787  34.429   4.940  12.053
30973W        W  788   8.270  14.095  11.040
30974W        W  789  20.105  25.191  11.428
30975W        W  790   5.267  41.857   0.845
30976W        W  791   7.761   1.283  12.461
30977W        W  792  30.105   3.763   0.405
30978W        W  793  29.667  33.577   2.848
30979W        W  794  13.722  12.218  14.479
30980W        W  795  41.835  26.997   0.338
30981W        W  796  44.492  37.363  11.499
30982W        W  797  31.413  16.084   3.261
30983W        W  798  27.453  33.608  11.424
30984W        W  799  40.910   6.199  13.545
30985W        W  800  22.629  41.460  13.020
30986W        W  801  18.586  23.030   1.750
30987W        W  802  36.934  21.187  10.503
30988W        W  803  20.742  36.980  11.120
30989W        W  804  44.933  31.040   4.121
30990W        W  805   6.786  16.665  14.297
30991W        W  806  36.076  21.522  11.954
30992W        W  807  25.060   5.320  13.545
30993W        W  808  22.080  19.184  10.441
30994W        W  809  40.840   0.964   5.647
30995W        W  810   8.788   2.344  11.434
30996W        W  811  25.518  28.495  12.875
30997W        W  812   7.284  32.503  14.005
30998W        W  813  32.563  42.290  13.389
30999W        W  814  44.975   0.293   3.267
31000W        W  815  24.998  37.835   2.263
31001W        W  816   5.917   5.296  12.949
31002W        W  817   6.280  33.971   1.299
31003W        W  818  24.680   2.442   1.753
31004W        W  819  15.304  36.977  14.275
31005W        W  820  10.817  28.596  14.914
31006W        W  821  29.948  35.533  11.956
31007W        W  822  39.888  14.776   3.157
31008W        W  823   5.813  38.475  13.024
31009W        W  824   4.310  28.152   2.194
31010W        W  825  43.898  25.488   0.455
31011W        W  826  25.635  35.040   5.259
31012W        W  827  41.469  10.766  10.488
31013W        W  828   9.706  41.954  12.956
31014W        W  829  18.130  19.614  12.351
31015W        W  830  15.221  41.890   1.435
31016W        W  831   8.656  11.682   3.691
31017W        W  832  21.097   3.772  12.349
31018W        W  833  13.641  35.073  14.791
31019W        W  834  39.557  27.109   4.750
31020W        W  835  36.576  26.677   4.320
31021W        W  836  17.255  24.064   3.265
31022W        W  837  23.577  40.944  11.006
31023W        W  838  10.850  34.065  14.411
31024W        W  839  14.634  13.715   3.861
31025W        W  840  34.873  43.787  13.393
31026W        W  841  23.518  41.498  13.815
31027W        W  842   8.316  12.845   0.803
31028W        W  843  22.059  23.677   0.896
31029W        W  844  20.615  23.610   3.677
31030W        W  845  24.220  44.945   1.854
31031W        W  846   2.283  11.237   2.664
31032W        W  847   0.342  26.116  11.949
31033W        W  848   4.320  14.227  13.482
31034W        W  849  30.105   9.386   0.869
31035W        W  850  40.511  43.937   1.235
31036W        W  851   8.335   0.494   2.364
31037W        W  852  19.624   8.790  14.327
31038W        W  853  18.118  19.223  13.888
31039W        W  854  36.912   2.410  11.041
31040W        W  855  43.846  18.640  13.939
31041W        W  856  13.313  37.511  13.359
31042W        W  857  20.579  35.034   2.309
31043W        W  858   0.839  18.100  14.350
31044W        W  859   6.791  40.048   9.995
31045W        W  860  26.096   1.889  12.953
31046W        W  861  10.787  39.006  11.566
31047W        W  862  38.378  39.482   0.961
31048W        W  863  23.662  43.271   1.288
31049W        W  864  40.364  37.870  14.009
31050W        W  865  13.746  31.579  12.980
31051W        W  866  35.874  16.706  13.895
31052W        W  867  39.884  11.326   2.846
31053W        W  868  25.648  12.341   5.238
31054W        W  869  32.612  23.993   3.716
31055W        W  870  15.176  21.540   3.237
31056W        W  871  25.598  28.552  13.445
31057W        W  872  32.484   7.225  11.907
31058W        W  873   6.185  19.716  14.390
31059W        W  874  37.971  29.514  14.341
31060W        W  875  11.697  33.395   4.820
31061W        W  876  19.159  13.107  14.864
31062W        W  877   2.754   0.299  13.338
31063W        W  878  30.025  20.664   3.786
31064W        W  879   8.726  30.548   2.257
31065W        W  880  22.158  37.887   1.442
31066W        W  881  31.103  28.585  12.357
31067W        W  882   5.742  41.903  13.926
31068W        W  883   7.834  29.041   4.826
31069W        W  884   2.347  10.780   2.843
31070W        W  885  25.559  35.541  12.916
31071W        W  886  15.760   2.338  11.580
31072W        W  887   8.342   8.219   2.825
31073W        W  888  29.099  21.712  12.426
31074W        W  889  19.586   5.914  13.017
31075W        W  890   6.765   2.842   0.920
31076W        W  891  27.626  26.038  11.004
31077W        W  892  38.418  31.624  13.033
31078W        W  893  33.579  10.296  12.412
31079W        W  894  18.104  39.016  13.963
31080W        W  895  28.999  35.973   0.744
31081W        W  896  31.045   0.985   3.310
31082W        W  897  29.150  34.565   1.902
31083W        W  898  42.377  29.054   0.267
31084W        W  899  22.626  14.729  11.865
31085W        W  900  22.099  10.659  13.790
31086W        W  901  31.059   0.791  13.797
31087W        W  902  14.144  20.594  14.865
31088W        W  903  15.818  31.454  12.423
31089W        W  904   4.735  12.830  11.916
31090W        W  905   2.347  10.707  13.349
31091W        W  906  39.502   1.974  13.838
31092W        W  907  22.631  40.013  12.038
31093W        W  908  22.546  38.853   2.754
31094W        W  909  17.223   7.173  12.011
31095W        W  910  11.351  34.384   4.604
31096W        W  911  44.804  31.551  10.628
31097W        W  912   0.372  12.140  14.364
31098W        W  913  10.636   9.295  11.054
31099W        W  914  40.817  31.646  14.353
31100W        W  915  43.979   9.683  11.604
31101W        W  916  38.004  32.419   4.234
31102W        W  917  10.357  21.747  12.502
31103W        W  918   7.754  19.071  14.506
31104W        W  919  20.257  18.627   3.786
31105W        W  920  28.569  39.940  14.421
31106W        W  921  20.737  12.704   4.804
31107W        W  922  21.547  31.978   2.758
31108W        W  923  22.681   9.230   2.290
31109W        W  924  39.015  35.367   0.408
31110W        W  925   6.362   8.181   2.892
31111W        W  926  21.735  10.352   4.241
31112W        W  927  24.565   0.488  14.421
31113W        W  928  12.120  21.636   1.427
31114W        W  929  40.955   7.225   2.369
31115W        W  930   6.395  12.275  12.092
31116W        W  931  17.583  19.654   2.378
31117W        W  932  34.417  35.962   1.769
31118W        W  933  41.317   6.319   4.712
31119W        W  934  36.351  24.203  13.949
31120W        W  935   2.466  19.591   0.383
31121W        W  936   8.672  36.397   0.308
31122W        W  937   7.818   6.411  14.952
31123W        W  938   8.709  24.637  14.418
31124W        W  939  16.705  24.160   2.719
31125W        W  940  22.190  16.721  11.965
31126W        W  941  20.219  23.627  14.387
31127W        W  942  26.969  15.679   0.739
31128W        W  943  41.853  34.075   1.705
31129W        W  944   2.461  19.097  12.905
31130W        W  945  13.202  37.983  14.818
31131W        W  946   3.803  25.065  14.896
31132W        W  947  29.946   3.423  14.903
31133W        W  948  27.511  40.536   0.789
31134W        W  949  41.875  13.704  12.078
31135W        W  950   0.941  14.708   1.931
31136W        W  951  28.659   8.837  13.532
31137W        W  952   9.803  26.140   1.409
31138W        W  953  34.013  36.384   1.867
31139W        W  954  40.364   1.370   5.301
31140W        W  955  21.175   0.881  11.458
31141W        W  956  33.431  27.524  11.052
31142W        W  957  29.161   0.473  12.412
31143W        W  958  30.643  23.559   1.426
31144W        W  959  41.425   0.973   0.309
31145W        W  960  43.319   4.819  12.345
31146W        W  961  23.677   8.784   3.844
31147W        W  962  13.205   0.910  14.926
31148W        W  963  40.925  40.354   4.755
31149W        W  964  35.988  19.089   2.211
31150W        W  965  17.185   8.722   4.615
31151W        W  966  39.893  20.161  14.508
31152W        W  967  18.761  40.494   2.200
31153W        W  968  22.161  16.711  10.533
31154W        W  969   8.721  41.321  10.608
31155W        W  970   9.177  38.530  13.452
31156W        W  971  21.076   8.722   3.864
31157W        W  972   3.816  39.054   3.185
31158W        W  973  38.390  35.597  14.794
31159W        W  974  42.880  24.675  11.049
31160W        W  975  23.997   6.420   3.284
31161W        W  976   6.304   9.202   2.680
31162W        W  977   6.744  41.476   0.411
31163W        W  978  32.942  16.300  12.011
31164W        W  979  41.993  24.084  14.765
31165W        W  980   1.862  38.384  12.936
31166W        W  981   4.735  25.586  11.585
31167W        W  982   1.771  13.345   2.674
31168W        W  983   5.284  36.441  13.813
31169W        W  984  16.272  28.073   1.856
31170W        W  985   4.816  31.109  13.791
31171W        W  986  32.981  31.451   4.131
31172W        W  987  32.931  32.608   4.287
31173W        W  988   7.859  26.540   0.351
31174W        W  989  14.801  39.053   2.193
31175W        W  990   1.731  30.522   0.464
31176W        W  991   4.898  36.458  12.525
31177W        W  992  14.592   8.732   3.775
31178W        W  993   3.218  15.127  11.014
31179W        W  994  21.237  27.623  12.966
31180W        W  995  11.732   0.403  10.891
31181W        W  996  17.726  23.214  10.464
31182W        W  997  23.198  12.612  10.447
31183W        W  998  16.732  11.192   4.335
31184W        W  999  12.776  15.110   0.945
31185W        W 1000  32.504  14.243   5.256
31186W        W 1001  12.619  28.154   1.296
31187W        W 1002  36.353  10.325  10.066
31188W        W 1003  30.474  35.573   3.230
31189W        W 1004   7.773   5.368   1.262
31190W        W 1005   3.854  33.516  10.912
31191W        W 1006   9.775   9.351  14.337
31192W        W 1007   2.311  39.966  12.092
31193W        W 1008  36.947  36.426  11.999
31194W        W 1009  32.027  26.052  14.783
31195W        W 1010   0.878  43.886   2.377
31196W        W 1011   2.246  32.547   2.342
31197W        W 1012  25.706  33.609  10.585
31198W        W 1013  40.392   9.861   2.224
31199W        W 1014  19.664  15.297   0.449
31200W        W 1015   1.922  35.955   4.336
31201W        W 1016   8.838  44.793   4.773
31202W        W 1017  30.528   2.870   3.709
31203W        W 1018   1.289  11.354  11.480
31204W        W 1019  26.146  11.368   0.372
31205W        W 1020  44.935  44.797   3.751
31206W        W 1021  17.755  37.972   2.302
31207W        W 1022   7.238  41.911   2.179
31208W        W 1023  31.018   3.382   2.214
31209W        W 1024  30.548  33.898   0.353
31210W        W 1025  35.874   7.686   2.207
31211W        W 1026  44.400  24.987   1.850
31212W        W 1027  31.057   3.335  11.117
31213W        W 1028  29.033  28.153   0.463
31214W        W 1029  27.137  15.176  14.472
31215W        W 1030   9.355  14.615  10.639
31216W        W 1031  24.127   9.724  14.428
31217W        W 1032  10.815  16.121  14.299
31218W        W 1033  12.185  20.698  12.083
31219W        W 1034  22.094  33.568   2.349
31220W        W 1035  14.280  26.161  10.569
31221W        W 1036   1.355  28.025   4.681
31222W        W 1037  34.118  16.569   4.618
31223W        W 1038   0.385  25.142   0.421
31224W        W 1039  43.336  28.483  13.448
31225W        W 1040   0.371  43.336   2.370
31226W        W 1041  15.578   8.304  11.937
31227W        W 1042  42.836   7.733  14.503
31228W        W 1043  10.264  23.591   0.925
31229W        W 1044  31.600   7.320   3.812
31230W        W 1045  34.002   3.367   4.680
31231W        W 1046  27.034  28.635  12.375
31232W        W 1047   4.287   8.730  10.948
31233W        W 1048   3.791  39.524  11.878
31234W        W 1049  35.892  35.106  13.360
31235W        W 1050  41.003  43.841   0.255
31236W        W 1051   8.723  11.621   2.881
31237W        W 1052  28.178   5.802  14.434
31238W        W 1053  38.542  17.176   3.231
31239W        W 1054  42.897  27.155   1.422
31240W        W 1055  14.656  15.202   3.740
31241W        W 1056  21.676  15.767   0.798
31242W        W 1057  44.272  34.447  11.884
31243W        W 1058  41.404  15.191   2.722
31244W        W 1059  44.863   5.691   3.221
31245W        W 1060  25.023   7.317   1.923
31246W        W 1061  40.519   7.689  12.484
31247W        W 1062  25.217  23.645   2.864
31248W        W 1063   8.856   4.296   3.728
31249W        W 1064  43.309   0.968   2.302
31250W        W 1065  17.782   3.942  11.958
31251W        W 1066  17.257  31.043   2.349
31252W        W 1067  22.136  37.422   2.375
31253W        W 1068  34.592  39.519   2.306
31254W        W 1069  32.409  14.155  13.880
31255W        W 1070  29.665  32.590   1.752
31256W        W 1071  17.743   0.431   3.825
31257W        W 1072   4.720  19.677   9.996
31258W        W 1073   8.832  22.714  14.920
31259W        W 1074  32.137  25.623   4.775
31260W        W 1075  44.992  23.120  12.463
31261W        W 1076   4.412  35.873   2.674
31262W        W 1077  29.498  19.215  13.459
31263W        W 1078  15.228  42.293   0.316
31264W        W 1079  32.997  34.117  13.940
31265W        W 1080  16.596  24.977  14.883
31266W        W 1081  21.231  28.085   0.897
31267W        W 1082  14.180  35.553   4.837
31268W        W 1083  18.193  21.167   3.733
31269W        W 1084  15.185  42.487  12.510
31270W        W 1085  13.129  14.224  14.925
31271W        W 1086   2.312  23.677   4.201
31272W        W 1087   9.657  37.903   4.132
31273W        W 1088  18.601  40.886  10.944
31274W        W 1089  10.701   1.366  10.570
31275W        W 1090  40.511  14.238  14.444
31276W        W 1091  28.594  29.483  12.067
31277W        W 1092  43.305  37.368   1.432
31278W        W 1093   4.734   5.283  13.512
31279W        W 1094  11.295  10.771  12.952
31280W        W 1095  32.981  29.950   1.927
31281W        W 1096  24.193  19.247  11.071
31282W        W 1097  42.931  28.474  13.406
31283W        W 1098  32.140   7.739   0.303
31284W        W 1099   1.316  22.033  12.052
31285W        W 1100  15.150  13.844   1.376
31286W        W 1101  11.827  30.959   0.379
31287W        W 1102   0.812  25.060  12.823
31288W        W 1103  44.809  42.297   4.690
31289W        W 1104  21.260  14.589   4.275
31290W        W 1105  23.663   4.338  12.992
31291W        W 1106   9.168   1.874   0.848
31292W        W 1107  23.554  29.959  11.004
31293W        W 1108  40.512  20.594  12.910
31294W        W 1109  32.110  15.604   1.313
31295W        W 1110  27.077  16.128   3.385
31296W        W 1111  27.556  37.036   0.376
31297W        W 1112  28.091  34.978   2.897
31298W        W 1113  21.569   0.444   4.599
31299W        W 1114   7.854   6.837  13.824
31300W        W 1115  44.782  25.570  13.515
31301W        W 1116  22.676   8.880   2.320
31302W        W 1117   8.660  12.667  14.507
31303W        W 1118  24.053  34.971  14.983
31304W        W 1119   9.645  21.628   3.287
31305W        W 1120  29.466  11.677   2.260
31306W        W 1121   2.323   3.375  14.781
31307W        W 1122  11.834  37.479   0.253
31308W        W 1123  22.677  17.139  11.599
31309W        W 1124  10.663  19.674   1.212
31310W        W 1125  31.609  42.892  10.446
31311W        W 1126  35.923  34.464  14.466
31312W        W 1127  38.899  16.774   3.648
31313W        W 1128  30.582  24.980  12.556
31314W        W 1129  40.943  44.799   9.993
31315W        W 1130  31.113  14.706  12.395
31316W        W 1131  16.296  42.970  13.840
31317W        W 1132  13.812   1.750   1.843
31318W        W 1133  14.812  28.678   3.684
31319W        W 1134  35.568  28.540  14.021
31320W        W 1135  17.144  39.049  12.089
31321W        W 1136  21.130  11.822   1.399
31322W        W 1137   8.387  30.130   3.172
31323W        W 1138   8.319  21.609   1.435
31324W        W 1139  44.962  43.482   0.317
31325W        W 1140   7.677  33.045   4.752
31326W        W 1141  33.519   8.354  10.566
31327W        W 1142  20.150  17.180   2.407
31328W        W 1143  34.521  34.534  14.296
31329W        W 1144  29.040  42.288   3.282
31330W        W 1145  26.615   2.271  13.327
31331W        W 1146  18.221  26.463   4.763
31332W        W 1147  27.167   4.255  14.393
31333W        W 1148  18.731   2.310  11.377
31334W        W 1149  42.875  40.841  14.816
31335W        W 1150  39.413  41.001   0.418
31336W        W 1151  27.961  11.334   5.092
31337W        W 1152  12.289  17.746  11.863
31338W        W 1153  23.672  10.215  14.408
31339W        W 1154  23.534   5.779   3.296
31340W        W 1155  32.390  40.403  14.865
31341W        W 1156  24.228   7.289  11.396
31342W        W 1157   0.786  38.837   3.245
31343W        W 1158   4.898  43.766  13.062
31344W        W 1159  36.996  19.260   1.841
31345W        W 1160  12.153  30.957   1.788
31346W        W 1161  44.765   3.897  10.435
31347W        W 1162  15.279   8.764   1.257
31348W        W 1163   5.359   6.351   1.841
31349W        W 1164   6.894  31.981  11.437
31350W        W 1165  39.505  23.044  11.538
31351W        W 1166   8.719  28.022   4.191
31352W        W 1167  37.442  42.403  13.332
31353W        W 1168  25.476  24.128   0.475
31354W        W 1169  15.298  14.835  11.900
31355W        W 1170   4.411  21.238  12.989
31356W        W 1171  19.163  43.447  11.452
31357W        W 1172  23.622  20.640   3.272
31358W        W 1173  31.465   2.413  14.877
31359W        W 1174  16.659  21.040  14.834
31360W        W 1175  10.347   1.386  12.491
31361W        W 1176  19.138  43.894   3.852
31362W        W 1177  14.308   8.847  13.801
31363W        W 1178  32.007  41.005  13.957
31364W        W 1179  37.342  22.506  14.451
31365W        W 1180   5.847  16.160  11.860
31366W        W 1181   4.877  34.027   0.464
31367W        W 1182  14.674  15.107   1.867
31368W        W 1183  25.565  29.973  13.899
31369W        W 1184  30.953  12.819   0.731
31370W        W 1185  40.988  42.424  14.356
31371W        W 1186   7.693  33.073   0.322
31372W        W 1187  23.566  15.720  11.518
31373W        W 1188   1.459  10.148   2.822
31374W        W 1189   4.920  24.169   0.438
31375W        W 1190  19.085  10.750   1.908
31376W        W 1191  31.960  35.560  11.113
31377W        W 1192  36.558  11.703   0.913
31378W        W 1193  28.459   6.410   4.306
31379W        W 1194  19.140  27.682   0.468
31380W        W 1195  27.566  11.688  14.943
31381W        W 1196  14.679   8.681   3.369
31382W        W 1197  31.986   8.835   2.712
31383W        W 1198  27.129  44.291  14.926
31384W        W 1199  42.985  32.960   4.771
31385W        W 1200  35.485  38.037   2.243
31386W        W 1201   4.204  34.504   4.164
31387W        W 1202  23.726  25.996  11.585
31388W        W 1203  44.425  44.950   3.373
31389W        W 1204  41.920  10.729   0.792
31390W        W 1205   1.807   4.737   1.285
31391W        W 1206   0.457   8.715   1.331
31392W        W 1207   8.386  24.575   2.841
31393W        W 1208  34.445  20.179   2.197
31394W        W 1209  36.508  39.989   4.211
31395W        W 1210  44.961  13.795  14.815
31396W        W 1211  26.189  39.052  10.062
31397W        W 1212  16.801  11.146   3.839
31398W        W 1213   0.396  28.163   1.875
31399W        W 1214  24.109  40.878  12.548
31400W        W 1215   8.347  27.669  12.904
31401W        W 1216  11.223   2.946  11.086
31402W        W 1217  24.657  38.401   5.289
31403W        W 1218  17.181  42.805   1.367
31404W        W 1219  15.300  38.973  12.050
31405W        W 1220  20.137  27.691  14.792
31406W        W 1221  39.031  11.655   2.282
31407W        W 1222  16.265  24.486   3.307
31408W        W 1223  12.247  16.622  13.416
31409W        W 1224  20.561  28.648   3.821
31410W        W 1225  25.000  39.454   1.432
31411W        W 1226  26.200  38.506   4.687
31412W        W 1227  24.199  28.930   0.747
31413W        W 1228  19.754  17.688  10.604
31414W        W 1229  34.072   4.417   2.333
31415W        W 1230   6.690   2.225  12.412
31416W        W 1231   0.782  24.982  10.473
31417W        W 1232  37.503   6.766  12.486
31418W        W 1233  11.174   5.912   4.641
31419W        W 1234   1.415  13.793  13.058
31420W        W 1235  24.083  41.323   0.812
31421W        W 1236  12.811   6.338  13.017
31422W        W 1237   3.926  40.427   1.226
31423W        W 1238  39.349   6.427  14.021
31424W        W 1239  13.648  12.286   0.888
31425W        W 1240  36.901   2.949   0.909
31426W        W 1241  21.217  10.789  12.869
31427W        W 1242  39.856  39.528   2.327
31428W        W 1243  15.183  19.660  11.026
31429W        W 1244  43.934   3.217   0.406
31430W        W 1245  37.373  11.334  11.511
31431W        W 1246  27.687   6.385   4.226
31432W        W 1247   0.301   7.388   4.706
31433W        W 1248   0.350  37.053   2.666
31434W        W 1249  42.370  38.390  13.433
31435W        W 1250  27.002  40.870   0.773
31436W        W 1251   3.280  39.438   0.791
31437W        W 1252  43.440  36.586   2.238
31438W        W 1253   4.232   0.828   3.746
31439W        W 1254   2.748  43.782  10.968
31440W        W 1255  23.213   0.914  10.524
31441W        W 1256  31.027  22.069  13.487
31442W        W 1257   1.739  44.827   3.831
31443W        W 1258  14.804   8.718  11.993
31444W        W 1259  13.263  25.567   2.210
31445W        W 1260  16.710  10.692   2.226
31446W        W 1261  32.614  36.956  13.466
31447W        W 1262  16.799  15.262  12.399
31448W        W 1263   7.276  30.454  10.436
31449W        W 1264  25.036  37.980   4.635
31450W        W 1265  15.787  24.184   4.712
31451W        W 1266   9.651  44.869   3.146
31452W        W 1267  33.410  14.595  14.990
31453W        W 1268  23.136  42.494   3.229
31454W        W 1269   1.976  24.527  13.374
31455W        W 1270   2.393  42.815   2.759
31456W        W 1271  28.037  34.911  14.895
31457W        W 1272   7.304   5.217   0.382
31458W        W 1273  34.555  14.290  12.532
31459W        W 1274   4.732  43.274  12.488
31460W        W 1275  33.923  34.905  11.569
31461W        W 1276  42.474  37.929   3.383
31462W        W 1277   5.245  43.946  11.432
31463W        W 1278  23.057   1.360   3.193
31464W        W 1279  24.610  39.403  13.406
31465W        W 1280  40.797   6.216   0.374
31466W        W 1281  16.110  14.174   5.161
31467W        W 1282  37.897  14.791   1.844
31468W        W 1283   4.429  12.828  12.376
31469W        W 1284  10.342  16.229   2.783
31470W        W 1285  33.945  18.770   1.321
31471W        W 1286  36.516  41.872   1.735
31472W        W 1287  10.193  25.078  13.334
31473W        W 1288  21.566  24.092  12.544
31474W        W 1289   0.463  34.017  11.584
31475W        W 1290  14.244  44.777   2.289
31476W        W 1291  44.440   6.832  12.832
31477W        W 1292  13.786  28.053   1.914
31478W        W 1293  42.379  21.525   1.858
31479W        W 1294  28.947  22.581  11.897
31480W        W 1295  19.243  20.179   1.293
31481W        W 1296  34.990   8.174  14.984
31482W        W 1297  44.967   1.464   0.899
31483W        W 1298  20.180  27.051  14.998
31484W        W 1299  34.462  40.827   3.702
31485W        W 1300  38.477  43.428   1.411
31486W        W 1301   7.408  13.280  13.544
31487W        W 1302  37.498  28.657   3.788
31488W        W 1303  44.496  39.500  12.467
31489W        W 1304  40.478  12.812   3.661
31490W        W 1305  15.204  37.476   1.229
31491W        W 1306  25.212   9.719   4.837
31492W        W 1307   8.721  23.086   3.780
31493W        W 1308  23.593  16.807  11.550
31494W        W 1309  40.499   3.887  12.028
31495W        W 1310  35.915   9.317   1.855
31496W        W 1311  14.736   2.823  13.054
31497W        W 1312   6.914   8.851   3.845
31498W        W 1313   2.866  25.479  14.508
31499W        W 1314  28.607  28.571  14.932
31500W        W 1315   0.488  31.057   4.802
31501W        W 1316  28.940  44.872   3.345
31502W        W 1317  44.972  33.386  12.463
31503W        W 1318  20.578  34.922   2.823
31504W        W 1319  37.524  35.903  12.908
31505W        W 1320   8.743  33.483  10.561
31506W        W 1321   9.274  19.083   3.745
31507W        W 1322   3.349  16.671  14.870
31508W        W 1323  42.935   5.243   3.234
31509W        W 1324  31.108  37.465  12.376
31510W        W 1325  40.900  19.644   2.418
31511W        W 1326  36.869  37.008  14.344
31512W        W 1327   5.847  44.436   1.258
31513W        W 1328  26.093  44.439   2.243
31514W        W 1329  13.252  24.607  12.086
31515W        W 1330  10.238  35.057  12.090
31516W        W 1331  27.604   8.353  11.980
31517W        W 1332  35.093   6.366  12.878
31518W        W 1333  21.626   1.389   0.264
31519W        W 1334  38.926  13.765   2.213
31520W        W 1335  20.259  38.937   5.238
31521W        W 1336  23.527  17.305  12.867
31522W        W 1337  16.793  34.043  13.857
31523W        W 1338   2.890  20.202  14.512
31524W        W 1339  36.038  40.519  14.988
31525W        W 1340   8.317  37.869   0.258
31526W        W 1341  41.839  29.003  11.031
31527W        W 1342  21.159  33.875  11.922
31528W        W 1343   6.848  42.843   3.760
31529W        W 1344  38.369  19.622   4.197
31530W        W 1345  36.408  25.088  13.956
31531W        W 1346  16.740  26.702  13.326
31532W        W 1347  18.191  12.267  14.437
31533W        W 1348  23.211  20.214   3.166
31534W        W 1349  30.143  37.988   4.351
31535W        W 1350  16.261  18.113   2.738
31536W        W 1351  35.461  27.520   1.243
31537W        W 1352  40.379  10.166   0.755
31538W        W 1353  39.320  28.643  12.973
31539W        W 1354  16.761  15.682  13.858
31540W        W 1355  37.555  43.298  14.760
31541W        W 1356   2.908  43.480  13.462
31542W        W 1357  31.009  21.533  14.451
31543W        W 1358  12.269  21.023   1.909
31544W        W 1359   5.233  32.595  11.950
31545W        W 1360  36.090  11.805  10.532
31546W        W 1361   1.423  37.527  12.508
31547W        W 1362  36.398   8.217   1.353
31548W        W 1363  34.545  13.681   3.772
31549W        W 1364   9.318  41.996  13.410
31550W        W 1365  21.140  31.499   0.926
31551W        W 1366  27.486  26.667   2.769
31552W        W 1367  18.770  19.099   0.902
31553W        W 1368  33.487  32.456   4.314
31554W        W 1369  10.354   5.823  12.831
31555W        W 1370  12.739   9.168   0.839
31556W        W 1371  32.480  34.564   0.865
31557W        W 1372  32.081   5.786   1.776
31558W        W 1373  26.667   8.275   4.175
31559W        W 1374   0.302  40.833   0.473
31560W        W 1375  37.378  25.191  12.341
31561W        W 1376   7.788  19.227   0.830
31562W        W 1377  35.451  13.190   2.218
31563W        W 1378  31.983   1.922  10.490
31564W        W 1379  24.012   4.757   0.353
31565W        W 1380  24.721  40.054  12.874
31566W        W 1381  40.311  35.008  14.397
31567W        W 1382  38.996  20.165  11.490
31568W        W 1383  44.495  25.082   0.952
31569W        W 1384  21.199  24.169  13.964
31570W        W 1385   9.368  10.347  11.440
31571W        W 1386  28.447  37.581   2.700
31572W        W 1387  10.793  43.368   2.370
31573W        W 1388  28.071  21.085   3.671
31574W        W 1389  15.726  11.294  13.913
31575W        W 1390  15.758  11.348   1.250
31576W        W 1391  37.902  26.093   3.333
31577W        W 1392   0.429  14.179   4.692
31578W        W 1393  34.421  35.068   0.790
31579W        W 1394  22.521   8.899  11.422
31580W        W 1395   8.875  24.230   3.167
31581W        W 1396  35.914   0.896  14.455
31582W        W 1397  26.583  36.545  13.900
31583W        W 1398   8.245  30.115   1.721
31584W        W 1399  39.432   8.885   1.931
31585W        W 1400   5.701  20.646  13.350
31586W        W 1401  19.749   7.709  12.900
31587W        W 1402   1.453  27.625  13.418
31588W        W 1403  26.061  22.100   4.139
31589W        W 1404   0.762  28.973   3.745
31590W        W 1405  18.755  17.754  12.400
31591W        W 1406   6.271  11.275   3.361
31592W        W 1407  16.182  16.220   0.850
31593W        W 1408   0.809  20.106  10.539
31594W        W 1409  15.771   4.220   0.320
31595W        W 1410   7.321  23.139   1.904
31596W        W 1411  44.331   6.734  11.047
31597W        W 1412  37.521  11.213  10.954
31598W        W 1413  30.975  37.349  14.789
31599W        W 1414  21.114   6.184  14.029
31600W        W 1415  10.378  32.438   1.731
31601W        W 1416   4.817  40.466   1.885
31602W        W 1417  22.707   7.905  12.849
31603W        W 1418  28.151  12.361  10.101
31604W        W 1419  19.210  29.966   2.808
31605W        W 1420  36.536  10.303   2.763
31606W        W 1421   5.726  10.262  10.496
31607W        W 1422  28.500  33.458  14.946
31608W        W 1423   9.741  22.656   3.744
31609W        W 1424  17.700   7.229  14.417
31610W        W 1425  37.959  32.080   1.336
31611W        W 1426  32.606  14.823   3.846
31612W        W 1427  32.894   2.937   4.785
31613W        W 1428   4.743  22.746   0.263
31614W        W 1429  11.802  11.673  13.961
31615W        W 1430  35.998  17.203  14.016
31616W        W 1431  41.859  38.948   1.304
31617W        W 1432  44.914   6.748  13.057
31618W        W 1433  24.478  20.568   2.225
31619W        W 1434  14.132  35.367  12.838
31620W        W 1435  20.630   9.172  11.901
31621W        W 1436   5.794  31.429  12.895
31622W        W 1437   6.816  44.269   0.822
31623W        W 1438  27.175  44.357   0.926
31624W        W 1439  44.911   4.445   4.615
31625W        W 1440  38.996  28.174  10.433
31626W        W 1441  44.938  16.604  13.929
31627W        W 1442  40.482   6.702  13.991
31628W        W 1443  38.372  32.519  12.388
31629W        W 1444  21.599   0.317  13.877
31630W        W 1445  35.862   7.364  11.096
31631W        W 1446  20.083  43.269   4.825
31632W        W 1447  25.704  12.293  12.858
31633W        W 1448  44.271  25.531   3.304
31634W        W 1449   4.342   2.411   4.625
31635W        W 1450  17.566  27.496  10.444
31636W        W 1451  37.890   1.370   0.381
31637W        W 1452  15.804   7.388  14.987
31638W        W 1453  25.543  23.024   0.374
31639W        W 1454  36.372  12.633   1.901
31640W        W 1455  26.472   9.346  14.866
31641W        W 1456   9.874  35.053  14.021
31642W        W 1457  21.162  30.002   3.343
31643W        W 1458  29.143  16.715  11.429
31644W        W 1459  31.513  40.431   1.914
31645W        W 1460  44.399   5.382  13.533
31646W        W 1461   0.978   7.806   3.753
31647W        W 1462   0.445  20.165  13.861
31648W        W 1463   8.249  36.096  11.010
31649W        W 1464  22.611   4.276  11.545
31650W        W 1465  28.185  35.430  14.277
31651W        W 1466  37.020  44.439  12.416
31652W        W 1467  41.786  17.062   2.749
31653W        W 1468   6.389  30.567   3.811
31654W        W 1469  41.823   7.835   4.199
31655W        W 1470   1.292  32.523   0.770
31656W        W 1471  20.706  16.668  13.978
31657W        W 1472  40.549   5.751   2.209
31658W        W 1473  33.073  11.691  13.342
31659W        W 1474   5.748  44.963   1.412
31660W        W 1475  38.043  10.875  13.864
31661W        W 1476  44.391   7.733  12.351
31662W        W 1477   2.870  21.253   0.393
31663W        W 1478   5.909  29.122  12.988
31664W        W 1479  37.501   0.295  11.595
31665W        W 1480  30.090  43.350  13.409
31666W        W 1481  38.340  27.687  13.060
31667W        W 1482  41.515  12.719   0.482
31668W        W 1483   0.798   6.786   0.424
31669W        W 1484  11.177  25.062   2.756
31670W        W 1485  39.058  39.938  11.457
31671W        W 1486  12.169  22.733  11.102
31672W        W 1487  33.382   7.901   3.170
31673W        W 1488   0.368  26.662  13.415
31674W        W 1489  29.621  30.536   5.175
31675W        W 1490   7.811  10.347  11.582
31676W        W 1491   3.915  40.429   0.347
31677W        W 1492  32.139   7.363   4.265
31678W        W 1493  30.134  30.642   0.372
31679W        W 1494  29.154  38.947  10.481
31680W        W 1495  18.752  10.849   0.804
31681W        W 1496  32.613   4.312  11.923
31682W        W 1497  21.718   5.740  14.445
31683W        W 1498   1.864  33.016  14.882
31684W        W 1499  26.974   2.246  10.909
31685W        W 1500   6.816  20.087  12.418
31686W        W 1501  40.886  30.544   3.228
31687W        W 1502  19.740  12.267   4.703
31688W        W 1503  19.132  31.926   1.302
31689W        W 1504  25.581  39.015  12.077
31690W        W 1505   3.934   0.468   1.262
31691W        W 1506  36.999  28.025  10.899
31692W        W 1507   1.771  42.999   0.775
31693W        W 1508   4.300  11.288  11.082
31694W        W 1509  18.236  38.467   2.670
31695W        W 1510  33.959  44.968  12.491
31696W        W 1511  29.573  27.156   1.766
31697W        W 1512  26.205  24.668   2.722
31698W        W 1513  40.983  21.711  11.059
31699W        W 1514  22.224  15.231  14.873
31700W        W 1515  20.599  22.034  10.563
31701W        W 1516  39.008  29.986  11.024
31702W        W 1517  30.985   4.250  10.545
31703W        W 1518  10.872  18.268   2.886
31704W        W 1519  43.371   6.416   0.942
31705W        W 1520  36.030  24.223   0.345
31706W        W 1521  21.172  43.788   9.978
31707W        W 1522  32.490   8.794   4.654
31708W        W 1523   8.343  18.676  13.882
31709W        W 1524  40.007   6.709  14.292
31710W        W 1525  18.145  33.936  13.365
31711W        W 1526  43.851   5.381  11.968
31712W        W 1527  25.640  18.110  14.867
31713W        W 1528  33.492   5.416   4.127
31714W        W 1529   0.275  26.059   3.766
31715W        W 1530  11.198  25.540   3.805
31716W        W 1531  27.505  40.349  14.318
31717W        W 1532  16.131  10.678  11.523
31718W        W 1533  30.980  42.290   1.824
31719W        W 1534  22.078  10.820  11.429
31720W        W 1535  10.662  19.259  13.852
31721W        W 1536   7.912  18.668  13.876
31722W        W 1537  10.765   2.464  11.945
31723W        W 1538  15.728  44.906   2.216
31724W        W 1539  11.634  33.101   3.277
31725W        W 1540   3.876  15.728   9.974
31726W        W 1541  31.441  11.864   2.777
31727W        W 1542   4.352  39.517   1.346
31728W        W 1543   8.885   8.868  14.404
31729W        W 1544   8.890   2.332   1.435
31730W        W 1545  12.246  14.766  11.533
31731W        W 1546   3.720  31.102   1.411
31732W        W 1547  36.465  15.275  11.441
31733W        W 1548  43.813  24.493   3.240
31734W        W 1549  13.830  31.074   1.929
31735W        W 1550  24.062  38.032   2.707
31736W        W 1551   0.478  16.209   1.868
31737W        W 1552   9.823  31.574   2.778
31738W        W 1553  44.398  13.780  13.955
31739W        W 1554  31.940  37.563   5.270
31740W        W 1555  22.530   7.278  13.444
31741W        W 1556  26.477  36.056  14.834
31742W        W 1557  28.932   8.832  11.866
31743W        W 1558  40.319  11.369  13.972
31744W        W 1559  18.069  34.985  11.419
31745W        W 1560  27.043  29.129  12.407
31746W        W 1561  24.033  41.956   1.766
31747W        W 1562   7.899   5.285   4.285
31748W        W 1563  43.861  28.112   3.275
31749W        W 1564  37.460  22.650  12.051
31750W        W 1565  21.673  32.089  13.845
31751W        W 1566   8.177  32.098   3.858
31752W        W 1567  13.791  44.398  10.592
31753W        W 1568  35.423  42.412   3.701
31754W        W 1569  12.705   7.396  12.042
31755W        W 1570  36.449  17.658  12.930
31756W        W 1571  40.866  29.427   0.737
31757W        W 1572  22.618   0.492  10.036
31758W        W 1573  34.522  20.592  14.421
31759W        W 1574   5.393   3.455   4.231
31760W        W 1575  19.582   6.753  12.927
31761W        W 1576  17.680  17.738  13.434
31762W        W 1577  18.279   2.878  11.554
31763W        W 1578  21.172  40.825   3.384
31764W        W 1579  16.225  41.496   2.716
31765W        W 1580  28.545  16.236  14.915
31766W        W 1581  11.711  44.815   4.168
31767W        W 1582  30.057  42.837  14.759
31768W        W 1583  12.215  16.211   4.802
31769W        W 1584   0.967   1.920  10.960
31770W        W 1585   5.338  29.101  10.890
31771W        W 1586   6.423  43.957   3.713
31772W        W 1587  12.288  10.190   2.720
31773W        W 1588  31.425  16.273   1.281
31774W        W 1589  38.024  25.138  10.962
31775W        W 1590  38.992  15.650  14.304
31776W        W 1591  43.276   7.281   3.817
31777W        W 1592  37.567  33.909  12.580
31778W        W 1593  44.785  39.915  14.871
31779W        W 1594  43.417  15.580  14.936
31780W        W 1595  42.976   4.284  14.309
31781W        W 1596  32.601  34.385   2.222
31782W        W 1597  22.040  20.540  14.996
31783W        W 1598  43.368  10.791  12.577
31784W        W 1599  25.177   1.851   2.399
31785W        W 1600  37.930  33.072  12.954
31786W        W 1601  17.560  39.924  13.505
31787W        W 1602   7.356   7.700   0.843
31788W        W 1603  32.479  36.904   2.330
31789W        W 1604  43.438  31.639   4.253
31790W        W 1605  13.134  21.635  12.396
31791W        W 1606  37.343  28.957   0.809
31792W        W 1607  35.470  24.073  14.891
31793W        W 1608  17.684  16.764   1.716
31794W        W 1609   6.269  34.941   3.222
31795W        W 1610  42.804  44.010   3.247
31796W        W 1611  17.730   0.894  10.457
31797W        W 1612  14.734  12.262  10.558
31798W        W 1613  42.348  17.583  11.378
31799W        W 1614  39.000  24.651  12.989
31800W        W 1615   2.946   5.290  14.959
31801W        W 1616   5.845  43.481   0.905
31802W        W 1617  23.702  26.599  14.470
31803W        W 1618  23.239   0.286   3.373
31804W        W 1619   7.392  42.892   2.356
31805W        W 1620  19.602  16.799  12.927
31806W        W 1621  30.642  22.639  10.493
31807W        W 1622  26.519  41.875   3.858
31808W        W 1623   5.795   2.844  12.867
31809W        W 1624  33.392  20.763   2.672
31810W        W 1625  41.484  14.155  13.454
31811W        W 1626  27.554   6.846   0.403
31812W        W 1627   1.902  14.286   2.296
31813W        W 1628   1.850  22.697  10.967
31814W        W 1629  31.546  23.124  11.864
31815W        W 1630  22.233  14.801  14.991
31816W        W 1631  27.547  28.945  10.904
31817W        W 1632  24.085   2.346   1.845
31818W        W 1633   7.271  37.454   0.279
31819W        W 1634  33.067  31.007  12.448
31820W        W 1635  11.822  15.151  13.816
31821W        W 1636  18.784  30.138   3.371
31822W        W 1637  13.710   2.761  13.334
31823W        W 1638  41.994   6.702   4.166
31824W        W 1639  23.735  26.150   3.289
31825W        W 1640  17.593  24.612   3.837
31826W        W 1641  32.058  19.168  10.435
31827W        W 1642   4.296  22.716   2.677
31828W        W 1643  24.098  42.482   1.327
31829W        W 1644  43.324   5.924  13.358
31830W        W 1645   3.869  44.990   2.850
31831W        W 1646  42.911  24.054   4.181
31832W        W 1647   6.836  43.332  11.424
31833W        W 1648   1.395  18.679   3.226
31834W        W 1649  18.767  17.091  14.803
31835W        W 1650  28.496  36.047   0.394
31836W        W 1651  23.069  27.990  13.059
31837W        W 1652   6.834  22.024   3.680
31838W        W 1653  17.673  34.889  11.941
31839W        W 1654  24.077  11.771  11.483
31840W        W 1655  15.703   5.358  13.326
31841W        W 1656  12.815  13.331   3.166
31842W        W 1657  14.235  27.652   1.743
31843W        W 1658  37.348  14.176   4.834
31844W        W 1659   5.236   7.293  12.426
31845W        W 1660   0.874   8.887  12.339
31846W        W 1661   2.964  24.716  13.488
31847W        W 1662   4.815   1.811  11.015
31848W        W 1663  36.890  11.255  11.920
31849W        W 1664   9.267  38.890   1.924
31850W        W 1665  41.438  32.394  11.015
31851W        W 1666  44.892  31.555   2.803
31852W        W 1667   7.894  35.994  10.532
31853W        W 1668  25.130   2.809   3.771
31854W        W 1669  35.872   8.849  12.346
31855W        W 1670  28.522  32.005   0.396
31856W        W 1671   8.180  34.871   2.286
31857W        W 1672  38.407  32.942   2.810
31858W        W 1673   9.232  26.157  11.932
31859W        W 1674  11.212  34.994  12.579
31860W        W 1675  39.991  14.295  13.419
31861W        W 1676  21.702   8.695  13.396
31862W        W 1677  25.542   5.692  13.310
31863W        W 1678   5.230   7.240   2.309
31864W        W 1679  24.048  29.990   3.753
31865W        W 1680  29.448  36.433   0.732
31866W        W 1681  38.439  42.811   3.643
31867W        W 1682   3.378  13.264   1.295
31868W        W 1683  30.616  18.705   2.749
31869W        W 1684   2.875   5.744   4.620
31870W        W 1685  43.997  38.392   1.386
31871W        W 1686   5.774  40.797  13.414
31872W        W 1687  11.782   6.317   5.253
31873W        W 1688  40.497  15.141  13.467
31874W        W 1689  25.616  11.203   3.727
31875W        W 1690  13.827  19.113   1.884
31876W        W 1691  13.345  34.559   1.278
31877W        W 1692  42.841  33.079   2.205
31878W        W 1693  13.811  38.852  12.363
31879W        W 1694  24.187  21.705  12.925
31880W        W 1695  25.123   8.766  11.118
31881W        W 1696  34.518  26.956  10.554
31882W        W 1697  41.328  17.271  14.865
31883W        W 1698  20.105  32.415   4.250
31884W        W 1699   0.793   2.883  11.108
31885W        W 1700  29.630  37.501   9.955
31886W        W 1701  29.970   5.814   0.300
31887W        W 1702  21.666  10.876  14.905
31888W        W 1703  26.519  25.503   4.645
31889W        W 1704  43.910  23.185   4.273
31890W        W 1705  24.211  26.606  13.418
31891W        W 1706   9.684  28.001  11.438
31892W        W 1707  17.150  38.400   1.877
31893W        W 1708  39.930   0.342   2.845
31894W        W 1709  15.585   0.787  13.316
31895W        W 1710   4.813   3.815   3.176
31896W        W 1711  17.610  17.220  12.970
31897W        W 1712  10.294  25.075   4.173
31898W        W 1713  20.177  37.348  13.923
31899W        W 1714   8.276  40.870  13.909
31900W        W 1715  42.300  31.144   2.336
31901W        W 1716  15.203  22.583  12.401
31902W        W 1717  28.017  26.459  13.813
31903W        W 1718  37.081   9.644   3.640
31904W        W 1719  28.986  12.164  14.424
31905W        W 1720   1.920  29.160  13.333
31906W        W 1721   3.291  42.873  11.995
31907W        W 1722  35.498  23.076   2.320
31908W        W 1723   0.987  16.229   4.311
31909W        W 1724  18.544  32.515   3.803
31910W        W 1725   8.899   2.366   1.856
31911W        W 1726   5.850  43.794  14.476
31912W        W 1727  13.729  39.922  14.918
31913W        W 1728  40.930  13.655  10.519
31914W        W 1729  16.094  36.003   1.355
31915W        W 1730   3.329  34.448  14.978
31916W        W 1731   2.243  36.912   0.323
31917W        W 1732  31.478   1.337   0.917
31918W        W 1733  20.690  39.919   4.316
31919W        W 1734  27.663   5.247  11.040
31920W        W 1735  14.800   5.695  14.028
31921W        W 1736   9.240  11.726   4.154
31922W        W 1737   0.767  20.174   3.236
31923W        W 1738  22.676   8.341   4.289
31924W        W 1739  39.396   1.785   2.310
31925W        W 1740   7.707   3.349   1.925
31926W        W 1741  12.833  28.053   2.314
31927W        W 1742  11.803   9.252   4.773
31928W        W 1743  37.488   9.178   4.776
31929W        W 1744  21.075  31.532  11.056
31930W        W 1745  35.492  27.563  13.003
31931W        W 1746   1.363  14.591   2.409
31932W        W 1747   3.440  44.459  14.762
31933W        W 1748  14.636   1.741  14.403
31934W        W 1749   7.326  42.392  13.034
31935W        W 1750  30.473  13.122  13.465
31936W        W 1751  15.685  20.748   1.362
31937W        W 1752  34.880   1.401  12.502
31938W        W 1753  26.981  11.839  10.478
31939W        W 1754   2.960  34.459   1.786
31940W        W 1755  26.552  35.590  11.883
31941W        W 1756  11.771  18.731  14.011
31942W        W 1757  28.556  34.970   0.291
31943W        W 1758  24.540   1.335   3.311
31944W        W 1759  28.081  23.228  14.275
31945W        W 1760  37.390  34.607  12.504
31946W        W 1761   1.252  15.698  10.905
31947W        W 1762  21.035  20.032   4.116
31948W        W 1763   5.377   7.699   4.754
31949W        W 1764   4.228   3.803  14.296
31950W        W 1765  40.396  25.986   4.305
31951W        W 1766  24.566  19.205  12.908
31952W        W 1767  40.362  19.284   4.742
31953W        W 1768  15.782   9.868   1.728
31954W        W 1769  31.949  12.266   2.731
31955W        W 1770  37.456  11.202  12.346
31956W        W 1771   4.744  32.463   1.934
31957W        W 1772   8.755   6.746   2.279
31958W        W 1773  11.633  14.102  12.010
31959W        W 1774  32.916   0.423  11.417
31960W        W 1775  35.062  20.255   3.152
31961W        W 1776   9.282   2.370  13.899
31962W        W 1777   7.291   5.780  10.995
31963W        W 1778   2.773  28.598   0.806
31964W        W 1779   2.345  19.727  12.358
31965W        W 1780  20.690  37.931  12.862
31966W        W 1781  43.988  22.611  11.569
31967W        W 1782  43.334  44.475  13.362
31968W        W 1783  14.797  36.849  11.885
31969W        W 1784   4.209  10.750   4.631
31970W        W 1785   9.240  30.486   4.317
31971W        W 1786  23.067  41.375  14.896
31972W        W 1787   2.805  26.071  14.465
31973W        W 1788  34.497  26.131   0.362
31974W        W 1789  29.617  11.841   3.243
31975W        W 1790  31.103  40.430   1.246
31976W        W 1791  24.042  25.638   4.215
31977W        W 1792  43.311  13.315   0.390
31978W        W 1793   6.278  29.630  12.095
31979W        W 1794  29.952   2.852   2.801
31980W        W 1795  36.986  29.158   1.870
31981W        W 1796  39.406  12.127  12.077
31982W        W 1797  28.147  43.983   3.686
31983W        W 1798   6.760   9.264   3.321
31984W        W 1799   4.245  27.522  13.812
31985W        W 1800  26.086  33.964  14.985
31986W        W 1801  41.330  19.244   3.792
31987W        W 1802   0.750  17.704   3.721
31988W        W 1803  24.211   7.346   2.735
31989W        W 1804   8.282   6.224   4.323
31990W        W 1805  37.979  42.939  11.967
31991W        W 1806  10.636  37.002   3.869
31992W        W 1807  40.472   3.734   2.900
31993W        W 1808  13.110  20.726  13.438
31994W        W 1809  35.993   0.262   3.277
31995W        W 1810  30.934   4.360  13.391
31996W        W 1811  29.560  21.634   0.452
31997W        W 1812  36.364  39.458  12.872
31998W        W 1813   6.714  29.971  12.556
31999W        W 1814  43.377  24.523  12.511
32000W        W 1815  33.625  39.508   2.745
32001W        W 1816  43.335  31.583   1.831
32002W        W 1817  40.019  36.584   2.815
32003W        W 1818  44.840  16.145  11.569
32004W        W 1819  44.291  26.033   1.758
32005W        W 1820  25.593  16.189  12.967
32006W        W 1821  23.026  10.322   4.730
32007W        W 1822  31.617  32.049  10.416
32008W        W 1823  10.155   7.373   4.175
32009W        W 1824  16.229  15.744   0.793
32010W        W 1825  22.554  10.638  11.094
32011W        W 1826  31.141  40.859   1.433
32012W        W 1827  43.906  15.744  13.008
32013W        W 1828  43.283   2.325   4.622
32014W        W 1829  40.860  20.619  10.511
32015W        W 1830  14.798  26.665  12.930
32016W        W 1831  26.011  26.556   1.221
32017W        W 1832  16.753  44.478   3.663
32018W        W 1833  32.472  39.854   0.771
32019W        W 1834  15.249  10.756   3.820
32020W        W 1835  16.753  24.649  12.568
32021W        W 1836  14.202  43.310   4.679
32022W        W 1837  15.159   5.352   3.312
32023W        W 1838  37.565   0.353   5.244
32024W        W 1839   6.868   3.712   2.770
32025W        W 1840  34.949  36.526  12.891
32026W        W 1841   6.706  34.608  11.079
32027W        W 1842   5.857  29.614   2.857
32028W        W 1843  21.689  34.414   0.770
32029W        W 1844  37.861  41.391  11.120
32030W        W 1845  25.166  43.498   2.205
32031W        W 1846  12.127  26.993  14.840
32032W        W 1847   6.892  29.974   3.149
32033W        W 1848   8.393   0.815   4.248
32034W        W 1849  30.035   8.228  14.499
32035W        W 1850   8.299  10.292  11.437
32036W        W 1851   3.326   5.248  14.877
32037W        W 1852   4.443  21.735  14.987
32038W        W 1853  18.672  17.784   2.261
32039W        W 1854  30.577  41.857  13.049
32040W        W 1855  41.897   5.332   3.639
32041W        W 1856  19.646  43.000  10.579
32042W        W 1857  11.703  11.825  12.419
32043W        W 1858  43.300  15.326   3.818
32044W        W 1859  20.607   6.732  11.036
32045W        W 1860  39.956   3.895  12.526
32046W        W 1861  43.801  33.621  10.412
32047W        W 1862  21.597  25.058   2.815
32048W        W 1863  27.098  31.045   2.743
32049W        W 1864  16.808  13.274   4.792
32050W        W 1865  44.941  13.833  10.620
32051W        W 1866  36.506  44.426  10.592
32052W        W 1867   4.264  39.393  13.853
32053W        W 1868  44.963   6.895   1.795
32054W        W 1869  35.919  30.553   2.325
32055W        W 1870  23.112  13.826   3.365
32056W        W 1871  33.909  17.073  12.367
32057W        W 1872  11.716  17.646   1.373
32058W        W 1873  30.641  16.610  11.125
32059W        W 1874  41.903   5.837   4.797
32060W        W 1875  26.532  13.721  13.498
32061W        W 1876   0.423  29.430   4.244
32062W        W 1877  23.560   3.826   2.270
32063W        W 1878  16.108  15.618   0.466
32064W        W 1879  26.642  43.971   2.696
32065W        W 1880  26.115  12.304   1.426
32066W        W 1881   7.813  23.234   4.354
32067W        W 1882  20.639  37.977   3.809
32068W        W 1883  11.792   9.379  11.122
32069W        W 1884  20.624   0.808   2.844
32070W        W 1885  38.948   1.359  10.106
32071W        W 1886  35.456  16.227   1.809
32072W        W 1887  10.216  21.561   0.908
32073W        W 1888   1.746  18.214  13.820
32074W        W 1889  38.885  26.520   4.687
32075W        W 1890   4.866  38.331   4.309
32076W        W 1891  10.248  24.225   2.417
32077W        W 1892  34.561  25.535   4.149
32078W        W 1893   4.794  26.026   3.292
32079W        W 1894   1.303  20.761  11.064
32080W        W 1895  44.972  28.107  11.589
32081W        W 1896  35.576  40.884  12.986
32082W        W 1897  36.038  26.203  12.459
32083W        W 1898   7.754   8.243  11.380
32084W        W 1899  18.701  36.430  12.959
32085W        W 1900  34.516  25.467   2.392
32086W        W 1901  42.807  28.435   3.170
32087W        W 1902  20.169  18.153   1.852
32088W        W 1903  19.065  21.612  10.967
32089W        W 1904  21.170  28.934  14.498
32090W        W 1905  43.313  26.495   4.774
32091W        W 1906  22.081   5.400   2.314
32092W        W 1907  44.910   1.877   2.286
32093W        W 1908  32.503  15.220   1.303
32094W        W 1909  22.561  37.025   3.374
32095W        W 1910  17.778   6.875  11.528
32096W        W 1911  19.547  43.484   2.226
32097W        W 1912  29.162  31.422   2.418
32098W        W 1913  18.088   1.397   4.694
32099W        W 1914  15.084  20.234  10.937
32100W        W 1915  32.403  33.626   0.795
32101W        W 1916  20.152  31.929  13.906
32102W        W 1917  34.996  11.261  13.980
32103W        W 1918   6.317  14.209   3.789
32104W        W 1919   5.699  43.307  14.949
32105W        W 1920  23.119   5.734  11.387
32106W        W 1921  42.300  13.706  14.401
32107W        W 1922  24.225  26.618   2.790
32108W        W 1923  10.318  10.176   0.786
32109W        W 1924   5.207  39.343   4.329
32110W        W 1925  43.857  12.651  10.931
32111W        W 1926  40.841  16.143   1.391
32112W        W 1927   7.199   6.830   0.887
32113W        W 1928  31.942  19.612   4.678
32114W        W 1929   2.729  18.204  14.356
32115W        W 1930  38.518  22.138  12.474
32116W        W 1931  19.101   4.284  11.934
32117W        W 1932  30.588  17.557   2.277
32118W        W 1933   4.750  30.033  11.121
32119W        W 1934  20.230   5.326  14.430
32120W        W 1935  40.832  34.102   0.402
32121W        W 1936  38.841  12.243  10.515
32122W        W 1937   9.684  44.956   1.796
32123W        W 1938  37.462  43.506   2.318
32124W        W 1939   5.791   3.718   3.316
32125W        W 1940  12.639  35.480   1.246
32126W        W 1941   8.226  29.468  12.498
32127W        W 1942  41.000  19.194   4.134
32128W        W 1943  40.804  25.524   1.365
32129W        W 1944  38.836  17.127  10.420
32130W        W 1945  34.019   6.410   1.381
32131W        W 1946   9.186  42.811  10.617
32132W        W 1947  35.962  41.478   0.921
32133W        W 1948  35.599   4.286   3.821
32134W        W 1949  32.422   1.817   1.698
32135W        W 1950  24.995   4.258   2.778
32136W        W 1951   8.167  42.355  12.086
32137W        W 1952  39.383  13.298   3.748
32138W        W 1953  36.939   4.240   0.908
32139W        W 1954   4.420  27.069  13.536
32140W        W 1955  30.061  10.854  14.416
32141W        W 1956   4.772  44.898  12.367
32142W        W 1957  26.688  10.840   0.272
32143W        W 1958  35.573  37.359  13.885
32144W        W 1959   2.753  41.039   4.342
32145W        W 1960  40.006  27.665   0.774
32146W        W 1961  22.731  27.021  13.459
32147W        W 1962  27.506  43.513  10.974
32148W        W 1963  42.305   7.893  14.329
32149W        W 1964  36.848  39.960  11.591
32150W        W 1965  44.307   4.370   0.436
32151W        W 1966  33.111  37.884  12.942
32152W        W 1967   1.426  37.845  11.568
32153W        W 1968  26.473   5.316   2.871
32154W        W 1969  11.644  40.541  12.417
32155W        W 1970  12.359  20.667   4.299
32156W        W 1971  39.472  39.873  11.406
32157W        W 1972   5.804  21.558  11.082
32158W        W 1973   8.810  44.284  14.293
32159W        W 1974  17.619  19.709   1.902
32160W        W 1975  27.617   9.268  10.455
32161W        W 1976  27.979   9.760  14.759
32162W        W 1977  27.012  12.733   4.767
32163W        W 1978   3.306  36.397  11.899
32164W        W 1979  31.147  24.226   3.633
32165W        W 1980  37.906  14.206   1.341
32166W        W 1981   9.153  40.027  14.431
32167W        W 1982   1.446  31.073  14.025
32168W        W 1983  25.709  42.783   1.369
32169W        W 1984  23.111   5.741   4.814
32170W        W 1985   4.418  34.911  14.941
32171W        W 1986  30.969  29.155   3.814
32172W        W 1987  20.032  12.191   0.738
32173W        W 1988  12.639  16.586  13.482
32174W        W 1989  30.941   9.839   1.869
32175W        W 1990   7.401   3.828  10.943
32176W        W 1991  36.361  27.604  14.826
32177W        W 1992  35.874  19.768  13.373
32178W        W 1993  26.503  21.523   3.698
32179W        W 1994  14.815   4.222  11.541
32180W        W 1995   1.321  28.441   4.726
32181W        W 1996  36.581  28.044   3.154
32182W        W 1997   8.764  26.621  13.816
32183W        W 1998   2.359   3.723  11.970
32184W        W 1999   8.843   4.755  11.467
32185W        W 2000  28.934  14.316  13.355
32186W        W 2001  27.964   6.374   0.419
32187W        W 2002  19.664   0.260  13.879
32188W        W 2003   1.429   6.413  10.420
32189W        W 2004  10.331  19.582  10.525
32190W        W 2005  44.886  22.648   4.830
32191W        W 2006  30.506   1.898   3.234
32192W        W 2007  42.810  37.411   0.386
32193W        W 2008   1.734  37.473  13.795
32194W        W 2009  11.283  25.219  11.012
32195W        W 2010   8.342  40.026   2.686
32196W        W 2011  15.186  11.841   4.334
32197W        W 2012  23.598  26.622   4.797
32198W        W 2013  23.051   3.274  13.827
32199W        W 2014  18.188   7.687   2.317
32200W        W 2015  38.414   1.346   2.399
32201W        W 2016  37.899  22.108   1.821
32202W        W 2017  41.010  12.632   3.755
32203W        W 2018  37.832  22.178   3.776
32204W        W 2019   4.915  33.407  12.565
32205W        W 2020  20.749  13.784  13.952
32206W        W 2021  23.989  20.726   4.762
32207W        W 2022  12.784  31.959   0.834
32208W        W 2023  18.139  36.001  12.395
32209W        W 2024   5.830  28.149  14.795
32210W        W 2025   2.896  41.801   2.246
32211W        W 2026  38.450  42.360   0.312
32212W        W 2027  12.661  23.509  11.888
32213W        W 2028   3.368  22.559  14.890
32214W        W 2029   5.884  37.500   1.259
32215W        W 2030  22.509  38.373  10.564
32216W        W 2031  20.044  26.207   2.679
32217W        W 2032  12.698  19.596   2.357
32218W        W 2033  12.327  30.154  10.563
32219W        W 2034  43.965  26.045  11.448
32220W        W 2035  44.287  17.198   2.776
32221W        W 2036  29.941  29.602   0.427
32222W        W 2037  24.992  24.500   2.856
32223W        W 2038   1.243  19.051   0.757
32224W        W 2039  21.563  42.407   4.736
32225W        W 2040  44.765  21.576   1.403
32226W        W 2041  31.044  21.089   4.743
32227W        W 2042  15.809   6.412   2.247
32228W        W 2043  32.604  10.357   2.282
32229W        W 2044   7.718  11.240   1.889
32230W        W 2045  36.453  19.164   0.814
32231W        W 2046  25.525  20.213  10.572
32232W        W 2047   8.378   7.241  14.333
32233W        W 2048  36.888  26.679   2.684
32234W        W 2049   7.386  38.976  13.865
32235W        W 2050  32.900   4.410  14.865
32236W        W 2051  40.804  39.936  13.995
32237W        W 2052  36.466  10.757   2.791
32238W        W 2053  28.529  13.755  14.934
32239W        W 2054  19.567  20.567   1.790
32240W        W 2055   0.776  29.624   1.429
32241W        W 2056  21.202   8.825   2.848
32242W        W 2057  35.065  17.164  14.343
32243W        W 2058  10.335  44.770  10.972
32244W        W 2059  42.354  16.702   4.320
32245W        W 2060  41.363  16.706  10.084
32246W        W 2061  38.967   5.932   3.255
32247W        W 2062  43.814  22.673  11.859
32248W        W 2063  21.632   6.826  13.436
32249W        W 2064  35.991  40.828   4.346
32250W        W 2065  42.417  32.466  14.985
32251W        W 2066  38.070  19.563   2.243
32252W        W 2067   2.852  23.721   0.858
32253W        W 2068   6.775  32.435  11.091
32254W        W 2069  23.567  41.894   0.813
32255W        W 2070  10.688   8.804  14.997
32256W        W 2071  21.061  40.374  10.406
32257W        W 2072  32.483  13.111  14.503
32258W        W 2073   3.280  14.147  13.381
32259W        W 2074  16.761   7.236  12.474
32260W        W 2075  27.685   2.786   3.640
32261W        W 2076  16.112  21.055   1.328
32262W        W 2077   9.765  40.952   2.333
32263W        W 2078  23.220  17.252   4.239
32264W        W 2079  36.471  32.596   3.824
32265W        W 2080  10.326  25.640   3.701
32266W        W 2081  14.195  34.094  13.482
32267W        W 2082  11.290  17.172   4.131
32268W        W 2083  23.022  38.353  10.571
32269W        W 2084   8.771   3.274   0.868
32270W        W 2085  22.102  21.040   4.629
32271W        W 2086  29.529  43.271  13.940
32272W        W 2087  29.089  38.501  11.426
32273W        W 2088  38.843  34.111   2.741
32274W        W 2089  13.814   3.366  14.984
32275W        W 2090  34.584  23.721   3.819
32276W        W 2091  11.313   6.213   3.352
32277W        W 2092   0.896  39.839   2.674
32278W        W 2093  21.740  35.026   2.222
32279W        W 2094  20.526  13.686   2.861
32280W        W 2095  15.788  39.943   4.824
32281W        W 2096  40.832  32.121   2.256
32282W        W 2097  16.630   8.661  10.904
32283W        W 2098  37.064  30.592   0.316
32284W        W 2099  36.390   4.368   1.926
32285W        W 2100  26.594  42.952   0.286
32286W        W 2101  23.117  11.655   3.680
32287W        W 2102  16.229  41.851  12.473
32288W        W 2103  15.298  16.318   4.751
32289W        W 2104  12.202  36.884  12.948
32290W        W 2105   9.349  33.468   4.739
32291W        W 2106  11.365  35.853  12.420
32292W        W 2107  24.159   6.891  10.961
32293W        W 2108  41.306  13.259  14.383
32294W        W 2109  25.016   7.764   2.855
32295W        W 2110  22.649  36.844  14.507
32296W        W 2111   0.400   9.249   0.287
32297W        W 2112  19.194  10.865   3.810
32298W        W 2113  34.410  35.903   2.367
32299W        W 2114  40.887  22.198   4.348
32300W        W 2115   4.942  28.094  11.612
32301W        W 2116   6.699   7.706  13.859
32302W        W 2117   5.688  15.795   2.681
32303W        W 2118  21.673   9.825  12.954
32304W        W 2119  44.986  32.009   1.750
32305W        W 2120   4.723   7.334   3.264
32306W        W 2121  43.861  40.936   1.324
32307W        W 2122  25.047  40.318   0.320
32308W        W 2123  26.099  15.106  11.123
32309W        W 2124  29.664  22.600   2.899
32310W        W 2125  28.163   0.902  11.120
32311W        W 2126  18.550  39.875   0.895
32312W        W 2127  21.732  32.040  10.624
32313W        W 2128  35.891  17.191   3.807
32314W        W 2129   0.797  26.470   0.287
32315W        W 2130  18.708  44.350   0.781
32316W        W 2131  36.500  15.164   1.863
32317W        W 2132  30.975  20.668  14.951
32318W        W 2133  16.630  27.458  14.845
32319W        W 2134   8.781  28.118   2.407
32320W        W 2135   5.372  43.904   1.812
32321W        W 2136  27.126  28.082  13.880
32322W        W 2137  34.577  29.949  11.564
32323W        W 2138   9.782  23.511   1.749
32324W        W 2139  25.574   5.264  14.311
32325W        W 2140  27.513  28.585  11.066
32326W        W 2141   5.782  24.195  11.605
32327W        W 2142   0.900  42.313   3.234
32328W        W 2143  19.043  34.578  11.499
32329W        W 2144  34.444  14.654  10.497
32330W        W 2145  18.063  25.592   4.116
32331W        W 2146  11.215   1.424   0.899
32332W        W 2147  27.096   9.868  11.129
32333W        W 2148  40.340  20.243  14.409
32334W        W 2149   2.779  37.526   3.162
32335W        W 2150   5.223  20.101   1.701
32336W        W 2151   7.793  11.652   4.721
32337W        W 2152  37.925  24.616  13.429
32338W        W 2153  38.985  42.375  14.487
32339W        W 2154  35.432  41.442   0.475
32340W        W 2155  11.343  43.317   0.781
32341W        W 2156  42.964   5.847  10.918
32342W        W 2157  11.185  17.649  14.779
32343W        W 2158   0.404  13.163   2.841
32344W        W 2159  40.424  13.680  12.016
32345W        W 2160  28.511  15.787   0.359
32346W        W 2161  44.477  16.083  11.498
32347W        W 2162  10.823   5.878   2.845
32348W        W 2163  44.943   6.768  11.462
32349W        W 2164  29.619   9.828  12.044
32350W        W 2165  17.584  40.421   3.776
32351W        W 2166  30.954   3.304  10.627
32352W        W 2167   6.864  37.404   1.292
32353W        W 2168  30.134   3.351   0.856
32354W        W 2169  22.590   6.277  12.451
32355W        W 2170   7.775  43.459   2.330
32356W        W 2171  32.062  17.144   2.825
32357W        W 2172  16.297   9.246   2.889
32358W        W 2173   1.902  30.945  12.830
32359W        W 2174   7.203  40.425   2.760
32360W        W 2175  12.748  28.607  11.935
32361W        W 2176   7.185  32.501  11.862
32362W        W 2177  24.047  17.249  14.441
32363W        W 2178  36.435  35.049  11.889
32364W        W 2179   7.763  44.487   5.122
32365W        W 2180  16.110  35.951  12.521
32366W        W 2181  42.414  37.505   4.653
32367W        W 2182  22.051  21.706  14.462
32368W        W 2183  38.851  34.546   0.859
32369W        W 2184  10.163  30.145  14.875
32370W        W 2185  41.404   4.741  11.446
32371W        W 2186  39.466  38.914   9.968
32372W        W 2187  43.864   3.274   3.794
32373W        W 2188  16.218  14.612   3.786
32374W        W 2189  37.394  32.560   4.334
32375W        W 2190  36.919  26.675   3.852
32376W        W 2191  37.421  14.776   3.220
32377W        W 2192  23.089  43.021   1.935
32378W        W 2193  33.038  10.767  12.963
32379W        W 2194  43.922  36.452   3.632
32380W        W 2195  22.152   4.864   0.949
32381W        W 2196   0.758  20.237  13.039
32382W        W 2197  29.099  14.202   1.869
32383W        W 2198  27.632  28.528   3.297
32384W        W 2199   5.272  27.532  10.467
32385W        W 2200  30.106  13.796   2.217
32386W        W 2201  13.260   5.238  14.863
32387W        W 2202   3.794  22.618   1.296
32388W        W 2203  30.002   6.315   3.261
32389W        W 2204  38.921  38.523   3.187
32390W        W 2205  17.774   2.910   0.429
32391W        W 2206  40.511  13.648   4.269
32392W        W 2207  24.169  29.446  12.576
32393W        W 2208  43.012   7.791   3.272
32394W        W 2209  42.889  39.512   2.313
32395W        W 2210   5.847  39.396   2.665
32396W        W 2211  35.031  27.669   1.888
32397W        W 2212  39.934  30.063  10.532
32398W        W 2213   3.745  42.934  10.625
32399W        W 2214  20.638  37.869   0.766
32400W        W 2215  34.458  18.164   2.324
32401W        W 2216  20.602   7.394  14.446
32402W        W 2217   7.276  43.342  10.509
32403W        W 2218  11.823  36.358  13.499
32404W        W 2219   6.772  18.615   1.253
32405W        W 2220  26.665  31.058  14.365
32406W        W 2221  31.538  23.711  11.106
32407W        W 2222  20.032   4.743  14.505
32408W        W 2223  22.032  31.105  14.337
32409W        W 2224  35.860  33.398  10.028
32410W        W 2225  20.526  41.388   1.709
32411W        W 2226  43.337  14.335   3.680
32412W        W 2227  34.612  35.001  11.972
32413W        W 2228   3.737   5.846   3.693
32414W        W 2229  28.658  21.254   4.690
32415W        W 2230  11.867  42.325  13.318
32416W        W 2231  19.663   9.270  10.417
32417W        W 2232   2.356  22.633   4.354
32418W        W 2233  41.799  16.197   4.167
32419W        W 2234  28.511  12.805   2.236
32420W        W 2235  21.732  39.443  11.103
32421W        W 2236  27.087  21.203   2.394
32422W        W 2237  41.947  35.538  13.501
32423W        W 2238  37.020  41.406   4.800
32424W        W 2239   4.898   0.457   2.232
32425W        W 2240  34.379  44.785  14.423
32426W        W 2241  13.698  28.662  14.284
32427W        W 2242  14.709   4.204  14.907
32428W        W 2243  29.440   0.951   1.696
32429W        W 2244   0.956  24.500  14.282
32430W        W 2245  12.700  22.185  12.915
32431W        W 2246  36.061  41.865  13.540
32432W        W 2247  19.076  43.008  10.571
32433W        W 2248  12.831  43.314   2.672
32434W        W 2249   6.805  38.864  13.939
32435W        W 2250   6.801  34.612  12.433
32436W        W 2251  31.578  37.962   3.359
32437W        W 2252   4.366  13.768   3.861
32438W        W 2253   5.762   0.454  14.286
32439W        W 2254  35.022  23.183   4.694
32440W        W 2255   9.692  28.611  11.394
32441W        W 2256  42.939   9.153  13.844
32442W        W 2257  37.937  38.435   4.200
32443W        W 2258  24.049   8.397   3.228
32444W        W 2259   2.754  20.669  11.058
32445W        W 2260  44.334  14.588  10.525
32446W        W 2261  13.699  40.989  11.885
32447W        W 2262  43.833  43.442   3.777
32448W        W 2263  36.096   4.331  14.325
32449W        W 2264   2.421  30.993   2.790
32450W        W 2265  16.255  24.560  14.386
32451W        W 2266  16.267  33.573   1.775
32452W        W 2267  11.269  34.028  12.901
32453W        W 2268   8.400  27.591   2.708
32454W        W 2269  24.713  41.321  10.462
32455W        W 2270   7.707   5.378  12.511
32456W        W 2271  27.156  18.711   2.311
32457W        W 2272  34.010  42.457  13.518
32458W        W 2273   6.901  28.011  10.924
32459W        W 2274  28.546  23.070  13.973
32460W        W 2275  36.968  20.102  13.045
32461W        W 2276  24.083  10.364   1.714
32462W        W 2277  19.270  23.128   4.171
32463W        W 2278   4.387  23.589  14.935
32464W        W 2279  21.642  29.115  10.974
32465W        W 2280   6.349   6.755   2.373
32466W        W 2281  41.460  12.124   4.777
32467W        W 2282  21.149  31.435   4.770
32468W        W 2283  19.252  26.151  11.933
32469W        W 2284  30.603  14.171   0.380
32470W        W 2285  28.174   2.326   1.841
32471W        W 2286  39.351  15.261  13.312
32472W        W 2287   3.275  26.161   4.116
32473W        W 2288   5.781  16.591  11.577
32474W        W 2289  24.207  26.187   0.312
32475W        W 2290  33.052  42.521   2.332
32476W        W 2291  24.497   8.709  14.311
32477W        W 2292  12.794  14.745   2.718
32478W        W 2293  25.536  43.496   2.222
32479W        W 2294   5.801  31.624  11.093
32480W        W 2295  21.681  36.531  13.418
32481W        W 2296  37.360   4.786  11.982
32482W        W 2297  19.605  24.716  14.300
32483W        W 2298  34.928  10.193   2.708
32484W        W 2299  44.324   1.408   1.931
32485W        W 2300  14.258  36.479  13.036
32486W        W 2301  26.657  20.060  14.312
32487W        W 2302   6.836  36.944  13.420
32488W        W 2303  34.605  42.477  11.481
32489W        W 2304  11.169  27.955   4.753
32490W        W 2305  21.703  20.621   1.268
32491W        W 2306  20.731  43.317   4.608
32492W        W 2307  16.318  19.535  10.631
32493W        W 2308  13.332  17.654   3.371
32494W        W 2309   3.905  41.488  13.013
32495W        W 2310  23.107  39.414   2.733
32496W        W 2311  16.806  39.043  14.424
32497W        W 2312  36.950  44.773   3.367
32498W        W 2313   8.825   2.779  14.347
32499W        W 2314  13.119  35.982  10.530
32500W        W 2315  16.269  44.949  10.471
32501W        W 2316  22.164  15.708  14.436
32502W        W 2317  36.377  20.193   2.377
32503W        W 2318  38.541  41.849   2.773
32504W        W 2319  36.434  24.138  11.570
32505W        W 2320  35.090  37.077   3.776
32506W        W 2321  34.437  22.076   2.324
32507W        W 2322  11.159  33.537  10.086
32508W        W 2323   1.453  34.571   1.380
32509W        W 2324   2.803  32.416   0.804
32510W        W 2325  28.540  38.394   4.683
32511W        W 2326  32.437  24.973  10.459
32512W        W 2327  39.830  21.069   0.256
32513W        W 2328  30.981  42.332  11.863
32514W        W 2329  29.093   1.242  14.965
32515W        W 2330  19.271  36.570  13.902
32516W        W 2331  41.367  17.746   3.800
32517W        W 2332  32.626  30.520   0.278
32518W        W 2333  38.490  23.673  12.511
32519W        W 2334   5.242  34.016   2.183
32520W        W 2335  16.629  22.171  11.875
32521W        W 2336  10.249  42.377   1.312
32522W        W 2337  31.974  20.121   4.780
32523W        W 2338  25.972   4.301   0.828
32524W        W 2339  12.818  35.869   2.891
32525W        W 2340  40.940  24.056   1.334
32526W        W 2341  44.291  38.382   0.771
32527W        W 2342   9.197  12.329   2.322
32528W        W 2343  28.000   8.285   0.290
32529W        W 2344  44.832  44.410  11.520
32530W        W 2345  36.975  40.527  14.306
32531W        W 2346  23.532  18.786   0.840
32532W        W 2347  21.723  28.046  14.367
32533W        W 2348  43.433  37.555   2.256
32534W        W 2349  10.268  29.958  12.874
32535W        W 2350   0.459   8.355  14.900
32536W        W 2351  38.444   0.851  11.585
32537W        W 2352   5.237   1.756   2.311
32538W        W 2353  36.418  16.758  11.986
32539W        W 2354  13.622  28.471   3.640
32540W        W 2355  32.498  29.946   4.608
32541W        W 2356  15.808  24.020   3.812
32542W        W 2357   5.899  40.883   1.279
32543W        W 2358  32.413  41.007   4.745
32544W        W 2359  22.198   4.721  14.455
32545W        W 2360  32.992   7.306   4.203
32546W        W 2361  16.135  25.144  11.907
32547W        W 2362  12.614  29.580   3.167
32548W        W 2363  15.245  35.050  12.825
32549W        W 2364  28.529  25.173   3.743
32550W        W 2365  34.411  34.542   1.766
32551W        W 2366  20.651  34.562   1.272
32552W        W 2367  43.775  10.777  11.502
32553W        W 2368  16.194  26.508   3.644
32554W        W 2369   8.327  22.590  10.550
32555W        W 2370   5.333  34.484   1.214
32556W        W 2371  33.431  43.360   0.887
32557W        W 2372  36.021  42.415   4.198
32558W        W 2373  22.541  36.543  12.036
32559W        W 2374  16.784   8.780  14.804
32560W        W 2375  32.566  25.071   2.679
32561W        W 2376  27.179  16.160  12.539
32562W        W 2377   6.263  26.633   5.283
32563W        W 2378  28.172  21.254   1.837
32564W        W 2379  31.920  34.514  13.002
32565W        W 2380  22.074  17.149   3.706
32566W        W 2381   8.297   5.267  11.421
32567W        W 2382  32.573  13.683   4.830
32568W        W 2383  29.935   2.243   0.303
32569W        W 2384   7.222  25.215   4.348
32570W        W 2385  30.941   0.317  13.924
32571W        W 2386  27.526  43.848  14.371
32572W        W 2387  11.659  33.562   2.765
32573W        W 2388   0.894   1.936   1.245
32574W        W 2389  19.083  36.548   1.293
32575W        W 2390   2.339  33.044  14.949
32576W        W 2391  18.129  41.957  11.064
32577W        W 2392  24.003  31.025  13.986
32578W        W 2393  38.016  28.951   3.663
32579W        W 2394  40.923   0.424   3.675
32580W        W 2395  26.147  27.018   3.671
32581W        W 2396  28.932  15.651  12.083
32582W        W 2397  32.505  29.151   0.303
32583W        W 2398  28.967   0.784  10.429
32584W        W 2399   0.879   5.213  10.940
32585W        W 2400   3.847  15.777   4.233
32586W        W 2401  44.363  22.713   4.785
32587W        W 2402   4.408   5.207  14.503
32588W        W 2403  32.605  26.500   3.721
32589W        W 2404   3.399  14.626  13.867
32590W        W 2405  13.321  41.944   1.223
32591W        W 2406   0.769   5.703  12.351
32592W        W 2407   3.448  31.962   3.225
32593W        W 2408  41.476  30.927  13.968
32594W        W 2409  26.489  42.833   3.238
32595W        W 2410  11.209  42.865  14.467
32596W        W 2411  36.583  20.242   3.703
32597W        W 2412  25.978  15.229  10.638
32598W        W 2413  35.519   0.913   4.113
32599W        W 2414  16.604  30.567   3.316
32600W        W 2415  23.698  44.868   4.322
32601W        W 2416  40.457  33.915  14.471
32602W        W 2417  24.609  33.123  11.997
32603W        W 2418   1.350  33.129  10.483
32604W        W 2419   8.754  34.057   0.948
32605W        W 2420  35.967   3.345   1.757
32606W        W 2421  19.745  43.298   1.696
32607W        W 2422  22.191  28.170   0.899
32608W        W 2423  41.816   1.342  12.404
32609W        W 2424  24.193  15.319  13.873
32610W        W 2425  36.892  43.937  14.485
32611W        W 2426  23.031  40.037  12.514
32612W        W 2427  24.541   7.809   0.405
32613W        W 2428  13.162  38.830   4.305
32614W        W 2429  38.975  28.073  10.969
32615W        W 2430   1.976  32.918  12.537
32616W        W 2431  43.457  20.593   4.774
32617W        W 2432   1.454  30.912   4.818
32618W        W 2433  35.058  33.597  12.434
32619W        W 2434   0.356  14.618   2.374
32620W        W 2435   5.760  28.097   4.278
32621W        W 2436   4.817  39.351   1.882
32622W        W 2437  27.463  43.832  10.635
32623W        W 2438  30.416  43.837   2.261
32624W        W 2439  29.147  39.516  12.480
32625W        W 2440   1.738   9.210  14.459
32626W        W 2441  34.534  35.474   0.322
32627W        W 2442  44.920  35.450  14.932
32628W        W 2443  31.019   5.749   3.365
32629W        W 2444   9.684  18.707   1.417
32630W        W 2445  42.322  34.901   3.346
32631W        W 2446  11.306   8.176  11.544
32632W        W 2447  32.552   4.801   2.800
32633W        W 2448  19.757  11.231  11.901
32634W        W 2449  13.655  38.568  13.377
32635W        W 2450  15.779  41.007  13.962
32636W        W 2451  28.965   8.882   0.355
32637W        W 2452  36.490  31.538  12.417
32638W        W 2453  38.426  28.055   2.350
32639W        W 2454  11.632  20.746   9.933
32640W        W 2455  16.227  24.113  13.994
32641W        W 2456  13.615  12.193   2.680
32642W        W 2457  19.717  26.636  12.955
32643W        W 2458  32.057   8.369  12.505
32644W        W 2459  13.787  27.573   1.850
32645W        W 2460   0.469  39.354   2.814
32646W        W 2461  28.976  14.716   3.178
32647W        W 2462  41.931  33.433   4.310
32648W        W 2463  10.168  32.595   3.824
32649W        W 2464  30.517  34.905  13.380
32650W        W 2465  10.286  43.779   3.160
32651W        W 2466  30.534  21.199   4.741
32652W        W 2467  36.567  26.480   1.802
32653W        W 2468  44.313  25.502  10.117
32654W        W 2469  24.658  11.792   2.300
32655W        W 2470  19.199  15.625   3.293
32656W        W 2471  14.712  10.643  13.372
32657W        W 2472  41.885  36.982   0.437
32658W        W 2473  20.156  42.397  12.483
32659W        W 2474  17.763  27.011  11.576
32660W        W 2475  17.676   7.684   0.255
32661W        W 2476  24.045  11.714   2.401
32662W        W 2477  40.477   5.334   4.152
32663W        W 2478   0.468   5.909   4.647
32664W        W 2479  29.918   1.426  14.952
32665W        W 2480  12.155  11.287  12.348
32666W        W 2481   2.460  15.804   2.803
32667W        W 2482  22.039   4.279  10.980
32668W        W 2483  36.892  16.181  13.483
32669W        W 2484  38.360   7.772  12.956
32670W        W 2485   9.229  19.564   2.690
32671W        W 2486   8.733  44.497  10.577
32672W        W 2487  29.971  29.626   0.883
32673W        W 2488  10.274   0.459   2.770
32674W        W 2489  23.014  31.110   3.669
32675W        W 2490   1.267  30.946   1.723
32676W        W 2491  41.320  14.152  13.998
32677W        W 2492  15.175   5.863  12.458
32678W        W 2493  34.458  42.362  10.475
32679W        W 2494  40.997  24.664  12.407
32680W        W 2495   7.177   6.251  11.036
32681W        W 2496  31.140  24.104  10.456
32682W        W 2497  32.047  20.159  12.574
32683W        W 2498  18.731  13.275   1.842
32684W        W 2499  16.133   9.718  13.008
32685W        W 2500  14.304   3.380   0.336
32686W        W 2501   7.375  10.223   0.809
32687W        W 2502   9.168  27.048   0.318
32688W        W 2503  14.321  23.717   4.646
32689W        W 2504  12.139   0.431  11.866
32690W        W 2505   5.875   3.948  14.774
32691W        W 2506  15.650  32.084   4.114
32692W        W 2507  38.366   5.715  10.986
32693W        W 2508  16.167  22.640  14.467
32694W        W 2509  18.611  37.414   4.202
32695W        W 2510  33.568   6.282   1.921
32696W        W 2511   2.818  43.776  14.324
32697W        W 2512  13.307  40.891  12.493
32698W        W 2513  36.591  10.176  12.963
32699W        W 2514  38.515  19.116   0.255
32700W        W 2515  15.154  42.964   4.305
32701W        W 2516   6.384   8.224  13.417
32702W        W 2517  16.736  21.567   3.214
32703W        W 2518  28.169  33.623   1.812
32704W        W 2519  43.014  18.229   0.279
32705W        W 2520  13.306  41.826  13.477
32706W        W 2521  14.184  27.076   4.267
32707W        W 2522  41.789  37.040  13.903
32708W        W 2523  20.698  13.221  11.470
32709W        W 2524  13.211  15.088  13.401
32710W        W 2525  38.547  29.932  12.341
32711W        W 2526  23.581  25.050  10.982
32712W        W 2527  18.602  14.731   0.432
32713W        W 2528  22.648  41.852  11.415
32714W        W 2529  41.323  40.413   1.228
32715W        W 2530  42.983   2.752  11.550
32716W        W 2531  27.102  30.553  12.059
32717W        W 2532  24.525  18.204   1.713
32718W        W 2533  32.130   3.794   4.829
32719W        W 2534   6.722  44.962  12.415
32720W        W 2535  10.193   1.830  14.351
32721W        W 2536  44.333  26.492  10.439
32722W        W 2537  11.838  43.871  13.853
32723W        W 2538  13.187  26.165   4.254
32724W        W 2539  12.774  21.686  13.336
32725W        W 2540  41.384  36.890   1.248
32726W        W 2541  29.946  31.060  14.396
32727W        W 2542  29.537  11.204   0.752
32728W        W 2543  43.423  33.387  13.793
32729W        W 2544  44.951  36.436  12.849
32730W        W 2545   2.745  42.467  13.483
32731W        W 2546   3.797  21.570   2.364
32732W        W 2547  35.440  35.390  11.504
32733W        W 2548   0.980  37.487  13.396
32734W        W 2549  21.099  17.272  10.416
32735W        W 2550  15.202  19.679   3.278
32736W        W 2551   4.926  10.680  11.963
32737W        W 2552  35.023  20.729  11.921
32738W        W 2553   2.453  23.993  12.565
32739W        W 2554   3.717  14.170  13.009
32740W        W 2555   5.899  26.608  14.480
32741W        W 2556  36.924  29.550   1.906
32742W        W 2557  39.492  20.128   2.720
32743W        W 2558  20.168  44.949   1.714
32744W        W 2559   9.335  35.998  12.463
32745W        W 2560  11.234  19.688  14.019
32746W        W 2561  12.729  24.600  12.967
32747W        W 2562  27.163   4.300  12.495
32748W        W 2563  10.723  22.196   0.333
32749W        W 2564   4.413  28.581   1.767
32750W        W 2565  30.145   7.766  13.920
32751W        W 2566  39.531  19.277   4.159
32752W        W 2567  16.096  39.949   4.759
32753W        W 2568  12.728  27.141  13.508
32754W        W 2569   2.428  39.029   2.672
32755W        W 2570  31.583  12.651   1.727
32756W        W 2571  18.094  42.500   4.616
32757W        W 2572  39.318  22.134   2.851
32758W        W 2573   1.427   3.350  12.029
32759W        W 2574  39.956   4.714   2.895
32760W        W 2575  16.617  40.889  11.075
32761W        W 2576   1.436   4.935   1.436
32762W        W 2577  31.097  18.676  12.919
32763W        W 2578   4.804   8.809   3.844
32764W        W 2579  21.054  38.915  12.372
32765W        W 2580  21.552  22.110   4.142
32766W        W 2581  30.945  17.266   3.850
32767W        W 2582  20.741  35.476  11.931
32768W        W 2583  36.459  25.122  11.396
32769W        W 2584  13.117  44.943  12.044
32770W        W 2585  15.328  34.948   4.760
32771W        W 2586  36.494  34.071  12.877
32772W        W 2587  24.032  39.921  12.861
32773W        W 2588  39.319  29.437  12.455
32774W        W 2589  17.178  42.882  13.371
32775W        W 2590  32.125   4.407  11.937
32776W        W 2591  19.707  26.639  14.939
32777W        W 2592   4.724  41.881  14.899
32778W        W 2593   8.217  31.611   4.761
32779W        W 2594  42.419  20.248   4.255
32780W        W 2595  39.355  22.639  13.355
32781W        W 2596  11.336   3.324  12.470
32782W        W 2597   9.148   8.205  11.557
32783W        W 2598   7.337  43.498   0.942
32784W        W 2599  16.107  18.639  11.559
32785W        W 2600  40.429   2.924   1.277
32786W        W 2601  24.057  32.055   3.689
32787W        W 2602  32.441  26.688  14.939
32788W        W 2603  23.575  19.165   9.939
32789W        W 2604  12.126  43.343   1.752
32790W        W 2605  37.935  18.611   0.798
32791W        W 2606  38.026  11.724   4.253
32792W        W 2607  42.505  17.664   4.816
32793W        W 2608  14.697   0.487   1.217
32794W        W 2609   8.819  32.961  12.431
32795W        W 2610   1.367  44.943  12.347
32796W        W 2611  25.607  38.397   1.228
32797W        W 2612   9.391  12.237  12.363
32798W        W 2613  17.156   1.907  14.779
32799W        W 2614   6.728  33.075  12.864
32800W        W 2615  21.188  17.714   4.271
32801W        W 2616  43.000  30.500  12.450
32802W        W 2617  15.647  13.683  14.504
32803W        W 2618  34.040  25.613  13.036
32804W        W 2619  26.505  36.060   2.304
32805W        W 2620   2.939  19.684   4.276
32806W        W 2621  34.865  30.590   4.767
32807W        W 2622  28.945  27.474   3.848
32808W        W 2623  29.987  37.433  12.454
32809W        W 2624  41.374   1.363  14.837
32810W        W 2625  17.127  41.488   3.330
32811W        W 2626  30.077  25.094  10.901
32812W        W 2627  38.565  11.817   1.276
32813W        W 2628   8.834   6.875   3.373
32814W        W 2629  30.604   5.417  11.525
32815W        W 2630  37.015   4.214  11.962
32816W        W 2631  15.814  36.528   4.818
32817W        W 2632  17.166  35.574  11.083
32818W        W 2633   5.934  20.654  12.886
32819W        W 2634   5.818  12.177   1.803
32820W        W 2635  30.448  10.334  14.491
32821W        W 2636   2.802  35.997  10.910
32822W        W 2637  29.585  37.456   1.382
32823W        W 2638  24.665  14.804  11.857
32824W        W 2639  41.352  24.193  12.471
32825W        W 2640  12.199  11.693  11.529
32826W        W 2641  31.516  24.191  12.948
32827W        W 2642  41.404   3.365   3.655
32828W        W 2643   3.895   2.965   0.805
32829W        W 2644  31.544   0.489  12.361
32830W        W 2645  17.697   8.739  10.986
32831W        W 2646  38.475  31.437   0.340
32832W        W 2647  38.867  42.489  13.542
32833W        W 2648  41.391  20.583  13.457
32834W        W 2649   0.330  24.589   0.730
32835W        W 2650   0.816  31.643   2.683
32836W        W 2651  42.931   3.937  10.641
32837W        W 2652  43.947   2.295   0.375
32838W        W 2653  33.923  12.783   2.723
32839W        W 2654   6.269  26.099   3.866
32840W        W 2655   3.412  21.638  12.984
32841W        W 2656  13.640  19.082   0.777
32842W        W 2657  20.187  30.551   4.318
32843W        W 2658  33.438  39.889   0.966
32844W        W 2659  24.524  23.993   2.228
32845W        W 2660   0.345   0.393  14.819
32846W        W 2661   7.680  33.544   1.451
32847W        W 2662  28.971  42.302   1.891
32848W        W 2663   1.335  23.991  11.571
32849W        W 2664   0.492  15.166  10.606
32850W        W 2665   2.238  27.174  14.282
32851W        W 2666  43.342  26.518   0.917
32852W        W 2667   8.667  32.071   4.161
32853W        W 2668  26.697   7.789   3.700
32854W        W 2669   6.232  27.019  12.502
32855W        W 2670  15.582  39.354   3.368
32856W        W 2671  38.441  29.645   1.863
32857W        W 2672   6.336   8.725  13.028
32858W        W 2673  17.710   7.270   2.234
32859W        W 2674   5.929  41.007   0.730
32860W        W 2675  23.544  42.308  13.375
32861W        W 2676  10.800   0.364  13.406
32862W        W 2677  41.981  23.725   3.719
32863W        W 2678  40.313  37.072   2.775
32864W        W 2679  31.589  30.092  11.572
32865W        W 2680  39.911  32.086  14.383
32866W        W 2681  19.547   3.240   3.336
32867W        W 2682  17.659   5.253   0.796
32868W        W 2683   3.948   5.803  13.025
32869W        W 2684  36.420  44.968  10.476
32870W        W 2685   2.251  13.634  12.090
32871W        W 2686  22.124  10.175   3.844
32872W        W 2687  35.060  35.432  13.949
32873W        W 2688  39.363  43.449  10.441
32874W        W 2689  20.068  32.541  11.585
32875W        W 2690  42.926  24.683  11.387
32876W        W 2691  33.389  21.624  12.574
32877W        W 2692  13.167  11.660   2.214
32878W        W 2693  26.956   7.252   0.414
32879W        W 2694   5.736   0.251  14.954
32880W        W 2695  20.251  41.399   4.149
32881W        W 2696  26.055  29.573  12.370
32882W        W 2697  36.414  24.600   4.824
32883W        W 2698   6.395   7.754   1.222
32884W        W 2699   3.415  37.578   2.664
32885W        W 2700   3.217  41.025  11.438
32886W        W 2701  27.033  24.562  13.925
32887W        W 2702   8.779   2.787   3.296
32888W        W 2703  11.168  44.322  13.469
32889W        W 2704  26.627  38.045  11.989
32890W        W 2705   4.700   1.352  13.955
32891W        W 2706  21.556  30.913  14.457
32892W        W 2707  27.962  18.737   4.641
32893W        W 2708  42.884   1.838   1.883
32894W        W 2709  39.050   6.382   5.233
32895W        W 2710  14.650   1.387   4.669
32896W        W 2711  41.297  25.083  14.908
32897W        W 2712   7.233  39.905  14.332
32898W        W 2713   8.237  31.471  12.870
32899W        W 2714   2.364  10.312   1.756
32900W        W 2715  41.972  15.146  14.983
32901W        W 2716  29.000  28.108  11.393
32902W        W 2717  39.005  42.947   4.611
32903W        W 2718  42.433  15.277  10.562
32904W        W 2719   8.746  40.461  10.609
32905W        W 2720  21.146  42.911  12.064
32906W        W 2721   4.750   6.336  11.562
32907W        W 2722  25.505  23.995  14.819
32908W        W 2723  32.411   5.383   3.339
32909W        W 2724  38.896  44.268  13.417
32910W        W 2725  29.493   1.296  11.089
32911W        W 2726  30.486  40.816  12.830
32912W        W 2727  17.749  41.839  10.564
32913W        W 2728   6.703  44.923  14.451
32914W        W 2729  31.503  20.205   1.431
32915W        W 2730  20.522  43.392   0.957
32916W        W 2731  16.742  21.710  13.545
32917W        W 2732  12.644  14.615   3.678
32918W        W 2733  41.857  43.849  12.848
32919W        W 2734   5.271  33.975  10.938
32920W        W 2735  43.979  42.973   0.870
32921W        W 2736  28.505  22.095   0.919
32922W        W 2737  14.738  29.570   1.251
32923W        W 2738  34.033  39.849   3.768
32924W        W 2739  34.987  21.222  13.975
32925W        W 2740  38.415  22.529  13.009
32926W        W 2741  22.195  16.279   4.694
32927W        W 2742  12.224  16.080   3.660
32928W        W 2743   3.298  30.505  11.489
32929W        W 2744  43.916  43.859  10.449
32930W        W 2745  25.514  42.479  13.993
32931W        W 2746   1.479  27.050   2.275
32932W        W 2747  26.641  10.879   1.233
32933W        W 2748  23.023  42.396   0.287
32934W        W 2749   1.424   3.759   1.872
32935W        W 2750  14.239  20.265   5.147
32936W        W 2751  31.016  27.088   3.167
32937W        W 2752  33.383  25.099  13.977
32938W        W 2753  19.569   3.285  10.534
32939W        W 2754  34.376  42.291  13.526
32940W        W 2755  40.047  43.968  11.526
32941W        W 2756  23.056  44.958  14.951
32942W        W 2757  32.122  24.697  13.486
32943W        W 2758  40.954  20.213   3.630
32944W        W 2759   6.194  26.595  13.348
32945W        W 2760  11.273  37.910  12.510
32946W        W 2761  26.620   4.943  12.371
32947W        W 2762   6.223  36.489  14.457
32948W        W 2763  29.091  39.014   2.766
32949W        W 2764   9.271  24.527   0.763
32950W        W 2765  33.896  20.272  12.840
32951W        W 2766  13.155  39.935   5.263
32952W        W 2767   6.896  36.886  12.831
32953W        W 2768   5.400  28.580  14.866
32954W        W 2769  44.370  23.501  11.525
32955W        W 2770  27.546  37.904   0.455
32956W        W 2771  24.153  27.072  11.863
32957W        W 2772  34.456  37.066   4.712
32958W        W 2773  18.211   3.715   2.821
32959W        W 2774  29.025  34.082   1.212
32960W        W 2775  21.110  21.134   0.341
32961W        W 2776  38.479  15.820  13.992
32962W        W 2777  21.663   0.297   3.742
32963W        W 2778  37.994  26.112   2.321
32964W        W 2779  13.147  28.978  10.080
32965W        W 2780  14.321  11.705  14.806
32966W        W 2781  14.117  17.646   4.166
32967W        W 2782   0.830  23.552  12.050
32968W        W 2783  11.691   6.904   1.430
32969W        W 2784  32.129  41.504  11.028
32970W        W 2785   7.343  24.038  12.559
32971W        W 2786  38.970   6.223   3.733
32972W        W 2787  10.203  32.509   4.151
32973W        W 2788  41.963  22.685   0.813
32974W        W 2789  10.719   2.249   4.318
32975W        W 2790  32.599  32.406   0.477
32976W        W 2791  25.483  29.596   1.214
32977W        W 2792   1.267   8.845  14.498
32978W        W 2793  32.129   3.861  14.832
32979W        W 2794  35.447  34.084  13.436
32980W        W 2795  26.691   7.338  13.899
32981W        W 2796  25.658  35.897  11.973
32982W        W 2797   7.328  42.832  11.917
32983W        W 2798  31.120   4.821   4.618
32984W        W 2799  32.579   7.703   1.776
32985W        W 2800   3.379   7.709  10.519
32986W        W 2801   3.758  40.940   0.831
32987W        W 2802  26.959  31.546   1.753
32988W        W 2803  42.008  11.630  12.496
32989W        W 2804  36.520  33.997   3.673
32990W        W 2805   5.709  43.285  13.876
32991W        W 2806  25.648  19.559  12.027
32992W        W 2807  36.041  40.310   0.962
32993W        W 2808   0.299  42.399   0.319
32994W        W 2809  31.458  11.129   2.708
32995W        W 2810   5.795  27.086  11.552
32996W        W 2811  22.640  16.756  11.005
32997W        W 2812  11.640  38.851   4.205
32998W        W 2813  24.498  10.329  10.892
32999W        W 2814  27.630  39.453  11.985
33000W        W 2815  21.715  40.401  12.830
33001W        W 2816   8.315  14.789   3.339
33002W        W 2817  40.908  19.138  13.031
33003W        W 2818  33.888  33.583  10.419
33004W        W 2819  34.477  22.225  10.410
33005W        W 2820  36.868   7.231  13.524
33006W        W 2821   2.339  24.657   0.345
33007W        W 2822  12.818  17.767   1.881
33008W        W 2823  36.842   8.304   3.257
33009W        W 2824   7.401   7.251  12.028
33010W        W 2825   4.806  24.215   4.177
33011W        W 2826  18.758  26.588   1.276
33012W        W 2827   3.811  17.126   2.886
33013W        W 2828  42.392  38.416  11.972
33014W        W 2829  28.503  15.592   3.833
33015W        W 2830  40.963   9.159  13.452
33016W        W 2831   4.394  24.131   1.226
33017W        W 2832  38.560   9.732  11.375
33018W        W 2833  16.142   1.902  14.888
33019W        W 2834  28.933   7.367   0.473
33020W        W 2835  17.148  17.759  10.502
33021W        W 2836  27.945  16.247  12.935
33022W        W 2837  39.899   7.816  11.547
33023W        W 2838  11.792   5.304  11.581
33024W        W 2839  17.304  22.185  13.951
33025W        W 2840  29.051  44.463  12.005
33026W        W 2841  14.704   2.339  12.557
33027W        W 2842  32.069  22.108   0.456
33028W        W 2843   4.239  12.667  12.827
33029W        W 2844  28.065   4.332  14.980
33030W        W 2845   6.263  15.270  12.420
33031W        W 2846  38.325  28.986   0.301
33032W        W 2847  36.484  18.739   0.773
33033W        W 2848  32.966  35.563  14.803
33034W        W 2849   5.744  23.664   4.710
33035W        W 2850  20.043  31.138   2.344
33036W        W 2851  16.755  29.141  13.363
33037W        W 2852  25.012  25.170  13.817
33038W        W 2853  16.288  12.651  13.452
33039W        W 2854  29.504  15.740  13.048
33040W        W 2855  24.721  27.551  11.943
33041W        W 2856  29.527  16.293   4.271
33042W        W 2857   7.907  16.798   1.800
33043W        W 2858  32.419  22.131  10.600
33044W        W 2859  31.557   6.831  12.050
33045W        W 2860  14.151   7.362  13.988
33046W        W 2861  29.979  28.990  13.005
33047W        W 2862  35.554  20.577  11.495
33048W        W 2863  12.675  13.739  13.974
33049W        W 2864  31.100  34.102   0.428
33050W        W 2865  19.075  31.509  13.947
33051W        W 2866   0.486  38.348   2.415
33052W        W 2867  38.511  14.314  12.521
33053W        W 2868   2.812  30.571  11.006
33054W        W 2869  28.487  23.697  13.438
33055W        W 2870  41.032  24.146   4.209
33056W        W 2871  21.098  27.973   1.292
33057W        W 2872  14.335  18.076  14.314
33058W        W 2873  23.635  16.579   2.663
33059W        W 2874  36.368  10.247  11.531
33060W        W 2875  21.602   0.328  12.911
33061W        W 2876  31.468  16.246   2.330
33062W        W 2877  31.555  38.471   4.312
33063W        W 2878  31.078  40.412   0.816
33064W        W 2879   6.294  13.341  13.879
33065W        W 2880  31.516  31.476  13.037
33066W        W 2881  21.699  25.996  13.408
33067W        W 2882  42.288  43.809  14.457
33068W        W 2883  25.479  33.886  12.886
33069W        W 2884  10.148  19.145   3.700
33070W        W 2885  42.976  43.851  14.449
33071W        W 2886  20.230  22.608   1.293
33072W        W 2887  23.232  44.951   1.261
33073W        W 2888  35.548  29.113  11.962
33074W        W 2889  41.839  27.049   3.680
33075W        W 2890  38.940  34.533   1.765
33076W        W 2891  22.658  23.218  10.576
33077W        W 2892  33.999  23.142   1.834
33078W        W 2893  40.380   5.789  12.978
33079W        W 2894   6.822  10.656   1.781
33080W        W 2895  19.675  11.675  13.932
33081W        W 2896   7.903  33.078  13.484
33082W        W 2897  41.008  15.304   4.166
33083W        W 2898  25.565  16.316   0.840
33084W        W 2899   0.388  26.134  13.793
33085W        W 2900  14.235  38.933  11.859
33086W        W 2901  28.142  35.964   2.827
33087W        W 2902  10.310   0.921   5.236
33088W        W 2903  29.596  12.303   1.376
33089W        W 2904  22.147  32.451   2.353
33090W        W 2905  11.696  25.060   2.673
33091W        W 2906  38.534  27.585   4.658
33092W        W 2907   4.823  23.234   2.866
33093W        W 2908  14.257  15.782  13.473
33094W        W 2909  20.558  23.195   4.738
33095W        W 2910  22.078  11.210   3.731
33096W        W 2911  13.267  10.308  13.541
33097W        W 2912   1.845  39.402   1.322
33098W        W 2913  17.131  22.693   4.800
33099W        W 2914  42.341   0.486   0.749
33100W        W 2915  16.680  27.582   0.817
33101W        W 2916  17.779  15.282   4.238
33102W        W 2917   3.289  37.036  14.438
33103W        W 2918   9.394  11.834  12.561
33104W        W 2919  40.496  15.129  10.506
33105W        W 2920  40.416  39.004   1.421
33106W        W 2921  34.369  18.548  10.469
33107W        W 2922   5.224   1.910  11.488
33108W        W 2923  31.900  19.587   4.271
33109W        W 2924   9.354  26.701  10.114
33110W        W 2925  40.485  36.883  12.837
33111W        W 2926  42.925  43.934   2.284
33112W        W 2927  39.879  38.022   0.749
33113W        W 2928   5.895  33.498   0.742
33114W        W 2929   8.392   4.797  11.586
33115W        W 2930   8.253  37.027   4.702
33116W        W 2931  24.544  35.404   3.697
33117W        W 2932  18.103  19.268   1.813
33118W        W 2933  21.230  17.232  12.974
33119W        W 2934  11.639  27.545   3.262
33120W        W 2935  43.880   8.220   4.228
33121W        W 2936  39.982  28.089   2.193
33122W        W 2937  31.410  13.106  11.103
33123W        W 2938  33.602   2.230   1.795
33124W        W 2939  39.042  44.950   0.910
33125W        W 2940   1.443  33.540   4.764
33126W        W 2941  27.057  22.571  13.931
33127W        W 2942   6.238  38.054   4.777
33128W        W 2943   1.949  22.030   2.212
33129W        W 2944  15.588  42.017  10.547
33130W        W 2945  29.079  43.928   4.233
33131W        W 2946  38.861  37.528  14.910
33132W        W 2947   8.201  22.677   1.451
33133W        W 2948  31.116   4.366   2.358
33134W        W 2949  38.067  37.372  10.410
33135W        W 2950  26.686  44.991   4.143
33136W        W 2951  30.934  37.947   0.367
33137W        W 2952  25.004  29.643   1.817
33138W        W 2953  36.407  33.432   5.112
33139W        W 2954  43.330   3.431  13.010
33140W        W 2955  38.074   4.907  11.427
33141W        W 2956   2.294  34.432  14.015
33142W        W 2957   7.700  41.870  11.046
33143W        W 2958  13.142  39.924   0.859
33144W        W 2959   5.704  42.455   2.729
33145W        W 2960  28.946  18.645  12.848
33146W        W 2961  42.409  40.806  13.872
33147W        W 2962  14.151  16.211   4.221
33148W        W 2963   3.340  30.599  14.438
33149W        W 2964  17.160  30.128  14.461
33150W        W 2965  26.572  32.133   0.445
33151W        W 2966  34.908  41.857   2.401
33152W        W 2967  44.831  40.841   3.729
33153W        W 2968  43.986  12.728  11.512
33154W        W 2969  40.404  40.804  11.898
33155W        W 2970  41.008  42.813   1.783
33156W        W 2971  18.708  30.599  14.506
33157W        W 2972  32.902  40.394   3.763
33158W        W 2973  27.572  21.544   3.292
33159W        W 2974  38.944  38.897  11.556
33160W        W 2975  38.920   6.920  13.354
33161W        W 2976  11.143  29.075  13.986
33162W        W 2977  14.275  42.987   2.876
33163W        W 2978  37.423  38.039  12.498
33164W        W 2979  34.890  21.032   0.346
33165W        W 2980   4.278  16.642  14.946
33166W        W 2981  16.766  39.037  10.413
33167W        W 2982  13.793   6.291   4.640
33168W        W 2983  19.544  18.136   1.295
33169W        W 2984  27.133  26.031   4.708
33170W        W 2985   2.840  40.825   1.399
33171W        W 2986   8.278  30.000  12.474
33172W        W 2987  19.679   7.904  13.392
33173W        W 2988  28.511  18.790  12.345
33174W        W 2989  44.965  22.562   3.705
33175W        W 2990   7.670   6.190  11.869
33176W        W 2991   9.297  42.291   0.292
33177W        W 2992  40.014  14.682  10.952
33178W        W 2993  17.213  27.194  14.507
33179W        W 2994  22.635   0.798  11.874
33180W        W 2995  20.632   6.867  14.826
33181W        W 2996  39.937   8.718  13.884
33182W        W 2997  16.294  15.692  12.480
33183W        W 2998  29.548   9.840   0.936
33184W        W 2999  41.980  44.356   1.417
33185W        W 3000  11.182  28.107   2.878
33186W        W 3001  30.492  25.038   0.908
33187W        W 3002  19.574  44.313   2.711
33188W        W 3003  29.640  38.385  12.903
33189W        W 3004  31.079  16.122   0.367
33190W        W 3005  17.186  13.202   3.292
33191W        W 3006  31.427   7.369   4.330
33192W        W 3007   0.870  36.044  12.516
33193W        W 3008  28.565  30.629  11.051
33194W        W 3009  20.536  42.473   3.858
33195W        W 3010  17.660  44.357   3.752
33196W        W 3011  19.046  32.118  11.394
33197W        W 3012   4.432   2.237  12.878
33198W        W 3013   0.371  27.541   2.281
33199W        W 3014   5.422  24.150  10.965
33200W        W 3015  19.150   9.772  13.358
33201W        W 3016   3.919  26.955  11.055
33202W        W 3017  24.087  34.387  13.990
33203W        W 3018  19.559  18.243   4.684
33204W        W 3019  44.000  31.607   2.790
33205W        W 3020   9.679   3.788  12.973
33206W        W 3021  41.298  13.606  14.784
33207W        W 3022  27.126  38.565  10.597
33208W        W 3023  39.506  41.487  14.461
33209W        W 3024   9.763  24.614  14.380
33210W        W 3025  15.267   9.817  12.524
33211W        W 3026  37.963  19.698   4.223
33212W        W 3027   9.850  37.339  12.452
33213W        W 3028  23.991  34.386  12.938
33214W        W 3029  10.241  33.069  12.055
33215W        W 3030  14.193  41.352   9.967
33216W        W 3031  18.577  27.119  10.929
33217W        W 3032   8.350  40.054   5.111
33218W        W 3033  37.429  29.924  12.054
33219W        W 3034   8.334  42.844   0.757
33220W        W 3035  42.978   7.297  14.849
33221W        W 3036  26.158  34.601  13.478
33222W        W 3037  35.964  18.136  10.514
33223W        W 3038  37.950  32.105  13.936
33224W        W 3039  38.893  20.689   1.696
33225W        W 3040  39.045  30.912   2.402
33226W        W 3041  33.391  43.017  11.389
33227W        W 3042  43.994  30.103  12.457
33228W        W 3043   2.398  16.750   4.159
33229W        W 3044  27.623   9.370   2.218
33230W        W 3045  29.975  41.457  13.414
33231W        W 3046   8.729  36.052  12.492
33232W        W 3047  41.456  27.628   2.780
33233W        W 3048  36.457  25.672  11.978
33234W        W 3049  35.428   4.810   3.380
33235W        W 3050  44.264  29.961  13.468
33236W        W 3051  35.361   3.407   0.953
33237W        W 3052   9.246   6.199   4.830
33238W        W 3053  39.956  10.669   4.288
33239W        W 3054   6.331  26.568  13.929
33240W        W 3055  32.080  22.173   3.750
33241W        W 3056  19.613  32.488   1.436
33242W        W 3057  16.204   3.293  11.041
33243W        W 3058  44.753  42.984  13.880
33244W        W 3059  41.792  36.530  11.045
33245W        W 3060   7.850  44.777   2.263
33246W        W 3061   6.203  29.135  10.949
33247W        W 3062  17.581  23.582   1.256
33248W        W 3063  16.703  35.572   4.783
33249W        W 3064  25.000  39.438  10.551
33250W        W 3065  16.212  14.597  12.372
33251W        W 3066   9.171   1.336  12.893
33252W        W 3067  30.936  28.526   0.267
33253W        W 3068  18.552  34.464  12.534
33254W        W 3069  26.982  12.674   2.413
33255W        W 3070   5.263  23.219   3.644
33256W        W 3071  22.221  44.334  14.455
33257W        W 3072   3.346   4.821   4.208
33258W        W 3073  41.996  21.583   0.953
33259W        W 3074  21.588  30.064   3.800
33260W        W 3075  28.936  27.014   2.279
33261W        W 3076  19.061  34.899  12.478
33262W        W 3077  41.873   4.362  12.919
33263W        W 3078  13.839  20.078  12.480
33264W        W 3079  37.374  21.578   2.298
33265W        W 3080  32.424   5.760  13.793
33266W        W 3081  19.174   0.473   1.878
33267W        W 3082  29.498  36.094  14.992
33268W        W 3083  11.647  23.548  14.345
33269W        W 3084  30.027   0.828   0.840
33270W        W 3085  44.834  29.518  10.629
33271W        W 3086  44.860  13.761   0.395
33272W        W 3087  33.048  27.976   4.238
33273W        W 3088  21.247  16.700  13.480
33274W        W 3089  22.203  31.111  11.954
33275W        W 3090  24.662  18.604   5.749
33276W        W 3091  20.052   9.277  10.602
33277W        W 3092  41.033   7.682  14.013
33278W        W 3093  35.427  40.930  12.364
33279W        W 3094  35.411  22.103   2.302
33280W        W 3095  25.504  42.500  14.913
33281W        W 3096  44.398  12.117  10.555
33282W        W 3097   4.413  35.360  10.483
33283W        W 3098  40.035  31.101  14.891
33284W        W 3099  14.340  22.123   3.839
33285W        W 3100  44.920   1.370   3.734
33286W        W 3101   3.791   1.378   1.810
33287W        W 3102   4.334   8.748   4.165
33288W        W 3103  21.531  20.105   0.939
33289W        W 3104   7.828  19.264   1.723
33290W        W 3105  29.424  41.895  10.488
33291W        W 3106   4.704  23.692  10.470
33292W        W 3107  38.842  22.099  13.453
33293W        W 3108   6.807   8.780   3.238
33294W        W 3109  26.996   4.755  10.622
33295W        W 3110  29.133  17.556   4.338
33296W        W 3111  27.952  30.953   3.301
33297W        W 3112  32.034  11.210   0.778
33298W        W 3113  13.819  29.107  13.824
33299W        W 3114  40.924  12.141  13.355
33300W        W 3115  35.972  11.198  13.317
33301W        W 3116  39.937  39.492   2.817
33302W        W 3117  31.973   3.758   3.238
33303W        W 3118  33.478  15.815  11.491
33304W        W 3119  17.230  29.137  12.956
33305W        W 3120  39.004  38.835  12.043
33306W        W 3121  24.093  43.423  13.445
33307W        W 3122  24.167  15.255  14.826
33308W        W 3123  31.461  42.937   2.353
33309W        W 3124   7.680  34.876   3.307
33310W        W 3125  34.059  26.154   1.916
33311W        W 3126  32.065  35.008   3.645
33312W        W 3127  22.023  30.623   1.311
33313W        W 3128  40.463  26.498   3.189
33314W        W 3129  27.577  30.615   3.189
33315W        W 3130  23.166  40.346   0.957
33316W        W 3131  17.262  34.997  13.447
33317W        W 3132   2.847  42.448  11.933
33318W        W 3133   9.195  44.939  14.032
33319W        W 3134  33.087  26.599  13.939
33320W        W 3135  25.159  14.161  11.459
33321W        W 3136  21.104   6.781   3.785
33322W        W 3137  10.778   6.307  14.387
33323W        W 3138  18.269  33.029   0.324
33324W        W 3139  18.214  44.492  10.458
33325W        W 3140  11.860  40.867  13.978
33326W        W 3141  12.311  31.576  11.017
33327W        W 3142   8.682  27.516  13.442
33328W        W 3143  27.156  24.106   2.836
33329W        W 3144  10.764  39.496   3.802
33330W        W 3145  38.840  22.715   1.820
33331W        W 3146   2.908  34.609   4.651
33332W        W 3147  43.329  30.099   0.306
33333W        W 3148  23.714  18.751   5.258
33334W        W 3149  39.552  20.130  12.088
33335W        W 3150  13.131  11.744  12.928
33336W        W 3151   7.258  21.260   0.730
33337W        W 3152  13.775  31.022   3.840
33338W        W 3153  26.150  32.513  10.913
33339W        W 3154  13.303  17.177   3.337
33340W        W 3155  35.432   0.762  11.394
33341W        W 3156   8.331  31.425   0.888
33342W        W 3157  30.960  18.622   3.714
33343W        W 3158   1.269  14.177   1.243
33344W        W 3159  26.501  33.445  13.835
33345W        W 3160  17.740   7.849  13.809
33346W        W 3161  39.488  18.587   3.631
33347W        W 3162   2.964   7.847   4.116
33348W        W 3163   4.910  43.313  14.895
33349W        W 3164   8.221  19.179  11.408
33350W        W 3165  16.698   8.674  12.047
33351W        W 3166   2.457  41.384   2.885
33352W        W 3167   9.743   9.268   2.838
33353W        W 3168   1.459  38.457   2.721
33354W        W 3169  14.172  39.054  14.933
33355W        W 3170  13.329  31.589   3.815
33356W        W 3171  17.237  12.351  12.448
33357W        W 3172  29.516  19.691   4.322
33358W        W 3173   9.300   9.693  13.517
33359W        W 3174  36.949  32.408  10.924
33360W        W 3175  11.793  26.645  10.161
33361W        W 3176   9.203  29.521   0.429
33362W        W 3177  44.883  39.849  11.122
33363W        W 3178  39.058   8.176   9.623
33364W        W 3179   1.462  10.739  12.449
33365W        W 3180  25.614  24.491   3.258
33366W        W 3181   2.283  25.033  10.920
33367W        W 3182  42.778   0.769  10.550
33368W        W 3183   3.371   7.303  14.991
33369W        W 3184  28.636  35.070   1.852
33370W        W 3185   3.389  25.512  12.929
33371W        W 3186  41.991   1.886  13.352
33372W        W 3187   1.850  28.522  12.463
33373W        W 3188  16.807  30.468   0.308
33374W        W 3189  42.806  29.162   9.922
33375W        W 3190  22.670  32.634   2.247
33376W        W 3191   9.373  43.923  11.438
33377W        W 3192   7.191  26.488  13.927
33378W        W 3193  33.092  34.105   1.310
33379W        W 3194  11.171  24.081   3.364
33380W        W 3195   8.863   9.249  13.505
33381W        W 3196  16.586   3.363   1.296
33382W        W 3197   7.363  36.094  13.313
33383W        W 3198  31.984  33.067  12.896
33384W        W 3199  41.800  24.564   1.724
33385W        W 3200  18.653  43.398   4.831
33386W        W 3201  28.567  37.979   3.762
33387W        W 3202  10.778  37.366   3.230
33388W        W 3203  36.937  15.267  12.521
33389W        W 3204  18.260  20.040  12.064
33390W        W 3205  13.185  20.691   3.175
33391W        W 3206  18.247  31.950   2.325
33392W        W 3207   6.740  17.138   2.886
33393W        W 3208  37.027  42.301   1.261
33394W        W 3209  37.990  44.837  10.442
33395W        W 3210  36.951   8.850   2.713
33396W        W 3211  29.019  13.679   3.774
33397W        W 3212  27.539  31.144  13.809
33398W        W 3213  27.182  31.505  13.808
33399W        W 3214  28.633  19.134   4.137
33400W        W 3215   4.301   8.391  13.003
33401W        W 3216  10.666  31.589  13.036
33402W        W 3217  16.299  14.243  14.919
33403W        W 3218   5.358  20.642  11.593
33404W        W 3219  21.105  10.263  13.984
33405W        W 3220  44.929  34.423   4.647
33406W        W 3221   7.206  20.255   0.868
33407W        W 3222  42.441  35.045  10.924
33408W        W 3223  23.507  23.011  11.592
33409W        W 3224  29.622  24.699  11.050
33410W        W 3225  33.923  26.491  11.053
33411W        W 3226  15.267  31.105   1.719
33412W        W 3227  27.076  18.215  14.979
33413W        W 3228  37.393   6.762  10.049
33414W        W 3229  35.496  24.222  13.025
33415W        W 3230  12.759  19.689   0.759
33416W        W 3231  24.513  25.023  10.409
33417W        W 3232  15.629  30.641   1.373
33418W        W 3233  35.535  40.802   2.698
33419W        W 3234  36.903  33.472   2.746
33420W        W 3235  21.520  25.133   0.792
33421W        W 3236  23.232  18.210  10.443
33422W        W 3237  35.993  21.114  12.445
33423W        W 3238  34.098  15.713   4.700
33424W        W 3239  36.422  43.345  11.903
33425W        W 3240  29.998  13.713  11.445
33426W        W 3241  31.647   2.792   4.164
33427W        W 3242  22.693  10.753   2.862
33428W        W 3243  43.453  33.968   1.317
33429W        W 3244  38.873  34.885   5.206
33430W        W 3245  12.795   6.227  14.881
33431W        W 3246   6.824  21.714   1.359
33432W        W 3247  40.445  37.854   0.385
33433W        W 3248   9.217   1.868  12.511
33434W        W 3249  36.394   1.901  13.407
33435W        W 3250  40.921  13.683   4.199
33436W        W 3251  34.915   0.945  10.912
33437W        W 3252  35.584  28.642  10.618
33438W        W 3253  12.842  19.602  12.536
33439W        W 3254   3.435  23.545   2.351
33440W        W 3255  21.618  37.045   3.653
33441W        W 3256   3.326  28.975   4.652
33442W        W 3257  15.118  27.969   2.354
33443W        W 3258  15.778  44.259   3.757
33444W        W 3259  12.665   6.237  13.404
33445W        W 3260  23.539  36.016  13.476
33446W        W 3261   7.697  28.480   3.858
33447W        W 3262   0.266  22.632   4.293
33448W        W 3263  42.442  36.478   1.832
33449W        W 3264   6.907  18.060   3.680
33450W        W 3265  29.984  18.555  12.516
33451W        W 3266  35.380  40.938  11.538
33452W        W 3267  31.978  44.474   2.663
33453W        W 3268  16.252  38.555   2.827
33454W        W 3269  36.845  30.419   4.196
33455W        W 3270   7.811  38.863  10.053
33456W        W 3271  16.714  15.166   2.687
33457W        W 3272   1.853  35.407   4.350
33458W        W 3273  38.032  19.170  10.917
33459W        W 3274  10.777  40.890   2.329
33460W        W 3275  44.272  43.287  11.031
33461W        W 3276   2.245  10.157   0.746
33462W        W 3277   3.718  23.985  12.366
33463W        W 3278  40.352  42.460   1.803
33464W        W 3279  43.869  14.728   2.790
33465W        W 3280  37.910   0.334   3.659
33466W        W 3281   2.854  42.798  12.077
33467W        W 3282  39.479   8.245  10.411
33468W        W 3283  31.088  13.337  10.597
33469W        W 3284  40.846  30.525   3.847
33470W        W 3285  29.610   5.891  12.962
33471W        W 3286  37.338   0.326  14.355
33472W        W 3287  15.193  19.074  13.320
33473W        W 3288  16.076  37.344   3.629
33474W        W 3289  14.273  36.988  10.901
33475W        W 3290   7.787  29.635  13.023
33476W        W 3291   3.394   0.776  11.006
33477W        W 3292  32.447  42.800  11.440
33478W        W 3293  17.791  39.390   2.404
33479W        W 3294  13.269  18.176  14.825
33480W        W 3295  22.073   0.781   2.235
33481W        W 3296   8.705  41.342   4.209
33482W        W 3297  15.324  27.604  12.064
33483W        W 3298  39.931  40.046  14.917
33484W        W 3299   3.384   6.223  12.877
33485W        W 3300   5.348  17.748  10.961
33486W        W 3301   5.777  40.529  13.332
33487W        W 3302  24.192  14.322  10.564
33488W        W 3303  34.889  20.563  10.462
33489W        W 3304  16.298  42.958   3.343
33490W        W 3305  43.931   2.848   0.398
33491W        W 3306  12.246  30.132  11.867
33492W        W 3307   3.295  37.414  12.067
33493W        W 3308   8.307  38.984   3.253
33494W        W 3309  27.038  12.159   3.209
33495W        W 3310  23.624  33.019   4.635
33496W        W 3311  28.637  15.191   1.769
33497W        W 3312  39.517  34.502  13.885
33498W        W 3313  37.964  37.858   0.772
33499W        W 3314  18.692   8.829  11.036
33500W        W 3315  16.798  19.650   4.344
33501W        W 3316  33.091  39.001   4.678
33502W        W 3317  29.043  28.987   3.731
33503W        W 3318  20.204  32.449   3.187
33504W        W 3319   0.881  29.969  10.462
33505W        W 3320  44.849  19.703   0.444
33506W        W 3321  39.433  36.999  13.865
33507W        W 3322   9.688  29.095  13.364
33508W        W 3323   1.442  36.569  10.583
33509W        W 3324  22.589  13.600  14.397
33510W        W 3325  21.570   8.235  14.904
33511W        W 3326  37.487  43.859  12.055
33512W        W 3327  17.558   0.293  13.986
33513W        W 3328  13.814  23.234   1.796
33514W        W 3329   2.281  14.709  14.389
33515W        W 3330  25.983   2.239   0.885
33516W        W 3331   0.973  18.595  12.462
33517W        W 3332  11.797  21.025   3.306
33518W        W 3333  42.820  24.981   0.803
33519W        W 3334  15.136  18.199  12.078
33520W        W 3335  43.498  18.054   4.281
33521W        W 3336  28.092  11.826   5.149
33522W        W 3337  11.149  25.580  13.836
33523W        W 3338  14.633  23.081   0.787
33524W        W 3339  29.532  39.864  10.912
33525W        W 3340  11.218   4.943  11.576
33526W        W 3341  27.684   6.369  14.298
33527W        W 3342  16.776  18.709  14.396
33528W        W 3343  29.563  16.170   1.372
33529W        W 3344  19.550  30.033  11.485
33530W        W 3345   4.866  39.924   1.256
33531W        W 3346  37.562  12.282   1.324
33532W        W 3347   2.446   9.681  11.554
33533W        W 3348  36.926  34.092   0.272
33534W        W 3349   4.775   8.328   4.349
33535W        W 3350  37.415  36.578   5.307
33536W        W 3351  19.274  31.601   1.395
33537W        W 3352  38.934  27.052   4.735
33538W        W 3353  14.723   8.237  11.516
33539W        W 3354  43.355  31.918  13.393
33540W        W 3355  43.406  21.178  13.385
33541W        W 3356  19.721   4.235   2.797
33542W        W 3357  20.586  31.540   4.680
33543W        W 3358   9.689  38.864   2.721
33544W        W 3359  19.755  14.137   4.756
33545W        W 3360  21.660   1.356   4.198
33546W        W 3361  25.678  31.499  12.380
33547W        W 3362  14.234  15.192  13.488
33548W        W 3363  16.796   4.309  11.969
33549W        W 3364  32.635  15.678  10.047
33550W        W 3365  14.201   4.874   2.383
33551W        W 3366  44.351  34.510  14.447
33552W        W 3367  13.140   8.322   0.942
33553W        W 3368  19.253  37.914  12.037
33554W        W 3369  28.593  44.955  10.548
33555W        W 3370  31.970  18.633   0.883
33556W        W 3371   1.436  42.418   2.874
33557W        W 3372   6.900  29.482  12.022
33558W        W 3373   4.265   9.846   3.686
33559W        W 3374  19.642  38.829  14.928
33560W        W 3375  14.122   8.334   3.641
33561W        W 3376  14.113  28.945   2.738
33562W        W 3377  12.771   5.688   4.704
33563W        W 3378  15.578  25.091  12.999
33564W        W 3379  10.753  43.279   4.632
33565W        W 3380   1.276  21.019  10.616
33566W        W 3381  37.995  15.652   3.792
33567W        W 3382   6.765  33.055   4.185
33568W        W 3383   0.803   4.893  14.823
33569W        W 3384  40.454  31.068   1.926
33570W        W 3385  28.957  42.410  11.982
33571W        W 3386  23.517  10.147   3.306
33572W        W 3387  34.952   3.948  13.356
33573W        W 3388  15.777  25.123   4.187
33574W        W 3389   7.176  35.557   3.859
33575W        W 3390  39.871  11.224   4.679
33576W        W 3391  15.305   2.446   4.243
33577W        W 3392  27.140  29.533   1.434
33578W        W 3393   3.336  34.873   5.272
33579W        W 3394  35.058  27.500   3.385
33580W        W 3395  15.615  14.744  11.905
33581W        W 3396   0.767  22.666  13.013
33582W        W 3397  36.051  29.136   1.337
33583W        W 3398  19.541  23.986  10.889
33584W        W 3399  34.032  42.513   2.897
33585W        W 3400  11.139  16.741   1.881
33586W        W 3401  14.165  26.545   1.823
33587W        W 3402   4.911  18.566   2.667
33588W        W 3403  32.519  29.481   0.261
33589W        W 3404   3.459  34.978   1.288
33590W        W 3405  40.959  35.447  12.391
33591W        W 3406  25.676  27.685   4.332
33592W        W 3407  36.394  44.900   3.340
33593W        W 3408  17.794  26.172   0.811
33594W        W 3409  43.470  16.567   2.200
33595W        W 3410   9.387  26.464   4.140
33596W        W 3411   8.166  13.688  12.829
33597W        W 3412  43.830   7.186  10.583
33598W        W 3413  11.176   2.323  10.595
33599W        W 3414  30.967  38.403  11.568
33600W        W 3415  23.130   7.327   0.425
33601W        W 3416  41.866  26.100  11.506
33602W        W 3417  27.154  21.102   0.912
33603W        W 3418  42.812  29.104  13.875
33604W        W 3419  23.019  33.075  14.486
33605W        W 3420  39.429  34.568   0.403
33606W        W 3421  25.160  23.023  13.318
33607W        W 3422  20.172  11.781  10.916
33608W        W 3423   6.324  10.306  11.940
33609W        W 3424   0.847   9.395  14.328
33610W        W 3425  24.071   9.786   3.172
33611W        W 3426  22.522  12.631   3.828
33612W        W 3427   8.371  35.034  10.638
33613W        W 3428  12.265  17.197  11.067
33614W        W 3429  20.618  38.503   3.809
33615W        W 3430  31.985   7.229  10.149
33616W        W 3431   4.846  42.807   1.753
33617W        W 3432  35.957  28.970   4.705
33618W        W 3433  22.670  37.567  10.059
33619W        W 3434  19.286  27.195  11.436
33620W        W 3435  26.110   2.823   0.318
33621W        W 3436  11.319  10.180   4.675
33622W        W 3437  14.685  43.368  13.985
33623W        W 3438  27.031  33.559  13.476
33624W        W 3439  37.040  37.922   1.366
33625W        W 3440  12.138  18.745  10.159
33626W        W 3441  33.481  17.566   4.154
33627W        W 3442  41.910   9.872   2.869
33628W        W 3443  32.423  43.829   4.640
33629W        W 3444  24.003  39.820   2.783
33630W        W 3445  38.882  31.993   3.219
33631W        W 3446  44.760  31.628  12.056
33632W        W 3447  11.316  38.455  13.054
33633W        W 3448  20.641  13.260   0.815
33634W        W 3449   7.266  14.104  14.989
33635W        W 3450  40.951  28.530   3.218
33636W        W 3451  43.273   5.721   2.267
33637W        W 3452  28.041  39.817   5.161
33638W        W 3453   5.212  16.745   2.857
33639W        W 3454  10.280  44.273   3.676
33640W        W 3455   3.754   7.863  14.835
33641W        W 3456  22.009  11.666  14.783
33642W        W 3457  39.005  32.130  14.912
33643W        W 3458  19.108  32.570  11.426
33644W        W 3459  41.856  19.538   0.384
33645W        W 3460  23.543   8.360  11.534
33646W        W 3461   8.895  36.983  14.919
33647W        W 3462  34.484  44.814   1.934
33648W        W 3463  14.280  41.034   4.748
33649W        W 3464  31.087   1.954  14.355
33650W        W 3465  27.575  12.347  11.004
33651W        W 3466  10.249  39.936  10.940
33652W        W 3467   2.385   2.450   1.402
33653W        W 3468   8.223  16.658  10.933
33654W        W 3469   5.274  22.562  12.880
33655W        W 3470  36.854   6.910  11.411
33656W        W 3471  33.467  36.924   4.221
33657W        W 3472   8.782   9.713   4.682
33658W        W 3473  21.623   6.901   3.158
33659W        W 3474  15.623   3.239   1.433
33660W        W 3475  44.979  37.074  13.938
33661W        W 3476   5.906  13.631  11.940
33662W        W 3477  24.157  12.251  14.861
33663W        W 3478   7.819  10.709   3.287
33664W        W 3479  18.575  35.495   4.626
33665W        W 3480  32.544  14.653  11.053
33666W        W 3481  12.849   2.743   3.778
33667W        W 3482  11.849   9.662   3.322
33668W        W 3483   4.392   8.659  14.330
33669W        W 3484   7.226   4.267   3.652
33670W        W 3485  29.441  10.154   2.807
33671W        W 3486  35.441  28.181   0.330
33672W        W 3487  36.570  35.873   1.359
33673W        W 3488  33.617  35.084  12.921
33674W        W 3489   5.716  19.725   3.667
33675W        W 3490   2.861  39.397  12.448
33676W        W 3491  41.392  12.672  10.627
33677W        W 3492   3.737  16.752   3.355
33678W        W 3493   2.957  28.440  13.005
33679W        W 3494   0.314  35.500   2.337
33680W        W 3495  43.512  36.067  12.854
33681W        W 3496  20.598  21.740  12.939
33682W        W 3497   0.427   6.410  11.864
33683W        W 3498  35.439  12.791  10.503
33684W        W 3499   1.874  19.760  11.927
33685W        W 3500  37.031  11.342   0.855
33686W        W 3501  10.727   2.436   3.740
33687W        W 3502  17.559  22.129   0.381
33688W        W 3503  25.984  12.612   4.146
33689W        W 3504  32.497  13.198  14.856
33690W        W 3505  15.662  24.642   3.168
33691W        W 3506  11.141  43.508  10.575
33692W        W 3507   7.829  33.092   1.743
33693W        W 3508  44.391  33.037   0.402
33694W        W 3509  39.418  23.202   4.246
33695W        W 3510   1.932   0.444  10.928
33696W        W 3511  33.440  19.125   2.376
33697W        W 3512  22.655  24.578  10.963
33698W        W 3513  22.122  19.761  11.026
33699W        W 3514   2.784   9.177  11.929
33700W        W 3515  34.615  33.050   1.696
33701W        W 3516  30.480  34.550  12.001
33702W        W 3517   9.222  42.810  12.926
33703W        W 3518  41.022  41.299   3.309
33704W        W 3519  32.970  22.509   4.163
33705W        W 3520  32.052  20.270   3.773
33706W        W 3521  24.148   5.426   4.602
33707W        W 3522  22.024  42.895   2.237
33708W        W 3523   5.910   7.849  11.881
33709W        W 3524  36.088  15.236  12.578
33710W        W 3525  22.722  26.205   0.366
33711W        W 3526  30.061   1.834  10.491
33712W        W 3527  15.633  22.747  10.540
33713W        W 3528  16.632  27.989  13.821
33714W        W 3529   4.359   7.748   3.630
33715W        W 3530  16.084   8.793  12.563
33716W        W 3531  34.511  25.101  13.452
33717W        W 3532  30.125  26.556  11.602
33718W        W 3533  13.779  33.541  14.004
33719W        W 3534   1.751   9.320   3.793
33720W        W 3535  32.967  34.508   1.393
33721W        W 3536  20.759   4.308  13.544
33722W        W 3537   4.416  37.918   1.838
33723W        W 3538  44.456   1.470   3.370
33724W        W 3539  14.239  34.970  12.564
33725W        W 3540  29.106  10.250  12.397
33726W        W 3541  30.945   3.458  13.851
33727W        W 3542   3.952   3.247   3.194
33728W        W 3543   4.209   1.438  12.068
33729W        W 3544   3.854  10.702  10.418
33730W        W 3545  44.909   9.368  11.986
33731W        W 3546  11.249  35.385   0.420
33732W        W 3547  16.760  28.005   0.280
33733W        W 3548  17.677  13.750  10.519
33734W        W 3549   6.829  10.321   4.245
33735W        W 3550  29.027   1.412  13.917
33736W        W 3551  35.868  23.162  12.880
33737W        W 3552   2.820  34.043   0.467
33738W        W 3553  34.535  29.971  14.469
33739W        W 3554   6.895  15.296   0.430
33740W        W 3555  19.273   9.706  12.831
33741W        W 3556  16.163  18.086   3.343
33742W        W 3557   7.267  16.118   0.753
33743W        W 3558  25.616  37.375  13.388
33744W        W 3559  11.374  15.647  14.813
33745W        W 3560  32.903  11.256   0.479
33746W        W 3561  30.025  20.241  10.608
33747W        W 3562  12.659  33.020  11.418
33748W        W 3563  15.705  12.849   5.165
33749W        W 3564  15.141  33.004   1.429
33750W        W 3565  11.216  33.606   1.855
33751W        W 3566  35.588   5.787   2.783
33752W        W 3567   4.426   8.876   0.363
33753W        W 3568  15.695   3.228   2.355
33754W        W 3569  23.679  35.417  14.763
33755W        W 3570  44.829   5.366   4.755
33756W        W 3571  40.465  18.628   3.667
33757W        W 3572  26.631  41.992   1.777
33758W        W 3573  35.593  30.140  12.874
33759W        W 3574  21.722  33.563  14.493
33760W        W 3575   1.319  29.558  11.502
33761W        W 3576  30.132  11.799   3.806
33762W        W 3577  12.788   9.763   0.288
33763W        W 3578  35.545  26.669   3.718
33764W        W 3579  34.580  42.514  11.931
33765W        W 3580  42.317  33.385   4.608
33766W        W 3581  16.809  44.794   1.352
33767W        W 3582  29.521  20.585  14.867
33768W        W 3583   3.748  11.231   3.217
33769W        W 3584  37.573  41.878  14.375
33770W        W 3585  37.851  20.100   2.830
33771W        W 3586  41.485  28.535  13.518
33772W        W 3587   8.697   2.787  12.902
33773W        W 3588   6.411  21.753   0.324
33774W        W 3589  35.004  31.045  13.428
33775W        W 3590  27.635  32.584   4.319
33776W        W 3591  34.498  37.973  14.009
33777W        W 3592  12.253  38.912   1.880
33778W        W 3593  25.644   5.367   2.740
33779W        W 3594  29.601  26.668   5.270
33780W        W 3595  37.554  43.357   1.778
33781W        W 3596  44.804   8.315   2.734
33782W        W 3597  30.165   1.892  10.921
33783W        W 3598  18.764  10.351   3.195
33784W        W 3599  29.637  38.466   0.349
33785W        W 3600  27.569  34.110   4.770
33786W        W 3601  13.784  43.397  11.443
33787W        W 3602  23.027  11.821  11.884
33788W        W 3603   0.384  18.595  14.454
33789W        W 3604  10.260  11.747   5.233
33790W        W 3605  15.628   1.837   0.429
33791W        W 3606  40.496   4.214   4.294
33792W        W 3607  15.192  40.885   4.147
33793W        W 3608  31.550   2.242   4.313
33794W        W 3609  33.002  14.644  12.447
33795W        W 3610   4.269  35.098  13.847
33796W        W 3611  39.401   9.710   3.293
33797W        W 3612  28.527  31.559  11.567
33798W        W 3613  25.673   5.336  14.768
33799W        W 3614  11.847  38.498  14.405
33800W        W 3615  25.990  17.596   3.855
33801W        W 3616  19.194  14.160   1.304
33802W        W 3617  39.016   1.773   4.204
33803W        W 3618  39.888  34.067  14.908
33804W        W 3619   4.288  17.161   2.768
33805W        W 3620   9.828  10.352  12.509
33806W        W 3621  28.042  41.482   3.747
33807W        W 3622   8.312  37.383  13.898
33808W        W 3623  23.124  19.255  13.046
33809W        W 3624  17.176  26.082   3.683
33810W        W 3625  10.835  34.605   3.818
33811W        W 3626   4.783  35.397   3.352
33812W        W 3627  43.009  16.792  11.103
33813W        W 3628  25.073  15.755  10.522
33814W        W 3629  12.117  25.507  10.628
33815W        W 3630  36.526  34.475  14.894
33816W        W 3631  21.597  41.490  12.445
33817W        W 3632  33.389  17.248  12.504
33818W        W 3633   6.866   2.326  11.087
33819W        W 3634  13.251  41.965  14.284
33820W        W 3635   0.895  42.827   0.831
33821W        W 3636  27.149  18.126  12.852
33822W        W 3637  32.592   1.951   4.240
33823W        W 3638  39.952  23.584  11.485
33824W        W 3639  11.288  19.091  13.417
33825W        W 3640  40.449  24.189   4.654
33826W        W 3641   1.304  26.208  14.383
33827W        W 3642  25.149  28.011  14.483
33828W        W 3643  30.449  30.936   3.760
33829W        W 3644  20.728  28.142   4.811
33830W        W 3645  41.309   5.330   4.720
33831W        W 3646  13.750   6.791  11.024
33832W        W 3647  30.580  30.970   3.383
33833W        W 3648  44.857  33.944   0.376
33834W        W 3649  38.475  12.308  14.842
33835W        W 3650  33.495  38.487   9.933
33836W        W 3651  33.117  10.158   2.264
33837W        W 3652  25.523  17.635  13.025
33838W        W 3653  23.603  21.685  12.351
33839W        W 3654  32.134  13.239   2.283
33840W        W 3655   8.851  21.711   1.367
33841W        W 3656  10.816   7.280  14.431
33842W        W 3657  21.661   8.270   4.772
33843W        W 3658  36.024   3.713  11.919
33844W        W 3659   5.745  26.483   0.751
33845W        W 3660  26.144  28.525  12.919
33846W        W 3661   5.247  20.245  14.448
33847W        W 3662  15.232  37.964  13.944
33848W        W 3663  33.622   6.326   4.149
33849W        W 3664  21.055  15.101   4.669
33850W        W 3665  28.625  34.526  13.404
33851W        W 3666  20.187  19.256   4.776
33852W        W 3667  26.530  25.211  11.607
33853W        W 3668  21.672  14.336   4.808
33854W        W 3669  30.933  28.648  14.965
33855W        W 3670   3.932   8.220  14.993
33856W        W 3671  17.292  12.211  13.818
33857W        W 3672  44.919  34.496  12.454
33858W        W 3673  28.447  40.479   4.781
33859W        W 3674  13.832  41.966   2.770
33860W        W 3675  35.592  21.204  10.635
33861W        W 3676  32.905   9.302  12.963
33862W        W 3677   1.236  40.888  12.541
33863W        W 3678  35.956  39.378  11.059
33864W        W 3679   2.760  31.050  12.088
33865W        W 3680   6.199  34.076   3.306
33866W        W 3681  30.118  28.096  13.893
33867W        W 3682  21.154  25.051  10.594
33868W        W 3683  33.966   0.981   3.795
33869W        W 3684  23.112  18.786  12.544
33870W        W 3685  21.514  28.132   0.336
33871W        W 3686  19.543   6.717   2.773
33872W        W 3687  12.629  40.924  14.368
33873W        W 3688  39.056  28.951  14.916
33874W        W 3689  25.650  24.205   1.267
33875W        W 3690   9.298  33.611  13.392
33876W        W 3691  29.543  12.721  13.930
33877W        W 3692   8.755  11.331  11.117
33878W        W 3693   3.359  11.280   2.788
33879W        W 3694  29.138   0.414   4.277
33880W        W 3695  34.430   1.246  13.447
33881W        W 3696  15.191  30.018  11.467
33882W        W 3697  14.729  16.194   2.727
33883W        W 3698  12.781  44.791   1.756
33884W        W 3699  42.935   0.253  11.014
33885W        W 3700  18.684  12.232  13.504
33886W        W 3701  13.157  42.023  13.898
33887W        W 3702   8.373   0.856  14.946
33888W        W 3703  20.031   6.863   1.309
33889W        W 3704  34.955  35.531   0.288
33890W        W 3705  27.592  31.496   4.654
33891W        W 3706  36.046  18.545   4.657
33892W        W 3707  43.459  25.688   0.765
33893W        W 3708  38.836   7.716  13.868
33894W        W 3709  29.434  36.059  12.071
33895W        W 3710  36.439  30.548  11.871
33896W        W 3711  16.143  30.965   1.216
33897W        W 3712  12.210  37.035  13.881
33898W        W 3713   7.305  16.087   2.714
33899W        W 3714   5.703  23.669   2.371
33900W        W 3715   9.887  15.793  10.429
33901W        W 3716  16.715  14.160   4.768
33902W        W 3717   4.241  28.457  11.940
33903W        W 3718  17.242  10.634   2.298
33904W        W 3719   7.211  19.067  14.355
33905W        W 3720   3.234  33.967  11.523
33906W        W 3721  26.553  18.270   3.783
33907W        W 3722  14.276  25.520   0.337
33908W        W 3723  28.055  33.012   3.331
33909W        W 3724   1.424  18.695   0.391
33910W        W 3725   2.457  31.486   1.774
33911W        W 3726  13.125  34.385   1.726
33912W        W 3727  35.461   3.264  12.947
33913W        W 3728  42.010   5.779   1.758
33914W        W 3729   9.862  22.021   2.202
33915W        W 3730  14.265  31.970   1.818
33916W        W 3731  21.032  15.661  11.861
33917W        W 3732  28.625  23.217  12.051
33918W        W 3733  10.676  31.100  11.535
33919W        W 3734  31.584  35.383   1.315
33920W        W 3735  30.092   5.776   2.377
33921W        W 3736  40.316   9.795  10.423
33922W        W 3737  22.052  28.643   0.956
33923W        W 3738   9.153  10.767  14.946
33924W        W 3739  33.527  23.580  14.889
33925W        W 3740  44.491  38.568  10.468
33926W        W 3741   5.401   2.395  11.058
33927W        W 3742  31.599   9.353   4.206
33928W        W 3743   3.830  26.957  12.872
33929W        W 3744  39.486  26.637  12.016
33930W        W 3745  12.298  40.835  14.976
33931W        W 3746   8.227  23.002  12.055
33932W        W 3747  41.799   1.845  14.013
33933W        W 3748  12.730  13.657   3.264
33934W        W 3749   5.918  20.726   2.225
33935W        W 3750  39.004  30.604   3.360
33936W        W 3751  19.075  39.543  13.968
33937W        W 3752  44.385  38.529   0.481
33938W        W 3753  30.020  31.431  11.519
33939W        W 3754   3.265  14.287   4.165
33940W        W 3755  17.559  11.774   3.677
33941W        W 3756  29.996   6.221  11.940
33942W        W 3757  21.716  33.961   2.897
33943W        W 3758   7.318   8.281  11.398
33944W        W 3759  20.756  14.719   3.216
33945W        W 3760  17.241  26.168   0.305
33946W        W 3761   3.782   6.883   4.761
33947W        W 3762   3.334  11.685  13.961
33948W        W 3763  40.924  26.541   4.691
33949W        W 3764  24.535  38.341   3.821
33950W        W 3765  10.229   7.884  14.375
33951W        W 3766  40.018  20.556  13.928
33952W        W 3767   9.792  36.008   4.818
33953W        W 3768  42.921  29.924  14.818
33954W        W 3769  13.120   9.788  10.527
33955W        W 3770  31.022  24.982  14.985
33956W        W 3771  18.128  33.554   1.803
33957W        W 3772  34.489  15.262   4.648
33958W        W 3773  38.018  42.363  10.510
33959W        W 3774  20.075  29.976   2.823
33960W        W 3775  19.190  17.102  12.046
33961W        W 3776  42.958  14.294   0.463
33962W        W 3777   3.939  10.279  14.897
33963W        W 3778  33.571  29.163  11.085
33964W        W 3779   2.753   4.345   3.255
33965W        W 3780  38.492   2.302   3.711
33966W        W 3781   1.829  17.230  10.535
33967W        W 3782  31.062  29.044  10.972
33968W        W 3783  39.529  39.843   0.922
33969W        W 3784  13.828  42.909  12.056
33970W        W 3785  11.334  37.064   1.826
33971W        W 3786  20.724  32.096   2.681
33972W        W 3787  12.237  20.065  14.965
33973W        W 3788  38.957  12.791  14.825
33974W        W 3789  10.348  42.527  12.066
33975W        W 3790  21.675   6.388  11.100
33976W        W 3791  42.481   4.780   0.278
33977W        W 3792  35.926  39.363   3.740
33978W        W 3793   4.301  21.691   4.125
33979W        W 3794   1.838  23.671   2.841
33980W        W 3795  16.764  34.087  11.046
33981W        W 3796  31.572  16.750   4.797
33982W        W 3797  21.560   9.338  11.919
33983W        W 3798   1.847  28.069   4.217
33984W        W 3799  17.745  29.129   4.751
33985W        W 3800   9.331  21.585  10.976
33986W        W 3801  21.656  23.718  14.483
33987W        W 3802  19.083  39.485  13.321
33988W        W 3803  12.706   2.383   3.817
33989W        W 3804   9.389  13.310   3.328
33990W        W 3805  14.618  24.067   1.433
33991W        W 3806  30.160  15.210  13.401
33992W        W 3807  26.523   5.908  10.608
33993W        W 3808  24.098  33.420  12.454
33994W        W 3809  15.322  20.252  14.968
33995W        W 3810   8.176  29.537  11.495
33996W        W 3811  37.563  16.669   3.182
33997W        W 3812  41.858  14.179   4.187
33998W        W 3813  20.210  20.758   0.294
33999W        W 3814   3.933  12.806  10.101
34000W        W 3815   8.258  20.152   4.632
34001W        W 3816  28.445  37.379  10.911
34002W        W 3817  32.071  29.633  14.420
34003W        W 3818  30.601  30.017   0.280
34004W        W 3819  17.109  23.210   4.318
34005W        W 3820  11.151  17.605  11.029
34006W        W 3821   0.775  12.234  14.973
34007W        W 3822  12.807  38.371   1.849
34008W        W 3823  30.652  30.912  12.920
34009W        W 3824   3.873  24.498   0.411
34010W        W 3825   6.188   5.721   1.799
34011W        W 3826  36.082  44.859  12.444
34012W        W 3827  31.452  29.533   2.728
34013W        W 3828  42.880  27.958   1.225
34014W        W 3829  22.246   1.896  12.463
34015W        W 3830  42.472  42.779   1.913
34016W        W 3831  33.541  18.657  14.969
34017W        W 3832  17.672   9.720  13.335
34018W        W 3833  17.614  19.072   1.306
34019W        W 3834   9.733  38.538  14.027
34020W        W 3835  30.448   4.766  14.792
34021W        W 3836   7.883   9.301   3.755
34022W        W 3837  25.623  30.528   1.840
34023W        W 3838  36.488   9.365   3.258
34024W        W 3839  17.300  18.672  13.913
34025W        W 3840  36.956  36.883   1.321
34026W        W 3841  37.867  18.750   4.597
34027W        W 3842  15.174  18.720  14.939
34028W        W 3843   9.828  43.821   4.781
34029W        W 3844   6.403   6.303  13.062
34030W        W 3845  18.246  13.251  12.413
34031W        W 3846  27.567   3.260   1.836
34032W        W 3847   4.388  10.152   3.765
34033W        W 3848  37.939  11.210   3.363
34034W        W 3849  42.496   1.938  13.961
34035W        W 3850  10.244  25.526   3.327
34036W        W 3851  42.877   0.484   2.346
34037W        W 3852  21.696   0.354   2.797
34038W        W 3853  14.636  29.665  11.893
34039W        W 3854  34.942  44.443   4.166
34040W        W 3855  40.338  16.221  13.951
34041W        W 3856  25.690   9.157   0.964
34042W        W 3857  17.756   4.920  10.976
34043W        W 3858  41.831  17.271   9.981
34044W        W 3859  11.751  16.807   9.650
34045W        W 3860   3.812  39.984  11.580
34046W        W 3861  13.271  10.236  11.103
34047W        W 3862  31.495  26.199  11.408
34048W        W 3863  10.355  18.782   5.582
34049W        W 3864  37.434  28.536  11.534
34050W        W 3865   7.881  29.923   1.900
34051W        W 3866  43.765  44.266   0.727
34052W        W 3867  26.073  35.404  14.776
34053W        W 3868  33.061  14.806  14.423
34054W        W 3869   4.869  34.907   3.663
34055W        W 3870  33.982  43.878   2.778
34056W        W 3871   0.808  22.247   4.819
34057W        W 3872  28.500  43.879  13.503
34058W        W 3873  42.994   1.781   3.784
34059W        W 3874  15.297  34.453   2.815
34060W        W 3875   7.240  24.717   0.772
34061W        W 3876   8.738   7.242   1.219
34062W        W 3877  27.196  40.410   3.842
34063W        W 3878  26.146  24.597   2.184
34064W        W 3879  32.549  20.552   2.765
34065W        W 3880  26.568  44.282  11.859
34066W        W 3881  27.144  23.985  12.390
34067W        W 3882  11.146  25.482  14.301
34068W        W 3883  34.478   7.785   1.714
34069W        W 3884  43.407  21.110   3.845
34070W        W 3885  11.185  21.174   5.284
34071W        W 3886  20.609  20.578   0.837
34072W        W 3887   0.797  20.553   3.207
34073W        W 3888  15.316  36.002   2.418
34074W        W 3889   5.430  42.477  14.301
34075W        W 3890   3.415  24.693   2.287
34076W        W 3891  18.167  36.900   2.695
34077W        W 3892   7.322  11.155  12.348
34078W        W 3893  24.703  42.446   3.843
34079W        W 3894  41.327  11.851   2.390
34080W        W 3895  33.037  40.314   0.886
34081W        W 3896   5.934  44.986   0.420
34082W        W 3897   5.275  38.354   1.389
34083W        W 3898  26.189  23.206   1.255
34084W        W 3899   3.331  16.704  13.501
34085W        W 3900  35.889  14.135   3.147
34086W        W 3901  38.392  15.605  10.109
34087W        W 3902  11.782  29.611  11.931
34088W        W 3903  35.015   2.459   4.203
34089W        W 3904  23.631  15.723   0.262
34090W        W 3905  15.318   4.907   2.781
34091W        W 3906  12.340  34.933   0.916
34092W        W 3907  24.720  35.433   1.932
34093W        W 3908  23.633  39.808  14.841
34094W        W 3909  13.814   3.796  14.476
34095W        W 3910  42.014   6.726  12.971
34096W        W 3911  30.911  43.443  10.501
34097W        W 3912  40.867  41.969   2.263
34098W        W 3913  37.971  23.118   4.236
34099W        W 3914  41.515   9.272   4.297
34100W        W 3915  33.896  42.949   1.410
34101W        W 3916  39.906  20.749  12.088
34102W        W 3917  44.461  38.938   0.758
34103W        W 3918  13.335   2.227  14.764
34104W        W 3919  12.356  21.524  13.055
34105W        W 3920   3.308  29.020   0.761
34106W        W 3921   1.830  28.120  13.539
34107W        W 3922   6.898  19.042   4.303
34108W        W 3923  27.641   2.372   1.367
34109W        W 3924  13.776  10.198   3.386
34110W        W 3925  24.517  17.633   3.298
34111W        W 3926   3.405  29.150   0.305
34112W        W 3927   3.336  31.620  12.345
34113W        W 3928   1.431  38.345  10.949
34114W        W 3929  16.671  12.353   3.322
34115W        W 3930  10.793  41.486   2.856
34116W        W 3931  43.015  19.570   0.346
34117W        W 3932  41.902   0.817  10.505
34118W        W 3933  20.574  21.730  13.520
34119W        W 3934  42.946  42.477   2.778
34120W        W 3935  39.360  41.421   3.218
34121W        W 3936   8.686   0.902  13.870
34122W        W 3937  21.051  28.591   1.873
34123W        W 3938   8.296   0.828   3.713
34124W        W 3939  44.957   0.441  11.552
34125W        W 3940   4.727  43.305   2.795
34126W        W 3941   1.737  44.362  13.336
34127W        W 3942  15.134  28.137  12.439
34128W        W 3943   4.356  36.939   2.264
34129W        W 3944  33.910  41.352   2.689
34130W        W 3945  41.820   5.385   4.630
34131W        W 3946  19.096   1.956   0.946
34132W        W 3947  15.776  20.268   2.246
34133W        W 3948  28.524  22.006   4.116
34134W        W 3949  10.271  33.088  13.472
34135W        W 3950  14.301  38.972   9.956
34136W        W 3951  43.888  39.471   1.441
34137W        W 3952  29.947  39.834   4.644
34138W        W 3953  11.711  41.928   4.714
34139W        W 3954  30.032  26.532  13.421
34140W        W 3955   8.737  38.551   2.356
34141W        W 3956  34.492   3.712   3.292
34142W        W 3957  25.034  34.460   1.884
34143W        W 3958  29.603  34.533   4.776
34144W        W 3959  15.217  44.300   2.856
34145W        W 3960   2.878  24.529  11.905
34146W        W 3961  16.652  15.774  11.430
34147W        W 3962  31.473  11.779  10.986
34148W        W 3963  15.149  20.254  13.546
34149W        W 3964  20.243   5.818   1.855
34150W        W 3965  23.029  32.927   1.215
34151W        W 3966  11.363   3.246  14.826
34152W        W 3967   7.888  37.082   1.437
34153W        W 3968  36.891  23.128   2.392
34154W        W 3969   6.419  31.059   0.754
34155W        W 3970   0.316  18.742   2.228
34156W        W 3971  24.977   9.748  14.774
34157W        W 3972  33.620  42.482  11.040
34158W        W 3973  34.864  41.978   4.687
34159W        W 3974  43.324  16.094  13.434
34160W        W 3975  44.447  44.402   0.766
34161W        W 3976  11.226  22.616   0.474
34162W        W 3977  11.630  18.278   1.785
34163W        W 3978  17.755  21.176   0.371
34164W        W 3979  28.142  36.989   2.749
34165W        W 3980  28.117  18.084   4.689
34166W        W 3981  25.052  11.157  10.077
34167W        W 3982  26.036  32.121   0.417
34168W        W 3983  18.234   0.416   1.909
34169W        W 3984   1.453  17.726  13.021
34170W        W 3985   2.397  44.756  13.990
34171W        W 3986  24.702   7.894   2.340
34172W        W 3987  37.833  13.701  11.114
34173W        W 3988  29.963  12.138   2.751
34174W        W 3989  44.966  44.873   4.187
34175W        W 3990  26.036  41.405   4.830
34176W        W 3991  36.407  27.622  12.027
34177W        W 3992   8.167  39.428  14.379
34178W        W 3993  35.048  42.952   0.780
34179W        W 3994  13.740  17.295   4.697
34180W        W 3995  29.083  38.361   0.435
34181W        W 3996   0.899  34.526   1.437
34182W        W 3997   6.220  16.734   4.704
34183W        W 3998  10.176  18.227   0.959
34184W        W 3999  37.506  12.690   2.408
34185W        W 4000  44.406  36.971   3.732
34186W        W 4001  31.981  17.802  11.010
34187W        W 4002   2.911   0.323   3.634
34188W        W 4003   9.358  27.514   0.860
34189W        W 4004  33.109   8.752   3.630
34190W        W 4005  14.671  36.509  12.034
34191W        W 4006   6.781   1.896   2.689
34192W        W 4007  17.761   1.356   4.630
34193W        W 4008  39.407  19.556   4.258
34194W        W 4009  44.465  37.847  10.087
34195W        W 4010  24.206  14.179  11.542
34196W        W 4011  23.229  33.980  13.880
34197W        W 4012  34.514  35.019  13.839
34198W        W 4013  38.360   2.832  13.375
34199W        W 4014   8.309  19.081  11.876
34200W        W 4015  33.544  22.561  11.947
34201W        W 4016   5.278  25.161  14.368
34202W        W 4017   4.721   9.845   4.120
34203W        W 4018  17.587  16.317   2.719
34204W        W 4019  24.140   0.446   3.707
34205W        W 4020  42.366  37.515  14.903
34206W        W 4021   0.743  13.216   2.850
34207W        W 4022  34.462  34.557   0.746
34208W        W 4023  42.826  31.486  10.950
34209W        W 4024   5.427   2.418  13.968
34210W        W 4025  37.964  24.067   1.306
34211W        W 4026  35.873   2.361   0.368
34212W        W 4027  37.507  41.485   3.763
34213W        W 4028  38.850  41.911   4.790
34214W        W 4029  19.747   5.438   1.815
34215W        W 4030  24.595  34.897  14.804
34216W        W 4031  27.493  42.821   0.367
34217W        W 4032  22.153  40.815   3.159
34218W        W 4033  24.040  15.592   0.465
34219W        W 4034  29.124  39.351  11.073
34220W        W 4035  34.463  18.173  13.993
34221W        W 4036  13.108  11.728   4.167
34222W        W 4037  11.278  34.076   2.312
34223W        W 4038  17.692  35.103  13.961
34224W        W 4039   4.387   8.340  14.894
34225W        W 4040   7.364  11.190   3.726
34226W        W 4041   4.291   0.360   1.822
34227W        W 4042  19.214  29.512   0.943
34228W        W 4043  41.322  28.108   2.192
34229W        W 4044  35.976   8.248   2.820
34230W        W 4045  11.331  44.498  14.017
34231W        W 4046  31.628  37.346  10.433
34232W        W 4047  23.585  36.915   3.198
34233W        W 4048  18.704  10.762  11.607
34234W        W 4049  10.237  23.515  12.384
34235W        W 4050  15.758  13.841   3.686
34236W        W 4051  19.765   6.747   3.247
34237W        W 4052  28.596  37.853   4.201
34238W        W 4053  15.134  15.690  10.570
34239W        W 4054  42.478  25.154   0.424
34240W        W 4055  42.393  19.557   2.696
34241W        W 4056  12.271  41.435  13.004
34242W        W 4057  17.152  39.013  14.780
34243W        W 4058  27.136  38.432  14.816
34244W        W 4059  37.833   8.185   3.782
34245W        W 4060   8.759   4.244   0.762
34246W        W 4061  36.034  13.126  11.535
34247W        W 4062  44.833  38.915   2.715
34248W        W 4063  19.068   1.483  12.545
34249W        W 4064  20.261  32.435   1.735
34250W        W 4065  25.502  16.099   3.386
34251W        W 4066  36.368  11.710  12.089
34252W        W 4067  13.244  10.167  10.077
34253W        W 4068  39.060  33.900   1.928
34254W        W 4069   3.257  38.514   1.853
34255W        W 4070  21.089  36.494  13.318
34256W        W 4071  17.569  40.963  13.476
34257W        W 4072  35.874  17.718   3.643
34258W        W 4073   3.720  32.043   3.727
34259W        W 4074   7.768  38.069   4.177
34260W        W 4075  41.421  10.205   0.446
34261W        W 4076  29.110   4.446   0.255
34262W        W 4077  17.574  28.502   4.153
34263W        W 4078  16.174  19.195  11.040
34264W        W 4079  29.160   5.832  12.072
34265W        W 4080  19.172  23.734  12.479
34266W        W 4081   0.918   6.901  10.601
34267W        W 4082  43.981  28.519  12.580
34268W        W 4083  24.514   5.258  11.031
34269W        W 4084   0.427   7.179  12.340
34270W        W 4085  21.680  10.808   4.203
34271W        W 4086  29.031   8.297  13.328
34272W        W 4087  43.960  31.549  12.063
34273W        W 4088  24.602   7.353  14.360
34274W        W 4089  26.174  14.143   1.902
34275W        W 4090   3.899   0.290   0.768
34276W        W 4091  12.709   2.723   4.129
34277W        W 4092  40.374  30.948  11.518
34278W        W 4093  11.622  22.216  12.967
34279W        W 4094  30.132  36.966  11.501
34280W        W 4095  43.289  44.962  10.578
34281W        W 4096  40.828  10.357  12.346
34282W        W 4097   5.394   7.206  14.309
34283W        W 4098  26.572   9.344   4.631
34284W        W 4099  42.986  32.473  11.010
34285W        W 4100  33.484  33.458   0.846
34286W        W 4101  38.046  28.603  10.960
34287W        W 4102  26.624  39.357  12.358
34288W        W 4103  36.997  23.990  14.917
34289W        W 4104  37.918  33.020   0.258
34290W        W 4105  12.847  36.498   3.633
34291W        W 4106  32.981  20.722   0.403
34292W        W 4107  17.099  28.099   0.804
34293W        W 4108  37.853  33.413  10.530
34294W        W 4109  16.112  11.729   4.669
34295W        W 4110  14.113   5.232   3.174
34296W        W 4111  24.063  40.502  12.572
34297W        W 4112  14.142  32.408   4.332
34298W        W 4113  18.616  30.045  12.447
34299W        W 4114  36.416   6.239  14.431
34300W        W 4115  17.603  42.897  10.967
34301W        W 4116   6.914  25.481  14.316
34302W        W 4117  29.646  43.013  10.431
34303W        W 4118  16.800  32.032  12.942
34304W        W 4119  11.643  34.984  10.128
34305W        W 4120  37.054  32.025  10.571
34306W        W 4121  31.113   6.711   4.642
34307W        W 4122  34.441   7.412   4.622
34308W        W 4123  15.272  13.632   2.200
34309W        W 4124   2.768  19.041   0.331
34310W        W 4125  35.895  33.582  14.416
34311W        W 4126  17.080  33.921  10.490
34312W        W 4127  36.020  31.142  10.058
34313W        W 4128  17.580  23.634  13.487
34314W        W 4129   7.195   8.840   2.772
34315W        W 4130  28.102   2.878   0.812
34316W        W 4131  42.941   4.219  10.932
34317W        W 4132  28.637   0.366  12.067
34318W        W 4133  20.583  10.639  11.569
34319W        W 4134   4.798   5.927  10.952
34320W        W 4135  44.373  13.610   0.809
34321W        W 4136  26.194  42.900   3.209
34322W        W 4137  40.925  23.702  10.487
34323W        W 4138  15.729  21.645   0.483
34324W        W 4139  19.192  38.423  13.814
34325W        W 4140  21.082  41.330  11.494
34326W        W 4141  37.569  33.001   1.309
34327W        W 4142  18.619  34.109   2.670
34328W        W 4143  33.039  21.254  12.000
34329W        W 4144  27.029  39.543  11.585
34330W        W 4145   2.425  12.144  12.507
34331W        W 4146   7.408  28.020   4.770
34332W        W 4147   5.794  39.976  13.366
34333W        W 4148   0.401  31.497  12.392
34334W        W 4149  40.051  30.080   3.178
34335W        W 4150  15.623   0.886   2.263
34336W        W 4151   9.300  25.469  11.914
34337W        W 4152  29.104  11.132   2.814
34338W        W 4153  22.220  17.597  11.551
34339W        W 4154  34.897   4.921  13.546
34340W        W 4155  40.525  35.600   4.661
34341W        W 4156   4.371  27.634   3.680
34342W        W 4157   4.437  33.034   4.642
34343W        W 4158  24.097  43.402   0.440
34344W        W 4159  16.104  40.432   2.697
34345W        W 4160   1.273  16.307  13.375
34346W        W 4161  15.778   9.291   3.178
34347W        W 4162  42.427   5.427   0.780
34348W        W 4163  33.482  44.350  11.910
34349W        W 4164   4.274  37.348  10.108
34350W        W 4165  32.596  33.551   1.743
34351W        W 4166  34.972  29.461  13.852
34352W        W 4167   4.929  24.178  14.900
34353W        W 4168  44.438  28.076   1.786
34354W        W 4169   9.707  41.911  13.511
34355W        W 4170  27.021  35.393   0.745
34356W        W 4171  40.978  10.229  13.411
34357W        W 4172  43.321  42.961  13.452
34358W        W 4173  21.593  31.121  10.902
34359W        W 4174  44.878  40.436  13.323
34360W        W 4175   7.826  23.727  14.886
34361W        W 4176  32.473  13.322  13.307
34362W        W 4177  42.406   2.873  11.903
34363W        W 4178  24.526  34.066   3.198
34364W        W 4179   5.215   6.748   2.832
34365W        W 4180  16.288   3.372  13.514
34366W        W 4181  36.467  32.065   0.295
34367W        W 4182   8.848  24.684  11.408
34368W        W 4183  18.572  32.608  11.869
34369W        W 4184  36.408  33.569   1.274
34370W        W 4185   0.880  13.807  11.564
34371W        W 4186  16.284  39.393  11.011
34372W        W 4187  36.887  10.138  11.860
34373W        W 4188  24.597   8.393   1.368
34374W        W 4189  44.955   2.888  13.338
34375W        W 4190  26.621  22.112   0.367
34376W        W 4191   3.267  11.647   3.841
34377W        W 4192  12.226  15.153   3.216
34378W        W 4193  19.158   3.858  12.339
34379W        W 4194  29.076  17.122   0.728
34380W        W 4195  23.085  38.348  13.471
34381W        W 4196   8.660  14.717   2.222
34382W        W 4197  38.371  27.031   1.275
34383W        W 4198  44.840  27.526   4.683
34384W        W 4199  18.744   3.455   5.114
34385W        W 4200   1.928  17.660   2.370
34386W        W 4201  26.663  20.098  12.888
34387W        W 4202  39.837   6.363   5.172
34388W        W 4203   0.415   1.791   2.348
34389W        W 4204   9.881  17.640   3.777
34390W        W 4205   4.799  15.311   2.246
34391W        W 4206  40.537   6.348  11.017
34392W        W 4207  35.503  39.545  13.545
34393W        W 4208  38.024  15.189  10.929
34394W        W 4209  27.190  16.316   0.465
34395W        W 4210  10.840   4.790   3.756
34396W        W 4211   3.241  25.617   2.848
34397W        W 4212  44.376  39.385   4.257
34398W        W 4213   7.791   5.888   1.218
34399W        W 4214  20.552  13.647  11.492
34400W        W 4215  33.452   1.312  14.330
34401W        W 4216  42.939  42.372  13.047
34402W        W 4217  21.220  32.020  13.942
34403W        W 4218  33.127   3.851  12.987
34404W        W 4219  10.751   4.933   3.286
34405W        W 4220  19.202   2.470   2.686
34406W        W 4221  22.566   8.700  12.364
34407W        W 4222   7.759  25.608   0.386
34408W        W 4223   1.413   4.287  12.454
34409W        W 4224  26.624  23.685  12.518
34410W        W 4225   2.429  42.426  13.547
34411W        W 4226  42.388  34.068   2.199
34412W        W 4227  25.609  11.698   5.699
34413W        W 4228  16.598  16.213  14.431
34414W        W 4229  35.913   8.807   3.283
34415W        W 4230   4.338  17.240   3.754
34416W        W 4231  15.288  41.535   4.310
34417W        W 4232   6.680  27.550   3.153
34418W        W 4233   2.771   5.699   0.389
34419W        W 4234  43.492  34.453  14.881
34420W        W 4235  44.930   7.307   4.286
34421W        W 4236  44.407  40.432   2.243
34422W        W 4237  44.812  17.231  10.604
34423W        W 4238  21.088  25.602   3.852
34424W        W 4239  20.244  41.304   4.645
34425W        W 4240   6.757  16.738   4.796
34426W        W 4241  18.273   2.262   1.388
34427W        W 4242  18.244  16.596  12.454
34428W        W 4243  12.297  21.533  10.595
34429W        W 4244  19.667  26.513  10.020
34430W        W 4245  25.072  22.692   2.408
34431W        W 4246  38.951  20.548   4.127
34432W        W 4247   0.295  12.294  13.029
34433W        W 4248   0.360  11.225  13.941
34434W        W 4249  12.196  28.624  11.546
34435W        W 4250  22.707  21.169   9.947
34436W        W 4251  20.767  20.059  11.513
34437W        W 4252  28.042  30.555  10.582
34438W        W 4253  35.478  23.045  13.497
34439W        W 4254  14.264  27.161   1.870
34440W        W 4255  13.276   9.821  12.055
34441W        W 4256  11.802  12.736  12.527
34442W        W 4257  25.170  43.307  14.922
34443W        W 4258  38.532   9.774   2.671
34444W        W 4259  19.736  14.152   5.208
34445W        W 4260  15.280  18.693   1.805
34446W        W 4261  25.003  27.553  12.906
34447W        W 4262  16.701   3.847   0.272
34448W        W 4263  35.867  21.679   0.334
34449W        W 4264  42.413  32.982   3.793
34450W        W 4265  19.657  15.798  13.427
34451W        W 4266  44.442  19.059  13.976
34452W        W 4267  28.610   1.427   3.224
34453W        W 4268   3.392  39.455   1.896
34454W        W 4269   9.250  11.854   5.313
34455W        W 4270   0.878  34.911   4.317
34456W        W 4271  18.649  31.048  13.062
34457W        W 4272  12.117  18.545   2.848
34458W        W 4273  44.761  26.051   3.794
34459W        W 4274  18.276  39.992  10.568
34460W        W 4275  43.909   1.265   2.309
34461W        W 4276  23.525  27.486   0.851
34462W        W 4277   3.274   3.256  11.375
34463W        W 4278  21.648  26.491  13.039
34464W        W 4279  42.851  34.018  14.502
34465W        W 4280  15.697  14.694   1.216
34466W        W 4281  32.078  39.403   3.809
34467W        W 4282  34.895   7.358   1.381
34468W        W 4283  16.631  31.620  10.605
34469W        W 4284  36.069   9.702   0.935
34470W        W 4285  38.938  20.247  10.416
34471W        W 4286   8.886   5.880  12.935
34472W        W 4287   0.462  29.134  14.804
34473W        W 4288   3.928   8.315   3.298
34474W        W 4289  11.732  24.532   0.914
34475W        W 4290  11.818  38.919  13.474
34476W        W 4291  15.695  16.074  13.886
34477W        W 4292  23.145  37.076   3.739
34478W        W 4293  38.470  19.606  11.900
34479W        W 4294   3.939   4.360   3.641
34480W        W 4295   0.966   9.341  14.828
34481W        W 4296  12.657  18.574  13.405
34482W        W 4297  33.569   5.806  10.970
34483W        W 4298  39.418   0.941   4.713
34484W        W 4299  35.604   7.853   3.268
34485W        W 4300   6.905  35.876  12.851
34486W        W 4301   0.371  35.926  13.973
34487W        W 4302   8.365  30.491  14.768
34488W        W 4303  13.717  13.753  14.512
34489W        W 4304  29.637  27.588   3.153
34490W        W 4305  15.595  27.068   3.337
34491W        W 4306  30.590  27.131   3.250
34492W        W 4307  33.612  24.187  13.871
34493W        W 4308  22.586   0.818  14.374
34494W        W 4309  17.648  11.743   0.887
34495W        W 4310   9.178   8.379  13.044
34496W        W 4311  19.232  18.293  12.476
34497W        W 4312  39.002  14.239  14.903
34498W        W 4313  18.586   0.352   3.341
34499W        W 4314  23.150  18.291  11.471
34500W        W 4315  21.114  14.764  11.583
34501W        W 4316  24.525  17.270   5.767
34502W        W 4317   2.962  12.328  11.400
34503W        W 4318  44.448  18.618  10.520
34504W        W 4319  44.892  24.566  12.377
34505W        W 4320  25.676  31.029  14.895
34506W        W 4321  28.523  20.107  11.025
34507W        W 4322   4.739  44.314   2.382
34508W        W 4323  14.822  37.446   3.867
34509W        W 4324   8.739   2.764   4.693
34510W        W 4325  10.376  34.473  13.940
34511W        W 4326  29.467  21.034   9.981
34512W        W 4327  40.815  29.059   3.190
34513W        W 4328  34.963  31.550  10.077
34514W        W 4329  39.938   5.896  14.969
34515W        W 4330  40.817   6.394  12.401
34516W        W 4331  18.087  18.050   2.837
34517W        W 4332  22.183   6.840  11.090
34518W        W 4333  43.825  40.827  14.977
34519W        W 4334   9.375  14.674  12.986
34520W        W 4335  13.335  18.227   1.293
34521W        W 4336  13.310  17.558   4.826
34522W        W 4337  25.184  30.996   4.276
34523W        W 4338   1.324  38.502   4.142
34524W        W 4339  35.878  29.063  13.518
34525W        W 4340  36.030  25.092  13.407
34526W        W 4341   4.838  24.624   0.728
34527W        W 4342  26.123  34.973  14.372
34528W        W 4343  20.265  33.116   0.433
34529W        W 4344  21.063  37.853   0.899
34530W        W 4345  36.388  12.151  13.380
34531W        W 4346  33.002   3.799   4.756
34532W        W 4347   5.310  37.989  14.287
34533W        W 4348   0.428  35.105  10.896
34534W        W 4349   6.293  25.551   0.472
34535W        W 4350  31.634  31.080   0.786
34536W        W 4351   8.804   1.472   0.274
34537W        W 4352  20.270  26.482  13.546
34538W        W 4353  15.328  29.079  11.942
34539W        W 4354  37.399  40.022  11.534
34540W        W 4355  23.001  10.196  14.853
34541W        W 4356   5.322  42.942   0.377
34542W        W 4357  25.072  24.507   0.445
34543W        W 4358  33.001  21.691   1.237
34544W        W 4359   7.299  11.216   0.825
34545W        W 4360  28.180  22.050   4.204
34546W        W 4361   1.446  43.940   2.320
34547W        W 4362   8.283  15.284   3.336
34548W        W 4363  31.896  17.626  10.607
34549W        W 4364  18.215  44.970   2.765
34550W        W 4365   1.462  28.963   2.354
34551W        W 4366  37.833  24.085  12.022
34552W        W 4367  19.762  33.973   1.284
34553W        W 4368  29.137  18.677  11.055
34554W        W 4369  20.637  16.670  13.442
34555W        W 4370  32.984   6.727   0.823
34556W        W 4371  29.145  12.156   3.726
34557W        W 4372   8.748  30.991  12.488
34558W        W 4373  31.601  36.473   4.139
34559W        W 4374  38.897  15.734   4.168
34560W        W 4375  35.091   2.831   3.751
34561W        W 4376  22.095  20.205  10.611
34562W        W 4377  33.112  13.152  13.329
34563W        W 4378  39.413   8.169  13.315
34564W        W 4379  35.470  41.300  11.430
34565W        W 4380  17.747  37.401  13.313
34566W        W 4381  15.140  26.631  12.405
34567W        W 4382   9.241  11.318  11.998
34568W        W 4383   3.299  38.361   1.302
34569W        W 4384   1.247  11.173  14.506
34570W        W 4385  38.455  27.636   1.267
34571W        W 4386  23.697  39.869   1.236
34572W        W 4387  20.088   5.302  12.548
34573W        W 4388  36.581   3.712  14.932
34574W        W 4389  39.933  22.620   4.705
34575W        W 4390  16.199  15.625  11.060
34576W        W 4391  28.968  14.611  12.857
34577W        W 4392   0.321   2.365   1.851
34578W        W 4393  26.518  41.502   2.395
34579W        W 4394   7.203   4.449  11.466
34580W        W 4395  41.833  34.888  10.596
34581W        W 4396  17.303   1.894   0.343
34582W        W 4397  35.891  35.078  12.386
34583W        W 4398   1.352  35.872  12.454
34584W        W 4399  35.432  30.133  14.512
34585W        W 4400   0.868  10.376   4.783
34586W        W 4401  22.612   9.217   1.704
34587W        W 4402  33.476  39.524  14.412
34588W        W 4403  20.065  32.511  14.005
34589W        W 4404   4.908  15.615   3.303
34590W        W 4405   5.781   1.455  10.913
34591W        W 4406   8.792  43.011  14.758
34592W        W 4407  26.995  10.841  12.531
34593W        W 4408  15.820   9.801  14.461
34594W        W 4409  39.323  32.578   3.357
34595W        W 4410  19.194   6.277   2.888
34596W        W 4411  12.215  27.564   1.883
34597W        W 4412  18.563  39.558  12.992
34598W        W 4413   4.922  36.572   5.113
34599W        W 4414  23.591  20.707   1.437
34600W        W 4415  21.563  16.114   0.251
34601W        W 4416  14.747  40.027  14.889
34602W        W 4417  33.986  44.301  11.041
34603W        W 4418  10.660  38.071  10.634
34604W        W 4419  26.156  34.376   2.746
34605W        W 4420   0.310  39.473   0.256
34606W        W 4421  32.609  35.927  14.508
34607W        W 4422  13.785  26.655   3.736
34608W        W 4423  44.994   1.870  13.940
34609W        W 4424   5.775  11.803  12.444
34610W        W 4425  26.680   5.225  14.503
34611W        W 4426  18.785  26.595  10.014
34612W        W 4427  21.178  44.873  11.487
34613W        W 4428   9.336   2.769   3.824
34614W        W 4429  13.703  14.302  10.604
34615W        W 4430  27.658  32.058  14.503
34616W        W 4431  10.360  25.526  14.287
34617W        W 4432  20.059  42.891   2.692
34618W        W 4433  35.465   2.227  14.422
34619W        W 4434  40.501  17.761  12.376
34620W        W 4435  10.860  28.104   4.705
34621W        W 4436  44.284   5.381  12.055
34622W        W 4437  21.717   4.842  13.870
34623W        W 4438   0.792  41.987   4.348
34624W        W 4439  23.008  22.251   0.260
34625W        W 4440  13.242  36.542  11.494
34626W        W 4441  25.552  16.614   4.155
34627W        W 4442  26.580  18.193  10.978
34628W        W 4443  28.450   0.418   0.799
34629W        W 4444  32.570   4.362  13.810
34630W        W 4445  13.759  26.522   0.804
34631W        W 4446  27.547  41.804  13.533
34632W        W 4447  44.846  18.696  14.793
34633W        W 4448   4.416  26.100  13.000
34634W        W 4449  34.528   5.749  13.825
34635W        W 4450  31.545  25.207   0.875
34636W        W 4451  30.597  12.664  12.868
34637W        W 4452   9.334  13.645  13.459
34638W        W 4453  41.492   5.821   4.832
34639W        W 4454  40.034  40.475   1.243
34640W        W 4455  36.514  40.443  11.975
34641W        W 4456  28.558  28.624  10.521
34642W        W 4457  12.316  30.444   4.778
34643W        W 4458   8.347  29.063   2.716
34644W        W 4459   1.246  37.416   0.273
34645W        W 4460   4.928  23.706   0.308
34646W        W 4461  23.620  19.687   9.467
34647W        W 4462  23.519  25.011   1.831
34648W        W 4463   8.871  19.154  11.876
34649W        W 4464  39.418  28.010  12.972
34650W        W 4465  19.708  32.524   0.436
34651W        W 4466  16.304  25.977  14.464
34652W        W 4467  11.844  13.839   4.170
34653W        W 4468  18.073  19.265  11.484
34654W        W 4469   2.334  42.912   3.196
34655W        W 4470   5.402  31.938   3.202
34656W        W 4471  38.372  28.576  11.570
34657W        W 4472  29.556  27.553  10.422
34658W        W 4473   9.802  27.470   4.636
34659W        W 4474  11.687  29.958   4.627
34660W        W 4475  32.592  25.707   0.894
34661W        W 4476   3.811  27.091   1.353
34662W        W 4477   4.295  21.192  10.559
34663W        W 4478  11.709  16.654   0.287
34664W        W 4479  29.946   1.402   3.269
34665W        W 4480  30.618  33.022   3.252
34666W        W 4481   1.343   5.214  13.049
34667W        W 4482  16.807  14.592  12.356
34668W        W 4483  44.344  18.600  11.390
34669W        W 4484  29.004  15.682   2.700
34670W        W 4485   8.799   4.880  13.840
34671W        W 4486  19.730  31.455   4.304
34672W        W 4487  30.939  24.514  11.111
34673W        W 4488  43.418   9.223  13.053
34674W        W 4489  39.353  38.458  13.545
34675W        W 4490   4.267  27.022  14.354
34676W        W 4491   2.381   7.818  11.600
34677W        W 4492  17.121  26.629   4.279
34678W        W 4493   6.393  13.664  14.996
34679W        W 4494   1.357  25.665  12.057
34680W        W 4495  25.982  12.272  10.941
34681W        W 4496  15.614  32.889  14.824
34682W        W 4497  15.678  44.920   3.177
34683W        W 4498  41.426  35.539   0.890
34684W        W 4499  40.371  17.167  11.377
34685W        W 4500   7.821  42.355   4.704
34686W        W 4501  24.585  40.340   4.706
34687W        W 4502   7.404  32.990   0.831
34688W        W 4503  44.855   3.302  10.567
34689W        W 4504  31.639  38.345   3.161
34690W        W 4505  11.836  12.355   4.816
34691W        W 4506  24.539  34.876   1.858
34692W        W 4507   7.894   2.737   0.757
34693W        W 4508  28.583  24.683   3.181
34694W        W 4509  16.232  29.172  11.055
34695W        W 4510  33.562  22.024   3.762
34696W        W 4511  13.770  12.654   4.310
34697W        W 4512  42.456   7.283   1.274
34698W        W 4513  39.006  34.108  13.465
34699W        W 4514  25.508  25.705  11.990
34700W        W 4515  34.560   6.329   1.735
34701W        W 4516   1.446  31.562  12.888
34702W        W 4517  42.949   4.359   3.263
34703W        W 4518  37.020  19.112  12.935
34704W        W 4519  36.419   1.840  10.551
34705W        W 4520  25.618  36.560  14.412
34706W        W 4521  33.528  42.520   5.108
34707W        W 4522  20.191  29.442   0.732
34708W        W 4523  39.378   6.832  11.473
34709W        W 4524  16.602  13.792  11.505
34710W        W 4525   6.784   0.470   2.855
34711W        W 4526  13.745  18.183  13.913
34712W        W 4527   1.820  20.578   4.151
34713W        W 4528   4.333  27.547  10.516
34714W        W 4529  24.553  27.178   1.721
34715W        W 4530  27.131  42.510  11.548
34716W        W 4531  28.094  38.566  13.515
34717W        W 4532  31.087  38.394   2.315
34718W        W 4533  31.003   2.375   2.309
34719W        W 4534  19.191  34.519  11.908
34720W        W 4535  22.530  10.242  13.438
34721W        W 4536  23.124  34.096   3.192
34722W        W 4537  21.730   1.278  10.889
34723W        W 4538  44.448   1.847   4.837
34724W        W 4539  24.112  16.758  13.946
34725W        W 4540  21.105  36.056  12.908
34726W        W 4541   0.493  41.853  10.996
34727W        W 4542  13.288  17.617   5.312
34728W        W 4543   6.859  43.953   3.386
34729W        W 4544  10.794  37.415  11.896
34730W        W 4545  23.134  20.109  12.867
34731W        W 4546   5.915  10.372  14.854
34732W        W 4547  39.521   9.805   0.909
34733W        W 4548  34.119  34.461   2.211
34734W        W 4549  26.162   8.402  14.014
34735W        W 4550  31.415   3.857  10.556
34736W        W 4551  20.216  43.773  14.297
34737W        W 4552   1.447  21.709   4.260
34738W        W 4553   3.350  27.683   3.264
34739W        W 4554  15.619  30.577   4.227
34740W        W 4555  16.308  12.681  11.925
34741W        W 4556   6.192  19.043  10.510
34742W        W 4557  29.607  22.218  11.469
34743W        W 4558  13.737  21.097   2.234
34744W        W 4559  38.875  34.945   3.804
34745W        W 4560  12.279  11.370   2.702
34746W        W 4561  43.483  12.839   3.301
34747W        W 4562  19.041  35.473   1.306
34748W        W 4563  41.482  17.223   4.177
34749W        W 4564  19.199  16.211   3.201
34750W        W 4565  36.025   5.933   2.303
34751W        W 4566  27.672  18.661  12.867
34752W        W 4567  17.713   4.428  11.508
34753W        W 4568   8.252  14.127   2.855
34754W        W 4569  38.883   2.823  13.496
34755W        W 4570  41.833  30.588  11.447
34756W        W 4571  24.580  36.097   1.212
34757W        W 4572   1.897   6.840   2.353
34758W        W 4573  43.838   6.232   3.830
34759W        W 4574  37.503  16.586  13.889
34760W        W 4575   1.736  37.388  14.936
34761W        W 4576  44.283  31.469  13.393
34762W        W 4577  17.267  34.949   1.783
34763W        W 4578   3.928  31.506  12.508
34764W        W 4579   6.390   5.239  13.410
34765W        W 4580  44.283  34.903   5.228
34766W        W 4581  18.591  29.555   4.326
34767W        W 4582  11.831   3.223  10.583
34768W        W 4583  12.829  12.639  13.499
34769W        W 4584  25.526  43.888  10.943
34770W        W 4585  40.433  24.020   2.662
34771W        W 4586  40.836  22.080   2.822
34772W        W 4587  40.821  25.086   4.164
34773W        W 4588  41.006  16.635  14.778
34774W        W 4589   5.361  20.106   2.806
34775W        W 4590   4.303  21.070   3.216
34776W        W 4591  44.997   8.663   4.113
34777W        W 4592  13.739  22.240  10.584
34778W        W 4593   1.820  39.409  12.008
34779W        W 4594  20.151  28.666   4.690
34780W        W 4595  38.549   9.366   3.777
34781W        W 4596  19.600  42.795   2.347
34782W        W 4597  31.578  18.245  13.472
34783W        W 4598  27.958  22.245  10.501
34784W        W 4599  10.313  22.543  10.933
34785W        W 4600  32.923  13.771   1.911
34786W        W 4601  23.005   9.210  11.472
34787W        W 4602  11.190  28.078  12.990
34788W        W 4603  43.359  38.028  14.297
34789W        W 4604  19.209  43.441   1.897
34790W        W 4605  14.647  16.291  13.976
34791W        W 4606  37.574  10.296  14.341
34792W        W 4607  15.782  38.484  12.985
34793W        W 4608  12.280  29.021   0.289
34794W        W 4609  38.966   0.373  10.643
34795W        W 4610   7.251  39.499  10.497
34796W        W 4611  15.622  12.159   0.901
34797W        W 4612  29.550  40.975  11.525
34798W        W 4613  40.895  11.204  11.501
34799W        W 4614  39.375   1.251   4.302
34800W        W 4615   9.708  36.454  12.419
34801W        W 4616  18.211  28.538  11.029
34802W        W 4617   6.739  33.125   2.211
34803W        W 4618   4.325  12.705   2.899
34804W        W 4619   7.197   8.292   2.319
34805W        W 4620  21.089  14.716  13.452
34806W        W 4621  15.621   8.359  11.010
34807W        W 4622  14.639  30.469   3.786
34808W        W 4623  15.756  29.100   3.251
34809W        W 4624  32.126  26.476  14.805
34810W        W 4625  17.186  13.685   1.738
34811W        W 4626   7.388  37.403  14.014
34812W        W 4627  42.920  40.309  14.806
34813W        W 4628  17.631  20.225   0.775
34814W        W 4629  25.154  36.932   2.683
34815W        W 4630   1.314  25.079  13.526
34816W        W 4631   9.714  37.441   3.294
34817W        W 4632  20.199  35.435  12.093
34818W        W 4633  28.136  24.689  14.355
34819W        W 4634   6.269  29.486   0.461
34820W        W 4635  24.724  22.027   2.693
34821W        W 4636   9.717   7.303  10.465
34822W        W 4637  30.554  36.523  10.983
34823W        W 4638  40.866  27.630  12.359
34824W        W 4639   3.759   4.416   4.610
34825W        W 4640   5.781   9.659  13.467
34826W        W 4641  23.734  13.706   2.191
34827W        W 4642  35.579  12.801   1.840
34828W        W 4643   1.753  19.198  13.343
34829W        W 4644  22.062  38.863   1.734
34830W        W 4645  11.359   7.346   2.235
34831W        W 4646  44.895  44.321  10.503
34832W        W 4647  33.522  40.446   3.191
34833W        W 4648   1.362  24.203   0.331
34834W        W 4649  26.955  26.133   3.762
34835W        W 4650  38.416   5.745   2.279
34836W        W 4651  44.474  38.850  14.881
34837W        W 4652  39.042  17.599   4.156
34838W        W 4653  28.512  44.266   4.221
34839W        W 4654  40.850  28.111   4.248
34840W        W 4655   1.349   5.889  10.621
34841W        W 4656  38.005  29.568   0.351
34842W        W 4657  37.572  35.603   1.776
34843W        W 4658  24.675  17.793   2.239
34844W        W 4659  34.119  26.457   4.821
34845W        W 4660  36.455  25.707  14.907
34846W        W 4661  11.651  32.434   0.800
34847W        W 4662  12.233   1.951   0.363
34848W        W 4663  16.316   4.929   0.254
34849W        W 4664  29.584   8.777   2.767
34850W        W 4665  20.570  30.422   1.731
34851W        W 4666  22.236  42.412  12.067
34852W        W 4667  36.514  44.292  11.391
34853W        W 4668  23.215  12.711   1.708
34854W        W 4669  25.050   7.859  12.043
34855W        W 4670  23.067  33.071   2.732
34856W        W 4671  19.601  30.929  14.912
34857W        W 4672   4.374   9.749   3.349
34858W        W 4673  25.586  30.654   0.924
34859W        W 4674  26.150  42.814   1.753
34860W        W 4675  20.719  10.304  11.121
34861W        W 4676   4.323  30.584  11.862
34862W        W 4677  31.050  10.781  12.880
34863W        W 4678  37.563  39.011  13.867
34864W        W 4679   6.898  28.531   2.691
34865W        W 4680   1.966   7.402  11.077
34866W        W 4681   5.722  31.013   0.892
34867W        W 4682  30.570  38.503  11.531
34868W        W 4683  13.122  24.638  13.797
34869W        W 4684  42.318   2.942  10.538
34870W        W 4685  26.143  13.192   4.192
34871W        W 4686   7.271  34.607  13.943
34872W        W 4687  14.145  20.548   4.169
34873W        W 4688   9.376  11.738   3.819
34874W        W 4689  10.352  40.328   3.712
34875W        W 4690  26.570   3.458   0.361
34876W        W 4691  10.674  13.629   1.230
34877W        W 4692  33.382  31.619  12.852
34878W        W 4693  41.969  27.595   1.858
34879W        W 4694  24.039  40.846  11.889
34880W        W 4695  43.269  20.685  13.361
34881W        W 4696  14.686  18.652   4.331
34882W        W 4697   5.408   3.824  12.014
34883W        W 4698  38.844   3.840  14.761
34884W        W 4699  26.477  29.977   3.153
34885W        W 4700   5.848   4.343  14.382
34886W        W 4701  31.528  25.077   2.779
34887W        W 4702  44.790  32.424  10.922
34888W        W 4703  32.925   6.801  13.032
34889W        W 4704  23.238  15.733  10.042
34890W        W 4705  17.148   0.429   3.243
34891W        W 4706   1.350  14.729  13.521
34892W        W 4707  11.297  35.951  11.039
34893W        W 4708   4.922  30.455   2.381
34894W        W 4709  28.565  23.174   1.858
34895W        W 4710  38.483   6.352  10.437
34896W        W 4711  40.532  32.119  11.877
34897W        W 4712  43.300  23.130   4.184
34898W        W 4713  30.011  37.899  12.501
34899W        W 4714  33.117  33.423  11.123
34900W        W 4715  11.674  21.598  10.556
34901W        W 4716   6.861  29.643   0.401
34902W        W 4717  40.465  26.114  14.962
34903W        W 4718  43.803  11.737  14.407
34904W        W 4719  43.950  38.471  12.853
34905W        W 4720  21.101  26.972   1.344
34906W        W 4721  22.594   4.217   4.293
34907W        W 4722  19.108  29.479  10.583
34908W        W 4723   6.299  38.982  12.052
34909W        W 4724   8.864   8.217   1.799
34910W        W 4725  32.547   0.852  13.912
34911W        W 4726  33.123  13.112   1.807
34912W        W 4727  40.536  17.771   2.739
34913W        W 4728   1.920   0.346   2.199
34914W        W 4729  40.378  13.764  14.398
34915W        W 4730  14.328  22.199  14.885
34916W        W 4731   6.736  31.987  13.313
34917W        W 4732  32.516   6.336   4.711
34918W        W 4733  25.489  39.329   2.408
34919W        W 4734  35.554  24.608   2.734
34920W        W 4735  15.260  15.252  14.326
34921W        W 4736  29.460   8.220  12.544
34922W        W 4737  24.991  32.986   1.721
34923W        W 4738   9.885  13.296   1.767
34924W        W 4739  41.000  40.471  13.943
34925W        W 4740  31.130  43.904   1.704
34926W        W 4741  15.270  30.449  11.039
34927W        W 4742  17.104  16.771   0.336
34928W        W 4743  38.566  28.989  14.849
34929W        W 4744   9.838  30.142  11.395
34930W        W 4745  27.671  25.105  13.947
34931W        W 4746  20.103   4.302  13.953
34932W        W 4747  32.635  23.552  11.877
34933W        W 4748   4.363  31.507   2.398
34934W        W 4749  43.369   4.374  13.443
34935W        W 4750  10.648  44.794  12.397
34936W        W 4751  43.938  25.123  14.429
34937W        W 4752  42.304  27.140   2.186
34938W        W 4753   6.729  10.873  14.301
34939W        W 4754  25.118  41.458  11.890
34940W        W 4755  39.942  40.010   4.660
34941W        W 4756  19.252  37.069   1.371
34942W        W 4757  43.914  34.921   2.268
34943W        W 4758  21.245  36.942  10.576
34944W        W 4759  32.899  33.060   2.796
34945W        W 4760  39.064  14.292   0.966
34946W        W 4761  11.832  29.609   5.253
34947W        W 4762  25.674  12.308   1.883
34948W        W 4763  31.077   8.390   4.734
34949W        W 4764  35.545   9.703   2.353
34950W        W 4765  24.230  28.530  11.451
34951W        W 4766  42.867   6.752  12.551
34952W        W 4767  11.141   7.671   0.475
34953W        W 4768   1.368  16.678   1.363
34954W        W 4769  27.447  29.499  12.391
34955W        W 4770   3.830  40.898   3.836
34956W        W 4771  40.037  13.708   1.926
34957W        W 4772  28.040  22.206  11.124
34958W        W 4773  15.640  24.663  12.933
34959W        W 4774  19.141  27.452  13.002
34960W        W 4775  42.496  42.828  14.024
34961W        W 4776  27.525  17.165   1.237
34962W        W 4777  28.106  11.336  10.485
34963W        W 4778   7.697  27.507  13.975
34964W        W 4779   6.856  44.808   4.134
34965W        W 4780  40.848  41.467  11.059
34966W        W 4781   7.336   8.177   1.761
34967W        W 4782  25.068  14.098   3.763
34968W        W 4783  30.590   3.730   4.280
34969W        W 4784  30.976  25.664  11.531
34970W        W 4785  38.903  23.189   4.284
34971W        W 4786   3.788  33.909   4.135
34972W        W 4787   2.353  33.082  12.983
34973W        W 4788  19.266   5.289   1.893
34974W        W 4789  15.250  22.236  11.468
34975W        W 4790   3.724  30.529  10.113
34976W        W 4791  39.541  29.564   1.705
34977W        W 4792  13.802  10.808   3.860
34978W        W 4793   3.730   2.795  14.804
34979W        W 4794  43.382   9.883   4.350
34980W        W 4795  40.399   1.827  13.063
34981W        W 4796  19.268   0.808  13.060
34982W        W 4797  35.594  43.484   1.371
34983W        W 4798   6.793   5.289  12.381
34984W        W 4799   8.783  14.612  12.510
34985W        W 4800  31.909   3.319   0.321
34986W        W 4801  39.040  11.175   4.242
34987W        W 4802   7.861  10.343   5.319
34988W        W 4803  41.317  43.838   0.752
34989W        W 4804  32.956  13.171  10.468
34990W        W 4805  33.391  33.892   3.248
34991W        W 4806   4.407  43.973   0.747
34992W        W 4807  25.071  38.470  14.897
34993W        W 4808  12.834   5.224  11.046
34994W        W 4809   2.247  22.576  13.370
34995W        W 4810  33.104  36.059  11.905
34996W        W 4811  38.035  27.684   1.352
34997W        W 4812  10.693   9.665  14.391
34998W        W 4813  40.939  18.227   4.814
34999W        W 4814  20.553  40.386  11.038
35000W        W 4815  21.081  22.213   1.389
35001W        W 4816   9.325  11.802   3.175
35002W        W 4817  36.455   3.404   1.764
35003W        W 4818  34.061   0.407  14.776
35004W        W 4819  35.471  26.066  12.009
35005W        W 4820   0.271  44.825   1.733
35006W        W 4821  42.512  34.574   0.839
35007W        W 4822   8.366  26.676   2.788
35008W        W 4823  13.688  15.785   2.734
35009W        W 4824  14.198  43.970   2.861
35010W        W 4825  28.130  20.611   4.663
35011W        W 4826  39.835  33.935  11.933
35012W        W 4827  17.217  30.585   2.217
35013W        W 4828  10.149   4.309   2.847
35014W        W 4829   2.455  35.968  13.992
35015W        W 4830  19.754  26.096  11.409
35016W        W 4831  44.768  34.439   3.287
35017W        W 4832  36.071  14.628   4.601
35018W        W 4833   6.349   7.867  13.966
35019W        W 4834  23.544  10.338  11.078
35020W        W 4835  13.607  38.420   4.698
35021W        W 4836  13.256   5.750  14.381
35022W        W 4837  34.543  44.818  13.863
35023W        W 4838   8.851  14.833  10.614
35024W        W 4839   8.743   9.347   4.637
35025W        W 4840   4.370   0.415  11.895
35026W        W 4841  43.922  29.613  14.416
35027W        W 4842  35.918   7.239   4.722
35028W        W 4843   3.913  16.102  14.327
35029W        W 4844  44.782  22.529   2.808
35030W        W 4845  41.335   9.770   0.907
35031W        W 4846  16.292  19.278  11.609
35032W        W 4847  17.296  14.301  12.992
35033W        W 4848  19.194  10.664   4.201
35034W        W 4849  29.444  32.538  14.444
35035W        W 4850  34.476  29.083   3.348
35036W        W 4851  41.829  27.653  13.835
35037W        W 4852  41.997  21.631   1.909
35038W        W 4853  36.913  43.315   3.179
35039W        W 4854  22.625  27.597  10.030
35040W        W 4855  19.062  28.996   0.336
35041W        W 4856  16.691  20.702   3.259
35042W        W 4857  16.316  29.099   2.180
35043W        W 4858  20.723  32.451   1.839
35044W        W 4859  20.198  30.544   2.715
35045W        W 4860  22.520  44.857   0.813
35046W        W 4861  40.949   5.405  13.384
35047W        W 4862   4.871  18.193   1.746
35048W        W 4863  37.387   5.420   3.288
35049W        W 4864  24.632  35.878   0.418
35050W        W 4865   6.201  12.304   2.744
35051W        W 4866  40.986  31.410  13.940
35052W        W 4867  14.714   7.334  13.818
35053W        W 4868   9.737  32.051   0.796
35054W        W 4869  33.469  10.837  13.906
35055W        W 4870   3.913  10.324  13.796
35056W        W 4871   0.361   3.828  10.895
35057W        W 4872   5.866  24.584   3.685
35058W        W 4873  19.059  21.056   4.120
35059W        W 4874  20.721  35.041  11.950
35060W        W 4875  33.461  26.092  13.008
35061W        W 4876  42.870  20.552  14.930
35062W        W 4877  35.010  44.498   1.763
35063W        W 4878   2.312  34.435   1.843
35064W        W 4879  16.088  18.628  12.981
35065W        W 4880  29.635  34.396   3.857
35066W        W 4881  24.179  18.053   1.881
35067W        W 4882  41.837  25.174  13.850
35068W        W 4883  33.521  17.742  13.900
35069W        W 4884  18.579  27.974  13.544
35070W        W 4885  10.268  14.784  14.459
35071W        W 4886  32.091   8.335  11.019
35072W        W 4887  17.130  10.829  14.919
35073W        W 4888  28.588  20.142   4.114
35074W        W 4889  29.081  42.797   4.302
35075W        W 4890  20.044  14.616  14.483
35076W        W 4891  40.968  15.761  11.043
35077W        W 4892   2.470  12.351  14.452
35078W        W 4893   2.805   4.757   1.256
35079W        W 4894  28.080  30.481  10.023
35080W        W 4895  33.573   8.899   0.726
35081W        W 4896  33.953   2.864  11.489
35082W        W 4897   6.232  32.083   0.860
35083W        W 4898  23.647  43.875   3.293
35084W        W 4899  10.732  10.251  10.417
35085W        W 4900  33.428   3.730   2.876
35086W        W 4901  32.502  40.876   3.663
35087W        W 4902   4.702  21.587  14.443
35088W        W 4903  23.643  19.653  10.512
35089W        W 4904   7.326  24.595  10.948
35090W        W 4905   5.417   2.341   0.911
35091W        W 4906  32.079   0.837  11.531
35092W        W 4907  39.469  15.588   1.833
35093W        W 4908  22.044  35.009   2.789
35094W        W 4909   1.391   5.747  14.313
35095W        W 4910  28.678  42.853   2.276
35096W        W 4911  18.149  18.758   0.472
35097W        W 4912  18.052  28.498  12.887
35098W        W 4913  13.221  40.937   4.353
35099W        W 4914   9.280  37.023   1.369
35100W        W 4915  42.445  29.470   4.186
35101W        W 4916   2.330   1.770  11.897
35102W        W 4917   1.907  43.355  12.528
35103W        W 4918  38.873  37.561  13.053
35104W        W 4919   1.920  17.174   0.925
35105W        W 4920  26.493  29.490  14.982
35106W        W 4921  27.988  36.369  11.870
35107W        W 4922  24.648  18.637   4.616
35108W        W 4923  32.938  43.458  14.803
35109W        W 4924   3.925   4.426   3.378
35110W        W 4925  38.959   9.710  10.977
35111W        W 4926  10.807   6.833  10.902
35112W        W 4927  20.122  13.126   4.147
35113W        W 4928  36.446   4.869  13.810
35114W        W 4929  22.189  37.489  11.609
35115W        W 4930  26.015  11.221   4.649
35116W        W 4931  26.613  26.079  11.029
35117W        W 4932  27.068  17.794   4.237
35118W        W 4933  43.017   5.347   4.153
35119W        W 4934   1.809   7.179   4.307
35120W        W 4935  14.247   9.172   2.259
35121W        W 4936  11.300  21.520  14.823
35122W        W 4937   1.861  19.149   0.447
35123W        W 4938  18.751   7.357  10.537
35124W        W 4939   3.712   7.251  11.487
35125W        W 4940  33.440  11.744   3.366
35126W        W 4941  42.892  42.442   3.168
35127W        W 4942  34.085  12.306  13.345
35128W        W 4943  36.844  17.622  12.953
35129W        W 4944  25.516  37.368  13.916
35130W        W 4945   2.362  44.347  11.906
35131W        W 4946  40.497  35.458  11.084
35132W        W 4947   7.417  10.712   4.648
35133W        W 4948   6.738  41.839   9.602
35134W        W 4949  11.178  42.908   4.727
35135W        W 4950  26.977  39.937   0.857
35136W        W 4951  31.551   7.772   3.156
35137W        W 4952   0.306   8.815   2.851
35138W        W 4953  36.904   8.347   0.802
35139W        W 4954  12.301   0.893   2.385
35140W        W 4955  22.141   4.927  14.993
35141W        W 4956  36.373   9.789   2.382
35142W        W 4957   0.342  43.274   3.845
35143W        W 4958   1.481   7.182  11.433
35144W        W 4959  30.634   7.748  12.960
35145W        W 4960  37.490  29.628  13.443
35146W        W 4961  23.690  30.922  12.921
35147W        W 4962  44.278   2.314   0.831
35148W        W 4963   5.270  43.436   4.769
35149W        W 4964  22.042   8.213  12.915
35150W        W 4965  22.188  29.583  12.949
35151W        W 4966   4.907  14.274  10.636
35152W        W 4967  36.403  38.863   2.854
35153W        W 4968  14.187  20.170   3.362
35154W        W 4969  40.954  31.509  12.569
35155W        W 4970  25.513  21.716  14.337
35156W        W 4971  32.065   5.871   1.274
35157W        W 4972  40.917  11.340  13.854
35158W        W 4973  42.437  36.493   4.687
35159W        W 4974  34.955  43.851   2.387
35160W        W 4975  42.028  16.635   0.797
35161W        W 4976  39.943  35.054  10.559
35162W        W 4977  43.309  20.115  13.816
35163W        W 4978   3.317  21.666   4.247
35164W        W 4979  29.481   4.223   0.326
35165W        W 4980  17.771  20.752  12.395
35166W        W 4981   1.750  23.662  11.904
35167W        W 4982  13.190  25.674   3.650
35168W        W 4983  26.190  10.145   0.459
35169W        W 4984   3.373  38.067   0.388
35170W        W 4985  18.758  42.852   0.252
35171W        W 4986  33.520  20.574  13.510
35172W        W 4987  20.561  31.513   0.306
35173W        W 4988   9.294  41.940   2.242
35174W        W 4989  28.472   7.187  11.462
35175W        W 4990  36.095  15.805   1.398
35176W        W 4991  30.075   6.885   2.699
35177W        W 4992  20.080  18.210  13.527
35178W        W 4993  24.495  12.174  12.921
35179W        W 4994  31.544  43.341  14.908
35180W        W 4995  35.861  10.348  14.913
35181W        W 4996  30.927   4.743   3.764
35182W        W 4997  25.471  10.788   4.607
35183W        W 4998  35.852  23.209   1.921
35184W        W 4999  43.948  31.402   2.341
35185W        W 5000  17.259  34.378   3.200
35186W        W 5001   2.867   2.940  14.480
35187W        W 5002  32.634   8.163   0.754
35188W        W 5003  14.119  29.942  10.984
35189W        W 5004  23.601  22.169   1.918
35190W        W 5005  25.527  13.190   5.173
35191W        W 5006  28.081  11.756   9.626
35192W        W 5007  38.357  38.964   1.391
35193W        W 5008  24.098  44.938  11.504
35194W        W 5009  16.652  37.021  12.540
35195W        W 5010   4.802   0.349  13.308
35196W        W 5011  20.688  19.118  12.896
35197W        W 5012  15.150  14.685  14.869
35198W        W 5013  27.656   8.879  12.862
35199W        W 5014  19.098  14.279   1.781
35200W        W 5015  34.934  28.626   0.871
35201W        W 5016  17.622  29.918   0.898
35202W        W 5017  15.646   4.739  11.081
35203W        W 5018   5.896  21.259  13.307
35204W        W 5019  24.535  26.056   3.343
35205W        W 5020   5.371  23.530   1.308
35206W        W 5021  13.609  22.173   3.839
35207W        W 5022  31.475   6.744  11.019
35208W        W 5023  21.103  27.082   0.954
35209W        W 5024  41.373  15.730   1.894
35210W        W 5025  43.902  17.292  12.985
35211W        W 5026  40.325  31.586  12.421
35212W        W 5027  20.169  21.039   3.754
35213W        W 5028   3.866  12.238   3.719
35214W        W 5029  12.790   5.728   1.259
35215W        W 5030  37.028   3.877   0.781
35216W        W 5031  23.118  41.400   2.398
35217W        W 5032  36.917  15.230   0.886
35218W        W 5033  34.101  25.468  14.821
35219W        W 5034  20.144   6.409  13.384
35220W        W 5035  36.056  28.623  11.401
35221W        W 5036  10.782  29.589   3.792
35222W        W 5037  12.657   0.975  11.012
35223W        W 5038  40.929   3.456  11.479
35224W        W 5039  25.111  26.951   4.235
35225W        W 5040   2.402  35.498   4.203
35226W        W 5041  37.079  27.455  11.903
35227W        W 5042  42.000   7.709  10.547
35228W        W 5043  14.710  21.150   0.394
35229W        W 5044  15.244  24.698   3.852
35230W        W 5045  40.450   7.301  13.926
35231W        W 5046  13.802  20.036  10.450
35232W        W 5047  26.050  33.560  11.098
35233W        W 5048   2.781  18.688  11.113
35234W        W 5049  30.016  27.569   0.894
35235W        W 5050  29.011  16.731   0.301
35236W        W 5051   5.211  30.932  13.933
35237W        W 5052  13.293  32.994   0.787
35238W        W 5053  29.656  28.543  10.414
35239W        W 5054  34.463  39.938   0.936
35240W        W 5055  17.236  19.055   4.635
35241W        W 5056  29.500  38.061  11.545
35242W        W 5057  33.515  30.417  14.985
35243W        W 5058   6.353  39.017   4.679
35244W        W 5059  41.386  40.506  10.488
35245W        W 5060  33.907  26.139  11.565
35246W        W 5061  38.822   9.843   3.227
35247W        W 5062  27.060  11.294  11.952
35248W        W 5063  14.326  35.384   3.237
35249W        W 5064   7.335  40.349   4.245
35250W        W 5065   7.254  13.843  13.390
35251W        W 5066  26.042  39.820   3.761
35252W        W 5067  35.463   3.955   3.792
35253W        W 5068  24.697  28.643   0.248
35254W        W 5069   3.795   9.163   2.312
35255W        W 5070  10.152   9.822   4.152
35256W        W 5071  12.118   8.292   4.698
35257W        W 5072  15.146  11.663   0.957
35258W        W 5073  37.039  37.948   3.797
35259W        W 5074  26.464  33.997   0.743
35260W        W 5075  28.450  25.535  14.287
35261W        W 5076  40.352   3.947  14.358
35262W        W 5077  44.788  35.000  12.832
35263W        W 5078  20.104  20.147  10.938
35264W        W 5079  23.590  21.562  14.801
35265W        W 5080  33.892  40.311  13.795
35266W        W 5081  17.764  11.813   0.441
35267W        W 5082  33.063   9.820  10.451
35268W        W 5083  34.009  35.940   0.862
35269W        W 5084   2.896  25.479  11.408
35270W        W 5085  15.610  39.905   1.319
35271W        W 5086  27.642  28.952   4.330
35272W        W 5087  40.311  21.665  13.830
35273W        W 5088  11.788  35.101   3.339
35274W        W 5089  14.672  39.845  12.455
35275W        W 5090  19.725   1.926   3.791
35276W        W 5091  30.413  37.458   4.732
35277W        W 5092  30.127  39.034  11.442
35278W        W 5093  32.077  34.888  13.880
35279W        W 5094   0.878   6.787  13.913
35280W        W 5095  38.985  19.560   3.718
35281W        W 5096  43.968   6.323  14.936
35282W        W 5097  10.359   1.852   4.682
35283W        W 5098  25.110  35.889  10.463
35284W        W 5099  25.612  29.924  11.453
35285W        W 5100  22.120  29.172   1.305
35286W        W 5101   0.774  40.921  12.884
35287W        W 5102  13.656  14.694  14.278
35288W        W 5103   9.788  44.460   4.225
35289W        W 5104   5.779  37.977   3.719
35290W        W 5105  34.979  21.194  10.464
35291W        W 5106  27.672  15.219   4.664
35292W        W 5107  41.017  19.669   4.606
35293W        W 5108  32.960  28.593  12.971
35294W        W 5109  39.486  15.702  14.353
35295W        W 5110  17.182  32.122  12.474
35296W        W 5111  35.896   2.858   2.739
35297W        W 5112  39.045  20.131  14.766
35298W        W 5113  29.631   8.816  12.357
35299W        W 5114   9.654  25.984   4.306
35300W        W 5115  34.883  28.485   2.318
35301W        W 5116  27.630   2.860  11.559
35302W        W 5117   4.915  35.368   2.403
35303W        W 5118   4.319  37.383  14.952
35304W        W 5119  18.120  30.424  13.335
35305W        W 5120  23.638  26.695  14.926
35306W        W 5121   3.856  34.455  14.276
35307W        W 5122   5.905  10.780  13.519
35308W        W 5123   6.407  28.102  14.504
35309W        W 5124  36.914  20.722  13.468
35310W        W 5125   1.797  33.945   2.381
35311W        W 5126  10.638  22.088  10.591
35312W        W 5127  20.047  39.043  11.059
35313W        W 5128  43.020   8.857  14.939
35314W        W 5129  18.212   9.793   4.707
35315W        W 5130  35.482  22.550  11.477
35316W        W 5131  36.378  13.762   1.394
35317W        W 5132  24.578  23.652   2.413
35318W        W 5133  24.721  12.851   2.340
35319W        W 5134  41.877  26.468  14.458
35320W        W 5135  30.450  25.507   1.797
35321W        W 5136  22.041  24.543   4.270
35322W        W 5137   7.864   8.722  13.356
35323W        W 5138   8.874  41.986  10.627
35324W        W 5139  30.034   3.244   1.900
35325W        W 5140   1.902  16.647   4.314
35326W        W 5141  15.134  18.572  13.455
35327W        W 5142   1.326  33.480  14.974
35328W        W 5143  12.698  17.239   5.293
35329W        W 5144  30.613   8.859   0.382
35330W        W 5145  15.318  42.840   3.681
35331W        W 5146   8.404  28.637   1.866
35332W        W 5147  41.535  30.934  10.888
35333W        W 5148  19.612  23.571  14.437
35334W        W 5149  42.851   4.341  12.378
35335W        W 5150  36.416   1.777  11.033
35336W        W 5151  32.940   9.755   4.335
35337W        W 5152  27.553  24.649  13.421
35338W        W 5153   7.206  16.275   3.314
35339W        W 5154   8.815  14.193  13.798
35340W        W 5155  34.409   0.937  10.946
35341W        W 5156  24.485   2.723  12.962
35342W        W 5157   0.812  20.047  11.109
35343W        W 5158  19.277  15.767   0.792
35344W        W 5159   9.172   0.295  11.000
35345W        W 5160   0.762  34.884   2.293
35346W        W 5161  36.892  22.705   0.810
35347W        W 5162  43.462   2.938   0.956
35348W        W 5163  24.518   5.422  14.854
35349W        W 5164  13.332  36.539  10.471
35350W        W 5165   9.653  26.600   0.823
35351W        W 5166  33.967  26.055   2.197
35352W        W 5167  16.573   7.289   3.373
35353W        W 5168   0.784   6.250  14.811
35354W        W 5169  38.823   5.384   2.793
35355W        W 5170   6.804   9.188  12.389
35356W        W 5171  32.957  33.965  12.456
35357W        W 5172  43.270   9.275  14.958
35358W        W 5173  34.380  30.995  12.417
35359W        W 5174   5.387  23.082  12.014
35360W        W 5175   6.276  18.135   0.827
35361W        W 5176  14.638  33.383  13.852
35362W        W 5177  36.359  29.585   2.768
35363W        W 5178  22.083  42.986   0.877
35364W        W 5179  26.551   0.954   2.227
35365W        W 5180  32.134  24.129   0.869
35366W        W 5181  19.628  19.768  10.975
35367W        W 5182  10.754  27.477  13.952
35368W        W 5183  40.814  37.388  13.901
35369W        W 5184  44.377  39.475  11.080
35370W        W 5185  13.168   9.776  14.778
35371W        W 5186  33.510   8.860  13.991
35372W        W 5187  30.644  37.991  10.925
35373W        W 5188  20.708  40.504  11.578
35374W        W 5189  38.826  11.746  12.545
35375W        W 5190  16.113  10.799   0.783
35376W        W 5191   3.813  40.520   3.842
35377W        W 5192   9.324  25.144   0.882
35378W        W 5193  33.949   4.281   1.920
35379W        W 5194  20.167  27.153  14.364
35380W        W 5195   6.423   2.432  14.803
35381W        W 5196   0.874  32.964  13.851
35382W        W 5197  37.463   1.752  11.026
35383W        W 5198  38.985  11.841  11.116
35384W        W 5199  18.714  20.624   4.831
35385W        W 5200  16.757  34.091   4.238
35386W        W 5201  24.571  19.262   4.354
35387W        W 5202   5.354  29.083   0.935
35388W        W 5203  13.301  36.917  14.326
35389W        W 5204  25.474  36.022  13.413
35390W        W 5205  40.943  21.089  13.798
35391W        W 5206  25.536   9.353   2.364
35392W        W 5207   4.926  13.666   3.718
35393W        W 5208  20.598   0.832   5.764
35394W        W 5209  32.582  26.025   1.358
35395W        W 5210  37.907  38.896  10.036
35396W        W 5211   3.220   3.420  14.311
35397W        W 5212  28.935  22.060  12.841
35398W        W 5213  22.701  27.573   0.823
35399W        W 5214  14.206  23.094   0.462
35400W        W 5215   0.363  26.482   2.340
35401W        W 5216  18.059  44.403  13.529
35402W        W 5217  25.028   4.734   1.352
35403W        W 5218  10.149  19.701  14.319
35404W        W 5219  12.313  22.624   0.337
35405W        W 5220   8.249   8.237  12.535
35406W        W 5221  36.374  42.777   1.694
35407W        W 5222   3.417  37.550   0.901
35408W        W 5223   6.392  12.678   4.335
35409W        W 5224  40.409  44.846  14.451
35410W        W 5225   4.226   0.335   0.913
35411W        W 5226  42.860   3.233  12.826
35412W        W 5227  32.492  36.425   1.772
35413W        W 5228  16.700  32.076  11.004
35414W        W 5229  38.869  21.181   4.319
35415W        W 5230  11.775   4.738   1.364
35416W        W 5231  40.337  27.597  12.845
35417W        W 5232  20.678  30.915  11.546
35418W        W 5233   6.779  14.122   0.407
35419W        W 5234   5.768   4.818  14.878
35420W        W 5235  24.220   9.707  13.380
35421W        W 5236   3.318  22.109  14.845
35422W        W 5237   3.721  30.099  14.921
35423W        W 5238  19.719  15.678  12.394
35424W        W 5239  34.028  38.335  10.528
35425W        W 5240  25.050  30.574   3.289
35426W        W 5241  26.107  41.815  14.766
35427W        W 5242  22.628  43.421  14.822
35428W        W 5243  42.374  34.120  14.985
35429W        W 5244  27.650   8.740  11.605
35430W        W 5245   0.386  31.547  11.547
35431W        W 5246  25.211  21.679  14.931
35432W        W 5247   7.722   9.323   2.356
35433W        W 5248  34.982   1.946   2.776
35434W        W 5249  36.567  30.920   3.718
35435W        W 5250   6.698   0.339   2.181
35436W        W 5251   3.389  35.365  12.561
35437W        W 5252  43.785  14.775  13.511
35438W        W 5253  14.238  40.013   3.789
35439W        W 5254  37.393  42.014   1.858
35440W        W 5255  11.672  39.559  11.956
35441W        W 5256   5.325  43.297   1.236
35442W        W 5257  37.358  13.612   0.453
35443W        W 5258   1.874  22.652  14.941
35444W        W 5259   9.210  25.610  11.474
35445W        W 5260  42.485  37.039   2.334
35446W        W 5261  31.933   1.841   3.782
35447W        W 5262   8.790  11.310   1.721
35448W        W 5263  26.521  30.027  10.511
35449W        W 5264  19.087  22.234   0.468
35450W        W 5265  10.872   0.449  11.570
35451W        W 5266  40.025  21.710   1.785
35452W        W 5267  24.209  40.044   5.181
35453W        W 5268  24.179   9.313  11.453
35454W        W 5269   1.823  26.604   0.947
35455W        W 5270   5.777  28.591   2.673
35456W        W 5271  14.230  40.954   2.877
35457W        W 5272  36.925  23.619   3.354
35458W        W 5273  33.587  26.616  14.991
35459W        W 5274  41.475  24.707  11.468
35460W        W 5275  31.536  32.136   2.319
35461W        W 5276  30.984  36.583   1.211
35462W        W 5277  40.425  33.106   1.245
35463W        W 5278  26.611  38.501  14.828
35464W        W 5279  38.539   4.347   0.258
35465W        W 5280  16.219  29.101  14.475
35466W        W 5281  21.154  10.667  14.793
35467W        W 5282  10.722  23.730   2.265
35468W        W 5283  11.772   4.873  14.461
35469W        W 5284  11.365  13.837   4.311
35470W        W 5285   4.719  23.662   4.253
35471W        W 5286   3.303  42.497  14.280
35472W        W 5287  32.547   6.849  13.427
35473W        W 5288  15.715  23.984   5.218
35474W        W 5289  43.340  39.329   2.837
35475W        W 5290  10.839   5.209  13.363
35476W        W 5291  35.996  13.771  12.485
35477W        W 5292  35.087  31.536  11.548
35478W        W 5293   0.390   1.961   1.369
35479W        W 5294   8.200   9.813  13.339
35480W        W 5295  27.588  14.725   0.387
35481W        W 5296   3.808  21.547   0.434
35482W        W 5297  34.599  13.221  11.433
35483W        W 5298  15.582   7.909   2.778
35484W        W 5299  29.975  12.146   0.785
35485W        W 5300  16.193  37.406  10.517
35486W        W 5301  38.917  29.510   5.187
35487W        W 5302  12.683   6.695  11.080
35488W        W 5303  16.728  10.686   4.296
35489W        W 5304  44.379  41.803  12.433
35490W        W 5305  31.479  29.930   4.172
35491W        W 5306   0.483  26.545   3.788
35492W        W 5307  43.368  44.327  14.934
35493W        W 5308  19.688  36.919   3.867
35494W        W 5309  33.425  44.309   2.353
35495W        W 5310  25.616  17.104  11.521
35496W        W 5311  16.573  12.189   0.342
35497W        W 5312  41.880  39.885   1.235
35498W        W 5313  31.133  10.656   1.315
35499W        W 5314   4.874  31.532   3.384
35500W        W 5315  44.818   4.449   1.765
35501W        W 5316  25.697  43.878   3.355
35502W        W 5317  33.102  37.373  13.800
35503W        W 5318  18.676   5.295  11.574
35504W        W 5319   5.889  42.032  10.522
35505W        W 5320   7.393   2.253  10.482
35506W        W 5321   3.818   4.876  11.020
35507W        W 5322  28.184  23.190   1.439
35508W        W 5323  39.864  31.601   3.253
35509W        W 5324  28.576  40.360   2.348
35510W        W 5325  23.573  38.544   0.787
35511W        W 5326  38.335  23.561  11.046
35512W        W 5327   3.396  43.848  12.056
35513W        W 5328  32.552  16.793  11.091
35514W        W 5329   5.228  25.151  11.085
35515W        W 5330  39.006  36.923   3.193
35516W        W 5331  13.816  37.058  14.336
35517W        W 5332  14.804  12.683  14.795
35518W        W 5333  40.818  30.086   1.858
35519W        W 5334  25.074   6.842   0.895
35520W        W 5335  26.204  21.618   3.806
35521W        W 5336  24.715   7.305   0.874
35522W        W 5337  41.297  20.036   0.888
35523W        W 5338  40.333  44.806   4.132
35524W        W 5339  37.500  22.242  13.957
35525W        W 5340  13.657  21.656  13.868
35526W        W 5341  34.864  16.173  11.868
35527W        W 5342  19.105  13.843   2.812
35528W        W 5343  22.197   7.778  12.842
35529W        W 5344  39.337  44.887  14.384
35530W        W 5345  13.617   9.233  10.987
35531W        W 5346  33.073   3.454  14.850
35532W        W 5347   4.774   6.396  12.349
35533W        W 5348  44.326  26.673  11.454
35534W        W 5349  38.856  37.898   2.200
35535W        W 5350  15.267  11.849   1.249
35536W        W 5351  33.424  31.618   4.148
35537W        W 5352  42.821  22.501   1.328
35538W        W 5353  16.609  33.977   1.382
35539W        W 5354  15.125  15.283   2.777
35540W        W 5355   6.860  17.104   0.391
35541W        W 5356  24.567  31.079  14.414
35542W        W 5357  30.974  34.112   3.209
35543W        W 5358  36.872   4.789   1.701
35544W        W 5359   6.694  13.646  13.478
35545W        W 5360  31.551  10.305  13.391
35546W        W 5361   8.214  21.221   0.472
35547W        W 5362  26.952  41.025   2.747
35548W        W 5363   0.257  29.152  13.432
35549W        W 5364  19.715  14.097   4.297
35550W        W 5365  20.185  15.683   1.748
35551W        W 5366  21.074  37.386   0.900
35552W        W 5367  18.593   2.283   2.302
35553W        W 5368   6.873  19.698  11.110
35554W        W 5369  28.053   8.224   2.307
35555W        W 5370  28.169  22.650   0.402
35556W        W 5371   1.470  31.635  10.475
35557W        W 5372  34.472  19.049   4.352
35558W        W 5373  37.892  20.681  13.532
35559W        W 5374   9.685  15.291   3.343
35560W        W 5375  11.272  22.653  14.421
35561W        W 5376  27.545  43.389   1.450
35562W        W 5377  16.674  25.559  12.891
35563W        W 5378  40.935   0.963   5.187
35564W        W 5379  37.913  32.472  12.489
35565W        W 5380  38.982   9.791   2.757
35566W        W 5381   7.880  12.165  11.385
35567W        W 5382  36.413  25.962  12.824
35568W        W 5383  24.170  19.665   4.832
35569W        W 5384   5.700  26.119  14.783
35570W        W 5385  20.749  43.362   9.453
35571W        W 5386  44.000  35.880   3.791
35572W        W 5387  31.631  27.143   0.827
35573W        W 5388  24.562  43.280  10.452
35574W        W 5389  27.660  37.078  12.548
35575W        W 5390  19.235  16.279   1.385
35576W        W 5391  38.867  39.444  11.018
35577W        W 5392  24.572  28.606   1.877
35578W        W 5393  17.677  28.997  11.935
35579W        W 5394  43.420  15.685   4.630
35580W        W 5395  13.217   8.793  12.966
35581W        W 5396  43.956  18.138   2.810
35582W        W 5397  30.496  25.114   3.839
35583W        W 5398  19.195  32.610  14.818
35584W        W 5399  33.103  25.593  13.385
35585W        W 5400  39.373   8.332  14.481
35586W        W 5401  12.628  18.070  13.803
35587W        W 5402   1.384  23.599  11.109
35588W        W 5403  12.145  18.241  10.004
35589W        W 5404  22.504  20.604   1.837
35590W        W 5405   5.729  33.052   4.753
35591W        W 5406  11.769   0.279   2.779
35592W        W 5407  37.876  14.608   0.944
35593W        W 5408  43.327  39.847   2.369
35594W        W 5409  35.053  29.648   3.718
35595W        W 5410  33.532  11.645  11.381
35596W        W 5411  32.571   7.864  14.465
35597W        W 5412  34.931   3.458  12.501
35598W        W 5413  33.101  19.630  11.005
35599W        W 5414  22.012  24.643  13.506
35600W        W 5415   4.841  43.909   0.801
35601W        W 5416  27.061  11.354   4.235
35602W        W 5417  44.353  25.492  12.536
35603W        W 5418   0.270  40.951   2.359
35604W        W 5419   6.209  27.944   1.316
35605W        W 5420  34.522  13.151   3.743
35606W        W 5421   1.740   2.391   3.304
35607W        W 5422   2.453  34.612   2.733
35608W        W 5423   4.322  17.682  11.889
35609W        W 5424  40.461   9.161  11.412
35610W        W 5425  33.547  27.070  13.035
35611W        W 5426  24.631   2.864  10.945
35612W        W 5427  18.659   1.366  12.897
35613W        W 5428   8.831  16.149   0.375
35614W        W 5429  28.073  41.855  12.934
35615W        W 5430  22.031  26.662   2.326
35616W        W 5431  43.485  25.064   4.119
35617W        W 5432  17.645  35.938  12.350
35618W        W 5433  15.717  34.485   4.793
35619W        W 5434  42.449  33.436   1.757
35620W        W 5435  34.381  10.640  12.895
35621W        W 5436  24.654   3.426  11.407
35622W        W 5437  28.074  35.602  10.047
35623W        W 5438  18.160  33.898   4.623
35624W        W 5439  35.384  40.445  13.022
35625W        W 5440  32.542  32.900   2.355
35626W        W 5441  27.026  17.664  14.372
35627W        W 5442  15.279   5.891  14.382
35628W        W 5443  42.349   1.857   3.667
35629W        W 5444  21.621  33.493   3.203
35630W        W 5445  40.043  36.408   4.681
35631W        W 5446  34.403   0.955  12.050
35632W        W 5447  29.972  22.514   0.326
35633W        W 5448   6.406   7.691   3.794
35634W        W 5449  31.021  39.934   1.417
35635W        W 5450   2.408  21.638  13.058
35636W        W 5451  18.634  27.084  14.931
35637W        W 5452  38.381  33.401  12.094
35638W        W 5453  32.969  20.730   2.326
35639W        W 5454  25.069  38.960   1.314
35640W        W 5455  28.159  33.898   3.252
35641W        W 5456  38.507  20.638  10.587
35642W        W 5457  18.647  43.982  10.499
35643W        W 5458  30.122  37.579  14.428
35644W        W 5459  14.125  19.595  11.963
35645W        W 5460  17.092  36.448   4.749
35646W        W 5461   0.754  38.896   2.269
35647W        W 5462   4.754  15.758  12.029
35648W        W 5463  14.203   3.449  11.082
35649W        W 5464  44.407   1.809   4.136
35650W        W 5465  27.591  12.158  11.989
35651W        W 5466  10.308  15.124   2.893
35652W        W 5467  18.189  40.460  14.314
35653W        W 5468  29.050  18.067  13.520
35654W        W 5469  22.232  27.942   4.131
35655W        W 5470  22.161  35.386  11.377
35656W        W 5471  44.927   3.294   0.268
35657W        W 5472  39.448  28.660  12.426
35658W        W 5473  32.930  43.969  12.476
35659W        W 5474   7.899  25.016  11.494
35660W        W 5475  42.927  40.997  12.529
35661W        W 5476  23.151  31.063  13.425
35662W        W 5477  14.818  20.059   4.212
35663W        W 5478  18.765   7.721  12.909
35664W        W 5479   6.710   7.776  11.493
35665W        W 5480  30.086  13.765  13.821
35666W        W 5481  40.366  11.802   1.739
35667W        W 5482  18.207  36.436  10.596
35668W        W 5483  23.101   9.383   2.410
35669W        W 5484   5.737   2.788  11.056
35670W        W 5485   8.201  17.726   4.715
35671W        W 5486  26.695  27.617  10.056
35672W        W 5487  15.177  21.107   2.277
35673W        W 5488  31.128  22.511   2.873
35674W        W 5489  24.069  12.635   2.380
35675W        W 5490  36.592  23.494  12.029
35676W        W 5491  35.937  36.411  14.896
35677W        W 5492  39.550   5.849  14.325
35678W        W 5493  39.874   7.889  14.415
35679W        W 5494  26.480  12.299   0.844
35680W        W 5495  44.351   1.330  11.478
35681W        W 5496  14.094  14.113  12.830
35682W        W 5497   7.250  16.799  12.935
35683W        W 5498  27.587  37.384  14.886
35684W        W 5499  11.298  41.484   2.853
35685W        W 5500  27.481  33.399  12.864
35686W        W 5501  14.166   2.227  14.500
35687W        W 5502   5.716  38.451   0.755
35688W        W 5503   3.363  32.978  11.071
35689W        W 5504   9.373   5.229  10.995
35690W        W 5505   6.732  11.849   3.639
35691W        W 5506  29.446  25.540   3.177
35692W        W 5507  39.412  18.157   3.827
35693W        W 5508  38.393  41.803   4.214
35694W        W 5509   3.783   4.943   3.839
35695W        W 5510  38.963  34.417  12.459
35696W        W 5511  44.503  17.274   0.359
35697W        W 5512  32.064  42.472  14.833
35698W        W 5513   1.800  30.129  13.883
35699W        W 5514   7.887  33.387  14.023
35700W        W 5515  13.108  10.862   4.137
35701W        W 5516  30.642   1.354  12.093
35702W        W 5517  33.527  23.071   0.890
35703W        W 5518   5.727  32.597   4.791
35704W        W 5519  11.793  33.558  14.347
35705W        W 5520  14.125  23.042  12.556
35706W        W 5521  16.088   3.357  12.966
35707W        W 5522   2.406  38.958  13.912
35708W        W 5523  17.721  26.130   0.308
35709W        W 5524  18.752  21.706  11.570
35710W        W 5525  17.699  20.272   1.749
35711W        W 5526  36.006  12.253  13.001
35712W        W 5527  43.918  40.320   4.349
35713W        W 5528  34.057  44.261   1.304
35714W        W 5529  21.571   7.207   2.678
35715W        W 5530  43.418  32.479   3.660
35716W        W 5531  19.228   6.390  14.810
35717W        W 5532  27.102  33.086   2.202
35718W        W 5533  23.143  36.958  11.976
35719W        W 5534   5.891  38.940   3.804
35720W        W 5535  32.912  19.090   2.697
35721W        W 5536  16.638   9.814  12.442
35722W        W 5537  25.537  12.222   0.335
35723W        W 5538  40.892   2.351  14.390
35724W        W 5539   0.385  24.680  14.935
35725W        W 5540  40.335  38.479  14.319
35726W        W 5541   1.964  15.299   0.422
35727W        W 5542  23.179   6.405  12.510
35728W        W 5543  19.693  43.811  14.015
35729W        W 5544  34.972  13.293   3.664
35730W        W 5545  37.023   5.299   2.291
35731W        W 5546  29.654  20.598   0.377
35732W        W 5547  44.341  18.137  11.611
35733W        W 5548  28.972  17.154  14.332
35734W        W 5549  36.561   3.818   1.854
35735W        W 5550   3.337  43.396  11.988
35736W        W 5551  40.988  44.451   0.803
35737W        W 5552   6.695   1.318   2.404
35738W        W 5553  39.926  35.420  11.883
35739W        W 5554  16.136  39.322   0.453
35740W        W 5555   2.399  42.797  13.887
35741W        W 5556  17.797   6.691   2.259
35742W        W 5557  41.528  38.959  11.557
35743W        W 5558   6.264   5.262  10.909
35744W        W 5559  42.956  16.630  12.930
35745W        W 5560  34.873  30.064  11.052
35746W        W 5561  26.550  43.898  10.919
35747W        W 5562  38.370  12.756  12.530
35748W        W 5563   6.370   6.327  13.974
35749W        W 5564  41.376  10.729   0.795
35750W        W 5565   7.734   3.356  14.483
35751W        W 5566  31.426  13.659   4.819
35752W        W 5567   0.794  34.996   4.611
35753W        W 5568  43.838  34.504  12.979
35754W        W 5569  35.401  16.155  11.881
35755W        W 5570  29.995  33.427   1.385
35756W        W 5571  20.599  30.972  11.115
35757W        W 5572  16.205  38.459   0.789
35758W        W 5573  17.592  22.175   1.347
35759W        W 5574   8.713   3.252   2.316
35760W        W 5575  40.811  37.523  10.625
35761W        W 5576  38.330  11.695   0.454
35762W        W 5577   2.247   2.870  12.853
35763W        W 5578  39.940  18.682   0.864
35764W        W 5579  38.327  24.192  11.062
35765W        W 5580   1.373  22.083   1.395
35766W        W 5581  24.194  25.709   0.303
35767W        W 5582  19.673   5.719  12.441
35768W        W 5583  39.517  13.140  12.560
35769W        W 5584  36.846  37.051   3.659
35770W        W 5585   7.217   8.878   0.959
35771W        W 5586  39.416  37.566  12.835
35772W        W 5587   9.826  42.306   4.343
35773W        W 5588  14.777   1.347  12.095
35774W        W 5589  25.023  11.662  12.406
35775W        W 5590  24.662  19.537   1.853
35776W        W 5591  31.637  32.051   1.244
35777W        W 5592  41.502  34.083   1.336
35778W        W 5593  26.524  17.679   1.877
35779W        W 5594  40.350  10.712  13.985
35780W        W 5595  25.174  23.218   3.167
35781W        W 5596  36.471  32.014  14.951
35782W        W 5597  23.541   4.438   3.772
35783W        W 5598  10.162  24.486   4.177
35784W        W 5599  15.274  12.843  14.776
35785W        W 5600  11.671   9.753  13.468
35786W        W 5601  14.299  35.892  11.505
35787W        W 5602  41.893   4.832   5.137
35788W        W 5603   7.393  28.450   4.332
35789W        W 5604  40.886  43.282  12.571
35790W        W 5605  12.840  44.273   4.182
35791W        W 5606  31.973   7.235  14.305
35792W        W 5607  18.284  20.250  13.446
35793W        W 5608  39.352  28.121   4.235
35794W        W 5609  31.540  20.140   0.797
35795W        W 5610   1.414  20.132   3.867
35796W        W 5611  43.471  12.218   4.250
35797W        W 5612  28.478  33.086   1.273
35798W        W 5613   6.246   4.920  15.000
35799W        W 5614  37.979  23.021   2.700
35800W        W 5615  11.224   6.718   0.798
35801W        W 5616   2.405  13.811   2.764
35802W        W 5617  38.009  36.926   2.185
35803W        W 5618  39.923  44.004   3.805
35804W        W 5619  28.565  11.718   3.336
35805W        W 5620  30.160  16.706  11.991
35806W        W 5621   3.912  39.530  11.101
35807W        W 5622   3.851  34.479  10.018
35808W        W 5623  38.387  40.985  12.498
35809W        W 5624  38.363   4.719   0.322
35810W        W 5625   2.324   2.339  11.524
35811W        W 5626  25.631   3.306  13.979
35812W        W 5627  37.482   1.828   0.456
35813W        W 5628  10.877   2.853  12.528
35814W        W 5629  25.094  23.515  13.834
35815W        W 5630  11.774   5.396   3.687
35816W        W 5631  44.832  20.132   3.803
35817W        W 5632   0.792   8.679  11.541
35818W        W 5633   6.726  34.051   2.246
35819W        W 5634   9.301  30.072  13.489
35820W        W 5635  14.643  25.046   0.943
35821W        W 5636   7.207   3.852  11.438
35822W        W 5637  41.479   9.191  14.503
35823W        W 5638   7.732  18.590   3.343
35824W        W 5639   9.205  15.250  13.900
35825W        W 5640   4.318  13.701  13.809
35826W        W 5641  27.480   6.267   1.393
35827W        W 5642  41.520  33.516   4.198
35828W        W 5643  16.623  23.635   1.748
35829W        W 5644   1.894  31.065   5.233
35830W        W 5645  14.781   4.715  11.574
35831W        W 5646  23.181  25.652   3.224
35832W        W 5647  29.077  33.520   2.850
35833W        W 5648  43.480  21.721   1.319
35834W        W 5649   5.792  34.042  14.914
35835W        W 5650  38.417  38.428  14.353
35836W        W 5651  44.938  12.854  13.963
35837W        W 5652   7.198  18.566   3.660
35838W        W 5653  10.877  35.582  13.931
35839W        W 5654  11.623  19.076  10.449
35840W        W 5655  29.592  18.558   3.252
35841W        W 5656  39.450   6.863  13.049
35842W        W 5657  33.445  35.977   4.332
35843W        W 5658  25.138  30.429  10.903
35844W        W 5659  13.338  22.250  10.438
35845W        W 5660  36.955  19.758   4.690
35846W        W 5661  28.607  41.947   3.731
35847W        W 5662  44.867  25.181   4.330
35848W        W 5663  27.543  36.404  13.025
35849W        W 5664  26.098  43.506   3.156
35850W        W 5665  19.567  17.268  10.504
35851W        W 5666  14.806   1.263   2.665
35852W        W 5667  30.613  17.586  10.473
35853W        W 5668   3.852  44.925   0.813
35854W        W 5669   0.324  27.053  12.838
35855W        W 5670  29.511  11.848  11.010
35856W        W 5671  25.669  31.512   2.875
35857W        W 5672  30.018  44.809  14.492
35858W        W 5673  23.174  24.563   1.930
35859W        W 5674  33.501  14.312  14.928
35860W        W 5675  31.557  21.075   1.805
35861W        W 5676  36.388  40.419  10.543
35862W        W 5677  10.241   2.898   0.354
35863W        W 5678   7.328   7.296   0.785
35864W        W 5679  18.668  42.009   1.794
35865W        W 5680  34.945  13.143   0.349
35866W        W 5681  43.479  25.523   1.908
35867W        W 5682  23.189  15.123   4.782
35868W        W 5683  30.525  41.534   3.756
35869W        W 5684  40.396   8.846   4.198
35870W        W 5685  38.071  39.343   1.370
35871W        W 5686  43.843  11.138  12.438
35872W        W 5687  24.681  36.354  12.500
35873W        W 5688  19.765  33.942  11.491
35874W        W 5689  11.649   4.822   3.335
35875W        W 5690  23.570   8.208   3.726
35876W        W 5691  33.452   4.815   3.731
35877W        W 5692  20.608  21.217   0.962
35878W        W 5693  40.844  43.801   1.300
35879W        W 5694  21.544  35.064  10.421
35880W        W 5695  14.736  43.879  11.411
35881W        W 5696  12.202  29.986  11.503
35882W        W 5697  21.207  27.688   1.892
35883W        W 5698  22.079  11.843   0.473
35884W        W 5699  27.662  15.208   3.351
35885W        W 5700  24.051   3.377   1.831
35886W        W 5701  42.936  28.988   0.406
35887W        W 5702  26.600  33.551  10.579
35888W        W 5703   3.813   8.251  10.993
35889W        W 5704   7.666  32.447   2.395
35890W        W 5705   2.733  27.037  13.987
35891W        W 5706  22.647  11.712  13.030
35892W        W 5707  24.108  30.969  10.560
35893W        W 5708  42.416   2.251  11.125
35894W        W 5709  36.585  23.037   3.333
35895W        W 5710  11.746   7.896  14.496
35896W        W 5711  30.470   1.800  14.862
35897W        W 5712   5.727  27.506  12.034
35898W        W 5713  13.317  41.510  10.587
35899W        W 5714  34.428   5.405  14.002
35900W        W 5715  30.550  43.932   2.680
35901W        W 5716  32.415  44.838  14.327
35902W        W 5717  27.570  23.556  12.990
35903W        W 5718  34.877  41.487  12.003
35904W        W 5719  43.833  28.501  13.957
35905W        W 5720  10.691   7.366   5.095
35906W        W 5721   0.434   0.320   2.714
35907W        W 5722  16.311  18.118   4.245
35908W        W 5723  10.857  17.658   0.913
35909W        W 5724  29.940   2.239  11.067
35910W        W 5725  29.481  30.034  10.472
35911W        W 5726  21.520   8.675   2.236
35912W        W 5727   1.445  17.200   4.256
35913W        W 5728  29.655  23.115  13.876
35914W        W 5729  21.050  22.031  12.005
35915W        W 5730  32.478   0.354  12.393
35916W        W 5731  27.611  35.024  12.828
35917W        W 5732   7.208  22.714  12.831
35918W        W 5733   7.755  24.636  12.036
35919W        W 5734   8.805   8.768   0.862
35920W        W 5735  42.854  19.080  13.455
35921W        W 5736  35.513   1.337   2.880
35922W        W 5737  22.066   1.783  13.527
35923W        W 5738   6.242  19.612  14.851
35924W        W 5739  25.170  29.597   1.254
35925W        W 5740  38.963  17.631   3.279
35926W        W 5741  42.412  43.963  10.489
35927W        W 5742  39.379   5.849   5.751
35928W        W 5743  23.684  19.163  12.828
35929W        W 5744  42.971   5.197   2.290
35930W        W 5745  26.579  31.132   1.817
35931W        W 5746  14.106  23.123  14.294
35932W        W 5747   8.794  37.969   0.785
35933W        W 5748   3.403  17.624   2.779
35934W        W 5749  39.481  42.817   1.872
35935W        W 5750   2.257  22.070  14.799
35936W        W 5751  16.204  18.086  12.530
35937W        W 5752   9.705  23.078  12.987
35938W        W 5753   8.754  14.815  11.895
35939W        W 5754  15.274  10.380   2.258
35940W        W 5755  12.296  18.177   1.935
35941W        W 5756  38.436  37.493   3.202
35942W        W 5757  15.612   8.830   3.199
35943W        W 5758  29.584   9.333  13.930
35944W        W 5759  10.303  37.354  12.934
35945W        W 5760  20.660   0.438  12.503
35946W        W 5761   0.909  10.358  10.449
35947W        W 5762   7.805  22.622  14.335
35948W        W 5763  28.645   4.447   2.890
35949W        W 5764  38.847  32.401   4.254
35950W        W 5765  44.335  23.591  13.031
35951W        W 5766   3.427   8.878   0.813
35952W        W 5767  22.193   4.841   3.870
35953W        W 5768  11.347  33.573   3.290
35954W        W 5769  29.057  32.020   1.408
35955W        W 5770  40.404  32.531   3.753
35956W        W 5771  14.658   9.854   0.274
35957W        W 5772  39.539  28.066  13.799
35958W        W 5773   4.826   8.811  11.607
35959W        W 5774  31.118   2.856   3.728
35960W        W 5775  24.668  27.689   1.901
35961W        W 5776  26.697   0.476  11.378
35962W        W 5777  36.952  27.477  12.884
35963W        W 5778   7.692   3.788   3.359
35964W        W 5779  42.336   4.436   1.811
35965W        W 5780  34.379  25.086   4.232
35966W        W 5781   6.880  31.063   3.336
35967W        W 5782  19.183  39.860  12.545
35968W        W 5783  31.075   0.822  12.912
35969W        W 5784   3.311   8.244   0.816
35970W        W 5785   7.870   9.195  13.368
35971W        W 5786  30.613  13.739   1.699
35972W        W 5787   7.696  20.151   0.253
35973W        W 5788  24.495  17.180  13.487
35974W        W 5789  35.013  26.657  12.497
35975W        W 5790  12.768  20.196  14.802
35976W        W 5791  34.547  32.038  14.461
35977W        W 5792  22.139  10.267  11.442
35978W        W 5793  44.927  44.963  13.412
35979W        W 5794  24.107  14.633   2.252
35980W        W 5795  14.317  35.879   0.862
35981W        W 5796   1.444  42.889  12.419
35982W        W 5797  12.704  17.070   5.690
35983W        W 5798   8.715   7.715   0.915
35984W        W 5799  44.893  11.644  13.319
35985W        W 5800   0.830  23.087  11.127
35986W        W 5801  17.190  37.989   4.605
35987W        W 5802  25.704  41.533   0.958
35988W        W 5803  36.998  16.674   4.735
35989W        W 5804  35.367  35.538   3.778
35990W        W 5805  30.098  24.708   2.305
35991W        W 5806   8.370  10.230   0.914
35992W        W 5807  32.050  32.117  13.310
35993W        W 5808  24.164  26.603  11.488
35994W        W 5809  17.074  25.046  11.595
35995W        W 5810  20.182  19.737   2.279
35996W        W 5811  33.562  13.247   4.701
35997W        W 5812   8.203  32.110  10.468
35998W        W 5813  43.851  21.051  10.423
35999W        W 5814  16.719  23.584  13.489
36000W        W 5815  23.147  22.715  11.609
36001W        W 5816   8.260  37.857   3.711
36002W        W 5817  12.152  19.066  14.009
36003W        W 5818  33.978  42.915  12.967
36004W        W 5819  20.694  26.523   2.355
36005W        W 5820  32.999  11.835  12.361
36006W        W 5821  17.174  23.123  10.901
36007W        W 5822  24.720  11.792   3.224
36008W        W 5823  14.802  25.070   0.393
36009W        W 5824  14.294  42.482  13.374
36010W        W 5825   8.174  13.320   4.649
36011W        W 5826  18.081   2.810  13.036
36012W        W 5827  30.924  29.431  14.922
36013W        W 5828  36.978  34.378  14.841
36014W        W 5829  24.042  12.668   1.415
36015W        W 5830  15.210   5.718  14.921
36016W        W 5831  44.294   0.277  14.790
36017W        W 5832  21.564  14.835  14.302
36018W        W 5833  25.984  27.497  11.999
36019W        W 5834  41.803  25.682  12.531
36020W        W 5835  29.652  41.040  12.094
36021W        W 5836  20.734   5.898   4.149
36022W        W 5837   7.909   2.262   4.809
36023W        W 5838   2.458  33.493   2.374
36024W        W 5839  35.048  18.107   0.361
36025W        W 5840  27.152  42.392   3.230
36026W        W 5841   1.243   1.373  10.968
36027W        W 5842  39.065  21.203   5.237
36028W        W 5843  29.997  27.481  14.796
36029W        W 5844  43.802  26.158  11.059
36030W        W 5845  35.507   0.952   1.795
36031W        W 5846  44.007   4.713  13.412
36032W        W 5847  42.018  37.541  11.913
36033W        W 5848  41.944   7.768   0.791
36034W        W 5849   8.377  11.819   1.910
36035W        W 5850  17.789  19.057  11.128
36036W        W 5851  17.280  10.203  10.426
36037W        W 5852  22.173  14.632  10.489
36038W        W 5853  38.959   0.776   5.106
36039W        W 5854  23.998  25.631   3.191
36040W        W 5855  16.801  13.265   3.706
36041W        W 5856  12.807  11.127  10.463
36042W        W 5857  38.986   4.392   4.165
36043W        W 5858  41.006  31.045  11.128
36044W        W 5859  41.301  26.062  14.458
36045W        W 5860  44.370  22.184  14.015
36046W        W 5861  36.574  39.958   4.693
36047W        W 5862  11.843  21.211  10.633
36048W        W 5863  15.199   4.427   0.442
36049W        W 5864   3.279   2.967   0.850
36050W        W 5865  14.301   9.861  10.977
36051W        W 5866  19.155  13.799   1.755
36052W        W 5867  25.712   9.727   5.595
36053W        W 5868  23.213  39.977  10.927
36054W        W 5869  32.603  17.694   0.739
36055W        W 5870  29.024  10.221  13.500
36056W        W 5871  18.105  15.158   3.756
36057W        W 5872  29.075   7.246  14.924
36058W        W 5873  39.065  27.562  10.078
36059W        W 5874  43.833   5.291   4.649
36060W        W 5875   1.947   1.267   1.346
36061W        W 5876  11.317   4.229  13.512
36062W        W 5877   9.694   4.287  14.867
36063W        W 5878   8.373  20.227  13.057
36064W        W 5879  19.622  44.780   0.809
36065W        W 5880  12.639   1.772  13.332
36066W        W 5881  41.457  21.113   3.752
36067W        W 5882  42.873  44.481   2.841
36068W        W 5883  37.966   8.341   2.328
36069W        W 5884   9.189  38.988   0.297
36070W        W 5885  19.586  42.801   0.279
36071W        W 5886  42.464  16.700  12.833
36072W        W 5887  33.970  20.652   0.857
36073W        W 5888  20.622  12.633  11.046
36074W        W 5889  12.841   3.821   3.871
36075W        W 5890  41.961  43.503   0.252
36076W        W 5891  38.065   3.223   0.757
36077W        W 5892  13.662  42.491   1.340
36078W        W 5893  10.861  34.409   1.723
36079W        W 5894  22.009  12.819  12.565
36080W        W 5895  36.054  36.910  11.493
36081W        W 5896  21.592  31.896  14.387
36082W        W 5897  43.388  17.285  13.920
36083W        W 5898  34.409   4.719   2.742
36084W        W 5899   9.335  13.237  12.388
36085W        W 5900   0.810   1.851  14.961
36086W        W 5901  26.661  42.415  10.463
36087W        W 5902  25.525  27.674   0.853
36088W        W 5903   6.213   4.859  13.859
36089W        W 5904   7.416   2.939   2.839
36090W        W 5905   5.836  30.128  10.502
36091W        W 5906  28.959   2.399   3.281
36092W        W 5907   1.325   5.206   3.161
36093W        W 5908  42.362   9.766   2.883
36094W        W 5909   8.821  20.069  12.556
36095W        W 5910  25.013  39.410  14.489
36096W        W 5911  43.495  32.541   0.323
36097W        W 5912  42.385   9.218   4.123
36098W        W 5913  13.616  27.064   1.758
36099W        W 5914  19.130  12.152   1.797
36100W        W 5915  23.727  31.464   0.786
36101W        W 5916  10.356  15.721   3.352
36102W        W 5917  35.102  40.976   4.691
36103W        W 5918  10.788   6.244  11.950
36104W        W 5919  43.005   1.857   3.204
36105W        W 5920   2.807  15.743  12.833
36106W        W 5921  24.584  27.977  13.482
36107W        W 5922   5.222  37.476   3.858
36108W        W 5923  32.541   8.706  11.909
36109W        W 5924  23.034  29.960  13.421
36110W        W 5925  26.490  34.040  11.964
36111W        W 5926  25.093  26.127  12.450
36112W        W 5927  25.006   8.263  10.906
36113W        W 5928  41.980  24.557   0.960
36114W        W 5929  14.673  10.806   1.811
36115W        W 5930   8.838   5.288  10.925
36116W        W 5931  38.449  25.571   0.285
36117W        W 5932  17.593  28.520   3.306
36118W        W 5933  13.751  26.690   2.829
36119W        W 5934  28.975  16.244   4.788
36120W        W 5935  34.046  38.415  10.980
36121W        W 5936  43.503  22.235   3.341
36122W        W 5937   1.908  11.226   0.338
36123W        W 5938  40.434   1.240  12.915
36124W        W 5939  35.496  26.021  12.548
36125W        W 5940   5.403  36.568  11.099
36126W        W 5941  40.946   7.365  10.413
36127W        W 5942  39.998  31.076   0.765
36128W        W 5943  34.409  14.708   4.121
36129W        W 5944   4.412   1.453   0.323
36130W        W 5945  22.607  23.673  11.971
36131W        W 5946   6.235  10.869  14.959
36132W        W 5947   4.784  32.130  12.351
36133W        W 5948  36.438  27.617   3.842
36134W        W 5949  22.700  19.682   1.784
36135W        W 5950  26.616  17.575   2.714
36136W        W 5951  16.100  24.036   2.188
36137W        W 5952  12.176  12.277   0.885
36138W        W 5953  21.026  19.062  13.501
36139W        W 5954  35.414  16.639  14.802
36140W        W 5955  15.198  40.955  11.857
36141W        W 5956  18.185  36.965   1.305
36142W        W 5957  30.133  30.462   3.662
36143W        W 5958  14.743  37.925   2.260
36144W        W 5959  23.071  31.471  13.524
36145W        W 5960  28.435  15.109  12.063
36146W        W 5961  22.070   6.289   2.878
36147W        W 5962  30.055  35.056   4.280
36148W        W 5963  12.758   6.689  10.636
36149W        W 5964   6.212  35.023  13.039
36150W        W 5965  37.964  14.226  14.821
36151W        W 5966  37.070  44.269   2.802
36152W        W 5967  36.885  36.898   3.168
36153W        W 5968  32.553  25.507   3.222
36154W        W 5969  35.930  11.353   0.767
36155W        W 5970  22.116  33.914  11.863
36156W        W 5971  33.909  23.568   4.635
36157W        W 5972  17.071  25.990   2.365
36158W        W 5973  30.639  33.902   2.880
36159W        W 5974  42.323  10.171  11.073
36160W        W 5975  19.740   5.917   2.356
36161W        W 5976   8.689  41.342  13.856
36162W        W 5977  41.506  28.146  13.457
36163W        W 5978   6.756  30.622  14.014
36164W        W 5979  12.121  42.798   4.283
36165W        W 5980  26.955  36.423  10.568
36166W        W 5981  31.617  18.172   1.790
36167W        W 5982  42.383  12.748   1.800
36168W        W 5983  12.309  27.184   4.752
36169W        W 5984  39.382  42.442   2.901
36170W        W 5985   9.265  22.649   2.813
36171W        W 5986   0.794  22.239  12.063
36172W        W 5987  24.700   3.317  12.556
36173W        W 5988  38.476  42.980  11.017
36174W        W 5989  11.143  37.893   4.803
36175W        W 5990   9.334   0.302  12.448
36176W        W 5991  31.049  12.690   2.257
36177W        W 5992  42.323  38.910  10.515
36178W        W 5993  27.143   4.746  13.891
36179W        W 5994  10.689  22.114   4.647
36180W        W 5995  40.391  10.151   3.726
36181W        W 5996   5.335  29.477  13.036
36182W        W 5997  14.608  24.574  10.978
36183W        W 5998  10.173  21.050   1.796
36184W        W 5999  31.557  12.680   3.167
36185W        W 6000  28.032  43.417   4.676
36186W        W 6001  34.912  18.764   1.331
36187W        W 6002  27.033  25.114  13.415
36188W        W 6003  11.128  35.060  13.020
36189W        W 6004   1.874   9.706  12.412
36190W        W 6005   2.340   4.755   2.296
36191W        W 6006  41.017  13.279  10.495
36192W        W 6007  15.214   5.822   1.920
36193W        W 6008   5.338   8.804   1.225
36194W        W 6009  20.121  39.039   0.850
36195W        W 6010  17.201   4.746   4.745
36196W        W 6011  40.480  31.994  10.510
36197W        W 6012  28.582  12.222  14.819
36198W        W 6013  38.563  17.792  12.029
36199W        W 6014  31.552   3.456  12.042
36200W        W 6015  38.973  34.087   3.721
36201W        W 6016  39.489  29.138   1.389
36202W        W 6017  15.692  33.985  13.331
36203W        W 6018  30.046  39.318   1.803
36204W        W 6019  17.725   6.379   3.218
36205W        W 6020  11.267  11.305   2.310
36206W        W 6021  27.560   4.285  12.874
36207W        W 6022  26.207  30.575  11.392
36208W        W 6023   1.260  16.092  14.413
36209W        W 6024  11.364  17.178  13.350
36210W        W 6025  35.051  32.525  11.604
36211W        W 6026  26.625  43.279  13.470
36212W        W 6027  38.048  10.797  13.404
36213W        W 6028  17.083  19.707   4.772
36214W        W 6029  34.437   5.812   1.405
36215W        W 6030  44.466   1.784   0.837
36216W        W 6031  34.560  37.409   4.792
36217W        W 6032  36.953   4.346   2.763
36218W        W 6033  13.217   3.854   1.872
36219W        W 6034   8.689  23.731  10.150
36220W        W 6035  26.498  13.109  14.377
36221W        W 6036  18.646  25.191  12.485
36222W        W 6037  31.446  43.861   3.777
36223W        W 6038  17.726   9.262   1.255
36224W        W 6039  24.226  35.442  13.885
36225W        W 6040  19.199  37.464  14.016
36226W        W 6041  42.481  44.463   0.371
36227W        W 6042   3.809  26.548  13.380
36228W        W 6043   6.870  22.597  12.521
36229W        W 6044  11.696  31.084  12.408
36230W        W 6045  21.749  31.054   3.211
36231W        W 6046  16.104  25.998  12.030
36232W        W 6047  17.607  40.480   0.447
36233W        W 6048  33.115  19.744   5.292
36234W        W 6049  40.846   2.391   1.780
36235W        W 6050   5.868  34.018   2.226
36236W        W 6051   2.741   5.406  13.523
36237W        W 6052  13.321  35.875   4.693
36238W        W 6053  33.009  14.260   0.365
36239W        W 6054  43.787   1.736   3.633
36240W        W 6055  23.047   2.807  14.944
36241W        W 6056  21.121   6.832  11.575
36242W        W 6057  34.083  26.569  12.447
36243W        W 6058  35.056   0.432   0.772
36244W        W 6059   5.786   4.388  10.475
36245W        W 6060   1.292  11.845   4.158
36246W        W 6061  40.319  35.587  14.966
36247W        W 6062  26.151  42.804  12.551
36248W        W 6063  41.454  10.664   0.372
36249W        W 6064  23.014  24.162  13.803
36250W        W 6065   3.924  11.212  12.923
36251W        W 6066   7.896  15.083   2.675
36252W        W 6067  26.504   8.369   3.274
36253W        W 6068  33.034   7.320  12.999
36254W        W 6069  15.184  24.145  10.567
36255W        W 6070  26.636  32.981   9.945
36256W        W 6071  43.985   8.168  13.910
36257W        W 6072  11.301  21.153   1.770
36258W        W 6073  31.114  39.542   0.869
36259W        W 6074  30.614  25.052   1.241
36260W        W 6075  25.543  30.444  11.448
36261W        W 6076  34.554  41.996  13.972
36262W        W 6077   2.313   7.350  10.997
36263W        W 6078  16.665  24.663   4.353
36264W        W 6079  14.118  35.948  12.864
36265W        W 6080  29.472  12.360  12.830
36266W        W 6081  22.588  40.390   2.178
36267W        W 6082  23.033  44.869   4.343
36268W        W 6083   2.350  18.261  10.135
36269W        W 6084  17.758  32.489   1.891
36270W        W 6085  10.350  31.915   1.697
36271W        W 6086  27.686   8.371   3.777
36272W        W 6087  11.686  34.520   2.387
36273W        W 6088   9.196   2.284  14.907
36274W        W 6089  38.956  31.973   0.951
36275W        W 6090   6.335  17.233   2.841
36276W        W 6091  10.143  30.623  13.934
36277W        W 6092  34.113  40.832   3.688
36278W        W 6093  22.150  33.614  14.336
36279W        W 6094  38.921  15.743   2.824
36280W        W 6095  12.273  39.440   4.747
36281W        W 6096  27.529  31.498   0.364
36282W        W 6097   4.938  20.187  14.496
36283W        W 6098  37.926  24.221  13.408
36284W        W 6099   4.338   5.396  12.891
36285W        W 6100  39.864  15.706   4.276
36286W        W 6101   5.326   9.828  11.935
36287W        W 6102  18.713   9.834   3.371
36288W        W 6103  27.482  42.933  11.901
36289W        W 6104  28.593  43.458   0.437
36290W        W 6105   1.962  21.548  11.534
36291W        W 6106  12.221  10.330  11.567
36292W        W 6107  18.646  38.358   2.720
36293W        W 6108  32.913   1.395   3.756
36294W        W 6109  32.132   2.268   4.332
36295W        W 6110  17.123   5.429  13.966
36296W        W 6111   3.856  38.066   0.324
36297W        W 6112  33.887  44.969   2.235
36298W        W 6113  39.052  17.681  11.929
36299W        W 6114  25.552  39.848  14.868
36300W        W 6115  15.281   2.363   3.163
36301W        W 6116  27.639  34.548  12.933
36302W        W 6117  25.542  33.082   2.354
36303W        W 6118  14.713  16.811  14.949
36304W        W 6119   9.252   0.373  10.405
36305W        W 6120   7.177  32.621   4.706
36306W        W 6121  31.086  11.222  12.850
36307W        W 6122  10.637  43.008  14.424
36308W        W 6123  34.505  36.057   3.366
36309W        W 6124  33.532  39.001   5.248
36310W        W 6125   4.228   7.703  14.991
36311W        W 6126  42.850  20.702  13.432
36312W        W 6127  10.290  44.487  14.778
36313W        W 6128  10.177  40.966   0.932
36314W        W 6129  39.514  13.838  13.428
36315W        W 6130  31.122  26.128   3.269
36316W        W 6131  38.509  32.485   3.146
36317W        W 6132  25.991  27.094   0.942
36318W        W 6133  37.991   0.335  13.369
36319W        W 6134  19.601   5.264   1.343
36320W        W 6135  16.105  20.109   1.723
36321W        W 6136  12.332   0.835  11.386
36322W        W 6137   8.830  39.879   0.296
36323W        W 6138  34.084   2.783   4.725
36324W        W 6139  26.540  33.104   2.300
36325W        W 6140  28.560  10.825  13.320
36326W        W 6141  28.543   7.889  11.001
36327W        W 6142  36.374  37.392  11.901
36328W        W 6143   8.302   6.308   2.384
36329W        W 6144  29.112  25.045  14.290
36330W        W 6145  14.193  31.639   2.325
36331W        W 6146  22.055  33.018   3.292
36332W        W 6147  32.973  23.711  11.381
36333W        W 6148   5.297   1.427  11.591
36334W        W 6149  30.081   9.387  11.872
36335W        W 6150   3.320  33.880  12.554
36336W        W 6151  42.428  28.037  10.602
36337W        W 6152  30.530  30.103   3.373
36338W        W 6153  38.900  35.039   1.715
36339W        W 6154  34.581  39.027  14.300
36340W        W 6155  32.926  36.349   2.414
36341W        W 6156  12.831  25.149  12.530
36342W        W 6157   2.364  28.663  14.514
36343W        W 6158  32.566  37.553   2.223
36344W        W 6159  23.201  12.276  12.941
36345W        W 6160  32.399  30.436   2.691
36346W        W 6161  42.288   8.176   2.820
36347W        W 6162  32.885  15.578  10.420
36348W        W 6163  44.907  32.476   4.193
36349W        W 6164  12.829  18.770   0.378
36350W        W 6165  26.022  23.084   3.784
36351W        W 6166  35.979  40.335   2.251
36352W        W 6167  28.608  10.224   4.115
36353W        W 6168  30.143  41.038   1.697
36354W        W 6169  24.010  26.120  12.878
36355W        W 6170  21.167  10.863   0.329
36356W        W 6171  12.668  21.066   1.903
36357W        W 6172   7.337  25.174   3.857
36358W        W 6173  33.968  25.620   4.147
36359W        W 6174  22.582  17.558   2.791
36360W        W 6175  43.515   4.921  13.932
36361W        W 6176   3.299   2.786   4.606
36362W        W 6177   1.258  19.212   1.729
36363W        W 6178  17.699  43.339  14.979
36364W        W 6179  29.462   7.837   0.933
36365W        W 6180   7.885   8.719   0.942
36366W        W 6181  34.078  27.167  11.515
36367W        W 6182  23.724  15.771   3.851
36368W        W 6183  13.117  42.495  14.390
36369W        W 6184  10.850   2.797  12.074
36370W        W 6185  14.137  11.285  13.034
36371W        W 6186  21.077  33.128  11.605
36372W        W 6187  12.659  32.981   3.690
36373W        W 6188  10.679  38.349   3.245
36374W        W 6189   4.280  11.222   3.310
36375W        W 6190  32.635  26.539   3.382
36376W        W 6191  26.008  38.374   4.222
36377W        W 6192  19.267  38.971  11.590
36378W        W 6193  32.457  41.379   4.650
36379W        W 6194  27.588  22.725   4.205
36380W        W 6195  37.068  21.636   3.216
36381W        W 6196  21.076  25.976  13.869
36382W        W 6197  21.722  28.940   4.605
36383W        W 6198  11.339  41.897   2.230
36384W        W 6199   2.437  28.452  12.017
36385W        W 6200   0.980   4.226   4.618
36386W        W 6201   0.258  17.600  11.891
36387W        W 6202  44.008  11.236   2.257
36388W        W 6203  26.092  33.607  14.431
36389W        W 6204  24.519   0.347  11.426
36390W        W 6205  43.413  23.074   4.683
36391W        W 6206   2.468  13.648   4.133
36392W        W 6207   1.438   3.461   1.260
36393W        W 6208   1.268  44.777  13.394
36394W        W 6209  38.424  37.574   2.382
36395W        W 6210  40.841  40.050   4.674
36396W        W 6211  28.023  19.198  14.467
36397W        W 6212   5.689  29.614  14.983
36398W        W 6213   6.392  17.705  10.496
36399W        W 6214  35.933  29.007  11.585
36400W        W 6215  37.918  18.651   4.141
36401W        W 6216   2.956  23.671  12.030
36402W        W 6217  10.771  44.467  11.075
36403W        W 6218  19.760  20.541  12.986
36404W        W 6219   6.867  12.777   1.775
36405W        W 6220  11.817  15.131  13.528
36406W        W 6221   3.824  40.533  13.417
36407W        W 6222  40.882  39.394   2.672
36408W        W 6223  34.598  37.341   2.864
36409W        W 6224  36.910   1.914  11.123
36410W        W 6225  27.151  25.565  11.415
36411W        W 6226  38.887  21.740   4.639
36412W        W 6227  42.785  35.483  11.869
36413W        W 6228   9.846  17.748  13.025
36414W        W 6229  11.300  31.641   4.806
36415W        W 6230  23.169  33.523   1.234
36416W        W 6231  34.447  33.597  13.051
36417W        W 6232  37.901  20.668   3.736
36418W        W 6233   8.346  27.494   2.343
36419W        W 6234  14.109   0.425   3.652
36420W        W 6235  36.869   0.932   3.686
36421W        W 6236  21.580  23.593   3.809
36422W        W 6237  38.873   0.404   4.820
36423W        W 6238  44.304  25.601  13.030
36424W        W 6239  43.437  13.164   1.793
36425W        W 6240   9.308  28.553  13.044
36426W        W 6241  43.336   1.873   0.924
36427W        W 6242   7.875   6.870   0.875
36428W        W 6243  34.095  24.592   4.313
36429W        W 6244  25.191  19.041  13.925
36430W        W 6245  23.058  14.156   4.773
36431W        W 6246  28.498  41.951   3.154
36432W        W 6247  12.803   7.688   1.338
36433W        W 6248  37.360  11.190   3.697
36434W        W 6249  26.661  34.486   2.801
36435W        W 6250  20.698  18.058   1.218
36436W        W 6251  13.798  17.251  13.831
36437W        W 6252  28.058  15.204   0.753
36438W        W 6253  22.089  23.135   3.334
36439W        W 6254  27.623  12.656  12.976
36440W        W 6255  11.299   1.855   1.310
36441W        W 6256  17.143  23.733  10.027
36442W        W 6257  14.129   6.326  12.449
36443W        W 6258   6.760  40.942  12.438
36444W        W 6259  22.676   1.254  14.492
36445W        W 6260  19.065  10.267   0.819
36446W        W 6261  10.272  17.694  13.851
36447W        W 6262  16.721  26.078  13.868
36448W        W 6263  41.454  13.201  12.087
36449W        W 6264  27.039  14.104   0.902
36450W        W 6265  20.242   0.774   4.712
36451W        W 6266  36.555  34.864   0.357
36452W        W 6267   2.899  40.335  13.542
36453W        W 6268  17.583  19.243   0.470
36454W        W 6269   8.264  38.852   1.404
36455W        W 6270  44.328  10.277  12.879
36456W        W 6271  36.890  22.558   1.277
36457W        W 6272  17.569  18.144   3.278
36458W        W 6273   5.272  39.365   1.283
36459W        W 6274   2.393  40.454  12.356
36460W        W 6275  38.566  23.037  10.531
36461W        W 6276  28.596  10.228   0.797
36462W        W 6277  44.760   0.411  13.802
36463W        W 6278  44.944  24.154  10.009
36464W        W 6279  16.297  36.958  14.817
36465W        W 6280  28.460  11.336   9.990
36466W        W 6281  41.892  37.042  14.890
36467W        W 6282  17.685  15.297  12.479
36468W        W 6283   4.272  26.157   2.665
36469W        W 6284   3.455  24.080  14.774
36470W        W 6285  10.311  22.513   1.927
36471W        W 6286  16.161  36.080   2.723
36472W        W 6287  43.431  25.204  11.908
36473W        W 6288  26.128  42.985   1.251
36474W        W 6289  38.072  11.660  13.803
36475W        W 6290  40.366  28.157   0.349
36476W        W 6291  10.253   8.881   3.645
36477W        W 6292  25.056  18.788  10.584
36478W        W 6293  36.998   8.400   1.769
36479W        W 6294  17.563  43.804  14.847
36480W        W 6295   5.315  19.674  10.985
36481W        W 6296  25.599  32.468  13.456
36482W        W 6297   0.749  23.167   3.674
36483W        W 6298  35.395  31.579   1.860
36484W        W 6299  31.084   6.677   2.212
36485W        W 6300  31.533  29.572   0.360
36486W        W 6301  31.445  12.360   2.744
36487W        W 6302  27.092   8.192   4.837
36488W        W 6303  37.041  17.289   0.889
36489W        W 6304   4.797  29.006  12.424
36490W        W 6305  24.549  10.307  11.531
36491W        W 6306  37.443  19.210   0.961
36492W        W 6307   8.891   6.316  14.279
36493W        W 6308   7.823  30.991  10.548
36494W        W 6309  33.112  31.603  12.049
36495W        W 6310  23.705  40.800  12.461
36496W        W 6311  32.574  31.438  10.517
36497W        W 6312  37.920  36.961   2.688
36498W        W 6313  12.647   5.807  10.479
36499W        W 6314  43.442  11.860  10.413
36500W        W 6315  16.751  34.612  13.870
36501W        W 6316  43.363  31.959   2.178
36502W        W 6317  36.419   1.794  10.022
36503W        W 6318  26.171  15.747   0.419
36504W        W 6319  20.686  38.415  10.462
36505W        W 6320   4.273  26.065  12.486
36506W        W 6321   8.747   4.405  14.026
36507W        W 6322   8.670  18.779  14.423
36508W        W 6323  40.361  34.980  13.478
36509W        W 6324  28.493  15.093  11.432
36510W        W 6325   8.757   3.716   2.735
36511W        W 6326   3.298  11.820  12.488
36512W        W 6327  31.439  29.008  14.434
36513W        W 6328   1.261  33.930  12.000
36514W        W 6329  31.083  41.418   4.152
36515W        W 6330   5.927  44.845  11.878
36516W        W 6331  44.306  43.500   0.936
36517W        W 6332  12.693  16.787   4.271
36518W        W 6333  33.501  23.645   1.801
36519W        W 6334   0.760  29.500  11.391
36520W        W 6335  28.036  16.095   3.149
36521W        W 6336  13.786  34.550   2.663
36522W        W 6337   1.844   2.755   4.795
36523W        W 6338  12.813  24.077   1.297
36524W        W 6339   3.449   1.325   0.961
36525W        W 6340  35.884  37.418  13.461
36526W        W 6341  16.174  29.049  13.500
36527W        W 6342  44.834  21.720  12.391
36528W        W 6343  21.064   6.922   2.687
36529W        W 6344  32.908  15.222  11.371
36530W        W 6345  10.838  34.917  10.515
36531W        W 6346  20.654  36.068   4.751
36532W        W 6347  19.194   2.298  10.942
36533W        W 6348  21.680   5.923  10.529
36534W        W 6349  12.742  13.673   2.398
36535W        W 6350  40.035  19.659  13.832
36536W        W 6351  41.012  14.307   4.741
36537W        W 6352  12.354  38.490  13.335
36538W        W 6353   5.307  29.949   4.724
36539W        W 6354  27.053   8.332   0.792
36540W        W 6355  21.123   6.417  11.412
36541W        W 6356   0.269  38.379  12.828
36542W        W 6357  30.490  22.708  13.030
36543W        W 6358  38.068  10.645  11.099
36544W        W 6359  44.966   0.770  13.425
36545W        W 6360   8.332  14.736  10.426
36546W        W 6361  35.441  33.550  10.114
36547W        W 6362  31.648   5.928   3.857
36548W        W 6363  44.787  14.689  14.422
36549W        W 6364  44.259  28.524   3.697
36550W        W 6365  11.733  11.365   0.938
36551W        W 6366  39.821  42.009  13.049
36552W        W 6367  38.937   2.866   1.347
36553W        W 6368  26.519   4.234  14.513
36554W        W 6369   0.494   7.903  13.020
36555W        W 6370  15.712  31.104  11.965
36556W        W 6371   1.972  28.995   2.780
36557W        W 6372  12.123  30.546  14.911
36558W        W 6373  26.051  17.072  11.083
36559W        W 6374  23.727  11.817   1.905
36560W        W 6375  34.940   9.652   0.888
36561W        W 6376  30.016  11.214   0.362
36562W        W 6377  42.371  10.687   0.360
36563W        W 6378  20.728  44.393   0.328
36564W        W 6379   4.737   3.775  13.519
36565W        W 6380   3.437  26.001   2.284
36566W        W 6381   8.195  41.857  12.562
36567W        W 6382   9.673  33.573   4.267
36568W        W 6383  32.890  26.208  11.062
36569W        W 6384  40.325  21.102  14.462
36570W        W 6385   0.825  29.118   2.415
36571W        W 6386  10.814  42.028   0.887
36572W        W 6387  40.509  26.088  14.482
36573W        W 6388  17.697   6.386   2.681
36574W        W 6389  40.803  30.050  11.124
36575W        W 6390   1.306  18.773  13.337
36576W        W 6391  14.182   6.349   4.309
36577W        W 6392  11.231  28.681  14.929
36578W        W 6393  44.308   9.828   2.789
36579W        W 6394   7.401  41.842  14.942
36580W        W 6395  17.656  29.948  12.457
36581W        W 6396  28.071   1.915  13.338
36582W        W 6397  17.278   2.303   4.266
36583W        W 6398   8.277  19.130   4.806
36584W        W 6399  15.758  30.490   4.742
36585W        W 6400  34.882  36.453   0.785
36586W        W 6401  21.585  38.846  13.046
36587W        W 6402   9.396  24.621  12.914
36588W        W 6403  10.802  37.898  13.458
36589W        W 6404  13.341  36.484   2.893
36590W        W 6405  30.983   1.433  11.026
36591W        W 6406  32.021  37.990   0.299
36592W        W 6407  17.266  37.985   3.225
36593W        W 6408  18.188  15.288  14.823
36594W        W 6409  32.949  44.828  10.966
36595W        W 6410  12.236  19.721   0.357
36596W        W 6411  23.505   9.215  11.899
36597W        W 6412  43.776  13.137  12.479
36598W        W 6413   6.230  26.160  12.362
36599W        W 6414  10.645   5.316  13.798
36600W        W 6415  33.524  27.100  13.973
36601W        W 6416   7.724  28.004  11.052
36602W        W 6417   5.925  25.613   2.729
36603W        W 6418  26.167  42.966   2.793
36604W        W 6419  30.965  39.003  10.927
36605W        W 6420   9.279  23.092  11.941
36606W        W 6421  29.559  26.176   4.299
36607W        W 6422  44.975  42.005  11.404
36608W        W 6423  33.083   1.880  10.910
36609W        W 6424  43.018  17.304   0.481
36610W        W 6425  17.802   4.787  12.838
36611W        W 6426  15.201  10.252   3.295
36612W        W 6427  33.514  28.058   4.619
36613W        W 6428  20.185  23.541  14.938
36614W        W 6429  31.580  28.453  10.994
36615W        W 6430  41.382   4.828   0.889
36616W        W 6431  22.218  44.499   1.726
36617W        W 6432  39.492  28.963  11.388
36618W        W 6433  39.822   7.848   1.739
36619W        W 6434   7.296   0.293  13.969
36620W        W 6435   3.882   2.909   3.857
36621W        W 6436  28.103  16.611  10.941
36622W        W 6437  30.959  25.700   0.758
36623W        W 6438  20.573  36.577   0.914
36624W        W 6439  34.552   1.472   1.872
36625W        W 6440  22.135  30.522  10.965
36626W        W 6441  34.609   6.377  12.937
36627W        W 6442  10.723   8.695   3.180
36628W        W 6443  44.376  13.625  10.502
36629W        W 6444   4.360  20.116   4.635
36630W        W 6445  21.644   9.390   3.343
36631W        W 6446  31.549   6.209  14.785
36632W        W 6447  16.210  35.550   1.379
36633W        W 6448  31.990  30.612  14.357
36634W        W 6449  25.627  12.731  14.927
36635W        W 6450   8.811  23.182  13.912
36636W        W 6451  18.239   5.234  12.973
36637W        W 6452  36.087  13.699  14.364
36638W        W 6453  34.110  27.067  13.338
36639W        W 6454  37.338  42.978  13.321
36640W        W 6455   1.364  41.434  13.039
36641W        W 6456  26.674  26.660   2.276
36642W        W 6457   2.815  21.687  14.820
36643W        W 6458  41.488  41.424  12.918
36644W        W 6459  41.483  12.298   0.349
36645W        W 6460   4.905  36.429   3.692
36646W        W 6461   0.815  32.001  11.516
36647W        W 6462  23.558   9.819  13.847
36648W        W 6463  35.394  20.173   0.304
36649W        W 6464  24.561  21.078   3.679
36650W        W 6465   5.305  10.734  11.036
36651W        W 6466  19.109   3.214   2.820
36652W        W 6467  12.631  21.253   2.329
36653W        W 6468  23.993   5.200   2.318
36654W        W 6469   2.304   4.249   2.285
36655W        W 6470   7.369  12.359  14.952
36656W        W 6471  11.667  27.133  13.969
36657W        W 6472  29.075  37.059  11.438
36658W        W 6473  16.077  42.025  10.966
36659W        W 6474  26.044  41.538  13.330
36660W        W 6475  37.943  22.234  11.392
36661W        W 6476  44.945   3.375   3.362
36662W        W 6477  40.987  31.638  11.447
36663W        W 6478  20.524  44.328   3.253
36664W        W 6479  28.134  27.174   2.287
36665W        W 6480  11.697   1.460   1.793
36666W        W 6481   8.669  33.919   1.734
36667W        W 6482  32.930  22.118   3.838
36668W        W 6483  44.476   0.255   5.191
36669W        W 6484  12.346   2.388   1.718
36670W        W 6485  20.696  36.393   0.350
36671W        W 6486  19.543  27.619  12.444
36672W        W 6487   7.313  44.325   2.224
36673W        W 6488  38.902  21.598  11.519
36674W        W 6489  24.991  40.375   2.400
36675W        W 6490   7.908  43.972   1.919
36676W        W 6491  38.853   2.254  12.987
36677W        W 6492  33.393  12.201   2.667
36678W        W 6493  20.215   1.913  10.491
36679W        W 6494  20.588  31.150  13.420
36680W        W 6495  26.699   4.412   3.758
36681W        W 6496   4.706  29.511  10.989
36682W        W 6497  31.016  44.417   9.941
36683W        W 6498  15.763  23.216   0.776
36684W        W 6499   1.764  13.338  13.838
36685W        W 6500  36.028  12.806   0.392
36686W        W 6501  40.879  26.018   4.274
36687W        W 6502  22.128  21.176   0.317
36688W        W 6503  43.980  34.980   1.276
36689W        W 6504  10.301  34.388   0.365
36690W        W 6505   3.253   4.823   2.364
36691W        W 6506  27.055  19.766  14.311
36692W        W 6507  28.176  30.141   2.901
36693W        W 6508  31.973   7.244  12.497
36694W        W 6509  38.915  27.492   2.310
36695W        W 6510  40.527   1.764   0.260
36696W        W 6511  14.206  29.005  10.023
36697W        W 6512  24.684   7.171   2.222
36698W        W 6513   3.924  35.088   4.740
36699W        W 6514   2.846  31.905  12.002
36700W        W 6515  40.914  34.019  13.401
36701W        W 6516  27.989  27.128   0.951
36702W        W 6517  27.049  22.602  12.959
36703W        W 6518   4.337   1.960   2.355
36704W        W 6519  33.395   8.865  12.348
36705W        W 6520  37.357   6.321   3.378
36706W        W 6521  28.162  37.530   5.304
36707W        W 6522  26.460  24.186   1.813
36708W        W 6523  41.815  31.984  14.004
36709W        W 6524  30.481  37.488  14.469
36710W        W 6525  38.482  21.147   1.435
36711W        W 6526   5.717  24.515  12.004
36712W        W 6527  14.158  21.205   2.382
36713W        W 6528  27.190  36.395  14.342
36714W        W 6529  44.495  44.804   0.874
36715W        W 6530  42.354  37.926   0.775
36716W        W 6531  21.561  43.907  13.494
36717W        W 6532   5.839   4.806  14.001
36718W        W 6533   3.878  23.629   2.320
36719W        W 6534  17.644  37.871   0.934
36720W        W 6535  10.211  28.069  14.974
36721W        W 6536  40.930  28.148  13.928
36722W        W 6537  21.651  35.601   3.867
36723W        W 6538  42.484   6.427   1.787
36724W        W 6539  31.445  27.590   0.335
36725W        W 6540   2.381  35.424  12.436
36726W        W 6541  32.992  26.039  14.903
36727W        W 6542  25.987  13.255  12.461
36728W        W 6543  30.580  44.473  11.584
36729W        W 6544  22.733  31.420  14.495
36730W        W 6545   5.422  36.405   3.273
36731W        W 6546  13.179   3.328  13.015
36732W        W 6547  17.183  21.575  11.428
36733W        W 6548   0.383   3.430  13.415
36734W        W 6549  26.086  35.380   1.242
36735W        W 6550  19.655  32.613  12.564
36736W        W 6551  43.781  36.938   0.438
36737W        W 6552  14.156  27.182   4.642
36738W        W 6553   8.811   6.850   4.246
36739W        W 6554  36.529   2.886  10.515
36740W        W 6555  26.056  21.680  10.915
36741W        W 6556  17.666  24.577  14.295
36742W        W 6557  31.585   5.743   4.151
36743W        W 6558   0.804  24.655  14.838
36744W        W 6559  35.382  34.466  14.988
36745W        W 6560  11.339  31.138   4.714
36746W        W 6561  16.761  32.042  11.466
36747W        W 6562  23.585  44.936   3.330
36748W        W 6563  24.982  16.791  10.561
36749W        W 6564  30.975  39.944  14.496
36750W        W 6565  25.685  40.536  13.392
36751W        W 6566  39.006  29.574   3.197
36752W        W 6567  24.554  16.607  14.898
36753W        W 6568  44.805  29.451   0.250
36754W        W 6569  36.468  24.528  14.400
36755W        W 6570  29.489  34.483  10.613
36756W        W 6571   4.894  25.476  12.403
36757W        W 6572  41.365  12.120   2.279
36758W        W 6573  27.009  18.090   1.837
36759W        W 6574  12.182   1.286   1.280
36760W        W 6575  17.754  40.376   2.400
36761W        W 6576  17.639  39.065  11.022
36762W        W 6577   7.172  38.844   0.427
36763W        W 6578  43.818  34.044  12.469
36764W        W 6579  26.042   9.366  12.066
36765W        W 6580  20.598  33.947  12.548
36766W        W 6581  12.146   2.754  13.492
36767W        W 6582  43.994  29.491   1.277
36768W        W 6583  41.900   5.735  10.947
36769W        W 6584   0.318  11.682   1.283
36770W        W 6585  36.544  36.072  11.509
36771W        W 6586  10.285  12.746   1.882
36772W        W 6587  14.802  25.100   4.321
36773W        W 6588   4.293  44.324   1.913
36774W        W 6589  19.726  25.974   3.337
36775W        W 6590  27.067   4.884   0.759
36776W        W 6591  28.473  16.287  11.994
36777W        W 6592  23.727  14.259  11.917
36778W        W 6593  32.933  37.564  13.059
36779W        W 6594  19.609  30.532   2.276
36780W        W 6595  39.465  27.500  12.358
36781W        W 6596  29.973  38.011  11.492
36782W        W 6597  39.875   8.207  14.776
36783W        W 6598   7.710  32.514  12.061
36784W        W 6599  33.587  14.162  12.467
36785W        W 6600  30.551   5.692  11.469
36786W        W 6601  24.596  22.999   1.796
36787W        W 6602  22.208  36.437  10.599
36788W        W 6603  14.216  19.767  11.043
36789W        W 6604   2.734  16.169   0.465
36790W        W 6605  22.171  41.527  13.318
36791W        W 6606   3.354  36.066   4.662
36792W        W 6607  10.818  20.616   1.430
36793W        W 6608  37.540  32.975   2.697
36794W        W 6609  21.094   3.226   2.403
36795W        W 6610  10.213   2.333   4.343
36796W        W 6611  16.097  41.324  14.784
36797W        W 6612  25.113   1.762   1.868
36798W        W 6613   6.826  29.609  14.382
36799W        W 6614   3.777  29.166  14.901
36800W        W 6615  14.624  29.118  11.583
36801W        W 6616  10.843   8.662  11.488
36802W        W 6617  33.517  31.545  14.332
36803W        W 6618  16.727  37.910   2.207
36804W        W 6619  10.863  30.157  11.018
36805W        W 6620  40.523  19.681  14.963
36806W        W 6621   8.767  44.367   2.821
36807W        W 6622   1.419  30.937   2.251
36808W        W 6623  17.120  16.123   4.158
36809W        W 6624  22.738  14.296   4.678
36810W        W 6625  22.123  41.484   2.366
36811W        W 6626  33.522   4.831  11.408
36812W        W 6627  34.478   3.843  12.016
36813W        W 6628  13.611   8.238  11.406
36814W        W 6629  16.743  31.028   3.326
36815W        W 6630  26.668   9.839  10.080
36816W        W 6631  11.747  24.668   3.868
36817W        W 6632  29.533  35.014   1.390
36818W        W 6633   7.721  29.504   1.349
36819W        W 6634  22.235  39.810   2.223
36820W        W 6635  30.451  22.545   2.681
36821W        W 6636  33.000  13.720  11.473
36822W        W 6637  12.143  42.441  13.508
36823W        W 6638  21.090  41.018   1.816
36824W        W 6639  26.649  33.458  12.044
36825W        W 6640  16.147  41.536  10.418
36826W        W 6641  24.164  35.010   2.733
36827W        W 6642  21.223   4.415   3.804
36828W        W 6643  26.556  14.719   1.726
36829W        W 6644   1.258  44.784   4.194
36830W        W 6645  24.544  39.944  14.809
36831W        W 6646  23.497   1.758   0.929
36832W        W 6647  11.827  14.271  13.506
36833W        W 6648   4.742  28.449   0.822
36834W        W 6649  37.935  44.482   1.364
36835W        W 6650  38.498  43.311  10.928
36836W        W 6651  28.068  25.984   0.794
36837W        W 6652  20.720  16.696   0.407
36838W        W 6653  20.646  37.392   3.303
36839W        W 6654  30.605  26.969  14.478
36840W        W 6655  22.047  11.649  10.914
36841W        W 6656   2.728  30.019  10.453
36842W        W 6657   9.207  24.563   2.357
36843W        W 6658  25.503  38.003   4.194
36844W        W 6659   6.813  41.469   2.360
36845W        W 6660  17.246   5.880  13.416
36846W        W 6661  24.996  32.103  13.548
36847W        W 6662  35.029  28.488  13.867
36848W        W 6663  40.919  39.061   3.201
36849W        W 6664  13.782  37.942   1.894
36850W        W 6665  14.096  33.604  10.926
36851W        W 6666  32.564   2.330  12.908
36852W        W 6667  11.208   8.713  11.051
36853W        W 6668  43.425   0.473   1.770
36854W        W 6669  16.145  20.234  14.336
36855W        W 6670  36.884  38.886   0.419
36856W        W 6671  27.025  18.185   0.469
36857W        W 6672  35.502  29.524   1.825
36858W        W 6673  30.982  33.528   3.328
36859W        W 6674   5.352  40.032   4.672
36860W        W 6675  31.968  22.111   4.749
36861W        W 6676  24.478  39.023  11.537
36862W        W 6677  35.036   5.273  14.024
36863W        W 6678   0.259  33.914  12.876
36864W        W 6679  16.273  34.013   0.877
36865W        W 6680   7.264  38.373  13.964
36866W        W 6681  27.084  25.525  12.976
36867W        W 6682  43.467   3.435  14.471
36868W        W 6683  42.938  34.503   1.795
36869W        W 6684  43.784  22.603   4.279
36870W        W 6685  27.184  31.501  13.362
36871W        W 6686  14.786  42.387  11.861
36872W        W 6687   1.280   4.827  14.417
36873W        W 6688  21.755  16.606  12.877
36874W        W 6689   7.858  30.578  10.430
36875W        W 6690  39.359  38.346  10.480
36876W        W 6691  33.513   2.374   1.430
36877W        W 6692   8.891  37.995   4.283
36878W        W 6693  30.013  19.139  12.082
36879W        W 6694  33.098  34.058   0.822
36880W        W 6695  19.622  43.493   0.285
36881W        W 6696  15.628   1.287  12.869
36882W        W 6697  14.626  12.173  12.015
36883W        W 6698  31.459  40.955   0.727
36884W        W 6699  43.770  13.810   1.437
36885W        W 6700  11.825  35.483   2.349
36886W        W 6701  27.168  34.576   0.242
36887W        W 6702  21.621  15.299  11.437
36888W        W 6703  22.617  18.179   2.410
36889W        W 6704  42.777   8.798   0.923
36890W        W 6705  26.624  32.568   2.345
36891W        W 6706  32.595  40.940   3.244
36892W        W 6707  11.150  21.239   4.637
36893W        W 6708  35.495  13.163   1.368
36894W        W 6709   3.921  17.781   0.427
36895W        W 6710   5.737  25.536   0.736
36896W        W 6711  14.165   7.874   2.250
36897W        W 6712  15.224  11.659   4.828
36898W        W 6713  15.679  43.939   2.682
36899W        W 6714  12.695  43.835   0.804
36900W        W 6715  13.164  17.184  11.387
36901W        W 6716  43.871  33.038   2.686
36902W        W 6717  39.023  16.297  13.481
36903W        W 6718  16.651  27.546  12.430
36904W        W 6719  24.052  29.992  11.090
36905W        W 6720  23.177   2.456  14.990
36906W        W 6721  25.127   4.288  11.905
36907W        W 6722  22.228   7.692  12.547
36908W        W 6723  31.094  42.922   4.303
36909W        W 6724  14.270  42.470   0.762
36910W        W 6725   3.820   6.851   3.318
36911W        W 6726  39.997  39.359   4.812
36912W        W 6727  26.496  28.638  14.995
36913W        W 6728  35.920   2.737   3.747
36914W        W 6729  18.120  31.011  11.507
36915W        W 6730  27.562  32.919  13.534
36916W        W 6731  36.467  22.595   4.666
36917W        W 6732  24.170   7.838  13.484
36918W        W 6733  34.612  12.834   3.636
36919W        W 6734  30.567  23.661   0.747
36920W        W 6735  43.305  10.366   3.758
36921W        W 6736  28.174  19.576   2.700
36922W        W 6737  23.232  36.024  11.004
36923W        W 6738  33.430  15.285  13.435
36924W        W 6739  19.582  41.454  11.568
36925W        W 6740  31.899  13.336   1.741
36926W        W 6741  32.511  20.175  12.509
36927W        W 6742   9.312  34.036   0.898
36928W        W 6743   4.901  17.148   4.126
36929W        W 6744  15.204  12.747   4.801
36930W        W 6745  36.353  12.808  10.522
36931W        W 6746   0.778  41.453   3.673
36932W        W 6747  28.490  23.987  13.890
36933W        W 6748  40.436   2.445  10.053
36934W        W 6749  12.770  40.388   4.749
36935W        W 6750  36.523  32.463  12.929
36936W        W 6751  10.153  40.546   0.870
36937W        W 6752  36.437   5.417   2.239
36938W        W 6753  36.472  33.615   0.246
36939W        W 6754   0.759   7.180  14.292
36940W        W 6755  15.123  44.872  14.513
36941W        W 6756  20.261  12.811   1.796
36942W        W 6757   0.289  35.491   3.200
36943W        W 6758  40.044  18.128  12.548
36944W        W 6759  17.760  40.028  11.375
36945W        W 6760  42.366   7.201   2.388
36946W        W 6761  40.448  29.976   3.287
36947W        W 6762  22.017  29.999  13.891
36948W        W 6763   4.869   6.806   0.402
36949W        W 6764  23.210  44.440  14.782
36950W        W 6765  13.312   3.822  13.977
36951W        W 6766  19.610  36.422   2.392
36952W        W 6767  42.324  22.225   0.812
36953W        W 6768  28.078  12.255  12.902
36954W        W 6769   6.379   3.330  14.924
36955W        W 6770  27.021  12.627   5.583
36956W        W 6771  31.475  30.476   3.851
36957W        W 6772  15.822   4.738  11.372
36958W        W 6773  41.456  15.711  12.377
36959W        W 6774  14.157  37.441  14.499
36960W        W 6775  26.513  41.004  14.877
36961W        W 6776  41.516  11.337   0.465
36962W        W 6777   8.227  41.795   0.879
36963W        W 6778  41.875  24.162   2.211
36964W        W 6779   6.760  13.734   3.667
36965W        W 6780   4.716   5.377  11.407
36966W        W 6781  28.637  41.839   4.756
36967W        W 6782   2.810  12.626   2.197
36968W        W 6783  17.166  44.981   0.899
36969W        W 6784   5.820   6.302   1.904
36970W        W 6785  22.684  35.374  13.828
36971W        W 6786   1.738  40.852  13.393
36972W        W 6787  12.790  37.048   1.280
36973W        W 6788   1.285  43.347  11.038
36974W        W 6789  18.152  25.593   0.429
36975W        W 6790   6.212   5.763  14.463
36976W        W 6791   7.722  29.563  13.525
36977W        W 6792  40.379  13.234  13.985
36978W        W 6793  32.437   0.854  10.027
36979W        W 6794  28.617  21.564   1.780
36980W        W 6795  43.826   8.813   4.750
36981W        W 6796  25.544  42.380   4.617
36982W        W 6797   0.329  41.407  11.415
36983W        W 6798  13.678  44.330  13.944
36984W        W 6799   6.793  20.705   4.218
36985W        W 6800  40.485  37.546  11.390
36986W        W 6801   5.406  23.719  12.348
36987W        W 6802  15.817  35.078  14.804
36988W        W 6803  34.968   6.756  12.351
36989W        W 6804  22.113  12.726  13.988
36990W        W 6805  36.858   1.887  12.355
36991W        W 6806  24.182  42.320   3.656
36992W        W 6807   3.900  10.827   3.235
36993W        W 6808  43.449  40.532   3.348
36994W        W 6809  12.193   0.274   0.279
36995W        W 6810   1.244  12.724  14.364
36996W        W 6811  30.598   3.954   3.301
36997W        W 6812  22.600  21.707   3.842
36998W        W 6813   8.751  39.922   3.317
36999W        W 6814  21.235   4.715  12.558
37000W        W 6815   4.848  25.177  12.408
37001W        W 6816  30.122  40.312   4.645
37002W        W 6817  12.811   5.748   2.389
37003W        W 6818  28.645  23.732  14.829
37004W        W 6819  34.486   5.356   4.227
37005W        W 6820  36.481  13.255   2.704
37006W        W 6821  14.724  15.709   3.673
37007W        W 6822   5.383  33.507   0.945
37008W        W 6823  24.165  21.580  10.908
37009W        W 6824   4.830   6.307  11.917
37010W        W 6825  20.050  37.924  12.560
37011W        W 6826  28.178  23.495  12.385
37012W        W 6827   8.850  41.317  13.051
37013W        W 6828   1.334  36.421  13.331
37014W        W 6829  19.067  21.718  13.498
37015W        W 6830  21.735  11.191  12.486
37016W        W 6831   8.793  40.509   4.719
37017W        W 6832  15.747  26.018  13.427
37018W        W 6833  40.505  41.310   4.354
37019W        W 6834  30.078  44.839  10.490
37020W        W 6835  23.642  41.297  13.501
37021W        W 6836   7.775   6.278   2.195
37022W        W 6837  18.196   0.944   3.718
37023W        W 6838  20.659  39.398   4.790
37024W        W 6839  32.476  37.991   2.756
37025W        W 6840  24.520  40.333  12.838
37026W        W 6841  27.111  11.723   1.442
37027W        W 6842  22.573  32.905   4.831
37028W        W 6843  27.481  24.172  12.955
37029W        W 6844   3.743  21.687   0.896
37030W        W 6845   8.376  31.102  13.312
37031W        W 6846  27.458  14.128   3.720
37032W        W 6847  41.394  32.545   0.378
37033W        W 6848  41.851  24.124   2.727
37034W        W 6849  30.120   3.941   2.693
37035W        W 6850  38.836   0.952   9.941
37036W        W 6851  17.759  35.563  10.435
37037W        W 6852  16.130  11.828   0.777
37038W        W 6853   3.238  20.166   4.625
37039W        W 6854  21.610   1.342   4.692
37040W        W 6855  39.423   8.673   9.668
37041W        W 6856  22.535  19.737   2.767
37042W        W 6857  41.372  40.529   0.876
37043W        W 6858  34.418  26.074   4.730
37044W        W 6859  17.129  12.249   0.420
37045W        W 6860  31.479   8.697  13.924
37046W        W 6861  43.510  21.668  12.477
37047W        W 6862  43.504  39.335  13.450
37048W        W 6863  31.098  24.670   1.751
37049W        W 6864  36.846  30.446   3.707
37050W        W 6865  37.964  31.521   0.901
37051W        W 6866  33.948   1.937   1.829
37052W        W 6867  35.371  43.947  12.487
37053W        W 6868  37.852  28.038  10.099
37054W        W 6869  25.488  35.517   2.677
37055W        W 6870  30.629   1.446   4.814
37056W        W 6871  17.592  36.900   1.298
37057W        W 6872   1.743  32.552  14.968
37058W        W 6873  17.740  30.909  12.013
37059W        W 6874  13.129  33.126   3.180
37060W        W 6875   1.827  30.442   4.139
37061W        W 6876   8.742   8.719   2.306
37062W        W 6877  12.708  17.064   4.671
37063W        W 6878   4.863   4.826  14.940
37064W        W 6879   4.906  10.711  12.511
37065W        W 6880  44.376  20.689   1.352
37066W        W 6881  39.525  10.232  12.575
37067W        W 6882  14.329  22.050  12.086
37068W        W 6883   4.293  10.844   0.893
37069W        W 6884  14.312  17.709  14.827
37070W        W 6885  16.586  16.192   3.864
37071W        W 6886  41.470  43.506  12.479
37072W        W 6887  25.184  35.882  10.925
37073W        W 6888  24.679  26.173  10.577
37074W        W 6889  15.184   1.346  14.965
37075W        W 6890   0.380  24.523  12.450
37076W        W 6891   5.822  32.092  10.606
37077W        W 6892  15.612   5.329   4.787
37078W        W 6893  32.978  13.600  14.949
37079W        W 6894  44.899  27.673  13.024
37080W        W 6895  11.246  12.292   1.901
37081W        W 6896  31.132  14.190  14.300
37082W        W 6897  27.507  19.536   2.182
37083W        W 6898  32.475   5.752  10.563
37084W        W 6899  14.193   6.729  12.538
37085W        W 6900  42.294   1.353  13.031
37086W        W 6901  28.010  15.163   1.440
37087W        W 6902  16.732  42.382   3.344
37088W        W 6903   8.284  29.155  11.396
37089W        W 6904   8.391  38.430   5.239
37090W        W 6905  21.222  33.447  13.799
37091W        W 6906  41.405  16.201  10.478
37092W        W 6907   6.343  42.915   1.786
37093W        W 6908  29.573  19.581  12.439
37094W        W 6909  13.741   8.831   3.241
37095W        W 6910   8.245   0.881   2.728
37096W        W 6911  30.077  15.234  14.820
37097W        W 6912  15.645   5.368   1.933
37098W        W 6913   0.962  32.420  13.324
37099W        W 6914  20.622  15.297   4.833
37100W        W 6915  23.041   3.437  11.573
37101W        W 6916  35.602  28.501   2.392
37102W        W 6917  11.338  35.456  13.403
37103W        W 6918  18.137  16.592  13.886
37104W        W 6919   2.377   1.870   0.432
37105W        W 6920  13.321  38.393   4.644
37106W        W 6921  40.875  30.656  13.897
37107W        W 6922  27.032  35.499   0.321
37108W        W 6923   8.278  31.493  10.570
37109W        W 6924  14.217  33.485  10.540
37110W        W 6925  14.332  31.057   2.365
37111W        W 6926   7.887   2.738   3.753
37112W        W 6927   4.219   4.221   0.287
37113W        W 6928  25.663   3.335  10.586
37114W        W 6929  10.315  24.679   0.297
37115W        W 6930  35.549   7.845  12.851
37116W        W 6931  18.204  44.974  13.040
37117W        W 6932  19.576  34.493   1.346
37118W        W 6933  29.949  38.496  14.400
37119W        W 6934  43.965  21.724  10.958
37120W        W 6935  42.977   3.459  13.429
37121W        W 6936  43.506  37.956   3.807
37122W        W 6937  20.100  35.865   3.220
37123W        W 6938   4.839  35.888   3.810
37124W        W 6939  34.017  36.974   2.258
37125W        W 6940  18.585  14.602  14.828
37126W        W 6941  38.980  19.693  10.022
37127W        W 6942  35.050  37.948   0.840
37128W        W 6943   5.901  24.178  12.085
37129W        W 6944  18.115  22.067   3.756
37130W        W 6945  17.258  39.319   0.745
37131W        W 6946  27.656  33.449  11.910
37132W        W 6947  36.850  44.890   1.399
37133W        W 6948  31.098  44.997   1.829
37134W        W 6949  41.918  29.137   2.211
37135W        W 6950  20.129  27.050   2.379
37136W        W 6951  39.905  24.648  12.576
37137W        W 6952  14.329  24.607  11.097
37138W        W 6953  21.223  15.805  10.424
37139W        W 6954  30.511   1.408  14.793
37140W        W 6955  28.965  43.324   1.699
37141W        W 6956   4.933  15.661  13.846
37142W        W 6957  37.352  14.765   0.924
37143W        W 6958  42.353  21.717   0.307
37144W        W 6959  21.075  17.607  14.360
37145W        W 6960  16.579  20.666  10.945
37146W        W 6961  42.007  21.746  11.562
37147W        W 6962  40.318  30.497   4.736
37148W        W 6963   3.398  44.270  13.970
37149W        W 6964  20.224   4.264   1.824
37150W        W 6965  29.974  15.708  10.593
37151W        W 6966  41.867  15.621   5.674
37152W        W 6967  20.567  29.478   1.306
37153W        W 6968  32.910  18.282   2.309
37154W        W 6969  42.026  31.465   4.708
37155W        W 6970   2.922  29.491   2.262
37156W        W 6971  40.475   3.395  13.881
37157W        W 6972   5.728  43.379  13.337
37158W        W 6973   3.714  12.610  11.986
37159W        W 6974  32.430  30.442  13.883
37160W        W 6975  39.854  26.606  13.375
37161W        W 6976   0.267  15.749   2.244
37162W        W 6977  20.566  27.110   0.452
37163W        W 6978  18.739  44.766  11.583
37164W        W 6979  24.528  22.678   3.764
37165W        W 6980  24.527  16.580  10.134
37166W        W 6981  32.602  31.051   1.746
37167W        W 6982  24.130   8.880   2.797
37168W        W 6983  21.532  43.428  10.097
37169W        W 6984   5.402   7.792  12.977
37170W        W 6985  44.416  35.518   3.284
37171W        W 6986   0.340   2.945   0.798
37172W        W 6987  38.538  42.031   4.651
37173W        W 6988  24.136  11.271  12.857
37174W        W 6989  25.635   8.271   1.709
37175W        W 6990   6.308  37.569   2.765
37176W        W 6991   7.721  24.622  12.843
37177W        W 6992  15.784  11.318  13.546
37178W        W 6993  10.645  14.830  11.001
37179W        W 6994  18.640  33.400  13.320
37180W        W 6995  31.530  30.437   4.785
37181W        W 6996  20.575  31.108   1.739
37182W        W 6997  39.045  36.434  14.281
37183W        W 6998  15.665  28.165   0.448
37184W        W 6999  10.671  28.524   3.210
37185W        W 7000  16.598  32.504   1.899
37186W        W 7001   3.410  23.034   4.155
37187W        W 7002  32.076  31.920   4.680
37188W        W 7003  39.548  31.543   2.383
37189W        W 7004  29.559  28.670  10.924
37190W        W 7005   2.777  17.672   3.634
37191W        W 7006  41.023  19.147   3.699
37192W        W 7007  21.558  18.274   5.171
37193W        W 7008   2.250  12.222  12.068
37194W        W 7009  43.797  10.245   3.670
37195W        W 7010   3.893  18.562  13.330
37196W        W 7011  44.770  26.694   4.336
37197W        W 7012  39.912  15.127   1.839
37198W        W 7013   5.243   9.727   2.818
37199W        W 7014  42.787   3.842   4.789
37200W        W 7015  29.068   2.927  13.883
37201W        W 7016  30.502   6.903  12.056
37202W        W 7017  14.099  10.284   1.744
37203W        W 7018  40.926  13.740   2.705
37204W        W 7019  13.186   5.932   3.707
37205W        W 7020  11.352   6.409  12.893
37206W        W 7021  41.466  16.783   0.899
37207W        W 7022  14.331  22.621  11.001
37208W        W 7023  43.811  21.245   4.684
37209W        W 7024  14.770  24.549   3.757
37210W        W 7025  22.594  21.095   4.708
37211W        W 7026   2.332  43.937  12.579
37212W        W 7027  21.671  11.799   4.336
37213W        W 7028  15.698  37.507   3.782
37214W        W 7029  14.734  39.368   4.190
37215W        W 7030  43.489  44.903  12.346
37216W        W 7031  10.147  15.669   4.244
37217W        W 7032  39.548   0.985   3.161
37218W        W 7033  37.373  23.155  12.942
37219W        W 7034   6.272   5.425   0.421
37220W        W 7035  28.183   2.847  11.538
37221W        W 7036  27.450   5.256  12.082
37222W        W 7037  36.066  16.219  14.838
37223W        W 7038   4.216  16.177  14.786
37224W        W 7039   9.778  37.067  13.316
37225W        W 7040  25.488   2.456  14.494
37226W        W 7041  44.265  20.212   2.366
37227W        W 7042   1.316  22.514  10.442
37228W        W 7043  30.519  22.013  13.914
37229W        W 7044  36.912  16.785  13.933
37230W        W 7045  13.628   7.882  14.440
37231W        W 7046  12.742  12.239  13.934
37232W        W 7047  17.720  29.077   4.169
37233W        W 7048  25.493  18.547  12.959
37234W        W 7049  27.533  20.676  12.459
37235W        W 7050  10.804  32.957  10.474
37236W        W 7051  10.819  36.415   2.276
37237W        W 7052   0.902   0.475  14.473
37238W        W 7053  31.616  31.985   4.333
37239W        W 7054  11.727  17.793   4.723
37240W        W 7055   6.899  31.618   1.804
37241W        W 7056  36.956  34.089   5.682
37242W        W 7057   0.886  23.615  10.634
37243W        W 7058  22.710   3.221  10.534
37244W        W 7059  11.787  42.327  11.886
37245W        W 7060  14.094  27.656   4.232
37246W        W 7061  24.978  31.997   3.253
37247W        W 7062  11.320   5.268   2.403
37248W        W 7063  22.147   8.162  10.636
37249W        W 7064  21.724  36.458   0.846
37250W        W 7065  38.495  23.147  14.440
37251W        W 7066  33.020  33.476  12.457
37252W        W 7067  39.813  24.486   1.851
37253W        W 7068   8.170  15.783  14.869
37254W        W 7069  10.855  39.995   1.382
37255W        W 7070  13.691  25.567  12.396
37256W        W 7071  16.793   6.258   4.630
37257W        W 7072  24.506  17.610  11.609
37258W        W 7073  42.313  12.327  14.833
37259W        W 7074  36.850  16.666   0.806
37260W        W 7075  22.738   9.150  14.768
37261W        W 7076  31.938  37.361  11.475
37262W        W 7077  28.448  34.582  11.492
37263W        W 7078  31.402  17.605  11.394
37264W        W 7079  20.753   4.857   2.693
37265W        W 7080  10.715  36.536  12.075
37266W        W 7081  42.478  43.448   2.360
37267W        W 7082  33.919  27.155   2.274
37268W        W 7083  15.165  43.459  13.431
37269W        W 7084   1.744   2.792   2.376
37270W        W 7085   2.314  22.644   0.379
37271W        W 7086  10.329  44.946  13.055
37272W        W 7087   5.737  37.364  10.641
37273W        W 7088   1.479   4.869   0.811
37274W        W 7089  27.446  20.194  13.478
37275W        W 7090  15.223  44.453  12.823
37276W        W 7091  27.154  17.129   2.741
37277W        W 7092  29.136  30.121   4.683
37278W        W 7093  26.144  33.487   1.811
37279W        W 7094  24.649  11.348  12.834
37280W        W 7095  44.347  15.581   1.381
37281W        W 7096   8.336  33.462  11.089
37282W        W 7097  43.789   0.949   1.295
37283W        W 7098  33.993   0.780  10.443
37284W        W 7099  17.076  31.067   4.830
37285W        W 7100  33.109  29.926  10.423
37286W        W 7101  38.356  30.623  11.939
37287W        W 7102  32.067  39.372  14.960
37288W        W 7103  44.759  26.104  13.063
37289W        W 7104  16.710  34.504   3.333
37290W        W 7105  11.862  41.434  13.540
37291W        W 7106  22.611  42.321  12.942
37292W        W 7107  12.728   3.267  12.081
37293W        W 7108  23.674  10.765  13.927
37294W        W 7109  40.321   6.290   0.906
37295W        W 7110  26.198   4.902   4.822
37296W        W 7111   2.841  39.872  14.846
37297W        W 7112  27.163   0.875  12.504
37298W        W 7113   1.758  14.183  11.378
37299W        W 7114  39.892  40.863   1.890
37300W        W 7115   5.250  33.580  14.834
37301W        W 7116  38.905   4.817   4.122
37302W        W 7117  36.058  39.902   4.599
37303W        W 7118  18.544   5.829  13.907
37304W        W 7119  21.189  44.958  12.039
37305W        W 7120  34.904  38.974   9.927
37306W        W 7121  41.360  34.438   0.269
37307W        W 7122  19.534  39.527   0.394
37308W        W 7123   1.750   6.303  12.080
37309W        W 7124   6.419   2.958  10.974
37310W        W 7125  36.476  17.121  11.887
37311W        W 7126   6.225   3.258   4.166
37312W        W 7127   5.857  22.214  10.955
37313W        W 7128  16.647   9.763  13.977
37314W        W 7129   3.807   8.700  13.378
37315W        W 7130   2.471  18.625  12.905
37316W        W 7131   0.300  24.684  11.958
37317W        W 7132  11.660  21.030   0.926
37318W        W 7133   1.921   8.357   3.181
37319W        W 7134  41.831  37.428  10.980
37320W        W 7135  44.882   0.344  13.392
37321W        W 7136  23.010  29.988   0.769
37322W        W 7137  42.032  31.151  10.442
37323W        W 7138  39.331   0.262   0.814
37324W        W 7139   6.841  14.314   4.823
37325W        W 7140  41.369  12.159  10.891
37326W        W 7141  12.774  19.616  14.966
37327W        W 7142  24.486  23.997   0.872
37328W        W 7143  28.057  34.474  11.096
37329W        W 7144  32.593  28.082  13.013
37330W        W 7145  43.287  23.637   1.218
37331W        W 7146  43.293  31.614   4.688
37332W        W 7147   9.379   0.780   2.214
37333W        W 7148  42.350  22.119  14.771
37334W        W 7149   4.787   3.920   0.249
37335W        W 7150  16.299  32.457  11.401
37336W        W 7151  15.274  10.798  12.482
37337W        W 7152   4.872  37.912  12.002
37338W        W 7153  44.490  31.528   3.219
37339W        W 7154  27.561  23.699  11.940
37340W        W 7155  31.464  23.166   1.835
37341W        W 7156  21.621  13.170  14.998
37342W        W 7157  16.593  10.640   2.677
37343W        W 7158  44.278  20.031   0.814
37344W        W 7159  26.536  31.971   1.383
37345W        W 7160  29.500   4.903   3.217
37346W        W 7161  22.651  24.212  12.370
37347W        W 7162  11.247  37.871   0.253
37348W        W 7163  37.058  28.614   0.964
37349W        W 7164   1.890  11.287   2.705
37350W        W 7165   8.677  28.037  12.938
37351W        W 7166  37.490  42.018   3.666
37352W        W 7167  38.837   3.840  10.452
37353W        W 7168  26.063  18.058  12.468
37354W        W 7169  32.077  34.053  13.043
37355W        W 7170  35.947   2.465   3.297
37356W        W 7171  34.377  12.828   1.703
37357W        W 7172   6.264  27.586  12.068
37358W        W 7173  11.826  25.587  12.566
37359W        W 7174   8.733   2.876  11.871
37360W        W 7175  33.608  13.284   2.293
37361W        W 7176  21.755   5.300  13.394
37362W        W 7177  24.521  40.364   0.822
37363W        W 7178   2.720  44.413   4.620
37364W        W 7179  42.980  15.757  13.909
37365W        W 7180  36.492  37.897  13.389
37366W        W 7181   4.903  16.238  14.491
37367W        W 7182  22.133  41.872  13.002
37368W        W 7183   5.902  36.855  11.593
37369W        W 7184   5.330  11.187  13.904
37370W        W 7185  16.609   2.231  12.004
37371W        W 7186   5.884  17.071   4.218
37372W        W 7187   7.802  11.158   4.117
37373W        W 7188   7.380  26.994  13.829
37374W        W 7189  38.003  23.716   4.717
37375W        W 7190  27.514  10.668   1.880
37376W        W 7191   0.855   8.342   4.736
37377W        W 7192   9.259  37.873   0.363
37378W        W 7193  34.457  21.594  14.356
37379W        W 7194  33.595  39.844  10.473
37380W        W 7195  32.491  36.497  11.491
37381W        W 7196  33.534  23.683   2.745
37382W        W 7197  24.999  31.633  13.382
37383W        W 7198  19.206  14.295   0.922
37384W        W 7199  22.702  10.249   1.825
37385W        W 7200  24.484  28.954  12.070
37386W        W 7201  35.415  22.119  14.780
37387W        W 7202  13.690   8.767   0.863
37388W        W 7203   1.912   2.927   3.850
37389W        W 7204   1.462  16.706   4.175
37390W        W 7205  20.582   1.409   5.107
37391W        W 7206  37.934   9.762  14.016
37392W        W 7207  21.586  30.090   4.809
37393W        W 7208   8.402   0.493   1.321
37394W        W 7209  44.000  22.013   0.742
37395W        W 7210  12.633  14.651  11.515
37396W        W 7211   3.866  34.413   3.804
37397W        W 7212   0.830  22.510   4.295
37398W        W 7213  33.129  33.019   0.346
37399W        W 7214  41.945  22.212  12.398
37400W        W 7215  16.792  12.217   4.759
37401W        W 7216  40.480  11.159  10.933
37402W        W 7217   9.763  16.650  12.028
37403W        W 7218   2.826  22.056   4.661
37404W        W 7219  17.291  44.429  12.483
37405W        W 7220  43.390  39.010   4.291
37406W        W 7221   6.383   6.369   0.422
37407W        W 7222  26.499  37.511   1.869
37408W        W 7223  20.128  13.326   2.269
37409W        W 7224  42.316  34.518  13.845
37410W        W 7225  10.160  21.163  12.034
37411W        W 7226   0.787  24.225  12.068
37412W        W 7227  30.908  36.961  11.529
37413W        W 7228  18.617  39.891   4.628
37414W        W 7229  17.774  44.763  12.915
37415W        W 7230  15.194  23.995   3.709
37416W        W 7231  40.325   7.813  13.544
37417W        W 7232   6.775  23.693  12.875
37418W        W 7233  28.545  32.981   2.786
37419W        W 7234  12.344   8.711   2.416
37420W        W 7235   7.331  18.295   3.206
37421W        W 7236  21.533  16.284   3.316
37422W        W 7237  44.795  12.185  13.962
37423W        W 7238   4.783  36.443  13.369
37424W        W 7239  18.756   1.785  12.892
37425W        W 7240  22.116  37.489   3.631
37426W        W 7241   8.748   5.841  11.856
37427W        W 7242  20.113  14.782   2.278
37428W        W 7243   9.334  43.782   4.758
37429W        W 7244  24.045   2.883  14.822
37430W        W 7245   7.368   8.711  12.944
37431W        W 7246   3.937   0.776  14.320
37432W        W 7247  37.526  19.045  11.115
37433W        W 7248  22.090  11.737   3.831
37434W        W 7249  20.061  13.843  11.065
37435W        W 7250  13.797  18.065  11.957
37436W        W 7251   6.368  39.933  13.383
37437W        W 7252  22.669  40.850   2.902
37438W        W 7253   1.274  37.933   0.754
37439W        W 7254   2.291  29.106   4.641
37440W        W 7255  25.020   8.666  13.307
37441W        W 7256   1.296  18.600  10.935
37442W        W 7257  43.899  30.912  10.904
37443W        W 7258  15.748  33.458  11.478
37444W        W 7259   6.818  32.568   0.453
37445W        W 7260  40.976  38.860   3.742
37446W        W 7261  37.449  14.698  11.908
37447W        W 7262  15.739  37.492  12.860
37448W        W 7263  22.605  10.166  12.037
37449W        W 7264  36.490   0.348   4.136
37450W        W 7265  13.843  35.533   4.133
37451W        W 7266  43.308  22.540   2.812
37452W        W 7267  42.780  36.913  14.451
37453W        W 7268  26.622  26.621  11.457
37454W        W 7269  42.032  38.444  12.903
37455W        W 7270  35.935   3.738  14.414
37456W        W 7271   3.860  12.846  14.452
37457W        W 7272   6.896  10.338   2.289
37458W        W 7273  11.318  26.624  11.435
37459W        W 7274   1.938  37.936   1.809
37460W        W 7275   3.374   2.336   3.787
37461W        W 7276  36.505  41.806  11.430
37462W        W 7277  43.855   5.416   0.478
37463W        W 7278   3.842  42.938   0.739
37464W        W 7279  38.543  17.164  14.849
37465W        W 7280  39.892   8.222   9.507
37466W        W 7281   9.783  28.955   1.351
37467W        W 7282  39.824  38.868   3.780
37468W        W 7283  41.820  19.169  13.039
37469W        W 7284   6.762  35.906   0.870
37470W        W 7285  27.466  28.952   0.877
37471W        W 7286  44.956  36.443  10.541
37472W        W 7287  40.874  16.679   0.352
37473W        W 7288   7.859   6.190   3.312
37474W        W 7289  22.089  42.514   4.155
37475W        W 7290  32.046  33.877   1.769
37476W        W 7291  16.796  15.818   0.391
37477W        W 7292  10.330  41.841   1.920
37478W        W 7293  20.535  23.505   4.724
37479W        W 7294  22.123  16.632   3.226
37480W        W 7295  25.170  44.414   1.442
37481W        W 7296  32.128  10.670   2.214
37482W        W 7297  44.352   3.401   2.299
37483W        W 7298  23.557  28.965  11.375
37484W        W 7299  36.462  39.467  14.316
37485W        W 7300   4.792  12.669   5.086
37486W        W 7301   9.226   3.414  14.811
37487W        W 7302  34.597  43.335   4.689
37488W        W 7303   2.289  18.688  10.448
37489W        W 7304  23.075  25.965   4.797
37490W        W 7305  42.782  15.185   0.435
37491W        W 7306  32.632  20.176  14.884
37492W        W 7307  33.086   2.793   3.250
37493W        W 7308  26.520  35.543   1.829
37494W        W 7309   9.746  16.724   4.215
37495W        W 7310  21.740  13.631  12.517
37496W        W 7311  30.065  43.461   2.314
37497W        W 7312  33.403  18.142  12.054
37498W        W 7313  26.167  36.351  10.526
37499W        W 7314  20.109   6.204   0.438
37500W        W 7315   7.695  41.445   2.352
37501W        W 7316   7.730  38.935  10.496
37502W        W 7317  14.758  38.031  14.357
37503W        W 7318  30.039  12.839  13.976
37504W        W 7319   4.772  30.647   4.819
37505W        W 7320  23.149  32.941   4.719
37506W        W 7321   6.203  44.335   2.701
37507W        W 7322  39.870  18.659   0.455
37508W        W 7323  35.070  36.933  13.432
37509W        W 7324  26.547  12.704   0.430
37510W        W 7325  39.496  44.860  13.948
37511W        W 7326   7.216  42.906   0.420
37512W        W 7327  25.969   5.301   3.865
37513W        W 7328  15.139  22.527   4.161
37514W        W 7329  21.096  13.617   2.259
37515W        W 7330  39.982  32.581  13.371
37516W        W 7331  42.514  32.516  12.059
37517W        W 7332  37.485  19.673  14.462
37518W        W 7333   9.218  24.195  13.012
37519W        W 7334  22.611  30.972  14.419
37520W        W 7335  30.644  15.592   2.863
37521W        W 7336   3.350   1.741   4.811
37522W        W 7337   6.414  31.143   3.253
37523W        W 7338  39.556  14.262  12.481
37524W        W 7339  36.018  43.825   0.941
37525W        W 7340  14.203  13.685   2.281
37526W        W 7341  18.605  23.537  11.440
37527W        W 7342  20.603  37.460  11.074
37528W        W 7343  22.064   7.848  10.889
37529W        W 7344  41.833  12.347   2.242
37530W        W 7345  26.660  30.921   0.425
37531W        W 7346   3.941   4.239   1.910
37532W        W 7347  38.375  31.550   0.949
37533W        W 7348  22.200   7.358   0.373
37534W        W 7349  37.434  39.882   1.897
37535W        W 7350  43.339  23.523   5.273
37536W        W 7351  44.317   6.419   5.099
37537W        W 7352  16.591  14.698  13.020
37538W        W 7353  33.490  33.541  13.961
37539W        W 7354  26.970  44.858   2.713
37540W        W 7355  10.223  19.539   0.815
37541W        W 7356  17.302  23.710  14.318
37542W        W 7357  29.489   8.806  10.480
37543W        W 7358  28.966   8.683  11.008
37544W        W 7359  34.950  17.787  14.978
37545W        W 7360   1.974  35.855  11.455
37546W        W 7361  14.182  15.806  14.001
37547W        W 7362  26.522  27.613  13.529
37548W        W 7363  27.181  42.895  14.006
37549W        W 7364  21.017  12.360  12.447
37550W        W 7365   6.363  14.700   3.829
37551W        W 7366  28.535  39.347   1.927
37552W        W 7367  23.688  16.247   1.285
37553W        W 7368  20.155  30.048   1.296
37554W        W 7369  16.583   2.884   0.397
37555W        W 7370  37.416  30.559   2.367
37556W        W 7371  13.203  16.741   1.906
37557W        W 7372  23.019  41.420  12.023
37558W        W 7373  27.115  40.798  13.057
37559W        W 7374  23.047  23.586  12.401
37560W        W 7375  32.566  40.048  11.487
37561W        W 7376  36.928  20.065  12.492
37562W        W 7377   2.307   7.320   0.767
37563W        W 7378  13.202  18.296   4.119
37564W        W 7379  39.925  37.404   2.371
37565W        W 7380  17.718  43.346   2.186
37566W        W 7381   2.406  13.196  12.576
37567W        W 7382   0.444   9.803  14.973
37568W        W 7383  18.757  23.049  13.870
37569W        W 7384  16.072  21.045   0.455
37570W        W 7385  29.158  22.230   1.882
37571W        W 7386  10.859  13.293  11.598
37572W        W 7387  37.955  15.727   0.283
37573W        W 7388  42.449  10.792  12.964
37574W        W 7389  17.721  32.946   3.215
37575W        W 7390  10.759  32.603   1.784
37576W        W 7391   3.434   3.886  14.396
37577W        W 7392  20.715   0.268   5.116
37578W        W 7393   7.250   6.709  10.509
37579W        W 7394  27.955  33.474  14.994
37580W        W 7395  30.497  41.410  10.581
37581W        W 7396   6.770  32.125  10.492
37582W        W 7397  40.932  19.712  12.554
37583W        W 7398  39.928   5.712  12.927
37584W        W 7399  26.670  34.377  11.447
37585W        W 7400  39.546  15.252   2.858
37586W        W 7401  37.944  35.035   0.796
37587W        W 7402  29.594  13.243   0.302
37588W        W 7403   6.265   6.300   1.790
37589W        W 7404  10.866   0.747   1.425
37590W        W 7405  33.097   9.358   2.193
37591W        W 7406  13.294  14.205   0.319
37592W        W 7407  42.015  26.149  12.462
37593W        W 7408  33.999  11.274  13.841
37594W        W 7409  12.303   8.830  13.827
37595W        W 7410   2.925   5.429   4.743
37596W        W 7411  12.673  23.172  13.800
37597W        W 7412  29.122  27.551   1.220
37598W        W 7413  43.846   2.280  11.470
37599W        W 7414  40.369  29.436  10.571
37600W        W 7415  39.399   1.774  12.341
37601W        W 7416  17.066   4.821   4.204
37602W        W 7417  27.498  34.029  13.365
37603W        W 7418  26.623   5.740   3.780
37604W        W 7419  40.877  10.798  13.529
37605W        W 7420  17.685  17.152   2.379
37606W        W 7421   7.180  30.511   0.408
37607W        W 7422  32.102  16.576   3.366
37608W        W 7423  12.155   9.870   4.255
37609W        W 7424  40.878  35.378   4.308
37610W        W 7425  31.470  18.671   4.798
37611W        W 7426  36.064  41.305  11.054
37612W        W 7427  19.735  24.101   1.214
37613W        W 7428  32.504   7.327   1.373
37614W        W 7429  10.254  19.554   3.811
37615W        W 7430  29.098  23.090  12.085
37616W        W 7431   8.347  25.065   1.880
37617W        W 7432  20.087  32.963   4.289
37618W        W 7433  15.668  39.486  12.953
37619W        W 7434  36.027  23.715  13.457
37620W        W 7435  41.295   5.304  12.547
37621W        W 7436  15.672  40.419  10.047
37622W        W 7437  30.448  41.416  13.538
37623W        W 7438  35.019  25.595  14.801
37624W        W 7439  32.126   9.290  12.545
37625W        W 7440   5.787  12.681  10.523
37626W        W 7441   3.944   7.749   1.901
37627W        W 7442  11.745  18.784   2.762
37628W        W 7443  20.108  31.903   4.636
37629W        W 7444  35.099  39.866   4.199
37630W        W 7445  24.637  26.061   4.319
37631W        W 7446  26.562   9.833   4.598
37632W        W 7447   0.869  11.732   5.287
37633W        W 7448  38.822  32.052  10.602
37634W        W 7449   2.899   8.882   0.782
37635W        W 7450  18.720  31.642   0.430
37636W        W 7451  42.416  15.770  13.360
37637W        W 7452  21.701  31.140  13.390
37638W        W 7453  21.264  39.000   4.616
37639W        W 7454   8.813  42.323   0.742
37640W        W 7455  30.144  42.002   3.799
37641W        W 7456  16.681  36.354   1.243
37642W        W 7457  22.702  18.135  12.042
37643W        W 7458   8.778  27.479   1.714
37644W        W 7459  39.316  19.541   1.822
37645W        W 7460  23.708  23.636  13.044
37646W        W 7461   0.340  33.431   2.404
37647W        W 7462  21.252  29.457   0.754
37648W        W 7463  25.519  16.686   1.427
37649W        W 7464  25.523  13.724   0.413
37650W        W 7465   8.744   6.813  11.462
37651W        W 7466   9.759  11.697   0.900
37652W        W 7467  12.736   8.775   4.303
37653W        W 7468  16.142  20.765   4.777
37654W        W 7469  16.809  25.583  14.809
37655W        W 7470   5.369  27.043  14.896
37656W        W 7471  20.547  10.339  13.548
37657W        W 7472  14.743  18.734   0.897
37658W        W 7473  17.178  16.604   2.309
37659W        W 7474  34.025  14.829   2.253
37660W        W 7475  14.205  21.664   0.737
37661W        W 7476  30.017  43.982  10.577
37662W        W 7477  29.108   8.810   3.819
37663W        W 7478  22.660   5.911  14.350
37664W        W 7479   4.738  36.874  14.438
37665W        W 7480   9.669  16.186  13.346
37666W        W 7481  35.995  44.278   0.358
37667W        W 7482  44.462  17.627   0.924
37668W        W 7483   4.827  29.931  12.066
37669W        W 7484  22.145  15.196   2.788
37670W        W 7485  27.965   2.290  14.762
37671W        W 7486  38.543  38.828   2.755
37672W        W 7487   8.754  11.261  12.928
37673W        W 7488  38.414  30.605   3.187
37674W        W 7489  12.680  27.593   0.805
37675W        W 7490   5.700   1.402  12.856
37676W        W 7491  29.969  36.412   3.854
37677W        W 7492  23.035  23.997   2.252
37678W        W 7493   4.857  37.536   1.223
37679W        W 7494  27.651  20.647   0.939
37680W        W 7495  17.641  21.135  10.957
37681W        W 7496  13.832  38.076   2.791
37682W        W 7497  42.304  43.946  14.815
37683W        W 7498  18.620  40.806  10.457
37684W        W 7499  34.037   9.317   1.320
37685W        W 7500  14.760  34.893  10.963
37686W        W 7501  33.085  33.466   4.345
37687W        W 7502  42.830   3.737  12.869
37688W        W 7503  44.330   1.385   0.751
37689W        W 7504  40.022  33.050   2.693
37690W        W 7505  30.145  29.051  10.466
37691W        W 7506   0.484   1.402   4.837
37692W        W 7507  41.874  18.592  11.855
37693W        W 7508   8.769   5.322   1.787
37694W        W 7509  21.096  36.435  12.946
37695W        W 7510   9.307   5.440   3.834
37696W        W 7511  37.376   3.815   3.152
37697W        W 7512   9.333  14.650   1.827
37698W        W 7513  44.857  38.498   1.328
37699W        W 7514  24.708   1.251  11.048
37700W        W 7515  36.935   1.840   1.854
37701W        W 7516  16.716  36.077  13.798
37702W        W 7517  22.650   2.247   1.437
37703W        W 7518   6.812  17.614  14.297
37704W        W 7519  22.075  24.184   2.316
37705W        W 7520  33.561  41.039   3.848
37706W        W 7521   3.783   1.453  14.909
37707W        W 7522  29.058  31.081   1.755
37708W        W 7523   2.741  25.631  10.545
37709W        W 7524   3.379  14.103   1.774
37710W        W 7525  22.148   8.873   1.220
37711W        W 7526  40.320  18.567  13.949
37712W        W 7527   9.779  11.868   3.314
37713W        W 7528   7.741  36.523  14.285
37714W        W 7529  34.955  27.166   3.658
37715W        W 7530  34.099   8.293  12.063
37716W        W 7531  43.779  27.154  12.489
37717W        W 7532  29.630  12.807   3.223
37718W        W 7533   8.688  41.976   2.858
37719W        W 7534  44.321  35.416  12.937
37720W        W 7535  26.075  14.823   3.850
37721W        W 7536   9.227   4.838   3.286
37722W        W 7537  16.253  19.091   1.832
37723W        W 7538  19.534  40.982  11.112
37724W        W 7539   4.328  38.897   1.386
37725W        W 7540  32.445  32.543   2.197
37726W        W 7541  30.136  13.163  13.307
37727W        W 7542  16.731  16.140  11.564
37728W        W 7543  22.242  18.679  13.424
37729W        W 7544  39.333  22.086  11.591
37730W        W 7545  15.309  24.082  13.936
37731W        W 7546   1.269   0.429  14.936
37732W        W 7547  33.505  43.952   1.252
37733W        W 7548  24.007  15.110   1.269
37734W        W 7549   6.215  43.974  11.938
37735W        W 7550  16.762  17.730   4.350
37736W        W 7551   2.330  42.440   1.433
37737W        W 7552  20.535  17.725  13.809
37738W        W 7553  22.704  22.086  12.442
37739W        W 7554   7.264  37.037   3.775
37740W        W 7555   2.784   7.779  12.887
37741W        W 7556  15.581  12.126  12.383
37742W        W 7557   4.399  35.583   1.431
37743W        W 7558  21.144  19.264  13.920
37744W        W 7559  11.829  21.238   2.779
37745W        W 7560  27.997  23.195  14.775
37746W        W 7561  12.684  13.767  14.760
37747W        W 7562  17.587  35.472  12.418
37748W        W 7563  36.093   5.439  14.913
37749W        W 7564  32.923   1.410  11.040
37750W        W 7565  25.212  32.572  14.902
37751W        W 7566   7.249  24.043  14.310
37752W        W 7567  39.513  30.052   4.746
37753W        W 7568  15.146  38.520   3.219
37754W        W 7569  25.607   4.247  11.919
37755W        W 7570  27.534  44.976   3.236
37756W        W 7571   1.785  27.001   1.445
37757W        W 7572   1.293  13.255   1.830
37758W        W 7573  32.969  36.098  13.515
37759W        W 7574  32.472  36.883   3.340
37760W        W 7575  29.537  16.757   1.298
37761W        W 7576  22.236  22.706   1.338
37762W        W 7577  40.956  16.603  11.488
37763W        W 7578  42.915   5.221  14.990
37764W        W 7579  36.062  11.291   2.887
37765W        W 7580  40.377  33.031  13.980
37766W        W 7581   6.292  44.000  11.497
37767W        W 7582  15.174  21.223   4.617
37768W        W 7583   7.719  36.534  13.404
37769W        W 7584  12.709  31.558  14.887
37770W        W 7585  10.260  17.139  14.401
37771W        W 7586  32.392  42.005  12.499
37772W        W 7587   7.797  21.734   3.171
37773W        W 7588  32.892  24.039   4.805
37774W        W 7589  34.922   7.769  10.582
37775W        W 7590  24.582  29.050  14.826
37776W        W 7591  21.738   9.697   4.133
37777W        W 7592  11.731  30.633   5.311
37778W        W 7593  23.027  14.320   0.324
37779W        W 7594   5.920  28.586  12.352
37780W        W 7595  38.530  41.404  12.902
37781W        W 7596  21.716  28.553   1.932
37782W        W 7597  10.641   5.918  14.465
37783W        W 7598  32.530  44.954  11.500
37784W        W 7599  44.276  41.345  11.100
37785W        W 7600   8.196  41.838   1.250
37786W        W 7601  23.693  43.827   2.811
37787W        W 7602   1.372  32.477   4.209
37788W        W 7603  26.199  31.501  10.995
37789W        W 7604  36.430   2.866   2.877
37790W        W 7605   7.226  44.474  14.875
37791W        W 7606  30.055   2.894   0.362
37792W        W 7607  34.456  24.533   2.252
37793W        W 7608   9.876  10.380   1.262
37794W        W 7609  11.670   9.652  12.353
37795W        W 7610  16.749   5.795   1.414
37796W        W 7611  26.018  27.992   4.334
37797W        W 7612  27.079   6.344   2.827
37798W        W 7613  31.114  37.064  13.989
37799W        W 7614  25.999  23.157  13.437
37800W        W 7615  25.034  29.101   0.947
37801W        W 7616   9.282  31.952  12.573
37802W        W 7617  11.859   8.175   0.345
37803W        W 7618  33.457  37.342  13.340
37804W        W 7619  37.563   8.385   4.632
37805W        W 7620  22.583  11.830   2.686
37806W        W 7621   9.827   5.195   2.693
37807W        W 7622  31.500   2.931  12.031
37808W        W 7623  42.423  19.660  11.859
37809W        W 7624  30.449  15.235  14.986
37810W        W 7625  41.804  18.610   4.664
37811W        W 7626  37.542  36.001  12.008
37812W        W 7627  41.797  27.993  13.796
37813W        W 7628  36.425  19.133   1.705
37814W        W 7629  16.101  18.120   0.440
37815W        W 7630  29.932  42.805  14.306
37816W        W 7631   5.223   9.332   2.862
37817W        W 7632  36.842  15.216   4.246
37818W        W 7633  32.937   3.341   1.723
37819W        W 7634  11.703  14.678   2.756
37820W        W 7635  21.118  13.285  11.603
37821W        W 7636  15.710  40.498   2.352
37822W        W 7637  30.591   4.269  14.398
37823W        W 7638   5.803  13.787   1.842
37824W        W 7639  18.241  21.187  10.622
37825W        W 7640  31.955   0.868  14.488
37826W        W 7641  30.130  39.389  10.532
37827W        W 7642  43.276   1.404   2.247
37828W        W 7643  35.602  36.425  14.277
37829W        W 7644  32.077  32.520   4.765
37830W        W 7645   5.435  24.148   4.164
37831W        W 7646   0.464  33.446  13.852
37832W        W 7647  15.209   6.408   0.851
37833W        W 7648  43.899   8.278  10.463
37834W        W 7649   2.872   1.752  14.928
37835W        W 7650   2.380  19.586   2.702
37836W        W 7651   0.430  17.124   3.696
37837W        W 7652  34.097   2.298  12.575
37838W        W 7653   7.801   4.368   0.313
37839W        W 7654  15.736  10.836   3.355
37840W        W 7655  27.505   3.907  12.424
37841W        W 7656  15.186  24.081   2.256
37842W        W 7657  43.878  42.375   0.897
37843W        W 7658  22.521   4.871  14.352
37844W        W 7659  10.275  23.210  11.903
37845W        W 7660  29.019   1.745   2.392
37846W        W 7661  21.513  38.494  13.793
37847W        W 7662  25.031   9.762   0.339
37848W        W 7663  38.546   2.307   0.248
37849W        W 7664  25.013  10.186  10.528
37850W        W 7665  38.494   4.799   0.889
37851W        W 7666  30.424  16.121  13.355
37852W        W 7667  24.627  15.086  12.443
37853W        W 7668   0.449   7.821   0.465
37854W        W 7669   9.196  28.108  11.411
37855W        W 7670  12.733  16.138  13.465
37856W        W 7671   4.382  11.792   3.242
37857W        W 7672  36.483  29.031   2.349
37858W        W 7673  40.954   2.907  13.883
37859W        W 7674   5.888  31.005  11.386
37860W        W 7675  34.921  27.479   1.376
37861W        W 7676   4.326   7.725   1.715
37862W        W 7677  31.984  43.304   0.381
37863W        W 7678  44.387  23.024  14.485
37864W        W 7679  36.526  12.284   0.394
37865W        W 7680  20.575   7.206   0.774
37866W        W 7681  17.699  10.859  14.991
37867W        W 7682  39.037   3.723  12.361
37868W        W 7683  35.954  23.640  12.908
37869W        W 7684  20.122  31.050   1.339
37870W        W 7685  10.211  33.532   3.149
37871W        W 7686  22.204  29.648   3.748
37872W        W 7687  16.611  22.678   2.417
37873W        W 7688  35.999  20.147  13.862
37874W        W 7689  31.482  35.869  14.495
37875W        W 7690  10.259   6.260   4.734
37876W        W 7691  26.548  21.594  11.102
37877W        W 7692  36.497  41.399   2.765
37878W        W 7693   6.815   4.343  13.357
37879W        W 7694   2.258  39.009  12.915
37880W        W 7695   7.785  16.576  14.985
37881W        W 7696   0.314  37.435   2.228
37882W        W 7697   6.286  44.373  14.916
37883W        W 7698   5.881   4.808  11.378
37884W        W 7699  26.461  32.994  13.823
37885W        W 7700  10.771  30.153   3.722
37886W        W 7701   4.717   7.831   3.214
37887W        W 7702   7.188  20.740  13.406
37888W        W 7703  25.112  38.425   4.257
37889W        W 7704  12.638  37.085   4.609
37890W        W 7705  38.821  41.959  11.609
37891W        W 7706  32.976  32.088   4.726
37892W        W 7707  26.958  27.973  10.597
37893W        W 7708  38.931  34.937  11.612
37894W        W 7709  35.026  10.671  12.830
37895W        W 7710   8.379  18.568  14.769
37896W        W 7711  26.990  10.313   2.817
37897W        W 7712  44.896  14.140   5.217
37898W        W 7713  27.981  20.207   0.946
37899W        W 7714  22.029  41.014  14.839
37900W        W 7715  38.986  12.817   0.808
37901W        W 7716  39.920  13.667  13.792
37902W        W 7717  43.379  22.618  10.030
37903W        W 7718   7.871  15.168  13.330
37904W        W 7719  32.563   0.382  11.097
37905W        W 7720  10.759  30.541   3.695
37906W        W 7721  27.036  43.382  13.377
37907W        W 7722  42.789  27.581   3.753
37908W        W 7723  20.555  12.354  14.944
37909W        W 7724   9.300  19.745   1.391
37910W        W 7725  22.108  13.153   0.298
37911W        W 7726  16.672  14.326  10.926
37912W        W 7727  43.458  14.606  12.462
37913W        W 7728   7.676   6.916  14.833
37914W        W 7729  16.599  44.823   4.223
37915W        W 7730  37.834  10.804  12.383
37916W        W 7731  26.004  34.602  11.855
37917W        W 7732  40.905  26.990   4.637
37918W        W 7733  43.824  10.326  12.485
37919W        W 7734  21.185   8.348  13.345
37920W        W 7735  15.715  27.504  13.884
37921W        W 7736  35.074   5.883  10.484
37922W        W 7737  14.819  19.623   3.263
37923W        W 7738  26.603  35.430  11.445
37924W        W 7739  41.516   7.395   0.846
37925W        W 7740  14.135  36.034  14.475
37926W        W 7741   0.820  18.558   0.775
37927W        W 7742   1.260  42.872   3.635
37928W        W 7743   9.216  33.385   4.295
37929W        W 7744  21.237  34.030   3.714
37930W        W 7745  20.726   4.756   2.336
37931W        W 7746  18.187  14.263   0.874
37932W        W 7747  37.980   2.395  11.077
37933W        W 7748  29.641   4.754   2.411
37934W        W 7749  26.489   2.836   2.860
37935W        W 7750   3.414  11.794  11.431
37936W        W 7751  30.450  28.618   2.882
37937W        W 7752  23.191  21.065   4.764
37938W        W 7753  44.417   3.921  13.047
37939W        W 7754  38.971  11.205  10.967
37940W        W 7755  27.686  32.470   2.296
37941W        W 7756  34.597   6.845   4.269
37942W        W 7757  33.447  22.055  12.943
37943W        W 7758  10.867  37.419  11.526
37944W        W 7759  31.917  23.099   3.816
37945W        W 7760  26.027   9.670   4.611
37946W        W 7761  11.854  39.960   4.658
37947W        W 7762  15.741  44.413  13.378
37948W        W 7763  23.009  12.638  12.970
37949W        W 7764  24.085  44.785  13.906
37950W        W 7765  18.639  10.664  14.873
37951W        W 7766  17.204  10.816  13.833
37952W        W 7767  36.504  18.636  12.550
37953W        W 7768  42.410  33.937   0.925
37954W        W 7769  22.249   5.357   0.959
37955W        W 7770  43.327  36.844  10.557
37956W        W 7771   8.173  26.029   1.840
37957W        W 7772  17.221  21.160  11.594
37958W        W 7773  28.460  11.283   2.824
37959W        W 7774   3.342  33.576  14.410
37960W        W 7775   2.858  11.832   1.855
37961W        W 7776  15.762  13.616   2.888
37962W        W 7777   2.412  21.210   5.285
37963W        W 7778   1.873  15.790   1.293
37964W        W 7779  16.772  12.798   1.850
37965W        W 7780  15.180  29.073   4.142
37966W        W 7781  43.301  18.168   1.251
37967W        W 7782  20.766   7.213   2.412
37968W        W 7783  42.416  37.046  14.935
37969W        W 7784   5.230  34.379   2.224
37970W        W 7785  40.901  34.016  12.494
37971W        W 7786   8.700  40.416   3.272
37972W        W 7787  28.082  20.697   3.174
37973W        W 7788  32.137  44.812  14.426
37974W        W 7789  28.063  28.949  14.292
37975W        W 7790   1.922  40.351   3.177
37976W        W 7791  37.868   5.245   4.223
37977W        W 7792  25.034   3.825  13.895
37978W        W 7793  37.021   6.335   0.792
37979W        W 7794   4.327  37.342   4.785
37980W        W 7795  26.168  10.190  10.047
37981W        W 7796  28.671   9.758   1.341
37982W        W 7797  25.135  27.529   2.407
37983W        W 7798  35.552  21.108   2.827
37984W        W 7799  26.086   1.283   2.236
37985W        W 7800  12.142  32.488   1.828
37986W        W 7801  15.177  43.440   0.254
37987W        W 7802   3.234  32.420   2.893
37988W        W 7803   5.856  28.481  14.913
37989W        W 7804  34.554  13.811   1.380
37990W        W 7805  42.294  40.487   3.221
37991W        W 7806  18.209   0.432   2.331
37992W        W 7807  15.103  13.131   2.340
37993W        W 7808  33.902  17.678  14.318
37994W        W 7809  23.235  16.586   2.360
37995W        W 7810  35.398  43.996   3.665
37996W        W 7811  38.050  14.263  14.347
37997W        W 7812  21.254  26.568  11.083
37998W        W 7813  38.855  12.629   1.354
37999W        W 7814  37.387  44.321   3.700
38000W        W 7815  20.608  44.331  14.433
38001W        W 7816  15.598   1.908   3.375
38002W        W 7817  31.613  42.910  12.091
38003W        W 7818  44.349   6.303   2.725
38004W        W 7819   4.239  14.729   1.427
38005W        W 7820   3.289   9.278   2.861
38006W        W 7821   7.353  28.941  11.892
38007W        W 7822  25.004   5.260  10.441
38008W        W 7823  11.628  12.843   4.815
38009W        W 7824  39.829  16.306   4.122
38010W        W 7825   3.936  25.657  11.485
38011W        W 7826  35.466   0.885   0.359
38012W        W 7827  39.432   5.740  14.907
38013W        W 7828  26.188  44.981  12.034
38014W        W 7829  34.011  21.630   1.885
38015W        W 7830  10.322  42.403   3.201
38016W        W 7831  24.989  28.518   0.807
38017W        W 7832  43.777  29.949   0.325
38018W        W 7833   7.353   4.880   4.734
38019W        W 7834  30.656  19.047   0.448
38020W        W 7835  43.843  42.468   0.426
38021W        W 7836   7.782   3.228  12.881
38022W        W 7837  19.554  39.970  10.532
38023W        W 7838   9.806  39.409   2.878
38024W        W 7839  27.460  20.097  12.081
38025W        W 7840  28.160  41.861   3.235
38026W        W 7841  19.187  40.511   0.876
38027W        W 7842  23.022  31.060  11.067
38028W        W 7843   5.771  25.637   4.302
38029W        W 7844   0.874  29.424  12.475
38030W        W 7845   8.861  23.690  11.522
38031W        W 7846  24.121  25.104   1.353
38032W        W 7847  41.996  16.116  14.440
38033W        W 7848  33.070  18.263  12.378
38034W        W 7849  35.358  25.648   4.678
38035W        W 7850  14.289  20.663  14.373
38036W        W 7851  37.980  43.422   1.700
38037W        W 7852  20.048  29.524   1.711
38038W        W 7853   8.389  27.618   3.232
38039W        W 7854  41.468  21.595   0.854
38040W        W 7855   4.250  23.733  13.925
38041W        W 7856  35.913  22.142  14.930
38042W        W 7857   8.282  24.107  12.086
38043W        W 7858  37.372  35.071   4.288
38044W        W 7859  15.638  15.636  11.503
38045W        W 7860   6.420  18.641   3.297
38046W        W 7861  25.107  12.692  14.504
38047W        W 7862  32.478   6.410  11.924
38048W        W 7863   5.347  41.352   2.211
38049W        W 7864  10.693   1.844  13.455
38050W        W 7865  30.919  42.889   9.971
38051W        W 7866  15.307  27.186   1.932
38052W        W 7867  38.438  43.507  13.803
38053W        W 7868  43.888  34.434  14.785
38054W        W 7869  12.287  25.215   2.224
38055W        W 7870  25.480   1.316   0.352
38056W        W 7871  36.441   2.385   1.284
38057W        W 7872  29.500  13.246   2.881
38058W        W 7873  14.255   9.833   3.167
38059W        W 7874  36.905  11.222   2.740
38060W        W 7875  37.029  22.230  13.875
38061W        W 7876  26.105  20.081  10.549
38062W        W 7877  38.076   7.682  10.067
38063W        W 7878  39.062  14.634   4.324
38064W        W 7879  41.934  31.631  13.394
38065W        W 7880  12.176  38.454   0.800
38066W        W 7881  31.134  14.665   3.258
38067W        W 7882  16.666  15.253  10.473
38068W        W 7883  11.354  37.508  10.934
38069W        W 7884   3.877  37.425  13.015
38070W        W 7885  35.427   3.846  13.382
38071W        W 7886  42.333   2.229  12.002
38072W        W 7887   2.806   4.385  10.561
38073W        W 7888  26.065  22.160  12.015
38074W        W 7889  36.851  27.668   0.727
38075W        W 7890  22.652  43.013  12.547
38076W        W 7891  29.139  25.692   3.719
38077W        W 7892   8.818  44.978   4.117
38078W        W 7893   4.813   8.679  10.606
38079W        W 7894  13.309  37.370   0.851
38080W        W 7895   9.204   7.177   1.701
38081W        W 7896  33.057  24.569   2.745
38082W        W 7897  32.462  14.683  13.358
38083W        W 7898  44.465  31.150   2.215
38084W        W 7899  29.922  29.629   2.339
38085W        W 7900  27.059  18.293   3.654
38086W        W 7901  14.733  23.492   2.288
38087W        W 7902  38.528  24.229  14.488
38088W        W 7903  34.062  31.592  12.076
38089W        W 7904  30.455   7.228  11.571
38090W        W 7905  36.010   5.693   1.831
38091W        W 7906   6.893   4.258   4.632
38092W        W 7907  24.478  11.666   1.781
38093W        W 7908  14.301  38.062  14.885
38094W        W 7909  10.797  35.926   3.864
38095W        W 7910   4.775  31.524   1.745
38096W        W 7911   1.872  17.174   1.924
38097W        W 7912  12.689   9.226   3.820
38098W        W 7913  21.568   7.721  11.415
38099W        W 7914   2.280  19.657  13.462
38100W        W 7915   8.396   4.242   3.868
38101W        W 7916  23.733  12.218   2.692
38102W        W 7917   2.809  44.320  10.970
38103W        W 7918  19.757  27.450  14.910
38104W        W 7919  40.958  12.796  10.594
38105W        W 7920   0.248  38.947   1.243
38106W        W 7921  26.200  28.497  14.847
38107W        W 7922  12.322   7.340   4.737
38108W        W 7923  35.412   7.781  11.012
38109W        W 7924  43.784  30.093   0.887
38110W        W 7925  38.838   6.214  11.485
38111W        W 7926  34.435   7.744   3.352
38112W        W 7927   5.843  22.197  14.959
38113W        W 7928  28.169  38.485   0.311
38114W        W 7929  39.986   0.278   0.417
38115W        W 7930   3.409  17.158   5.116
38116W        W 7931  24.017  20.040  11.463
38117W        W 7932  23.185  34.406  12.997
38118W        W 7933  36.521   0.890   4.818
38119W        W 7934   9.726  33.073   4.186
38120W        W 7935  39.816  33.042  12.064
38121W        W 7936  31.091  44.352   3.734
38122W        W 7937   0.475  21.739  11.402
38123W        W 7938  22.537  25.589  14.980
38124W        W 7939  25.487  44.329  14.342
38125W        W 7940  39.964  15.608  13.330
38126W        W 7941  19.686  33.544  11.914
38127W        W 7942  29.442  36.007  14.426
38128W        W 7943  37.501  34.435  14.395
38129W        W 7944   8.741  19.606   4.792
38130W        W 7945  13.628  24.116  12.995
38131W        W 7946  21.513  34.993  14.900
38132W        W 7947   7.354   6.895  11.566
38133W        W 7948  14.755  38.479   3.637
38134W        W 7949   3.814  33.460  14.010
38135W        W 7950  42.456  30.065   0.278
38136W        W 7951  36.445  37.449  11.102
38137W        W 7952  43.340  37.415   2.849
38138W        W 7953  35.419  25.518   2.285
38139W        W 7954   3.818  19.559  11.893
38140W        W 7955  21.235  21.113  12.969
38141W        W 7956  41.852  13.119   2.416
38142W        W 7957  22.588  30.427  14.927
38143W        W 7958   7.270  41.378   5.729
38144W        W 7959  13.623  30.940  10.982
38145W        W 7960  21.130  22.093  13.469
38146W        W 7961  19.260  44.847   4.276
38147W        W 7962   7.822  34.004  14.369
38148W        W 7963  38.491  42.462  11.546
38149W        W 7964  31.063   6.840  14.301
38150W        W 7965  39.992   8.228  13.035
38151W        W 7966   3.266  29.172  12.023
38152W        W 7967  16.134  20.142  11.462
38153W        W 7968  41.022  16.667   2.401
38154W        W 7969  41.335  12.742  11.956
38155W        W 7970   7.820  15.089   3.343
38156W        W 7971  21.674  27.447   1.448
38157W        W 7972  42.349   9.339  13.415
38158W        W 7973  44.397  40.405  13.907
38159W        W 7974  42.380  44.428   2.340
38160W        W 7975  33.890  10.769  13.316
38161W        W 7976  27.074  13.757   4.260
38162W        W 7977   5.426  44.818  13.805
38163W        W 7978  34.431  13.652  11.495
38164W        W 7979  44.266  10.877  13.492
38165W        W 7980  10.304  25.524   4.693
38166W        W 7981  20.158   3.264   4.609
38167W        W 7982  37.912  42.392   0.920
38168W        W 7983  30.963  19.551   0.314
38169W        W 7984   3.300   0.466  12.578
38170W        W 7985  24.697  10.195  13.349
38171W        W 7986  35.518   5.212  13.877
38172W        W 7987   3.217   7.870  11.457
38173W        W 7988  25.032  37.883   4.121
38174W        W 7989  39.963  37.483  11.095
38175W        W 7990  38.377  13.818  10.585
38176W        W 7991  39.479   0.987  10.017
38177W        W 7992  18.563  27.494  12.848
38178W        W 7993  22.648  27.577  13.012
38179W        W 7994  24.073  20.753  11.946
38180W        W 7995  31.953  37.415  13.861
38181W        W 7996   0.899  32.447   1.443
38182W        W 7997  40.005  22.512   1.909
38183W        W 7998  31.032   5.252  12.831
38184W        W 7999  34.519  12.761   4.178
38185W        W 8000  39.389   8.266   0.781
38186W        W 8001  15.806  30.480  10.082
38187W        W 8002   6.836  16.078  13.494
38188W        W 8003   3.454  25.204   3.294
38189W        W 8004  32.574  14.690  13.060
38190W        W 8005   4.210   5.894   0.484
38191W        W 8006  23.108  41.832  10.631
38192W        W 8007  15.168  31.919   4.741
38193W        W 8008  12.675  19.056  14.988
38194W        W 8009  20.249  42.901  10.503
38195W        W 8010   9.316   5.714  12.470
38196W        W 8011  10.308  40.431   3.325
38197W        W 8012  19.240  33.882  11.912
38198W        W 8013  11.682  15.669   2.691
38199W        W 8014  22.622  35.380   4.213
38200W        W 8015  43.880  30.514  11.486
38201W        W 8016  17.127  23.235   3.245
38202W        W 8017  24.543  12.272  12.502
38203W        W 8018  28.085  26.477  14.499
38204W        W 8019   5.233  23.517   0.757
38205W        W 8020  17.567  13.110  14.281
38206W        W 8021  30.914   5.895   1.753
38207W        W 8022  24.598  29.632  12.458
38208W        W 8023  29.070  29.658   2.309
38209W        W 8024  40.967  44.279  12.451
38210W        W 8025  15.269  16.573   2.274
38211W        W 8026   8.895  20.096   1.762
38212W        W 8027  42.971  10.189   0.798
38213W        W 8028  28.526   6.335  10.499
38214W        W 8029   9.377  25.598   1.388
38215W        W 8030  27.621  19.060   0.949
38216W        W 8031  35.969  36.378   2.782
38217W        W 8032  42.367  11.762  12.491
38218W        W 8033  14.685  28.561   0.862
38219W        W 8034   7.781  33.466  14.943
38220W        W 8035   2.424  39.869   2.896
38221W        W 8036  35.366  33.404  11.494
38222W        W 8037  24.026   3.924   1.220
38223W        W 8038  28.528  11.640   5.723
38224W        W 8039  19.101  18.105  10.408
38225W        W 8040  29.568  13.667   2.774
38226W        W 8041  25.604  13.334   2.293
38227W        W 8042  11.737   7.217   5.263
38228W        W 8043  37.552  12.750  10.554
38229W        W 8044  28.085  39.950  13.003
38230W        W 8045   3.283  36.956  10.943
38231W        W 8046   1.352  44.872   3.279
38232W        W 8047  24.563  17.776   9.955
38233W        W 8048  43.875   8.223   4.602
38234W        W 8049  34.112  39.353   2.777
38235W        W 8050   5.833  37.484  12.357
38236W        W 8051  36.061  20.600  13.882
38237W        W 8052  14.682  12.718   2.295
38238W        W 8053   2.947   9.149   4.683
38239W        W 8054  20.692  13.325  14.791
38240W        W 8055  31.468  22.702  12.870
38241W        W 8056  20.558  32.543   2.265
38242W        W 8057  13.240  33.938  14.838
38243W        W 8058   0.927   8.819   5.282
38244W        W 8059  34.450  18.647  12.948
38245W        W 8060  16.095  20.113  10.528
38246W        W 8061  28.575  32.133  13.501
38247W        W 8062   7.230  33.432  11.486
38248W        W 8063   5.242  15.111  14.823
38249W        W 8064  41.450   5.311  10.471
38250W        W 8065  10.677  43.910   1.713
38251W        W 8066  41.374  13.332   2.749
38252W        W 8067  25.643  24.498   1.766
38253W        W 8068  33.944   2.366  11.067
38254W        W 8069  22.717  12.289  13.456
38255W        W 8070  36.491  27.115  11.384
38256W        W 8071  35.420  13.331  11.881
38257W        W 8072  33.021   7.290   3.806
38258W        W 8073  16.743  33.940   4.758
38259W        W 8074   9.187   7.844  14.338
38260W        W 8075  11.771  15.783   1.712
38261W        W 8076  23.035  23.661  11.386
38262W        W 8077   6.749  33.405   0.930
38263W        W 8078  36.353  14.649   2.195
38264W        W 8079  10.677  14.722   0.784
38265W        W 8080  27.583  24.228  11.531
38266W        W 8081  39.017  15.280   0.833
38267W        W 8082  41.955  21.682  10.452
38268W        W 8083  37.903  40.314  14.364
38269W        W 8084  40.385  30.950   4.819
38270W        W 8085  15.796   1.425  11.524
38271W        W 8086  26.101  30.138  13.505
38272W        W 8087  25.677  42.874  12.363
38273W        W 8088  27.685  36.478  13.943
38274W        W 8089  26.522   7.840  14.955
38275W        W 8090  21.082  23.153  14.943
38276W        W 8091  43.884  22.100   2.791
38277W        W 8092  33.599  10.167   5.320
38278W        W 8093   8.746  11.320  14.431
38279W        W 8094   7.258  13.631  14.357
38280W        W 8095  20.625  36.086   0.766
38281W        W 8096  25.164  39.858  13.536
38282W        W 8097  33.948   4.353   0.892
38283W        W 8098  16.756  11.293  12.981
38284W        W 8099  14.714  32.945  10.405
38285W        W 8100   2.331  41.321   0.401
38286W        W 8101  19.679  11.355  14.893
38287W        W 8102  20.243  25.663  13.802
38288W        W 8103   0.449  27.061  11.532
38289W        W 8104  28.966  29.014   0.324
38290W        W 8105  35.526  16.192  13.538
38291W        W 8106  43.330   2.308   4.234
38292W        W 8107  33.021  11.323   1.214
38293W        W 8108  36.084  14.605   4.216
38294W        W 8109   9.182   4.785   4.269
38295W        W 8110  38.371  43.426  12.380
38296W        W 8111   6.818  35.572  13.980
38297W        W 8112  34.551   8.189   4.693
38298W        W 8113   8.221  29.519  11.929
38299W        W 8114  25.591  37.027   4.352
38300W        W 8115   3.948  18.575  11.431
38301W        W 8116  21.217  16.781  14.939
38302W        W 8117  12.215   9.372  10.933
38303W        W 8118  43.961  30.649  10.964
38304W        W 8119  36.574  20.523  11.078
38305W        W 8120  33.391   9.182  13.467
38306W        W 8121   3.314   3.783  14.800
38307W        W 8122  35.951  16.112   0.813
38308W        W 8123  38.029  33.499   2.283
38309W        W 8124  20.740  13.125   4.726
38310W        W 8125  14.262   2.815   3.731
38311W        W 8126  27.958  11.308   0.773
38312W        W 8127   9.206  28.577   4.289
38313W        W 8128   9.808   3.425  12.872
38314W        W 8129  18.592  17.642   0.476
38315W        W 8130  19.659  22.206   1.313
38316W        W 8131  42.002  30.035  11.592
38317W        W 8132  35.960  11.733  11.125
38318W        W 8133  44.799  26.677   1.286
38319W        W 8134  28.479   8.691  14.462
38320W        W 8135  10.377  40.423   1.867
38321W        W 8136   3.268  27.527  11.589
38322W        W 8137  43.483   7.241  11.893
38323W        W 8138   1.933   4.777   0.891
38324W        W 8139  40.809   0.437   2.741
38325W        W 8140  26.702  29.118   1.887
38326W        W 8141  37.917   4.299  14.463
38327W        W 8142  17.097  34.612  13.341
38328W        W 8143  41.422  31.003  12.038
38329W        W 8144  39.452  36.975  14.310
38330W        W 8145  15.107  44.493   3.752
38331W        W 8146  22.735  25.067   4.267
38332W        W 8147  21.038  20.087  14.878
38333W        W 8148  44.501  41.847  14.317
38334W        W 8149  18.647  11.332  10.556
38335W        W 8150  34.080   2.235  12.015
38336W        W 8151  39.891  40.811  13.842
38337W        W 8152   2.937  35.856   1.844
38338W        W 8153   2.850   4.938  14.969
38339W        W 8154  17.618  35.088   2.731
38340W        W 8155  11.132  42.521  10.464
38341W        W 8156  17.741  27.957   4.732
38342W        W 8157  16.790  17.713  14.951
38343W        W 8158  38.990  28.955  12.521
38344W        W 8159  41.350  32.412  11.987
38345W        W 8160  44.384  24.642  13.320
38346W        W 8161  39.417   0.420   4.605
38347W        W 8162   2.462   7.889   0.347
38348W        W 8163  26.535  37.359   2.319
38349W        W 8164  44.499  11.245   3.363
38350W        W 8165  15.171  30.509  11.478
38351W        W 8166   8.836   4.437   2.826
38352W        W 8167  26.077  26.663   1.935
38353W        W 8168  18.767  23.556   4.744
38354W        W 8169  11.638  26.643  14.907
38355W        W 8170  17.205   0.909  14.843
38356W        W 8171   5.346  17.171   2.321
38357W        W 8172  17.606  35.492   2.251
38358W        W 8173  29.938  23.540  13.979
38359W        W 8174  42.014   7.236   2.309
38360W        W 8175   4.760  31.478  10.419
38361W        W 8176   1.757  40.544  12.492
38362W        W 8177   3.368  30.138  10.896
38363W        W 8178  21.093  33.625  14.914
38364W        W 8179  35.550   2.752  11.374
38365W        W 8180  18.595  43.448   2.245
38366W        W 8181  41.523  13.836  11.423
38367W        W 8182  31.127   4.921  10.912
38368W        W 8183  26.040  39.512  14.018
38369W        W 8184   8.366  19.133  12.501
38370W        W 8185   2.829  36.880   3.857
38371W        W 8186  36.440  40.410   4.178
38372W        W 8187  14.600  37.412  11.381
38373W        W 8188   6.319  44.314   2.315
38374W        W 8189   2.928  44.888   1.857
38375W        W 8190   7.201  43.874  13.376
38376W        W 8191  43.469  19.762   4.779
38377W        W 8192  42.419  32.928  14.293
38378W        W 8193  39.414  33.976   2.842
38379W        W 8194   4.731  32.010   4.133
38380W        W 8195  16.777   4.850   2.754
38381W        W 8196  44.829  43.370  12.366
38382W        W 8197  14.821   3.412   2.823
38383W        W 8198  19.595  27.473   2.787
38384W        W 8199  29.431  38.839  11.537
38385W        W 8200  40.434  28.586  14.436
38386W        W 8201   3.309  42.525   9.942
38387W        W 8202  24.478  35.406   4.332
38388W        W 8203  20.732   7.799   4.207
38389W        W 8204   8.378  13.230   1.817
38390W        W 8205   6.793  30.432  11.961
38391W        W 8206  25.088   2.452   4.697
38392W        W 8207  38.886   6.292   1.292
38393W        W 8208  34.068  30.081  14.934
38394W        W 8209  43.390  13.740  11.070
38395W        W 8210  22.510  38.984   2.269
38396W        W 8211  44.355  30.602   1.893
38397W        W 8212  32.582  18.687  12.058
38398W        W 8213  29.077   2.228   2.710
38399W        W 8214  34.081  16.089  10.624
38400W        W 8215   2.250  42.474   3.341
38401W        W 8216  15.180  18.193   0.470
38402W        W 8217  42.469  17.612   3.203
38403W        W 8218  42.320   5.360  10.518
38404W        W 8219   2.349  24.495   3.860
38405W        W 8220  42.001  25.575   0.477
38406W        W 8221  13.130   6.381   2.787
38407W        W 8222  36.099  26.484  13.045
38408W        W 8223  40.934  37.336   5.231
38409W        W 8224  26.481  11.216   4.223
38410W        W 8225  10.384   2.862  13.907
38411W        W 8226  28.179  33.091  14.879
38412W        W 8227  29.037   8.770  14.794
38413W        W 8228  43.385  29.577   1.760
38414W        W 8229   9.234   6.787   4.717
38415W        W 8230  17.192   2.838  10.621
38416W        W 8231   8.215  34.548   3.173
38417W        W 8232  21.100  42.463  13.399
38418W        W 8233   0.316  16.153  14.280
38419W        W 8234   8.713   8.247   4.158
38420W        W 8235  15.092  44.350  13.909
38421W        W 8236  27.649  19.149   2.790
38422W        W 8237  14.147  23.734   2.839
38423W        W 8238   4.289  33.439  10.632
38424W        W 8239   9.364  12.328   3.147
38425W        W 8240  17.620  37.943  10.428
38426W        W 8241  10.165  17.698   0.474
38427W        W 8242  28.488  31.094  11.387
38428W        W 8243  15.134  33.082  12.517
38429W        W 8244  11.789  35.511   3.196
38430W        W 8245  43.417   3.223  10.526
38431W        W 8246  41.440  19.542  12.999
38432W        W 8247  10.690  24.100  10.134
38433W        W 8248  39.819   9.857   4.680
38434W        W 8249  23.712  27.508  10.582
38435W        W 8250  11.746   1.437  14.997
38436W        W 8251  39.846  32.495  12.478
38437W        W 8252  11.307  11.671  14.985
38438W        W 8253  39.987  28.505   3.870
38439W        W 8254  28.649  14.683   2.881
38440W        W 8255   8.770  40.813  12.040
38441W        W 8256  38.351  28.134   4.118
38442W        W 8257   7.838  26.568   1.752
38443W        W 8258  20.700  24.980  13.338
38444W        W 8259  24.189  29.477   3.340
38445W        W 8260   2.420  27.943  14.934
38446W        W 8261  35.001   8.715   3.791
38447W        W 8262  38.551  37.064   2.251
38448W        W 8263  19.058  35.093   1.788
38449W        W 8264   5.872  15.244   2.750
38450W        W 8265  21.713  37.868  13.500
38451W        W 8266  28.498  15.666   4.709
38452W        W 8267   0.431   3.799   3.742
38453W        W 8268   6.708  41.888  13.486
38454W        W 8269  41.371  26.510  14.773
38455W        W 8270  28.490  19.230   2.846
38456W        W 8271  24.608  18.240   2.247
38457W        W 8272  37.865  38.039   3.322
38458W        W 8273   4.271   4.722   3.215
38459W        W 8274  20.579  31.432  10.529
38460W        W 8275   9.785  20.617  11.857
38461W        W 8276  21.666  25.165  10.911
38462W        W 8277  31.910  28.998   3.316
38463W        W 8278  11.625   7.782  14.909
38464W        W 8279  20.051  21.156   4.747
38465W        W 8280  22.647   3.215   3.834
38466W        W 8281  43.467  17.572   4.726
38467W        W 8282  42.429  13.640   5.184
38468W        W 8283  29.522   6.787   4.628
38469W        W 8284   0.323   7.358  11.548
38470W        W 8285  42.830  41.878  11.914
38471W        W 8286   6.897  42.459  13.326
38472W        W 8287  42.458  33.612  13.955
38473W        W 8288  11.758  14.655  12.424
38474W        W 8289  44.909  39.953  14.299
38475W        W 8290  26.628  30.921   3.152
38476W        W 8291  14.823   3.781   1.904
38477W        W 8292   9.311  27.601   0.285
38478W        W 8293  13.243  10.874  11.381
38479W        W 8294   6.790  24.149   1.242
38480W        W 8295  12.614  18.176  13.384
38481W        W 8296  39.904  23.518   2.332
38482W        W 8297  37.414  30.019   4.151
38483W        W 8298  12.703  35.885   1.323
38484W        W 8299  37.853   4.246   1.921
38485W        W 8300  19.146  24.512  10.625
38486W        W 8301  39.869   4.800  14.430
38487W        W 8302  43.280  26.524  13.859
38488W        W 8303  14.135  38.905   2.791
38489W        W 8304   3.759  40.816  14.998
38490W        W 8305   6.770  41.844   5.239
38491W        W 8306  21.132  26.460   0.480
38492W        W 8307  30.137  39.985  12.414
38493W        W 8308  41.919  32.506   2.856
38494W        W 8309  24.529  15.111   3.752
38495W        W 8310   1.256  40.437  12.954
38496W        W 8311  18.788  15.611   3.647
38497W        W 8312   4.836  10.163  11.925
38498W        W 8313  25.168  20.688   2.226
38499W        W 8314  19.770   8.322   1.447
38500W        W 8315  21.175  44.849  12.517
38501W        W 8316  39.906  14.129  10.035
38502W        W 8317  19.070   0.952   5.088
38503W        W 8318  44.862  30.114  14.455
38504W        W 8319  15.235  20.576  13.405
38505W        W 8320  39.538   1.250  12.559
38506W        W 8321  17.748  38.519  11.989
38507W        W 8322  10.292  14.175  11.588
38508W        W 8323   6.334  39.395  10.607
38509W        W 8324  26.145   4.367  10.962
38510W        W 8325  17.196  28.145   4.734
38511W        W 8326  18.189  30.649   2.310
38512W        W 8327  17.575  37.901  11.396
38513W        W 8328  18.122  36.489  14.806
38514W        W 8329  20.547  27.941  10.562
38515W        W 8330  32.964  10.879   2.835
38516W        W 8331  44.314  24.051  14.440
38517W        W 8332  22.158  14.818   3.297
38518W        W 8333   9.343  14.758  13.414
38519W        W 8334  33.584   1.785  14.307
38520W        W 8335  40.942  29.043  12.938
38521W        W 8336   4.286   5.387   2.203
38522W        W 8337  43.969  24.159  14.344
38523W        W 8338  34.985  34.450  14.310
38524W        W 8339  12.232  10.730  12.462
38525W        W 8340  35.880  39.908  12.358
38526W        W 8341  40.399   6.774  13.451
38527W        W 8342  16.590  43.361   4.715
38528W        W 8343   4.247  34.909  14.503
38529W        W 8344  21.620  32.943  12.929
38530W        W 8345   2.441  20.053   1.397
38531W        W 8346  32.104  42.981  12.574
38532W        W 8347  18.556  30.540   2.776
38533W        W 8348   1.444  18.113  12.835
38534W        W 8349  10.178   2.959  11.992
38535W        W 8350  25.582  17.238  12.978
38536W        W 8351   6.383   8.351  11.551
38537W        W 8352   8.193  22.143   1.897
38538W        W 8353  37.356  32.599   3.265
38539W        W 8354  43.868  10.192   3.196
38540W        W 8355  11.357  22.217   4.155
38541W        W 8356  25.998  27.159   2.877
38542W        W 8357  42.495  34.024   3.211
38543W        W 8358  14.210   8.786  11.467
38544W        W 8359  42.779  10.825  13.527
38545W        W 8360  36.843   1.920   0.910
38546W        W 8361  35.510   6.684  14.274
38547W        W 8362  33.068  32.912  13.012
38548W        W 8363   1.973  15.184   3.252
38549W        W 8364  19.566  43.321   4.724
38550W        W 8365  11.639  40.040  10.546
38551W        W 8366  28.938  43.777   0.947
38552W        W 8367  34.371  22.117   4.174
38553W        W 8368  24.645   5.890  12.566
38554W        W 8369  17.587  10.639  14.000
38555W        W 8370  29.586  13.606  13.029
38556W        W 8371  41.813  34.539   1.895
38557W        W 8372  24.554  40.815   2.823
38558W        W 8373   8.290   1.817  13.045
38559W        W 8374   8.188   7.297  11.569
38560W        W 8375   4.866  25.678  10.923
38561W        W 8376  25.560   7.293   1.262
38562W        W 8377  41.395  44.321  14.773
38563W        W 8378  26.980  25.111  13.797
38564W        W 8379  11.180  21.517   3.822
38565W        W 8380  44.453  32.925   2.796
38566W        W 8381   6.815   3.275   0.376
38567W        W 8382  34.477  19.745   2.804
38568W        W 8383   3.307   9.770   2.841
38569W        W 8384  42.991  29.944   2.880
38570W        W 8385  30.081  41.420  11.512
38571W        W 8386   4.293  40.483   2.349
38572W        W 8387  22.205  24.042  13.836
38573W        W 8388   2.895  44.973  11.894
38574W        W 8389  23.033  26.952   1.397
38575W        W 8390  30.128  34.425  11.940
38576W        W 8391  28.439  22.053  12.839
38577W        W 8392   9.857   6.386  14.938
38578W        W 8393  16.638  42.932   4.636
38579W        W 8394  13.177  10.239   4.295
38580W        W 8395   4.212  19.172   0.423
38581W        W 8396  14.731  26.116  13.395
38582W        W 8397   3.841  30.989   2.677
38583W        W 8398  20.131  36.458  14.986
38584W        W 8399  25.550  32.424  14.979
38585W        W 8400  21.221  20.576  14.480
38586W        W 8401   9.714  13.163  10.590
38587W        W 8402  15.221  32.468  13.371
38588W        W 8403  41.840   5.436   1.874
38589W        W 8404  27.003  37.543  13.397
38590W        W 8405   3.333  35.994  11.987
38591W        W 8406  14.694  12.795   2.709
38592W        W 8407   4.772  41.026   2.232
38593W        W 8408  33.404   8.216  13.893
38594W        W 8409  35.375  14.119  12.977
38595W        W 8410   6.805  10.380  12.017
38596W        W 8411  31.081  16.197  12.344
38597W        W 8412  15.816   8.804  13.029
38598W        W 8413  32.617  23.995   1.791
38599W        W 8414  31.122  25.533   1.846
38600W        W 8415   2.899   6.200  11.060
38601W        W 8416  15.598  26.111   0.796
38602W        W 8417  16.087  44.792   1.707
38603W        W 8418  38.327  13.624   4.348
38604W        W 8419   3.770  12.850  13.963
38605W        W 8420  37.901  18.658  12.890
38606W        W 8421  43.366   0.859  12.082
38607W        W 8422  17.642  38.488   3.193
38608W        W 8423  18.166  42.322   4.325
38609W        W 8424  22.593  30.485  11.869
38610W        W 8425   7.387  33.566   2.849
38611W        W 8426  12.727  24.683   3.633
38612W        W 8427  16.152  29.130   0.957
38613W        W 8428  28.112  19.595  14.029
38614W        W 8429   9.188  16.154   2.271
38615W        W 8430   0.932  10.220   0.297
38616W        W 8431   4.734  24.120   4.649
38617W        W 8432  12.615  37.975   0.887
38618W        W 8433  44.329  41.474   4.176
38619W        W 8434  14.225  25.006  14.493
38620W        W 8435  33.935  39.413   3.238
38621W        W 8436  21.047  28.998   1.786
38622W        W 8437  18.100  41.369   4.203
38623W        W 8438  22.534  37.398  10.607
38624W        W 8439  27.593  32.010  13.878
38625W        W 8440  29.518   6.282   5.186
38626W        W 8441  34.005   7.824  12.546
38627W        W 8442   1.734  36.507  13.320
38628W        W 8443   0.303  32.949   3.323
38629W        W 8444  27.046  26.626   4.750
38630W        W 8445  36.870  13.238   2.663
38631W        W 8446  41.396  39.008  14.447
38632W        W 8447  41.489  38.848  12.468
38633W        W 8448  25.181   9.371   4.309
38634W        W 8449  44.930  28.475   3.853
38635W        W 8450  19.587   1.407   3.713
38636W        W 8451  24.212  25.622   0.834
38637W        W 8452  30.522  39.541  11.577
38638W        W 8453   0.341  34.956   4.236
38639W        W 8454   5.895  27.084  12.973
38640W        W 8455   1.799   1.453   2.754
38641W        W 8456  13.690  16.132   0.771
38642W        W 8457  23.593   8.690  12.372
38643W        W 8458  20.635   6.372   3.840
38644W        W 8459   1.249  38.370  13.024
38645W        W 8460  23.543  28.034  14.930
38646W        W 8461   3.318   3.272  11.116
38647W        W 8462   1.828  31.979   1.221
38648W        W 8463  29.104   3.436  11.462
38649W        W 8464  36.013   3.412   3.273
38650W        W 8465  22.508  23.720  14.947
38651W        W 8466  24.205   1.877   1.289
38652W        W 8467  27.515  35.548  10.925
38653W        W 8468  37.490  24.581   0.910
38654W        W 8469  24.542  42.291  13.979
38655W        W 8470   0.397  16.730   2.707
38656W        W 8471  26.965  25.967  10.900
38657W        W 8472   9.176   2.895  10.912
38658W        W 8473   6.891  36.554  12.004
38659W        W 8474  34.985  35.953   3.766
38660W        W 8475   6.224  33.520   4.667
38661W        W 8476  35.093   6.715  11.479
38662W        W 8477  11.199   4.862   1.847
38663W        W 8478   6.803  20.579  11.091
38664W        W 8479  10.634   6.754   3.646
38665W        W 8480  28.027  42.367   3.823
38666W        W 8481   1.330   3.725  14.507
38667W        W 8482  23.584  26.051  13.532
38668W        W 8483  17.700  39.883  12.091
38669W        W 8484   7.754  22.199   0.476
38670W        W 8485  29.526  43.899  12.016
38671W        W 8486  29.008   1.762  14.893
38672W        W 8487  32.041  20.060   0.851
38673W        W 8488  44.830  35.545  12.940
38674W        W 8489  33.580  10.344   0.453
38675W        W 8490  41.896  17.730   0.779
38676W        W 8491  24.174  10.698   0.272
38677W        W 8492  26.459   0.917  11.515
38678W        W 8493  39.958   5.871  11.052
38679W        W 8494  30.595   7.679   5.184
38680W        W 8495  14.323  26.607   1.440
38681W        W 8496  36.841  32.911  11.916
38682W        W 8497   4.281  34.874  10.430
38683W        W 8498  38.916  28.075   5.130
38684W        W 8499  28.612  25.106  10.625
38685W        W 8500  27.574  21.048  11.923
38686W        W 8501  29.089  29.487  11.401
38687W        W 8502   1.890  11.754   4.166
38688W        W 8503   0.250   5.258  12.550
38689W        W 8504  39.320  35.582   1.227
38690W        W 8505  11.172   8.767  12.863
38691W        W 8506  27.081   1.790   0.263
38692W        W 8507  40.438   0.419  11.553
38693W        W 8508  15.190   6.686   1.815
38694W        W 8509   7.408  12.158   4.165
38695W        W 8510  13.844   1.248  11.949
38696W        W 8511  16.080  23.617  12.966
38697W        W 8512   5.808  13.626  14.936
38698W        W 8513  19.742  15.581   2.759
38699W        W 8514  10.143  44.981   3.778
38700W        W 8515   6.234  15.811  12.451
38701W        W 8516   9.395  12.150   2.666
38702W        W 8517  40.451   2.926   1.742
38703W        W 8518  33.474  33.037   0.732
38704W        W 8519   2.458   2.450   0.404
38705W        W 8520  40.849  38.849  13.936
38706W        W 8521   7.287  28.990   1.217
38707W        W 8522  11.866   4.262  13.487
38708W        W 8523  37.015  28.176   3.212
38709W        W 8524  32.125  20.203  11.381
38710W        W 8525   6.355   2.954  14.942
38711W        W 8526   7.868  36.500   4.197
38712W        W 8527   5.866   3.240   3.380
38713W        W 8528  26.547  18.085   0.261
38714W        W 8529   1.782  31.954  11.422
38715W        W 8530   8.339  40.873   2.781
38716W        W 8531   1.310  12.207   0.411
38717W        W 8532  32.627  12.781   5.102
38718W        W 8533   0.279  39.313   3.330
38719W        W 8534  17.090  26.567   0.808
38720W        W 8535  10.720  41.331   5.228
38721W        W 8536   2.371  35.603   2.244
38722W        W 8537  27.593  16.104  12.899
38723W        W 8538  15.669  38.482   4.153
38724W        W 8539  28.054  25.131  10.636
38725W        W 8540  16.715  19.758   0.766
38726W        W 8541  17.295  39.456  13.835
38727W        W 8542  32.048  14.118  11.900
38728W        W 8543   9.844  41.981   9.595
38729W        W 8544  22.556  17.753   5.311
38730W        W 8545   1.813  40.896   2.310
38731W        W 8546   6.237  20.114  14.493
38732W        W 8547  16.266  40.029  13.491
38733W        W 8548  38.905   9.886  12.881
38734W        W 8549   4.347  44.331   1.355
38735W        W 8550  42.470  21.579   4.261
38736W        W 8551  14.781  34.519   3.745
38737W        W 8552  40.356  32.901   2.820
38738W        W 8553   7.679  34.962  13.025
38739W        W 8554  39.343  34.591   3.794
38740W        W 8555  35.932  23.150  11.399
38741W        W 8556  27.136  13.231   0.291
38742W        W 8557  10.221  37.469   4.297
38743W        W 8558  44.856   6.884   2.854
38744W        W 8559   1.326  19.105   2.221
38745W        W 8560   6.397  41.468   4.643
38746W        W 8561  11.212  38.493  14.870
38747W        W 8562   4.767  43.330   3.252
38748W        W 8563  41.810  34.923   4.644
38749W        W 8564  12.732  25.113  11.939
38750W        W 8565  42.367  11.134  13.001
38751W        W 8566   5.422  35.571  12.881
38752W        W 8567  32.133  37.869  13.336
38753W        W 8568  11.288  26.518  12.962
38754W        W 8569  38.394  30.646   1.274
38755W        W 8570   8.658   7.880   4.335
38756W        W 8571   3.409  40.325  13.865
38757W        W 8572  28.019  38.440   1.884
38758W        W 8573   4.447  10.764  14.838
38759W        W 8574  28.633   6.916  14.476
38760W        W 8575  19.137  16.175  10.624
38761W        W 8576  24.631   1.968  13.879
38762W        W 8577  19.626  33.054  13.882
38763W        W 8578  16.266  25.057   0.804
38764W        W 8579  15.728  19.668  14.481
38765W        W 8580  15.578  31.516  13.333
38766W        W 8581   7.187  43.384   0.454
38767W        W 8582  39.432  16.683  13.476
38768W        W 8583  19.574  12.736   3.278
38769W        W 8584  23.596  43.293  14.492
38770W        W 8585  21.156  44.790   3.305
38771W        W 8586  35.466   5.288   4.627
38772W        W 8587  12.684   0.473   3.713
38773W        W 8588  19.541  13.116  12.449
38774W        W 8589  35.429  35.026  11.938
38775W        W 8590   8.190  36.428   4.159
38776W        W 8591  33.064  27.021  11.512
38777W        W 8592  22.698  21.211   0.920
38778W        W 8593  34.868  44.988  14.897
38779W        W 8594  25.003   0.928   5.230
38780W        W 8595  28.007  41.368   4.280
38781W        W 8596   1.245  23.575  12.508
38782W        W 8597  34.898  16.279   3.721
38783W        W 8598  18.663  28.474   2.292
38784W        W 8599   1.891  19.587   1.286
38785W        W 8600  12.644  12.337  10.611
38786W        W 8601   9.260  35.410  10.972
38787W        W 8602  38.545  12.741   1.437
38788W        W 8603   6.241  25.658   1.919
38789W        W 8604  29.560   8.332  14.300
38790W        W 8605  15.820   8.879   9.984
38791W        W 8606  42.508  26.025   2.278
38792W        W 8607  27.959   6.693  14.985
38793W        W 8608  28.597   1.765   3.290
38794W        W 8609   5.847  38.916  10.468
38795W        W 8610  36.365   5.850   2.860
38796W        W 8611  26.700  20.073  11.573
38797W        W 8612  34.604  31.456   2.671
38798W        W 8613  10.694  17.794  11.467
38799W        W 8614  17.068   2.953   1.742
38800W        W 8615   8.825   7.331   0.829
38801W        W 8616  13.289  16.125   0.834
38802W        W 8617   2.336  22.645  12.441
38803W        W 8618   6.737  16.171  10.895
38804W        W 8619  16.176   2.826  13.419
38805W        W 8620  31.077  35.064   3.692
38806W        W 8621   2.786   7.747  14.022
38807W        W 8622   1.363   3.846  10.975
38808W        W 8623  35.030  33.985  11.522
38809W        W 8624   4.214  43.346   1.760
38810W        W 8625  30.029  12.775  12.370
38811W        W 8626  33.985  36.952   2.704
38812W        W 8627  13.138  39.046   9.988
38813W        W 8628  31.451  37.037  13.375
38814W        W 8629  35.903  42.927  13.966
38815W        W 8630  33.900  20.556  11.561
38816W        W 8631  32.135  11.751  12.824
38817W        W 8632  19.629  10.344  14.450
38818W        W 8633  27.000   2.271   0.297
38819W        W 8634  34.040  43.845  13.527
38820W        W 8635   9.254  38.418   1.858
38821W        W 8636  17.752  35.563  12.838
38822W        W 8637   5.310  16.772   3.798
38823W        W 8638  34.973  34.108   1.306
38824W        W 8639  40.304   8.664   2.416
38825W        W 8640  15.577   5.204  13.017
38826W        W 8641  37.477  41.322  12.512
38827W        W 8642  41.956  23.077  14.023
38828W        W 8643   2.943  32.002  11.529
38829W        W 8644  17.719  12.634   0.742
38830W        W 8645  26.053  40.374  11.892
38831W        W 8646   2.397  18.256   1.433
38832W        W 8647   3.250   1.825   1.267
38833W        W 8648  27.576   8.207   0.964
38834W        W 8649  38.330  32.594   4.298
38835W        W 8650  29.060  14.164  11.536
38836W        W 8651  33.025  42.429  14.896
38837W        W 8652  35.105  41.886   2.814
38838W        W 8653   3.269  18.704  13.485
38839W        W 8654  24.632  40.506  11.561
38840W        W 8655  36.002  10.144   0.945
38841W        W 8656   4.405  34.516   3.191
38842W        W 8657  35.502  17.772  13.838
38843W        W 8658  42.012  11.127  10.485
38844W        W 8659   0.764  41.996  11.010
38845W        W 8660   1.870  16.723   3.314
38846W        W 8661  30.037   6.695   4.783
38847W        W 8662  36.379  13.144  14.782
38848W        W 8663  30.056  13.116   3.816
38849W        W 8664  27.580   4.338   3.845
38850W        W 8665   4.847  12.338   2.356
38851W        W 8666   9.247   8.198   1.363
38852W        W 8667   8.239  26.138   0.335
38853W        W 8668  14.648  31.916  10.888
38854W        W 8669  20.160   2.831   4.142
38855W        W 8670   5.414  19.762   0.847
38856W        W 8671  43.456  27.145  11.468
38857W        W 8672  33.497  42.023  13.338
38858W        W 8673  40.510  11.296   4.782
38859W        W 8674  13.698  28.172  10.551
38860W        W 8675  35.419  19.687   4.140
38861W        W 8676  16.263  42.315   1.448
38862W        W 8677   2.268  40.873   3.792
38863W        W 8678  30.558  29.423  11.422
38864W        W 8679   4.922  34.941  11.879
38865W        W 8680  18.057  29.555  12.412
38866W        W 8681  38.070  27.140   2.825
38867W        W 8682  10.139  22.609  10.029
38868W        W 8683  38.525   7.898   1.408
38869W        W 8684  25.213  27.977   4.606
38870W        W 8685  11.817  23.559  12.829
38871W        W 8686  24.700  16.772   4.265
38872W        W 8687   6.249  17.762   4.233
38873W        W 8688  20.273  20.273  13.825
38874W        W 8689  12.131  33.070   1.855
38875W        W 8690   4.776  29.130  10.061
38876W        W 8691  20.627  27.486  14.939
38877W        W 8692  29.961  35.072  13.519
38878W        W 8693  13.306  17.678  13.517
38879W        W 8694  27.050   1.937  13.322
38880W        W 8695  20.570   1.433   4.173
38881W        W 8696  27.578  29.633  13.022
38882W        W 8697  30.532   8.706  10.624
38883W        W 8698  18.650  32.541  14.275
38884W        W 8699  42.912  25.654  12.995
38885W        W 8700   8.729  33.549   1.376
38886W        W 8701  27.517  22.570   0.939
38887W        W 8702  32.013  21.679  12.462
38888W        W 8703   2.233  13.225   3.326
38889W        W 8704  41.512   1.965   1.767
38890W        W 8705  27.995  22.627  13.022
38891W        W 8706  37.545   9.646  12.029
38892W        W 8707  26.642  41.996  12.037
38893W        W 8708  12.724  35.434  11.122
38894W        W 8709  41.816   1.818  10.624
38895W        W 8710   0.307  12.287   3.705
38896W        W 8711  41.376  38.049  10.933
38897W        W 8712  34.900  35.380  14.288
38898W        W 8713   0.949  32.106  12.845
38899W        W 8714  21.096   5.262   3.178
38900W        W 8715   2.286  13.792   1.264
38901W        W 8716  11.221  15.586  10.432
38902W        W 8717  28.965   5.776  10.407
38903W        W 8718   0.757   1.481  10.460
38904W        W 8719  39.833  31.449  12.400
38905W        W 8720   4.206  40.905  11.382
38906W        W 8721   0.754  32.886  12.860
38907W        W 8722  39.006  16.214   3.237
38908W        W 8723  16.118  19.046  10.497
38909W        W 8724   4.716  14.804   3.284
38910W        W 8725  36.536  41.315   3.773
38911W        W 8726   2.890  34.888  12.014
38912W        W 8727   6.916  12.749   3.752
38913W        W 8728  26.517  17.161  13.821
38914W        W 8729  37.373  42.319   4.330
38915W        W 8730  21.084  41.345   1.873
38916W        W 8731  38.468  41.311   1.320
38917W        W 8732  37.379  37.554   0.362
38918W        W 8733   5.804  18.786   0.261
38919W        W 8734  43.951  35.855  14.441
38920W        W 8735  30.017  11.237  13.520
38921W        W 8736  20.615  26.106  14.443
38922W        W 8737  15.090  22.228  13.866
38923W        W 8738   1.774  31.983  13.342
38924W        W 8739   8.245  37.998  14.846
38925W        W 8740   6.185  25.218   4.215
38926W        W 8741  27.108  22.693  11.425
38927W        W 8742  11.209  44.267  11.027
38928W        W 8743  42.345  26.464  13.514
38929W        W 8744  11.694  40.430   4.253
38930W        W 8745  21.146  32.537  12.834
38931W        W 8746  14.327  25.183  14.939
38932W        W 8747   8.699   3.309   4.295
38933W        W 8748   6.788  40.904   3.296
38934W        W 8749  43.293  33.916   2.748
38935W        W 8750  21.113  35.869  14.861
38936W        W 8751  23.151  11.773  12.524
38937W        W 8752  12.218  41.413   1.757
38938W        W 8753  14.651  29.524  13.827
38939W        W 8754   4.792  25.122   0.737
38940W        W 8755  40.954  11.287   2.701
38941W        W 8756  34.028  12.713  12.558
38942W        W 8757  40.039   2.238  10.532
38943W        W 8758  31.504   1.763  14.370
38944W        W 8759  34.426  12.632  13.429
38945W        W 8760  23.606  19.041   2.316
38946W        W 8761  11.673  36.572   1.858
38947W        W 8762  43.291  44.274   3.293
38948W        W 8763   4.442  22.061  13.409
38949W        W 8764  28.992   8.293  12.382
38950W        W 8765  16.722  17.143   2.803
38951W        W 8766  30.953  28.999  14.420
38952W        W 8767  25.076   0.425  13.435
38953W        W 8768  29.600  21.152  14.375
38954W        W 8769  22.051  36.433  11.002
38955W        W 8770   2.398  39.019  13.326
38956W        W 8771  25.963  22.596  11.105
38957W        W 8772  43.372  23.204  10.597
38958W        W 8773  12.820  32.565   3.185
38959W        W 8774  15.222  26.487   0.451
38960W        W 8775  25.629  15.092   2.807
38961W        W 8776  26.186  22.112   0.745
38962W        W 8777  38.498   6.823  11.507
38963W        W 8778  38.059  10.843   1.406
38964W        W 8779  31.432  30.020  12.005
38965W        W 8780  34.041   9.704   0.304
38966W        W 8781   9.653  27.633  11.092
38967W        W 8782  21.068   1.750  13.362
38968W        W 8783  10.724  32.397  13.904
38969W        W 8784  14.294  42.510  14.841
38970W        W 8785  30.144  33.011  13.406
38971W        W 8786  29.601  26.658   1.333
38972W        W 8787  32.541  36.047   3.169
38973W        W 8788  33.493  30.639   1.224
38974W        W 8789  11.725  24.109   3.229
38975W        W 8790   5.226  22.234  10.518
38976W        W 8791  22.227  24.574   2.336
38977W        W 8792  42.833  29.086   4.177
38978W        W 8793   9.838  11.365  12.353
38979W        W 8794  34.423  30.447   0.856
38980W        W 8795   5.778  43.482   2.736
38981W        W 8796  23.047  43.304  14.996
38982W        W 8797  33.999  40.485  14.813
38983W        W 8798  41.869   2.744   1.713
38984W        W 8799  37.553   1.934  13.813
38985W        W 8800  39.982  44.368   3.699
38986W        W 8801   8.356   4.704   4.218
38987W        W 8802  36.588  30.597   3.696
38988W        W 8803  40.450  44.457   5.288
38989W        W 8804  17.254  20.547  12.859
38990W        W 8805  36.966  44.341   4.801
38991W        W 8806  23.080  25.997  12.926
38992W        W 8807  43.788  10.357  14.974
38993W        W 8808  24.632  24.584  14.927
38994W        W 8809  16.753  18.136   3.236
38995W        W 8810  33.471   0.271   0.961
38996W        W 8811  34.611  42.283   0.258
38997W        W 8812  25.155  26.495  10.550
38998W        W 8813  30.645  29.128   4.816
38999W        W 8814  28.979  11.283  13.846
39000W        W 8815  31.078  38.381  10.915
39001W        W 8816  32.605  19.266  13.036
39002W        W 8817  25.610  42.952   3.214
39003W        W 8818   8.219   0.986  10.411
39004W        W 8819  38.395  15.673  11.911
39005W        W 8820  15.237  20.547   1.246
39006W        W 8821  31.082  42.775  12.349
39007W        W 8822   4.816   7.860  13.511
39008W        W 8823  22.234  44.897  10.933
39009W        W 8824  19.133   6.898  10.509
39010W        W 8825   8.206  22.637   1.796
39011W        W 8826  32.118  10.835   2.823
39012W        W 8827  29.034  27.607  13.000
39013W        W 8828  15.204  33.449   3.274
39014W        W 8829  28.442  15.606  12.960
39015W        W 8830  16.610  16.615  12.944
39016W        W 8831  44.891  42.867  14.760
39017W        W 8832  16.613  21.204   2.746
39018W        W 8833  42.359  26.183  12.074
39019W        W 8834  16.627  31.443  10.887
39020W        W 8835   8.296   3.910   4.331
39021W        W 8836   7.712  31.996  10.142
39022W        W 8837  29.029  38.891  11.949
39023W        W 8838  41.316  39.999  14.938
39024W        W 8839   2.458  16.284   4.197
39025W        W 8840   6.424   1.911   5.245
39026W        W 8841   4.349   7.700  11.436
39027W        W 8842   9.701  18.768   4.609
39028W        W 8843  35.024  17.786  12.094
39029W        W 8844  14.805  28.566  14.917
39030W        W 8845  18.193  42.391   1.706
39031W        W 8846  36.897  25.634  13.520
39032W        W 8847  12.825  36.098  12.023
39033W        W 8848  15.614  31.496   2.842
39034W        W 8849  41.366   3.355  13.962
39035W        W 8850  38.505  19.177  11.601
39036W        W 8851  24.604  12.236   3.248
39037W        W 8852  24.003  26.618  10.933
39038W        W 8853  20.528  38.864  11.531
39039W        W 8854  20.533  18.090  14.415
39040W        W 8855  27.135  26.205  13.441
39041W        W 8856  37.477  27.536   0.288
39042W        W 8857  40.020  18.225   0.925
39043W        W 8858  33.592  29.081  14.870
39044W        W 8859  28.147   0.946  14.888
39045W        W 8860   1.944  43.805  11.438
39046W        W 8861  27.456   0.262   0.338
39047W        W 8862  43.298  29.969   2.184
39048W        W 8863  43.766  17.798   3.641
39049W        W 8864   5.864  21.659   2.707
39050W        W 8865  40.020  18.709  12.030
39051W        W 8866  16.702  34.014  12.398
39052W        W 8867   3.420  16.698  10.600
39053W        W 8868  33.529   0.288  12.982
39054W        W 8869  35.964   8.178   2.404
39055W        W 8870   9.192   1.882  13.455
39056W        W 8871  17.233  27.022   3.696
39057W        W 8872  36.376   1.319   0.815
39058W        W 8873  35.468  17.225  10.601
39059W        W 8874  14.154  23.525  11.487
39060W        W 8875  22.012  40.952  13.424
39061W        W 8876   0.491  27.597   4.830
39062W        W 8877  14.128  44.951  11.974
39063W        W 8878  42.922  41.508   4.151
39064W        W 8879  17.265  30.415  11.416
39065W        W 8880   3.918  41.796   4.202
39066W        W 8881  40.926  14.190   3.328
39067W        W 8882  18.709  20.678  11.433
39068W        W 8883  15.750  23.683   4.663
39069W        W 8884  39.361  22.567  14.999
39070W        W 8885  14.284  23.614  13.533
39071W        W 8886  34.911  24.601  11.015
39072W        W 8887  43.819  38.378  10.960
39073W        W 8888  29.606  11.351  14.477
39074W        W 8889  20.528  37.397   0.949
39075W        W 8890  21.717  32.570   4.771
39076W        W 8891  43.512  36.503  12.446
39077W        W 8892   5.931  14.639   3.764
39078W        W 8893   7.354  31.016   1.229
39079W        W 8894  17.196  37.040  10.066
39080W        W 8895  40.009  25.067   4.294
39081W        W 8896  20.553   0.934  10.022
39082W        W 8897  16.753  10.677  12.979
39083W        W 8898  36.490   4.445  12.580
39084W        W 8899  22.656  29.611   5.103
39085W        W 8900  13.721  39.876   2.395
39086W        W 8901  15.117  37.075  12.423
39087W        W 8902   5.784  28.570  12.001
39088W        W 8903  10.675  23.590  11.553
39089W        W 8904   5.812  28.028   1.824
39090W        W 8905  12.781  44.987  13.395
39091W        W 8906   0.386  21.105  10.942
39092W        W 8907  20.599  22.237  12.012
39093W        W 8908  14.107  11.651  11.515
39094W        W 8909   0.301  42.324   3.849
39095W        W 8910  26.635  26.145   0.264
39096W        W 8911  36.067   1.466   3.756
39097W        W 8912  39.810  10.205  13.958
39098W        W 8913   1.241  18.132   1.391
39099W        W 8914  15.658   5.871   1.308
39100W        W 8915  41.950  33.568  13.996
39101W        W 8916   8.745  28.453   3.255
39102W        W 8917  35.879  21.204   1.414
39103W        W 8918  44.955  33.612   3.169
39104W        W 8919  18.187  29.476  10.455
39105W        W 8920   2.453  20.064   2.851
39106W        W 8921  39.955  29.933   1.929
39107W        W 8922  23.047  38.369  11.856
39108W        W 8923  18.057   0.896   1.371
39109W        W 8924  23.566  20.045  12.464
39110W        W 8925  42.406  22.054  12.843
39111W        W 8926   2.740  22.644   3.360
39112W        W 8927  32.938  19.765   3.804
39113W        W 8928  32.086  22.111  11.048
39114W        W 8929  40.520  22.723   1.245
39115W        W 8930  12.621  40.308   1.309
39116W        W 8931  37.464  42.985  12.459
39117W        W 8932   5.886  16.645   4.717
39118W        W 8933  37.375   4.795   1.892
39119W        W 8934  33.999   6.350   1.707
39120W        W 8935  39.949  20.528   0.288
39121W        W 8936  38.441  28.117   4.784
39122W        W 8937  31.970  10.268   3.737
39123W        W 8938  35.451  27.106  11.984
39124W        W 8939  29.005   9.192  14.899
39125W        W 8940  20.273  36.088  13.969
39126W        W 8941  33.069   9.788  10.990
39127W        W 8942  10.705  35.907  12.414
39128W        W 8943   9.889  17.267   2.731
39129W        W 8944  16.153  34.056  10.596
39130W        W 8945  11.694  36.927   4.298
39131W        W 8946  29.150  16.572  11.938
39132W        W 8947  32.590  28.439  10.441
39133W        W 8948  32.066  12.632  12.470
39134W        W 8949  44.452   2.279  10.541
39135W        W 8950  16.658  31.496  11.864
39136W        W 8951  38.032  31.585   1.746
39137W        W 8952  42.832  43.001  10.417
39138W        W 8953  19.658  23.686  12.071
39139W        W 8954  24.520   9.286  13.436
39140W        W 8955  35.951  42.986   3.268
39141W        W 8956  31.937  36.495   1.770
39142W        W 8957  10.294  23.008   0.304
39143W        W 8958  11.176  22.215   4.734
39144W        W 8959   4.240  21.096   1.416
39145W        W 8960  16.299   1.458  13.796
39146W        W 8961  33.112  34.490  14.924
39147W        W 8962  35.560  17.067  12.887
39148W        W 8963  15.662  29.623  14.362
39149W        W 8964  12.329   6.414  12.433
39150W        W 8965  39.991  16.109   2.235
39151W        W 8966  31.483  26.544  10.892
39152W        W 8967  40.845  34.934  13.963
39153W        W 8968  15.637  31.522  13.971
39154W        W 8969  22.995  39.973  10.589
39155W        W 8970   9.249  11.627   2.408
39156W        W 8971  39.977  42.904   4.157
39157W        W 8972  20.224  24.039  12.977
39158W        W 8973  13.828   8.872  12.461
39159W        W 8974  40.801  39.380  13.917
39160W        W 8975   3.323  21.111   0.912
39161W        W 8976  12.700  41.024   2.360
39162W        W 8977   4.731  36.355  12.845
39163W        W 8978  24.214  14.713   4.210
39164W        W 8979  35.089  27.670   4.316
39165W        W 8980  17.761  31.522  13.385
39166W        W 8981  29.035  40.322  11.517
39167W        W 8982   9.290  42.974   3.821
39168W        W 8983   0.768  27.193  12.548
39169W        W 8984  29.472  42.477   3.234
39170W        W 8985   9.173  40.878   2.769
39171W        W 8986  43.493   2.275   3.777
39172W        W 8987  33.987  22.602  11.925
39173W        W 8988   5.697  39.977   3.686
39174W        W 8989   5.863  43.437   4.117
39175W        W 8990  14.276  32.562   2.807
39176W        W 8991  11.140  26.111   4.348
39177W        W 8992  35.003  29.004  11.547
39178W        W 8993   0.845  26.046  14.921
39179W        W 8994  30.020  14.192   3.237
39180W        W 8995  42.817   5.246  11.017
39181W        W 8996  17.765  36.458   2.900
39182W        W 8997   5.210  20.123  11.967
39183W        W 8998  15.212   5.371  12.917
39184W        W 8999   7.721   1.391   2.741
39185W        W 9000  36.492  31.432  10.081
39186W        W 9001  14.668  21.105  13.921
39187W        W 9002  23.595  41.475  14.311
39188W        W 9003   8.242  29.114   1.916
39189W        W 9004  29.556   0.270   2.219
39190W        W 9005  28.472  34.916   1.417
39191W        W 9006  38.356   3.827   0.378
39192W        W 9007  44.790  39.534   0.443
39193W        W 9008   3.397   5.210   1.313
39194W        W 9009  44.377  10.744  11.540
39195W        W 9010  11.824  25.112   9.977
39196W        W 9011  20.571   1.790  11.004
39197W        W 9012  42.457  31.109   2.892
39198W        W 9013   5.726  38.508  12.360
39199W        W 9014  16.787  19.228   1.375
39200W        W 9015  36.478   1.412  14.462
39201W        W 9016  25.472   9.191  14.833
39202W        W 9017  11.754  26.979   2.760
39203W        W 9018   8.180  27.582   4.276
39204W        W 9019  20.568  30.449  13.490
39205W        W 9020   0.288  25.986   0.802
39206W        W 9021  19.709  17.670   2.758
39207W        W 9022  41.453   2.800  11.603
39208W        W 9023  29.624  41.318   0.445
39209W        W 9024  20.606  43.019  10.559
39210W        W 9025   8.238  38.854  12.348
39211W        W 9026  39.516   2.442  14.852
39212W        W 9027  15.593  41.928   5.085
39213W        W 9028  18.654  22.745   0.851
39214W        W 9029  35.067  13.675  10.563
39215W        W 9030  16.767  18.590   4.737
39216W        W 9031  30.968  27.545  13.394
39217W        W 9032  10.247  16.120   0.288
39218W        W 9033  16.255   5.804  14.862
39219W        W 9034  44.779   9.726  11.440
39220W        W 9035  37.340  35.530   4.654
39221W        W 9036  26.458   0.958   1.819
39222W        W 9037   3.933   0.276   1.872
39223W        W 9038  16.570  31.117  13.378
39224W        W 9039  43.773  31.929  11.928
39225W        W 9040  35.908  34.920  10.504
39226W        W 9041  36.033   8.288  11.056
39227W        W 9042  34.369  24.977   0.899
39228W        W 9043  31.016  42.383  13.426
39229W        W 9044   3.789  10.737  14.942
39230W        W 9045  18.778  10.706   3.366
39231W        W 9046  20.583  37.407  14.814
39232W        W 9047  32.892  43.913   1.913
39233W        W 9048  19.200  44.366  14.019
39234W        W 9049  43.273  38.913   9.953
39235W        W 9050  16.249  37.379  11.031
39236W        W 9051   0.844   3.746   2.882
39237W        W 9052  36.900   8.351   2.347
39238W        W 9053  29.623  43.910  13.326
39239W        W 9054  35.086  42.017  14.337
39240W        W 9055  36.939   7.687  13.492
39241W        W 9056   9.710  17.615  10.143
39242W        W 9057   8.200  26.666  11.501
39243W        W 9058   5.779  20.232  13.891
39244W        W 9059  43.923  39.383   0.789
39245W        W 9060  34.114  39.056  12.419
39246W        W 9061  34.070  30.147   1.299
39247W        W 9062  24.118  12.132   0.246
39248W        W 9063  31.517  10.632   2.703
39249W        W 9064  34.084   5.913   1.811
39250W        W 9065  37.340   9.198  11.085
39251W        W 9066  19.611  28.459   0.454
39252W        W 9067  13.753  13.622  13.408
39253W        W 9068  37.385  12.651  13.366
39254W        W 9069   8.391  42.442  13.855
39255W        W 9070  11.266  23.644   4.748
39256W        W 9071  19.274   9.868   3.263
39257W        W 9072  17.772  26.176   4.649
39258W        W 9073  11.843   8.679   1.881
39259W        W 9074  22.715  13.786  14.831
39260W        W 9075  12.291   5.708  11.464
39261W        W 9076  26.625  22.616  10.465
39262W        W 9077   8.322  11.840   3.269
39263W        W 9078  32.557  33.910   0.771
39264W        W 9079   6.320  24.997   3.803
39265W        W 9080  18.547   4.213   2.766
39266W        W 9081  26.122  40.848   3.301
39267W        W 9082  36.485  31.119   2.256
39268W        W 9083   4.237  19.199   4.834
39269W        W 9084  22.568   2.254   0.760
39270W        W 9085  16.569  42.993   1.211
39271W        W 9086  16.576  39.056   3.359
39272W        W 9087  21.032   4.827  13.901
39273W        W 9088  31.620  28.450   2.751
39274W        W 9089  14.232   6.387   0.808
39275W        W 9090  13.244   5.208   2.851
39276W        W 9091  16.199  32.408   4.631
39277W        W 9092  44.953   1.884  11.551
39278W        W 9093  29.571  22.195   2.863
39279W        W 9094   8.656  21.695  12.467
39280W        W 9095   0.470   9.267   1.778
39281W        W 9096  32.103  15.083  13.375
39282W        W 9097  27.135  27.128  13.323
39283W        W 9098  10.657  44.851  11.881
39284W        W 9099  29.160  40.875  14.511
39285W        W 9100  16.318  17.124  10.510
39286W        W 9101  15.605   8.203   4.655
39287W        W 9102  30.927  42.408  11.021
39288W        W 9103  15.097  37.995  14.372
39289W        W 9104  13.177  37.868   2.415
39290W        W 9105  40.943  19.627  12.934
39291W        W 9106  28.502  23.053  13.493
39292W        W 9107  18.688  19.770   3.304
39293W        W 9108  19.646  12.682   0.762
39294W        W 9109  31.919  43.463  11.014
39295W        W 9110   5.423   0.890   1.393
39296W        W 9111  43.917  44.415  13.036
39297W        W 9112  18.275  23.053   0.406
39298W        W 9113   3.243   4.903  11.889
39299W        W 9114  29.153  36.536  14.314
39300W        W 9115   9.699  41.481  14.369
39301W        W 9116  14.830  24.697   1.857
39302W        W 9117  38.980   7.846  12.065
39303W        W 9118  28.169   6.761   0.854
39304W        W 9119  37.401  15.283   1.299
39305W        W 9120  43.881  16.275   3.265
39306W        W 9121  30.552  25.556   0.809
39307W        W 9122   6.366  24.068   0.453
39308W        W 9123  21.565   8.900   3.675
39309W        W 9124  14.220  35.396  10.577
39310W        W 9125  31.637  18.669   1.852
39311W        W 9126   5.693  31.467  14.312
39312W        W 9127   6.879  15.216   2.196
39313W        W 9128  16.665  35.874   3.164
39314W        W 9129  43.836   4.358   3.654
39315W        W 9130   7.702  20.705   1.373
39316W        W 9131  32.945  37.513   1.924
39317W        W 9132  37.989  18.600  12.374
39318W        W 9133  10.270   6.688   4.176
39319W        W 9134   8.838   4.445  13.439
39320W        W 9135  28.143   8.735   0.322
39321W        W 9136   0.445   3.335   3.769
39322W        W 9137  18.626   1.791   1.868
39323W        W 9138  33.969  39.979  10.922
39324W        W 9139   5.425  33.574  11.033
39325W        W 9140  28.608   7.413  10.494
39326W        W 9141  42.817  30.096   2.215
39327W        W 9142   5.768  42.522  13.910
39328W        W 9143  29.010   5.922   3.375
39329W        W 9144   0.390  10.836  12.433
39330W        W 9145  34.881  42.351   0.946
39331W        W 9146  30.118   3.254  13.059
39332W        W 9147  31.010  34.918  14.843
39333W        W 9148  20.683   0.822   4.155
39334W        W 9149   9.805  16.644   2.205
39335W        W 9150  39.542  41.975   0.779
39336W        W 9151  34.889  22.729   3.180
39337W        W 9152   8.307   6.226  14.384
39338W        W 9153   8.704  44.294  11.005
39339W        W 9154  37.464  39.857   4.192
39340W        W 9155  39.425  42.784   5.289
39341W        W 9156  13.245  29.481   3.742
39342W        W 9157   7.408  28.942   1.705
39343W        W 9158  35.056  30.572   0.302
39344W        W 9159  26.469  17.735  11.525
39345W        W 9160  10.753   3.401  12.395
39346W        W 9161  23.197  40.860   2.356
39347W        W 9162  33.065  35.450  14.448
39348W        W 9163  40.472  14.242   4.785
39349W        W 9164  21.068  31.151   2.862
39350W        W 9165  39.409  13.271  12.020
39351W        W 9166  41.391  30.948   4.632
39352W        W 9167  35.477  28.184  14.453
39353W        W 9168   3.409  17.576  13.928
39354W        W 9169  23.523  20.169   2.802
39355W        W 9170  32.599  19.586  12.456
39356W        W 9171  40.484  23.493  14.339
39357W        W 9172  18.765  35.974   3.343
39358W        W 9173   3.800  18.113   0.820
39359W        W 9174  22.190  21.714  11.103
39360W        W 9175  36.970  26.207   4.136
39361W        W 9176  32.946  34.963  10.978
39362W        W 9177  30.540  39.538   2.802
39363W        W 9178  12.249  11.702  11.986
39364W        W 9179   3.352  33.919  13.534
39365W        W 9180   7.364  34.511  12.934
39366W        W 9181  14.178  13.147   0.370
39367W        W 9182  27.139   1.368  10.451
39368W        W 9183   5.729  18.689   4.206
39369W        W 9184  27.523  40.935  11.447
39370W        W 9185  38.420  40.821  13.319
39371W        W 9186  28.633  18.716   0.870
39372W        W 9187   4.242  19.563   4.616
39373W        W 9188  43.309  13.775  11.449
39374W        W 9189   5.263  34.975   4.179
39375W        W 9190   8.263  16.291  10.457
39376W        W 9191  41.380  22.203  13.045
39377W        W 9192  28.131   0.817  11.880
39378W        W 9193  38.920  10.254   2.396
39379W        W 9194   8.378  26.128  14.934
39380W        W 9195  20.250  31.427  12.341
39381W        W 9196  17.572  11.154   3.354
39382W        W 9197  28.045  37.987  13.034
39383W        W 9198  35.550  33.419  10.971
39384W        W 9199  36.462  13.656   3.319
39385W        W 9200   2.726  36.480  11.021
39386W        W 9201  31.934  13.711   3.181
39387W        W 9202  19.627  14.804  11.527
39388W        W 9203  43.954  41.419  13.957
39389W        W 9204  41.915   0.416  11.917
39390W        W 9205   0.403  35.594   1.854
39391W        W 9206  42.835  18.228  14.307
39392W        W 9207  27.972  35.467  12.361
39393W        W 9208  38.476  30.132  14.790
39394W        W 9209   7.182   4.403  14.468
39395W        W 9210  19.161  26.531   3.175
39396W        W 9211  30.001  14.208  12.008
39397W        W 9212  39.814  19.157   0.280
39398W        W 9213  37.497  19.553  14.851
39399W        W 9214  36.494  30.608   1.929
39400W        W 9215  43.833  41.296  10.440
39401W        W 9216  18.122  19.559   0.431
39402W        W 9217  40.026   6.745  10.611
39403W        W 9218  42.374  12.651   2.382
39404W        W 9219  32.617  29.489   2.744
39405W        W 9220   3.770  11.682  11.876
39406W        W 9221   3.293  21.089   2.826
39407W        W 9222   0.855   5.305  14.421
39408W        W 9223  38.867  11.161   9.963
39409W        W 9224  19.652  27.466  11.537
39410W        W 9225  19.189   9.288   4.243
39411W        W 9226  37.941  25.590   2.810
39412W        W 9227  30.010  30.150   2.332
39413W        W 9228  43.504  42.918  14.888
39414W        W 9229  16.297  39.033  12.457
39415W        W 9230  43.870  11.792   2.759
39416W        W 9231   7.295  28.497   0.872
39417W        W 9232   5.829  18.263   3.708
39418W        W 9233  13.775   5.350  12.977
39419W        W 9234  21.617   4.824  10.516
39420W        W 9235   4.945   9.776   3.808
39421W        W 9236  27.627  23.170  11.039
39422W        W 9237  26.497  43.770  10.621
39423W        W 9238   2.294  20.762   3.158
39424W        W 9239  19.753  39.540   0.878
39425W        W 9240  25.541  39.942  12.030
39426W        W 9241  34.564  11.314   4.756
39427W        W 9242   4.317  34.490  14.493
39428W        W 9243  34.915  21.255   4.802
39429W        W 9244  36.472   6.685   1.756
39430W        W 9245  19.596  33.557  14.308
39431W        W 9246   5.437  27.586   0.290
39432W        W 9247  37.913  19.173  11.922
39433W        W 9248  33.518   3.401   4.174
39434W        W 9249  10.290  26.132   0.326
39435W        W 9250  22.089  20.714   1.281
39436W        W 9251  39.037  28.607  13.982
39437W        W 9252  20.082  30.577   4.646
39438W        W 9253   6.388  30.616  14.505
39439W        W 9254  12.201   5.206  14.326
39440W        W 9255  29.540  22.196  13.004
39441W        W 9256  31.948   7.666  14.944
39442W        W 9257  29.937  43.965  14.899
39443W        W 9258  27.588   4.280   2.283
39444W        W 9259  32.412   5.278  12.830
39445W        W 9260  39.489  36.059   4.794
39446W        W 9261  25.674  32.075  14.793
39447W        W 9262  33.903  42.871  11.565
39448W        W 9263  41.793  38.869   1.918
39449W        W 9264  12.360  25.488  10.901
39450W        W 9265  10.378  38.891  13.359
39451W        W 9266  37.401   7.366   3.636
39452W        W 9267  32.513   5.367   3.807
39453W        W 9268  16.141  19.560   1.908
39454W        W 9269  35.931  39.449  12.433
39455W        W 9270  31.925   8.327   1.311
39456W        W 9271  36.988  27.147  13.064
39457W        W 9272  13.690  38.516  13.799
39458W        W 9273  42.855  42.436  12.342
39459W        W 9274  37.429  33.087  14.995
39460W        W 9275  35.027  22.144   4.302
39461W        W 9276  14.766  37.841   0.831
39462W        W 9277   6.732  37.908  10.439
39463W        W 9278   7.177  13.689   1.403
39464W        W 9279  37.992  25.140  12.005
39465W        W 9280  40.371  41.813  12.093
39466W        W 9281   9.687  23.162  14.890
39467W        W 9282  44.343  32.959  10.106
39468W        W 9283  22.562   0.437   4.329
39469W        W 9284   0.888  42.435  11.859
39470W        W 9285  43.290   8.661  10.994
39471W        W 9286  27.022  38.015  12.465
39472W        W 9287  35.049  26.100   1.898
39473W        W 9288   4.814  33.553   2.691
39474W        W 9289  41.477  22.058   4.810
39475W        W 9290  21.036  19.168   1.384
39476W        W 9291  13.165  23.216  11.116
39477W        W 9292  14.648  24.535   0.802
39478W        W 9293  34.470  43.481  13.525
39479W        W 9294  43.371  28.598   4.824
39480W        W 9295  30.920   5.253  10.939
39481W        W 9296   5.434   0.272   2.410
39482W        W 9297  19.257  11.251   0.878
39483W        W 9298  41.391   6.344   4.306
39484W        W 9299  20.111  34.376   5.250
39485W        W 9300  40.506   0.278  14.889
39486W        W 9301  19.680  12.362  14.986
39487W        W 9302   9.270   1.971   3.293
39488W        W 9303  32.997  42.322  11.537
39489W        W 9304  39.468  36.486  13.846
39490W        W 9305  42.340   6.856   0.458
39491W        W 9306   9.214  22.733   0.314
39492W        W 9307  32.076  28.993  12.572
39493W        W 9308  18.267  42.929   4.821
39494W        W 9309   3.288  14.741   1.289
39495W        W 9310  37.516  24.067   3.812
39496W        W 9311  26.092  17.648   0.359
39497W        W 9312  25.506  11.284   1.875
39498W        W 9313  37.961  42.411   4.275
39499W        W 9314  31.473  25.176   3.775
39500W        W 9315  13.800   1.733  14.768
39501W        W 9316   9.741  17.082  11.597
39502W        W 9317  24.691  34.051   1.734
39503W        W 9318   7.773   8.295   1.833
39504W        W 9319   4.400   1.412  10.417
39505W        W 9320  17.207   2.382   1.804
39506W        W 9321   0.434  30.579   1.730
39507W        W 9322   9.196  27.103  11.451
39508W        W 9323  33.989  32.539   3.339
39509W        W 9324  32.458   2.751   1.711
39510W        W 9325   1.952  32.044   2.689
39511W        W 9326   2.358  38.371  13.335
39512W        W 9327   8.848  31.932   1.426
39513W        W 9328  31.410  17.110   2.676
39514W        W 9329  31.112   6.398  12.946
39515W        W 9330  15.688  44.983   0.923
39516W        W 9331  43.003  12.776   3.321
39517W        W 9332  28.953  44.860  11.544
39518W        W 9333  44.880  19.240  11.984
39519W        W 9334  36.857  38.435  10.949
39520W        W 9335  28.461  26.483   2.410
39521W        W 9336   8.198  36.880   3.788
39522W        W 9337  31.422   7.743   2.724
39523W        W 9338  26.040   1.449   0.763
39524W        W 9339  22.209   2.856   4.765
39525W        W 9340  34.402   9.270   3.253
39526W        W 9341  27.504  13.690  11.983
39527W        W 9342   4.856  30.508   0.266
39528W        W 9343  26.606  37.435   9.966
39529W        W 9344   8.379  33.487   2.903
39530W        W 9345  31.571  41.440  13.028
39531W        W 9346  24.548   1.915  12.397
39532W        W 9347  13.176  16.792  13.384
39533W        W 9348  12.228  27.551   0.349
39534W        W 9349  26.694  34.030  14.004
39535W        W 9350  28.168   8.295   4.139
39536W        W 9351  43.426   5.389   2.801
39537W        W 9352   5.424  34.009  13.005
39538W        W 9353  23.228  34.498  14.354
39539W        W 9354  12.794  11.335   2.202
39540W        W 9355  33.555  16.601   0.437
39541W        W 9356  35.424  23.221  10.960
39542W        W 9357   4.902  32.136   1.414
39543W        W 9358  36.029  33.584   3.237
39544W        W 9359   9.373  35.062  11.026
39545W        W 9360  37.462  27.013  14.923
39546W        W 9361  27.096  27.185   1.300
39547W        W 9362  44.398   0.893   4.293
39548W        W 9363  39.887  44.821  14.878
39549W        W 9364  44.334  29.138   2.676
39550W        W 9365  21.568  40.411  13.822
39551W        W 9366  40.313  20.689   4.835
39552W        W 9367  36.885  44.947  14.331
39553W        W 9368   5.740  19.574   2.351
39554W        W 9369  16.133  33.093   2.259
39555W        W 9370  33.111   4.235   2.272
39556W        W 9371  35.561  14.804   4.169
39557W        W 9372  44.924  22.646  11.103
39558W        W 9373  35.579  38.461  13.307
39559W        W 9374  12.237   0.474   3.240
39560W        W 9375   1.381  29.602   1.211
39561W        W 9376  37.941  15.212  14.768
39562W        W 9377  34.510  21.709   4.238
39563W        W 9378  37.458  15.138  12.389
39564W        W 9379  20.596  16.178   4.167
39565W        W 9380  15.651  19.544  10.473
39566W        W 9381  14.338  41.441  14.506
39567W        W 9382  16.245  30.596   2.840
39568W        W 9383  11.632  36.969  14.866
39569W        W 9384  38.505  35.531   2.222
39570W        W 9385  35.020  14.790  11.565
39571W        W 9386  21.567  12.267  12.095
39572W        W 9387   6.223  39.901   1.449
39573W        W 9388  27.951   0.911   0.339
39574W        W 9389  29.174  28.536  11.469
39575W        W 9390  32.527  15.602  11.448
39576W        W 9391  27.175  20.584   0.917
39577W        W 9392  16.314  40.825   1.932
39578W        W 9393  28.978  32.430  14.774
39579W        W 9394  44.302  16.150   0.792
39580W        W 9395   4.433   7.406   3.808
39581W        W 9396  18.607  44.438  12.528
39582W        W 9397  24.171  21.549   2.836
39583W        W 9398   7.752   9.187   3.386
39584W        W 9399  40.828  21.088  13.462
39585W        W 9400   4.927  28.044   1.803
39586W        W 9401  10.263  37.458  10.942
39587W        W 9402   6.737   5.743   2.815
39588W        W 9403  23.701   6.713   2.745
39589W        W 9404  37.854   7.289   4.725
39590W        W 9405  39.036  24.614  13.424
39591W        W 9406  23.525   1.918   2.709
39592W        W 9407  41.920  39.516   3.333
39593W        W 9408  26.556  23.029   1.803
39594W        W 9409  31.951   2.290   3.669
39595W        W 9410  35.378  23.668  11.970
39596W        W 9411  30.083  41.533  12.533
39597W        W 9412   0.330  22.706  10.988
39598W        W 9413  13.734  43.337   3.721
39599W        W 9414  43.270  10.665  11.551
39600W        W 9415  26.179   7.218  14.345
39601W        W 9416   1.933   3.862  13.803
39602W        W 9417  25.606  19.537   1.250
39603W        W 9418   6.363  25.639  13.867
39604W        W 9419  31.032  28.536  13.881
39605W        W 9420   3.927  37.578   2.326
39606W        W 9421   5.848   7.864  13.448
39607W        W 9422  36.854   6.376  11.075
39608W        W 9423  32.591   1.479  14.450
39609W        W 9424  22.507   8.663   5.207
39610W        W 9425  18.592  32.970  14.895
39611W        W 9426   1.796   7.729  14.324
39612W        W 9427  17.689  13.234   3.869
39613W        W 9428  37.947   5.795   4.320
39614W        W 9429   2.229  41.039  13.810
39615W        W 9430  36.954  24.045  13.465
39616W        W 9431  20.237  26.523   0.753
39617W        W 9432   4.399  43.509  12.857
39618W        W 9433  35.387  12.280   2.793
39619W        W 9434  16.569  26.490  12.538
39620W        W 9435  40.000   8.278  12.371
39621W        W 9436  16.276  32.459   1.305
39622W        W 9437  32.521  18.672   2.884
39623W        W 9438  23.214  32.098  14.375
39624W        W 9439  41.792   8.229  11.972
39625W        W 9440   3.917   5.224  14.850
39626W        W 9441  12.801  36.915  11.066
39627W        W 9442  40.417   2.408  14.851
39628W        W 9443  38.332   6.338  13.874
39629W        W 9444  10.319   0.824  11.547
39630W        W 9445  42.885  10.805   3.813
39631W        W 9446  10.842  17.178   2.380
39632W        W 9447  11.177  17.788  10.435
39633W        W 9448   7.809  23.124   2.233
39634W        W 9449  10.339  11.686   2.668
39635W        W 9450  31.061  37.347  13.928
39636W        W 9451  15.644  14.321   1.842
39637W        W 9452  33.090   1.345  13.333
39638W        W 9453  27.048  28.472   0.328
39639W        W 9454  27.588  27.110  14.913
39640W        W 9455  15.784  34.530  13.416
39641W        W 9456   1.888  13.296   4.268
39642W        W 9457  12.127  23.530  12.579
39643W        W 9458  44.488  12.795  14.967
39644W        W 9459  28.133  42.831   1.445
39645W        W 9460  21.036  15.323  12.834
39646W        W 9461  12.208  44.965   4.754
39647W        W 9462  32.079   6.810   2.254
39648W        W 9463  24.666  43.000   0.726
39649W        W 9464   0.482  31.016   1.221
39650W        W 9465   9.805   3.268   2.346
39651W        W 9466  39.534   2.257  13.529
39652W        W 9467  14.673   1.808  12.014
39653W        W 9468  22.730  43.923   9.994
39654W        W 9469   7.264  44.832  12.990
39655W        W 9470  20.706   6.225   4.135
39656W        W 9471  34.420  25.027  11.384
39657W        W 9472   0.807  22.056  14.828
39658W        W 9473  39.446   8.235  12.060
39659W        W 9474  11.180  39.866  14.410
39660W        W 9475  42.839  40.536   3.301
39661W        W 9476   4.303  22.634   1.774
39662W        W 9477   6.806  44.274  11.985
39663W        W 9478   7.687  41.037   3.701
39664W        W 9479  17.673  32.994  12.515
39665W        W 9480  42.839  15.096  11.445
39666W        W 9481  43.838  23.684  14.341
39667W        W 9482  12.805  44.428  12.974
39668W        W 9483  19.225  28.094   4.651
39669W        W 9484  22.167  36.845  13.813
39670W        W 9485  42.796  32.537  11.606
39671W        W 9486  28.634  33.607   1.767
39672W        W 9487  20.184   2.430   2.405
39673W        W 9488  11.260  12.291  10.522
39674W        W 9489  18.082  11.766  13.893
39675W        W 9490  28.622   4.396   0.435
39676W        W 9491  27.960  14.205   5.230
39677W        W 9492  30.561  25.018   2.903
39678W        W 9493  33.491  43.909  10.630
39679W        W 9494  41.355  43.951  12.468
39680W        W 9495  14.685  35.031  13.962
39681W        W 9496   5.279  44.956   2.406
39682W        W 9497  37.484  32.060  10.439
39683W        W 9498  18.076  30.912  12.959
39684W        W 9499  35.052  12.179  11.551
39685W        W 9500  21.734  30.650  12.005
39686W        W 9501  38.402   2.848   4.137
39687W        W 9502  19.209  34.046  10.440
39688W        W 9503  14.822  19.148  12.939
39689W        W 9504  15.145  19.704  13.056
39690W        W 9505  42.864  31.906   4.132
39691W        W 9506  28.085  22.164   1.867
39692W        W 9507  14.293  23.666   0.284
39693W        W 9508  19.614  17.586  11.099
39694W        W 9509  12.200  19.656  11.924
39695W        W 9510   8.198  36.028  11.989
39696W        W 9511  19.263  23.719   1.749
39697W        W 9512  33.952  13.638   1.913
39698W        W 9513  31.577  42.940   1.767
39699W        W 9514  21.732  36.390   1.932
39700W        W 9515  34.009  19.594  13.343
39701W        W 9516  27.988  27.089   1.742
39702W        W 9517  39.363   3.941   3.315
39703W        W 9518  31.938  44.009   3.635
39704W        W 9519  26.082  39.407   1.898
39705W        W 9520   7.793  26.477  13.372
39706W        W 9521  35.055  15.270  13.043
39707W        W 9522  22.182  11.256  11.406
39708W        W 9523  10.824  32.074   4.767
39709W        W 9524  39.919  39.973   3.828
39710W        W 9525  11.740  41.863   3.236
39711W        W 9526  32.415  21.559  13.329
39712W        W 9527  43.882   9.832  12.858
39713W        W 9528   6.296  37.932  12.450
39714W        W 9529  42.418  32.115  11.490
39715W        W 9530  15.754  30.417  11.432
39716W        W 9531  26.171   3.952  10.938
39717W        W 9532   4.848  36.006   1.710
39718W        W 9533  29.485  37.577   0.374
39719W        W 9534  32.059  18.757   4.183
39720W        W 9535  36.939   6.683   1.231
39721W        W 9536   5.304  22.053  14.957
39722W        W 9537   2.306  31.110   1.303
39723W        W 9538  13.783  20.698  14.760
39724W        W 9539  44.914  30.080  13.475
39725W        W 9540  29.547  17.698  12.572
39726W        W 9541  21.168   4.775  10.109
39727W        W 9542  27.996  22.682   4.784
39728W        W 9543  31.488  13.762   1.446
39729W        W 9544  36.941  33.567  12.554
39730W        W 9545   4.250   5.760   4.639
39731W        W 9546   4.342   7.849   2.825
39732W        W 9547  25.644  33.379  10.152
39733W        W 9548  19.607  17.649  11.591
39734W        W 9549  33.428  22.714  13.930
39735W        W 9550  44.293  44.405  13.364
39736W        W 9551  32.637  18.689   3.736
39737W        W 9552  17.592  40.045   1.445
39738W        W 9553  26.538  28.508  12.014
39739W        W 9554  38.560   3.231   0.866
39740W        W 9555  40.486  32.575  14.990
39741W        W 9556  27.466  37.414  12.831
39742W        W 9557   7.251  43.011   2.876
39743W        W 9558  42.976  34.429  14.453
39744W        W 9559  30.117   9.345   1.247
39745W        W 9560  38.955   3.261  11.903
39746W        W 9561   9.752  28.503   4.669
39747W        W 9562  27.603  19.581  14.323
39748W        W 9563  32.504  43.938   1.363
39749W        W 9564  26.006  25.586   1.239
39750W        W 9565  42.955   0.750   5.108
39751W        W 9566   2.902  27.063   3.653
39752W        W 9567   0.393  15.715  12.548
39753W        W 9568  37.549   4.264  13.972
39754W        W 9569   6.881  29.141   0.296
39755W        W 9570  16.614  39.904  13.415
39756W        W 9571  11.362  22.056   1.874
39757W        W 9572  16.278  32.131  12.355
39758W        W 9573  37.580  10.694   1.918
39759W        W 9574  42.950  43.394   2.273
39760W        W 9575  19.671  10.842   0.874
39761W        W 9576  22.550  35.105  11.594
39762W        W 9577  43.283  20.525  14.427
39763W        W 9578  42.015  35.036   2.700
39764W        W 9579  16.120   7.227   2.258
39765W        W 9580  44.414  22.542  10.641
39766W        W 9581   9.250  10.164   4.284
39767W        W 9582   5.226  33.397   4.675
39768W        W 9583  31.001  15.247  12.560
39769W        W 9584  10.264  37.571   9.966
39770W        W 9585  17.102  15.299  12.517
39771W        W 9586  41.327  31.106   5.277
39772W        W 9587   2.936  41.434  11.040
39773W        W 9588  24.675   0.266  12.074
39774W        W 9589  24.577  10.144   1.757
39775W        W 9590  39.812  22.693  14.965
39776W        W 9591  27.636  24.138   1.815
39777W        W 9592  10.214  39.405  13.964
39778W        W 9593  26.146   6.745   2.324
39779W        W 9594  15.647  18.718   0.285
39780W        W 9595  29.933  28.652   4.345
39781W        W 9596  21.541  27.638  14.852
39782W        W 9597  29.056  13.316   4.120
39783W        W 9598  25.594  24.042  11.385
39784W        W 9599  29.059  15.651   0.302
39785W        W 9600  26.184   6.410   2.778
39786W        W 9601   3.452  44.929   1.780
39787W        W 9602   1.937  40.054   0.300
39788W        W 9603  29.165  22.701  11.500
39789W        W 9604  32.537   1.407   2.702
39790W        W 9605  20.040  18.785   2.730
39791W        W 9606   6.306   7.295  11.860
39792W        W 9607  25.194  17.219  13.029
39793W        W 9608  10.853   5.770  13.464
39794W        W 9609  44.379  16.158   1.811
39795W        W 9610  10.149  23.607  12.827
39796W        W 9611  37.396   0.902  10.909
39797W        W 9612  15.255  22.553  13.381
39798W        W 9613  17.701  40.525  13.481
39799W        W 9614  12.736  11.257   3.716
39800W        W 9615  40.456  20.768   0.852
39801W        W 9616  40.053  42.989   0.739
39802W        W 9617  24.190  26.674  10.000
39803W        W 9618  13.289   0.382  14.458
39804W        W 9619   0.261   5.417  13.821
39805W        W 9620  39.033  37.403  12.040
39806W        W 9621   0.958  39.482  14.973
39807W        W 9622  22.566  14.692  12.867
39808W        W 9623  19.052  39.352  12.046
39809W        W 9624  38.979  14.789   1.753
39810W        W 9625  18.650  35.437   2.378
39811W        W 9626  18.558  32.508   1.850
39812W        W 9627  24.724  12.645  11.957
39813W        W 9628  38.394  25.127   4.233
39814W        W 9629  29.142  20.091   1.799
39815W        W 9630  39.998  43.956   3.213
39816W        W 9631  32.407  17.724   4.354
39817W        W 9632  31.565  17.237  13.347
39818W        W 9633  11.665  30.133   0.444
39819W        W 9634  36.943  40.431  11.394
39820W        W 9635  40.489  31.926   9.998
39821W        W 9636  22.595  40.051  10.495
39822W        W 9637  10.268  21.093  10.107
39823W        W 9638  12.849   2.850   4.795
39824W        W 9639  20.140  44.435   4.693
39825W        W 9640  39.455  26.137  14.477
39826W        W 9641  37.972  14.100  12.837
39827W        W 9642  39.966  34.375  11.421
39828W        W 9643  13.215  21.242   4.133
39829W        W 9644   3.414  11.205   0.885
39830W        W 9645  30.574   5.738   0.252
39831W        W 9646  17.252  21.647  13.344
39832W        W 9647  26.122  11.784   3.382
39833W        W 9648  43.010  24.563   0.887
39834W        W 9649  21.156  17.241   2.775
39835W        W 9650   1.284  31.084  11.573
39836W        W 9651  35.506  38.043   2.771
39837W        W 9652   7.244  24.493  14.798
39838W        W 9653  33.589  10.240   3.323
39839W        W 9654  18.071  38.518  13.791
39840W        W 9655   3.905  28.436   3.256
39841W        W 9656  21.623  40.417   1.840
39842W        W 9657  38.066  39.900   0.324
39843W        W 9658  26.977  40.851  12.450
39844W        W 9659  32.511  29.440  13.936
39845W        W 9660  15.729   3.761  11.560
39846W        W 9661  29.987  32.027  13.881
39847W        W 9662  19.177  35.463  14.484
39848W        W 9663  24.158  38.039   3.721
39849W        W 9664  37.555  19.771   2.301
39850W        W 9665   0.784   3.913  11.591
39851W        W 9666   0.471  24.152  10.494
39852W        W 9667  43.978  22.044   1.869
39853W        W 9668  25.057  17.669   1.725
39854W        W 9669  18.145  21.023   2.769
39855W        W 9670   7.403  17.572  14.908
39856W        W 9671  33.563  35.452   4.803
39857W        W 9672  38.474  39.546  12.009
39858W        W 9673  10.771  16.123  10.425
39859W        W 9674  43.825   8.317   3.744
39860W        W 9675  21.253   5.379  13.370
39861W        W 9676  28.174  34.060  11.478
39862W        W 9677  16.243  43.868  13.993
39863W        W 9678  43.835  32.938  14.497
39864W        W 9679  30.956  15.739   0.465
39865W        W 9680  28.053  20.735  14.450
39866W        W 9681  30.640  43.334   2.371
39867W        W 9682  26.692  11.751   0.432
39868W        W 9683  31.426  20.213  12.828
39869W        W 9684  31.143  13.328  11.507
39870W        W 9685  12.772  41.859   0.852
39871W        W 9686  40.950   1.740   1.701
39872W        W 9687   6.342  17.243  11.930
39873W        W 9688  42.316  34.595  13.528
39874W        W 9689   3.767   2.942   1.328
39875W        W 9690   1.470  24.129  12.391
39876W        W 9691   2.285   9.352   2.866
39877W        W 9692   5.377  18.644   2.346
39878W        W 9693  36.406  41.995  12.928
39879W        W 9694  24.663   1.951  12.891
39880W        W 9695  24.068  24.126   2.277
39881W        W 9696  43.823  41.929   2.369
39882W        W 9697  10.809  34.958  12.916
39883W        W 9698  41.511   7.291  10.559
39884W        W 9699  18.547  35.403   3.206
39885W        W 9700  42.820  27.168   3.373
39886W        W 9701  32.135  23.136   3.194
39887W        W 9702  37.504  25.032   2.855
39888W        W 9703   2.256  33.094   1.408
39889W        W 9704  35.547  19.148  12.974
39890W        W 9705  15.147  32.631   2.207
39891W        W 9706   3.430  16.191   0.432
39892W        W 9707  20.166   8.697   1.696
39893W        W 9708   8.333  20.041   3.839
39894W        W 9709  42.925   4.849   2.262
39895W        W 9710   9.179  39.011  10.097
39896W        W 9711  22.662   9.669  12.011
39897W        W 9712  39.860  11.698  13.011
39898W        W 9713   3.389  22.070   1.256
39899W        W 9714  13.153  38.570  10.596
39900W        W 9715   1.920  41.900   3.723
39901W        W 9716  24.662  38.820  12.445
39902W        W 9717  25.666  37.896   2.859
39903W        W 9718  16.647   8.166  13.794
39904W        W 9719   9.646  13.197  11.389
39905W        W 9720   1.968  39.479  10.410
39906W        W 9721  34.871  44.850  13.544
39907W        W 9722  14.797  30.423   1.441
39908W        W 9723  12.832  19.558  13.323
39909W        W 9724  43.336  15.771  10.403
39910W        W 9725  29.607  16.222   2.380
39911W        W 9726  43.955  40.012   1.810
39912W        W 9727  24.494  27.081  14.779
39913W        W 9728  25.022  35.975  10.016
39914W        W 9729  27.515  27.545  13.863
39915W        W 9730   7.393   8.195  12.058
39916W        W 9731  20.558   3.934   1.865
39917W        W 9732  12.838  17.574  11.932
39918W        W 9733  42.802  30.612   4.226
39919W        W 9734  10.860  40.873   0.421
39920W        W 9735  38.393  12.829  10.456
39921W        W 9736  39.822  31.937  11.978
39922W        W 9737  10.333  43.799  10.585
39923W        W 9738  33.549  24.484   2.826
39924W        W 9739  24.091  42.286   4.284
39925W        W 9740  19.180  35.452  11.571
39926W        W 9741  20.532   8.300  14.839
39927W        W 9742  15.244  34.510   4.171
39928W        W 9743  19.768  23.536  10.561
39929W        W 9744  34.989  36.856   2.834
39930W        W 9745  18.600  24.645  13.865
39931W        W 9746   7.860  43.308  10.644
39932W        W 9747  43.932  39.324  11.488
39933W        W 9748  43.818   5.713   3.260
39934W        W 9749  28.440  18.128  12.924
39935W        W 9750  24.653  32.910   4.168
39936W        W 9751  11.323  23.061   3.232
39937W        W 9752  33.047  15.640   2.779
39938W        W 9753  44.953  24.526  12.972
39939W        W 9754  28.582  19.194  12.489
39940W        W 9755  35.014  13.791  12.035
39941W        W 9756  37.918  32.082  11.488
39942W        W 9757  30.595   1.933  12.985
39943W        W 9758  36.965   2.243   4.746
39944W        W 9759  36.454  34.958  14.953
39945W        W 9760   4.221   8.847   4.690
39946W        W 9761  42.517  15.222  13.349
39947W        W 9762  41.948  38.069   0.365
39948W        W 9763  11.203   1.469   4.186
39949W        W 9764  44.286  10.148   0.388
39950W        W 9765   9.670  23.687  12.910
39951W        W 9766   0.301  26.165   2.218
39952W        W 9767   3.221  32.615   4.351
39953W        W 9768  16.088  10.721   2.700
39954W        W 9769  39.448   9.391  12.853
39955W        W 9770  40.975   4.746   4.297
39956W        W 9771  39.818   5.747  12.468
39957W        W 9772  44.402  31.934   2.189
39958W        W 9773  16.124  13.663   0.269
39959W        W 9774   0.934  28.981   3.240
39960W        W 9775  19.694  31.647   3.661
39961W        W 9776  20.205   1.442  14.792
39962W        W 9777  18.188  39.460   0.468
39963W        W 9778  42.443   5.802   4.835
39964W        W 9779   1.432   4.848  13.496
39965W        W 9780  33.027  38.490  12.872
39966W        W 9781  37.421  23.073  10.982
39967W        W 9782  39.896   1.434  11.509
39968W        W 9783  33.906  25.123   0.816
39969W        W 9784  29.015  32.056   3.721
39970W        W 9785  12.658  37.087   4.123
39971W        W 9786  18.119  14.270  12.439
39972W        W 9787   2.268  23.569  12.893
39973W        W 9788  15.698  36.497  11.573
39974W        W 9789   8.265  43.457  11.587
39975W        W 9790   9.651  29.135   4.208
39976W        W 9791  32.089  30.509   1.759
39977W        W 9792  14.801  27.977  13.410
39978W        W 9793   1.765  38.369  10.480
39979W        W 9794  15.752  13.160   0.792
39980W        W 9795  24.225  10.759   2.282
39981W        W 9796   0.262  29.459   1.415
39982W        W 9797  44.432  42.826   3.288
39983W        W 9798   8.258  32.545   3.331
39984W        W 9799  24.622  35.962  13.993
39985W        W 9800  32.015  19.065   2.244
39986W        W 9801  23.074  25.602  14.872
39987W        W 9802  36.453  34.455   0.882
39988W        W 9803  16.797   7.336   2.393
39989W        W 9804  27.502  35.918   1.451
39990W        W 9805   1.790  15.815   0.269
39991W        W 9806  29.107  20.201   1.217
39992W        W 9807  22.169   4.805   4.172
39993W        W 9808  31.501   4.348   3.241
39994W        W 9809  42.906   8.758   4.341
39995W        W 9810  40.402  14.750   3.213
39996W        W 9811   4.720  42.526   4.821
39997W        W 9812  43.867  40.395   3.663
39998W        W 9813  42.433  35.073   2.760
39999W        W 9814  26.185  40.987  12.357
40000W        W 9815  16.215   0.403   2.376
40001W        W 9816   6.786  14.590  14.320
40002W        W 9817  21.223  22.996   4.349
40003W        W 9818   4.736  26.488   2.366
40004W        W 9819  24.222   9.182   2.710
40005W        W 9820  19.138  28.608  12.522
40006W        W 9821  20.115  19.211  13.834
40007W        W 9822   5.707  14.806  10.549
40008W        W 9823  21.641   3.797  13.857
40009W        W 9824  26.052  15.653   0.894
40010W        W 9825  21.738  14.197   3.778
40011W        W 9826  31.132  32.931  12.950
40012W        W 9827  11.272  34.951   1.792
40013W        W 9828  44.318   8.735   0.361
40014W        W 9829   0.304  19.123   4.172
40015W        W 9830  41.442  15.123  13.030
40016W        W 9831  37.874  16.626  11.078
40017W        W 9832  39.881  14.120   5.306
40018W        W 9833   7.403   2.321  13.937
40019W        W 9834  26.573  27.127  14.274
40020W        W 9835  15.099  36.098   0.877
40021W        W 9836  28.629  29.600  13.033
40022W        W 9837  33.072  34.478   2.411
40023W        W 9838  26.665  44.456   2.230
40024W        W 9839   7.907  36.454  14.981
40025W        W 9840  43.374  12.323  14.299
40026W        W 9841   6.231  23.550   4.186
40027W        W 9842   5.220  25.995   4.236
40028W        W 9843   8.281  13.636  14.765
40029W        W 9844  26.961   4.892  14.292
40030W        W 9845  37.031  36.034   3.176
40031W        W 9846   0.923  12.855   0.273
40032W        W 9847  21.172  27.057   0.465
40033W        W 9848  16.101   9.840  11.411
40034W        W 9849  17.207   8.195  11.882
40035W        W 9850  29.641  34.483  13.000
40036W        W 9851  28.993  35.572   4.177
40037W        W 9852  36.951  22.527  13.323
40038W        W 9853  34.009  44.487   3.361
40039W        W 9854   8.849  35.467  11.855
40040W        W 9855  33.393  36.063   0.830
40041W        W 9856  37.000  42.847  14.455
40042W        W 9857  33.085  35.867  12.975
40043W        W 9858   5.871  35.908   4.199
40044W        W 9859  38.532  16.629  11.006
40045W        W 9860  44.791  10.662  10.450
40046W        W 9861   0.823  42.456   3.716
40047W        W 9862  15.582  31.450   0.422
40048W        W 9863  22.596   7.309   3.180
40049W        W 9864  27.597  44.477   3.257
40050W        W 9865   8.721  28.936   4.243
40051W        W 9866  13.810  36.465  14.439
40052W        W 9867   2.751   7.287  10.502
40053W        W 9868  32.049  20.262   5.263
40054W        W 9869  34.077   2.287   2.254
40055W        W 9870  37.842   7.895   2.317
40056W        W 9871  28.473   8.781  11.407
40057W        W 9872   5.353   2.942  11.582
40058W        W 9873  12.610  35.098   4.799
40059W        W 9874  21.738  16.730   2.412
40060W        W 9875  39.415  43.868   3.631
40061W        W 9876  10.361  27.584  11.407
40062W        W 9877   0.452  34.916   0.739
40063W        W 9878  15.769  14.119  11.043
40064W        W 9879  11.690  26.143  12.996
40065W        W 9880  22.045  11.288  14.358
40066W        W 9881  21.114  33.989  12.856
40067W        W 9882  17.194  12.744   1.382
40068W        W 9883   2.914  18.272   4.123
40069W        W 9884   0.437  36.896   0.295
40070W        W 9885  12.816  31.579  12.354
40071W        W 9886  44.931  22.662   2.356
40072W        W 9887  35.901  18.142  12.461
40073W        W 9888  38.963  42.787   3.656
40074W        W 9889  13.825  13.611   1.891
40075W        W 9890  10.825  27.043   4.227
40076W        W 9891   5.753  24.178   4.653
40077W        W 9892  18.178  11.255  13.538
40078W        W 9893  17.074  24.159  10.495
40079W        W 9894  31.898  25.014  11.977
40080W        W 9895  17.070   4.818   0.264
40081W        W 9896   9.191  43.326  14.872
40082W        W 9897   9.258  16.791   4.194
40083W        W 9898   0.323  13.821   0.832
40084W        W 9899  35.582  41.328  14.362
40085W        W 9900  12.155  34.484  14.960
40086W        W 9901  19.574   7.681  11.561
40087W        W 9902   6.868  39.046   4.123
40088W        W 9903  12.660  27.678   0.313
40089W        W 9904  10.292  26.087  10.404
40090W        W 9905   8.843  32.074   0.758
40091W        W 9906  36.519  44.983  11.390
40092W        W 9907  31.535  24.606  11.040
40093W        W 9908   5.313  21.588   4.283
40094W        W 9909   7.209  43.918  14.339
40095W        W 9910  21.674  42.813   2.183
40096W        W 9911  18.694  17.674   0.773
40097W        W 9912   7.787  23.635  13.848
40098W        W 9913  22.644   5.741   2.406
40099W        W 9914   7.411  35.386   2.369
40100W        W 9915  35.450   7.338   1.272
40101W        W 9916  32.563  15.577   3.757
40102W        W 9917  37.930  21.612  13.026
40103W        W 9918  25.212  40.463  10.093
40104W        W 9919  20.623  40.358  12.478
40105W        W 9920  33.996  35.464   2.811
40106W        W 9921   9.873  26.477  12.055
40107W        W 9922  39.454  38.986   1.259
40108W        W 9923  33.401   5.763  10.155
40109W        W 9924  27.160  27.089   2.280
40110W        W 9925   8.662   0.910  14.294
40111W        W 9926  14.191  28.583  11.592
40112W        W 9927  38.467  39.814   4.291
40113W        W 9928  10.805  18.558  11.042
40114W        W 9929  26.490  28.544   3.794
40115W        W 9930   1.978  17.635  13.792
40116W        W 9931  28.164  23.014   2.824
40117W        W 9932  10.301  29.567  11.967
40118W        W 9933  34.436  12.279   2.200
40119W        W 9934  13.298  18.580   2.248
40120W        W 9935  25.542   0.339  14.769
40121W        W 9936  13.793  17.768  13.963
40122W        W 9937  30.080  27.013  14.924
40123W        W 9938  22.670  24.127  11.532
40124W        W 9939  15.755  38.524  11.058
40125W        W 9940   6.388   1.380  13.318
40126W        W 9941   4.344   0.913  14.901
40127W        W 9942  29.942  23.139  12.828
40128W        W 9943   5.406   9.387   3.674
40129W        W 9944  15.293   5.717   3.726
40130W        W 9945  35.463  28.035  12.452
40131W        W 9946  43.917  18.193  11.007
40132W        W 9947  19.159  31.590   4.196
40133W        W 9948   4.288  39.851  13.390
40134W        W 9949  27.548  43.394   2.795
40135W        W 9950  35.943  30.054  12.081
40136W        W 9951  26.459  31.465  10.095
40137W        W 9952  43.457  36.379  11.379
40138W        W 9953  11.251  36.894  12.356
40139W        W 9954   2.892  41.894  14.933
40140W        W 9955   4.821  36.475  10.562
40141W        W 9956  19.147   2.297  11.520
40142W        W 9957  21.603  30.950   1.427
40143W        W 9958   4.415  28.586   0.322
40144W        W 9959  37.958  43.994  10.932
40145W        W 9960   1.765  22.032  14.922
40146W        W 9961  26.101  30.990  12.032
40147W        W 9962  20.127   6.234  14.777
40148W        W 9963   3.868  30.463   0.928
40149W        W 9964  20.199  36.878  10.928
40150W        W 9965  40.387  32.895   0.842
40151W        W 9966  23.056  44.776  14.475
40152W        W 9967  41.375  38.009  12.379
40153W        W 9968  16.636  39.857   4.738
40154W        W 9969  25.481  42.499  13.024
40155W        W 9970  17.566   4.937  14.506
40156W        W 9971  11.152   3.396  11.508
40157W        W 9972   8.210   5.421  14.828
40158W        W 9973  42.892   4.763  14.977
40159W        W 9974  11.624  13.236  11.995
40160W        W 9975  16.129  34.541   4.630
40161W        W 9976   2.809  12.786  12.884
40162W        W 9977  12.241  25.600  11.553
40163W        W 9978  12.213  40.050   4.189
40164W        W 9979  35.590  24.026   4.257
40165W        W 9980  14.220   0.422  13.390
40166W        W 9981  33.023  23.630   0.733
40167W        W 9982  44.489  32.118   0.298
40168W        W 9983   7.764   8.761   4.290
40169W        W 9984  19.548  39.526   3.369
40170W        W 9985  28.118  15.319  13.494
40171W        W 9986  28.500   1.263  11.584
40172W        W 9987   9.812  24.658  11.974
40173W        W 9988   2.783  22.696  10.489
40174W        W 9989   0.282   2.421  10.616
40175W        W 9990  30.131  41.523   0.951
40176W        W 9991  43.318  30.552   3.259
40177W        W 9992  12.356  32.035   4.625
40178W        W 9993  29.521   3.310   2.385
40179W        W 9994  21.567  31.471   2.809
40180W        W 9995   5.759   9.806   2.369
40181W        W 9996  32.473  18.146   0.741
40182W        W 9997  36.026  36.025  12.023
40183W        W 9998  44.501  12.818   5.229
40184W        W 9999  35.082  13.124  11.500
40185W        W10000  35.852   8.889  14.789
40186W        W10001   7.369  36.430   1.268
40187W        W10002   3.363   2.347   0.356
40188W        W10003  15.819   7.403   4.115
40189W        W10004   1.308  38.820  13.370
40190W        W10005  42.365  14.259   2.213
40191W        W10006   2.364  11.739   2.685
40192W        W10007  24.101   8.165  11.512
40193W        W10008  42.795  16.163  10.912
40194W        W10009   1.416  43.821   0.743
40195W        W10010  44.400  14.660   1.891
40196W        W10011  36.475  44.918  11.029
40197W        W10012   4.863  39.961   2.373
40198W        W10013  26.144  33.474   4.204
40199W        W10014   5.811  33.036   2.249
40200W        W10015  44.331  36.560   0.421
40201W        W10016  32.540   5.373  11.908
40202W        W10017   8.841  16.787  14.338
40203W        W10018  31.115  21.112   9.932
40204W        W10019  20.060  27.162  11.501
40205W        W10020  33.022  41.943  13.331
40206W        W10021  29.147   4.807   0.861
40207W        W10022  30.969   9.858  13.980
40208W        W10023  42.779  13.641  12.457
40209W        W10024   4.206   4.905   0.872
40210W        W10025  43.009  16.790  12.470
40211W        W10026  28.041  40.028  14.331
40212W        W10027  34.997  19.594  10.130
40213W        W10028  35.887  29.483   2.200
40214W        W10029  36.994   2.757  11.011
40215W        W10030  31.126  25.519  13.959
40216W        W10031  34.459   6.285   4.655
40217W        W10032  26.150  42.524  10.584
40218W        W10033   8.755  38.002   1.935
40219W        W10034   8.844  31.514   2.789
40220W        W10035  36.380  27.044  14.021
40221W        W10036  44.391  39.864  13.992
40222W        W10037  27.673   2.879  12.340
40223W        W10038  37.843  28.080  11.465
40224W        W10039  10.818   4.831  14.512
40225W        W10040  24.484  11.141   0.349
40226W        W10041  18.074  24.109   1.438
40227W        W10042  13.661  14.783   1.436
40228W        W10043  28.494  30.528   2.696
40229W        W10044  23.239  17.601   4.287
40230W        W10045  36.033  30.590   9.988
40231W        W10046  19.182   8.394   1.865
40232W        W10047  27.571   2.919  14.819
40233W        W10048  43.944  35.089  15.000
40234W        W10049  15.167  37.456  13.831
40235W        W10050   9.841  39.945  11.881
40236W        W10051  43.843   5.378  10.978
40237W        W10052  25.506  10.751  10.524
40238W        W10053   9.712  23.093   2.678
40239W        W10054  18.709  33.952   4.834
40240W        W10055  31.902  32.093  10.611
40241W        W10056  15.780  33.037  10.056
40242W        W10057  12.155  29.109  12.062
40243W        W10058  15.140  42.823   0.926
40244W        W10059  30.971  24.161   4.248
40245W        W10060   0.273  23.018  13.794
40246W        W10061  12.705  38.388  14.922
40247W        W10062  28.575  15.682  13.464
40248W        W10063  12.765  20.718   3.675
40249W        W10064  10.706  13.222  10.916
40250W        W10065  29.641  34.988   4.813
40251W        W10066  15.311  23.225  13.456
40252W        W10067  17.778   6.417   1.367
40253W        W10068   5.810  15.295  12.392
40254W        W10069  24.650  30.003  12.981
40255W        W10070  28.546  23.610  11.391
40256W        W10071  14.176  13.265  14.326
40257W        W10072  30.130  32.473  13.456
40258W        W10073  27.488   7.228  11.018
40259W        W10074  28.501   3.946   3.387
40260W        W10075  27.539   4.357   1.258
40261W        W10076  24.623  24.218  10.975
40262W        W10077   4.298  11.782  13.910
40263W        W10078  23.613  36.426  13.918
40264W        W10079  40.471   0.807  14.916
40265W        W10080  39.399  18.673   1.282
40266W        W10081  19.046  38.425   0.750
40267W        W10082   3.416  37.065   4.649
40268W        W10083  12.147  13.145  10.619
40269W        W10084  10.847   2.346  14.030
40270W        W10085  37.477   1.859  12.060
40271W        W10086  14.296  40.511  14.979
40272W        W10087  40.822  17.207   1.429
40273W        W10088  29.947  36.954   3.344
40274W        W10089  29.588  10.378  14.876
40275W        W10090  23.621  28.161   4.818
40276W        W10091   4.371  10.327   2.770
40277W        W10092  44.914  38.951  13.386
40278W        W10093  39.923  39.981   2.870
40279W        W10094  25.204   6.905  14.031
40280W        W10095  44.355  20.625   0.803
40281W        W10096  42.460  13.345   3.364
40282W        W10097  28.958  36.456  11.895
40283W        W10098  14.747  29.588   3.159
40284W        W10099   4.726  13.158   2.732
40285W        W10100  11.228  33.565  11.475
40286W        W10101  40.888  14.755  10.453
40287W        W10102  10.307  30.437   0.838
40288W        W10103  42.845  21.195   4.237
40289W        W10104   5.204  22.629  12.516
40290W        W10105  31.450   7.771  10.499
40291W        W10106  37.854  41.462  13.457
40292W        W10107  40.432  14.274   1.249
40293W        W10108  12.332  36.471  13.051
40294W        W10109  26.674  35.900   4.666
40295W        W10110   0.985  24.720  11.506
40296W        W10111  33.557  19.247   3.676
40297W        W10112  37.072  17.160  11.966
40298W        W10113  30.983  26.014   0.434
40299W        W10114  17.642  29.444  14.773
40300W        W10115  10.315   7.318  13.535
40301W        W10116  31.582  14.306   2.281
40302W        W10117   1.316  18.237   4.288
40303W        W10118  24.070  11.157  10.630
40304W        W10119  28.129  41.991  12.440
40305W        W10120   9.771  19.617  14.479
40306W        W10121   4.872   4.907  12.844
40307W        W10122  13.640  20.597  12.927
40308W        W10123  25.557   1.783   3.842
40309W        W10124  30.645  31.495  14.337
40310W        W10125   8.224   5.274  12.835
40311W        W10126  43.393  38.442   0.824
40312W        W10127  42.947  34.985   1.234
40313W        W10128  34.401   9.803  14.972
40314W        W10129  39.892  32.985  10.592
40315W        W10130  41.904  22.612  12.550
40316W        W10131   3.869  43.919   3.736
40317W        W10132  31.628  39.345   1.216
40318W        W10133  16.123  13.834  10.896
40319W        W10134  16.811  18.229   4.637
40320W        W10135   9.284   4.336  11.991
40321W        W10136   2.315  33.608  12.005
40322W        W10137   2.904  25.627  12.536
40323W        W10138  35.473  38.543   4.833
40324W        W10139  18.719   6.256  11.418
40325W        W10140  30.103  40.462  12.012
40326W        W10141  18.115   3.297   0.770
40327W        W10142  36.580  38.881   3.807
40328W        W10143  10.773  42.941  11.586
40329W        W10144  20.227  17.222  12.826
40330W        W10145  14.149  18.681  12.076
40331W        W10146  34.954  14.157  12.096
40332W        W10147  43.771  41.307  14.295
40333W        W10148  25.126  23.162   0.775
40334W        W10149  22.073   8.345   2.400
40335W        W10150  22.663  13.717   0.380
40336W        W10151  12.791  43.392   1.368
40337W        W10152  21.690  36.952  12.565
40338W        W10153   6.678  42.964   3.326
40339W        W10154  18.603  13.835  13.355
40340W        W10155   7.179  37.003  11.397
40341W        W10156   0.282  29.539   1.914
40342W        W10157  23.136  42.496  11.544
40343W        W10158  14.206  10.831   2.819
40344W        W10159  17.087  14.289  12.394
40345W        W10160  32.966  26.631  14.972
40346W        W10161   7.393  32.984   4.243
40347W        W10162  30.564  17.594  13.837
40348W        W10163  32.611  21.145   4.690
40349W        W10164  33.455  13.250   2.848
40350W        W10165  35.398  22.529   1.808
40351W        W10166   2.749  13.211  10.929
40352W        W10167  43.019  34.511   4.292
40353W        W10168  13.765  22.246  13.411
40354W        W10169  21.662  39.552  14.394
40355W        W10170  23.595  30.050  12.421
40356W        W10171  14.094  38.412   2.829
40357W        W10172  44.387   3.865  12.483
40358W        W10173   7.818   9.824   2.711
40359W        W10174  15.150  10.375  12.826
40360W        W10175  40.523  12.844  10.432
40361W        W10176  29.466   3.223  14.467
40362W        W10177   1.913  37.061  12.515
40363W        W10178   3.339  25.076   4.348
40364W        W10179  23.635  30.942  11.498
40365W        W10180  41.400  32.624  14.864
40366W        W10181  22.703  19.683  14.447
40367W        W10182   6.319  38.865   9.935
40368W        W10183  38.943  30.578  10.080
40369W        W10184   7.665  34.905   4.313
40370W        W10185  38.379   4.420  10.576
40371W        W10186  19.672  22.716   1.220
40372W        W10187  37.403  34.569   4.625
40373W        W10188  34.446  12.165   0.761
40374W        W10189  19.189   9.646  13.821
40375W        W10190  13.798  28.543  13.362
40376W        W10191  32.612  10.312   3.720
40377W        W10192  16.806  19.545  13.006
40378W        W10193  41.533   2.449  13.348
40379W        W10194  32.135  37.852  12.535
40380W        W10195  36.874   1.785  11.887
40381W        W10196  33.886  34.912   4.768
40382W        W10197  35.500   1.469  13.362
40383W        W10198  38.561  37.376   2.816
40384W        W10199   3.808   8.690  12.936
40385W        W10200  16.140   2.422  14.489
40386W        W10201  32.398  16.648   2.237
40387W        W10202   6.228  36.547   3.207
40388W        W10203  33.513  37.380  11.045
40389W        W10204  40.984  20.539  11.598
40390W        W10205  11.161  10.799  11.886
40391W        W10206  33.437  22.197   4.682
40392W        W10207  25.218  19.184   3.205
40393W        W10208  29.010   2.780  11.913
40394W        W10209  17.169   6.753   1.903
40395W        W10210   5.860   3.861   2.379
40396W        W10211  41.864  34.404   4.276
40397W        W10212  27.193  31.416   4.180
40398W        W10213  25.533  33.604   1.301
40399W        W10214  11.727  28.105   3.270
40400W        W10215  38.334  19.761   0.429
40401W        W10216  14.250  32.423   0.921
40402W        W10217  30.653  22.219   2.291
40403W        W10218  37.885   1.360  12.978
40404W        W10219  10.861  20.555  13.934
40405W        W10220  16.575   9.676   3.313
40406W        W10221  21.622  39.044  10.158
40407W        W10222   2.904   5.436   0.946
40408W        W10223   3.234  20.191  11.954
40409W        W10224  43.485  14.249  14.970
40410W        W10225  13.197   1.441   2.223
40411W        W10226  21.558  24.074  12.913
40412W        W10227  18.082  36.350   1.347
40413W        W10228  43.510  21.708  14.807
40414W        W10229  12.780   8.366   4.337
40415W        W10230  44.827   7.249   0.377
40416W        W10231   3.735  42.842   4.685
40417W        W10232  24.063  31.065  14.905
40418W        W10233  31.060  14.267   2.802
40419W        W10234   0.966  18.633  14.808
40420W        W10235  38.495  41.039   2.793
40421W        W10236  33.605   8.855  13.020
40422W        W10237  20.062  16.695  10.937
40423W        W10238  18.133  18.767   3.692
40424W        W10239  19.613  17.699   2.239
40425W        W10240  31.913  40.885   1.866
40426W        W10241  38.473   8.784  13.006
40427W        W10242   9.829  20.752  12.914
40428W        W10243  22.159   9.675  13.331
40429W        W10244  26.652  36.893  12.354
40430W        W10245   9.848   2.292   2.810
40431W        W10246   2.734  38.502   3.702
40432W        W10247  16.172  36.382   4.342
40433W        W10248   9.337  39.981   4.232
40434W        W10249   7.764  37.966   0.769
40435W        W10250  34.948  14.263  13.792
40436W        W10251  33.540   1.819  10.595
40437W        W10252  22.194  42.846  12.434
40438W        W10253   9.292  17.640  10.632
40439W        W10254  10.790  10.849   0.450
40440W        W10255  17.557  32.102  11.561
40441W        W10256  15.684  43.852   3.785
40442W        W10257  21.756  44.945   1.293
40443W        W10258   8.787   8.816  14.979
40444W        W10259  28.178  12.652  14.942
40445W        W10260  33.462  28.182   0.356
40446W        W10261  41.497  25.714   3.307
40447W        W10262  27.146  43.439  10.590
40448W        W10263  18.260   6.725  12.383
40449W        W10264  32.989   6.818  13.433
40450W        W10265  16.584  30.636  11.128
40451W        W10266  28.947  15.089  11.056
40452W        W10267   6.317  11.218   3.773
40453W        W10268  43.506  21.110   0.823
40454W        W10269   6.733  38.341  14.491
40455W        W10270  20.750  34.531   3.376
40456W        W10271  16.721   8.398   3.862
40457W        W10272  25.694  23.209  13.868
40458W        W10273   9.308  22.997  11.578
40459W        W10274  27.662  11.742   2.818
40460W        W10275  43.910  42.877  13.320
40461W        W10276  30.972  31.642  12.900
40462W        W10277  40.309  13.237   2.357
40463W        W10278  29.567  25.575  12.473
40464W        W10279  15.100  39.436   0.462
40465W        W10280   1.765   9.290   2.328
40466W        W10281   1.784  27.450   2.351
40467W        W10282  38.334  40.033   3.235
40468W        W10283  28.043  32.614  14.876
40469W        W10284  31.042  24.984   0.848
40470W        W10285  14.164  43.923   4.726
40471W        W10286  13.837  41.874  11.899
40472W        W10287  23.080  26.514  14.834
40473W        W10288  23.197  32.026   4.750
40474W        W10289  12.348  18.270   0.285
40475W        W10290  44.306   7.885  14.981
40476W        W10291  29.603  18.147   4.151
40477W        W10292  17.716  10.343  12.909
40478W        W10293   7.255  18.287   2.710
40479W        W10294  23.176  11.636  14.804
40480W        W10295  39.364   8.812   5.660
40481W        W10296  21.539  25.036  14.511
40482W        W10297  37.889  39.960   1.888
40483W        W10298  24.494  37.962  10.091
40484W        W10299  11.257  42.904  14.822
40485W        W10300   5.424   6.307  10.957
40486W        W10301  25.160   8.306  14.864
40487W        W10302  32.561  24.671  11.485
40488W        W10303  26.004   3.216   4.654
40489W        W10304  36.427  11.314   4.644
40490W        W10305  29.429   4.789  14.374
40491W        W10306  14.191  30.572   2.783
40492W        W10307  14.776  25.110  11.102
40493W        W10308  21.679   2.379  10.635
40494W        W10309  17.253  19.631   5.182
40495W        W10310  23.620  16.299   4.679
40496W        W10311  18.757  30.416  14.985
40497W        W10312   1.843  36.356   5.128
40498W        W10313   8.288  32.982   1.212
40499W        W10314  17.634  16.085   1.905
40500W        W10315  33.524  33.591   4.327
40501W        W10316  39.022  29.624   2.818
40502W        W10317   9.667  16.240   4.756
40503W        W10318   0.922  19.253   1.697
40504W        W10319  19.257  16.163  11.472
40505W        W10320  10.138  32.983  14.459
40506W        W10321  19.170  19.237   1.778
40507W        W10322   2.249  20.637   1.310
40508W        W10323   6.781   3.902  14.393
40509W        W10324  22.225  16.231  12.452
40510W        W10325   4.259  38.505   0.923
40511W        W10326  28.998  12.627  13.385
40512W        W10327  33.100  16.161   0.852
40513W        W10328  40.322  37.030  10.489
40514W        W10329   4.343   0.460  10.418
40515W        W10330  19.675  12.291   3.736
40516W        W10331   2.369  14.736  13.805
40517W        W10332  32.439  15.282  10.422
40518W        W10333   0.805   8.328   1.855
40519W        W10334  28.536  37.930   0.817
40520W        W10335  42.517  34.411  11.555
40521W        W10336   5.853   7.374   4.147
40522W        W10337  17.757  32.584   0.762
40523W        W10338  19.069  16.631   0.284
40524W        W10339   1.370  21.524   1.324
40525W        W10340  37.533  11.158  11.982
40526W        W10341  40.906  20.132   2.270
40527W        W10342   9.314   2.941  11.919
40528W        W10343  41.883  42.326   2.360
40529W        W10344  42.402  42.789  10.509
40530W        W10345  16.196   2.939   1.880
40531W        W10346  16.703  39.971  10.414
40532W        W10347  21.061  29.055  11.025
40533W        W10348  41.462  38.866   4.125
40534W        W10349   8.803  29.982   4.218
40535W        W10350  15.194  16.269  11.912
40536W        W10351  30.443  35.494  12.532
40537W        W10352  37.369  28.668  11.071
40538W        W10353   4.266  25.562  12.339
40539W        W10354  42.932   1.977   2.822
40540W        W10355  35.373  26.169   4.136
40541W        W10356  19.046  29.472   2.271
40542W        W10357  20.672   6.774   2.783
40543W        W10358  18.624  34.031  11.585
40544W        W10359  32.981  42.854   2.409
40545W        W10360  36.028  36.455   1.861
40546W        W10361  40.984  16.109  14.367
40547W        W10362  10.683  16.703   9.922
40548W        W10363  39.994  33.550  13.964
40549W        W10364  27.084  43.440   0.351
40550W        W10365   9.824  18.227  11.496
40551W        W10366  41.328  40.342   3.708
40552W        W10367  39.029  24.116   4.617
40553W        W10368  31.595  14.588   3.246
40554W        W10369  37.063  22.517   2.318
40555W        W10370  35.965  20.207  12.472
40556W        W10371   6.348   8.892  12.555
40557W        W10372  14.109  42.379   4.614
40558W        W10373  21.531  20.744  14.382
40559W        W10374   7.810  26.030  13.852
40560W        W10375  12.258  18.241  12.466
40561W        W10376  10.290  10.792  13.831
40562W        W10377  44.472  42.386   3.266
40563W        W10378  39.430  15.709   3.200
40564W        W10379   1.423  19.669  13.393
40565W        W10380  44.363  37.550  14.970
40566W        W10381  18.124  36.922  10.932
40567W        W10382  44.324  22.548  14.954
40568W        W10383  23.721  22.606   2.259
40569W        W10384  18.273  26.188  11.609
40570W        W10385  15.130  26.495   1.866
40571W        W10386  29.534  16.761   4.709
40572W        W10387  44.503  17.695   3.157
40573W        W10388  26.492  43.504   1.789
40574W        W10389  12.315   3.810   2.251
40575W        W10390  36.554  37.484  10.012
40576W        W10391  15.772   4.450  12.043
40577W        W10392  34.091   8.859   1.721
40578W        W10393   6.850  22.066  12.040
40579W        W10394  37.028  26.551  12.077
40580W        W10395   3.348   1.354  11.900
40581W        W10396   6.233  17.111  13.513
40582W        W10397  42.481  10.256   2.313
40583W        W10398  29.025   4.943  12.546
40584W        W10399  15.603  33.896  14.338
40585W        W10400   1.955   5.816  13.344
40586W        W10401   1.832  40.455   4.811
40587W        W10402  14.103  36.593  13.477
40588W        W10403   8.767  33.963  12.474
40589W        W10404  39.477  40.419   3.344
40590W        W10405   0.832   1.795  13.483
40591W        W10406  14.699  14.758   4.205
40592W        W10407  42.436  35.035   3.854
40593W        W10408  10.200  35.871  11.072
40594W        W10409   2.249  32.142  12.925
40595W        W10410  44.467   3.745  14.822
40596W        W10411  16.195  14.173  13.834
40597W        W10412   3.865  22.208   0.846
40598W        W10413   2.252  11.184  12.896
40599W        W10414   5.292   1.793  13.367
40600W        W10415  33.002  28.166   2.407
40601W        W10416   2.350   1.787  13.798
40602W        W10417  18.192  12.162   4.754
40603W        W10418  40.048   7.730  13.369
40604W        W10419  29.042  36.906   1.886
40605W        W10420  26.142  26.523  11.012
40606W        W10421  38.355  35.078  13.421
40607W        W10422  24.056  19.590   1.352
40608W        W10423  37.041  14.292   0.476
40609W        W10424   3.435  33.037  14.886
40610W        W10425  31.566  42.389  11.422
40611W        W10426  29.423  38.569   2.325
40612W        W10427  34.896  21.024  11.562
40613W        W10428  13.158  12.156   0.411
40614W        W10429  24.015  40.049  12.405
40615W        W10430  10.790  23.127  11.592
40616W        W10431  25.053  24.488   4.689
40617W        W10432  16.242  19.259  12.989
40618W        W10433  11.815   7.306  12.868
40619W        W10434  44.908   8.304  10.570
40620W        W10435  42.975  41.854  11.400
40621W        W10436   3.418   4.809  13.377
40622W        W10437   2.427   4.423  14.962
40623W        W10438  36.985  13.316   1.772
40624W        W10439   0.784  43.917  14.905
40625W        W10440  24.096   4.754  10.530
40626W        W10441  19.042   3.327  11.433
40627W        W10442  28.991   7.236  13.829
40628W        W10443   0.905   8.344   2.707
40629W        W10444  32.140  44.787   4.717
40630W        W10445  33.929  10.370   0.914
40631W        W10446   9.270  38.406   0.912
40632W        W10447  39.457  38.505   4.729
40633W        W10448  13.731   0.943   2.840
40634W        W10449  18.586  15.248  11.533
40635W        W10450  31.475   5.691   3.313
40636W        W10451  38.373   7.376  14.399
40637W        W10452  23.713  13.238   3.651
40638W        W10453   6.358  42.432  12.508
40639W        W10454  29.597  15.740   4.346
40640W        W10455  25.149  43.956  11.895
40641W        W10456  44.334  12.233  14.840
40642W        W10457  34.976   0.786   2.242
40643W        W10458  38.872  43.789  11.087
40644W        W10459  17.209  30.455  13.880
40645W        W10460  24.014  22.534   4.139
40646W        W10461  35.409  31.411   3.706
40647W        W10462  11.151   1.425   2.394
40648W        W10463  28.162  42.302   3.350
40649W        W10464  37.407  12.139  13.981
40650W        W10465   1.946  14.282  12.055
40651W        W10466  17.725  13.838   1.268
40652W        W10467  33.960   4.375  11.485
40653W        W10468   2.261  41.973   2.235
40654W        W10469   1.300  11.758   2.361
40655W        W10470   6.704   7.774  14.380
40656W        W10471  15.142   3.376   1.234
40657W        W10472   8.340  28.047  13.329
40658W        W10473  23.654  15.086   2.664
40659W        W10474  40.477   9.164   2.336
40660W        W10475  35.381  43.396   2.274
40661W        W10476   1.483  12.138   0.777
40662W        W10477  29.090  43.799  11.126
40663W        W10478  39.894  27.146   1.697
40664W        W10479  24.523  18.229  10.578
40665W        W10480  41.483  29.564   2.759
40666W        W10481  27.040  22.506  13.495
40667W        W10482   7.399  17.631   1.402
40668W        W10483   2.953  17.307   2.867
40669W        W10484  31.035  30.567  11.078
40670W        W10485  25.088  26.046   1.843
40671W        W10486  35.881  10.156   1.332
40672W        W10487  18.252  40.954  13.504
40673W        W10488   3.264  43.008   3.329
40674W        W10489  43.768  39.387  13.936
40675W        W10490  33.091  16.146   2.385
40676W        W10491  21.165  36.479   5.316
40677W        W10492  26.168   7.881  12.526
40678W        W10493   6.240  16.681   3.690
40679W        W10494   4.293   4.420  14.449
40680W        W10495  13.644   9.338   1.262
40681W        W10496  26.134  29.444  13.881
40682W        W10497   5.249  14.273   0.764
40683W        W10498  15.164  24.032  11.482
40684W        W10499   1.334  28.491   2.301
40685W        W10500  41.389  25.174  11.377
40686W        W10501  14.707  13.644  14.927
40687W        W10502  41.908  19.549   4.633
40688W        W10503   6.201  33.114   3.853
40689W        W10504   8.713  30.949  13.330
40690W        W10505  29.089  11.325  12.980
40691W        W10506  40.033   8.403   4.213
40692W        W10507  40.454  11.746   1.278
40693W        W10508  38.005  14.792   4.629
40694W        W10509  20.066  30.013  14.471
40695W        W10510  37.522  43.912   3.302
40696W        W10511  31.969  20.029  12.043
40697W        W10512   1.383  26.084   4.734
40698W        W10513  20.605  11.854   0.290
40699W        W10514  32.623   2.849   0.853
40700W        W10515  38.828  43.299  13.796
40701W        W10516  22.709  40.417  13.981
40702W        W10517  17.149  30.430   0.807
40703W        W10518  33.400  13.675  13.042
40704W        W10519  14.789   5.911   3.822
40705W        W10520  15.695  26.078  10.558
40706W        W10521   5.436  37.016  11.405
40707W        W10522  18.563  11.826  13.907
40708W        W10523  16.305   8.286  12.887
40709W        W10524   9.199  27.001   1.218
40710W        W10525  26.520  39.361   0.796
40711W        W10526  26.667  22.173  10.552
40712W        W10527  10.809  13.705   4.662
40713W        W10528  18.702  38.474  14.893
40714W        W10529  35.429  30.024   3.192
40715W        W10530   6.702  14.667   0.929
40716W        W10531  19.674  31.118   4.225
40717W        W10532  39.502  40.892   4.262
40718W        W10533  21.079  41.520  12.933
40719W        W10534  29.584  17.743  14.945
40720W        W10535  35.013  31.625  13.027
40721W        W10536  42.438  14.630  11.399
40722W        W10537  25.671  30.144  10.559
40723W        W10538  12.649  14.333  11.388
40724W        W10539  38.044  38.836  12.984
40725W        W10540   1.481  36.879   3.662
40726W        W10541  21.042  22.632  13.922
40727W        W10542   9.784  19.568   2.418
40728W        W10543  15.755  18.214  10.552
40729W        W10544  15.802  34.091   4.339
40730W        W10545  11.157  37.022  14.415
40731W        W10546   9.704  15.688   5.184
40732W        W10547  17.693   4.231  10.946
40733W        W10548   9.287  37.973   4.342
40734W        W10549  39.454  37.442   4.736
40735W        W10550  30.979   9.383  11.497
40736W        W10551   0.398   8.264  11.906
40737W        W10552  41.421  44.823   4.248
40738W        W10553  40.358  31.116   2.253
40739W        W10554  27.663  13.610   4.750
40740W        W10555  40.458  38.917   4.206
40741W        W10556  34.947  30.456  10.606
40742W        W10557  23.163  15.684   0.867
40743W        W10558  10.198  35.453   2.903
40744W        W10559  26.598  41.982   0.809
40745W        W10560  11.817   0.747   4.248
40746W        W10561   2.904   3.870  10.999
40747W        W10562  41.811   7.340  14.501
40748W        W10563  25.098  15.211   4.755
40749W        W10564  36.844  25.572  14.332
40750W        W10565  40.409  12.350  12.906
40751W        W10566  39.927  18.208   4.714
40752W        W10567   8.399  21.651   0.467
40753W        W10568   5.341   9.824   1.802
40754W        W10569  24.186  36.453   1.876
40755W        W10570  27.526  35.544   2.262
40756W        W10571  27.133  16.085   4.150
40757W        W10572  32.922  33.565   2.739
40758W        W10573  36.558  19.633   1.346
40759W        W10574  42.927  32.493  13.798
40760W        W10575  28.451   8.375  13.998
40761W        W10576   9.775  21.638  12.063
40762W        W10577  29.023  33.897   3.746
40763W        W10578  38.391   3.384  12.929
40764W        W10579  17.670  21.157  10.570
40765W        W10580  33.945   6.234   0.733
40766W        W10581  41.807   5.776   4.342
40767W        W10582  39.509   1.747  11.085
40768W        W10583   9.739  17.793  11.576
40769W        W10584   9.180  27.664   2.291
40770W        W10585  30.057   8.703   0.274
40771W        W10586  27.104   3.335   1.867
40772W        W10587  14.255  43.330   0.422
40773W        W10588  31.015  17.637   4.168
40774W        W10589  39.552  33.046   3.227
40775W        W10590  13.215  29.122  13.347
40776W        W10591   1.261  11.288  10.954
40777W        W10592  14.619  16.115  10.519
40778W        W10593  32.457  19.066   1.284
40779W        W10594  10.153   8.813   5.134
40780W        W10595  38.525  36.530  12.000
40781W        W10596   0.767   5.734  11.043
40782W        W10597  21.564   3.932  14.490
40783W        W10598  30.934  23.229  12.846
40784W        W10599  29.452  44.804  11.862
40785W        W10600  41.943  27.107  11.067
40786W        W10601  19.138  16.180   2.262
40787W        W10602  18.691  36.428  12.462
40788W        W10603   6.864  26.654   1.744
40789W        W10604  43.927  26.199  12.997
40790W        W10605  31.071  33.566   9.963
40791W        W10606   5.801  23.566  10.975
40792W        W10607   6.815  10.805   3.847
40793W        W10608  26.687   4.920   4.805
40794W        W10609  34.049   8.315  11.478
40795W        W10610  24.016  21.679   1.699
40796W        W10611   5.834  27.631   0.327
40797W        W10612   0.311  12.167  14.816
40798W        W10613   5.231  36.956  10.422
40799W        W10614   6.706  40.838  13.336
40800W        W10615  26.597  26.578   0.329
40801W        W10616   8.267  21.729   2.405
40802W        W10617  16.160  18.634   1.916
40803W        W10618  13.143  25.490  10.926
40804W        W10619  33.959   1.793   0.251
40805W        W10620  12.151  10.161   3.832
40806W        W10621  13.781  30.084   2.686
40807W        W10622  12.166  15.745  12.826
40808W        W10623  12.231  40.453   3.739
40809W        W10624  34.921  17.168   3.663
40810W        W10625  12.704   6.361  12.044
40811W        W10626  31.519  20.218  13.366
40812W        W10627   7.906  14.103   0.478
40813W        W10628   8.853  43.889  14.896
40814W        W10629  19.273  41.843   1.399
40815W        W10630  29.023  32.436   1.214
40816W        W10631  34.019  40.508  11.037
40817W        W10632  16.597   1.379   4.115
40818W        W10633  11.305  38.820  10.944
40819W        W10634  22.697  42.885  13.537
40820W        W10635  37.045   5.753  12.955
40821W        W10636   3.403  23.735   4.331
40822W        W10637   1.829  11.729   4.612
40823W        W10638  29.992  24.184  12.518
40824W        W10639   7.864  16.249  14.292
40825W        W10640   7.280  16.643  10.953
40826W        W10641  44.923  13.282  11.055
40827W        W10642  41.964  17.623  11.409
40828W        W10643  19.229  10.726  14.464
40829W        W10644  34.601  30.580   1.327
40830W        W10645  11.210  10.206  11.940
40831W        W10646  40.886  32.489   0.749
40832W        W10647  42.961  29.539  13.528
40833W        W10648  41.293  25.526   0.402
40834W        W10649   3.851   5.258  14.316
40835W        W10650  44.989  11.769  11.997
40836W        W10651  10.214  38.021   4.273
40837W        W10652   8.345   8.279   0.773
40838W        W10653  30.587  20.590  11.104
40839W        W10654  37.424  30.145   1.797
40840W        W10655  21.162  19.226   3.740
40841W        W10656  22.606   1.241   2.412
40842W        W10657  25.009  24.566  14.764
40843W        W10658  40.826   9.694   0.864
40844W        W10659  13.139  19.251   4.597
40845W        W10660  11.688  12.756   0.385
40846W        W10661  18.126  18.066   0.479
40847W        W10662  29.171  32.048  13.857
40848W        W10663  43.935   3.854   2.839
40849W        W10664  14.272  32.570  13.340
40850W        W10665  25.640  42.835  10.638
40851W        W10666   5.253   7.810  14.987
40852W        W10667  30.603  34.035  14.005
40853W        W10668   9.216  17.677   2.364
40854W        W10669  33.557  13.676   0.428
40855W        W10670  32.599  26.681  14.341
40856W        W10671  20.731  24.083  14.333
40857W        W10672  23.731   1.238   3.351
40858W        W10673   9.749  21.056   3.264
40859W        W10674  31.596  31.963   2.721
40860W        W10675  23.095  42.009  13.899
40861W        W10676  41.042  29.112  12.560
40862W        W10677   1.317  30.047  10.911
40863W        W10678  16.249  24.597   2.218
40864W        W10679  28.988  25.625  13.992
40865W        W10680  34.380  42.831   0.246
40866W        W10681  11.358  23.491   4.195
40867W        W10682  14.335  16.072  14.835
40868W        W10683  42.791  12.226  14.814
40869W        W10684  44.920  38.412  14.278
40870W        W10685  10.743  13.610   0.277
40871W        W10686  22.563  42.859  14.396
40872W        W10687   5.843  37.962  13.329
40873W        W10688  25.065   0.834   4.308
40874W        W10689  17.245  23.515   3.753
40875W        W10690   5.356  24.213  14.305
40876W        W10691  26.101  31.551  14.015
40877W        W10692  23.592  17.151   3.740
40878W        W10693  34.562  16.088   3.266
40879W        W10694   0.488  38.367   3.336
40880W        W10695   0.933  36.877  13.420
40881W        W10696  38.056  21.560   2.704
40882W        W10697  42.462  17.559  12.056
40883W        W10698   8.335  12.240  11.537
40884W        W10699  30.571  25.549  12.865
40885W        W10700  20.072  42.386  11.047
40886W        W10701  21.547  12.153  11.523
40887W        W10702  26.476  23.502   3.721
40888W        W10703  23.692  43.491   2.251
40889W        W10704   2.762   8.292  12.414
40890W        W10705  30.498  10.212  11.540
40891W        W10706  31.021   6.757  13.499
40892W        W10707  21.548  11.161   2.353
40893W        W10708  20.273  10.215   4.346
40894W        W10709  19.604   8.734  10.556
40895W        W10710  29.521   6.363   1.700
40896W        W10711  35.934  44.953  11.484
40897W        W10712  19.772   5.271  12.561
40898W        W10713  28.139  38.982   2.858
40899W        W10714  22.038   9.819  14.999
40900W        W10715  24.138  35.387   2.743
40901W        W10716  24.515   6.694   0.414
40902W        W10717  20.164  21.677   4.643
40903W        W10718  21.213  31.498  13.910
40904W        W10719  34.001   4.932  11.033
40905W        W10720  27.113  40.396  13.432
40906W        W10721  17.580  22.591   2.247
40907W        W10722  28.168  32.474  13.364
40908W        W10723  36.913  38.469   1.717
40909W        W10724  28.053  10.724  14.018
40910W        W10725   6.822  18.572   2.227
40911W        W10726  19.041  18.753   1.925
40912W        W10727  43.291  18.780  12.963
40913W        W10728  37.578  38.469  13.918
40914W        W10729  14.678  44.946   1.827
40915W        W10730  27.542  25.097  13.405
40916W        W10731   8.754  17.167   4.670
40917W        W10732   7.227  33.003  13.854
40918W        W10733  44.412  27.469  12.575
40919W        W10734   0.886  29.562  11.077
40920W        W10735   9.791   6.691   3.688
40921W        W10736  41.940  27.187  11.955
40922W        W10737  30.994  24.991   2.719
40923W        W10738  23.065  42.322   1.905
40924W        W10739  29.014   9.270   0.826
40925W        W10740  12.799   4.796   3.771
40926W        W10741  29.443  43.839   0.438
40927W        W10742  12.764  31.648   4.324
40928W        W10743   3.357   0.256  14.479
40929W        W10744  18.223  38.346  14.864
40930W        W10745  31.150  30.577   2.189
40931W        W10746  17.120  24.020  12.987
40932W        W10747   9.302  39.974  11.967
40933W        W10748   5.434   1.764   4.671
40934W        W10749  40.981  28.473  11.085
40935W        W10750  10.711  26.678   2.835
40936W        W10751  36.011  17.272   0.336
40937W        W10752  31.917  44.411   3.685
40938W        W10753   4.857   8.768   3.212
40939W        W10754   3.741   7.821  11.375
40940W        W10755   8.242  20.614   1.750
40941W        W10756  35.513  31.998   4.232
40942W        W10757  31.497  10.142  14.277
40943W        W10758  34.887  30.136   0.795
40944W        W10759  41.977   0.916   1.247
40945W        W10760  12.275  32.114  12.356
40946W        W10761  17.216  20.692   2.833
40947W        W10762  21.687   6.777   0.872
40948W        W10763  36.560  23.176  14.284
40949W        W10764  10.302  23.705  11.107
40950W        W10765  30.638   2.953  10.607
40951W        W10766   8.294   0.453   3.247
40952W        W10767  30.650  15.287   0.856
40953W        W10768  11.767  43.513  14.865
40954W        W10769   3.919  23.043   4.600
40955W        W10770  14.170  13.308   1.916
40956W        W10771  22.582  33.876   1.423
40957W        W10772  36.431  36.518  13.316
40958W        W10773  30.014  28.558   1.275
40959W        W10774   8.740  27.446  14.971
40960W        W10775  25.198   5.722   1.426
40961W        W10776  14.726  44.333  14.439
40962W        W10777  35.426  14.812   4.685
40963W        W10778   4.768   0.442  11.418
40964W        W10779  12.341  41.806  10.918
40965W        W10780  37.395  23.207  13.964
40966W        W10781  35.924   9.271   2.773
40967W        W10782   4.414  23.062   0.875
40968W        W10783  29.116   8.815   2.313
40969W        W10784  28.172  33.419  12.545
40970W        W10785  20.072   0.355   1.919
40971W        W10786  25.085  11.242  13.807
40972W        W10787  39.405  43.389  12.970
40973W        W10788  29.922  19.071   4.791
40974W        W10789  25.020  31.573   1.923
40975W        W10790  37.944   4.945   0.764
40976W        W10791  18.788  23.657  13.433
40977W        W10792   5.928  43.287  14.500
40978W        W10793  19.736  10.275  11.979
40979W        W10794  36.077   3.915   2.310
40980W        W10795   0.851  35.472   1.783
40981W        W10796  33.401  44.329   0.756
40982W        W10797  39.424  32.082  12.404
40983W        W10798  44.787  10.142  11.521
40984W        W10799  27.603  26.661  12.492
40985W        W10800  42.033   7.381   1.391
40986W        W10801  10.683  36.015  14.868
40987W        W10802  10.185  30.642  11.439
40988W        W10803  35.922  36.523   0.816
40989W        W10804  11.865  44.326   5.295
40990W        W10805  36.045   7.814   0.776
40991W        W10806  44.832  29.994   2.353
40992W        W10807  41.901  38.884  11.427
40993W        W10808   1.368  10.374   0.282
40994W        W10809  10.869  17.784  14.849
40995W        W10810   2.827   1.437   2.301
40996W        W10811  22.605  21.123   2.752
40997W        W10812  21.535  20.765   2.207
40998W        W10813  24.068  13.113   4.703
40999W        W10814  43.791  14.151  11.509
41000W        W10815  43.350   1.947  14.311
41001W        W10816   9.818  36.002  12.395
41002W        W10817  16.118  20.189   2.396
41003W        W10818  28.457  40.820   1.695
41004W        W10819   5.822  42.925   4.194
41005W        W10820  40.384  31.450  10.913
41006W        W10821  43.295  41.982  12.904
41007W        W10822  28.651  20.270  12.486
41008W        W10823  20.103  13.183  14.417
41009W        W10824  33.455  16.579   3.643
41010W        W10825  37.053   2.945   2.787
41011W        W10826  16.107  33.401   0.468
41012W        W10827   1.274  24.118   1.923
41013W        W10828  33.425   9.808  11.428
41014W        W10829   9.690  42.937  12.412
41015W        W10830   8.880  18.701  12.995
41016W        W10831  14.739   4.334  10.890
41017W        W10832  22.140   7.233   1.742
41018W        W10833  32.114  30.556   2.882
41019W        W10834   9.665  14.102  14.485
41020W        W10835  15.304  14.318   2.880
41021W        W10836  25.192  40.932  12.031
41022W        W10837  33.545  32.903  12.829
41023W        W10838   0.935  11.247   4.811
41024W        W10839  36.939  11.301  11.454
41025W        W10840   8.705  28.522   1.893
41026W        W10841  28.657  39.547  14.504
41027W        W10842   9.285  24.183   1.912
41028W        W10843  41.517  12.835  14.325
41029W        W10844  14.713  10.364  11.399
41030W        W10845  10.166   0.763   2.675
41031W        W10846   7.711  27.531   1.827
41032W        W10847  11.160  25.056   4.148
41033W        W10848  35.474  12.201  14.293
41034W        W10849  42.367  41.501   3.679
41035W        W10850  15.227  28.561  13.819
41036W        W10851  34.524   5.234   1.932
41037W        W10852  15.325   1.430  12.943
41038W        W10853  23.112  20.752  10.539
41039W        W10854  43.899  21.641   4.653
41040W        W10855  32.629  17.668  10.935
41041W        W10856  39.934   7.678   9.446
41042W        W10857  42.486  28.586   0.817
41043W        W10858  39.319  28.533   3.203
41044W        W10859  35.542  26.071  14.305
41045W        W10860  30.488  32.598  12.090
41046W        W10861   6.279  19.202  12.042
41047W        W10862  43.409  32.885   3.643
41048W        W10863  34.897  25.490  10.588
41049W        W10864  32.487  31.948  11.891
41050W        W10865  41.932   2.894   3.338
41051W        W10866   8.679  36.880   0.315
41052W        W10867  44.459  14.759   1.324
41053W        W10868  42.395  32.960  12.560
41054W        W10869  16.615   5.335  10.945
41055W        W10870  25.970  37.920   4.832
41056W        W10871   3.345   7.874   4.697
41057W        W10872  29.073  42.784   5.190
41058W        W10873  39.339   1.973  13.020
41059W        W10874   2.236  17.145   0.889
41060W        W10875  23.151  15.737   4.213
41061W        W10876  13.732  27.007   0.965
41062W        W10877   4.230   1.410   1.256
41063W        W10878  41.994  25.109   1.244
41064W        W10879   2.921  22.113  11.560
41065W        W10880   9.383  27.954  13.421
41066W        W10881   4.370  24.607  14.468
41067W        W10882  31.447  22.633   4.685
41068W        W10883  39.429  30.489   0.339
41069W        W10884  31.580  30.068   0.874
41070W        W10885  23.169  43.376   2.683
41071W        W10886  39.838  37.473  10.616
41072W        W10887  12.265  23.025  12.968
41073W        W10888   6.817   5.880  13.820
41074W        W10889   9.175  10.772   2.753
41075W        W10890  28.530  16.780   2.693
41076W        W10891  12.797   5.408  13.804
41077W        W10892  23.147  24.170   1.268
41078W        W10893  10.760  27.042  10.419
41079W        W10894  21.030   7.190   2.248
41080W        W10895  37.951  10.878   0.786
41081W        W10896  31.987  32.122  12.065
41082W        W10897  28.515   9.372   0.435
41083W        W10898  28.460  39.977   0.940
41084W        W10899   2.809  39.428  14.963
41085W        W10900  27.172  36.061  10.578
41086W        W10901  11.188  24.567   4.280
41087W        W10902  23.573  26.457   3.157
41088W        W10903   2.964  31.584   3.663
41089W        W10904  31.912   8.873   1.329
41090W        W10905   9.652  18.248   5.138
41091W        W10906  41.466  31.614  10.625
41092W        W10907  24.101   6.329   0.832
41093W        W10908  10.737   2.921   2.775
41094W        W10909   6.348   3.910  13.800
41095W        W10910   0.774  22.607   2.782
41096W        W10911  13.183  44.775   2.226
41097W        W10912  33.038  18.213   1.872
41098W        W10913   7.208  32.107  12.558
41099W        W10914  27.027   2.284  13.350
41100W        W10915  13.695  13.296  12.547
41101W        W10916   3.777   1.917   0.311
41102W        W10917   7.376  15.622   1.864
41103W        W10918  22.012  17.797   3.167
41104W        W10919  39.548  38.446  11.993
41105W        W10920  42.948  42.919  12.369
41106W        W10921  44.858  32.622  10.496
41107W        W10922  36.361  30.943   5.250
41108W        W10923  39.947   4.398  14.873
41109W        W10924  38.823  19.259  13.546
41110W        W10925  30.458  23.004   0.900
41111W        W10926  29.427  32.033  10.592
41112W        W10927  17.207  17.727  11.380
41113W        W10928  28.479  44.461  11.428
41114W        W10929  24.510  42.462  11.511
41115W        W10930  23.506  27.060  12.999
41116W        W10931  33.912   9.672   2.716
41117W        W10932  14.154  32.984   1.858
41118W        W10933  24.604   2.812   0.246
41119W        W10934   9.232  39.963   2.877
41120W        W10935  39.363  33.878   2.188
41121W        W10936  34.998   7.312  13.341
41122W        W10937  34.864   5.913  10.994
41123W        W10938  40.365  22.636  12.375
41124W        W10939  42.372  41.338  13.412
41125W        W10940  35.544  28.931  11.047
41126W        W10941   8.688  26.513  11.594
41127W        W10942   0.339  18.170  14.371
41128W        W10943  37.426   9.652  13.345
41129W        W10944  42.501  36.069   2.701
41130W        W10945  18.207  19.160   3.653
41131W        W10946  26.603   1.390  12.836
41132W        W10947  30.597   9.268  12.475
41133W        W10948  40.007  26.958  14.968
41134W        W10949   4.428  15.261  10.945
41135W        W10950  40.541  22.620  11.435
41136W        W10951  39.550   7.765   4.786
41137W        W10952  36.522  11.360   1.810
41138W        W10953  42.294   1.874   4.759
41139W        W10954  25.035  14.272  10.591
41140W        W10955   4.844  40.046   0.840
41141W        W10956   6.208  13.345  10.470
41142W        W10957  23.021  11.258  14.943
41143W        W10958   7.397  29.091   3.375
41144W        W10959   2.752  27.046   2.764
41145W        W10960  22.162  27.180   4.236
41146W        W10961  35.396  13.712  11.930
41147W        W10962  35.883  44.798   2.824
41148W        W10963  42.963  10.243   5.097
41149W        W10964  34.519  33.965   5.616
41150W        W10965  43.986  24.193   0.427
41151W        W10966   3.872   7.241  10.154
41152W        W10967  16.626  25.709  13.317
41153W        W10968  15.579  26.526   2.183
41154W        W10969  43.927  14.339  12.084
41155W        W10970  30.122  28.534   0.949
41156W        W10971  34.001  16.136  14.875
41157W        W10972  44.367   6.916   3.853
41158W        W10973   3.738   9.777  13.503
41159W        W10974  32.395   5.427  11.609
41160W        W10975  11.633  16.736   5.304
41161W        W10976  21.084  44.958   1.774
41162W        W10977  23.141  16.753  10.415
41163W        W10978  33.602  38.961  13.828
41164W        W10979  12.849  38.422   2.776
41165W        W10980  44.790  26.637   2.382
41166W        W10981  23.613   3.939  14.885
41167W        W10982  43.804  35.074  10.561
41168W        W10983   5.794  11.661   4.640
41169W        W10984  34.021  22.197  10.597
41170W        W10985  19.608  25.075  14.960
41171W        W10986  10.763  34.526  14.005
41172W        W10987  39.545  23.050   1.915
41173W        W10988  24.675  18.740   4.166
41174W        W10989   4.445   4.286  10.957
41175W        W10990  25.577  12.741   4.310
41176W        W10991   9.202  44.486  11.992
41177W        W10992  40.464  28.513   0.459
41178W        W10993  33.481  23.189  12.571
41179W        W10994  20.055  22.033   3.243
41180W        W10995  43.470  23.636   4.310
41181W        W10996   6.732  39.542  13.452
41182W        W10997  20.639   5.885   2.232
41183W        W10998  32.623  40.538   4.209
41184W        W10999   3.264   2.782   1.279
41185W        W11000  32.012  16.196   3.326
41186W        W11001  30.517   8.233  12.985
41187W        W11002  41.376  36.407   0.427
41188W        W11003   1.779  28.017   4.613
41189W        W11004  29.974   2.260  12.359
41190W        W11005  14.128  26.193   2.743
41191W        W11006  39.023   8.370   9.938
41192W        W11007  23.084  39.985  14.013
41193W        W11008  23.557  13.137  13.357
41194W        W11009  19.612  34.870  12.504
41195W        W11010  38.337  33.459   3.830
41196W        W11011  38.898  37.051  12.859
41197W        W11012  44.362  44.907   2.192
41198W        W11013  41.343   0.985  11.482
41199W        W11014  18.212  16.648  12.092
41200W        W11015  18.752  37.559  14.997
41201W        W11016  38.452  22.602  14.896
41202W        W11017  41.532  12.827   4.152
41203W        W11018  38.062  39.865  13.493
41204W        W11019  16.269   7.898   2.395
41205W        W11020  10.157  23.662  13.541
41206W        W11021  17.114   7.704  11.597
41207W        W11022  15.303  37.491   4.228
41208W        W11023  15.786  19.541  14.926
41209W        W11024  38.990  12.669   4.274
41210W        W11025   3.360  36.551   2.390
41211W        W11026  36.022  21.106   3.825
41212W        W11027  22.244  12.328   4.191
41213W        W11028  12.142  38.915  12.428
41214W        W11029  24.090  43.960   1.423
41215W        W11030   2.281  26.059  12.879
41216W        W11031  25.692   1.816   4.741
41217W        W11032  24.647  22.525  13.812
41218W        W11033  12.172  21.241  12.947
41219W        W11034  33.441   6.289   2.305
41220W        W11035   9.822  34.491   0.881
41221W        W11036  44.871  35.947  12.442
41222W        W11037  42.851  13.728   3.385
41223W        W11038  26.683  38.367  11.071
41224W        W11039   0.460  20.080  13.045
41225W        W11040  38.918  28.652   4.139
41226W        W11041  32.061  24.115  11.030
41227W        W11042  33.022  44.325   3.281
41228W        W11043  24.980  44.859  13.998
41229W        W11044  40.304  44.265   4.731
41230W        W11045  21.085  10.335  11.427
41231W        W11046  43.883   5.394   0.756
41232W        W11047  30.161  33.382  10.574
41233W        W11048  35.573   2.465  14.950
41234W        W11049  33.448  33.975   1.380
41235W        W11050  19.213  32.594   0.872
41236W        W11051  14.756   2.233   4.655
41237W        W11052   7.747  13.172  11.106
41238W        W11053  39.422   9.650   3.649
41239W        W11054  26.955  26.960  11.922
41240W        W11055  32.621  10.149   0.760
41241W        W11056  26.065  18.742  10.961
41242W        W11057  21.576  29.058  14.917
41243W        W11058  41.038   0.914   3.240
41244W        W11059  19.102  42.972   4.298
41245W        W11060  19.281  41.385  12.416
41246W        W11061  38.071  35.909  10.524
41247W        W11062  14.629  13.604  13.934
41248W        W11063  43.366  10.816  14.876
41249W        W11064  24.535   3.364  14.024
41250W        W11065   4.418  25.551  14.357
41251W        W11066   7.293  37.884   2.671
41252W        W11067  40.042  15.824   1.275
41253W        W11068  32.451  44.887   3.346
41254W        W11069  35.555  29.084  10.616
41255W        W11070  13.618  44.447   4.274
41256W        W11071  15.750  15.588  12.580
41257W        W11072  41.477  38.983  10.970
41258W        W11073  20.125  40.347   4.297
41259W        W11074   7.740   0.263   9.943
41260W        W11075   4.844   2.258  12.839
41261W        W11076  40.051  16.211   0.783
41262W        W11077   2.435  23.135  10.447
41263W        W11078  27.534   7.692   4.228
41264W        W11079  15.805  13.780  11.610
41265W        W11080  13.749  35.555   1.223
41266W        W11081  17.744  28.004   0.862
41267W        W11082  32.544  32.033  12.829
41268W        W11083  12.737  39.932  10.897
41269W        W11084  36.871  10.284  12.370
41270W        W11085  15.597  43.946   9.969
41271W        W11086  12.282  38.009  14.811
41272W        W11087  16.586  10.173   0.857
41273W        W11088  27.166   6.288  13.949
41274W        W11089   6.401  24.487   3.214
41275W        W11090  28.976   7.369  11.442
41276W        W11091  27.013  13.845   1.248
41277W        W11092  10.353  16.628  13.322
41278W        W11093   8.239  43.820  11.568
41279W        W11094  10.357  27.581   0.338
41280W        W11095   2.225  26.162  12.493
41281W        W11096  23.077  28.665   4.201
41282W        W11097   5.417  14.184   3.792
41283W        W11098   0.423   4.788  12.401
41284W        W11099   1.402  11.747   0.437
41285W        W11100  26.955  35.404   3.305
41286W        W11101   4.730  44.836  10.525
41287W        W11102  26.050  21.042  11.390
41288W        W11103   2.953  27.451   4.341
41289W        W11104  15.301  28.035  13.325
41290W        W11105  44.377  37.064   4.249
41291W        W11106  20.615  24.479   3.837
41292W        W11107  37.470  13.607  13.367
41293W        W11108  23.611  34.427  14.821
41294W        W11109  11.332  19.760  11.083
41295W        W11110  24.614   1.814   4.165
41296W        W11111  36.452  26.544   1.220
41297W        W11112  18.066  35.904  11.596
41298W        W11113   5.312  28.185  13.452
41299W        W11114  19.266  25.012   0.301
41300W        W11115   5.261   5.699   2.347
41301W        W11116   7.202  12.633   0.940
41302W        W11117  14.326   7.379  14.437
41303W        W11118  37.902   0.478  13.817
41304W        W11119  17.616  42.450  11.891
41305W        W11120  31.962  35.876   3.694
41306W        W11121  26.034  38.024   5.153
41307W        W11122  36.412  10.305   1.331
41308W        W11123  31.547  36.906  13.018
41309W        W11124   5.734  44.321   4.837
41310W        W11125  11.160  42.777   3.287
41311W        W11126  31.624   3.368   3.767
41312W        W11127  20.111   9.709  10.459
41313W        W11128  23.047  27.629  11.410
41314W        W11129  29.553   9.271   2.897
41315W        W11130  17.742   2.359  14.004
41316W        W11131  10.324  38.412   0.326
41317W        W11132   0.308  31.011  12.992
41318W        W11133   6.217  38.835  11.571
41319W        W11134  17.645   0.823   0.947
41320W        W11135  43.766  44.265   0.302
41321W        W11136  22.694  34.592   4.749
41322W        W11137  18.255  19.236   1.374
41323W        W11138  41.980  18.244   0.858
41324W        W11139  38.415  31.432  10.639
41325W        W11140   9.160  21.208   4.666
41326W        W11141  41.428  12.756   0.743
41327W        W11142  42.459  43.986  11.877
41328W        W11143  30.572   7.217  14.966
41329W        W11144  27.639   2.419  10.951
41330W        W11145   2.391  15.220   2.179
41331W        W11146  25.486  32.130   5.292
41332W        W11147  40.482  32.411  11.404
41333W        W11148   6.348  14.186   2.690
41334W        W11149  11.754  23.110  13.882
41335W        W11150  36.953  17.166   4.648
41336W        W11151  33.625  39.971   2.735
41337W        W11152  37.983  31.488  14.807
41338W        W11153   6.265  29.012  11.571
41339W        W11154   0.371  18.776   0.247
41340W        W11155  33.081  21.666  11.419
41341W        W11156  31.054  37.833  10.483
41342W        W11157  27.572  17.168  13.887
41343W        W11158  34.468  41.523   2.291
41344W        W11159   4.378   4.289   0.748
41345W        W11160  25.068  31.959   4.717
41346W        W11161  27.613   1.342   3.803
41347W        W11162  21.537   6.348  13.869
41348W        W11163  44.424   1.904   1.765
41349W        W11164  35.414  20.160  10.529
41350W        W11165  20.710  23.139  11.055
41351W        W11166  16.716  44.774   3.364
41352W        W11167  16.637  44.476  14.290
41353W        W11168   8.390   4.836  11.050
41354W        W11169  16.608  42.789  12.444
41355W        W11170  32.012  31.896  11.031
41356W        W11171  42.289  25.637   1.745
41357W        W11172  21.018  11.328   1.927
41358W        W11173  13.683  17.582  13.434
41359W        W11174  35.928  28.439   1.870
41360W        W11175   9.861   7.727   0.271
41361W        W11176  20.037  35.495  13.804
41362W        W11177   1.247   3.338   0.742
41363W        W11178  38.457  30.111   3.212
41364W        W11179  39.889  26.519   2.364
41365W        W11180   7.695  25.185  13.948
41366W        W11181  23.086  25.052  14.364
41367W        W11182   3.753  40.927   2.741
41368W        W11183  41.447  21.086  13.834
41369W        W11184  22.570  33.425  11.538
41370W        W11185   4.845   7.837   2.750
41371W        W11186  15.713  42.325   1.449
41372W        W11187  17.108  28.505  11.120
41373W        W11188  23.208   9.327  14.987
41374W        W11189  25.495   3.368   0.920
41375W        W11190  19.180  41.787  10.975
41376W        W11191  12.249  15.302  11.885
41377W        W11192  37.898  36.845   3.690
41378W        W11193  29.584  18.224  11.008
41379W        W11194  34.036  22.200   1.267
41380W        W11195   3.342  31.576   4.129
41381W        W11196   1.909  26.153  13.342
41382W        W11197   8.885   0.260  10.499
41383W        W11198   4.267  24.140  12.506
41384W        W11199  43.308   6.235   1.894
41385W        W11200   8.302   8.830   4.123
41386W        W11201   9.322   2.368   1.404
41387W        W11202  32.060  28.500  13.316
41388W        W11203   8.319   0.941  11.865
41389W        W11204  20.638  26.655   0.885
41390W        W11205  24.209   8.387  12.877
41391W        W11206  11.303   3.836   3.350
41392W        W11207  35.394  29.502   0.448
41393W        W11208  36.442  15.822  13.397
41394W        W11209  22.128   5.908   3.311
41395W        W11210  10.140  37.532   3.768
41396W        W11211  20.055   3.742  14.944
41397W        W11212  28.049  11.343  10.154
41398W        W11213  33.928  11.156   4.730
41399W        W11214  37.071  28.116  11.439
41400W        W11215  27.170  36.040   0.804
41401W        W11216  36.499   9.751  11.887
41402W        W11217  22.040  42.850   3.290
41403W        W11218  12.613  18.143  11.943
41404W        W11219  31.020  39.360  14.445
41405W        W11220  10.275  33.454   2.233
41406W        W11221  23.624  23.615  13.350
41407W        W11222   5.411  28.459   4.707
41408W        W11223  16.310  31.562  11.079
41409W        W11224   0.891  44.340  14.955
41410W        W11225  12.188  14.265   1.719
41411W        W11226  18.689  31.011   0.266
41412W        W11227  29.479  10.361   9.974
41413W        W11228  17.089  30.958  12.581
41414W        W11229  44.309  12.636   4.656
41415W        W11230  23.129  33.915   1.832
41416W        W11231  21.113  39.414   2.846
41417W        W11232  37.579  33.546  12.944
41418W        W11233   5.845  30.948  10.628
41419W        W11234  27.069  12.693  14.362
41420W        W11235  27.123   4.821   1.410
41421W        W11236  40.491  18.724   2.283
41422W        W11237  39.957  13.283  14.868
41423W        W11238   6.410  30.413  11.569
41424W        W11239  21.731  12.857   3.324
41425W        W11240  35.573  40.527  11.019
41426W        W11241  40.895   7.885  12.361
41427W        W11242   1.464  36.047   2.419
41428W        W11243  41.816  18.765  11.126
41429W        W11244  36.021  28.662  14.401
41430W        W11245  28.950  10.781   0.338
41431W        W11246  23.629   7.741   3.727
41432W        W11247  34.590  24.076   1.873
41433W        W11248   5.322   1.803  14.303
41434W        W11249   2.441  39.317   3.306
41435W        W11250  44.848  32.027  14.471
41436W        W11251  37.394  24.625   1.314
41437W        W11252  34.584  19.779  12.463
41438W        W11253   6.308  19.166  14.431
41439W        W11254   0.345  25.076  13.921
41440W        W11255  18.577  15.820  10.587
41441W        W11256  11.373  10.192  11.454
41442W        W11257  32.423   6.734   1.396
41443W        W11258  41.944  35.449  11.409
41444W        W11259  20.162  25.537   1.748
41445W        W11260  27.120  28.639  11.533
41446W        W11261  40.515  33.987  11.605
41447W        W11262  12.774  30.108  10.535
41448W        W11263  17.261  39.349   3.797
41449W        W11264  39.868  44.370   0.894
41450W        W11265   0.864  41.841  11.592
41451W        W11266  21.745   0.831   3.357
41452W        W11267  24.587   9.834   4.302
41453W        W11268   4.397  25.090  12.975
41454W        W11269  30.606  36.387   0.267
41455W        W11270  27.668  22.580   1.264
41456W        W11271  35.075  20.155   0.345
41457W        W11272  14.168  17.649  13.005
41458W        W11273  39.914  27.131  12.521
41459W        W11274  16.615   0.980   4.655
41460W        W11275  20.645  32.449   0.377
41461W        W11276  19.155  20.274  12.917
41462W        W11277   0.873  15.662   0.824
41463W        W11278  41.880  37.444  13.853
41464W        W11279  10.188   5.321   3.374
41465W        W11280  20.592   1.811   0.750
41466W        W11281   5.895  37.371  13.826
41467W        W11282   2.309  19.143   1.381
41468W        W11283  15.720  10.662  10.404
41469W        W11284   6.209  34.100  14.302
41470W        W11285  17.091  24.508   0.946
41471W        W11286  11.739  44.913   2.361
41472W        W11287  42.486  38.052   1.424
41473W        W11288  21.682  44.942   1.755
41474W        W11289  10.636  44.428  12.972
41475W        W11290  40.324   5.271   3.800
41476W        W11291  13.231  36.354  12.340
41477W        W11292  26.666  35.975   2.857
41478W        W11293  42.893  27.982  11.530
41479W        W11294  32.419  18.582  13.804
41480W        W11295  31.901  27.474   9.983
41481W        W11296  27.030  20.616   2.694
41482W        W11297  33.392   1.439   0.360
41483W        W11298  43.324  15.215   4.213
41484W        W11299  29.929  33.970   1.223
41485W        W11300  29.988  38.996   3.810
41486W        W11301   6.719   5.853   4.698
41487W        W11302  37.575  23.181   2.276
41488W        W11303  14.277  19.636  11.502
41489W        W11304  12.216  16.746  11.427
41490W        W11305  33.472  16.295  12.024
41491W        W11306   4.283  30.449   2.278
41492W        W11307  23.106  34.515  12.402
41493W        W11308   2.269  27.452  11.046
41494W        W11309   8.851  23.138  14.882
41495W        W11310   9.839  20.758  11.472
41496W        W11311  18.139  11.357   0.259
41497W        W11312  18.149   3.853  14.431
41498W        W11313   4.308   7.380  12.578
41499W        W11314  23.178  34.583  13.854
41500W        W11315  15.141  35.887  12.043
41501W        W11316  42.487  44.373   4.737
41502W        W11317  11.225  29.097   0.844
41503W        W11318  35.530   1.946   4.642
41504W        W11319   4.875  17.634   3.372
41505W        W11320  13.757  23.052   1.371
41506W        W11321  44.492  32.085   4.267
41507W        W11322  20.548  10.669  12.368
41508W        W11323  31.639  43.992   2.694
41509W        W11324  10.144  32.608  12.570
41510W        W11325  15.327  24.054  14.804
41511W        W11326  24.109  32.482   2.787
41512W        W11327  14.603  27.601   1.934
41513W        W11328  44.359  40.519   5.291
41514W        W11329  10.639   0.255   4.741
41515W        W11330  23.677  29.118   2.666
41516W        W11331  25.604  43.848   2.314
41517W        W11332   2.842   0.418   4.686
41518W        W11333  19.160   0.952   1.316
41519W        W11334  25.205   2.917  10.607
41520W        W11335  23.062  41.961   1.921
41521W        W11336   3.800   6.279  10.938
41522W        W11337  15.311  11.784   3.834
41523W        W11338  41.394  21.112  11.039
41524W        W11339   8.668  36.503   2.344
41525W        W11340  41.909  41.862  13.374
41526W        W11341  43.350  10.878  12.861
41527W        W11342  34.089  39.341   3.642
41528W        W11343  18.762  33.076   2.298
41529W        W11344   3.361  15.141  14.444
41530W        W11345   5.373  41.976  14.988
41531W        W11346  28.090  35.479   3.260
41532W        W11347  28.679  25.141  14.891
41533W        W11348  15.769  33.877  13.814
41534W        W11349  27.474  34.897  10.433
41535W        W11350  40.953   6.799   3.727
41536W        W11351  31.423  14.636  14.808
41537W        W11352  13.299  35.990  10.129
41538W        W11353  25.620  36.531   0.782
41539W        W11354   1.829  21.736  14.931
41540W        W11355  37.527  42.282   2.861
41541W        W11356   7.407  38.953   0.844
41542W        W11357  41.320  28.119   3.739
41543W        W11358  21.613  39.529  14.789
41544W        W11359   1.848  31.064  12.421
41545W        W11360  40.023  41.930  11.997
41546W        W11361  30.600   1.824   2.270
41547W        W11362  21.625  10.833  14.296
41548W        W11363  36.044  35.580   4.755
41549W        W11364  33.083   1.271   2.347
41550W        W11365  36.055  29.668  14.487
41551W        W11366  14.192  37.951  11.415
41552W        W11367   5.410  26.539   4.641
41553W        W11368  11.791  17.105   4.282
41554W        W11369  21.150   4.752  11.110
41555W        W11370  12.842  25.079   3.346
41556W        W11371  29.153  43.876  10.459
41557W        W11372  43.355  37.410   3.292
41558W        W11373  10.812  20.671   0.368
41559W        W11374  19.743   4.367   4.139
41560W        W11375  36.404  31.404   0.838
41561W        W11376  40.303  13.702  10.492
41562W        W11377   0.445   4.312   0.391
41563W        W11378  43.999  17.672   1.297
41564W        W11379   1.482   8.382  11.936
41565W        W11380   3.940  22.534  12.364
41566W        W11381  35.525   8.693  10.486
41567W        W11382  10.247   9.827   0.435
41568W        W11383   0.267  14.134   0.351
41569W        W11384  24.709  43.320   1.260
41570W        W11385  35.040  36.536  10.585
41571W        W11386   6.739   7.248  12.431
41572W        W11387   7.686  40.963   3.379
41573W        W11388  13.282   2.893  12.553
41574W        W11389  29.021  13.613   1.357
41575W        W11390  39.052  33.532   9.944
41576W        W11391  11.761  19.252  12.542
41577W        W11392  10.745  16.700  14.933
41578W        W11393  25.552  44.284   9.998
41579W        W11394  11.764  10.261   0.310
41580W        W11395   2.393  33.073  14.451
41581W        W11396  11.308   9.381  13.890
41582W        W11397   7.723   3.830   1.763
41583W        W11398   6.200   3.734   2.339
41584W        W11399  30.413  27.596   2.281
41585W        W11400  20.701  36.588  11.920
41586W        W11401  22.198  19.720   3.778
41587W        W11402  31.123  15.589  11.386
41588W        W11403  10.315  12.125   1.778
41589W        W11404  25.008  24.687  12.422
41590W        W11405  26.626  25.999  11.510
41591W        W11406  44.971  15.587  10.916
41592W        W11407   8.797   9.746   2.707
41593W        W11408  10.357  21.643  12.851
41594W        W11409   2.765  41.457  14.953
41595W        W11410  34.928   7.779   1.403
41596W        W11411   5.422  36.963   3.673
41597W        W11412  34.967  40.959  11.493
41598W        W11413   6.794  22.556  10.637
41599W        W11414   6.305  40.507  10.462
41600W        W11415  42.932   9.652  12.426
41601W        W11416  41.828  33.972  11.534
41602W        W11417  12.266  31.075  14.367
41603W        W11418  24.494  30.156   2.701
41604W        W11419  10.867  11.633   2.247
41605W        W11420  16.784  36.971  13.971
41606W        W11421  35.575  19.087  12.023
41607W        W11422   5.236  35.514  14.919
41608W        W11423   6.382  31.949  14.899
41609W        W11424  38.049  18.787   1.899
41610W        W11425  44.917   9.255  14.006
41611W        W11426  10.633  22.250   3.152
41612W        W11427  27.184  24.574  11.495
41613W        W11428  42.379  44.996  13.059
41614W        W11429  21.569  32.957  10.445
41615W        W11430  34.907  14.689   1.430
41616W        W11431  18.073  22.221   4.230
41617W        W11432  20.614  10.723  10.609
41618W        W11433  13.308  43.863  11.933
41619W        W11434  34.074  26.136  12.921
41620W        W11435  13.199  43.942  10.479
41621W        W11436  29.978   1.413   2.665
41622W        W11437   2.789   0.318  14.001
41623W        W11438  21.744  16.702  14.454
41624W        W11439  35.008  13.134  14.404
41625W        W11440  20.557  14.834   1.799
41626W        W11441   4.312  25.509   3.697
41627W        W11442  39.348  30.970  11.855
41628W        W11443  19.128  24.717   2.254
41629W        W11444  39.550  20.689   3.704
41630W        W11445  19.099  20.573  12.946
41631W        W11446  25.690   8.660  12.527
41632W        W11447  27.608   9.835   2.377
41633W        W11448   9.883  26.173  13.850
41634W        W11449  35.392  37.473   2.400
41635W        W11450  39.519  29.432   3.731
41636W        W11451  14.746  35.531  14.347
41637W        W11452  31.416   9.253  10.541
41638W        W11453  13.685  30.589   4.117
41639W        W11454  15.238  43.346   3.251
41640W        W11455  30.635  23.579  10.994
41641W        W11456  11.295   6.906  10.443
41642W        W11457   3.754   1.762   1.772
41643W        W11458  16.234  26.084   0.261
41644W        W11459   4.371  20.184   2.667
41645W        W11460  22.531   3.788  13.933
41646W        W11461  29.070   1.332  14.465
41647W        W11462  19.578   1.350   1.734
41648W        W11463  13.224  10.661   2.711
41649W        W11464  44.799  44.829   2.823
41650W        W11465   5.901  35.405   3.692
41651W        W11466  23.998  30.566   0.811
41652W        W11467  41.528  25.189   3.701
41653W        W11468   3.314   6.226   3.265
41654W        W11469  22.090  11.230   2.740
41655W        W11470  43.353  20.154   1.339
41656W        W11471  10.313  20.763  11.904
41657W        W11472  43.396  44.464  14.285
41658W        W11473   0.273   0.779   1.893
41659W        W11474   2.233  16.695   0.412
41660W        W11475  15.123  17.634   0.808
41661W        W11476  18.290  26.580  11.610
41662W        W11477  24.134  38.016   4.792
41663W        W11478   8.261  23.226  11.120
41664W        W11479  30.033   5.352  14.431
41665W        W11480  39.366  30.522  12.456
41666W        W11481  40.315  19.152   1.254
41667W        W11482  10.188  39.957   9.948
41668W        W11483   4.239  31.443   0.395
41669W        W11484   1.744   4.907  11.372
41670W        W11485   5.871  10.719  11.021
41671W        W11486  33.413   7.791   3.676
41672W        W11487  41.816   6.715  11.433
41673W        W11488  20.723  43.364   0.343
41674W        W11489   0.382  24.058   0.732
41675W        W11490  38.892  17.287   4.703
41676W        W11491  17.614   7.755  10.909
41677W        W11492  37.981   1.443   3.700
41678W        W11493  23.149  10.226   3.248
41679W        W11494  29.430  11.681   5.260
41680W        W11495  12.148   0.867  14.374
41681W        W11496   1.334  13.304  14.837
41682W        W11497  17.118   4.227   2.757
41683W        W11498  29.494  31.601   0.346
41684W        W11499   7.271   6.840  12.486
41685W        W11500  11.202  16.294   3.740
41686W        W11501  35.562   7.360  14.365
41687W        W11502  16.609   7.401  14.388
41688W        W11503  26.551  19.214   4.304
41689W        W11504  36.589   1.878   1.314
41690W        W11505   7.404   8.189  14.349
41691W        W11506  19.550   4.862  14.983
41692W        W11507  28.022   3.332  10.964
41693W        W11508   2.388  37.853   3.204
41694W        W11509  11.276  28.111  10.430
41695W        W11510  28.581  44.817   3.688
41696W        W11511  28.131  43.347   1.237
41697W        W11512  43.798  39.883   0.896
41698W        W11513   1.763  34.476   2.750
41699W        W11514  21.191  19.748  12.866
41700W        W11515  34.014  17.613   1.369
41701W        W11516  28.127  21.049  14.886
41702W        W11517  38.527   1.804  14.456
41703W        W11518  38.984  39.482  14.416
41704W        W11519   3.709  10.379   4.270
41705W        W11520  44.485   6.771  12.535
41706W        W11521  26.198  40.411  13.038
41707W        W11522  10.351  29.051   4.166
41708W        W11523  43.289   2.287  11.439
41709W        W11524  27.637  39.403   4.128
41710W        W11525  32.582  21.676   4.659
41711W        W11526  34.404  32.542   0.243
41712W        W11527   8.706  20.533  14.470
41713W        W11528  15.594   3.405   0.482
41714W        W11529  39.832   3.387   2.850
41715W        W11530  23.586  16.609  14.499
41716W        W11531  12.256  19.713  10.458
41717W        W11532  22.634  24.655   0.243
41718W        W11533  22.147  24.494  14.775
41719W        W11534   1.967  42.789   2.325
41720W        W11535  32.464  11.362   3.704
41721W        W11536  26.035  39.348   3.375
41722W        W11537  33.930  33.396   0.746
41723W        W11538  39.815  44.894  13.458
41724W        W11539  41.435  13.332   0.939
41725W        W11540  27.543   9.833   9.937
41726W        W11541  24.688   5.768  11.466
41727W        W11542  29.007  10.731  11.913
41728W        W11543  21.200  27.177  11.920
41729W        W11544  19.192  35.399  13.802
41730W        W11545  25.628  22.504   4.264
41731W        W11546  25.131  39.052   5.244
41732W        W11547   4.857  19.160   1.247
41733W        W11548   0.788   2.287   0.866
41734W        W11549  23.194   0.400  10.550
41735W        W11550  22.539  37.348  13.899
41736W        W11551  15.142  26.986   2.756
41737W        W11552  39.416  22.007  14.400
41738W        W11553   1.868  19.280  14.979
41739W        W11554  23.736  19.130  14.347
41740W        W11555  10.237  36.399   5.110
41741W        W11556  42.943  26.547   3.207
41742W        W11557  38.498   7.704   2.190
41743W        W11558  42.487   1.742   1.341
41744W        W11559  39.323   3.809  14.406
41745W        W11560  23.497  23.604   3.169
41746W        W11561  10.338  40.473   2.680
41747W        W11562   4.272  20.705   1.257
41748W        W11563   8.830  28.632  12.422
41749W        W11564   3.725   9.294  13.437
41750W        W11565   0.270  27.675   2.868
41751W        W11566   5.193  30.915  11.112
41752W        W11567   4.749  41.825  10.065
41753W        W11568  37.850  26.667  10.474
41754W        W11569  10.863   3.940   0.954
41755W        W11570  14.770  22.050   1.212
41756W        W11571  14.773  10.704   2.227
41757W        W11572   3.396  41.946  14.971
41758W        W11573  39.872   4.711   1.423
41759W        W11574  24.977  18.697  11.403
41760W        W11575  35.471  37.044   4.602
41761W        W11576  33.877  25.591  11.375
41762W        W11577   3.236  23.579  12.381
41763W        W11578  27.081  29.582   3.190
41764W        W11579  26.195  26.564  11.397
41765W        W11580  24.517  11.311  12.514
41766W        W11581   4.732   8.883   2.229
41767W        W11582  34.382  24.543   3.365
41768W        W11583   4.411   8.251   3.803
41769W        W11584  28.981   0.953  14.313
41770W        W11585  30.081   8.709  14.816
41771W        W11586   5.364  16.127  14.282
41772W        W11587  29.025  24.985   0.446
41773W        W11588  28.133   6.825   1.904
41774W        W11589  42.920   5.860   2.835
41775W        W11590  28.949  41.034   4.747
41776W        W11591   7.823  23.605   2.782
41777W        W11592  21.608  34.864   3.757
41778W        W11593  25.556  28.508  10.535
41779W        W11594  40.519   0.276  13.880
41780W        W11595  37.445   8.792   1.844
41781W        W11596  29.510  29.571   4.295
41782W        W11597  12.275  39.023   3.281
41783W        W11598  14.207  18.061   0.258
41784W        W11599  40.917   6.185  11.064
41785W        W11600  25.093  37.465   3.677
41786W        W11601  14.690  14.321   3.832
41787W        W11602  25.019  19.194  11.574
41788W        W11603  41.310   9.880   4.237
41789W        W11604  21.089   3.436  10.923
41790W        W11605  30.631  35.591   2.283
41791W        W11606  30.142   4.234   0.281
41792W        W11607  23.495  15.612  14.420
41793W        W11608  24.521  43.415   3.156
41794W        W11609  15.275  15.300   1.248
41795W        W11610   0.477  34.614  11.885
41796W        W11611  11.251  20.234  14.889
41797W        W11612  15.094   4.211   0.945
41798W        W11613  24.541  25.100   3.169
41799W        W11614  32.477  32.629  14.866
41800W        W11615  11.229  10.178  11.064
41801W        W11616  31.553  44.757  11.547
41802W        W11617  41.326  24.127   1.367
41803W        W11618   8.769  13.170  13.362
41804W        W11619   2.245  34.111   0.799
41805W        W11620  26.068   2.947   1.287
41806W        W11621  24.224  16.316   4.341
41807W        W11622  35.042   4.445   2.195
41808W        W11623   8.674  34.391   3.348
41809W        W11624  41.897  29.544   0.752
41810W        W11625  38.397  29.637  10.496
41811W        W11626   6.187  30.018   3.831
41812W        W11627  29.612  33.422   2.325
41813W        W11628   0.761  16.267   1.905
41814W        W11629  23.615   0.964   4.259
41815W        W11630   5.358  30.442   4.209
41816W        W11631   5.844  15.313   4.150
41817W        W11632   8.357  30.647  10.489
41818W        W11633  17.705   6.882  12.552
41819W        W11634  19.562  36.573  11.015
41820W        W11635  20.148  21.123   9.941
41821W        W11636  15.588   1.338  10.607
41822W        W11637  21.555  27.046   3.242
41823W        W11638  20.143  22.510  12.850
41824W        W11639  36.978  14.757   2.180
41825W        W11640  17.739   8.226   0.409
41826W        W11641  43.403  26.199   3.312
41827W        W11642   6.193  18.552   5.091
41828W        W11643  32.111  33.435   1.286
41829W        W11644   1.914  39.054  13.349
41830W        W11645  34.989  40.829   2.232
41831W        W11646  20.714  20.730  11.529
41832W        W11647   6.330  22.118  15.000
41833W        W11648  36.868  21.625   2.330
41834W        W11649  39.947   8.343  12.062
41835W        W11650   2.334  35.024   4.737
41836W        W11651  23.095  34.602   4.300
41837W        W11652  15.630  10.331   4.186
41838W        W11653  43.423  36.577  12.009
41839W        W11654   4.284  19.668  11.447
41840W        W11655  12.836  44.987   0.734
41841W        W11656  41.313  32.077   3.302
41842W        W11657  30.528  10.149   0.392
41843W        W11658  22.007   8.879  11.588
41844W        W11659  43.271   1.749   1.397
41845W        W11660   1.871  18.179  10.538
41846W        W11661  43.796  19.094   4.129
41847W        W11662  34.445   4.347   4.173
41848W        W11663   2.334  35.975   2.212
41849W        W11664  43.773   8.858   2.378
41850W        W11665  40.358  18.072  14.362
41851W        W11666  36.040   3.808   0.841
41852W        W11667  39.550  22.024  12.427
41853W        W11668   1.410   4.309  14.767
41854W        W11669  44.289  10.372   1.751
41855W        W11670  22.165  38.836  13.386
41856W        W11671   2.375  36.440  10.624
41857W        W11672  22.200  32.138   3.148
41858W        W11673  42.289  41.463   4.598
41859W        W11674  24.985  40.323  12.381
41860W        W11675  32.012  32.450   0.789
41861W        W11676   7.902  19.199  11.922
41862W        W11677  42.363  14.124  11.024
41863W        W11678  17.783   7.759  12.094
41864W        W11679  36.379  13.710  14.882
41865W        W11680  24.627  18.251   4.351
41866W        W11681  35.423  16.309  11.110
41867W        W11682   1.301  33.388  13.846
41868W        W11683  36.477  19.242  10.453
41869W        W11684  13.260  37.467  14.457
41870W        W11685  44.324  13.248  14.844
41871W        W11686  44.435   5.857   1.929
41872W        W11687  43.865  15.192   2.888
41873W        W11688   6.865  17.174  10.603
41874W        W11689   5.750   7.885  14.423
41875W        W11690   5.869  42.322  10.600
41876W        W11691   8.381  10.817   2.286
41877W        W11692   0.360  17.760  13.009
41878W        W11693  18.271   3.868   4.832
41879W        W11694  35.897  23.512   2.755
41880W        W11695  38.511  12.647  11.385
41881W        W11696  14.780  10.281   3.642
41882W        W11697  43.408  37.516   5.322
41883W        W11698  32.960  42.959   0.794
41884W        W11699  18.254   7.242   0.829
41885W        W11700  39.056  37.441  10.554
41886W        W11701  20.208  43.974  11.031
41887W        W11702   4.795  17.192  12.093
41888W        W11703  10.735  17.082  10.429
41889W        W11704   0.830   1.896  14.486
41890W        W11705  37.398  18.166  10.141
41891W        W11706  39.846  16.159  12.941
41892W        W11707  20.251   9.856   2.816
41893W        W11708  24.587  12.667   0.846
41894W        W11709   7.673   2.288  12.416
41895W        W11710  33.017  40.336   4.609
41896W        W11711  16.173   2.361  13.461
41897W        W11712  21.517   6.770   4.186
41898W        W11713  41.847  43.426   2.196
41899W        W11714   0.794  23.040  11.484
41900W        W11715  33.618  30.996  14.825
41901W        W11716  43.848   0.787  12.353
41902W        W11717   6.861   6.847   2.410
41903W        W11718   4.335  14.096  11.079
41904W        W11719  39.413   4.276  13.030
41905W        W11720  43.440  29.434  10.062
41906W        W11721   2.465   0.319   4.725
41907W        W11722   4.390  10.179  14.800
41908W        W11723  30.121  14.182   4.269
41909W        W11724  31.962   4.791  13.497
41910W        W11725   7.898  19.653  11.603
41911W        W11726   7.404  30.525   4.763
41912W        W11727  34.023   1.360  13.535
41913W        W11728  34.610  14.786  11.460
41914W        W11729  33.527   5.769  11.413
41915W        W11730   5.210  11.652  13.884
41916W        W11731  28.981  19.730  13.379
41917W        W11732  30.533  13.774   2.709
41918W        W11733  12.314  28.489  12.074
41919W        W11734  25.067  43.364  12.365
41920W        W11735   9.367  39.435   0.939
41921W        W11736  40.481  22.201  14.861
41922W        W11737  10.177  17.171   5.738
41923W        W11738  28.650  28.962  11.887
41924W        W11739  39.014   0.871   1.694
41925W        W11740   2.336   7.185   1.381
41926W        W11741   1.892  30.058  14.513
41927W        W11742  31.582  42.897  14.322
41928W        W11743  15.723  29.145  13.338
41929W        W11744  26.639  22.175   0.901
41930W        W11745   3.757   3.314  11.083
41931W        W11746  15.178  31.054  14.832
41932W        W11747  21.561   3.731   1.317
41933W        W11748  43.499  35.457   3.386
41934W        W11749  26.651  14.242   0.461
41935W        W11750  16.146  20.602   3.236
41936W        W11751  28.555  36.041  14.019
41937W        W11752   2.749  38.413   1.283
41938W        W11753   4.698   6.897  12.471
41939W        W11754  13.605  12.657  12.088
41940W        W11755  12.262  42.906  11.859
41941W        W11756  34.087  24.136  11.018
41942W        W11757   7.746  14.143  10.159
41943W        W11758   8.223   1.975  14.816
41944W        W11759   3.911  37.382   3.312
41945W        W11760   4.804  41.497  11.919
41946W        W11761  15.820   6.296   5.093
41947W        W11762  10.855   5.711  11.909
41948W        W11763  12.702  26.066  12.444
41949W        W11764  10.856  36.086  12.866
41950W        W11765  44.308  41.396  14.290
41951W        W11766  23.663  36.911  14.916
41952W        W11767  14.804   9.264  14.952
41953W        W11768   8.749   4.251   4.789
41954W        W11769  42.376  27.096   4.339
41955W        W11770  27.456  38.963  11.582
41956W        W11771  34.473  21.099   3.649
41957W        W11772  26.683  33.874  14.388
41958W        W11773   8.828  43.016   2.300
41959W        W11774  11.685  34.930  12.033
41960W        W11775   5.297  29.937   3.805
41961W        W11776  12.141   6.795   1.766
41962W        W11777  15.220  13.305  10.557
41963W        W11778  28.956  29.079  13.804
41964W        W11779  31.412  18.228   2.896
41965W        W11780  35.516  34.103  10.058
41966W        W11781  21.628  29.474  12.999
41967W        W11782   2.787  25.214   3.844
41968W        W11783   5.692  41.295   4.251
41969W        W11784  28.565   5.687  12.949
41970W        W11785  40.010  43.411  14.781
41971W        W11786  34.405  20.084   2.822
41972W        W11787  10.284  35.426  13.320
41973W        W11788  36.542  25.153  14.398
41974W        W11789  34.519   6.398   2.804
41975W        W11790  12.345   7.870  12.512
41976W        W11791  33.461  19.190  11.073
41977W        W11792   6.792  33.905   4.295
41978W        W11793  28.681  32.074  11.415
41979W        W11794  44.842  18.085   1.415
41980W        W11795  15.607  34.478  14.012
41981W        W11796   6.854   7.869  12.864
41982W        W11797  15.786   3.878   1.740
41983W        W11798  40.985  41.882   1.821
41984W        W11799  37.933   5.309  13.391
41985W        W11800  39.050  33.615  11.064
41986W        W11801   0.905   3.355  12.398
41987W        W11802   1.861   5.771  11.999
41988W        W11803   6.423   0.807   3.307
41989W        W11804  25.537   9.686   2.353
41990W        W11805  27.612  21.602   0.403
41991W        W11806   2.436  20.170  11.526
41992W        W11807  32.630  21.578  13.044
41993W        W11808  33.573  27.010   2.322
41994W        W11809  44.429  17.790   4.181
41995W        W11810  15.744  25.573  14.283
41996W        W11811  27.653  14.293  12.010
41997W        W11812  13.751  23.544   2.322
41998W        W11813  21.664  27.072   3.642
41999W        W11814  31.529   7.748  14.809
42000W        W11815  23.547   6.704  10.570
42001W        W11816  10.801   0.980  11.911
42002W        W11817  44.875  20.226   1.381
42003W        W11818  38.962  38.513   0.388
42004W        W11819  26.087  37.490  14.906
42005W        W11820  26.086  28.639  10.993
42006W        W11821  38.871  37.921   4.194
42007W        W11822  41.902   4.852  10.056
42008W        W11823   8.826  42.967   4.140
42009W        W11824  42.450  17.733  12.931
42010W        W11825   7.862  10.799   0.853
42011W        W11826  12.190   6.264   0.429
42012W        W11827  16.250  21.202   2.671
42013W        W11828  35.459  23.495  12.483
42014W        W11829   8.844  44.384  11.539
42015W        W11830  26.139  16.142   1.745
42016W        W11831  33.451  21.224  10.032
42017W        W11832  23.237  43.470  12.016
42018W        W11833   2.751  42.874   0.303
42019W        W11834   2.439  21.208  11.943
42020W        W11835  44.419  40.811  10.498
42021W        W11836   7.337  36.495   2.303
42022W        W11837   8.298  28.011   0.408
42023W        W11838  29.013  10.876  13.354
42024W        W11839  31.913  43.983   2.698
42025W        W11840  37.466  10.162  12.066
42026W        W11841  33.407  44.930  14.890
42027W        W11842  10.739  14.595  13.843
42028W        W11843  16.263  36.963  12.392
42029W        W11844  38.924   6.244   0.273
42030W        W11845  31.064   0.393  12.434
42031W        W11846   3.407  10.744   2.664
42032W        W11847  40.985  22.252  13.445
42033W        W11848  37.554  17.671  12.081
42034W        W11849  33.589  27.603   3.638
42035W        W11850  40.903  31.022  13.318
42036W        W11851  31.935   5.921  12.353
42037W        W11852  39.552   5.890   9.596
42038W        W11853  13.825  43.882   0.802
42039W        W11854  21.610  11.197   0.259
42040W        W11855  17.654  37.430   0.330
42041W        W11856  43.288  24.576   0.775
42042W        W11857  13.718   3.823   3.383
42043W        W11858  43.949  31.518   0.409
42044W        W11859  21.668  32.566   3.327
42045W        W11860  11.222  18.714   4.155
42046W        W11861  37.458  39.352  14.837
42047W        W11862   5.381   1.831  10.979
42048W        W11863  37.339  27.490  10.619
42049W        W11864   1.883  36.437  12.449
42050W        W11865  17.638   1.912   1.805
42051W        W11866   4.290   8.187  11.122
42052W        W11867  12.782  19.100  12.832
42053W        W11868  12.672   4.371   3.766
42054W        W11869  31.974  30.093  10.506
42055W        W11870  15.206   9.190   0.276
42056W        W11871  28.561  31.018   4.686
42057W        W11872  20.085  44.260   2.751
42058W        W11873  19.692  44.458  12.982
42059W        W11874  43.858  11.861   3.216
42060W        W11875  42.421  35.957   1.840
42061W        W11876  39.337   0.746  10.613
42062W        W11877  25.478  16.209  13.545
42063W        W11878  10.213   0.289  11.429
42064W        W11879   8.362  16.696  13.820
42065W        W11880  44.008  20.742  11.948
42066W        W11881  16.195  30.082  13.867
42067W        W11882  32.451  24.037   3.192
42068W        W11883  16.093  38.964   2.355
42069W        W11884   7.862  16.769   2.411
42070W        W11885  39.960  43.981   1.227
42071W        W11886  16.268  24.997   1.224
42072W        W11887   5.698  18.655  13.865
42073W        W11888   7.887  29.534  14.391
42074W        W11889   4.703  28.497  11.039
42075W        W11890  31.489  28.565   4.238
42076W        W11891   3.240  44.892   0.260
42077W        W11892   4.758  35.033  10.890
42078W        W11893  15.627  20.211   4.775
42079W        W11894  11.158   1.775   3.278
42080W        W11895  24.149  10.164  14.889
42081W        W11896  42.974   2.245   2.346
42082W        W11897  20.536  36.053   2.780
42083W        W11898  13.214   8.378  11.115
42084W        W11899   5.931  13.694   2.742
42085W        W11900   8.239  43.340   0.357
42086W        W11901  31.579   8.864   2.274
42087W        W11902  12.749   7.403   0.430
42088W        W11903  34.997  33.390  11.902
42089W        W11904  41.370  22.633  12.987
42090W        W11905  10.781  41.454  14.311
42091W        W11906  30.113   5.272  14.927
42092W        W11907  36.591  27.680  12.489
42093W        W11908   9.210  30.560  11.907
42094W        W11909  43.019   2.325  11.082
42095W        W11910  29.985  27.995   0.258
42096W        W11911  34.055  12.793  11.468
42097W        W11912  13.820   4.310  13.413
42098W        W11913  25.054   7.831  12.844
42099W        W11914   5.923   6.774  10.975
42100W        W11915  38.568  16.567   1.775
42101W        W11916   7.336   7.822  14.922
42102W        W11917   6.241  37.836  13.978
42103W        W11918  13.608  11.648  13.981
42104W        W11919  23.729  30.946  11.929
42105W        W11920  23.669  12.319  13.950
42106W        W11921  15.674  42.879  10.001
42107W        W11922  17.069   4.307  10.077
42108W        W11923  17.271  27.994  11.022
42109W        W11924  18.699  23.576   3.148
42110W        W11925  12.744   8.195   4.754
42111W        W11926  25.692  14.224  14.928
42112W        W11927  39.430  23.572  13.482
42113W        W11928  37.413  42.931   4.787
42114W        W11929  37.831   0.464   0.728
42115W        W11930  37.928  32.049   4.600
42116W        W11931   1.907  39.940  13.436
42117W        W11932  42.895  17.279   3.650
42118W        W11933  28.488   6.240  12.472
42119W        W11934   5.282  12.824   3.848
42120W        W11935  22.529  15.181   0.751
42121W        W11936  34.388  24.220   3.195
42122W        W11937  29.940  14.725   4.719
42123W        W11938   8.701  18.202  14.489
42124W        W11939   3.739  26.197  12.906
42125W        W11940  34.952  17.116   4.678
42126W        W11941  32.067   6.868   0.804
42127W        W11942   1.846   2.738   1.346
42128W        W11943  12.351   3.861  12.993
42129W        W11944  24.091  14.597   0.880
42130W        W11945  25.679  26.683  11.009
42131W        W11946   4.847   9.668   1.884
42132W        W11947  44.287  21.680   2.703
42133W        W11948  39.881   2.913   0.393
42134W        W11949  19.636  40.493   4.753
42135W        W11950   3.283  36.929   1.723
42136W        W11951  11.229  31.561  11.578
42137W        W11952  19.749  24.992   0.251
42138W        W11953   0.877  41.375  12.368
42139W        W11954  22.547   0.749   4.128
42140W        W11955  22.648  38.073  12.029
42141W        W11956  19.735   8.285  11.406
42142W        W11957  10.192   8.805  14.802
42143W        W11958  44.411  42.915   4.162
42144W        W11959  25.687  36.902   1.881
42145W        W11960  15.668  33.429  13.988
42146W        W11961   3.224  33.607  10.967
42147W        W11962  32.524  28.944   4.609
42148W        W11963  42.498  25.659   4.761
42149W        W11964   1.258  42.815   4.626
42150W        W11965  43.888  33.898   4.779
42151W        W11966  22.096  22.092  11.380
42152W        W11967  42.995   7.199   0.397
42153W        W11968  16.678  17.130   3.275
42154W        W11969  10.877  14.115  11.436
42155W        W11970  29.455  23.685  14.836
42156W        W11971   3.842  38.425   1.705
42157W        W11972   8.217  33.026   2.284
42158W        W11973  40.883  21.228   2.664
42159W        W11974  40.499  38.359  12.433
42160W        W11975  11.680   2.363   4.706
42161W        W11976  39.352  18.154   1.751
42162W        W11977  37.920  31.474   2.409
42163W        W11978   7.751  42.493  14.919
42164W        W11979   1.771   7.712   0.316
42165W        W11980  12.618  23.995   0.849
42166W        W11981  42.859  34.608  12.429
42167W        W11982  35.068  27.947   0.783
42168W        W11983  10.805  33.593  11.049
42169W        W11984  13.264  14.328   9.944
42170W        W11985  30.060  16.153  14.358
42171W        W11986   1.337  19.649  11.377
42172W        W11987  34.591  34.107   3.813
42173W        W11988  28.094  39.419  14.866
42174W        W11989  32.966  24.026   2.879
42175W        W11990  26.954   5.295  14.844
42176W        W11991  34.429  44.274   2.227
42177W        W11992  22.239  41.890  14.989
42178W        W11993  26.159  34.078  12.890
42179W        W11994  21.150   2.431  11.418
42180W        W11995  41.999   2.297   4.191
42181W        W11996  43.898  43.271  13.347
42182W        W11997  34.026  36.014   4.705
42183W        W11998  19.285  37.376   2.178
42184W        W11999  39.531   8.715  14.923
42185W        W12000  17.229  24.153   1.860
42186W        W12001   6.367  28.669  12.437
42187W        W12002  41.981   5.243  11.476
42188W        W12003  24.172  20.051   0.354
42189W        W12004  30.114  14.140  13.409
42190W        W12005   8.406  42.401   9.650
42191W        W12006  12.847  33.461  14.323
42192W        W12007  26.693  27.000  12.008
42193W        W12008  43.270  20.686  11.468
42194W        W12009  44.484  35.361   0.340
42195W        W12010   9.266   7.704   4.307
42196W        W12011  41.973  24.595  12.363
42197W        W12012  38.888  27.558   3.192
42198W        W12013  19.199  31.512  10.546
42199W        W12014  21.604   2.840   0.857
42200W        W12015   8.762  26.204   2.262
42201W        W12016  26.976   7.370   0.819
42202W        W12017  24.070  23.998   4.233
42203W        W12018   5.703   6.701  10.564
42204W        W12019  33.558  44.363  13.445
42205W        W12020  17.298  12.209   2.270
42206W        W12021  36.411  32.890  14.435
42207W        W12022  30.490   3.869  11.068
42208W        W12023  12.632  37.876   0.312
42209W        W12024  23.102  13.685  13.380
42210W        W12025   2.409   4.770  11.538
42211W        W12026  17.065  13.616   0.404
42212W        W12027   6.409  16.611  11.955
42213W        W12028  12.845  30.044  12.842
42214W        W12029  36.010  35.474  11.457
42215W        W12030   3.381  34.603  13.851
42216W        W12031  21.753  21.649   3.156
42217W        W12032  43.869  24.042  12.458
42218W        W12033  37.530  40.392  10.612
42219W        W12034  30.975  17.601   2.862
42220W        W12035  36.045  15.329  13.333
42221W        W12036  17.112  12.300   2.819
42222W        W12037  34.874  36.441  14.382
42223W        W12038  32.121  24.701   2.699
42224W        W12039  13.263  30.499  10.521
42225W        W12040  20.174  23.073  11.481
42226W        W12041  16.226   1.387  12.941
42227W        W12042   2.267   1.802  12.526
42228W        W12043  39.901  42.945   3.364
42229W        W12044  26.499  34.923   2.337
42230W        W12045  30.427  11.276  14.495
42231W        W12046  25.576   0.900   3.843
42232W        W12047  37.049  42.347   0.344
42233W        W12048  19.777  35.079   3.777
42234W        W12049  44.911  28.949  13.000
42235W        W12050  26.550   4.275  10.637
42236W        W12051  23.719  17.741   0.472
42237W        W12052  12.330   8.199   2.784
42238W        W12053  23.000  36.510  13.861
42239W        W12054  21.142  31.050   5.279
42240W        W12055  20.615  22.687   4.303
42241W        W12056  14.307  35.881   4.678
42242W        W12057   3.898   3.871  13.378
42243W        W12058  41.498  26.206  14.797
42244W        W12059  33.989  38.539   2.729
42245W        W12060  33.921  23.707   1.328
42246W        W12061  14.294   1.310   3.724
42247W        W12062   0.283   4.765   4.747
42248W        W12063  31.559  22.083  12.066
42249W        W12064  10.776  13.282   4.714
42250W        W12065   9.193  33.565  12.918
42251W        W12066  37.394  42.456   0.889
42252W        W12067   1.414  40.893   3.352
42253W        W12068  27.942  37.491   1.757
42254W        W12069  14.613   0.874   3.836
42255W        W12070  38.916  10.219   4.280
42256W        W12071  33.513  20.257  13.463
42257W        W12072  12.268  25.024   0.266
42258W        W12073  26.469  10.642  11.552
42259W        W12074   0.268  23.120  11.924
42260W        W12075  44.765  11.357  10.525
42261W        W12076  25.659  16.312  10.640
42262W        W12077  37.487  36.046  13.331
42263W        W12078   2.963  24.998   3.333
42264W        W12079  26.597  14.742   0.827
42265W        W12080  33.876  38.986   2.852
42266W        W12081  40.938   3.445  12.516
42267W        W12082  12.241   9.337   3.717
42268W        W12083  26.483  14.245  13.424
42269W        W12084  34.002  18.668  13.376
42270W        W12085   9.183  32.455   3.380
42271W        W12086  33.059   5.196   1.226
42272W        W12087  14.309  38.476   1.365
42273W        W12088  41.934  42.326  14.792
42274W        W12089  21.075  44.827  14.959
42275W        W12090  14.630   9.219  13.003
42276W        W12091   2.414  36.028   1.213
42277W        W12092  43.882  27.028   0.731
42278W        W12093  31.912  17.652  12.493
42279W        W12094  31.452  14.256  10.626
42280W        W12095   8.728  28.503  11.584
42281W        W12096  29.424  14.818   2.395
42282W        W12097  28.008  17.116   4.705
42283W        W12098  20.041  43.868  13.922
42284W        W12099  26.665  14.124  13.814
42285W        W12100  16.707  30.132   1.384
42286W        W12101  34.464  32.072   1.845
42287W        W12102   0.856  40.456   4.789
42288W        W12103  26.567  10.186  14.411
42289W        W12104  14.737  39.527   0.420
42290W        W12105  22.169  22.704  12.029
42291W        W12106  44.901   3.834  12.493
42292W        W12107  27.649  16.670   4.740
42293W        W12108  36.465  41.302  11.482
42294W        W12109  10.703  25.004  14.792
42295W        W12110   2.236  25.586   1.789
42296W        W12111   3.869  38.908  14.965
42297W        W12112   2.331  44.799  12.558
42298W        W12113  24.172   7.341  13.868
42299W        W12114  13.313   6.841   3.307
42300W        W12115  20.611  11.776   3.640
42301W        W12116  38.033  17.652  13.877
42302W        W12117  36.980  25.529  11.098
42303W        W12118   7.213   2.920  14.762
42304W        W12119  28.470   9.392   1.777
42305W        W12120   4.398   5.245   3.381
42306W        W12121  23.535  20.030   4.811
42307W        W12122  25.643  42.366   1.289
42308W        W12123  20.729   3.433   4.126
42309W        W12124  10.708   8.900   1.445
42310W        W12125  27.007   9.780   9.640
42311W        W12126   4.296  18.250  14.406
42312W        W12127  34.978  37.070  14.498
42313W        W12128  17.686  34.893   3.198
42314W        W12129   0.861  11.693  13.452
42315W        W12130  20.613  26.606  11.543
42316W        W12131  36.359  31.421  13.351
42317W        W12132  33.460  29.434  11.475
42318W        W12133   8.368  33.038   1.780
42319W        W12134   9.282  31.949  12.989
42320W        W12135  21.028  14.676  10.454
42321W        W12136   2.352  16.670   0.739
42322W        W12137  36.897  40.312  12.978
42323W        W12138   4.412  34.964   2.883
42324W        W12139  37.512  31.600   4.644
42325W        W12140  14.201  29.637   1.279
42326W        W12141  24.639  17.306  11.570
42327W        W12142  23.035  21.656   3.647
42328W        W12143  23.681  43.393  14.984
42329W        W12144  12.834  36.907  10.485
42330W        W12145  26.539   2.773  13.426
42331W        W12146  36.000  40.385  11.417
42332W        W12147  37.999  41.024  13.404
42333W        W12148  37.955  42.369   2.796
42334W        W12149  23.689  41.368   4.235
42335W        W12150  21.531  10.257  10.030
42336W        W12151  41.832   9.345  12.536
42337W        W12152  22.545  41.788   4.705
42338W        W12153  17.207  26.478   2.902
42339W        W12154  31.138  23.020  10.900
42340W        W12155  43.980   7.389  11.401
42341W        W12156  15.642  20.085   1.360
42342W        W12157   6.319  43.494  10.043
42343W        W12158  32.486  38.959  13.998
42344W        W12159  43.835  40.480   3.149
42345W        W12160  25.179  13.261  10.518
42346W        W12161  26.167  17.289  14.347
42347W        W12162  21.119   5.433  14.847
42348W        W12163  17.131  36.098  12.380
42349W        W12164   9.223   8.186  14.513
42350W        W12165  41.437   8.808  13.960
42351W        W12166  30.160   5.784   1.243
42352W        W12167  24.632  15.136  10.987
42353W        W12168  17.723  36.864  13.033
42354W        W12169  29.557  36.904  12.948
42355W        W12170  43.978  10.205  13.378
42356W        W12171   0.988  15.156   4.756
42357W        W12172  27.110  20.673  12.079
42358W        W12173  42.909  42.437  10.471
42359W        W12174   2.244  10.188  12.562
42360W        W12175  38.442  11.672  10.978
42361W        W12176   9.166  14.588  14.429
42362W        W12177  19.668  33.037   3.164
42363W        W12178  22.154  26.472   4.599
42364W        W12179   2.803  19.284   3.690
42365W        W12180  33.081  13.675   4.117
42366W        W12181  29.940   9.176   1.721
42367W        W12182  28.167  13.344  12.002
42368W        W12183  12.203  32.455   0.478
42369W        W12184  18.639   8.712  13.810
42370W        W12185  19.077  17.758   0.287
42371W        W12186  23.599  37.455   0.395
42372W        W12187  19.704   6.306   2.380
42373W        W12188  21.063  37.871   3.179
42374W        W12189  33.444  25.701  11.111
42375W        W12190  38.523  13.777   3.219
42376W        W12191  19.176   1.902  14.283
42377W        W12192  25.623  30.020   4.155
42378W        W12193  19.066  16.705   3.208
42379W        W12194   1.374  12.789   2.762
42380W        W12195   2.294   8.745   2.357
42381W        W12196  36.937  32.497   3.161
42382W        W12197  21.715   5.820  11.981
42383W        W12198  37.350  37.428   4.678
42384W        W12199  28.010   5.833  13.833
42385W        W12200   0.910   8.854   2.736
42386W        W12201  33.925  17.706  10.576
42387W        W12202  42.031  15.738   3.800
42388W        W12203  37.394   4.380   3.206
42389W        W12204   8.711  16.234   1.881
42390W        W12205  12.712  44.988   2.417
42391W        W12206  38.391  33.973   4.116
42392W        W12207  27.164  30.152   3.376
42393W        W12208   9.799  23.208   1.394
42394W        W12209  11.755  10.368   2.250
42395W        W12210  37.852  34.385  14.781
42396W        W12211   3.856  22.579  13.822
42397W        W12212   5.810  38.940   4.833
42398W        W12213  12.155  16.620  10.585
42399W        W12214  22.028  38.406  14.820
42400W        W12215  21.730  40.855   3.643
42401W        W12216  37.483  26.652   1.445
42402W        W12217  40.810  31.017  14.818
42403W        W12218  40.800  15.226  13.468
42404W        W12219  40.964  36.879   1.755
42405W        W12220  29.425  26.172   2.854
42406W        W12221   3.886  43.400  11.970
42407W        W12222   6.801  38.486  12.957
42408W        W12223  23.996  16.106  12.414
42409W        W12224  44.943   7.214  14.476
42410W        W12225   0.462   7.789  12.367
42411W        W12226   2.378  25.078   2.179
42412W        W12227  23.660  22.729   4.350
42413W        W12228  25.612  41.410   0.304
42414W        W12229   5.705  20.591   1.869
42415W        W12230   6.732  40.949   1.804
42416W        W12231  18.545  40.416   3.787
42417W        W12232  24.099  38.360  10.928
42418W        W12233  21.555  44.416   4.262
42419W        W12234  19.149   3.245   4.826
42420W        W12235  32.011   8.274   3.868
42421W        W12236  29.641  24.077  13.423
42422W        W12237   0.931  14.739  14.348
42423W        W12238  21.252  38.544   3.711
42424W        W12239  12.286  38.888   2.330
42425W        W12240  21.203  28.010   1.825
42426W        W12241  22.735  28.509   4.608
42427W        W12242   6.329  24.678   0.312
42428W        W12243  18.590  32.518   3.330
42429W        W12244   3.744  38.999  12.051
42430W        W12245  42.002  39.529   3.745
42431W        W12246  18.259  39.985   2.237
42432W        W12247  17.285  38.358  12.870
42433W        W12248  19.751  15.810   1.333
42434W        W12249  38.902  42.471  12.903
42435W        W12250  22.047   7.718   0.728
42436W        W12251  13.794  38.523   2.836
42437W        W12252  15.297  12.614  13.358
42438W        W12253  23.557  31.409   2.835
42439W        W12254   5.202  22.077   3.386
42440W        W12255  23.077  33.897  12.970
42441W        W12256  25.636  11.820   4.729
42442W        W12257   7.837   2.408  14.514
42443W        W12258   6.371   2.818   1.765
42444W        W12259   7.886  34.028   4.624
42445W        W12260  29.440  37.391  10.913
42446W        W12261  28.538   2.242   2.824
42447W        W12262  31.588  35.583   4.599
42448W        W12263   5.324   1.478  12.886
42449W        W12264  30.058  41.796   1.373
42450W        W12265  24.625  14.623   1.325
42451W        W12266  24.482   1.775  10.555
42452W        W12267  36.014   9.801  11.391
42453W        W12268  37.539  17.119   4.679
42454W        W12269  24.140  43.894   3.750
42455W        W12270  18.696  43.898   0.472
42456W        W12271  37.342   0.932  12.989
42457W        W12272  29.639  24.129  10.564
42458W        W12273   3.867   8.185   1.381
42459W        W12274  43.453   7.703  12.482
42460W        W12275   4.767  24.552   5.239
42461W        W12276   0.380   3.929  13.504
42462W        W12277  37.391  30.622  14.851
42463W        W12278  30.561  42.405   1.294
42464W        W12279  20.182   5.340  10.966
42465W        W12280  15.711  26.577   4.306
42466W        W12281  16.255  41.472  13.313
42467W        W12282  25.033   6.378   2.901
42468W        W12283  11.639  29.988   4.185
42469W        W12284  20.756  35.537   0.335
42470W        W12285  23.651  27.968   0.890
42471W        W12286  13.286  25.193   3.281
42472W        W12287  23.019  29.518  12.087
42473W        W12288  31.898   9.149  13.032
42474W        W12289  17.639  43.464  11.471
42475W        W12290   0.466  24.057  13.883
42476W        W12291  25.685  29.126  10.446
42477W        W12292  38.928   3.409   2.341
42478W        W12293  19.570   8.672   2.757
42479W        W12294  29.609  15.669  13.829
42480W        W12295  26.487   6.222  14.356
42481W        W12296   2.353   2.312   1.729
42482W        W12297  33.521  20.615  11.128
42483W        W12298   7.320  42.029   1.265
42484W        W12299  20.546  11.684  12.829
42485W        W12300  15.591   8.669   0.269
42486W        W12301  12.309  16.722  14.907
42487W        W12302  34.904  28.526   1.879
42488W        W12303  37.533  38.515  14.420
42489W        W12304  43.373   1.810   3.634
42490W        W12305  25.978   7.897  13.035
42491W        W12306  10.731  25.087   2.258
42492W        W12307  37.053  35.064  13.000
42493W        W12308  23.605  29.132  10.570
42494W        W12309  11.286   3.768   4.334
42495W        W12310  42.939  33.014   0.323
42496W        W12311   3.424   3.792  11.550
42497W        W12312  43.429  13.172  13.399
42498W        W12313  23.706  29.080  13.536
42499W        W12314   7.691  30.586  14.901
42500W        W12315  17.122  15.094   2.857
42501W        W12316   3.748  32.404  14.960
42502W        W12317  31.985  34.538   4.190
42503W        W12318  30.425  23.124   2.836
42504W        W12319  31.463   0.397   2.279
42505W        W12320  17.620  44.397   4.614
42506W        W12321  18.236  20.125   3.347
42507W        W12322   2.385  30.958  10.639
42508W        W12323   0.445  22.547  13.491
42509W        W12324  14.283  36.043  13.310
42510W        W12325  15.696  31.023   4.803
42511W        W12326  16.151  12.150  12.492
42512W        W12327  17.302  19.586   1.728
42513W        W12328  36.993  15.679  13.479
42514W        W12329  17.679  12.713   3.375
42515W        W12330  20.663  17.160  10.558
42516W        W12331   9.708   5.841  10.491
42517W        W12332  11.201   4.839  14.385
42518W        W12333  11.710  36.036   1.397
42519W        W12334  21.599  15.167  12.914
42520W        W12335  13.727  43.842  11.048
42521W        W12336  21.588  33.379   4.214
42522W        W12337  11.227  19.256  11.015
42523W        W12338  31.584  24.974   3.313
42524W        W12339   6.907  36.432   4.220
42525W        W12340  11.131  23.597  12.872
42526W        W12341  23.511  12.635   3.325
42527W        W12342  24.545  29.493   4.120
42528W        W12343   6.836  33.990   3.214
42529W        W12344  16.300  43.290   0.288
42530W        W12345   6.286  13.792   1.836
42531W        W12346  11.352   1.342  12.058
42532W        W12347  19.717  16.198   3.694
42533W        W12348  29.577  11.332   0.432
42534W        W12349  16.696   5.315  13.394
42535W        W12350  17.234  17.243   2.822
42536W        W12351  44.887  33.488  13.546
42537W        W12352  41.903  40.399   3.825
42538W        W12353  10.288  14.242   3.642
42539W        W12354  42.973  37.959  11.542
42540W        W12355  41.992  27.991   2.755
42541W        W12356  11.312  38.038   2.192
42542W        W12357  41.378  31.555  12.552
42543W        W12358  13.644  26.101  11.963
42544W        W12359  28.538  37.896  12.422
42545W        W12360   1.938  20.047   2.333
42546W        W12361   0.789  11.839  13.810
42547W        W12362  31.566   7.796  11.476
42548W        W12363  37.520  20.551   0.846
42549W        W12364  25.147  38.382   1.826
42550W        W12365  37.868  19.580  13.348
42551W        W12366  14.607  36.489   4.285
42552W        W12367  11.372  22.039   2.187
42553W        W12368   7.898   8.175   0.836
42554W        W12369  16.195   7.695  14.460
42555W        W12370  26.559  44.281   0.464
42556W        W12371  35.895   7.764  10.439
42557W        W12372   0.407  38.984  11.504
42558W        W12373  43.493  38.875  11.471
42559W        W12374   6.315  32.907   1.796
42560W        W12375  40.454   3.380  14.902
42561W        W12376  39.889  14.316  12.912
42562W        W12377  36.954  25.105  11.037
42563W        W12378  15.209   3.243  11.874
42564W        W12379  19.543   4.856  13.043
42565W        W12380   6.679  18.245  12.092
42566W        W12381  33.062   1.891   3.160
42567W        W12382  38.012  32.922  13.854
42568W        W12383  15.278  35.479  13.401
42569W        W12384  34.427   9.166  14.825
42570W        W12385  25.125   9.888  13.434
42571W        W12386  18.751  21.105  11.578
42572W        W12387  16.623  26.571   3.328
42573W        W12388  17.771  30.569  13.540
42574W        W12389  22.697  36.389   1.847
42575W        W12390   9.773   8.769   1.873
42576W        W12391  28.167   8.238   3.176
42577W        W12392  13.666  37.922   0.796
42578W        W12393  30.570   2.948  14.349
42579W        W12394  26.962  17.660   4.637
42580W        W12395  41.006  30.601   2.818
42581W        W12396  18.694  16.613  12.908
42582W        W12397   7.265  25.587   2.853
42583W        W12398  22.094   5.755  14.386
42584W        W12399  10.218  31.461  12.940
42585W        W12400  10.731  34.415  14.388
42586W        W12401  26.581  23.701  12.025
42587W        W12402  22.163  19.067   4.175
42588W        W12403  31.100  40.316  10.572
42589W        W12404  39.492  35.102   4.217
42590W        W12405   5.865   0.853   4.214
42591W        W12406   9.828  14.333   0.866
42592W        W12407  43.308  30.633  10.956
42593W        W12408  39.062  27.509  14.433
42594W        W12409  39.482   3.882  11.019
42595W        W12410   4.814  38.927  12.501
42596W        W12411  20.699  43.773  12.410
42597W        W12412  39.065   0.341  13.829
42598W        W12413  34.898  10.787  11.592
42599W        W12414  30.556  13.828  10.500
42600W        W12415  12.617  10.240   1.898
42601W        W12416  18.156  38.382  14.419
42602W        W12417  31.927  33.532  13.367
42603W        W12418  10.228  37.917   4.815
42604W        W12419   5.399  18.252  13.820
42605W        W12420  25.607  32.885   1.746
42606W        W12421  21.530  10.666   4.743
42607W        W12422  20.589  36.381   3.264
42608W        W12423  41.026   7.671  10.972
42609W        W12424  22.996  25.626  13.873
42610W        W12425  43.915  35.029  14.336
42611W        W12426   6.278  21.115   1.924
42612W        W12427  28.606  42.380  10.495
42613W        W12428  38.505   6.742   0.791
42614W        W12429  43.463   4.906   4.598
42615W        W12430  15.243   1.388   1.249
42616W        W12431  17.140  13.683   3.154
42617W        W12432  18.627   8.872   0.915
42618W        W12433  33.070  31.078  12.068
42619W        W12434  27.526  44.004   1.360
42620W        W12435  23.075   4.930  12.518
42621W        W12436  39.001  44.779  13.311
42622W        W12437  20.598  12.265   0.744
42623W        W12438   9.222   3.365   2.212
42624W        W12439  42.368  23.511  10.407
42625W        W12440  44.266  42.520  14.801
42626W        W12441   5.866  26.571  14.856
42627W        W12442  32.516  22.175  11.557
42628W        W12443   5.405  21.038  10.923
42629W        W12444   2.459   7.673  12.464
42630W        W12445  13.792  16.743   3.835
42631W        W12446  17.245   5.764  11.449
42632W        W12447   2.793   7.279   2.205
42633W        W12448  32.127  44.411  11.951
42634W        W12449   7.243   6.885  13.518
42635W        W12450  38.982  36.078   1.892
42636W        W12451   7.707  40.537   1.213
42637W        W12452  37.835  30.471  10.914
42638W        W12453   5.247  37.833  10.538
42639W        W12454  28.603  38.057   0.264
42640W        W12455   0.750  11.219   2.817
42641W        W12456   1.804  28.562   1.823
42642W        W12457  43.297  27.006   4.721
42643W        W12458  27.144  41.479   3.778
42644W        W12459  29.028   1.262  11.989
42645W        W12460  21.688  23.137   1.387
42646W        W12461   4.403  22.631  11.482
42647W        W12462  44.267  31.567   3.673
42648W        W12463  38.884  22.688  10.502
42649W        W12464   6.855  28.147  12.551
42650W        W12465  18.208  44.772  11.013
42651W        W12466  36.447  28.154   9.985
42652W        W12467  41.480   0.277   2.860
42653W        W12468  12.222   0.442   1.793
42654W        W12469  41.980  14.295  13.056
42655W        W12470   4.809  33.461   9.963
42656W        W12471  29.509   6.183   2.312
42657W        W12472  27.580  20.237  13.824
42658W        W12473  24.074  33.516   1.403
42659W        W12474   9.666  23.541   2.192
42660W        W12475  40.945   9.286   3.193
42661W        W12476  40.900  19.150   1.839
42662W        W12477  36.994   2.749  14.852
42663W        W12478  18.279  28.011   3.820
42664W        W12479   3.840   1.260  14.347
42665W        W12480  20.569  37.421   2.745
42666W        W12481   3.311  44.764  11.044
42667W        W12482  29.072   4.437   1.255
42668W        W12483  44.857  32.589  13.948
42669W        W12484  16.271  14.233   2.692
42670W        W12485   7.338   7.180   2.255
42671W        W12486   2.400  33.563  10.012
42672W        W12487  22.554  17.119  10.007
42673W        W12488  32.021  26.112   4.704
42674W        W12489  40.382  21.619  12.094
42675W        W12490  25.124  39.354  13.854
42676W        W12491  23.520  13.703  14.290
42677W        W12492  12.335   0.847  10.599
42678W        W12493  14.737  14.264   0.353
42679W        W12494  22.113   1.469   4.819
42680W        W12495  44.284   4.794  12.340
42681W        W12496  25.974  14.094   4.753
42682W        W12497  42.788  15.319   2.231
42683W        W12498   9.831  10.846   0.884
42684W        W12499  15.727  13.612  12.959
42685W        W12500  38.898   1.760  13.395
42686W        W12501  19.199  17.085   3.343
42687W        W12502  36.051  28.533  14.794
42688W        W12503  24.535   5.392  14.393
42689W        W12504   4.823  23.622  12.063
42690W        W12505  20.094  19.057  11.439
42691W        W12506  15.315  41.426  12.533
42692W        W12507  26.034  36.546   1.309
42693W        W12508  17.249  17.211  10.934
42694W        W12509   4.396   6.300  13.837
42695W        W12510   4.368  14.230   0.810
42696W        W12511   0.415  21.640  11.088
42697W        W12512   6.270   6.891  12.385
42698W        W12513   9.678  16.626  12.870
42699W        W12514  34.039  16.724  12.842
42700W        W12515  15.097  31.635   1.787
42701W        W12516   7.794  25.525   1.822
42702W        W12517  36.440   0.318  13.442
42703W        W12518  37.527  25.984   2.363
42704W        W12519   1.882  39.406  14.489
42705W        W12520  11.637  43.387  11.868
42706W        W12521   3.861   7.760   2.305
42707W        W12522  25.197   5.244   1.876
42708W        W12523  21.676  40.938   0.392
42709W        W12524  22.999   8.755  14.878
42710W        W12525  37.423  15.768   1.431
42711W        W12526  12.132  32.982   3.761
42712W        W12527  24.684  25.570   2.873
42713W        W12528  44.767  33.906  13.831
42714W        W12529  30.658   1.394   4.262
42715W        W12530   6.845  25.613   3.236
42716W        W12531  19.691  12.686   2.361
42717W        W12532   5.374   7.775   1.844
42718W        W12533  24.145  22.678   0.889
42719W        W12534  12.293  13.632  11.457
42720W        W12535  14.094   5.248   4.757
42721W        W12536  31.109  26.590  14.970
42722W        W12537   8.727  28.118   1.429
42723W        W12538  40.438  33.538  11.598
42724W        W12539  12.167  28.568   3.722
42725W        W12540  19.778  39.959   4.290
42726W        W12541   3.768   5.747   2.337
42727W        W12542  10.149  25.553  12.480
42728W        W12543  13.320  21.154   2.206
42729W        W12544  22.130  26.028  13.947
42730W        W12545  27.154  23.054   4.305
42731W        W12546  11.333   3.306  10.583
42732W        W12547  30.453  31.067   1.234
42733W        W12548  20.073  30.526   0.343
42734W        W12549  21.052  38.468  14.502
42735W        W12550   3.877  28.948  11.869
42736W        W12551  43.504  17.117  12.483
42737W        W12552  35.544  24.087  13.357
42738W        W12553  14.720  25.651  14.304
42739W        W12554  14.326  18.653   1.755
42740W        W12555  38.978  44.459   4.709
42741W        W12556  21.664   8.310  10.601
42742W        W12557  29.468  36.445  10.420
42743W        W12558  29.122  43.861   0.410
42744W        W12559   9.822  15.234   2.676
42745W        W12560  41.798   8.184  14.275
42746W        W12561  25.146  25.069   4.620
42747W        W12562   0.892  44.906  14.937
42748W        W12563  18.237  37.884  11.542
42749W        W12564   3.932   2.417  13.982
42750W        W12565   0.304  20.051  13.410
42751W        W12566  15.285  18.191   1.375
42752W        W12567  27.573  11.301  13.831
42753W        W12568  40.830  10.876   2.363
42754W        W12569  16.131  13.840   3.346
42755W        W12570   6.189  35.500  12.941
42756W        W12571   7.266  33.385  13.367
42757W        W12572  41.354  44.960   0.340
42758W        W12573   0.389  21.537   4.354
42759W        W12574  34.956  15.727   1.451
42760W        W12575  24.020  38.478   1.352
42761W        W12576  41.924  20.546  14.828
42762W        W12577  14.218   4.318  14.404
42763W        W12578  34.596  32.504   0.816
42764W        W12579   5.360  11.648  13.413
42765W        W12580  17.562  43.316   2.783
42766W        W12581  10.735  42.840  11.124
42767W        W12582  42.958   6.262  13.416
42768W        W12583  40.504  44.384  10.979
42769W        W12584  30.446  25.216  12.921
42770W        W12585  31.487  40.837  11.515
42771W        W12586  29.174   6.911  11.104
42772W        W12587  41.351   5.346  12.937
42773W        W12588  32.118  10.363  11.888
42774W        W12589   3.233   9.780  14.449
42775W        W12590  32.444  11.751  14.374
42776W        W12591  31.438  27.084  12.043
42777W        W12592  41.998  38.439  14.463
42778W        W12593  39.444  43.294  12.379
42779W        W12594   5.370  35.026  12.042
42780W        W12595  42.419   1.276  10.639
42781W        W12596   4.284   7.261  13.900
42782W        W12597  42.307   2.287  12.911
42783W        W12598  41.375  26.080  10.892
42784W        W12599  43.969   1.464   1.404
42785W        W12600  39.509  33.934  12.517
42786W        W12601  34.600  24.019  14.330
42787W        W12602   7.334  36.059  14.822
42788W        W12603  20.548  31.052   4.200
42789W        W12604  34.013  18.574   3.701
42790W        W12605  23.225   1.303  10.956
42791W        W12606   5.306  17.641   4.321
42792W        W12607  32.564  28.662   1.271
42793W        W12608   7.359   1.758  12.419
42794W        W12609  14.147  40.001  14.897
42795W        W12610   0.748  16.662  10.470
42796W        W12611  35.401  29.046  14.284
42797W        W12612   3.245   3.913   2.399
42798W        W12613  42.497  34.524  14.913
42799W        W12614  13.339  14.124  13.534
42800W        W12615   5.209  19.054  14.937
42801W        W12616  20.722  40.438  13.493
42802W        W12617  17.285   5.332  10.958
42803W        W12618   4.367  32.635   1.244
42804W        W12619  29.012   9.804  12.528
42805W        W12620  12.318  38.995   1.439
42806W        W12621  16.703  33.500   2.222
42807W        W12622   9.783  19.204  11.094
42808W        W12623  32.021   5.311  13.395
42809W        W12624  12.224  13.340   4.181
42810W        W12625  25.984   7.301   4.680
42811W        W12626  23.728  23.225   4.721
42812W        W12627  42.911  33.913   3.311
42813W        W12628  19.603  20.686   2.699
42814W        W12629   6.737   9.205   4.333
42815W        W12630   5.384  37.926  14.943
42816W        W12631  18.108  36.064   2.902
42817W        W12632  36.449   0.402   2.669
42818W        W12633  30.652  38.410   2.395
42819W        W12634  21.527   7.676  12.501
42820W        W12635  32.467  23.138  14.792
42821W        W12636  11.242  36.964  10.916
42822W        W12637   1.957  31.480  13.018
42823W        W12638   6.413  25.010  12.929
42824W        W12639  44.996  41.431  14.369
42825W        W12640  39.332  15.730  12.890
42826W        W12641  26.987  31.418  14.835
42827W        W12642  24.189  12.193   3.832
42828W        W12643  24.039  29.652   3.705
42829W        W12644  21.591  30.583  13.901
42830W        W12645  28.083   0.853   4.824
42831W        W12646  44.450  25.524   4.128
42832W        W12647  25.147   9.803  13.872
42833W        W12648  29.458   6.295  14.927
42834W        W12649   4.726   6.328   4.635
42835W        W12650  11.766  18.553  14.457
42836W        W12651  21.633  32.001   3.195
42837W        W12652  32.917  38.342   1.215
42838W        W12653  43.872   3.435   2.249
42839W        W12654  42.845  21.164   3.177
42840W        W12655  42.478   2.402   1.767
42841W        W12656  43.327   0.438  10.615
42842W        W12657  15.722  22.253  11.064
42843W        W12658  28.490  25.972  12.873
42844W        W12659  41.360   7.908  12.553
42845W        W12660  16.091  14.632   1.868
42846W        W12661  44.911  19.109   4.757
42847W        W12662   4.764   9.191  14.395
42848W        W12663  38.424  41.323  12.061
42849W        W12664  12.122  29.137   4.344
42850W        W12665  25.524  17.611  12.476
42851W        W12666   2.349  32.042   0.767
42852W        W12667  18.114  39.474   0.861
42853W        W12668   8.813  40.346  14.811
42854W        W12669   6.715  27.538  10.419
42855W        W12670  41.876  35.965   3.387
42856W        W12671   6.856  44.881  11.872
42857W        W12672  23.214  18.064   3.286
42858W        W12673   4.430  10.793   2.338
42859W        W12674   2.774  36.897  12.567
42860W        W12675  24.180   4.725  13.369
42861W        W12676  11.212  31.593   0.242
42862W        W12677  21.633  32.982   2.229
42863W        W12678  40.337  43.429   0.938
42864W        W12679  17.118  38.019  11.959
42865W        W12680  30.021   2.426  13.471
42866W        W12681  29.457  28.521   1.300
42867W        W12682  34.956  42.935   4.730
42868W        W12683  25.027  24.659   1.732
42869W        W12684  21.571  16.755   3.174
42870W        W12685   9.880   5.205   4.760
42871W        W12686   3.720  29.933   1.272
42872W        W12687  41.966  22.106  13.418
42873W        W12688  21.211  16.156  12.564
42874W        W12689   9.731  18.156   0.766
42875W        W12690  43.001  29.432  12.430
42876W        W12691   7.721  20.665  11.031
42877W        W12692   8.852  22.243  12.343
42878W        W12693  12.648  39.005   2.279
42879W        W12694  39.448   6.696  12.527
42880W        W12695  34.988   6.198  10.015
42881W        W12696   2.376  43.002  14.485
42882W        W12697  43.441  29.546   2.345
42883W        W12698   9.665  44.865   4.270
42884W        W12699  42.507  27.139   4.805
42885W        W12700  20.050   1.869   4.662
42886W        W12701  30.035  23.517  10.903
42887W        W12702   0.309  29.504   0.483
42888W        W12703  34.385   5.427  12.060
42889W        W12704  42.822  18.684  14.779
42890W        W12705  44.479   2.823   4.783
42891W        W12706  26.488  25.176   5.238
42892W        W12707   2.322  18.158  13.508
42893W        W12708  25.604   5.913   3.843
42894W        W12709  39.356   0.918   4.256
42895W        W12710  23.147  15.609  13.461
42896W        W12711  23.102  32.464   2.347
42897W        W12712  15.107  25.624   4.129
42898W        W12713  23.051   1.797  11.933
42899W        W12714  19.223  15.106  12.381
42900W        W12715  26.953   5.225  13.870
42901W        W12716   4.825   9.254   1.272
42902W        W12717  38.409   2.229  12.824
42903W        W12718  31.966  20.148   0.358
42904W        W12719  27.181  31.544   0.836
42905W        W12720  22.046  20.106  13.835
42906W        W12721  38.550   8.236   1.909
42907W        W12722  38.937  34.012   3.362
42908W        W12723  17.126  31.489   4.790
42909W        W12724  38.348  24.483  11.381
42910W        W12725  29.425   0.963   4.743
42911W        W12726  44.759   3.265   5.214
42912W        W12727  12.198  42.320   4.705
42913W        W12728  21.518  29.627   2.675
42914W        W12729  16.796  21.202   1.762
42915W        W12730   1.927  32.114  12.905
42916W        W12731   3.880  26.485  14.401
42917W        W12732   5.758   2.420  13.371
42918W        W12733  10.664  24.025  13.358
42919W        W12734  12.790  44.910  12.000
42920W        W12735  35.459  13.844  12.920
42921W        W12736  25.639  42.918   3.723
42922W        W12737   3.893   3.901   4.831
42923W        W12738  37.887  38.978  14.317
42924W        W12739  13.804  25.995   3.786
42925W        W12740  32.567  42.836  11.885
42926W        W12741  16.192  20.676   1.224
42927W        W12742  39.811  30.533   3.359
42928W        W12743   7.360   1.321   2.226
42929W        W12744   3.258  42.023   0.936
42930W        W12745  39.322  41.965  12.982
42931W        W12746  38.543  32.468  11.934
42932W        W12747  32.892   6.709  11.087
42933W        W12748   8.852  43.819   3.276
42934W        W12749  14.604   5.822  12.512
42935W        W12750  16.750  24.141   3.326
42936W        W12751  13.273  39.944  14.285
42937W        W12752  25.150  38.854  14.836
42938W        W12753   1.357   3.238  13.961
42939W        W12754  35.015  26.509   4.123
42940W        W12755  31.939  33.875   4.679
42941W        W12756  29.572  29.076   5.220
42942W        W12757  14.786  33.024   3.309
42943W        W12758  38.945   8.775  13.804
42944W        W12759  36.516   1.879  12.000
42945W        W12760  23.616  15.769  12.474
42946W        W12761  31.620  35.049   2.673
42947W        W12762  25.684  37.459  10.049
42948W        W12763  31.064  11.650   1.772
42949W        W12764  39.825  29.986  13.842
42950W        W12765  36.063  15.734   1.787
42951W        W12766   4.834  26.074  14.348
42952W        W12767   4.705  21.175  12.848
42953W        W12768  43.499   0.882  12.424
42954W        W12769   8.898  32.575   1.741
42955W        W12770   8.384  29.931   3.803
42956W        W12771   3.871   6.255   4.831
42957W        W12772  43.014  23.115   3.330
42958W        W12773  26.020  37.492   2.206
42959W        W12774  29.968  31.583  12.950
42960W        W12775  31.104   6.335   2.831
42961W        W12776  21.252  31.406  14.275
42962W        W12777  16.587  21.231  12.555
42963W        W12778  21.540  16.750   4.295
42964W        W12779   5.843   2.739  13.899
42965W        W12780  20.220  26.702   3.298
42966W        W12781  20.226  29.068  13.951
42967W        W12782   1.457   9.830  14.492
42968W        W12783  20.535  36.042   3.864
42969W        W12784  23.089  26.206   3.739
42970W        W12785  17.241   3.307   0.813
42971W        W12786  10.770  29.105  11.892
42972W        W12787  39.906  29.148  10.619
42973W        W12788   9.187  14.646   0.254
42974W        W12789   5.439  37.952  12.501
42975W        W12790  23.551  30.152   3.691
42976W        W12791  30.951  23.019  11.417
42977W        W12792  32.962  24.724   4.309
42978W        W12793  16.271  27.476   4.233
42979W        W12794  42.405  23.100   4.659
42980W        W12795  13.233  31.957   1.720
42981W        W12796  41.974  39.370   0.800
42982W        W12797   2.250  17.679  13.801
42983W        W12798  18.605   9.727   4.132
42984W        W12799  39.521  27.075   4.142
42985W        W12800   8.667  22.083   1.925
42986W        W12801   9.190  35.443   2.401
42987W        W12802  32.076  36.550   3.236
42988W        W12803  27.479  27.064   4.152
42989W        W12804   6.277  11.316   9.972
42990W        W12805  16.277  19.536   0.791
42991W        W12806  27.964  33.624   3.746
42992W        W12807  32.122   1.764   1.303
42993W        W12808   4.276  20.256  11.458
42994W        W12809  32.136   3.827   1.265
42995W        W12810  29.609  26.612  12.015
42996W        W12811  33.402   6.370   1.242
42997W        W12812   5.412   1.959   0.372
42998W        W12813  12.204  42.993  11.050
42999W        W12814  41.528  37.849  14.446
43000W        W12815  29.628  10.801  14.007
43001W        W12816  41.976  34.109   3.273
43002W        W12817  32.892   6.235  10.492
43003W        W12818   7.710  17.646   2.662
43004W        W12819   0.775   3.945   0.964
43005W        W12820   2.345   7.219  14.501
43006W        W12821  36.423  37.396   0.340
43007W        W12822  26.579  11.216  14.475
43008W        W12823  21.165  23.088   1.320
43009W        W12824   9.231  31.109   1.865
43010W        W12825  28.931  10.145   1.442
43011W        W12826  12.199   4.830  10.978
43012W        W12827  16.092  17.706  10.909
43013W        W12828  33.932   4.908  11.970
43014W        W12829   5.214   8.344   1.814
43015W        W12830   8.674  19.749  12.570
43016W        W12831  27.076   7.279  12.347
43017W        W12832  14.283  33.382  12.030
43018W        W12833  35.583   7.776  13.502
43019W        W12834  39.030  32.627   0.467
43020W        W12835  40.037   0.888   2.758
43021W        W12836   0.374   9.785   0.857
43022W        W12837  24.589   6.774  11.129
43023W        W12838  18.076  44.274  14.293
43024W        W12839  37.443  14.330  12.469
43025W        W12840  21.559  42.865   9.959
43026W        W12841  29.927  23.495   4.611
43027W        W12842  38.563   3.261   3.212
43028W        W12843  44.295  31.489  10.109
43029W        W12844  16.258  20.055   2.732
43030W        W12845  14.723  26.661  10.569
43031W        W12846  17.131   6.804   3.328
43032W        W12847   4.796  38.517  14.353
43033W        W12848   8.255  24.725   0.811
43034W        W12849  42.330  23.734  14.770
43035W        W12850  15.597   2.378  13.802
43036W        W12851  32.445  19.724  12.974
43037W        W12852  11.147  17.666  13.042
43038W        W12853  16.727  44.326  12.937
43039W        W12854  29.519  11.311   3.834
43040W        W12855  36.556  41.374   1.226
43041W        W12856  29.444   6.731  14.428
43042W        W12857  29.127  36.382  10.950
43043W        W12858   0.477  40.809   1.731
43044W        W12859  21.127  28.176  14.832
43045W        W12860  37.403  39.979  13.342
43046W        W12861  41.811  37.495   1.228
43047W        W12862  35.546  17.716   3.830
43048W        W12863   4.432   4.941  14.894
43049W        W12864  17.129   9.326   0.464
43050W        W12865  26.197   1.964   1.828
43051W        W12866  19.191  18.184  12.055
43052W        W12867   0.462  21.084   0.788
43053W        W12868  27.681  11.712   2.183
43054W        W12869  31.513   6.280   4.789
43055W        W12870  13.280  19.698  10.576
43056W        W12871  40.342  28.958   4.683
43057W        W12872   9.238  30.635  12.520
43058W        W12873  42.411  32.416   2.870
43059W        W12874  22.611  11.234   4.198
43060W        W12875  13.802  19.186  13.353
43061W        W12876  35.521   2.354   1.441
43062W        W12877  36.443  16.804  11.413
43063W        W12878  39.357  15.211   1.382
43064W        W12879   9.163  20.575  11.998
43065W        W12880  35.469  12.125   0.811
43066W        W12881  30.106  41.844  12.897
43067W        W12882  40.915   5.864   1.230
43068W        W12883  24.188  27.586  13.904
43069W        W12884  22.164  31.065  13.926
43070W        W12885  34.372  41.336   2.808
43071W        W12886  25.099  22.680   0.417
43072W        W12887  35.929  12.628  12.883
43073W        W12888  20.564  22.618   1.761
43074W        W12889  37.961   5.887  12.965
43075W        W12890  29.594   7.362   5.187
43076W        W12891  13.606  38.341  10.633
43077W        W12892  39.989   7.209   1.311
43078W        W12893  32.985  17.193  10.634
43079W        W12894   7.688  36.544   0.481
43080W        W12895   8.215  29.990  12.864
43081W        W12896  25.508  18.126  11.385
43082W        W12897  12.211  39.864  12.391
43083W        W12898  23.034   6.773  14.349
43084W        W12899  16.310  32.972   4.265
43085W        W12900  32.456   2.237  10.479
43086W        W12901  34.489  12.766   0.457
43087W        W12902  35.993  32.044   1.698
43088W        W12903  15.310  35.068   2.792
43089W        W12904  25.564   6.742  13.040
43090W        W12905  35.003  17.593   3.811
43091W        W12906   4.931   7.252   1.798
43092W        W12907  12.296  40.517  12.955
43093W        W12908  30.642  43.924  12.026
43094W        W12909  43.461  17.185  14.492
43095W        W12910   6.204  34.917   2.294
43096W        W12911  18.249   5.748  12.531
43097W        W12912  11.805  35.540  11.005
43098W        W12913  39.850  21.570  11.008
43099W        W12914   6.276   0.450  14.395
43100W        W12915  33.049  32.588  13.926
43101W        W12916  39.437  11.269  14.990
43102W        W12917  41.376  25.573   1.330
43103W        W12918  26.691  25.176  12.061
43104W        W12919  36.505  11.181  11.099
43105W        W12920  30.450  25.202  13.869
43106W        W12921  20.766  22.045  11.007
43107W        W12922   9.785  27.554   1.348
43108W        W12923  26.696   8.743   5.223
43109W        W12924  22.093  13.738   4.322
43110W        W12925  24.168  39.383   3.358
43111W        W12926  43.884  34.519   3.260
43112W        W12927  15.264   5.930   4.325
43113W        W12928  41.803  12.794  14.369
43114W        W12929  17.087  24.036   2.309
43115W        W12930  10.800   3.248  10.588
43116W        W12931  35.869  36.546  14.368
43117W        W12932   9.716  10.860  12.995
43118W        W12933  27.573  35.934   2.325
43119W        W12934  42.464   0.910  13.884
43120W        W12935  16.294  43.008   4.335
43121W        W12936  15.798  33.499   5.130
43122W        W12937  15.823   9.273   1.380
43123W        W12938   7.697   1.367   2.381
43124W        W12939  31.019  41.014   0.258
43125W        W12940   0.837  15.328  14.490
43126W        W12941  25.564  31.647  14.349
43127W        W12942  37.385  25.654  14.833
43128W        W12943  12.124  28.972   3.375
43129W        W12944  41.912  42.776  10.965
43130W        W12945  31.075   2.910  12.348
43131W        W12946  11.817  26.203  10.450
43132W        W12947  29.034   5.809   4.633
43133W        W12948  30.089  25.048  12.897
43134W        W12949   6.236  16.760   3.193
43135W        W12950  37.350  16.238  12.493
43136W        W12951   1.434  15.164   3.728
43137W        W12952  19.135  14.200   4.823
43138W        W12953  25.054  40.818  11.512
43139W        W12954   2.415  29.477  13.440
43140W        W12955  24.178  28.063  13.543
43141W        W12956  21.639  33.393  11.057
43142W        W12957  22.177  41.859   1.426
43143W        W12958  14.740  17.264   1.300
43144W        W12959  33.881   4.824   1.846
43145W        W12960   1.809  16.115  11.109
43146W        W12961   2.742  40.842   2.888
43147W        W12962  38.375   6.399   4.756
43148W        W12963  33.920  21.133  10.089
43149W        W12964  39.556   2.460   1.260
43150W        W12965  17.722  44.941  14.312
43151W        W12966  24.652  34.070   0.936
43152W        W12967  26.608  16.613   1.212
43153W        W12968  11.856  40.316  11.503
43154W        W12969  20.039  38.463  11.998
43155W        W12970  12.784  18.725  10.940
43156W        W12971  34.058  26.093  12.533
43157W        W12972  27.624  10.857   4.206
43158W        W12973  20.580   5.219  12.087
43159W        W12974  28.543  26.565  13.440
43160W        W12975   4.350   1.955   3.342
43161W        W12976   6.894  36.877  11.549
43162W        W12977  43.971  24.164   4.304
43163W        W12978   9.221  15.285  14.372
43164W        W12979   7.183  29.458   3.850
43165W        W12980   1.427   6.363   3.243
43166W        W12981  39.906  44.813   2.369
43167W        W12982  14.253  14.143  14.451
43168W        W12983  43.796   1.963  13.423
43169W        W12984  29.074  13.324   0.960
43170W        W12985  38.987   5.288   0.359
43171W        W12986  17.237  10.271  11.423
43172W        W12987   3.271   8.790  14.979
43173W        W12988  10.720  43.916  14.405
43174W        W12989  28.493  30.085   4.196
43175W        W12990  24.530  38.002   1.779
43176W        W12991  19.227  17.762  12.427
43177W        W12992  17.779   2.467   4.349
43178W        W12993  35.094  11.748  12.441
43179W        W12994  11.850  18.147   3.282
43180W        W12995   6.371  28.052  12.082
43181W        W12996  10.216  12.219  12.047
43182W        W12997  13.329   3.365  14.824
43183W        W12998  17.802  20.036   2.844
43184W        W12999  31.035  37.349  10.438
43185W        W13000  39.445  21.166   0.431
43186W        W13001  37.025  28.143   2.317
43187W        W13002  31.899  29.011  14.320
43188W        W13003  13.157   4.359  12.903
43189W        W13004  15.737  38.878  13.887
43190W        W13005  43.015  30.927   5.236
43191W        W13006  26.546  19.194  11.389
43192W        W13007  39.816   4.349  14.440
43193W        W13008  36.541  39.405   0.275
43194W        W13009  38.425  25.621   3.666
43195W        W13010   6.731  18.621   2.900
43196W        W13011  20.132   8.733   5.081
43197W        W13012  28.539  24.164  12.506
43198W        W13013  38.463  19.265  14.775
43199W        W13014   7.903  41.417   3.821
43200W        W13015  43.958  19.677   0.313
43201W        W13016  40.880  36.362  10.555
43202W        W13017  26.654  25.560  11.962
43203W        W13018  30.927   9.822  11.943
43204W        W13019  17.062   7.814   4.729
43205W        W13020  35.005  19.606   2.723
43206W        W13021  25.095  20.040   4.334
43207W        W13022  27.563  29.651   2.236
43208W        W13023  26.108  30.003   3.838
43209W        W13024   9.284  40.362   0.749
43210W        W13025  39.441  23.656   3.342
43211W        W13026   9.277  42.894   2.864
43212W        W13027   4.270  37.569   0.730
43213W        W13028  19.643   5.822   3.346
43214W        W13029  44.756  18.179  13.028
43215W        W13030  19.194  12.224  10.462
43216W        W13031  41.808  14.776  11.550
43217W        W13032  18.545  21.718   3.673
43218W        W13033  25.963   6.422  13.309
43219W        W13034  21.723   3.315   4.741
43220W        W13035  40.308   5.757  13.369
43221W        W13036  42.901  31.914   2.237
43222W        W13037  43.383  42.926   3.161
43223W        W13038  23.592   7.396  14.310
43224W        W13039   2.258   1.354  12.490
43225W        W13040  23.115  35.556  14.299
43226W        W13041  18.662   6.391  13.943
43227W        W13042  13.191   6.840  10.431
43228W        W13043  27.093  41.877   3.295
43229W        W13044  28.957  40.027  12.019
43230W        W13045   1.885  32.454   2.214
43231W        W13046  19.594  35.583  12.070
43232W        W13047   3.266   5.428  13.987
43233W        W13048   8.389  19.722  13.333
43234W        W13049  40.034   0.304  10.520
43235W        W13050  26.650  14.273  10.592
43236W        W13051  32.542   0.448   1.309
43237W        W13052  14.792  19.062  13.806
43238W        W13053  24.516  14.232  13.496
43239W        W13054  37.920   9.884   4.147
43240W        W13055  36.567  43.465   0.328
43241W        W13056   4.366  29.551  10.970
43242W        W13057  39.454  36.523   1.444
43243W        W13058   2.365   4.870   0.447
43244W        W13059  34.087  23.217   3.756
43245W        W13060  43.778  39.904  11.413
43246W        W13061  21.228   2.235   0.729
43247W        W13062  43.448  27.497   3.387
43248W        W13063  19.556  25.708  12.988
43249W        W13064  33.909   3.844  11.890
43250W        W13065   3.902  27.663  12.470
43251W        W13066   0.371  43.485  14.276
43252W        W13067  39.901  16.247  14.401
43253W        W13068  10.310   5.882  11.503
43254W        W13069  35.423  43.428   0.800
43255W        W13070  12.852   9.382   4.248
43256W        W13071  34.387  33.484   1.928
43257W        W13072   4.348  11.291   4.353
43258W        W13073  31.405  23.614   1.293
43259W        W13074   7.897  21.639  12.917
43260W        W13075  44.265  29.994   4.828
43261W        W13076  44.772  18.645  12.847
43262W        W13077   9.375  29.588   3.643
43263W        W13078  15.767   0.367  13.841
43264W        W13079  20.678  26.011   3.839
43265W        W13080  20.070  10.747  11.053
43266W        W13081   5.238  34.500  14.292
43267W        W13082   5.306  21.695   0.914
43268W        W13083  21.071  12.252  10.573
43269W        W13084   9.195   4.763  13.908
43270W        W13085  11.778  13.678  13.798
43271W        W13086   9.388  38.926  14.482
43272W        W13087   3.882  12.162  11.584
43273W        W13088   5.866  20.625   1.285
43274W        W13089  30.425  12.788  13.907
43275W        W13090  28.097  28.978   3.358
43276W        W13091   9.244  44.371   3.832
43277W        W13092  17.281  38.881  11.092
43278W        W13093  29.550  21.644   1.906
43279W        W13094  28.466   2.926  13.439
43280W        W13095  12.324  42.438   2.816
43281W        W13096  17.676  18.690  14.501
43282W        W13097  39.488   4.349   4.645
43283W        W13098  38.465   0.972  13.039
43284W        W13099  15.746   1.370  14.344
43285W        W13100  16.317  33.440   1.241
43286W        W13101  38.910  10.711   4.690
43287W        W13102  35.958  16.252  13.897
43288W        W13103  33.421   7.394  14.957
43289W        W13104  39.017  33.088  11.097
43290W        W13105  28.965   2.944   1.369
43291W        W13106   3.310  22.242   3.324
43292W        W13107  25.697  17.674   2.764
43293W        W13108   0.314  32.632   3.291
43294W        W13109  18.085  19.050   0.732
43295W        W13110  13.260  23.575  14.494
43296W        W13111  12.655  30.574   4.259
43297W        W13112   8.765   2.308   4.347
43298W        W13113   3.833  29.147  12.960
43299W        W13114  24.079  22.145   2.235
43300W        W13115  36.093  14.227   0.775
43301W        W13116  16.274  30.581  14.321
43302W        W13117  15.307  23.006   4.144
43303W        W13118  32.508  21.198   1.425
43304W        W13119  27.468  16.194  11.055
43305W        W13120  44.337  24.097   2.751
43306W        W13121  10.303  42.847   3.642
43307W        W13122  44.441  40.393   2.747
43308W        W13123  30.509  35.881  12.928
43309W        W13124   0.883  26.548  12.006
43310W        W13125  38.900   6.295  14.329
43311W        W13126  26.671  17.799  11.048
43312W        W13127  14.768  22.732  13.446
43313W        W13128  36.899  38.467   0.322
43314W        W13129   1.916   3.911  12.373
43315W        W13130  26.658  30.537  10.559
43316W        W13131  35.874  29.603   3.752
43317W        W13132   9.239  12.127   4.128
43318W        W13133  21.248  30.140  10.895
43319W        W13134   1.364  16.094  11.375
43320W        W13135  14.731   6.691   4.631
43321W        W13136  32.564  10.879  13.525
43322W        W13137  42.461  23.063  11.095
43323W        W13138  29.125  13.609  14.857
43324W        W13139  16.263  33.570  12.443
43325W        W13140  23.706  36.430   1.762
43326W        W13141  33.057  21.600   0.329
43327W        W13142  31.117  32.992  10.904
43328W        W13143  15.305  42.991   2.769
43329W        W13144  43.782   2.955   4.737
43330W        W13145  31.586  15.748   0.358
43331W        W13146  42.458   1.925  10.892
43332W        W13147  37.517  35.025  14.902
43333W        W13148  30.569   6.293  11.965
43334W        W13149  42.861   7.329   2.672
43335W        W13150  22.027   8.832  14.841
43336W        W13151  37.578  33.482   2.357
43337W        W13152  38.959  31.417  11.532
43338W        W13153  20.211  25.180   4.741
43339W        W13154  14.237   2.872   2.378
43340W        W13155  34.876  25.633   0.784
43341W        W13156   2.842  11.315  12.868
43342W        W13157   4.377  30.432   4.613
43343W        W13158  16.665  30.581   2.694
43344W        W13159  38.949   1.282  12.997
43345W        W13160  38.824  10.811  12.353
43346W        W13161  25.023  27.017   3.305
43347W        W13162   9.250  21.173  14.868
43348W        W13163  29.593  43.965  14.872
43349W        W13164   0.400   4.399  10.972
43350W        W13165   6.845  29.562   4.813
43351W        W13166   7.754  17.795  10.915
43352W        W13167   2.258  23.092  11.582
43353W        W13168  19.733  18.132  11.414
43354W        W13169  36.009  15.178   0.397
43355W        W13170  20.758  22.186   4.246
43356W        W13171  22.112   4.318   3.728
43357W        W13172  13.306  33.390  12.857
43358W        W13173   2.268   7.352   0.316
43359W        W13174   0.364  26.179   0.272
43360W        W13175  29.081  10.285  10.438
43361W        W13176  18.642   4.403   1.864
43362W        W13177   0.964  37.843  12.450
43363W        W13178  44.970  18.237   0.734
43364W        W13179  15.154  11.675  14.454
43365W        W13180  24.682  43.510   0.313
43366W        W13181  42.452  14.817  13.378
43367W        W13182  37.992  18.191   0.271
43368W        W13183  19.738  30.949   1.796
43369W        W13184  28.124  25.513  11.979
43370W        W13185   6.830  28.093  14.414
43371W        W13186   6.778  44.973  10.439
43372W        W13187  29.660  35.073  11.058
43373W        W13188  13.220  18.190   9.946
43374W        W13189   4.779  36.557  14.427
43375W        W13190  31.969  19.676   2.376
43376W        W13191  27.067  20.162  13.875
43377W        W13192  27.081  38.843   3.323
43378W        W13193  31.474   2.265  11.066
43379W        W13194  12.635  42.952  11.111
43380W        W13195  44.001  33.466   2.258
43381W        W13196  26.546  19.586  11.572
43382W        W13197   2.840  40.890  14.303
43383W        W13198  39.548   7.332   1.432
43384W        W13199  28.541  19.143  14.327
43385W        W13200  20.248  15.101   1.758
43386W        W13201  17.792  32.032   0.430
43387W        W13202  26.697  40.042  11.913
43388W        W13203  35.553  41.529   2.727
43389W        W13204  37.015  41.967  14.770
43390W        W13205  38.823   1.310  10.978
43391W        W13206  43.346  29.581   4.280
43392W        W13207  30.925  15.619  12.928
43393W        W13208  31.572   4.342  14.285
43394W        W13209  38.481  24.532   3.752
43395W        W13210   8.727  10.769   2.849
43396W        W13211  12.313   1.460  13.970
43397W        W13212  29.594  17.746  13.851
43398W        W13213  41.914  17.741  14.842
43399W        W13214  33.445  30.129  10.944
43400W        W13215  17.588  17.223   0.856
43401W        W13216   7.693  37.336   4.305
43402W        W13217   4.287   2.810  10.640
43403W        W13218   8.205  12.176   4.313
43404W        W13219  32.582   2.861  13.830
43405W        W13220  29.471   7.831   1.291
43406W        W13221   6.407  44.404   0.468
43407W        W13222  32.498  42.978   3.281
43408W        W13223  15.224   3.224   4.311
43409W        W13224   4.432  26.489  12.076
43410W        W13225  16.187   0.773  14.327
43411W        W13226  35.410  19.705  11.588
43412W        W13227  17.698  23.582   4.611
43413W        W13228  29.486  23.220   0.741
43414W        W13229  21.586  28.581   1.300
43415W        W13230  28.076  39.439   4.162
43416W        W13231   0.876  17.172  14.283
43417W        W13232  34.412  16.292  12.932
43418W        W13233  32.471  22.621  14.447
43419W        W13234  39.364   9.332  10.012
43420W        W13235  24.131   7.826  10.531
43421W        W13236  21.582  26.619   0.413
43422W        W13237  16.702  18.744  11.403
43423W        W13238   2.382  32.992  13.933
43424W        W13239   1.790  35.011   0.466
43425W        W13240  22.617  15.156  13.479
43426W        W13241   3.343  24.090  12.495
43427W        W13242  13.207  43.983   4.777
43428W        W13243  38.486  42.283   3.267
43429W        W13244  20.045   9.777  13.006
43430W        W13245  25.517  31.021  12.053
43431W        W13246  41.936  38.999   3.314
43432W        W13247  38.067  44.009   3.338
43433W        W13248   8.845  42.015   0.467
43434W        W13249  44.765  27.104   0.286
43435W        W13250   6.285  30.628   0.423
43436W        W13251   4.789  35.576   2.768
43437W        W13252  17.271  17.166  12.351
43438W        W13253  37.911  19.164  14.979
43439W        W13254   5.710  25.089  11.408
43440W        W13255   5.438  18.119  14.939
43441W        W13256   0.449  38.555   0.463
43442W        W13257  34.873  36.531   1.792
43443W        W13258  44.342  44.813   3.857
43444W        W13259  21.072  24.074   2.378
43445W        W13260  24.030  27.492   0.848
43446W        W13261  22.585  42.396   0.812
43447W        W13262   4.725  20.142   4.729
43448W        W13263   8.749  30.542  14.430
43449W        W13264  22.995  17.596   0.793
43450W        W13265  38.002  16.645  13.463
43451W        W13266  41.948  42.332  13.538
43452W        W13267  38.930  12.745  14.457
43453W        W13268   9.670  15.774   3.742
43454W        W13269  37.082   4.877  11.103
43455W        W13270   7.405   9.157   2.760
43456W        W13271  19.611  30.999   0.251
43457W        W13272  15.750  18.251   3.678
43458W        W13273  25.032  22.680   3.250
43459W        W13274  22.716  36.904   3.655
43460W        W13275  26.648  21.028  14.927
43461W        W13276  10.208  20.054  12.924
43462W        W13277  25.485  28.961   1.355
43463W        W13278  15.273  33.442  11.382
43464W        W13279  21.546  20.224  12.438
43465W        W13280   6.923  21.647  10.496
43466W        W13281  36.367  34.041   9.934
43467W        W13282  35.096  24.679  14.885
43468W        W13283  21.683   3.870   0.744
43469W        W13284  15.644  22.184   3.165
43470W        W13285  26.205   1.816   2.417
43471W        W13286  20.168  29.594  11.104
43472W        W13287  42.300  39.477   3.729
43473W        W13288  31.122  41.500   0.339
43474W        W13289   4.772  32.530   4.664
43475W        W13290  27.167  10.683  13.002
43476W        W13291  36.359  13.720  11.442
43477W        W13292  15.787   2.331  10.971
43478W        W13293  29.092  29.429  12.024
43479W        W13294  18.645  34.025  14.314
43480W        W13295  23.509  43.372   3.212
43481W        W13296  27.448  44.259   1.343
43482W        W13297   2.361  43.925  11.055
43483W        W13298  19.552  21.239  14.439
43484W        W13299  10.213  31.470   0.921
43485W        W13300   3.922  23.008   2.297
43486W        W13301   5.776  24.492  12.951
43487W        W13302   5.277  35.477  10.612
43488W        W13303   9.176  16.082   3.739
43489W        W13304  11.633  14.115   4.239
43490W        W13305  28.444  24.130  10.609
43491W        W13306   6.720  25.574  12.843
43492W        W13307  30.659  15.776   0.417
43493W        W13308  14.784  44.920  14.834
43494W        W13309  23.132  30.163  11.936
43495W        W13310  34.091  41.981   0.427
43496W        W13311   3.712   7.237   3.700
43497W        W13312  24.573  30.108  11.952
43498W        W13313  21.727  35.567   1.440
43499W        W13314   4.807  43.905  12.380
43500W        W13315  24.545  15.812  11.452
43501W        W13316  13.202  40.542   0.736
43502W        W13317  34.891  22.165  11.391
43503W        W13318  11.681  44.315  11.114
43504W        W13319  27.566   4.871   3.637
43505W        W13320  36.076  15.740  13.020
43506W        W13321  20.527  15.164   3.172
43507W        W13322   9.344  22.735  12.020
43508W        W13323  35.440  15.758  12.412
43509W        W13324  34.039  25.609   4.654
43510W        W13325  39.909  42.939  13.836
43511W        W13326  44.404  29.584   4.627
43512W        W13327  41.031  10.368  10.138
43513W        W13328  44.894  23.614  14.440
43514W        W13329   9.848  27.174  12.455
43515W        W13330  30.062  40.465   2.346
43516W        W13331  26.192  36.362   3.277
43517W        W13332  35.003  19.675  14.329
43518W        W13333   1.888  28.654   0.831
43519W        W13334  40.008   8.730  12.465
43520W        W13335  33.892  29.597  13.397
43521W        W13336  38.423  18.113   4.231
43522W        W13337  18.676  25.591  10.603
43523W        W13338  39.024  42.885  11.570
43524W        W13339  13.202   4.786  12.529
43525W        W13340  16.643  23.090  11.875
43526W        W13341   3.851   1.794  11.939
43527W        W13342  11.210  20.609  12.962
43528W        W13343  35.558  21.621  10.928
43529W        W13344  34.007   9.294   2.374
43530W        W13345   6.762   1.280   3.211
43531W        W13346  42.947  20.532  10.529
43532W        W13347  21.542  31.427   3.806
43533W        W13348  41.436  26.981   0.259
43534W        W13349  39.392  12.840  13.941
43535W        W13350  36.925  15.609  13.837
43536W        W13351  29.637  24.490   2.297
43537W        W13352  38.062  27.092  14.333
43538W        W13353  42.472  19.139   2.190
43539W        W13354  26.995  13.243   1.352
43540W        W13355  39.459  10.814  13.050
43541W        W13356   1.844  24.619   2.665
43542W        W13357  34.897  18.741  12.485
43543W        W13358  41.300  36.420  11.946
43544W        W13359   9.336  39.957  12.925
43545W        W13360   7.413  27.568   1.722
43546W        W13361   5.821   2.776  14.848
43547W        W13362  37.394  13.812   4.637
43548W        W13363  17.777  34.603  12.011
43549W        W13364  10.764  37.412  13.001
43550W        W13365  39.872  42.023   4.780
43551W        W13366  15.142  15.220  11.971
43552W        W13367   9.275  18.576   4.658
43553W        W13368  21.536  35.543  12.064
43554W        W13369  12.219  21.139   0.318
43555W        W13370  42.415  23.581  13.537
43556W        W13371  19.285  37.993   1.870
43557W        W13372   0.762   0.909  14.404
43558W        W13373  25.580   8.385  10.918
43559W        W13374  14.641   3.236   1.929
43560W        W13375   2.243  28.953  10.558
43561W        W13376  28.103  14.116   1.429
43562W        W13377  18.192  39.038   0.882
43563W        W13378  32.519  35.881  14.884
43564W        W13379  26.172  37.357   9.946
43565W        W13380  13.178  38.985   4.606
43566W        W13381  22.651  10.669  14.821
43567W        W13382  37.382  40.866  12.022
43568W        W13383  12.704  17.757  11.444
43569W        W13384  26.643   4.244  10.952
43570W        W13385   2.273  41.943   4.154
43571W        W13386   1.273  33.948  13.901
43572W        W13387  19.175   4.902  10.496
43573W        W13388  16.094  27.083  13.340
43574W        W13389  24.137  39.466   4.220
43575W        W13390   4.259   0.386  11.588
43576W        W13391   0.980  11.673  12.872
43577W        W13392   8.321  35.094   1.363
43578W        W13393  22.594  33.578  13.419
43579W        W13394  20.572  36.462  13.891
43580W        W13395  16.722   6.823  14.865
43581W        W13396  43.312   1.288  14.469
43582W        W13397  12.695  35.058  11.480
43583W        W13398  14.617   8.222  12.994
43584W        W13399  25.690  39.812  10.141
43585W        W13400   2.406  14.234   2.697
43586W        W13401  34.609  20.704   1.803
43587W        W13402   2.792  39.945  10.631
43588W        W13403   8.271  17.766  12.003
43589W        W13404  17.102  18.706  12.876
43590W        W13405  32.576   3.226   4.235
43591W        W13406  22.032  18.609  10.048
43592W        W13407  23.240  38.456   1.883
43593W        W13408   4.413   1.869   4.114
43594W        W13409   8.213  14.652   1.794
43595W        W13410  22.191  34.026   0.268
43596W        W13411  27.087  35.509   2.405
43597W        W13412   3.879  25.064  12.376
43598W        W13413  41.382  13.616   9.558
43599W        W13414  22.049  23.216  12.371
43600W        W13415   7.760  27.553   1.290
43601W        W13416  17.582  11.173  11.585
43602W        W13417  27.610  27.059  13.987
43603W        W13418  12.337  12.143  14.333
43604W        W13419  24.997   4.747  12.364
43605W        W13420  27.151  21.050   4.726
43606W        W13421  13.797  21.191  14.885
43607W        W13422   9.265  31.950   5.097
43608W        W13423   4.437  14.761  12.968
43609W        W13424  21.536  31.481  10.468
43610W        W13425  35.418  33.462   4.643
43611W        W13426  12.746  24.111  13.036
43612W        W13427   2.801  43.779  12.419
43613W        W13428   7.892  22.547   3.184
43614W        W13429  27.007  39.524   0.277
43615W        W13430  20.621  43.946  10.907
43616W        W13431  34.041  15.788   0.820
43617W        W13432   9.245  12.167   1.433
43618W        W13433   9.671  38.939  14.423
43619W        W13434  28.502  11.719   2.804
43620W        W13435  40.958  30.565   1.255
43621W        W13436  39.961  24.719  10.894
43622W        W13437  30.438  18.599  14.028
43623W        W13438   0.485  10.306   3.218
43624W        W13439   2.958   7.179  14.919
43625W        W13440   5.791  38.493  11.861
43626W        W13441  28.029  26.566   4.290
43627W        W13442  17.162  44.854   2.896
43628W        W13443  20.688  43.347  14.826
43629W        W13444  13.151  26.973   0.726
43630W        W13445   2.414  38.550   3.379
43631W        W13446  19.646  12.264   0.452
43632W        W13447  25.695   4.383  13.975
43633W        W13448  24.570  30.509   0.258
43634W        W13449  33.913   8.897   0.952
43635W        W13450   3.384   1.466   0.362
43636W        W13451  12.621  43.830  12.391
43637W        W13452  21.722  20.080   0.398
43638W        W13453   7.283  15.780   0.461
43639W        W13454  42.329  43.485   1.817
43640W        W13455  10.677   3.840   4.254
43641W        W13456  36.581  34.104   4.756
43642W        W13457  18.137  25.490   4.623
43643W        W13458  34.063  13.832  11.010
43644W        W13459  17.263  32.900   3.249
43645W        W13460  19.711  35.043  13.858
43646W        W13461  20.733   5.821   3.764
43647W        W13462  19.161  22.225  14.024
43648W        W13463  36.984  12.330  12.052
43649W        W13464  16.662   9.175   2.685
43650W        W13465   2.856  20.531   3.161
43651W        W13466  39.354  42.337  14.933
43652W        W13467  21.173  43.828   5.128
43653W        W13468  18.198  18.061   1.801
43654W        W13469  28.031  28.671   1.759
43655W        W13470  29.158   4.364  11.543
43656W        W13471  22.502  14.127   3.688
43657W        W13472   0.747  19.554  13.430
43658W        W13473  41.894   6.774   0.831
43659W        W13474  40.026  35.968   4.676
43660W        W13475  16.584  24.137  12.450
43661W        W13476  11.302  24.171  12.993
43662W        W13477  24.594  19.629   2.351
43663W        W13478  38.443   9.766  14.914
43664W        W13479  22.587  12.123   4.284
43665W        W13480   5.195   1.453   0.838
43666W        W13481  20.589  16.305   3.188
43667W        W13482  31.547   6.246  13.001
43668W        W13483  37.531  31.071  11.589
43669W        W13484  17.270  23.067  12.899
43670W        W13485  41.353   1.440  12.829
43671W        W13486  41.933   9.655   0.949
43672W        W13487  16.745  26.505  12.024
43673W        W13488  43.797  22.997  12.444
43674W        W13489  37.893  28.016   4.810
43675W        W13490  25.652  10.739   3.800
43676W        W13491  38.073  12.126  13.975
43677W        W13492  36.028  29.610   3.209
43678W        W13493  14.714   1.963  10.947
43679W        W13494  35.552  25.527  13.332
43680W        W13495  41.922  35.522   4.156
43681W        W13496  21.679  30.058   0.301
43682W        W13497  24.692  37.399  14.416
43683W        W13498   2.889  38.343  10.997
43684W        W13499  11.242  24.708   4.756
43685W        W13500  34.941  37.562  13.028
43686W        W13501  21.691   6.813  12.463
43687W        W13502  40.894  26.681  12.948
43688W        W13503  30.067  26.184   4.139
43689W        W13504  22.563  18.750   2.258
43690W        W13505  23.039  38.557   0.326
43691W        W13506   6.339  21.601  11.921
43692W        W13507  35.391  34.521   2.867
43693W        W13508  13.843  20.657   3.156
43694W        W13509  25.492  40.530   2.218
43695W        W13510  34.458  21.233  11.494
43696W        W13511  29.574  21.613  12.893
43697W        W13512  44.486  39.497   2.201
43698W        W13513   1.799  36.008   2.705
43699W        W13514   6.299  29.166  11.861
43700W        W13515  37.079  32.394  11.553
43701W        W13516  27.561   9.273   0.446
43702W        W13517  43.488  33.463  11.396
43703W        W13518   8.696   5.337  13.978
43704W        W13519   1.377  44.494  14.909
43705W        W13520  23.638   1.382   4.175
43706W        W13521  13.806   1.931  14.386
43707W        W13522  23.597  38.464   2.773
43708W        W13523  26.065   4.261   2.211
43709W        W13524   5.802  22.128   2.292
43710W        W13525  42.897  14.308  12.931
43711W        W13526  21.133  21.566  13.918
43712W        W13527   4.910   8.299  11.440
43713W        W13528   3.765  40.315  10.927
43714W        W13529  13.329   1.768  14.901
43715W        W13530  23.157  24.150  14.462
43716W        W13531   5.254  29.926  14.981
43717W        W13532  44.493  19.704  10.466
43718W        W13533  10.303  21.628   4.831
43719W        W13534  43.961  37.472  10.542
43720W        W13535  10.875  21.085  13.926
43721W        W13536   9.867  43.338   3.246
43722W        W13537  15.753  30.073   4.314
43723W        W13538  23.138  27.509  14.878
43724W        W13539  11.741  33.461   0.869
43725W        W13540  34.046  29.933  14.306
43726W        W13541  16.804  28.560  13.894
43727W        W13542  43.328   0.955  13.403
43728W        W13543   9.367  32.517  10.905
43729W        W13544  32.116   9.651  12.913
43730W        W13545   5.328   8.198  11.884
43731W        W13546  42.998   0.483   2.714
43732W        W13547  33.618  40.345  13.508
43733W        W13548  36.435  20.626  13.472
43734W        W13549  30.466   1.257   2.297
43735W        W13550   5.321  34.493   3.285
43736W        W13551  25.991   5.209   1.714
43737W        W13552  25.968   6.337   4.235
43738W        W13553  34.419   0.324  13.544
43739W        W13554  40.946  19.623   0.834
43740W        W13555   2.806  10.768   4.831
43741W        W13556  28.584  10.870  13.811
43742W        W13557  31.953  12.757   0.781
43743W        W13558  32.074   7.388  10.897
43744W        W13559  32.954  19.053  11.877
43745W        W13560  35.524  38.466  10.600
43746W        W13561   8.226   3.887   2.720
43747W        W13562  18.158  40.910   1.291
43748W        W13563  41.294  27.614  12.508
43749W        W13564  30.569   9.228  13.486
43750W        W13565  10.663  43.900  14.814
43751W        W13566  31.020  31.058   3.763
43752W        W13567   6.369  39.545   0.864
43753W        W13568  33.104  13.656  14.332
43754W        W13569  43.350   8.736   0.794
43755W        W13570  16.597  24.084  11.979
43756W        W13571  19.146  26.139   3.670
43757W        W13572  35.045   3.710   4.287
43758W        W13573  24.684   0.430   1.929
43759W        W13574  36.893  37.881  12.342
43760W        W13575  16.671   1.818   1.929
43761W        W13576   8.285  44.409   1.833
43762W        W13577  36.585  38.059  12.531
43763W        W13578  15.594  43.424  11.399
43764W        W13579  27.611  17.646   2.297
43765W        W13580  18.748  31.906  13.990
43766W        W13581   2.403  28.939   2.199
43767W        W13582  35.857  14.325  11.543
43768W        W13583  29.072  16.666  13.949
43769W        W13584   2.318  40.313   0.336
43770W        W13585  18.713  40.321   4.670
43771W        W13586  44.803  21.678  10.948
43772W        W13587  36.007  12.658  11.533
43773W        W13588  38.863  40.799  11.409
43774W        W13589  14.638  21.676  12.415
43775W        W13590  31.954   4.751   0.819
43776W        W13591   7.250   4.350  12.836
43777W        W13592  19.262  31.479   1.702
43778W        W13593   1.947  11.859  14.499
43779W        W13594  27.065  14.220  12.868
43780W        W13595   2.372  24.151  13.864
43781W        W13596  28.438  30.144   4.645
43782W        W13597  25.694  32.092  11.533
43783W        W13598  42.932   4.799  11.956
43784W        W13599   9.659   7.879   3.732
43785W        W13600  40.449  17.710  11.561
43786W        W13601  35.103  44.471  12.885
43787W        W13602  43.901  17.198   2.393
43788W        W13603  23.625  36.540  14.296
43789W        W13604  17.766  39.059   1.711
43790W        W13605  10.346  33.106  14.831
43791W        W13606   0.776  15.606  13.010
43792W        W13607  41.403  37.947   4.619
43793W        W13608   5.904  31.951   1.930
43794W        W13609  24.192  28.598   0.966
43795W        W13610  31.016  19.600  13.880
43796W        W13611  37.066  36.430   4.693
43797W        W13612  26.528   8.792   2.899
43798W        W13613  10.170  21.203   4.643
43799W        W13614  24.023  42.947   1.432
43800W        W13615   3.903  12.148   4.198
43801W        W13616   4.833  11.752  13.940
43802W        W13617  40.916  17.290  14.807
43803W        W13618  29.953  21.019  11.536
43804W        W13619  41.415   1.352   3.849
43805W        W13620  25.067  24.992   2.869
43806W        W13621  18.745  17.272   4.628
43807W        W13622  37.524  41.874  11.423
43808W        W13623  40.982  41.009  10.595
43809W        W13624  10.360  35.474   3.279
43810W        W13625  13.779  41.897  11.118
43811W        W13626  37.993  14.830  14.415
43812W        W13627  23.562  40.540  11.566
43813W        W13628  24.147  29.617   0.768
43814W        W13629   7.382  43.297  13.946
43815W        W13630  29.598  16.603  12.048
43816W        W13631  26.171   4.938  12.004
43817W        W13632  34.051  20.712   3.778
43818W        W13633  20.550  38.457  14.906
43819W        W13634  29.631  42.858  13.051
43820W        W13635  40.479  18.119  12.095
43821W        W13636  29.481  38.014  13.332
43822W        W13637  27.619   1.780  12.509
43823W        W13638  18.707  11.182  12.552
43824W        W13639   3.859  20.639  10.899
43825W        W13640  18.691  42.963   9.937
43826W        W13641  10.749   2.766  11.121
43827W        W13642  22.619  38.343  11.929
43828W        W13643  44.820  38.001  14.762
43829W        W13644  11.214   3.743   2.890
43830W        W13645  25.020  19.721  12.064
43831W        W13646   8.884   3.400  11.874
43832W        W13647  18.661  18.596   1.317
43833W        W13648   1.451   6.188  11.917
43834W        W13649  37.564   8.751   0.353
43835W        W13650   3.401  19.236  14.963
43836W        W13651  27.967  38.867   0.914
43837W        W13652  16.186  20.258  11.958
43838W        W13653  35.886  30.482  11.418
43839W        W13654  19.161  11.226   3.696
43840W        W13655  33.477  20.214   3.306
43841W        W13656  15.694   5.348   0.929
43842W        W13657   1.799   1.372  12.876
43843W        W13658  17.306  25.143  10.891
43844W        W13659  12.643  33.487  13.059
43845W        W13660  42.947   3.794  14.440
43846W        W13661   8.372  12.752   4.754
43847W        W13662  30.059  36.028  13.362
43848W        W13663  27.979   7.244  11.547
43849W        W13664   9.795  37.535   0.850
43850W        W13665  11.362  27.074   4.180
43851W        W13666   6.222   6.275  14.426
43852W        W13667  27.087  32.944  14.513
43853W        W13668  17.198   4.205  11.986
43854W        W13669  36.463  26.104   0.252
43855W        W13670  39.010  11.336  14.008
43856W        W13671   6.202  13.104   2.257
43857W        W13672  18.168  31.596   0.363
43858W        W13673  19.112  18.789  14.995
43859W        W13674  29.152   5.391  14.497
43860W        W13675   5.709  37.509   3.309
43861W        W13676  29.449  24.484   4.715
43862W        W13677   3.915  19.550   1.235
43863W        W13678   0.348  21.691  12.470
43864W        W13679  32.416  21.736  11.006
43865W        W13680  35.452  10.297  11.527
43866W        W13681  21.082   3.438   3.256
43867W        W13682  10.863  36.442   3.285
43868W        W13683  32.531  21.596  10.579
43869W        W13684   6.201  32.529   2.186
43870W        W13685   0.963  28.948  10.597
43871W        W13686   5.331  39.938  11.903
43872W        W13687  27.658  38.367   0.263
43873W        W13688   7.344  41.323   4.743
43874W        W13689  14.759  19.239   1.231
43875W        W13690  27.134  30.996   1.325
43876W        W13691   8.876  22.503  12.357
43877W        W13692   1.479   1.928   1.915
43878W        W13693  20.753  11.833   4.322
43879W        W13694  43.329  21.649  13.466
43880W        W13695  13.834  40.941   1.771
43881W        W13696   7.763  40.919   0.935
43882W        W13697   1.964  23.546  10.421
43883W        W13698   5.333  29.436   0.953
43884W        W13699  27.689  23.126   4.235
43885W        W13700  27.692   0.446  12.416
43886W        W13701  13.823  17.605   0.789
43887W        W13702   5.276  33.435   2.387
43888W        W13703  11.718  41.820   1.417
43889W        W13704  21.038  24.103   3.318
43890W        W13705  39.816  29.973  14.503
43891W        W13706   8.310   1.348   1.282
43892W        W13707  43.396  36.347   0.922
43893W        W13708   2.445   0.347   4.232
43894W        W13709   0.956  11.759  12.002
43895W        W13710   8.245  10.294  11.961
43896W        W13711  28.620   4.313  10.580
43897W        W13712  10.339  18.137   0.457
43898W        W13713  36.573  36.074  10.934
43899W        W13714  10.803  33.922   4.648
43900W        W13715  23.601  17.600  10.141
43901W        W13716  39.509  26.617  14.943
43902W        W13717  37.448  27.198   4.780
43903W        W13718   7.277  33.587   4.746
43904W        W13719  20.610  42.027  12.022
43905W        W13720  19.164  34.452   1.846
43906W        W13721  29.945  27.060   1.733
43907W        W13722  38.990  34.937  12.428
43908W        W13723  40.489  28.098   3.366
43909W        W13724  32.591  16.711   3.290
43910W        W13725  21.662  25.605   3.834
43911W        W13726   6.868  10.146  14.394
43912W        W13727   5.739  24.533   2.265
43913W        W13728  11.699  32.141  11.014
43914W        W13729  35.561  30.063  10.888
43915W        W13730  38.839   5.253   1.749
43916W        W13731  22.501   6.355   3.329
43917W        W13732  34.599  41.451   3.387
43918W        W13733   5.393  24.080  12.990
43919W        W13734  23.528  12.334  10.454
43920W        W13735  43.508  35.026  10.628
43921W        W13736  33.879  26.610   1.210
43922W        W13737  36.364  38.956   2.417
43923W        W13738  10.227  30.037   3.259
43924W        W13739  27.632  37.849  13.319
43925W        W13740  10.328  32.892   3.180
43926W        W13741  28.490  42.480  11.571
43927W        W13742   1.899  25.611  10.427
43928W        W13743  37.567  44.916  11.444
43929W        W13744   8.298  10.646  14.389
43930W        W13745  27.106   0.760   2.280
43931W        W13746   9.885  32.999  13.535
43932W        W13747  21.120  31.591   2.814
43933W        W13748  36.593  43.983   3.319
43934W        W13749  15.719  13.234   0.417
43935W        W13750  23.640   1.452   0.403
43936W        W13751  28.482  12.732  11.580
43937W        W13752  33.899  25.473  13.457
43938W        W13753   4.368  32.922   1.240
43939W        W13754   9.325  26.504  13.938
43940W        W13755  40.031  23.114   3.756
43941W        W13756  32.093  41.377   1.866
43942W        W13757  19.195  33.568  13.011
43943W        W13758   6.199  21.527  12.905
43944W        W13759  39.981  41.990   0.900
43945W        W13760  29.557  19.200  11.107
43946W        W13761  24.154  22.998   1.325
43947W        W13762  38.015  30.440   0.840
43948W        W13763  40.358  19.661   1.215
43949W        W13764   3.270  36.976  13.842
43950W        W13765  34.874   1.321   3.312
43951W        W13766   2.346  23.092   1.853
43952W        W13767  33.475   4.314   4.690
43953W        W13768  41.493   7.768   2.663
43954W        W13769  19.230   7.856   4.627
43955W        W13770  44.320  39.490   0.912
43956W        W13771   4.719  33.064  13.322
43957W        W13772   7.278  31.599   0.858
43958W        W13773  26.580  22.082  12.009
43959W        W13774   4.864   1.746  12.490
43960W        W13775  38.326  27.553   2.804
43961W        W13776  10.321  24.487  12.900
43962W        W13777   8.374  12.695   0.358
43963W        W13778   2.756  29.430  14.760
43964W        W13779  19.546  17.774   1.923
43965W        W13780  40.483  13.224   4.797
43966W        W13781  21.554  31.419   3.301
43967W        W13782  17.234  34.569   4.277
43968W        W13783  43.955   9.150   2.868
43969W        W13784  29.452  39.957  10.514
43970W        W13785  38.420  36.993  13.348
43971W        W13786  34.535  10.771  14.482
43972W        W13787  16.141   6.266   0.300
43973W        W13788  14.770  21.064  10.145
43974W        W13789  25.598   1.297   2.351
43975W        W13790  29.107   8.694  13.372
43976W        W13791  14.271  17.597  14.419
43977W        W13792  23.208  40.427  13.523
43978W        W13793  44.297  13.699   3.756
43979W        W13794   6.347   8.204   3.716
43980W        W13795  21.154   3.833   1.236
43981W        W13796  22.246  43.491   0.362
43982W        W13797  36.937  37.458   2.229
43983W        W13798  40.336  18.708   2.664
43984W        W13799  39.854  34.535   3.783
43985W        W13800  44.294  39.473   3.828
43986W        W13801  30.965  32.624   0.462
43987W        W13802  16.641  44.301   0.441
43988W        W13803  28.142   4.817   1.875
43989W        W13804   1.836   5.308   3.178
43990W        W13805   7.209  39.031   1.441
43991W        W13806  44.956  29.939   3.307
43992W        W13807  40.828  34.417  11.880
43993W        W13808  44.971  27.120  10.919
43994W        W13809  11.172  20.110   0.466
43995W        W13810   2.732  41.341   4.233
43996W        W13811  30.062  14.214   3.760
43997W        W13812  35.937  25.148   1.844
43998W        W13813  22.111   6.727   4.334
43999W        W13814  34.495   5.728   0.778
44000W        W13815  31.013  20.613  12.445
44001W        W13816   5.766  19.569   4.252
44002W        W13817  10.692   2.327   2.391
44003W        W13818  27.520  32.992  14.997
44004W        W13819  37.987   3.408  14.331
44005W        W13820   3.935   7.369   3.325
44006W        W13821  40.328  33.933  13.444
44007W        W13822   8.711  30.931   4.838
44008W        W13823  17.722   0.969  11.484
44009W        W13824   9.328  25.199   4.753
44010W        W13825  10.709  38.004  14.028
44011W        W13826  11.136  32.487   0.334
44012W        W13827  28.091  23.086  11.565
44013W        W13828  38.921  13.262  14.859
44014W        W13829   8.735  30.562  12.483
44015W        W13830  20.530  10.807   1.445
44016W        W13831  42.842   3.284   3.165
44017W        W13832  34.607  21.593   3.304
44018W        W13833   7.726  43.982   0.373
44019W        W13834  32.029   2.286   1.332
44020W        W13835  37.836  38.352  11.459
44021W        W13836  36.031  14.304  11.036
44022W        W13837  15.115  20.048   4.286
44023W        W13838   1.365   9.154   2.394
44024W        W13839  40.506  38.388  12.942
44025W        W13840  26.503  19.554  11.020
44026W        W13841   0.976  35.926  10.574
44027W        W13842   2.410   6.312  11.080
44028W        W13843  42.881  33.556   4.245
44029W        W13844  13.193  24.016  13.375
44030W        W13845  32.623  44.775   4.639
44031W        W13846  38.968  29.525  10.023
44032W        W13847  22.129  34.935   0.459
44033W        W13848  32.972  17.122   4.683
44034W        W13849  20.095  11.761  14.327
44035W        W13850  30.583  24.155  12.374
44036W        W13851  21.562  17.257  10.576
44037W        W13852  29.646   0.359  14.886
44038W        W13853  28.598  20.587  14.310
44039W        W13854  27.664   3.715   4.327
44040W        W13855  22.062  33.879   2.786
44041W        W13856  18.177  15.796  10.449
44042W        W13857  15.601  25.098  10.606
44043W        W13858  21.246  23.194   0.757
44044W        W13859  21.128  32.517  11.442
44045W        W13860  21.702  19.695   0.768
44046W        W13861  24.683  18.753   3.235
44047W        W13862   6.729  27.612   1.743
44048W        W13863   5.300  17.678  10.504
44049W        W13864  10.836  44.324  11.506
44050W        W13865  14.733  25.586   2.191
44051W        W13866  37.022  29.132  14.484
44052W        W13867  35.454  38.929   0.904
44053W        W13868  34.484  37.075  13.323
44054W        W13869  31.912  12.775   2.765
44055W        W13870   4.287   8.725  13.969
44056W        W13871  22.236  43.766   2.197
44057W        W13872  44.766  27.523   1.886
44058W        W13873  20.565  25.096  13.827
44059W        W13874  37.874  39.466  10.514
44060W        W13875  39.034   4.428   0.757
44061W        W13876  35.097  16.094  14.766
44062W        W13877  13.648  27.507  10.557
44063W        W13878  19.258  30.495  13.061
44064W        W13879  41.885  12.717  12.086
44065W        W13880   1.860   1.443   4.276
44066W        W13881  35.520  39.947   2.256
44067W        W13882  32.997   9.341  11.512
44068W        W13883  41.909  15.172  12.966
44069W        W13884  40.927   2.812  11.569
44070W        W13885  41.392  39.836  11.020
44071W        W13886  11.158  22.189   3.651
44072W        W13887  37.574  17.701   4.830
44073W        W13888   4.274   7.736   0.299
44074W        W13889  12.120   5.932   4.286
44075W        W13890  29.014  37.903  12.570
44076W        W13891  38.393  30.966   4.193
44077W        W13892  20.217  11.766   2.795
44078W        W13893  12.829  25.218  11.008
44079W        W13894  27.007  11.715   2.246
44080W        W13895  10.327  44.895   4.307
44081W        W13896  41.935  30.574   1.344
44082W        W13897  25.094  14.337   2.719
44083W        W13898  23.202  21.707   1.904
44084W        W13899  26.169   4.215  10.430
44085W        W13900  36.522  21.594   1.756
44086W        W13901  16.802  14.325   4.167
44087W        W13902  39.448  37.999   4.801
44088W        W13903   9.214  34.925   0.962
44089W        W13904  35.943  15.782  10.944
44090W        W13905  12.720  31.959  12.564
44091W        W13906  38.961   6.815   0.923
44092W        W13907  25.655  18.691  11.009
44093W        W13908  10.172  22.145  12.433
44094W        W13909  28.933  37.413  12.455
44095W        W13910  16.791  28.635  12.512
44096W        W13911  31.960  42.904  10.003
44097W        W13912  15.115  33.508   1.424
44098W        W13913   8.316  15.309   4.769
44099W        W13914  16.735  17.161  13.985
44100W        W13915   5.331  34.474  11.496
44101W        W13916  19.545   6.755   4.256
44102W        W13917  17.582  38.418   4.772
44103W        W13918  16.601  43.963  11.885
44104W        W13919  15.584  41.440  12.857
44105W        W13920  26.566  44.918   1.919
44106W        W13921  26.955  22.119   1.256
44107W        W13922   7.870  25.015  13.523
44108W        W13923  44.863  34.896   0.391
44109W        W13924  15.735  40.999  13.020
44110W        W13925  19.585  44.334   4.329
44111W        W13926  23.673   8.294   1.256
44112W        W13927  40.873  39.374  11.106
44113W        W13928  24.055  18.625   2.229
44114W        W13929  43.953  14.608  11.477
44115W        W13930   0.482  27.003   3.677
44116W        W13931   8.290  41.520   9.947
44117W        W13932  43.007  25.162  11.040
44118W        W13933  12.249  32.121  10.485
44119W        W13934   5.920   7.250  12.040
44120W        W13935  34.513   2.339  11.916
44121W        W13936  38.567  35.951   4.343
44122W        W13937  32.494  29.484   0.927
44123W        W13938  26.071  33.385  12.070
44124W        W13939  24.539  21.540   4.625
44125W        W13940  16.598   9.317  13.045
44126W        W13941  40.939  37.388   3.787
44127W        W13942  26.094  22.189   2.801
44128W        W13943  27.524   3.428   2.761
44129W        W13944  44.768   8.888   0.846
44130W        W13945  44.274  43.509  11.856
44131W        W13946  27.484  44.472  14.012
44132W        W13947  36.930  21.252   0.291
44133W        W13948   9.700   2.727  13.954
44134W        W13949  23.082  19.551  10.454
44135W        W13950   5.396   5.384   1.834
44136W        W13951  40.336  28.540  10.910
44137W        W13952  31.596   8.200  10.988
44138W        W13953  26.520  39.408   3.794
44139W        W13954  10.225  19.182   2.286
44140W        W13955  34.017  23.999   3.719
44141W        W13956  18.149  34.382  11.953
44142W        W13957  21.192  40.339   3.166
44143W        W13958  41.850  32.906   0.811
44144W        W13959  16.215  16.688   0.807
44145W        W13960  20.156   1.819   3.246
44146W        W13961  27.610  22.666  14.297
44147W        W13962  17.764  21.642   1.213
44148W        W13963  31.448   6.833  14.969
44149W        W13964   9.367  30.160  12.016
44150W        W13965  17.111  20.075  14.827
44151W        W13966  19.194   5.387   3.349
44152W        W13967  19.730  22.046   3.659
44153W        W13968  44.924  18.221   0.452
44154W        W13969  42.012   1.319   3.377
44155W        W13970   3.831   0.363  11.439
44156W        W13971   7.665  32.396  11.403
44157W        W13972  16.598  27.572  13.835
44158W        W13973  25.969  34.071  11.094
44159W        W13974  11.144   2.277   1.762
44160W        W13975  37.348  24.618  11.029
44161W        W13976   8.381  31.462  13.467
44162W        W13977  44.261  17.558  11.895
44163W        W13978  40.930  27.608   3.183
44164W        W13979  33.609   6.834   3.270
44165W        W13980   9.733  14.827   1.873
44166W        W13981   2.415   8.669   4.812
44167W        W13982  13.607   6.304  11.032
44168W        W13983  32.134  22.247  13.471
44169W        W13984   7.226   0.841  14.336
44170W        W13985  39.985  35.510   2.759
44171W        W13986  31.103  28.151   0.739
44172W        W13987   7.176  11.813  14.768
44173W        W13988  20.228  38.887  11.945
44174W        W13989  40.859  15.816   1.768
44175W        W13990  29.447   1.780  14.415
44176W        W13991   0.249  22.644   0.758
44177W        W13992  24.197  26.960   0.385
44178W        W13993  11.660  36.033  13.457
44179W        W13994  25.109  29.935  12.449
44180W        W13995  15.289   0.380   2.376
44181W        W13996  40.359   5.742   5.316
44182W        W13997  10.312  41.938  11.517
44183W        W13998  12.151  34.086   2.818
44184W        W13999  27.167   1.291   4.301
44185W        W14000  26.521   2.385   5.205
44186W        W14001   6.265  37.007   2.895
44187W        W14002   3.255   7.682   0.387
44188W        W14003  25.670  28.498   2.768
44189W        W14004  35.429  38.937   3.350
44190W        W14005  44.771  15.818   4.698
44191W        W14006  40.431  15.672  11.372
44192W        W14007  11.193  44.322  11.504
44193W        W14008  26.979  17.292   0.455
44194W        W14009   8.745  13.300  12.036
44195W        W14010  39.522   5.396   2.314
44196W        W14011  30.126  17.083  14.835
44197W        W14012   5.296  19.714   3.741
44198W        W14013   6.876  23.175  11.885
44199W        W14014  17.083   4.758  10.978
44200W        W14015   7.681  14.820   1.911
44201W        W14016  22.095   8.295  13.367
44202W        W14017  18.270  39.510   1.215
44203W        W14018  33.966  14.632   1.753
44204W        W14019  40.920  25.627  10.602
44205W        W14020  16.220  42.933   2.264
44206W        W14021  24.040  26.665   5.276
44207W        W14022   4.212  30.559  14.368
44208W        W14023   5.383  37.017  13.308
44209W        W14024  24.196  35.535  11.937
44210W        W14025  10.178  22.703  12.527
44211W        W14026  30.603  44.500   4.116
44212W        W14027  17.290   2.400   0.755
44213W        W14028  15.812   2.465   0.808
44214W        W14029   0.863   3.935   4.254
44215W        W14030   6.710  33.947  13.308
44216W        W14031  35.413  11.776   3.350
44217W        W14032  28.499  13.632  12.531
44218W        W14033  26.145  21.705   1.703
44219W        W14034  26.698  39.454  14.839
44220W        W14035  34.093  17.281   1.263
44221W        W14036  20.182   1.903  14.031
44222W        W14037  36.062  10.268   2.218
44223W        W14038   6.785   1.856  11.608
44224W        W14039   4.366   6.804  14.446
44225W        W14040  29.041  28.015  13.513
44226W        W14041  37.463   5.727   1.235
44227W        W14042  13.693  11.221  13.892
44228W        W14043  22.173  39.460  12.015
44229W        W14044  39.462   4.381  10.642
44230W        W14045  14.266  10.785  13.348
44231W        W14046  35.035   3.719   1.805
44232W        W14047  12.843  30.145   4.287
44233W        W14048   2.966  26.117   2.858
44234W        W14049  28.985   0.770  12.386
44235W        W14050  36.968   3.271  13.840
44236W        W14051  43.490  29.499  12.535
44237W        W14052   0.793  37.038   4.621
44238W        W14053  29.425  21.258  12.908
44239W        W14054   2.403  27.163  11.000
44240W        W14055  14.831  10.259  13.896
44241W        W14056  34.405   9.255  12.823
44242W        W14057  11.691  32.086   3.664
44243W        W14058  11.316  19.562   9.452
44244W        W14059  40.322   3.436   5.181
44245W        W14060  39.506  27.450   4.280
44246W        W14061  16.083  17.278  11.935
44247W        W14062  17.625   8.239  12.994
44248W        W14063  27.599  11.633   5.090
44249W        W14064  15.798  32.557   2.255
44250W        W14065  43.980  22.600  12.981
44251W        W14066  39.871  44.495   1.334
44252W        W14067  25.679  30.089  14.876
44253W        W14068   6.878   9.763   0.410
44254W        W14069  38.505  30.162   0.909
44255W        W14070   2.231   8.311   1.247
44256W        W14071  13.306  32.604  11.041
44257W        W14072  34.425   4.716  11.480
44258W        W14073  24.594  44.322  12.093
44259W        W14074  37.063  15.691  10.418
44260W        W14075  19.120  27.507   4.618
44261W        W14076  20.159  40.038   4.327
44262W        W14077  29.454   6.235  10.616
44263W        W14078  30.443  22.738  14.450
44264W        W14079  14.133  34.448  11.504
44265W        W14080  29.110  19.777   3.374
44266W        W14081  13.131  26.089  10.436
44267W        W14082   8.669  41.352   4.641
44268W        W14083  20.569   8.347   3.365
44269W        W14084  13.220  22.228  13.474
44270W        W14085   6.714  28.519   1.376
44271W        W14086  30.036  40.841  12.067
44272W        W14087   1.901  36.927   1.800
44273W        W14088  10.240  33.066   3.744
44274W        W14089   3.757  35.855  10.635
44275W        W14090  27.127  29.949   1.898
44276W        W14091   8.198  26.475   1.363
44277W        W14092  27.988  23.683  10.980
44278W        W14093  27.188   6.321   0.863
44279W        W14094  28.562  30.589  13.534
44280W        W14095  26.519  40.321  12.346
44281W        W14096  17.205   8.394  14.882
44282W        W14097  29.083  12.720  12.895
44283W        W14098  15.231  25.126   2.770
44284W        W14099  37.372  36.420  11.855
44285W        W14100  39.362   1.871   9.973
44286W        W14101  38.985  23.065  14.351
44287W        W14102  29.523  29.064   2.202
44288W        W14103  13.717  20.080  13.913
44289W        W14104  12.612  19.674  13.034
44290W        W14105  14.703  34.031  12.439
44291W        W14106  39.367  30.597   4.736
44292W        W14107  23.988  44.458  13.985
44293W        W14108  10.698  32.504   2.771
44294W        W14109  32.415   9.378   3.632
44295W        W14110  33.893  13.218   0.920
44296W        W14111  12.328  40.852   0.873
44297W        W14112  35.991  26.145  14.926
44298W        W14113  23.059  38.996  12.983
44299W        W14114  29.930  31.646  14.897
44300W        W14115   2.381  21.597  11.542
44301W        W14116  14.186  44.260   1.935
44302W        W14117   7.740  13.105  12.988
44303W        W14118  21.657  35.908  11.993
44304W        W14119  11.192   0.895   1.894
44305W        W14120  44.292  11.291  11.600
44306W        W14121  14.736  38.382  12.894
44307W        W14122  41.459   8.886   2.771
44308W        W14123  16.811   8.897  13.922
44309W        W14124  16.780   7.693   3.719
44310W        W14125  28.022  37.851  11.485
44311W        W14126  22.731  29.605   4.754
44312W        W14127  11.213  17.645   3.147
44313W        W14128  21.667  20.612  14.878
44314W        W14129  31.913   1.457   0.939
44315W        W14130  44.367  39.498   2.785
44316W        W14131  30.120  31.149   1.850
44317W        W14132   1.360  25.507   3.744
44318W        W14133  37.023  34.565   0.842
44319W        W14134  20.076  31.499   2.275
44320W        W14135  21.709  13.602  11.036
44321W        W14136  33.045  21.719   1.802
44322W        W14137  41.963  25.677   3.682
44323W        W14138  22.186  13.758  13.505
44324W        W14139  40.809  44.807  13.821
44325W        W14140  19.578  19.759  14.329
44326W        W14141   7.266   5.888   1.818
44327W        W14142  43.796  34.878   2.692
44328W        W14143  24.606  31.444   2.718
44329W        W14144  25.087   3.892   3.691
44330W        W14145  28.998  13.641   2.886
44331W        W14146  28.458  43.508  14.492
44332W        W14147  25.062   2.922   0.767
44333W        W14148  27.595  17.225   1.872
44334W        W14149   8.888  27.519   2.676
44335W        W14150   9.378  30.116   3.192
44336W        W14151  16.303  42.364   4.750
44337W        W14152  25.664  15.090  11.493
44338W        W14153   6.756  32.080   0.436
44339W        W14154  18.709  37.938  12.395
44340W        W14155  23.078   9.234  10.511
44341W        W14156  44.993  27.155  11.486
44342W        W14157   6.191  20.677  13.460
44343W        W14158   4.386  37.835   2.262
44344W        W14159  16.244  24.035  12.962
44345W        W14160   9.654   3.875  10.994
44346W        W14161   4.413  37.956   4.659
44347W        W14162   6.383  17.294  12.339
44348W        W14163  31.455  11.306  13.427
44349W        W14164  20.109  41.420  12.058
44350W        W14165  28.455  44.993   1.727
44351W        W14166  11.234   3.745   1.258
44352W        W14167  31.914  29.479   4.228
44353W        W14168  18.560   3.263  13.336
44354W        W14169  40.347  28.062   0.889
44355W        W14170   7.187  13.158  10.928
44356W        W14171  23.673  43.802  11.402
44357W        W14172   3.371  44.406   5.194
44358W        W14173  16.154  41.462  14.311
44359W        W14174  44.459  14.250   4.261
44360W        W14175   6.759  43.973  12.529
44361W        W14176  40.499  13.182  13.421
44362W        W14177  33.483  12.710  12.559
44363W        W14178  21.653  22.115   4.815
44364W        W14179  23.167  44.377  10.424
44365W        W14180   4.428  39.554  14.835
44366W        W14181  19.231  31.004  11.014
44367W        W14182   8.818  24.600  10.492
44368W        W14183   7.734  39.332   2.339
44369W        W14184   5.329  43.806   4.612
44370W        W14185  26.097  44.281  12.372
44371W        W14186   1.277  37.831   1.257
44372W        W14187   4.364  43.464   1.281
44373W        W14188  35.392  16.766  11.515
44374W        W14189  30.962  39.418   1.266
44375W        W14190  32.516  44.326  14.856
44376W        W14191  41.849  41.416  10.984
44377W        W14192  39.945  30.163  14.853
44378W        W14193  27.186  31.090  14.334
44379W        W14194  22.142  33.030   0.314
44380W        W14195  26.611  19.580  10.536
44381W        W14196  32.531  27.592   0.405
44382W        W14197  10.316  31.518   3.186
44383W        W14198  11.201  43.990  12.014
44384W        W14199  36.065  34.401   1.846
44385W        W14200  35.870  42.787  14.804
44386W        W14201   9.237   0.364  13.501
44387W        W14202  28.990  33.022  11.006
44388W        W14203  29.043   4.722  11.498
44389W        W14204  39.428  25.622   0.852
44390W        W14205   0.843  21.640  12.399
44391W        W14206  33.439  29.085   3.151
44392W        W14207   8.385  31.428   1.820
44393W        W14208  29.619   2.328  10.420
44394W        W14209  10.307  25.200   3.168
44395W        W14210  31.962   3.872   0.805
44396W        W14211  41.534  36.952  14.322
44397W        W14212  28.052  10.183  12.375
44398W        W14213  35.039  11.635   2.693
44399W        W14214  16.100  16.733   3.681
44400W        W14215  39.324  37.028   0.340
44401W        W14216  44.472  31.060  11.900
44402W        W14217   8.668  10.346   3.328
44403W        W14218  27.114  20.150  11.437
44404W        W14219   3.289  41.509  13.435
44405W        W14220  30.144  28.092  13.406
44406W        W14221  12.750   1.342  10.447
44407W        W14222  28.673   6.772   3.265
44408W        W14223  15.739  34.423   1.328
44409W        W14224  35.048  13.755  14.332
44410W        W14225   3.423   1.763   1.909
44411W        W14226  31.040  13.146   2.748
44412W        W14227  36.459  28.187  12.904
44413W        W14228  42.469   8.377  10.967
44414W        W14229  27.136  17.750  12.877
44415W        W14230   3.725  23.086   2.739
44416W        W14231  35.487  39.017  14.850
44417W        W14232  39.451  19.279  12.501
44418W        W14233  14.834  38.367   1.215
44419W        W14234  43.402  35.044  11.522
44420W        W14235  12.282  15.215  12.379
44421W        W14236   9.239  19.252  13.401
44422W        W14237  44.452  38.552  11.988
44423W        W14238  20.209   3.840   1.254
44424W        W14239  38.912  28.101   1.338
44425W        W14240  13.273  41.309   1.448
44426W        W14241  41.961  29.055  14.466
44427W        W14242   7.388  21.630   3.215
44428W        W14243   3.249  27.035  11.488
44429W        W14244   8.754   5.427   2.222
44430W        W14245  32.972  27.142   0.836
44431W        W14246   8.315  16.103  12.578
44432W        W14247  27.687  25.518   2.861
44433W        W14248  23.191  26.576  14.502
44434W        W14249  39.832  14.175  13.818
44435W        W14250   5.317  35.387   3.227
44436W        W14251  41.383  13.278  10.447
44437W        W14252   0.967  31.644   4.280
44438W        W14253  44.822  28.441   2.328
44439W        W14254  27.670  19.574  11.003
44440W        W14255   3.875  33.599   4.720
44441W        W14256  39.339  33.900   4.724
44442W        W14257   1.429  19.595  13.012
44443W        W14258  29.656  19.774  11.999
44444W        W14259  35.393   9.179  14.876
44445W        W14260   5.908  20.566  14.370
44446W        W14261   5.403  14.242  13.482
44447W        W14262  18.579  36.350  14.478
44448W        W14263  17.112  14.632   3.338
44449W        W14264   2.944  41.955   0.243
44450W        W14265  30.039  41.531  11.890
44451W        W14266   0.475   3.842   2.891
44452W        W14267   4.851   1.405   1.297
44453W        W14268  44.772  40.442  14.899
44454W        W14269  41.397  33.013   0.395
44455W        W14270  36.491  19.742   4.290
44456W        W14271  26.018   2.933   0.802
44457W        W14272  37.925  21.562   3.834
44458W        W14273  13.833  39.504   4.736
44459W        W14274  18.061  40.406  12.974
44460W        W14275  32.558  36.886   0.332
44461W        W14276  38.878  16.774  11.494
44462W        W14277  41.360  25.673  11.406
44463W        W14278   9.283  42.344  13.996
44464W        W14279  39.357   9.341   1.312
44465W        W14280   9.727  40.464   2.223
44466W        W14281  42.466  38.825   4.313
44467W        W14282   1.372  22.137   3.294
44468W        W14283  28.037   3.915   3.669
44469W        W14284  32.434   0.344  14.484
44470W        W14285  38.946  30.034   1.326
44471W        W14286  20.042  34.425  13.313
44472W        W14287  21.613   9.727   1.222
44473W        W14288   1.335  42.828   1.921
44474W        W14289  16.576  14.591   3.381
44475W        W14290  18.215   6.207  11.968
44476W        W14291  22.220  17.274   4.309
44477W        W14292  25.029  35.391  12.569
44478W        W14293   8.244  21.039  14.288
44479W        W14294   0.257  35.558   4.237
44480W        W14295  28.020   3.368  11.904
44481W        W14296   1.447  29.519  14.361
44482W        W14297  42.470  37.943  12.961
44483W        W14298  38.330  28.567   3.156
44484W        W14299  17.771  23.036   0.273
44485W        W14300  40.962  43.975   3.655
44486W        W14301  13.603  27.138   2.417
44487W        W14302  42.912  15.701   4.194
44488W        W14303  18.587  16.208   0.951
44489W        W14304  29.037  19.107   2.799
44490W        W14305  41.295   6.279   2.180
44491W        W14306  31.081  32.887   2.826
44492W        W14307  19.046  32.002  12.823
44493W        W14308  41.455   2.269   4.235
44494W        W14309  16.706   8.783   3.787
44495W        W14310  34.939   8.660   0.302
44496W        W14311  21.708  27.027   1.320
44497W        W14312  40.538  23.201   1.895
44498W        W14313   0.407  11.643  11.039
44499W        W14314  30.487  22.235   4.189
44500W        W14315  35.904  15.724  14.295
44501W        W14316   2.866  20.531  10.494
44502W        W14317  25.094  34.020   0.754
44503W        W14318  15.733  16.632   9.955
44504W        W14319  18.218  35.583   0.758
44505W        W14320  42.331  39.994  11.969
44506W        W14321  21.526   6.707   2.671
44507W        W14322  14.298   1.463  13.330
44508W        W14323  38.913   5.868   1.802
44509W        W14324  21.526   5.705   1.273
44510W        W14325  36.366  26.052  11.873
44511W        W14326  22.024  10.312  12.452
44512W        W14327  30.973  21.745  13.876
44513W        W14328  10.331   9.252  11.492
44514W        W14329  10.366   6.238   2.705
44515W        W14330  22.728  23.686  13.959
44516W        W14331  17.565  37.911   3.778
44517W        W14332  24.182  39.507   0.768
44518W        W14333  34.093  39.393   2.333
44519W        W14334  44.781  14.308  14.846
44520W        W14335   9.835  11.128   0.281
44521W        W14336  31.109  39.987  10.003
44522W        W14337  29.027  11.184  12.471
44523W        W14338  36.529   4.328   4.256
44524W        W14339  35.062  17.719   0.784
44525W        W14340  25.615  30.059   4.635
44526W        W14341  28.096  15.823   2.256
44527W        W14342   3.441  21.078  10.956
44528W        W14343  10.783  17.095  10.954
44529W        W14344   8.801  16.223  11.104
44530W        W14345  44.281  33.490  10.981
44531W        W14346  36.844  19.698  14.964
44532W        W14347   7.767  41.838  14.404
44533W        W14348   0.928  44.890  12.565
44534W        W14349  24.178  43.998  12.855
44535W        W14350  24.043  31.410  12.861
44536W        W14351   3.774  11.653   4.646
44537W        W14352   2.797  30.566   4.735
44538W        W14353  21.075  31.085   3.312
44539W        W14354   3.276  40.529  11.864
44540W        W14355   8.356  13.252  14.290
44541W        W14356  38.877  24.195  13.998
44542W        W14357   7.699  34.607  14.394
44543W        W14358  36.384  42.414   4.242
44544W        W14359  24.998  36.472  11.395
44545W        W14360  42.944  36.042  10.094
44546W        W14361  40.834  18.241  11.971
44547W        W14362  34.926  29.003  11.103
44548W        W14363   3.755  36.055  11.959
44549W        W14364  39.316   0.351  12.579
44550W        W14365  11.204  27.680  14.874
44551W        W14366  44.302  14.250  10.443
44552W        W14367  40.801  44.922   4.198
44553W        W14368  37.481  32.041  12.871
44554W        W14369  42.992  10.354  11.876
44555W        W14370  35.490  35.007   0.817
44556W        W14371   0.874  37.019   0.417
44557W        W14372  25.641  23.058  11.126
44558W        W14373  15.757   1.432   4.120
44559W        W14374  43.389  38.380   2.808
44560W        W14375  42.953  28.992  11.975
44561W        W14376  28.549   3.945  14.413
44562W        W14377   4.264  29.115   2.220
44563W        W14378  27.494   8.808   2.877
44564W        W14379   1.869  22.219   2.857
44565W        W14380  36.445   7.822   3.714
44566W        W14381  39.904  40.042  11.424
44567W        W14382  16.187  40.306   0.260
44568W        W14383  21.164  17.099   4.225
44569W        W14384  26.119  35.524  12.926
44570W        W14385  43.857  19.177   4.640
44571W        W14386  43.005  40.417  11.009
44572W        W14387   4.745  40.480   3.292
44573W        W14388  37.004  13.671  11.868
44574W        W14389  39.364  12.748  11.887
44575W        W14390   7.883  33.423   3.822
44576W        W14391   8.388  38.346   2.414
44577W        W14392  35.089  25.079   2.896
44578W        W14393  33.920  17.795  10.931
44579W        W14394  27.634  19.763   0.372
44580W        W14395  13.652  14.102  11.053
44581W        W14396  27.041  30.029   4.731
44582W        W14397   4.395  37.021   2.823
44583W        W14398  15.150  27.104  10.989
44584W        W14399  11.226  15.787   4.162
44585W        W14400   0.439  22.183  11.935
44586W        W14401  36.471  17.596   3.260
44587W        W14402  29.640  29.076  13.393
44588W        W14403  33.470   6.715   1.304
44589W        W14404   9.814  44.469  13.887
44590W        W14405  31.088  44.501   5.201
44591W        W14406   6.183   0.742  12.060
44592W        W14407  21.226  44.854  11.097
44593W        W14408   6.852   6.825   2.732
44594W        W14409  14.132  35.083   1.750
44595W        W14410  27.195  17.168   3.844
44596W        W14411  26.467  38.364   1.317
44597W        W14412  29.167  18.646   4.247
44598W        W14413  27.661  20.224   0.338
44599W        W14414  28.457  25.696  12.434
44600W        W14415  39.057  42.435   2.347
44601W        W14416  22.048  25.087  10.487
44602W        W14417  11.303  16.264   5.084
44603W        W14418  27.507  15.226  11.916
44604W        W14419  41.866   0.918  10.957
44605W        W14420  28.008  35.097  14.326
44606W        W14421  14.591   1.913   3.322
44607W        W14422  39.920  31.137  12.878
44608W        W14423  38.927   6.208   2.307
44609W        W14424  36.538  30.060  11.467
44610W        W14425  32.563  44.866  12.043
44611W        W14426   8.789   8.835  12.829
44612W        W14427  29.012  44.796   4.246
44613W        W14428  18.239  28.104   2.236
44614W        W14429  35.444  38.017  14.831
44615W        W14430  33.389   8.292  14.469
44616W        W14431  15.708  23.673  12.386
44617W        W14432  22.644   6.857  12.025
44618W        W14433   8.262  12.743  11.551
44619W        W14434  18.264  37.489   0.340
44620W        W14435  33.106   0.901   2.900
44621W        W14436  18.239  22.543  10.901
44622W        W14437  41.313   6.910  12.966
44623W        W14438  34.011   9.278  14.925
44624W        W14439  11.803   5.345   1.698
44625W        W14440  28.562  16.704  11.930
44626W        W14441   0.881  34.892   0.948
44627W        W14442   0.479  31.544   4.812
44628W        W14443   2.948  40.880   1.839
44629W        W14444   8.201  42.926  10.421
44630W        W14445  20.220  14.156  14.404
44631W        W14446  13.655  31.118   1.226
44632W        W14447  37.345  36.974  10.068
44633W        W14448  21.529  30.621  12.421
44634W        W14449   6.735   4.938  12.065
44635W        W14450  42.376  14.648  10.991
44636W        W14451   3.350   0.956  13.378
44637W        W14452  18.705  21.205   1.730
44638W        W14453  43.961  13.715  12.570
44639W        W14454  10.825  10.740  12.345
44640W        W14455  15.252   5.379  14.998
44641W        W14456  35.019  15.242   2.270
44642W        W14457  10.355   1.428  14.792
44643W        W14458  31.033  35.530  14.998
44644W        W14459   8.855  29.931   0.271
44645W        W14460  39.329  19.126  11.403
44646W        W14461   5.394  39.015  13.451
44647W        W14462  10.203  35.577   1.404
44648W        W14463  39.463  10.642  11.450
44649W        W14464   6.876  35.967  10.542
44650W        W14465  38.380  12.827   4.323
44651W        W14466  23.141  42.427   4.174
44652W        W14467  20.562   7.689  13.814
44653W        W14468  35.417  23.503  12.983
44654W        W14469  13.763   7.254   2.300
44655W        W14470  11.133  37.487  14.933
44656W        W14471  31.022   2.290  10.484
44657W        W14472  20.651  12.728   3.839
44658W        W14473   7.270  21.533  12.988
44659W        W14474  31.483   7.339  12.982
44660W        W14475  37.943  25.688  10.545
44661W        W14476  22.519  41.504  13.924
44662W        W14477  15.191   4.307  13.904
44663W        W14478   9.700  25.679   0.474
44664W        W14479   7.802  29.064   4.196
44665W        W14480  43.370   2.459   3.386
44666W        W14481  29.557   4.338   4.187
44667W        W14482  31.486  24.016  14.309
44668W        W14483   1.323  38.427  11.604
44669W        W14484  29.562  44.288   2.313
44670W        W14485  29.963  36.938  12.088
44671W        W14486  22.155  12.842   4.148
44672W        W14487  37.892   9.178   2.343
44673W        W14488   2.300   6.719   0.417
44674W        W14489  17.165  39.558   0.365
44675W        W14490  42.514  35.967  13.960
44676W        W14491  27.115   3.882  13.991
44677W        W14492  40.540  36.853   4.630
44678W        W14493  20.050  34.888   2.847
44679W        W14494   3.390   8.286   0.451
44680W        W14495   2.799  18.080   1.290
44681W        W14496  31.404   0.458   4.255
44682W        W14497   3.779  27.654   2.336
44683W        W14498  36.526  11.640  12.399
44684W        W14499  27.532   4.403  11.050
44685W        W14500  36.381  44.501   3.717
44686W        W14501  41.014  15.732   4.134
44687W        W14502   6.416  17.685  13.057
44688W        W14503  34.952   3.821  13.853
44689W        W14504  39.966  15.677  10.003
44690W        W14505  20.105  17.136  11.578
44691W        W14506  25.600  31.952   2.234
44692W        W14507   0.294   5.314   3.842
44693W        W14508   2.441  26.457  12.426
44694W        W14509  31.485   2.871  13.346
44695W        W14510  40.825  32.127   4.238
44696W        W14511  22.176   5.839  13.406
44697W        W14512   1.903  14.713  12.551
44698W        W14513  20.067  31.526   3.149
44699W        W14514  28.610  26.199  11.086
44700W        W14515  14.164  24.019   4.324
44701W        W14516   6.801  22.502   2.397
44702W        W14517   7.197   5.199  12.436
44703W        W14518  19.752  33.613  12.962
44704W        W14519  17.124  11.317  11.490
44705W        W14520   7.204  27.655  10.553
44706W        W14521  38.860  35.478  14.426
44707W        W14522  27.494   7.821   3.788
44708W        W14523  11.746  11.211   4.611
44709W        W14524  26.628  44.494   1.220
44710W        W14525  29.561  35.069  13.518
44711W        W14526   1.408  16.096   3.787
44712W        W14527  25.004  31.926  13.039
44713W        W14528  20.529  20.193  10.985
44714W        W14529  24.126  41.350  11.088
44715W        W14530  24.012  35.496  10.989
44716W        W14531   0.788  33.113   3.701
44717W        W14532  42.402   3.216   3.169
44718W        W14533  19.128  15.172  14.894
44719W        W14534  28.637   2.376   4.313
44720W        W14535  42.916  15.240   1.907
44721W        W14536  16.279  11.734   1.253
44722W        W14537  18.120  16.074   4.807
44723W        W14538  14.612  38.390  10.443
44724W        W14539  26.692  11.804  11.998
44725W        W14540  39.009  32.888  13.965
44726W        W14541  36.993  13.693  12.910
44727W        W14542  36.069  10.806   4.215
44728W        W14543  11.637   6.744  12.086
44729W        W14544  20.677  24.620  11.593
44730W        W14545  44.331  31.090  11.512
44731W        W14546   8.853  18.225   0.892
44732W        W14547   2.878  23.166  14.334
44733W        W14548  38.917  25.670  12.868
44734W        W14549  29.434  21.749   3.339
44735W        W14550  32.038  19.639  14.980
44736W        W14551   5.204  36.881   0.391
44737W        W14552  18.766  32.978   4.241
44738W        W14553   9.270  14.213  12.507
44739W        W14554  18.652  34.594  10.137
44740W        W14555   2.441  38.394  10.443
44741W        W14556  30.500  26.622  12.513
44742W        W14557  36.896  14.262  13.446
44743W        W14558  23.103  36.572   4.636
44744W        W14559  23.736   3.823   1.761
44745W        W14560  22.073  32.088  11.919
44746W        W14561   4.335  18.089  13.852
44747W        W14562  36.085   9.659  12.930
44748W        W14563  29.628  17.658  10.597
44749W        W14564  14.624  11.259  11.435
44750W        W14565  37.069  16.140   2.260
44751W        W14566   3.290  19.200  10.553
44752W        W14567  15.155  23.614   1.721
44753W        W14568  35.396  24.124  14.484
44754W        W14569  36.557  31.646  11.888
44755W        W14570  36.412  22.511  12.063
44756W        W14571  25.179  27.629   3.223
44757W        W14572  33.918  36.081  10.602
44758W        W14573  40.512  25.160  14.829
44759W        W14574  36.910   6.286   4.152
44760W        W14575  13.609  31.458  11.121
44761W        W14576  36.884  25.589  11.554
44762W        W14577   8.687  16.643   1.776
44763W        W14578  19.114  40.339   1.444
44764W        W14579   7.758  31.966   4.629
44765W        W14580   1.357  15.276  10.896
44766W        W14581  14.330  17.262   3.661
44767W        W14582  27.686  37.545  12.527
44768W        W14583  44.791  23.039  11.478
44769W        W14584  16.616  36.433   3.695
44770W        W14585  44.824   5.367   1.381
44771W        W14586   0.986   7.824  10.424
44772W        W14587   1.463   7.912  14.781
44773W        W14588   5.347  17.790  13.057
44774W        W14589  26.994  35.954  12.496
44775W        W14590   6.758  43.866   0.767
44776W        W14591  20.163  27.486   3.306
44777W        W14592  44.821  29.523   4.692
44778W        W14593   9.341  42.394   1.401
44779W        W14594  42.479   0.459  12.063
44780W        W14595  29.169   4.781  13.892
44781W        W14596  15.161  10.862   4.636
44782W        W14597  28.516  34.473  10.565
44783W        W14598   3.288  39.349  13.885
44784W        W14599  43.425   4.392  14.300
44785W        W14600   6.186  21.516   4.203
44786W        W14601   7.273  25.205  14.456
44787W        W14602  21.158   2.252   4.269
44788W        W14603  27.494  27.193   1.927
44789W        W14604  12.317  35.473  13.791
44790W        W14605  21.615  33.055  11.963
44791W        W14606  21.528  34.994  12.075
44792W        W14607  23.004  36.554  13.452
44793W        W14608  16.788  29.564   4.686
44794W        W14609  32.443  12.343   3.756
44795W        W14610  26.597  38.917   0.370
44796W        W14611  20.078  13.659   3.382
44797W        W14612  31.047  30.417  13.937
44798W        W14613  29.986  36.443   0.811
44799W        W14614  40.824  44.477   1.793
44800W        W14615   8.381  25.490  14.463
44801W        W14616  12.615   3.354   3.833
44802W        W14617  25.600  44.473  11.096
44803W        W14618  25.555  20.096   0.822
44804W        W14619  16.780  29.585  12.534
44805W        W14620   9.238  37.927  13.029
44806W        W14621   3.372  12.722  11.988
44807W        W14622  39.460  38.828  14.319
44808W        W14623  40.049   9.308   3.692
44809W        W14624   3.277  37.059   0.298
44810W        W14625   5.344  20.760  14.330
44811W        W14626  17.649   1.294  14.805
44812W        W14627  16.590  19.280  13.989
44813W        W14628   0.833   5.387   2.214
44814W        W14629   9.155  20.028  13.392
44815W        W14630  17.588  32.633  14.963
44816W        W14631  41.325  19.659   1.392
44817W        W14632  41.976  44.905   4.288
44818W        W14633  31.927  16.724   3.849
44819W        W14634  36.477  16.642  14.793
44820W        W14635  40.921  43.804   3.213
44821W        W14636   7.289  11.251   0.459
44822W        W14637   4.432  39.362   2.732
44823W        W14638   4.293  35.416   1.896
44824W        W14639  34.019  43.332   0.415
44825W        W14640   1.291  41.341   1.402
44826W        W14641   0.275  30.916  11.460
44827W        W14642  10.759   1.457  12.577
44828W        W14643  18.724  16.178  11.937
44829W        W14644  23.668  17.708  13.871
44830W        W14645  31.548   3.888   2.719
44831W        W14646  24.101  17.197   0.411
44832W        W14647  26.638  24.012  12.829
44833W        W14648  19.131  31.055  11.534
44834W        W14649  39.505  24.225   2.212
44835W        W14650  12.703  30.452  12.930
44836W        W14651  16.136  26.112   2.744
44837W        W14652  36.861   8.390  10.614
44838W        W14653  18.707  22.632  11.378
44839W        W14654  25.575  27.527   4.633
44840W        W14655   5.241   5.817  13.308
44841W        W14656   0.324  39.999   1.764
44842W        W14657  30.034  34.995   2.695
44843W        W14658  34.482  30.089  10.993
44844W        W14659  37.435   1.946  13.497
44845W        W14660   2.400   4.805   5.243
44846W        W14661  23.211   9.394  13.463
44847W        W14662  31.420   5.362  12.479
44848W        W14663   2.283  22.217   4.247
44849W        W14664  41.924   8.754   3.155
44850W        W14665   9.307   2.918   2.410
44851W        W14666  27.477   1.909  10.508
44852W        W14667   3.918  21.558   4.766
44853W        W14668   7.206  35.991  10.972
44854W        W14669  17.769  41.396   3.300
44855W        W14670   4.378  17.572   0.867
44856W        W14671   5.881  44.487   0.738
44857W        W14672  19.701  32.457  10.984
44858W        W14673  41.789  42.463   0.420
44859W        W14674  37.859  15.092  13.875
44860W        W14675  20.742  17.266   1.228
44861W        W14676  29.936   4.744   2.413
44862W        W14677  11.842  29.174   3.248
44863W        W14678   7.816  26.134  12.040
44864W        W14679  25.649  19.046  10.921
44865W        W14680  24.120  44.489   0.349
44866W        W14681  29.120  35.584  13.373
44867W        W14682  34.874  11.263   0.812
44868W        W14683  35.476  41.933   1.262
44869W        W14684  33.906  31.053   2.820
44870W        W14685  42.943  25.157   2.283
44871W        W14686  30.136  29.110  13.961
44872W        W14687  34.468  20.704  10.523
44873W        W14688  16.605  16.134   4.671
44874W        W14689  15.718  14.257   1.435
44875W        W14690  26.027   7.288   1.443
44876W        W14691  36.048  37.551   1.721
44877W        W14692  44.915  40.881  12.471
44878W        W14693  44.957   4.851  11.045
44879W        W14694  14.676  34.485  11.931
44880W        W14695  17.563  25.097   3.757
44881W        W14696   4.420   7.400  14.395
44882W        W14697  31.940  35.922  11.019
44883W        W14698   3.277   7.227   3.682
44884W        W14699  12.831  37.847   4.265
44885W        W14700  37.047  42.329   3.279
44886W        W14701   9.692  19.143  13.935
44887W        W14702  21.233  18.776  11.059
44888W        W14703  38.831  13.658  13.053
44889W        W14704  18.673   1.296   3.269
44890W        W14705  40.928  43.467   0.245
44891W        W14706  35.547  10.244   4.258
44892W        W14707  10.337  18.162   1.876
44893W        W14708  24.719  29.096   3.340
44894W        W14709  21.635  41.430   2.270
44895W        W14710  43.293  28.099   3.152
44896W        W14711  21.127   5.288   4.792
44897W        W14712  21.695   2.424  14.294
44898W        W14713  28.593  35.906   3.213
44899W        W14714  15.814  19.279   1.927
44900W        W14715  42.027  44.266  12.931
44901W        W14716  22.655  19.747   3.767
44902W        W14717  36.508  12.804  13.542
44903W        W14718  30.966  24.164  11.408
44904W        W14719   1.924  39.953   4.122
44905W        W14720  21.093  11.346   3.341
44906W        W14721   7.880  43.309   2.695
44907W        W14722   9.252  40.389   4.639
44908W        W14723  42.295  36.353   2.403
44909W        W14724  10.214  39.387  10.637
44910W        W14725  27.966  35.455   4.714
44911W        W14726   8.885  34.593  13.815
44912W        W14727  37.880   0.802   0.822
44913W        W14728  13.744   9.246   2.901
44914W        W14729  37.911  32.589   4.809
44915W        W14730   1.937  43.286   4.620
44916W        W14731  43.951   5.717   1.819
44917W        W14732  42.981  11.846  14.840
44918W        W14733  20.073   8.281   1.302
44919W        W14734  40.958   3.401  11.971
44920W        W14735  26.029  20.112   4.279
44921W        W14736  14.306   5.387  10.957
44922W        W14737  28.073  14.133   1.772
44923W        W14738  35.583  30.923  11.534
44924W        W14739  43.918  18.070  13.917
44925W        W14740  16.193  16.127  13.905
44926W        W14741  29.541  20.168   4.688
44927W        W14742  41.834   3.319  13.900
44928W        W14743  20.178  30.450   5.240
44929W        W14744  38.335  38.533  12.464
44930W        W14745  14.206  31.506  10.523
44931W        W14746  31.094  21.647  11.074
44932W        W14747   2.768  32.453   0.285
44933W        W14748  11.255  41.366  12.571
44934W        W14749  29.551   1.872  10.118
44935W        W14750  42.365  35.002  13.037
44936W        W14751  43.829   4.939   3.371
44937W        W14752  11.868  24.042   1.432
44938W        W14753  43.513  42.936   1.359
44939W        W14754  41.513  15.273   1.831
44940W        W14755  11.776  39.003   3.793
44941W        W14756  19.071   6.198  12.345
44942W        W14757  41.507  31.536  12.034
44943W        W14758  42.817  36.880  11.870
44944W        W14759  19.219   7.787  10.895
44945W        W14760  32.107  30.013  12.545
44946W        W14761   2.384  30.643   2.747
44947W        W14762   4.879  34.506   1.242
44948W        W14763  44.763  10.355   4.231
44949W        W14764  40.978  41.995  14.426
44950W        W14765  40.022   9.707  14.944
44951W        W14766  35.502  16.634  12.509
44952W        W14767  39.400  42.402  11.574
44953W        W14768  39.820  17.642  14.469
44954W        W14769  20.642  20.621   0.242
44955W        W14770   2.402  20.030  10.535
44956W        W14771   7.769  34.453  10.995
44957W        W14772  26.498   0.315   2.399
44958W        W14773   7.303  10.374   4.816
44959W        W14774  32.915  27.022  13.323
44960W        W14775   8.319  24.163  11.105
44961W        W14776  41.361  37.521  13.825
44962W        W14777  41.875  11.820  11.057
44963W        W14778   8.199  11.186   1.300
44964W        W14779  18.289   6.260   3.159
44965W        W14780  15.202  26.506   3.654
44966W        W14781   7.891  28.954   2.763
44967W        W14782   6.359  38.853   5.122
44968W        W14783   1.956  31.049   3.268
44969W        W14784  14.799  26.162   3.159
44970W        W14785  35.405   4.380  12.004
44971W        W14786   9.842   1.853  13.397
44972W        W14787  15.146  24.644  11.947
44973W        W14788   9.214  42.455   1.751
44974W        W14789   6.735  41.016  10.930
44975W        W14790  41.335  39.931  14.434
44976W        W14791  38.848   3.878   5.232
44977W        W14792  21.539  15.707  13.352
44978W        W14793  16.140  22.573  12.844
44979W        W14794  18.184  28.047   4.815
44980W        W14795  43.358  17.599   3.806
44981W        W14796  27.148  23.010   2.798
44982W        W14797  31.090   0.472   2.228
44983W        W14798   2.813  24.705   4.114
44984W        W14799   4.425  25.040   1.292
44985W        W14800  26.623  36.357  14.516
44986W        W14801  24.634   3.230   2.290
44987W        W14802  13.838   7.675   4.685
44988W        W14803  14.298  12.753  13.826
44989W        W14804   0.390   4.213   1.220
44990W        W14805   2.469  37.565   4.294
44991W        W14806  16.572   2.852  14.433
44992W        W14807  29.945   5.244   1.822
44993W        W14808  30.118  14.783   3.640
44994W        W14809   2.424  32.430  14.941
44995W        W14810  32.511  11.324   4.315
44996W        W14811  42.906  43.404   0.909
44997W        W14812  23.167  36.504   4.185
44998W        W14813  38.983   2.321  11.412
44999W        W14814  25.529  19.544  10.947
45000W        W14815  17.193  14.290  11.009
45001W        W14816  20.205  32.030   2.800
45002W        W14817  38.835  30.475  11.884
45003W        W14818   1.836  16.242  12.510
45004W        W14819   6.691  43.309  14.378
45005W        W14820  28.592   9.310  12.039
45006W        W14821  40.979   0.380  13.504
45007W        W14822  43.810  17.632   0.316
45008W        W14823  12.648  16.073   2.863
45009W        W14824  11.260  39.920   4.677
45010W        W14825  16.798  40.518   3.230
45011W        W14826  38.943  37.437   1.215
45012W        W14827  43.431  39.851   2.669
45013W        W14828  34.521  37.983   2.374
45014W        W14829  25.011  20.554  11.375
45015W        W14830  19.077  43.510  12.456
45016W        W14831   0.782   0.341   0.406
45017W        W14832  29.123  14.284   0.318
45018W        W14833  35.550  19.078  11.079
45019W        W14834   0.867   9.689   1.387
45020W        W14835   4.886  16.775  13.052
45021W        W14836   1.734  32.451  13.543
45022W        W14837  12.852  28.585   0.282
45023W        W14838  39.411  42.946  10.061
45024W        W14839   3.921  33.109  14.384
45025W        W14840  40.848  30.160  13.385
45026W        W14841  34.111   7.374   3.271
45027W        W14842  31.038   2.449   2.748
45028W        W14843  15.750  24.029  13.967
45029W        W14844  16.729  32.540  11.498
45030W        W14845  44.789  34.430  11.976
45031W        W14846  29.544  18.743  10.590
45032W        W14847  13.824  33.061  12.992
45033W        W14848   1.924  37.035   3.677
45034W        W14849   3.228  32.430  11.041
45035W        W14850   5.304  41.326   0.925
45036W        W14851  40.923  27.493   3.708
45037W        W14852  30.041   5.896  11.535
45038W        W14853  37.421  25.467   3.785
45039W        W14854  15.692  35.433  14.313
45040W        W14855  20.619  12.818   3.354
45041W        W14856  41.872  25.688  14.317
45042W        W14857  22.056  33.411  10.628
45043W        W14858  29.986  25.102  12.387
45044W        W14859  28.533  42.857  11.396
45045W        W14860  15.281   6.265  10.602
45046W        W14861  37.415  15.759   4.329
45047W        W14862   1.858  34.531  10.527
45048W        W14863   8.334  11.278   4.117
45049W        W14864   4.844  37.836   0.311
45050W        W14865  38.834  43.501  14.808
45051W        W14866   5.843  42.945   0.279
45052W        W14867  23.168  37.375  11.880
45053W        W14868  19.632   7.273   2.716
45054W        W14869  12.293  30.021  12.575
45055W        W14870   8.740  34.604  12.483
45056W        W14871  26.207  14.681  10.504
45057W        W14872  22.641  34.872   0.859
45058W        W14873  17.675  40.498   0.772
45059W        W14874   0.802  23.227   1.850
45060W        W14875  15.133  40.845   3.366
45061W        W14876  17.644  28.444  14.419
45062W        W14877  35.439  17.281   2.340
45063W        W14878  30.142  21.208   2.315
45064W        W14879   0.981  25.096   0.280
45065W        W14880   6.200   1.380  11.605
45066W        W14881   2.339  41.365  11.058
45067W        W14882   3.745   8.819   1.301
45068W        W14883  21.529  38.529   1.369
45069W        W14884  34.415  35.515   0.731
45070W        W14885  27.024  13.603  12.049
45071W        W14886  10.356  36.361  12.044
45072W        W14887   3.879  24.123   3.288
45073W        W14888  23.691  37.420  11.878
45074W        W14889  10.371   3.365  10.158
45075W        W14890  19.753  43.362  11.042
45076W        W14891   8.350  44.891   3.233
45077W        W14892  40.834   8.672   2.771
45078W        W14893  19.704  35.891  11.443
45079W        W14894  17.172   5.698  11.951
45080W        W14895  18.668  25.153   2.410
45081W        W14896   2.732   7.370   3.277
45082W        W14897  16.782  22.998  10.609
45083W        W14898  33.594  12.309  11.991
45084W        W14899  37.004  33.416  11.114
45085W        W14900  36.942  42.822  13.434
45086W        W14901  10.377  16.590   1.296
45087W        W14902  23.204  22.573   0.832
45088W        W14903  14.180  39.557  10.966
45089W        W14904  15.163  36.365  10.518
45090W        W14905  37.994  42.943  13.496
45091W        W14906  23.623  27.486  13.854
45092W        W14907  31.008  25.008  10.464
45093W        W14908  29.088  35.005  13.800
45094W        W14909  16.659  38.822  11.408
45095W        W14910  21.620   9.827  13.438
45096W        W14911  21.193  42.291   3.226
45097W        W14912  41.400  27.964   3.361
45098W        W14913  31.427   6.879  11.544
45099W        W14914  27.049  20.621   2.310
45100W        W14915  11.231  24.218   0.754
45101W        W14916  27.497  25.492  11.034
45102W        W14917   6.408  18.285   1.234
45103W        W14918  25.698  38.912   0.811
45104W        W14919   3.339  12.321  14.452
45105W        W14920  33.057  30.953  13.874
45106W        W14921   9.302  29.545   1.419
45107W        W14922  22.740  17.640   4.703
45108W        W14923  37.917  44.300  11.048
45109W        W14924  15.600  14.253  13.525
45110W        W14925  37.984  21.122  11.054
45111W        W14926  29.605  36.978   4.643
45112W        W14927   2.877  25.039  13.960
45113W        W14928  17.270  22.040  11.076
45114W        W14929  26.109   4.867  13.389
45115W        W14930  34.981  37.906   3.374
45116W        W14931  37.838  37.469   0.291
45117W        W14932  12.737  26.500  10.518
45118W        W14933  40.873  36.058  14.352
45119W        W14934  42.898  10.704  11.456
45120W        W14935  35.544   9.204   4.190
45121W        W14936   0.802  42.913   3.315
45122W        W14937  23.547   5.409   0.459
45123W        W14938  20.116  22.648  11.992
45124W        W14939  32.000  43.990   2.210
45125W        W14940   5.335  37.568   0.965
45126W        W14941  24.135  21.559   0.460
45127W        W14942   1.287  44.261   0.413
45128W        W14943  31.920  25.668   3.697
45129W        W14944  41.005  32.394   1.258
45130W        W14945   9.386  23.708  12.397
45131W        W14946  41.444  24.569  10.962
45132W        W14947  14.252  18.057   2.249
45133W        W14948  28.575  13.735   3.300
45134W        W14949  35.037  23.602   4.633
45135W        W14950   0.900  42.376   0.762
45136W        W14951   7.806  17.153  10.590
45137W        W14952  34.973  22.583   4.283
45138W        W14953  39.834   9.659   1.910
45139W        W14954  44.478  20.528  10.641
45140W        W14955  29.018  14.265   5.223
45141W        W14956  19.085  26.146  12.897
45142W        W14957  30.128  44.268   3.799
45143W        W14958  22.616   3.950  10.574
45144W        W14959  22.088  18.562   1.794
45145W        W14960  12.714  11.208  11.871
45146W        W14961  18.200  14.311   3.384
45147W        W14962  38.330   5.738   1.738
45148W        W14963  19.719  19.217  13.501
45149W        W14964  10.293  41.849   3.848
45150W        W14965  37.892  17.718   2.723
45151W        W14966  19.257  29.130   2.800
45152W        W14967  43.022  29.488  13.897
45153W        W14968  10.297  32.528  13.457
45154W        W14969   2.228  37.899   1.919
45155W        W14970  41.322  40.034  10.549
45156W        W14971  31.447  37.388  13.843
45157W        W14972  11.676  36.085   1.897
45158W        W14973   0.934  14.288  11.601
45159W        W14974  11.860  28.100  11.010
45160W        W14975  27.134  14.734  13.310
45161W        W14976  25.087  19.103  13.028
45162W        W14977  26.661  41.038  10.581
45163W        W14978   6.253  11.824   5.298
45164W        W14979  33.117  11.160  14.279
45165W        W14980  22.244  30.621   0.479
45166W        W14981  14.596  43.423  14.942
45167W        W14982  27.977   8.770   3.785
45168W        W14983  12.335   3.898   3.664
45169W        W14984  12.204   2.373  11.064
45170W        W14985  28.165  42.415  13.323
45171W        W14986  13.660  35.506  14.852
45172W        W14987  28.011  44.781   1.776
45173W        W14988  36.008  28.143   4.821
45174W        W14989   0.365  14.655   1.407
45175W        W14990   9.694   5.924   0.246
45176W        W14991   8.269  40.896  13.063
45177W        W14992  36.940  31.418   0.866
45178W        W14993  34.900  44.463  13.866
45179W        W14994  42.378  22.243  11.433
45180W        W14995  24.185  35.364  12.411
45181W        W14996  13.812  25.507  14.341
45182W        W14997   9.292   3.850  10.460
45183W        W14998  11.858  27.178   3.644
45184W        W14999  22.119  14.127  14.430
45185W        W15000  16.133  28.522  13.982
45186W        W15001  37.076  23.998   3.311
45187W        W15002  34.594  13.741   3.173
45188W        W15003  34.414  31.142   3.817
45189W        W15004  40.327  17.652  14.816
45190W        W15005  30.489  26.616   3.334
45191W        W15006   8.229  38.539  10.913
45192W        W15007  42.901  34.027  13.822
45193W        W15008  12.685  29.070   2.891
45194W        W15009  40.529  40.996  11.565
45195W        W15010  10.184  27.163  13.903
45196W        W15011   7.283  10.218   1.404
45197W        W15012  27.567  27.001   4.743
45198W        W15013  34.419  42.780   1.404
45199W        W15014  37.872   1.734   3.343
45200W        W15015  38.838   2.811   4.690
45201W        W15016  29.653  24.506  11.499
45202W        W15017  27.043  16.747   3.856
45203W        W15018  15.649  14.781  13.977
45204W        W15019  29.097  27.142   0.847
45205W        W15020   3.303   9.704   1.706
45206W        W15021  25.181  43.486   1.238
45207W        W15022   5.742   8.696  13.883
45208W        W15023  26.640  38.064   4.656
45209W        W15024  27.103  36.940  12.486
45210W        W15025  36.018  39.833   0.434
45211W        W15026  26.029  30.116  12.054
45212W        W15027  20.165  31.420  11.538
45213W        W15028  39.543   1.278  13.454
45214W        W15029   4.401  41.506  14.513
45215W        W15030  33.105   7.845   0.303
45216W        W15031  29.643  25.143   0.753
45217W        W15032  15.265  17.741  11.999
45218W        W15033   2.893  38.440   4.723
45219W        W15034  25.587  35.956  12.408
45220W        W15035  41.014  13.654  10.978
45221W        W15036  31.544  34.900   4.800
45222W        W15037  21.068  18.563   1.795
45223W        W15038  10.183  25.687   1.264
45224W        W15039  11.827  18.546   1.884
45225W        W15040  25.126   3.861   1.817
45226W        W15041  39.411  38.028  11.501
45227W        W15042  36.011  21.243   0.404
45228W        W15043  33.513  38.819  10.550
45229W        W15044  24.579  15.669   4.316
45230W        W15045  15.726  28.030   4.252
45231W        W15046   9.179  12.151  12.922
45232W        W15047   9.169   9.847   3.354
45233W        W15048  30.440  44.809   0.851
45234W        W15049  23.526  11.761  10.957
45235W        W15050  11.865  40.901  13.505
45236W        W15051  13.671  34.002   1.254
45237W        W15052  44.382   6.772   2.713
45238W        W15053   4.363  42.313  11.423
45239W        W15054  40.811  10.804  10.586
45240W        W15055  19.068  28.549   2.766
45241W        W15056  28.614  17.207   3.173
45242W        W15057   2.265  43.971  14.393
45243W        W15058  22.535  34.582  13.805
45244W        W15059   6.848  12.228   2.857
45245W        W15060  22.677  32.131  12.830
45246W        W15061  13.261  31.924  11.976
45247W        W15062   9.295  11.805  11.521
45248W        W15063   1.794   9.395  14.776
45249W        W15064  27.153  38.339   2.313
45250W        W15065   0.317   0.318   0.379
45251W        W15066  17.250  22.179  11.406
45252W        W15067  23.670   6.679   3.675
45253W        W15068  29.038  20.577   3.383
45254W        W15069  29.572  31.985   3.643
45255W        W15070  35.374  27.482  12.436
45256W        W15071  20.141  14.720   2.764
45257W        W15072   7.403  36.906  13.335
45258W        W15073   9.881  33.908  13.479
45259W        W15074   7.293  11.674  12.987
45260W        W15075  14.790   7.245   4.298
45261W        W15076   1.421   3.267   1.801
45262W        W15077  30.577   2.851   1.346
45263W        W15078  28.010   1.782   1.395
45264W        W15079   8.327  12.717   3.635
45265W        W15080   5.877  16.255   1.381
45266W        W15081   5.702  31.504   1.863
45267W        W15082  13.326  14.310   5.095
45268W        W15083  31.140   0.955   4.833
45269W        W15084  33.475  12.224  12.383
45270W        W15085  43.889   3.793  11.998
45271W        W15086  42.870  20.590   3.368
45272W        W15087   1.472  19.076   3.271
45273W        W15088   1.855  16.090  12.848
45274W        W15089  35.024  42.868  13.483
45275W        W15090   6.351  44.411  12.516
45276W        W15091  37.391  28.515   4.134
45277W        W15092  11.204   0.272  11.082
45278W        W15093  29.066  31.581   0.339
45279W        W15094  31.580   3.377   1.328
45280W        W15095  22.212   1.273   1.813
45281W        W15096  15.769  33.474  14.794
45282W        W15097  12.349  32.621  13.927
45283W        W15098  29.010  34.096   4.307
45284W        W15099  31.000  41.336   3.650
45285W        W15100   2.278  37.041  13.927
45286W        W15101  35.935   3.456   0.293
45287W        W15102  14.717  36.039   3.643
45288W        W15103   0.377  13.673  13.958
45289W        W15104   5.360  15.134  13.927
45290W        W15105   4.401  44.423  12.021
45291W        W15106  43.881  24.710   0.732
45292W        W15107  34.079  37.441  11.401
45293W        W15108   7.254  44.336   3.334
45294W        W15109  31.425   2.274  11.392
45295W        W15110  31.987  40.442   5.193
45296W        W15111  33.079  25.011  11.891
45297W        W15112  17.682  27.543   4.818
45298W        W15113  26.181  19.073   0.967
45299W        W15114  44.902  19.182   1.227
45300W        W15115   5.817  43.301   3.868
45301W        W15116  15.817  39.431   2.222
45302W        W15117  11.639  42.400   3.658
45303W        W15118  42.479   1.950  12.419
45304W        W15119  15.801  14.280   5.273
45305W        W15120   1.367  27.965   3.149
45306W        W15121  36.467   0.773   2.284
45307W        W15122  33.093  22.162   2.718
45308W        W15123   8.885  44.410   1.902
45309W        W15124  23.504  23.713   0.793
45310W        W15125  24.119  37.903   0.325
45311W        W15126  42.016  19.560  14.292
45312W        W15127   4.324  23.046  14.836
45313W        W15128  40.844  44.324   0.269
45314W        W15129  28.570  44.367  10.418
45315W        W15130  14.207  24.170   0.814
45316W        W15131  12.632   5.271  12.365
45317W        W15132   6.304  10.373  11.600
45318W        W15133   3.861  22.087  10.600
45319W        W15134  32.435  40.921   0.331
45320W        W15135  32.636  37.026   1.928
45321W        W15136  10.719  21.567  12.848
45322W        W15137  20.176  37.345  10.428
45323W        W15138  42.397  14.161   4.602
45324W        W15139  37.367  42.005  13.437
45325W        W15140  16.761   1.405   3.279
45326W        W15141  19.233  14.328   4.213
45327W        W15142   4.301   3.837  10.507
45328W        W15143  14.329  32.523   1.362
45329W        W15144  28.441  35.520  11.051
45330W        W15145  30.445  18.639   2.257
45331W        W15146  42.897  13.202   0.406
45332W        W15147  41.348   6.207  14.280
45333W        W15148  20.589   1.386   5.789
45334W        W15149  13.207  23.155  11.943
45335W        W15150  40.530   2.287   3.785
45336W        W15151  43.771  27.589   0.873
45337W        W15152  12.244  26.964   4.138
45338W        W15153  11.621  40.509  11.997
45339W        W15154  13.116   9.750   4.779
45340W        W15155  32.623   8.323   4.758
45341W        W15156  40.447   6.871  10.987
45342W        W15157  35.376  23.704   3.166
45343W        W15158  31.123  40.482  11.613
45344W        W15159   6.710  26.066  14.403
45345W        W15160  41.941   6.248  12.371
45346W        W15161  12.796   1.886   2.695
45347W        W15162  35.946   6.321  11.880
45348W        W15163   5.269  37.442   4.632
45349W        W15164  22.046  15.815   4.603
45350W        W15165  44.849  35.408   1.716
45351W        W15166   1.278  24.197  10.416
45352W        W15167  21.221  30.442  10.424
45353W        W15168  33.891   5.296   3.840
45354W        W15169  10.224  43.378   3.263
45355W        W15170   6.220  10.190   0.890
45356W        W15171  28.455  11.769  10.964
45357W        W15172  28.020   9.854  11.966
45358W        W15173  16.646  44.313   1.726
45359W        W15174  20.262   9.338   2.267
45360W        W15175  16.197  35.524  14.029
45361W        W15176  35.087   7.717  12.017
45362W        W15177  23.103  22.545   2.387
45363W        W15178   4.922   5.822  11.870
45364W        W15179  18.692   7.822   0.296
45365W        W15180  41.788  42.884  12.518
45366W        W15181  25.201   5.917  10.983
45367W        W15182  14.640  44.854   3.763
45368W        W15183   4.323  12.213   4.716
45369W        W15184   3.799  35.911   4.754
45370W        W15185  14.186  26.641  12.355
45371W        W15186   3.415  14.317   2.835
45372W        W15187  34.590  24.034  11.912
45373W        W15188  41.888  34.863  14.363
45374W        W15189  27.962  34.442  14.894
45375W        W15190   2.331   9.213  13.019
45376W        W15191  21.128  18.657   0.332
45377W        W15192  25.083   8.796   0.891
45378W        W15193  10.275  22.656   3.777
45379W        W15194  21.061  22.674  14.276
45380W        W15195  21.513  25.546  10.972
45381W        W15196  23.155   3.896   3.354
45382W        W15197  19.086  28.975  14.305
45383W        W15198  34.596  13.734  14.814
45384W        W15199  32.487  38.048   0.869
45385W        W15200  27.591  32.636   1.332
45386W        W15201  31.916   5.331   4.334
45387W        W15202  27.107  26.141  13.029
45388W        W15203  42.449  17.583  14.027
45389W        W15204  41.466  10.703  14.506
45390W        W15205  35.443  10.806   3.834
45391W        W15206   8.714  15.102  12.527
45392W        W15207  31.622  18.172  14.400
45393W        W15208  25.025  40.443  14.893
45394W        W15209  22.239  26.100   0.838
45395W        W15210  22.177  17.767  14.883
45396W        W15211  42.290  32.481   4.242
45397W        W15212  37.038  36.591   1.429
45398W        W15213  35.417  24.982  14.497
45399W        W15214  12.204   6.905   2.901
45400W        W15215  10.805  42.302  13.946
45401W        W15216  44.283  28.959   1.316
45402W        W15217  12.830  29.589   1.231
45403W        W15218  32.581  41.396  14.953
45404W        W15219  38.392  27.604   1.725
45405W        W15220  43.451  15.205   2.248
45406W        W15221  19.746  29.975  10.437
45407W        W15222  17.632  21.511  12.468
45408W        W15223  22.532  15.147  11.096
45409W        W15224   4.335  32.400  13.973
45410W        W15225   7.779   1.898  10.586
45411W        W15226  14.627   5.777  10.511
45412W        W15227  42.454  37.885  14.845
45413W        W15228  32.615  39.034  12.542
45414W        W15229  25.074  27.958   0.386
45415W        W15230   9.722  10.774  11.476
45416W        W15231   7.677   5.749  12.086
45417W        W15232  38.993  12.308   4.353
45418W        W15233   4.323  23.579   4.218
45419W        W15234   6.367  42.450   0.841
45420W        W15235  30.988  14.168   2.251
45421W        W15236  41.042  19.630  14.956
45422W        W15237   5.927   2.942   1.698
45423W        W15238  36.517  16.619  14.007
45424W        W15239  24.495  10.237   0.867
45425W        W15240  37.336   2.260  12.974
45426W        W15241  38.938  27.667  12.090
45427W        W15242  23.587  20.138  10.544
45428W        W15243  28.597  20.031   1.237
45429W        W15244  12.349   9.831  12.969
45430W        W15245   5.225  38.460   2.248
45431W        W15246  16.589  27.689   2.302
45432W        W15247  36.392  13.649  12.460
45433W        W15248  29.986  23.226   1.790
45434W        W15249  36.541  17.733   0.342
45435W        W15250  44.491  25.620   2.313
45436W        W15251  33.417  10.846  11.568
45437W        W15252  33.488  19.709   5.237
45438W        W15253  15.296  20.065   0.245
45439W        W15254  37.546  18.214  11.527
45440W        W15255  25.997  36.094  10.972
45441W        W15256  34.872  14.148  10.968
45442W        W15257   7.894  13.337  11.398
45443W        W15258   0.945  27.028   0.803
45444W        W15259  32.615  42.890   0.880
45445W        W15260  34.048  32.097   0.261
45446W        W15261  32.524  16.802   0.825
45447W        W15262  22.581  26.592   1.312
45448W        W15263  30.593  32.975   0.919
45449W        W15264  13.794  10.337  10.484
45450W        W15265   8.322   9.206   0.261
45451W        W15266  26.582  33.002   3.682
45452W        W15267  33.104   0.357   0.897
45453W        W15268   5.312  12.763  11.568
45454W        W15269  16.295   4.793  11.533
45455W        W15270  16.574  19.688  10.414
45456W        W15271   9.697   8.235   0.252
45457W        W15272  42.448  22.208   3.294
45458W        W15273  34.967  30.114  13.347
45459W        W15274  13.613   7.746  13.045
45460W        W15275  16.236  32.960  11.604
45461W        W15276  23.237  12.748  14.888
45462W        W15277   0.900   1.425  14.960
45463W        W15278  15.283  17.655  12.426
45464W        W15279  18.736  44.865   2.706
45465W        W15280  10.238  36.852   4.252
45466W        W15281  13.327   3.794   3.630
45467W        W15282   7.891   4.776  14.030
45468W        W15283  42.877  19.754  10.895
45469W        W15284   5.332  36.367  13.365
45470W        W15285  13.173   3.861  12.392
45471W        W15286   8.381  22.995  13.349
45472W        W15287  43.908  10.254   4.685
45473W        W15288  14.739   4.724  14.821
45474W        W15289  17.606   9.336   3.156
45475W        W15290   3.827   4.291  13.925
45476W        W15291  40.305  27.520  11.415
45477W        W15292  22.059   2.249  10.486
45478W        W15293  10.345  38.852  12.067
45479W        W15294  31.904  12.230   4.257
45480W        W15295  22.008   9.190  13.523
45481W        W15296  10.257  17.578  12.047
45482W        W15297  23.728  29.041  13.972
45483W        W15298  43.362   0.801  14.348
45484W        W15299   9.857  41.808  11.028
45485W        W15300  26.182   9.832  10.572
45486W        W15301  13.829  16.157   4.149
45487W        W15302  28.180  21.716   2.750
45488W        W15303  34.580  31.991  12.424
45489W        W15304  34.015  34.594   0.933
45490W        W15305   0.851  28.581  14.918
45491W        W15306  34.916  26.142  10.984
45492W        W15307  13.133  35.481   3.709
45493W        W15308  41.027   6.322  14.364
45494W        W15309  23.502  22.736  12.004
45495W        W15310  33.888  42.296   4.335
45496W        W15311   1.837  44.339   3.181
45497W        W15312  19.209  43.480   3.836
45498W        W15313  37.911   4.447   3.309
45499W        W15314  25.707  38.996   4.255
45500W        W15315  17.778   9.855   2.753
45501W        W15316  32.044   7.849  11.971
45502W        W15317  13.219  40.536   4.696
45503W        W15318  30.066  20.202  14.411
45504W        W15319  17.066  37.385   3.856
45505W        W15320  15.236  32.059   1.768
45506W        W15321  32.452  30.982   4.283
45507W        W15322  41.478   7.395  13.437
45508W        W15323  40.344  28.680   2.279
45509W        W15324  26.163  36.364  11.082
45510W        W15325  11.286  28.439   2.819
45511W        W15326  11.330  40.897   0.439
45512W        W15327  19.727  25.633  11.470
45513W        W15328  40.369  24.134  12.541
45514W        W15329  17.699  17.781  11.022
45515W        W15330  35.584   3.292  12.374
45516W        W15331  44.363  41.378  14.953
45517W        W15332   4.431  20.603   0.848
45518W        W15333  42.021  10.195  11.510
45519W        W15334   0.287  43.291  11.392
45520W        W15335  43.478   6.787   1.831
45521W        W15336   1.321  15.091  13.852
45522W        W15337  37.960   1.866   0.353
45523W        W15338  11.215  37.502   3.661
45524W        W15339  44.329   4.341   1.244
45525W        W15340  43.497  19.715   5.106
45526W        W15341  12.295  25.039   4.230
45527W        W15342  40.946   6.837  10.147
45528W        W15343  42.938  12.756  12.935
45529W        W15344  33.074   8.219  14.955
45530W        W15345  42.425   4.889  13.863
45531W        W15346   0.795  33.598   0.453
45532W        W15347  10.740   3.385  13.812
45533W        W15348  36.360  16.300   0.465
45534W        W15349   5.348  21.130  12.073
45535W        W15350  23.073  18.181   3.720
45536W        W15351  16.793   8.893  13.383
45537W        W15352  43.842  13.832  14.284
45538W        W15353  12.229   8.285   0.312
45539W        W15354  28.546  20.614  11.422
45540W        W15355  28.171   6.888   0.477
45541W        W15356   4.845  29.105   3.661
45542W        W15357  39.033  21.566  14.775
45543W        W15358  33.976  41.029  12.496
45544W        W15359  32.132  39.838  11.048
45545W        W15360   1.961  22.683   4.314
45546W        W15361  27.086  25.052  12.052
45547W        W15362  26.105   5.688   3.253
45548W        W15363   1.332  39.965   0.772
45549W        W15364   2.789   8.328  12.884
45550W        W15365  44.493  19.567  13.989
45551W        W15366  25.033   6.857   3.848
45552W        W15367  44.756  42.473  14.918
45553W        W15368   6.294  27.481  11.404
45554W        W15369  32.562   9.170  14.856
45555W        W15370  31.127   0.387   4.598
45556W        W15371  37.403  38.472   4.640
45557W        W15372   0.421  34.576  14.346
45558W        W15373  36.485  33.549   3.307
45559W        W15374  29.016   6.189   3.781
45560W        W15375  15.671  16.796  11.010
45561W        W15376  15.732  11.785  12.421
45562W        W15377  31.448  21.685   1.745
45563W        W15378   1.333  10.736  13.063
45564W        W15379   2.722   9.824   4.609
45565W        W15380  39.912  25.622   0.331
45566W        W15381  35.992  41.416   3.153
45567W        W15382  23.010  18.167  13.403
45568W        W15383  21.752  26.994   0.475
45569W        W15384  23.565  30.496   2.747
45570W        W15385  27.626   3.929   0.420
45571W        W15386   2.444  35.503  11.396
45572W        W15387  16.768  40.347   1.820
45573W        W15388   4.832  37.992   3.255
45574W        W15389   4.870  44.911   2.845
45575W        W15390  41.793  37.877  11.541
45576W        W15391  32.568  20.132  13.497
45577W        W15392  10.201  24.126  12.422
45578W        W15393   4.871  31.436  13.468
45579W        W15394   3.404   4.821  14.416
45580W        W15395  11.219  32.621  11.059
45581W        W15396  35.394   7.689  14.486
45582W        W15397  18.593  44.420   3.642
45583W        W15398  34.402  24.062  13.017
45584W        W15399  29.099  44.837   2.388
45585W        W15400  40.425  14.698   1.812
45586W        W15401   1.328  35.925  10.970
45587W        W15402   1.363  34.418  10.617
45588W        W15403  43.881  16.217   2.339
45589W        W15404  18.626  19.228  10.559
45590W        W15405  13.271  38.032   4.229
45591W        W15406  29.604  29.529   1.234
45592W        W15407  17.121  22.115  13.378
45593W        W15408  33.893  12.330   4.226
45594W        W15409  25.979  11.333   1.884
45595W        W15410  33.055   4.736   3.256
45596W        W15411  40.400  27.102  10.943
45597W        W15412   0.744  13.120   1.300
45598W        W15413   1.330  42.917  11.579
45599W        W15414   2.865   3.438  14.299
45600W        W15415  31.102  11.667   9.990
45601W        W15416  25.110  17.624  12.467
45602W        W15417  24.642  24.164   1.752
45603W        W15418  43.908  38.515   2.291
45604W        W15419   8.741  43.991   0.862
45605W        W15420  29.448  28.995   4.642
45606W        W15421  30.127  23.611   4.168
45607W        W15422  18.620  42.974  10.432
45608W        W15423  27.096  17.064  13.897
45609W        W15424  17.661  24.706   1.704
45610W        W15425  23.554  19.628   0.381
45611W        W15426  18.680   2.357   4.667
45612W        W15427  15.777   1.748  10.564
45613W        W15428  32.120  42.968   2.376
45614W        W15429  10.197  28.554  12.467
45615W        W15430  32.024  37.907  14.932
45616W        W15431  15.093  26.195   0.785
45617W        W15432  17.748  40.905   4.714
45618W        W15433   5.797   1.362   0.757
45619W        W15434  36.581  19.117  12.385
45620W        W15435   6.716  26.654  11.023
45621W        W15436  19.138   5.912   2.309
45622W        W15437  44.966   0.877   1.731
45623W        W15438  25.565   2.265   3.187
45624W        W15439  15.188  40.940   0.770
45625W        W15440  14.670  29.662   4.795
45626W        W15441  33.029  25.482   3.296
45627W        W15442  33.447  26.588   2.405
45628W        W15443  21.263  25.502  10.642
45629W        W15444   6.351  11.341  13.017
45630W        W15445  20.154  29.664  12.849
45631W        W15446  32.609  20.137  11.594
45632W        W15447   0.484  19.776   1.335
45633W        W15448   2.836  29.582   4.287
45634W        W15449  25.179  13.800   1.808
45635W        W15450  30.648  21.057  14.501
45636W        W15451  44.917   3.913   4.129
45637W        W15452  13.731  11.783   3.208
45638W        W15453  27.573  23.036  14.501
45639W        W15454   2.804  31.988  10.637
45640W        W15455  42.336  20.642  11.995
45641W        W15456  29.099  39.840  14.481
45642W        W15457  41.989  19.626   3.149
45643W        W15458   7.714  28.527  10.519
45644W        W15459  23.505   9.192   1.743
45645W        W15460  35.035   2.796  13.911
45646W        W15461  24.176  24.568   2.770
45647W        W15462  33.384  43.501   2.271
45648W        W15463  29.623  34.510   0.307
45649W        W15464  24.533   2.405  13.319
45650W        W15465  18.107  29.471  13.884
45651W        W15466  18.174   3.728  12.435
45652W        W15467   5.855  19.199   0.965
45653W        W15468  37.345  26.187   3.797
45654W        W15469  38.345   6.413  12.927
45655W        W15470   0.461   8.348   1.847
45656W        W15471  17.186   8.760  11.409
45657W        W15472   7.255  27.152  10.475
45658W        W15473   9.791  21.144   2.329
45659W        W15474  40.881  44.005  10.546
45660W        W15475  17.630  32.637   2.878
45661W        W15476   4.841  20.193   1.908
45662W        W15477  14.250   2.296  12.899
45663W        W15478   4.422   9.277  11.015
45664W        W15479   2.896   8.761   2.756
45665W        W15480  40.527  10.155  14.842
45666W        W15481  29.588   4.761   9.968
45667W        W15482  21.097  27.083  10.438
45668W        W15483  39.481  12.201  10.437
45669W        W15484  35.476   6.844  11.873
45670W        W15485   6.340  27.145   0.748
45671W        W15486  27.069  23.735  13.001
45672W        W15487  42.475  13.291   4.254
45673W        W15488   6.699  16.739   1.729
45674W        W15489   7.329   5.409   4.617
45675W        W15490  33.044   6.728  11.530
45676W        W15491  36.484  28.128   4.609
45677W        W15492   2.315   4.795   0.947
45678W        W15493  28.461  35.425   3.737
45679W        W15494  26.572   4.266   1.316
45680W        W15495  29.500  16.760  11.064
45681W        W15496  30.533  22.514   3.858
45682W        W15497  15.680  28.675   0.439
45683W        W15498  36.079  13.695   1.361
45684W        W15499  15.599  43.834   2.209
45685W        W15500  40.502  15.796  11.076
45686W        W15501  21.541   4.387  12.850
45687W        W15502  13.181  25.590   0.300
45688W        W15503  43.993  22.737   1.741
45689W        W15504  20.725  15.273   0.868
45690W        W15505  17.160  36.351   3.332
45691W        W15506  19.138  42.795   3.631
45692W        W15507  13.238   0.411  12.415
45693W        W15508  37.386   7.890   1.920
45694W        W15509   4.265  25.619  11.126
45695W        W15510  43.376   7.846   3.718
45696W        W15511  11.303  23.984  13.816
45697W        W15512   8.218  16.648  12.005
45698W        W15513  19.088   5.753   2.862
45699W        W15514  32.897   7.802   3.189
45700W        W15515  40.457  34.904  11.606
45701W        W15516  15.115  33.030   4.806
45702W        W15517  23.594   1.977  11.925
45703W        W15518  30.595  39.437   4.643
45704W        W15519   6.694  40.308   4.701
45705W        W15520  24.084  10.794   4.693
45706W        W15521  30.993  40.495   3.798
45707W        W15522   7.742  13.796   1.345
45708W        W15523  31.951  27.477   1.914
45709W        W15524  37.057  36.498   0.848
45710W        W15525   7.857  12.144  12.498
45711W        W15526   8.394   1.467  12.917
45712W        W15527  19.147  22.199  13.464
45713W        W15528   1.283   4.804   2.387
45714W        W15529   4.842  11.767  13.019
45715W        W15530  21.184  15.787   1.298
45716W        W15531  28.107  43.849   4.799
45717W        W15532  40.431  25.628  12.866
45718W        W15533  12.816  30.134   3.235
45719W        W15534   6.259  12.342   0.293
45720W        W15535  36.419  15.142   2.893
45721W        W15536  26.474   0.454   1.215
45722W        W15537  33.050  33.582   3.238
45723W        W15538  33.504  15.639  13.319
45724W        W15539  30.092  27.667   3.650
45725W        W15540   9.855  14.171  12.501
45726W        W15541  16.195   6.768  12.867
45727W        W15542  10.789  30.525   2.779
45728W        W15543  19.718  27.525  10.974
45729W        W15544  37.075  33.989   2.675
45730W        W15545  28.107  30.501   3.257
45731W        W15546   1.413  10.810   1.401
45732W        W15547  29.669  25.613   4.797
45733W        W15548  38.855  13.695   3.869
45734W        W15549  23.045  41.462  10.980
45735W        W15550   5.723   4.249  10.911
45736W        W15551   3.318  35.531  10.422
45737W        W15552  34.533   0.880  14.345
45738W        W15553  18.159  39.908   2.846
45739W        W15554  25.477   0.359  11.544
45740W        W15555  44.324  21.548  12.433
45741W        W15556  22.646  42.519   2.897
45742W        W15557  23.014  25.600  14.283
45743W        W15558   0.365  44.983   3.224
45744W        W15559  24.090  26.150  11.091
45745W        W15560  25.500   1.792  13.458
45746W        W15561  34.922  36.898  13.894
45747W        W15562  11.226  20.619   0.922
45748W        W15563   5.260  36.398  14.968
45749W        W15564   5.337  11.198  11.577
45750W        W15565  43.893  21.574   4.354
45751W        W15566  25.964   0.415   3.158
45752W        W15567  23.103  27.052   4.247
45753W        W15568  36.359  20.247  13.054
45754W        W15569  36.540  18.290  14.407
45755W        W15570   5.341  18.610  13.843
45756W        W15571  10.703  30.466   0.875
45757W        W15572  26.017  21.552  12.885
45758W        W15573   5.814  23.220  10.579
45759W        W15574   8.831  38.901   3.668
45760W        W15575  22.705  35.376   0.482
45761W        W15576  33.921  27.579  10.894
45762W        W15577  15.213  41.932  11.504
45763W        W15578  32.466  14.339   0.904
45764W        W15579  34.483  23.610   2.405
45765W        W15580  19.139  44.942   1.369
45766W        W15581   4.323  14.255  14.011
45767W        W15582  44.300  35.062  10.561
45768W        W15583   5.783   5.797   3.629
45769W        W15584  37.905  37.047   4.225
45770W        W15585  14.628  40.496  14.892
45771W        W15586   1.836  33.012   2.822
45772W        W15587  23.051  42.486   3.812
45773W        W15588   1.773  38.563  11.954
45774W        W15589   1.812  12.345  14.961
45775W        W15590  14.131  18.563  13.907
45776W        W15591  18.211  24.508   4.767
45777W        W15592  10.821  17.223   5.249
45778W        W15593  38.852  33.878   2.413
45779W        W15594  25.105  36.578  10.584
45780W        W15595  37.412  34.908   2.230
45781W        W15596  15.579  32.920  10.450
45782W        W15597  30.437  42.019  12.490
45783W        W15598  14.685   7.322   4.765
45784W        W15599  26.127  10.246  12.893
45785W        W15600   7.749   7.829  12.433
45786W        W15601   5.883   6.297   3.865
45787W        W15602  33.059  38.860  14.928
45788W        W15603  13.614  22.610  12.057
45789W        W15604  23.064  42.924  11.383
45790W        W15605  20.567  40.040  14.384
45791W        W15606  24.997  18.242  12.033
45792W        W15607  31.072  15.221  14.509
45793W        W15608   0.778  19.272  13.913
45794W        W15609  44.753  19.225   0.865
45795W        W15610  36.576  21.619   3.867
45796W        W15611   6.828  36.523   1.296
45797W        W15612  13.798  16.189   3.759
45798W        W15613   7.810  18.657  11.006
45799W        W15614  32.622  42.319   0.326
45800W        W15615  11.714  42.987   0.882
45801W        W15616   6.823  32.594   2.893
45802W        W15617  41.441  39.405  11.896
45803W        W15618  38.063  14.107  10.541
45804W        W15619   4.911  22.684   5.092
45805W        W15620   3.826  38.339   2.249
45806W        W15621  13.156  31.517  14.298
45807W        W15622  25.679  11.623  12.443
45808W        W15623  35.572   6.389   4.250
45809W        W15624  16.196  25.651   3.854
45810W        W15625  28.587  13.795   4.816
45811W        W15626  43.286  42.834   1.766
45812W        W15627   2.455  39.967   1.335
45813W        W15628  17.136  33.017  14.390
45814W        W15629  43.772   3.451  11.123
45815W        W15630  22.112  19.704   3.194
45816W        W15631  18.295  32.130   3.730
45817W        W15632  39.861  27.153   4.723
45818W        W15633  12.152  27.133  12.429
45819W        W15634   0.943   9.755  12.555
45820W        W15635  18.585  13.757   2.179
45821W        W15636  19.760  41.480  13.437
45822W        W15637  15.209  24.588  14.406
45823W        W15638  32.547   4.802   0.755
45824W        W15639  27.188  33.624  12.825
45825W        W15640   1.946  43.279  11.923
45826W        W15641  40.381  26.117   3.175
45827W        W15642  23.130  25.709   0.850
45828W        W15643  35.068  11.235   3.794
45829W        W15644  31.623  15.253  14.790
45830W        W15645  36.061  11.846  14.354
45831W        W15646  34.914  43.866   3.244
45832W        W15647   5.805  23.662   0.269
45833W        W15648  18.628   0.278   0.818
45834W        W15649   6.698  25.668  13.426
45835W        W15650  30.624  33.975   4.263
45836W        W15651  20.612  36.977   3.778
45837W        W15652  40.459  29.073  14.499
45838W        W15653  15.581  14.712  14.351
45839W        W15654  16.109  11.348  14.434
45840W        W15655  12.331  42.449  11.009
45841W        W15656  35.531   5.274   2.700
45842W        W15657  40.910  38.920   1.766
45843W        W15658   3.766  40.892  11.509
45844W        W15659  35.384  16.136  10.464
45845W        W15660  17.277  15.810   0.302
45846W        W15661  20.149  26.678  12.001
45847W        W15662  30.491  32.426   3.336
45848W        W15663  34.036  15.231   1.222
45849W        W15664  11.837   3.243  13.344
45850W        W15665  42.988  35.960   0.778
45851W        W15666  29.467  25.095  13.889
45852W        W15667   6.873  19.086  14.848
45853W        W15668  38.035  17.592   1.218
45854W        W15669   2.410  42.989   4.665
45855W        W15670  22.642  25.162   3.764
45856W        W15671   9.652  34.114   1.731
45857W        W15672  22.228  29.103  13.904
45858W        W15673  23.208  32.411  11.949
45859W        W15674  36.095  11.195  12.887
45860W        W15675  43.991   0.490   1.279
45861W        W15676  14.743  31.461  13.469
45862W        W15677  11.664  24.494   0.419
45863W        W15678  10.828  13.751  14.282
45864W        W15679   0.383  38.430   1.796
45865W        W15680  29.919   1.239  12.418
45866W        W15681  17.135  35.062  11.020
45867W        W15682   7.275  40.456   1.364
45868W        W15683   6.868  29.659  13.410
45869W        W15684   8.283  16.154  11.898
45870W        W15685   9.841  37.574   4.343
45871W        W15686  16.227   3.773   1.331
45872W        W15687  39.483   0.494   1.317
45873W        W15688  10.243  17.635  12.429
45874W        W15689  16.109  44.921  14.987
45875W        W15690  20.055  41.336  14.928
45876W        W15691  23.649  23.040  14.860
45877W        W15692  41.475  39.495   3.230
45878W        W15693   1.340  10.809   1.735
45879W        W15694  42.013   3.794   4.158
45880W        W15695   2.731   6.884   3.247
45881W        W15696   2.321  15.277   4.247
45882W        W15697  16.579  43.839  13.972
45883W        W15698   5.766  37.374   4.142
45884W        W15699  18.695  44.359  11.888
45885W        W15700  20.534   8.234  13.895
45886W        W15701  42.946  33.886  11.421
45887W        W15702   7.205  33.925  10.418
45888W        W15703  27.597  35.030  11.556
45889W        W15704  21.056   3.853   0.919
45890W        W15705  11.261  36.069   2.765
45891W        W15706  11.246  27.188   1.718
45892W        W15707  29.597  12.257   2.297
45893W        W15708   5.291   0.866  13.503
45894W        W15709  39.862  31.411   0.807
45895W        W15710  31.547  17.580  12.973
45896W        W15711  40.420  44.853   0.923
45897W        W15712  26.613  35.934  13.057
45898W        W15713  40.994   6.215   1.360
45899W        W15714  24.670  26.064  13.943
45900W        W15715   8.204  37.342  13.357
45901W        W15716   6.214  23.571   0.428
45902W        W15717  33.399  31.616  10.636
45903W        W15718  14.642  15.257   3.170
45904W        W15719  39.366  26.547   4.815
45905W        W15720  13.317  40.903  11.521
45906W        W15721  23.226  29.591  14.487
45907W        W15722  44.892  41.842   3.706
45908W        W15723  25.566  20.042  12.385
45909W        W15724  14.267   2.873   4.298
45910W        W15725   0.402  43.311  13.501
45911W        W15726  18.207  15.809   1.726
45912W        W15727  38.337  44.453  12.386
45913W        W15728   7.852  14.256  12.423
45914W        W15729  17.660  43.822   4.206
45915W        W15730  11.349  20.182  10.901
45916W        W15731   8.280  22.746   2.378
45917W        W15732  34.025  29.478  14.321
45918W        W15733  15.299  16.196   0.452
45919W        W15734  23.092  33.062  10.532
45920W        W15735  36.494  26.644   2.317
45921W        W15736  12.678   5.214  12.034
45922W        W15737  13.808  28.985  14.977
45923W        W15738  39.455  17.122  10.005
45924W        W15739  25.665  38.023   1.792
45925W        W15740   8.868   2.895   1.782
45926W        W15741  27.141  44.957   2.303
45927W        W15742  38.451  11.750   3.176
45928W        W15743  22.642  28.051   0.820
45929W        W15744  28.579   3.749   2.199
45930W        W15745  29.995  22.671   1.802
45931W        W15746  22.093  28.667   4.659
45932W        W15747  44.286   8.208  14.432
45933W        W15748  37.923   4.885  13.530
45934W        W15749  30.133   9.648   2.410
45935W        W15750  14.148   1.894   2.848
45936W        W15751   3.367  21.222   5.236
45937W        W15752  37.027   6.916   2.326
45938W        W15753   2.808   6.361   1.386
45939W        W15754  25.986  39.816   2.800
45940W        W15755  20.648  41.368  13.061
45941W        W15756  28.448  22.627  10.458
45942W        W15757  41.946  40.498  11.971
45943W        W15758  27.023  20.095   2.683
45944W        W15759   3.398  28.079  12.923
45945W        W15760  40.835  41.353  13.529
45946W        W15761  29.627   2.374  13.407
45947W        W15762  40.922  15.814  11.889
45948W        W15763  28.027  31.588   0.414
45949W        W15764  29.123  10.240  13.061
45950W        W15765   3.879   8.239   3.677
45951W        W15766  23.172  20.733  12.454
45952W        W15767  33.958  14.732  14.482
45953W        W15768  28.951  30.471  11.054
45954W        W15769  42.965  13.174   2.738
45955W        W15770  16.296  34.529  11.943
45956W        W15771  20.533   0.487  10.053
45957W        W15772  34.567  25.038   1.801
45958W        W15773  29.154  42.808  14.807
45959W        W15774  25.626  31.030  13.426
45960W        W15775  31.496  35.864   4.239
45961W        W15776  16.266   5.829  11.602
45962W        W15777  28.098   8.882  14.344
45963W        W15778  23.581   7.224  14.835
45964W        W15779  22.577  36.068   2.839
45965W        W15780  43.932  40.337  12.907
45966W        W15781   5.801  35.986   3.669
45967W        W15782  15.624  11.750   1.322
45968W        W15783  34.590  43.346  10.588
45969W        W15784  11.211  39.905  13.332
45970W        W15785  21.073   6.367   2.237
45971W        W15786  11.774  37.347   4.309
45972W        W15787  12.804   8.393  13.825
45973W        W15788   2.858  11.277  10.412
45974W        W15789   8.879  14.126   1.893
45975W        W15790   7.238  22.011   1.732
45976W        W15791  34.389  24.505  11.947
45977W        W15792  15.214  15.816   5.215
45978W        W15793  43.274   4.701   2.795
45979W        W15794  28.617  38.887  11.037
45980W        W15795  41.991  36.474  10.552
45981W        W15796  36.423  23.635   4.701
45982W        W15797  17.119  43.277   3.871
45983W        W15798   1.420  37.368  13.408
45984W        W15799  10.205  21.754  11.101
45985W        W15800  40.946  44.325   2.830
45986W        W15801  20.269  26.632   4.657
45987W        W15802  13.172  30.468   0.286
45988W        W15803  20.143   5.301   1.255
45989W        W15804  14.203  20.696  13.840
45990W        W15805  27.460  44.478   4.627
45991W        W15806  36.005  31.483  11.534
45992W        W15807  29.427  35.578  11.420
45993W        W15808  23.593  37.358  10.634
45994W        W15809  28.059   6.428   3.349
45995W        W15810  21.214  43.290   3.668
45996W        W15811   1.296   8.291   0.452
45997W        W15812  12.152  32.887   0.948
45998W        W15813   9.263  44.968  14.761
45999W        W15814  12.331  29.571   3.794
46000W        W15815  15.329   6.288  13.412
46001W        W15816  24.670   8.335   2.275
46002W        W15817   9.334  17.654   2.701
46003W        W15818  31.116  24.657  12.443
46004W        W15819  20.095   6.419   0.763
46005W        W15820  14.766  27.500   0.965
46006W        W15821  15.121  36.397   1.409
46007W        W15822   3.405   1.732  13.972
46008W        W15823  44.273  37.525   4.280
46009W        W15824  24.555  37.571   1.430
46010W        W15825  15.707  15.614   4.757
46011W        W15826  31.901  41.891  14.310
46012W        W15827  25.078   7.752  12.472
46013W        W15828  31.996   0.816  13.913
46014W        W15829  18.639   5.920   3.866
46015W        W15830  34.921  13.314   5.133
46016W        W15831   0.983  38.430  14.847
46017W        W15832  12.247   2.251   1.362
46018W        W15833   1.434  33.108   2.191
46019W        W15834  39.032  30.972   0.394
46020W        W15835  24.038  28.434   3.729
46021W        W15836  28.546  17.281   1.898
46022W        W15837   9.835  27.067  10.989
46023W        W15838  10.287   3.453  13.048
46024W        W15839  31.094   7.210   3.365
46025W        W15840  42.406   5.419  12.893
46026W        W15841  31.516  23.133   1.321
46027W        W15842  16.159  11.146  13.824
46028W        W15843  28.135  31.094  12.925
46029W        W15844  38.942  27.686   5.156
46030W        W15845  15.118  41.435   3.672
46031W        W15846  16.256   1.370  14.379
46032W        W15847  14.319  31.504   2.817
46033W        W15848  37.501  14.293  10.904
46034W        W15849  13.174  30.030  10.601
46035W        W15850  22.104  44.362   2.398
46036W        W15851  24.620   8.666  13.984
46037W        W15852  41.473   0.800   4.342
46038W        W15853  25.994  24.084  12.346
46039W        W15854  27.147  19.083  13.479
46040W        W15855  35.425  13.154  13.391
46041W        W15856   8.881  39.463   3.161
46042W        W15857  24.659  30.652  13.451
46043W        W15858  29.028  22.213  14.004
46044W        W15859  10.212  16.214   2.198
46045W        W15860   2.277   4.275  12.041
46046W        W15861  15.299   7.701   3.779
46047W        W15862  40.477   2.428   3.357
46048W        W15863   2.922   0.821   4.665
46049W        W15864  13.272  31.503   4.320
46050W        W15865  42.478   9.396  12.521
46051W        W15866  29.441   1.459   0.280
46052W        W15867  32.598   2.867  11.966
46053W        W15868  38.843   8.656   2.179
46054W        W15869   5.769   7.368   4.641
46055W        W15870  13.700   6.421   3.251
46056W        W15871  31.080  35.561  13.885
46057W        W15872  41.378  44.964  13.370
46058W        W15873  40.410  41.532  11.538
46059W        W15874  39.466  21.692  12.365
46060W        W15875  23.559  28.681  13.003
46061W        W15876  27.074  40.404  10.592
46062W        W15877  14.319   5.293   2.894
46063W        W15878  13.315  31.436   0.894
46064W        W15879  28.116   5.305  13.837
46065W        W15880  24.049  44.912  14.946
46066W        W15881  39.518  34.404  14.898
46067W        W15882  24.492  10.839   3.653
46068W        W15883  41.857  41.974   2.272
46069W        W15884  34.925  26.542   1.862
46070W        W15885  27.128   9.217   3.809
46071W        W15886  12.355  22.166   4.768
46072W        W15887  40.334  38.030   3.870
46073W        W15888  29.063  15.820  10.935
46074W        W15889   4.819  34.020   2.848
46075W        W15890  32.467  13.622  14.337
46076W        W15891  27.573  22.155   2.341
46077W        W15892   7.688   9.816   0.455
46078W        W15893  37.560  12.121   2.419
46079W        W15894  33.993   4.266   4.232
46080W        W15895  40.977  21.591   3.743
46081W        W15896  28.536  13.344  14.908
46082W        W15897  19.771  22.565   4.737
46083W        W15898  13.811   4.391  14.370
46084W        W15899   1.446   9.667  14.890
46085W        W15900   7.359  15.745  10.517
46086W        W15901  26.101  20.199   1.396
46087W        W15902  26.188  25.505   4.310
46088W        W15903  28.586   2.238  11.478
46089W        W15904   9.800   4.938  11.917
46090W        W15905  33.501  18.590   3.246
46091W        W15906   1.947  12.738  10.890
46092W        W15907  25.022   4.740   1.728
46093W        W15908  16.072  21.145   2.205
46094W        W15909  15.718   2.899  13.434
46095W        W15910  38.980   3.394   3.291
46096W        W15911  39.018  31.611   0.832
46097W        W15912   4.257   4.276  13.923
46098W        W15913  17.790  43.784   1.724
46099W        W15914  41.871  33.543   3.743
46100W        W15915  40.500  12.706  12.570
46101W        W15916  21.225  36.970  12.398
46102W        W15917  23.183  38.882  11.034
46103W        W15918  32.572  12.119   2.373
46104W        W15919   1.795   9.766  10.636
46105W        W15920  43.491   7.779   1.717
46106W        W15921  39.543   2.962   2.317
46107W        W15922   8.778  11.293   0.431
46108W        W15923  18.699   7.383   4.698
46109W        W15924  41.384   3.710   2.745
46110W        W15925  30.648  42.448  12.480
46111W        W15926  30.102  40.483  13.500
46112W        W15927   1.753   0.415  10.624
46113W        W15928  17.107  21.696  11.011
46114W        W15929  30.579   5.787  12.033
46115W        W15930  43.367  20.646  11.979
46116W        W15931  40.820  30.089  14.484
46117W        W15932  25.499   2.296  13.546
46118W        W15933   4.207  17.579   2.714
46119W        W15934  33.935  41.502  11.598
46120W        W15935   2.401  13.208  12.887
46121W        W15936   7.683   1.905   4.125
46122W        W15937  34.960   7.882   0.901
46123W        W15938  30.063  25.967  10.966
46124W        W15939   2.956  26.494   2.202
46125W        W15940  40.366  25.475   4.700
46126W        W15941  26.606  15.255  13.061
46127W        W15942  27.940  16.143  10.895
46128W        W15943  28.166  40.307  10.941
46129W        W15944  11.286   2.466  14.865
46130W        W15945  39.333  25.637  12.495
46131W        W15946  44.919  10.314  12.016
46132W        W15947  41.510  15.322  11.985
46133W        W15948   4.232   0.888  13.881
46134W        W15949   0.436  31.434  11.002
46135W        W15950  42.889   5.814   1.721
46136W        W15951  34.057  29.079   2.194
46137W        W15952  24.219   8.292  14.919
46138W        W15953  32.136  18.108   0.474
46139W        W15954  17.572  26.018   2.734
46140W        W15955  41.799   6.353   1.320
46141W        W15956  24.711  20.157  13.826
46142W        W15957  41.881   4.209   1.442
46143W        W15958  22.653   2.387  11.970
46144W        W15959  39.517  40.399  12.360
46145W        W15960   1.468  25.506   2.178
46146W        W15961   0.935  15.193   0.354
46147W        W15962   7.260   0.435   0.837
46148W        W15963  16.569  37.024   3.862
46149W        W15964  30.575   9.689  12.844
46150W        W15965  42.493  28.625   1.894
46151W        W15966  15.813   4.790  13.888
46152W        W15967  31.148  41.887  12.050
46153W        W15968  39.333  24.050   2.895
46154W        W15969  40.052  19.083   2.747
46155W        W15970   4.274  39.063   2.252
46156W        W15971  21.097   2.422   3.834
46157W        W15972   4.259  36.858  14.486
46158W        W15973  24.479  33.116  13.949
46159W        W15974  13.350   6.844  11.935
46160W        W15975  15.249  34.039  12.456
46161W        W15976  44.944   9.705  12.940
46162W        W15977  22.537  43.300   4.754
46163W        W15978  16.284  22.029  11.594
46164W        W15979  24.653  11.747   3.647
46165W        W15980  37.572  21.183  14.315
46166W        W15981  37.524  19.171  13.329
46167W        W15982  35.482  10.830   1.229
46168W        W15983  41.350  19.756  13.860
46169W        W15984  31.132  17.770  12.923
46170W        W15985  28.466   9.243   2.296
46171W        W15986  29.464   3.396  10.577
46172W        W15987  40.907  21.747   0.774
46173W        W15988  33.402  44.816  13.984
46174W        W15989  25.065  20.200  13.512
46175W        W15990  27.645   8.251  10.597
46176W        W15991   6.405  38.408  14.343
46177W        W15992  30.133  22.521   0.769
46178W        W15993  28.185   9.333   4.321
46179W        W15994  27.191  43.950  10.458
46180W        W15995  19.268  26.566  10.977
46181W        W15996  42.400   5.389   1.856
46182W        W15997  44.946  42.436   3.188
46183W        W15998  42.929  38.850  12.018
46184W        W15999  28.600   1.282   1.884
46185W        W16000  18.147  42.812   1.880
46186W        W16001  17.760  39.921   2.849
46187W        W16002  33.456  27.101   2.695
46188W        W16003   6.285  40.005  12.378
46189W        W16004  37.841  27.543  11.512
46190W        W16005   5.330  44.476   0.449
46191W        W16006   5.358  14.143   0.316
46192W        W16007  34.904  41.790  10.957
46193W        W16008  35.940   6.866  11.490
46194W        W16009  32.019  42.443  11.870
46195W        W16010  25.208  23.685  14.893
46196W        W16011  35.066   2.724  14.458
46197W        W16012   2.948  36.049  13.063
46198W        W16013  37.488  10.837  10.498
46199W        W16014  13.151  41.358   3.747
46200W        W16015  28.665  33.907   3.256
46201W        W16016  34.002   9.278   3.855
46202W        W16017   4.771  26.461  11.986
46203W        W16018  30.551  13.235   1.399
46204W        W16019   9.387   9.233   2.356
46205W        W16020  14.712  24.002   0.455
46206W        W16021   5.704  35.534   3.216
46207W        W16022   6.355  25.061   2.407
46208W        W16023  43.281  13.239  14.779
46209W        W16024  15.193  22.208   3.282
46210W        W16025  39.352  17.591  14.969
46211W        W16026  40.545  23.614   1.441
46212W        W16027   3.845  25.142  13.926
46213W        W16028  14.802  41.860   1.317
46214W        W16029  39.492  16.637   0.838
46215W        W16030  13.762   1.812  13.432
46216W        W16031  15.638  38.505  11.502
46217W        W16032  15.766   1.973  11.538
46218W        W16033   6.890  35.560   1.413
46219W        W16034  31.636  28.059   0.767
46220W        W16035  22.576  26.994   3.373
46221W        W16036  40.398  36.414  10.911
46222W        W16037   9.866  42.504   3.298
46223W        W16038  34.049  28.472   0.367
46224W        W16039  36.052  13.170  14.351
46225W        W16040  32.417  32.077  12.554
46226W        W16041  43.307  12.316  14.792
46227W        W16042  29.010  13.795  12.434
46228W        W16043  43.440  36.487  10.492
46229W        W16044  37.446  40.884  13.914
46230W        W16045   4.409  11.282  11.876
46231W        W16046  33.021  30.568   3.173
46232W        W16047  31.901  33.113   2.855
46233W        W16048  35.940  17.061   1.314
46234W        W16049   0.331  41.915   2.267
46235W        W16050  26.167   5.876   2.293
46236W        W16051  12.677   4.809   5.142
46237W        W16052   3.794   2.774   2.778
46238W        W16053  38.967   3.833  14.380
46239W        W16054  21.674  38.904  11.120
46240W        W16055  11.828  17.557  11.119
46241W        W16056  40.521  38.515   1.267
46242W        W16057  34.971  40.885   0.939
46243W        W16058  12.336  28.996   1.861
46244W        W16059   6.193  12.681   3.760
46245W        W16060  15.584  35.592   3.196
46246W        W16061  22.251  24.056  12.489
46247W        W16062  13.147  11.866  14.943
46248W        W16063  31.627   0.789   2.234
46249W        W16064  23.146  15.777   1.262
46250W        W16065   0.296  12.214  11.923
46251W        W16066   7.189  30.592  14.459
46252W        W16067  42.468  42.818   3.803
46253W        W16068  21.176  14.159  12.953
46254W        W16069  12.654  20.201  10.922
46255W        W16070   9.343  12.126  11.915
46256W        W16071  38.525  22.131   0.426
46257W        W16072  26.481  37.870   4.144
46258W        W16073  30.483   6.409   0.470
46259W        W16074   7.205   0.859  12.987
46260W        W16075  42.358  37.055   1.817
46261W        W16076   3.951  41.363  11.421
46262W        W16077  17.578  19.605  11.903
46263W        W16078  11.800   4.242  10.504
46264W        W16079  14.278  30.468   1.741
46265W        W16080  24.710  25.020   0.895
46266W        W16081  28.011  24.552   1.838
46267W        W16082  43.861   4.885  11.114
46268W        W16083  42.965  17.749  12.890
46269W        W16084  36.091  40.467   4.313
46270W        W16085  43.297  26.643   0.254
46271W        W16086  29.607  22.036   3.188
46272W        W16087  41.911   5.235   2.205
46273W        W16088  30.931  20.053   1.888
46274W        W16089   1.244  33.585  11.095
46275W        W16090  16.121   2.959  12.572
46276W        W16091   6.760  43.343   1.214
46277W        W16092   8.254  42.503   4.758
46278W        W16093  28.505  32.514   1.216
46279W        W16094  44.420  32.622   2.860
46280W        W16095   3.881  44.324   2.319
46281W        W16096   8.194  39.365   4.269
46282W        W16097   7.749   1.894  13.343
46283W        W16098  31.504  10.306   2.374
46284W        W16099   2.472   1.805   0.857
46285W        W16100  22.669  19.154  14.345
46286W        W16101   3.760  12.765   2.665
46287W        W16102  17.293   8.190   0.867
46288W        W16103  34.058  35.454   4.773
46289W        W16104  42.831  16.179   2.898
46290W        W16105  36.518   2.731   1.759
46291W        W16106  31.133  37.948   1.832
46292W        W16107  42.960  39.468   3.330
46293W        W16108  23.687  35.020   3.771
46294W        W16109  23.502   3.872   0.379
46295W        W16110  18.652  18.096  14.898
46296W        W16111  16.306  44.293  10.453
46297W        W16112  34.037   4.234  10.938
46298W        W16113  10.370  15.170   1.859
46299W        W16114  18.714  44.765   1.420
46300W        W16115  35.480  22.629  13.342
46301W        W16116  23.500  17.305   2.312
46302W        W16117  34.382   9.735   3.654
46303W        W16118  16.789   3.924  11.459
46304W        W16119   0.959  21.671   1.323
46305W        W16120  34.973  36.875  11.559
46306W        W16121   5.434  34.002  13.371
46307W        W16122  24.118  35.925  12.021
46308W        W16123  36.468   5.904   0.394
46309W        W16124  37.489  40.855  12.497
46310W        W16125   2.284  19.200  12.016
46311W        W16126   1.806  24.604   1.879
46312W        W16127   9.673   8.766  14.294
46313W        W16128  22.588  19.695   9.923
46314W        W16129  31.052  38.029  13.476
46315W        W16130  22.126  20.050   0.415
46316W        W16131  27.191  38.984   0.269
46317W        W16132   9.651   1.939  11.582
46318W        W16133   4.913  11.661  10.414
46319W        W16134   8.718  39.817  12.925
46320W        W16135   7.294   8.176   3.800
46321W        W16136  36.036  29.558  10.468
46322W        W16137  28.160  25.596  12.856
46323W        W16138  30.003  44.910   4.732
46324W        W16139  35.045  17.645   2.720
46325W        W16140  11.162   4.878   1.379
46326W        W16141  35.456  12.349   3.314
46327W        W16142  21.094  19.626  12.517
46328W        W16143  18.051  13.682  12.042
46329W        W16144  20.224  37.356   4.346
46330W        W16145   1.462   7.331  12.943
46331W        W16146  26.129   1.398  13.972
46332W        W16147  30.509  37.927   1.247
46333W        W16148  36.535  23.123  14.854
46334W        W16149  25.685   1.943  12.377
46335W        W16150  25.176   0.743   2.389
46336W        W16151  26.558  38.057   1.402
46337W        W16152  41.335   8.778   3.155
46338W        W16153  32.963  36.011  14.396
46339W        W16154  26.979   2.226  10.420
46340W        W16155  39.324  43.772  13.410
46341W        W16156  36.524   3.259  11.455
46342W        W16157  28.987   5.928   0.328
46343W        W16158  16.647  27.478   2.855
46344W        W16159   7.713  32.447  13.436
46345W        W16160  25.486  20.673  14.801
46346W        W16161   9.711  34.087  11.002
46347W        W16162   2.800  20.168  10.983
46348W        W16163  17.673   3.890  13.922
46349W        W16164  23.698  27.580   4.140
46350W        W16165   1.352   4.901  11.951
46351W        W16166  41.376   1.343   2.696
46352W        W16167  13.794  44.928   1.785
46353W        W16168  24.691  37.855   0.320
46354W        W16169   2.232   3.317   1.731
46355W        W16170  10.155   2.760   1.408
46356W        W16171   8.217  13.280   3.740
46357W        W16172   6.767  39.971  12.022
46358W        W16173  42.841  22.158  10.055
46359W        W16174  36.445  25.096   1.386
46360W        W16175   7.676  27.001  13.983
46361W        W16176  36.995   1.957  14.954
46362W        W16177  23.048  42.312  14.833
46363W        W16178  15.261  15.695   1.810
46364W        W16179  24.118  17.160  12.440
46365W        W16180  40.898  39.441  13.314
46366W        W16181  33.987  21.704  10.424
46367W        W16182  39.994  22.208   3.656
46368W        W16183  19.717   2.300  13.375
46369W        W16184  24.175   1.793  10.000
46370W        W16185  24.698  33.108   1.864
46371W        W16186  17.086  10.848  13.370
46372W        W16187  25.599  30.931  11.023
46373W        W16188  10.162  19.633   2.400
46374W        W16189  44.797  38.411   4.648
46375W        W16190  43.480  33.617   1.378
46376W        W16191   0.332  25.516  12.862
46377W        W16192  37.032   8.708  10.962
46378W        W16193  27.058   3.221   3.352
46379W        W16194   6.887  31.963  10.059
46380W        W16195  13.778   7.374   4.626
46381W        W16196  42.446  17.781   2.691
46382W        W16197   5.738  30.095  14.312
46383W        W16198  39.831   1.971   4.728
46384W        W16199  36.980  10.243  13.426
46385W        W16200  20.136   6.790  12.577
46386W        W16201  23.693  17.067  13.384
46387W        W16202   2.865   1.256   4.175
46388W        W16203   3.289   0.340  13.448
46389W        W16204  29.493  34.997  14.815
46390W        W16205   7.876  25.085   0.904
46391W        W16206  28.968  42.979   2.726
46392W        W16207  38.337  42.338   3.763
46393W        W16208  23.998   7.820   3.289
46394W        W16209  21.667  42.010   0.329
46395W        W16210  13.653   8.366  12.866
46396W        W16211  21.672  24.024   0.312
46397W        W16212   9.730  37.344  13.352
46398W        W16213  24.024  14.714   1.354
46399W        W16214  17.275  42.352   4.645
46400W        W16215  34.961  18.117  10.635
46401W        W16216  16.132   0.470  11.050
46402W        W16217  30.081  37.358   0.367
46403W        W16218   1.866  13.226  10.469
46404W        W16219  21.223  12.189  14.509
46405W        W16220  31.514  16.263   0.355
46406W        W16221   4.213  32.474  14.956
46407W        W16222  16.136   0.930  11.882
46408W        W16223  37.007  29.487   0.312
46409W        W16224   0.282  42.348   2.265
46410W        W16225   2.752  19.265  11.062
46411W        W16226  30.628  29.981   2.318
46412W        W16227  18.648  22.251   0.846
46413W        W16228  28.662   8.710  14.838
46414W        W16229  23.098  38.518   3.638
46415W        W16230   2.932   6.292   4.210
46416W        W16231   5.417  23.237   1.319
46417W        W16232  12.697  38.444  14.281
46418W        W16233  30.110  36.367  12.383
46419W        W16234  32.590  28.593  14.907
46420W        W16235  18.712  11.210   2.706
46421W        W16236   2.295  43.988   0.443
46422W        W16237  42.933  44.980  13.856
46423W        W16238   4.387  37.487   1.865
46424W        W16239  36.956   5.790  13.997
46425W        W16240  28.637  19.674   3.688
46426W        W16241   0.253   2.427  14.865
46427W        W16242  14.126  12.247   1.388
46428W        W16243   3.435  27.047   0.843
46429W        W16244  38.485   7.297  13.018
46430W        W16245  27.191  39.335  13.366
46431W        W16246  26.486  33.457   2.866
46432W        W16247  25.983  11.624  12.012
46433W        W16248  31.570  13.836   2.749
46434W        W16249  31.035  21.109  11.994
46435W        W16250   8.768  27.502  14.441
46436W        W16251  31.527  37.053  14.789
46437W        W16252  10.138   8.882   4.715
46438W        W16253   9.700   2.327  13.801
46439W        W16254  39.890  14.724   2.315
46440W        W16255  36.094  28.043  13.408
46441W        W16256  28.975  13.264  11.606
46442W        W16257   3.742  26.532  11.515
46443W        W16258  34.553  37.339   5.098
46444W        W16259  26.597  37.841  14.479
46445W        W16260  17.170   3.341  14.799
46446W        W16261  43.272  37.448  11.099
46447W        W16262   2.918   0.940  13.358
46448W        W16263   3.265  10.285  10.917
46449W        W16264  42.501   9.368   0.912
46450W        W16265  22.544  35.963  14.459
46451W        W16266  33.443  32.071   4.606
46452W        W16267  22.659   4.430  11.866
46453W        W16268  39.868  29.591  10.956
46454W        W16269   4.942  11.811  14.863
46455W        W16270  32.605  32.417   1.263
46456W        W16271  20.552  36.957  12.917
46457W        W16272  33.883  18.178   2.750
46458W        W16273  22.621  25.699  10.983
46459W        W16274  32.983  42.485  12.886
46460W        W16275  18.559  29.547  11.913
46461W        W16276   4.252  15.682  14.384
46462W        W16277  40.466  26.531  10.152
46463W        W16278  28.456  13.346   3.685
46464W        W16279   9.772  13.660  11.941
46465W        W16280  34.596   3.947  11.055
46466W        W16281   6.743  30.105  11.595
46467W        W16282  32.094   1.259   0.378
46468W        W16283  13.747  33.537   1.917
46469W        W16284   0.289  43.429  13.885
46470W        W16285  22.109  15.097  12.551
46471W        W16286  26.974   4.782  11.558
46472W        W16287   1.351   7.731   2.278
46473W        W16288  24.493  16.249   1.255
46474W        W16289   6.421   0.345   1.412
46475W        W16290  12.674  21.560  12.570
46476W        W16291  37.510  16.096   1.871
46477W        W16292   7.231  21.180  10.144
46478W        W16293   3.268  44.450  11.413
46479W        W16294  39.523   7.205   4.716
46480W        W16295  34.577  40.920  13.961
46481W        W16296  26.960  10.224  12.864
46482W        W16297  31.004  39.459  10.969
46483W        W16298  35.065  25.708   2.864
46484W        W16299  31.147  25.629   4.820
46485W        W16300   2.911  30.124  13.924
46486W        W16301  35.066  27.021  11.405
46487W        W16302  25.507  17.215   2.886
46488W        W16303  12.636  43.842   1.908
46489W        W16304   0.824   6.205   4.179
46490W        W16305  32.069  42.495  10.927
46491W        W16306  37.995  20.114  11.881
46492W        W16307   1.839  15.126  10.588
46493W        W16308  33.468  12.664  10.430
46494W        W16309  36.037  31.569  12.011
46495W        W16310   0.448   1.850   1.788
46496W        W16311  44.860  21.691   1.797
46497W        W16312  29.925   7.696  11.872
46498W        W16313   3.711  33.897  10.985
46499W        W16314   7.400   1.324  11.032
46500W        W16315  15.753  32.038  10.916
46501W        W16316  10.243   1.825  11.417
46502W        W16317   7.881  19.737   3.717
46503W        W16318  25.147  32.533  13.356
46504W        W16319  23.552  20.128   0.770
46505W        W16320  25.015  31.936  10.625
46506W        W16321  42.435   8.208   2.373
46507W        W16322   3.337  42.840  10.440
46508W        W16323  23.608  10.335   0.379
46509W        W16324  44.259  36.026   4.266
46510W        W16325  15.311   3.900  10.598
46511W        W16326  41.388  27.010   3.775
46512W        W16327  21.067  20.686  13.983
46513W        W16328  24.706   0.790   3.264
46514W        W16329  17.245   6.755  12.373
46515W        W16330   7.184  27.021   2.387
46516W        W16331  31.916  13.327   0.746
46517W        W16332   4.812  12.194   3.780
46518W        W16333  30.654  23.103   3.864
46519W        W16334  23.592  37.545  11.429
46520W        W16335  30.506   7.797  11.971
46521W        W16336  21.562  38.443   4.643
46522W        W16337  32.437   0.419   4.123
46523W        W16338   9.312  15.207   2.296
46524W        W16339  19.674  34.964   2.365
46525W        W16340  15.110   6.906   3.650
46526W        W16341  20.063  34.917   3.808
46527W        W16342   8.753  30.560   0.928
46528W        W16343  18.220  33.956  14.017
46529W        W16344   9.717  16.641  13.927
46530W        W16345  28.559  44.472  14.938
46531W        W16346   1.477  17.757  11.408
46532W        W16347   9.341  44.394   1.312
46533W        W16348  19.573  44.814  11.546
46534W        W16349   3.338  42.997   2.845
46535W        W16350   8.367  28.443   2.844
46536W        W16351  22.690   7.295  10.628
46537W        W16352  31.451  10.368  12.561
46538W        W16353   8.229   6.764   4.639
46539W        W16354  10.305  36.857   1.917
46540W        W16355  15.762  29.424  13.846
46541W        W16356  44.324  18.136  10.933
46542W        W16357  36.413  24.661  14.914
46543W        W16358  15.660  12.146  11.855
46544W        W16359  43.847  42.352   3.197
46545W        W16360  42.906  22.709   2.859
46546W        W16361   3.224  16.610  11.893
46547W        W16362  41.362  28.664  11.056
46548W        W16363  11.283  39.474  13.545
46549W        W16364   3.892  41.843   2.686
46550W        W16365  31.567  44.930   3.673
46551W        W16366  14.651   0.975   1.933
46552W        W16367  25.024   5.864  12.405
46553W        W16368  12.327  42.827  13.850
46554W        W16369  20.243  36.940  14.376
46555W        W16370  25.610  18.759  11.889
46556W        W16371  11.299   8.711  11.447
46557W        W16372  11.637  44.266   0.850
46558W        W16373  14.630   6.886  14.811
46559W        W16374   1.359   4.276   4.291
46560W        W16375   6.307  16.645   0.762
46561W        W16376  15.720  29.977   2.689
46562W        W16377  10.147  38.991  14.943
46563W        W16378  24.648  34.055   3.816
46564W        W16379  18.137  43.488  10.509
46565W        W16380  29.558  13.612  12.019
46566W        W16381  43.786  42.485   4.219
46567W        W16382  27.556  41.879   1.863
46568W        W16383  11.174  38.935   1.896
46569W        W16384   1.775  15.219   0.736
46570W        W16385  16.789  13.644  13.462
46571W        W16386  26.512  23.148  12.892
46572W        W16387  35.383  35.018  14.343
46573W        W16388  21.552  16.195   4.604
46574W        W16389  21.121  39.917  13.047
46575W        W16390   6.397  15.217  14.478
46576W        W16391  10.664   9.713   0.785
46577W        W16392  42.964  35.009  11.060
46578W        W16393  11.294   3.246   4.718
46579W        W16394  25.549  44.262   2.253
46580W        W16395  14.339  35.596   2.283
46581W        W16396  23.131   0.942  14.863
46582W        W16397  17.779  30.998   2.840
46583W        W16398  19.139  19.114  10.473
46584W        W16399  19.056   7.909  12.904
46585W        W16400   4.723   3.248  10.048
46586W        W16401  22.671  26.582  11.013
46587W        W16402  35.594  16.080  11.448
46588W        W16403  13.840  28.529  14.955
46589W        W16404  25.016  13.186   0.798
46590W        W16405  12.190  31.037   3.825
46591W        W16406  34.913   4.817  10.905
46592W        W16407  12.207  42.482   4.280
46593W        W16408   1.964  36.476   3.302
46594W        W16409  31.133  27.476  11.549
46595W        W16410  39.045  18.264   4.764
46596W        W16411  27.958   0.864  12.576
46597W        W16412  36.567  42.972   1.399
46598W        W16413  31.149  17.710  14.366
46599W        W16414  10.838  13.335  13.815
46600W        W16415  21.662  15.823   9.988
46601W        W16416  27.190   5.211  11.579
46602W        W16417  40.409   3.457  11.441
46603W        W16418   2.953  21.740  10.972
46604W        W16419  12.189  23.511  12.869
46605W        W16420  36.920  22.143  14.390
46606W        W16421   2.421  15.225  11.937
46607W        W16422  35.001  36.432   3.722
46608W        W16423  20.549   8.785   0.265
46609W        W16424  35.397  13.304  10.513
46610W        W16425  24.722  39.872   5.097
46611W        W16426  18.721  44.319   2.382
46612W        W16427   0.302  37.083   4.740
46613W        W16428  13.121  26.459  12.571
46614W        W16429  42.003  11.847  14.918
46615W        W16430  32.018  28.002  12.945
46616W        W16431  34.582  36.954  14.283
46617W        W16432  42.282   5.813  10.454
46618W        W16433  34.389  32.977   5.677
46619W        W16434  32.489  22.687   2.688
46620W        W16435   5.389  43.306  11.887
46621W        W16436  37.355  17.072  12.401
46622W        W16437  16.656  40.900  13.809
46623W        W16438  13.289  29.637   1.375
46624W        W16439  21.065  26.641   4.768
46625W        W16440  34.581  26.061  12.572
46626W        W16441  41.922  31.478   3.713
46627W        W16442  11.314  34.563  11.922
46628W        W16443  44.942  15.298  12.548
46629W        W16444  22.080  22.224   3.227
46630W        W16445  10.148   4.360   0.902
46631W        W16446  15.711  29.564  11.558
46632W        W16447   2.306  31.586  12.827
46633W        W16448  34.424  15.226  14.025
46634W        W16449  28.025  34.412   1.303
46635W        W16450  16.166   6.391   0.821
46636W        W16451   0.260  15.661   2.664
46637W        W16452  10.710  30.587  13.484
46638W        W16453  17.574  22.067   4.161
46639W        W16454  44.304   5.695   2.419
46640W        W16455   0.266   3.225  11.384
46641W        W16456   8.800  34.594   2.677
46642W        W16457  11.743  37.463  11.957
46643W        W16458  17.645  43.949   2.245
46644W        W16459  22.688  42.377   3.231
46645W        W16460  26.155  32.569   1.258
46646W        W16461  25.218  30.124   2.373
46647W        W16462  26.154  41.536   2.374
46648W        W16463   0.410  16.605   0.874
46649W        W16464  29.438  18.732   2.386
46650W        W16465   9.875  44.972  10.552
46651W        W16466   8.889   7.291  14.972
46652W        W16467  19.767  40.950  13.324
46653W        W16468  36.952  37.940   1.920
46654W        W16469  24.677  40.906  12.453
46655W        W16470  14.121  24.224  11.976
46656W        W16471  17.138  29.167   0.735
46657W        W16472  31.124   5.816  13.525
46658W        W16473  37.078   0.271  10.470
46659W        W16474  11.659  39.048   9.948
46660W        W16475   8.246   6.357   0.949
46661W        W16476  29.615  39.393  11.405
46662W        W16477  44.490  13.846   2.679
46663W        W16478  23.601  24.668  12.458
46664W        W16479  24.014  27.451  12.419
46665W        W16480  34.086   6.762   1.394
46666W        W16481  17.160  40.507  13.517
46667W        W16482  27.162   9.308   2.878
46668W        W16483  33.997  19.656  11.382
46669W        W16484  15.764  30.498  14.934
46670W        W16485  12.704   0.831   2.875
46671W        W16486  23.098  14.819   2.259
46672W        W16487   9.836  25.697   2.712
46673W        W16488  25.470  16.766   3.275
46674W        W16489  11.732  10.749  12.401
46675W        W16490  39.824   3.284  12.048
46676W        W16491  15.225  42.032  13.421
46677W        W16492  40.336  27.596  10.406
46678W        W16493   3.861  22.079   3.631
46679W        W16494  36.095  43.317   4.118
46680W        W16495  13.217  36.975   3.718
46681W        W16496  24.673  10.671   2.321
46682W        W16497  34.560  28.526  10.992
46683W        W16498  10.769  21.150   1.236
46684W        W16499   9.879  15.738   1.234
46685W        W16500   6.219  10.346  10.434
46686W        W16501   2.390   8.279  14.479
46687W        W16502  19.195  33.451   1.429
46688W        W16503   2.325  33.937   4.325
46689W        W16504  19.650  17.568   0.933
46690W        W16505  16.722  41.501  10.504
46691W        W16506  44.953  39.516   2.324
46692W        W16507   2.237  30.526   2.361
46693W        W16508  22.172  18.727   5.107
46694W        W16509  43.835  28.520  10.939
46695W        W16510  32.078  21.555   4.125
46696W        W16511  26.024  40.807   3.744
46697W        W16512  44.363  11.796  14.829
46698W        W16513   5.357  30.576   2.370
46699W        W16514  32.947  22.033   4.183
46700W        W16515  23.589  13.351   4.278
46701W        W16516   5.928  17.130   0.830
46702W        W16517  19.220  24.610  14.314
46703W        W16518  34.456  11.250  12.521
46704W        W16519  32.942  18.787   4.135
46705W        W16520  34.957  15.663   0.954
46706W        W16521  14.764  22.079   4.128
46707W        W16522  13.599   3.421   0.939
46708W        W16523   8.656  18.546   1.319
46709W        W16524  27.625  13.243  13.902
46710W        W16525  30.518  40.889   4.597
46711W        W16526   9.190  41.321  12.449
46712W        W16527  27.067  22.222   4.303
46713W        W16528  32.142  11.131  14.863
46714W        W16529   3.395  23.587   3.183
46715W        W16530  38.387  43.767  11.009
46716W        W16531  16.654  22.055  10.548
46717W        W16532   8.309   7.684  14.505
46718W        W16533  42.355  23.655   4.684
46719W        W16534  37.902  15.111  11.543
46720W        W16535  34.590  35.874  14.337
46721W        W16536   3.273   1.339   4.324
46722W        W16537  17.096  44.793   1.420
46723W        W16538  40.402  16.591  10.479
46724W        W16539  39.396  23.059   3.771
46725W        W16540  13.114   0.307   4.262
46726W        W16541  26.204  16.286  11.580
46727W        W16542  38.940  11.283  14.771
46728W        W16543  26.501  23.188  11.029
46729W        W16544  23.222  32.904  11.592
46730W        W16545  38.070  29.551   4.762
46731W        W16546  27.638  28.515  13.513
46732W        W16547  42.526  13.123  13.468
46733W        W16548  10.211  27.961  13.523
46734W        W16549  24.655  43.817  11.066
46735W        W16550  21.054  33.563   2.692
46736W        W16551  21.017  30.501   4.752
46737W        W16552  42.412  35.917   0.460
46738W        W16553  30.157   1.425  14.002
46739W        W16554   2.411  30.497  10.009
46740W        W16555  18.191  10.676   1.297
46741W        W16556  35.900  12.823  13.358
46742W        W16557  33.033  14.220   4.637
46743W        W16558  35.604  29.141  13.513
46744W        W16559  15.251   7.290  11.024
46745W        W16560  16.574  41.919  10.612
46746W        W16561  18.696   6.775   3.355
46747W        W16562   3.243   9.795  12.448
46748W        W16563  28.120  40.546  10.420
46749W        W16564  34.979  11.144   4.719
46750W        W16565  14.114  35.025  11.463
46751W        W16566   7.286  16.112  11.451
46752W        W16567  41.996  20.540   3.334
46753W        W16568  41.389  37.576  11.123
46754W        W16569  26.161  28.600   2.767
46755W        W16570  24.218  39.917  11.508
46756W        W16571  21.674  22.577  13.945
46757W        W16572  28.618  23.079  12.557
46758W        W16573  14.658   3.833  12.072
46759W        W16574  41.515   7.333  12.349
46760W        W16575  27.536  35.416   4.835
46761W        W16576  32.468  42.307   1.862
46762W        W16577  21.182  20.761   1.369
46763W        W16578  36.969  28.060   4.821
46764W        W16579  32.585  22.602   0.321
46765W        W16580  17.719  15.278   4.767
46766W        W16581  27.979  28.116  12.576
46767W        W16582  22.610   9.164  14.330
46768W        W16583  36.593  20.162   1.852
46769W        W16584  32.068  28.037  14.957
46770W        W16585  17.097  21.248   0.914
46771W        W16586  17.626   2.404  11.607
46772W        W16587  34.040  39.040   4.305
46773W        W16588  36.086  15.144  13.011
46774W        W16589  39.940  44.444  11.869
46775W        W16590  38.505   7.849  11.559
46776W        W16591  44.952  36.015   2.404
46777W        W16592  29.649   1.899   4.698
46778W        W16593  34.019  26.597  13.048
46779W        W16594   7.321  37.991  10.488
46780W        W16595  17.605  33.070   0.362
46781W        W16596  43.500  20.526   1.779
46782W        W16597  25.184  42.384   3.849
46783W        W16598  32.062  14.327  10.147
46784W        W16599  29.005  16.616  14.473
46785W        W16600  32.137  29.614   4.629
46786W        W16601  44.876   9.681  10.440
46787W        W16602  36.019  21.122   2.794
46788W        W16603  25.002  12.355   4.830
46789W        W16604  37.414  24.074   1.351
46790W        W16605  35.990  21.222  13.519
46791W        W16606  24.495  32.553   0.911
46792W        W16607  13.181  30.589  12.497
46793W        W16608  27.093  38.461   1.321
46794W        W16609  13.139  36.098   2.735
46795W        W16610  34.490  10.801   0.764
46796W        W16611   7.823  26.960   0.466
46797W        W16612   3.357  31.464  12.079
46798W        W16613   4.338   3.859   1.424
46799W        W16614  22.175   6.291  11.894
46800W        W16615   1.954  24.479   3.675
46801W        W16616   1.801  10.197  10.893
46802W        W16617   6.869  33.624   2.253
46803W        W16618  24.637  30.549   2.414
46804W        W16619  31.457  21.665   2.738
46805W        W16620  36.394  40.855  13.318
46806W        W16621  39.001  27.471  12.491
46807W        W16622   2.765  30.960   2.368
46808W        W16623  31.599  23.095  11.466
46809W        W16624   2.236  30.156  13.904
46810W        W16625  43.421  24.181   3.726
46811W        W16626  14.224   8.395  13.912
46812W        W16627   3.415  28.941   4.161
46813W        W16628  39.005   0.973  13.378
46814W        W16629  28.472  38.356   3.164
46815W        W16630   3.371  35.953  14.453
46816W        W16631   9.226  41.981  13.873
46817W        W16632  30.069  21.674  12.571
46818W        W16633   8.781  35.883  10.545
46819W        W16634  31.556   9.771   3.801
46820W        W16635  21.058  15.716  14.903
46821W        W16636  32.064   4.279   1.780
46822W        W16637  18.222  26.009   3.677
46823W        W16638  41.920  22.716  11.089
46824W        W16639  33.594  15.217  12.941
46825W        W16640  38.516  34.941   1.433
46826W        W16641  26.610  16.653  11.908
46827W        W16642  30.452   2.392  11.412
46828W        W16643  37.513   6.863   4.271
46829W        W16644   7.818  31.046  13.464
46830W        W16645  36.352  14.807  10.422
46831W        W16646  39.821  24.096   4.288
46832W        W16647  17.208  21.567  11.886
46833W        W16648   0.858  43.889   3.672
46834W        W16649  33.059   6.351   0.899
46835W        W16650  41.951   9.755   3.669
46836W        W16651  33.496  31.109   4.350
46837W        W16652  38.549  24.563   2.235
46838W        W16653   5.759   9.328   1.744
46839W        W16654  20.548  26.630   4.325
46840W        W16655  42.996  15.218  14.464
46841W        W16656  15.603  35.388   1.241
46842W        W16657  20.200  32.029  11.552
46843W        W16658   9.359  14.770  11.076
46844W        W16659   2.872  15.777  14.948
46845W        W16660  11.727  30.109   1.826
46846W        W16661  33.446  27.613   3.339
46847W        W16662  38.358  42.348   2.680
46848W        W16663  24.152  35.571   2.296
46849W        W16664  14.672  18.206  14.360
46850W        W16665  37.485  36.433  12.945
46851W        W16666  24.630  27.527   4.643
46852W        W16667  34.032  31.030  13.526
46853W        W16668   4.361  31.133   0.475
46854W        W16669  32.053  16.601   1.922
46855W        W16670  39.908   9.198  13.355
46856W        W16671  27.485   2.932   2.784
46857W        W16672  38.893   7.398  13.474
46858W        W16673  42.433   2.780   1.767
46859W        W16674   9.811   2.230  14.336
46860W        W16675  42.961  19.621  10.434
46861W        W16676  40.956  25.194  12.573
46862W        W16677  21.614  40.824  12.844
46863W        W16678  39.966  41.450  14.306
46864W        W16679  40.988   8.710  11.953
46865W        W16680   6.758   9.706  12.537
46866W        W16681   1.476  12.660   4.751
46867W        W16682  13.608  39.317  10.587
46868W        W16683  35.888  27.596  11.440
46869W        W16684  41.956   5.380   4.302
46870W        W16685  23.230  24.228   4.336
46871W        W16686   1.849  10.195   2.676
46872W        W16687   8.178  15.582  10.989
46873W        W16688  38.505  38.861  14.773
46874W        W16689  17.677  10.655  10.529
46875W        W16690  38.988  17.263   1.241
46876W        W16691  14.657  35.537   2.195
46877W        W16692   4.902   5.778   2.678
46878W        W16693  29.017  40.928  12.986
46879W        W16694  12.847  28.155  12.369
46880W        W16695  15.812  21.026   1.328
46881W        W16696   1.766   9.228  10.427
46882W        W16697  18.285  39.939  14.966
46883W        W16698  43.815  37.870  10.563
46884W        W16699  22.514  19.550   3.221
46885W        W16700  27.039  10.753   3.695
46886W        W16701  29.064   0.399   0.448
46887W        W16702  41.027  27.492   4.610
46888W        W16703  33.479  38.851  12.418
46889W        W16704  29.659  33.977   3.662
46890W        W16705  41.424  16.646  13.974
46891W        W16706  41.873  38.037   1.411
46892W        W16707  16.591  39.542   1.437
46893W        W16708  20.648   8.163   2.200
46894W        W16709  28.602  26.687   0.445
46895W        W16710   9.393  15.785   0.399
46896W        W16711  22.019  28.593  12.535
46897W        W16712  11.640  35.571   3.631
46898W        W16713  38.565  26.066  12.575
46899W        W16714  11.326  40.549   3.676
46900W        W16715  12.287  44.464  11.128
46901W        W16716  12.665  13.239  13.981
46902W        W16717   6.818  25.969   3.171
46903W        W16718   6.308  23.659   2.311
46904W        W16719   2.385  15.790  12.055
46905W        W16720   9.270  39.360   9.468
46906W        W16721  24.673  13.651  11.455
46907W        W16722  22.251  30.017   3.316
46908W        W16723  28.026  33.427   4.144
46909W        W16724  38.035  11.216   0.860
46910W        W16725  27.957   1.758   2.891
46911W        W16726  19.555  20.698  14.822
46912W        W16727  11.700   5.861   3.297
46913W        W16728  44.801  32.054  12.027
46914W        W16729  41.502  44.378  11.994
46915W        W16730  35.004  33.983  14.886
46916W        W16731  19.619  40.004  12.928
46917W        W16732   1.398  36.426  12.020
46918W        W16733  24.089  42.971  13.811
46919W        W16734  26.074  42.888  12.942
46920W        W16735  30.550   3.450  12.520
46921W        W16736  18.234  23.029   0.778
46922W        W16737  21.167  40.488   0.416
46923W        W16738  24.498  42.363  13.439
46924W        W16739  33.486  10.210   3.822
46925W        W16740  16.626  16.785  14.966
46926W        W16741  35.549   9.650  11.987
46927W        W16742  17.788  22.629  12.022
46928W        W16743  16.670  22.073  10.929
46929W        W16744  30.444  11.743   3.665
46930W        W16745  32.058  35.098  14.466
46931W        W16746  29.581  28.986  11.021
46932W        W16747  36.423  37.492   2.747
46933W        W16748  35.377   5.793  10.928
46934W        W16749  40.833  26.068  11.880
46935W        W16750  12.655  18.589   5.295
46936W        W16751  23.038  21.221   4.266
46937W        W16752   3.743  30.980   2.188
46938W        W16753  15.087  26.518   2.204
46939W        W16754  25.488  39.503  14.786
46940W        W16755  17.190  23.704   3.386
46941W        W16756   7.197   4.840   0.922
46942W        W16757  18.743  44.774  14.373
46943W        W16758   6.713  36.582   0.483
46944W        W16759   1.359  17.152  10.569
46945W        W16760  11.325  19.139   0.438
46946W        W16761  22.076  24.508   2.814
46947W        W16762  32.090  33.453   1.798
46948W        W16763  21.152  16.756  10.954
46949W        W16764  22.730  27.158  11.488
46950W        W16765  39.877  25.513   1.771
46951W        W16766   2.886  44.445   2.267
46952W        W16767  16.725  44.410   2.335
46953W        W16768  38.569   1.829   2.680
46954W        W16769  33.917  32.914  14.759
46955W        W16770  15.719  37.000   3.273
46956W        W16771   8.334  30.617   1.317
46957W        W16772  31.986  34.508   9.999
46958W        W16773  10.248   6.309  11.609
46959W        W16774  37.372  14.688   1.396
46960W        W16775  29.051  15.765   0.819
46961W        W16776  23.692  37.074  11.858
46962W        W16777  24.550  17.598   0.461
46963W        W16778   0.258   1.356  12.907
46964W        W16779  18.723  36.531   3.806
46965W        W16780  18.278   4.896  14.397
46966W        W16781   6.327  10.844  11.598
46967W        W16782  33.928  10.784  12.978
46968W        W16783  24.534   3.871  11.600
46969W        W16784   4.403  38.395  13.307
46970W        W16785  23.114  41.500  13.963
46971W        W16786  34.884  23.100  12.010
46972W        W16787  35.100  32.905  14.443
46973W        W16788  34.567  15.236  12.538
46974W        W16789  40.929   8.891   1.402
46975W        W16790  36.002   5.274   0.946
46976W        W16791  23.608  20.729   0.839
46977W        W16792  35.547   7.730  13.829
46978W        W16793  33.537  23.534   4.610
46979W        W16794   2.261   2.288  10.421
46980W        W16795  14.323   1.749   3.773
46981W        W16796   8.251  39.953   4.179
46982W        W16797  24.122  36.454   1.339
46983W        W16798  10.215  38.926   3.679
46984W        W16799  25.644  19.658   3.819
46985W        W16800  15.221   7.788   0.766
46986W        W16801  31.589  21.089   2.197
46987W        W16802  35.946  29.077  13.047
46988W        W16803  35.001  10.695   1.728
46989W        W16804  41.323  42.813  13.045
46990W        W16805   0.455   4.793   2.753
46991W        W16806  37.502  36.497   0.253
46992W        W16807  26.128  41.925  12.085
46993W        W16808   3.228  41.037  13.515
46994W        W16809  31.600  11.257   3.790
46995W        W16810  25.005   1.384   1.330
46996W        W16811  31.606  14.329  11.426
46997W        W16812  14.615  29.500   9.923
46998W        W16813  17.560  25.540   2.707
46999W        W16814  35.973   1.378  11.927
47000W        W16815  11.193   2.887   2.699
47001W        W16816  22.198  21.111  11.534
47002W        W16817   1.337  26.581  13.953
47003W        W16818  17.649  15.670   3.768
47004W        W16819  14.762  20.744  12.855
47005W        W16820   4.864  39.986  10.588
47006W        W16821  32.524  35.042  13.864
47007W        W16822  27.168  42.391  14.307
47008W        W16823  31.418   0.953  11.484
47009W        W16824  26.688   6.867  11.014
47010W        W16825  37.560  14.656  13.840
47011W        W16826  22.096  29.922  11.919
47012W        W16827  31.440  21.585   0.897
47013W        W16828  14.746   9.371  13.848
47014W        W16829  28.143  10.864   1.394
47015W        W16830  38.041  39.414   4.300
47016W        W16831  24.978  26.075   4.750
47017W        W16832  22.638  36.030   3.862
47018W        W16833  16.702  34.883  10.450
47019W        W16834  18.071   9.821   1.280
47020W        W16835  42.395  28.621  13.472
47021W        W16836  30.922  17.082   2.722
47022W        W16837  29.482  38.498  10.612
47023W        W16838   4.793  37.495   0.429
47024W        W16839   2.838  40.470  11.931
47025W        W16840  42.778  41.823  14.391
47026W        W16841  29.944  15.712  14.312
47027W        W16842  30.107   3.443  11.970
47028W        W16843   6.762  43.405  13.981
47029W        W16844  27.120  34.927  11.402
47030W        W16845  23.116   7.286   4.602
47031W        W16846  35.941  11.635  12.446
47032W        W16847  29.017  30.035   2.734
47033W        W16848  14.223   9.786  13.334
47034W        W16849  40.362  17.778   0.293
47035W        W16850   6.192  37.853   3.197
47036W        W16851  41.420  40.365   4.188
47037W        W16852  11.626  31.482   3.272
47038W        W16853  14.777  19.716   0.452
47039W        W16854   4.805  16.260  10.629
47040W        W16855  17.227  24.221  11.112
47041W        W16856  37.943  15.295  12.427
47042W        W16857   3.342   8.855  12.881
47043W        W16858  17.663  11.310  13.377
47044W        W16859  41.801   4.783  14.300
47045W        W16860  16.622  22.093  12.483
47046W        W16861  33.597  28.527  10.538
47047W        W16862  35.421  14.098   2.898
47048W        W16863  22.040   7.337   3.673
47049W        W16864  39.013  19.745  14.024
47050W        W16865  32.893   4.703  13.320
47051W        W16866  15.244  27.086  13.455
47052W        W16867  15.600  12.750  11.005
47053W        W16868  25.710   8.867   3.676
47054W        W16869  35.374  34.030  14.026
47055W        W16870  27.487   8.350  13.474
47056W        W16871  13.299  21.715  10.616
47057W        W16872  17.230  21.072  10.410
47058W        W16873  26.966  20.246  10.539
47059W        W16874   2.326   8.673  13.352
47060W        W16875  25.575  13.317   3.721
47061W        W16876  22.074  44.862   0.454
47062W        W16877   8.218  12.181  14.326
47063W        W16878   0.924  33.519   1.812
47064W        W16879  29.086  37.365  13.478
47065W        W16880  15.683  28.029  12.969
47066W        W16881  22.583  15.670   1.433
47067W        W16882  21.614  41.535   1.920
47068W        W16883  15.148   6.355   4.206
47069W        W16884   3.912  33.492  13.000
47070W        W16885  37.363  38.052  14.328
47071W        W16886  19.761   0.789  14.858
47072W        W16887  13.687  32.961   2.775
47073W        W16888  31.038  10.228   4.737
47074W        W16889  28.139   5.859  11.577
47075W        W16890  38.556  36.349   1.262
47076W        W16891   6.281  15.622   3.671
47077W        W16892  16.644  22.141   1.848
47078W        W16893   9.652  37.353   2.212
47079W        W16894  32.402  25.043   0.366
47080W        W16895  39.888   9.652   4.303
47081W        W16896  36.005  41.349   1.862
47082W        W16897   7.326   4.720  14.974
47083W        W16898   4.787  42.411   2.885
47084W        W16899   1.905   4.841   2.243
47085W        W16900  13.136  28.115   3.706
47086W        W16901  11.732  40.959  12.884
47087W        W16902  44.421   4.306  13.331
47088W        W16903  15.163  29.162  11.112
47089W        W16904  13.745  23.141  11.496
47090W        W16905  44.861  42.509   1.385
47091W        W16906  37.895   6.725  12.380
47092W        W16907  38.403  28.010  11.125
47093W        W16908   8.836   3.319  12.375
47094W        W16909   6.183  11.174   0.393
47095W        W16910   0.784  13.248  11.092
47096W        W16911  25.562   7.373  13.470
47097W        W16912  25.126  22.066  10.907
47098W        W16913  42.801  23.551  10.430
47099W        W16914  13.143  30.558  13.906
47100W        W16915  18.564   4.267   2.323
47101W        W16916   5.350  19.105   2.680
47102W        W16917  34.482   7.399   2.208
47103W        W16918  32.511  32.463   4.118
47104W        W16919  21.129  43.791  11.406
47105W        W16920  13.149  14.159   1.752
47106W        W16921  22.743  11.677  14.822
47107W        W16922  30.573  15.673  14.374
47108W        W16923  15.793   1.779  12.572
47109W        W16924  27.037   4.310   1.911
47110W        W16925  42.506  28.029  13.889
47111W        W16926   6.266  19.764  11.450
47112W        W16927   7.273  29.492  13.043
47113W        W16928  19.050  12.849   2.304
47114W        W16929  35.464  34.451   1.736
47115W        W16930  28.528   3.415  10.982
47116W        W16931  22.569  28.032  14.889
47117W        W16932   4.266  39.988   0.784
47118W        W16933  21.629  17.245  12.382
47119W        W16934  16.237   7.741  10.459
47120W        W16935  35.049  41.866   1.781
47121W        W16936  16.588   8.858   3.194
47122W        W16937  23.054  27.013  12.463
47123W        W16938  44.778   0.774   0.901
47124W        W16939  21.572  23.221   4.198
47125W        W16940  28.986  25.620   1.261
47126W        W16941   7.690  18.662  11.519
47127W        W16942  16.148  16.801   2.696
47128W        W16943  11.301  33.536  13.405
47129W        W16944  22.172  38.848   2.749
47130W        W16945  29.976  18.064  11.605
47131W        W16946  13.655  20.192  12.014
47132W        W16947   3.888  43.939   4.629
47133W        W16948  14.803  16.213   0.243
47134W        W16949  40.419  10.839   4.683
47135W        W16950   9.816  17.207   3.780
47136W        W16951  17.589  16.652   2.412
47137W        W16952  23.124  24.529  13.358
47138W        W16953  23.628   0.365   4.677
47139W        W16954  32.131   9.308   0.898
47140W        W16955  31.026   0.873  14.403
47141W        W16956  23.691   4.395  10.590
47142W        W16957  11.372  26.176   0.875
47143W        W16958  34.416  17.269   3.345
47144W        W16959  28.644   9.772  12.876
47145W        W16960  26.597   2.769   4.743
47146W        W16961   8.317  27.134  11.894
47147W        W16962  33.002  17.244   0.266
47148W        W16963  36.900  38.838   4.184
47149W        W16964  22.724  11.854  11.970
47150W        W16965   2.449  34.582   3.632
47151W        W16966  34.400   2.333  13.020
47152W        W16967   8.163   0.948   2.178
47153W        W16968  24.192  10.277  11.936
47154W        W16969   9.687  42.931   2.285
47155W        W16970  17.714  23.054   4.119
47156W        W16971  28.466   2.807  14.942
47157W        W16972   4.252  14.598   4.343
47158W        W16973  44.294  33.099   1.378
47159W        W16974  11.219  21.630  13.318
47160W        W16975  27.658  18.550   4.651
47161W        W16976   7.749   8.201   1.406
47162W        W16977  22.207  40.856   4.204
47163W        W16978   7.861  28.472  11.054
47164W        W16979  41.351  24.033   3.310
47165W        W16980  34.045  35.377  14.819
47166W        W16981   0.896  35.039  10.428
47167W        W16982  29.940  33.431  14.760
47168W        W16983  11.823  12.266   2.359
47169W        W16984  34.960  17.203   0.264
47170W        W16985  35.091  14.266   5.139
47171W        W16986  43.914  37.065   2.224
47172W        W16987  36.384  32.626  11.415
47173W        W16988  41.407  44.898  11.384
47174W        W16989  33.049   5.386   4.317
47175W        W16990  28.482  41.500  14.942
47176W        W16991   0.364  33.426   3.847
47177W        W16992  19.650  43.783  14.392
47178W        W16993  35.071  21.111   0.833
47179W        W16994  19.598  39.888   3.776
47180W        W16995   3.325  27.459   2.888
47181W        W16996  22.026   5.290  11.926
47182W        W16997  22.142   1.452  13.400
47183W        W16998  35.968  26.462   3.751
47184W        W16999  11.734  35.029   1.781
47185W        W17000  27.991  24.526   2.280
47186W        W17001  35.479   1.881  14.419
47187W        W17002   0.445   7.313   2.304
47188W        W17003  24.484  30.534   0.833
47189W        W17004  37.426  43.903  10.056
47190W        W17005  33.399  29.586  12.054
47191W        W17006  25.531  25.661  10.546
47192W        W17007   7.259  25.046  10.444
47193W        W17008  22.562  29.648   4.233
47194W        W17009  18.716  41.922  12.830
47195W        W17010  11.720  11.629   2.875
47196W        W17011  44.356  27.481  10.023
47197W        W17012  16.127  38.359  11.408
47198W        W17013  30.500  38.451   2.834
47199W        W17014  15.276  35.377  11.568
47200W        W17015  10.711  43.299  11.415
47201W        W17016   3.857  19.190  11.951
47202W        W17017  14.806  29.665  13.020
47203W        W17018   0.328  29.585   3.708
47204W        W17019  16.738  33.529   0.740
47205W        W17020  15.099  12.821   2.245
47206W        W17021  41.986   2.848   4.151
47207W        W17022  21.582  31.034  11.411
47208W        W17023  15.611  34.479   0.868
47209W        W17024  32.607  25.071  12.867
47210W        W17025  25.648  30.592  10.925
47211W        W17026  43.859  33.949   3.665
47212W        W17027  41.990  37.528   1.850
47213W        W17028  19.581   5.906  13.812
47214W        W17029   9.885  35.887   1.356
47215W        W17030  31.499  37.932  11.442
47216W        W17031  16.595  12.362   3.823
47217W        W17032   1.891  24.534   1.230
47218W        W17033  23.674  16.131   2.895
47219W        W17034  16.709  16.571   3.760
47220W        W17035  36.387  23.685   1.807
47221W        W17036   9.690  40.517   2.849
47222W        W17037  44.856  16.784  13.319
47223W        W17038   9.673  38.025   1.839
47224W        W17039  32.902  31.605   1.759
47225W        W17040  35.061  40.931  12.393
47226W        W17041  13.621  25.214  11.124
47227W        W17042  28.172  17.127   0.317
47228W        W17043  37.072  31.068   0.829
47229W        W17044  16.618   4.820   3.653
47230W        W17045   4.353   3.404  11.910
47231W        W17046   8.841   9.762   3.722
47232W        W17047  28.929  34.452   0.861
47233W        W17048  38.053  20.037   0.750
47234W        W17049  10.673  25.068  13.810
47235W        W17050   1.829  37.901  10.458
47236W        W17051  31.631  20.748   3.380
47237W        W17052  11.261  32.439  13.529
47238W        W17053  40.998   7.721  11.602
47239W        W17054   9.367   3.294  12.362
47240W        W17055  25.053  30.472   1.716
47241W        W17056  20.269  22.643  11.506
47242W        W17057  22.095  37.473  12.552
47243W        W17058  35.061  43.827   0.839
47244W        W17059  34.891  35.058   5.309
47245W        W17060   1.288  23.225  14.892
47246W        W17061  35.429  12.762  14.779
47247W        W17062  42.308  30.924   1.796
47248W        W17063  15.176   4.715  10.419
47249W        W17064  12.206  20.715   3.148
47250W        W17065  30.923  18.097   0.819
47251W        W17066  44.392  34.523   1.310
47252W        W17067  27.006  29.146   1.818
47253W        W17068  37.854  37.414  14.846
47254W        W17069  34.594  41.031  14.853
47255W        W17070   3.736  42.373  12.992
47256W        W17071  15.084  39.977   0.466
47257W        W17072  24.105  36.889   0.435
47258W        W17073  44.286  43.942   4.185
47259W        W17074  18.215  22.163   2.242
47260W        W17075   3.426  30.029   3.857
47261W        W17076  31.001  21.244  14.397
47262W        W17077  27.553   2.893  13.982
47263W        W17078  29.010  34.434  14.281
47264W        W17079   8.669  30.079  14.810
47265W        W17080  42.476  29.982  13.472
47266W        W17081  28.643   3.746  11.439
47267W        W17082  17.061   3.404  11.004
47268W        W17083  29.520   0.400  10.923
47269W        W17084  24.720   8.201   1.874
47270W        W17085  42.984  17.773  13.844
47271W        W17086  27.493  40.039   0.803
47272W        W17087  10.159   6.825  12.980
47273W        W17088  17.796  40.847   1.435
47274W        W17089   4.376  26.160  13.362
47275W        W17090  25.072  30.494   4.323
47276W        W17091   3.855  17.651   1.346
47277W        W17092  18.270  36.058   2.236
47278W        W17093  42.837  34.485  13.308
47279W        W17094  12.211   0.290   4.311
47280W        W17095  35.953  33.379  14.890
47281W        W17096  26.040  18.106  14.294
47282W        W17097  30.568  10.665  11.507
47283W        W17098  31.979  30.622  14.826
47284W        W17099  15.767   6.373   3.862
47285W        W17100  13.315  33.446   0.907
47286W        W17101  23.545  25.483   2.364
47287W        W17102  30.612   8.900  11.529
47288W        W17103  17.579   1.297  11.584
47289W        W17104   9.285   3.917  13.471
47290W        W17105  28.967  36.551  13.395
47291W        W17106   2.801  23.665   1.413
47292W        W17107  41.386  38.895   0.852
47293W        W17108  11.715  36.951   3.695
47294W        W17109  27.029  16.786   1.737
47295W        W17110  29.498  38.508   2.757
47296W        W17111  17.288  37.053  10.571
47297W        W17112   2.389   2.790   2.292
47298W        W17113  41.909  34.561   2.779
47299W        W17114  15.634  37.413  14.333
47300W        W17115   7.758  24.023   0.458
47301W        W17116   3.799  14.306   3.217
47302W        W17117  26.700  16.276  11.472
47303W        W17118   8.169  25.138   4.786
47304W        W17119  13.149  13.269  13.834
47305W        W17120  20.096   7.763  13.311
47306W        W17121  42.913  21.246  11.483
47307W        W17122   5.924  36.542   0.730
47308W        W17123  22.569  25.564   3.226
47309W        W17124   0.399  44.872   4.817
47310W        W17125  39.377  23.690  11.058
47311W        W17126  28.949  35.395  10.486
47312W        W17127  22.046  23.512  14.365
47313W        W17128  44.259   6.301  14.274
47314W        W17129   6.684  42.385   4.691
47315W        W17130  31.465  36.058   0.446
47316W        W17131  14.168  32.059  14.852
47317W        W17132  18.125  44.774   3.177
47318W        W17133  24.109   8.699   4.770
47319W        W17134   6.863  31.452  10.929
47320W        W17135  35.548  22.126   3.686
47321W        W17136  40.835  31.141   1.857
47322W        W17137  23.497  41.446   1.219
47323W        W17138  28.679  23.180  14.465
47324W        W17139  43.847  33.602  14.857
47325W        W17140  15.218  12.263   2.413
47326W        W17141  42.945  22.166  12.871
47327W        W17142  30.924  34.487  13.505
47328W        W17143  16.595  37.053  11.894
47329W        W17144   3.835   5.376  12.870
47330W        W17145  19.250   7.172   3.206
47331W        W17146  44.808  29.663   1.826
47332W        W17147   3.900  35.921  11.408
47333W        W17148  17.160  43.446   3.179
47334W        W17149  17.798  43.004  11.962
47335W        W17150  29.001  18.233  13.923
47336W        W17151  30.502  32.098  13.391
47337W        W17152   7.690  40.006  12.067
47338W        W17153   2.876  15.298  12.557
47339W        W17154  22.658  17.233  14.875
47340W        W17155  24.668  12.671   1.425
47341W        W17156  21.038  16.311  12.965
47342W        W17157  20.211  10.333  14.443
47343W        W17158  33.945  28.047  13.326
47344W        W17159  11.274  41.806  11.106
47345W        W17160  44.990  43.423  12.035
47346W        W17161  12.683  41.999  11.399
47347W        W17162  33.936   1.972   3.257
47348W        W17163  31.630  42.338   1.787
47349W        W17164  31.935  39.857  12.503
47350W        W17165  38.941  42.989  14.431
47351W        W17166  30.144   9.779   0.434
47352W        W17167  34.394  35.562  12.999
47353W        W17168  17.698  29.498   3.228
47354W        W17169  43.885  15.614   4.188
47355W        W17170  32.106  33.612  11.475
47356W        W17171   0.465  38.006  11.564
47357W        W17172  17.569   0.396  14.807
47358W        W17173  30.614  10.219   4.624
47359W        W17174  16.758  32.949   3.202
47360W        W17175   6.322  21.192   5.230
47361W        W17176  33.875  44.793  13.365
47362W        W17177  37.519  33.598  12.452
47363W        W17178  18.249  32.609   3.854
47364W        W17179   5.752  24.005  13.888
47365W        W17180  17.765   8.305  10.986
47366W        W17181  25.656   6.419  11.502
47367W        W17182   5.283  16.168   2.769
47368W        W17183  44.848  27.983   3.346
47369W        W17184  11.130  11.792   2.337
47370W        W17185  24.513  39.322  14.353
47371W        W17186   0.823  16.091   1.447
47372W        W17187  17.778  14.591   1.399
47373W        W17188  23.497  20.222  13.994
47374W        W17189  36.590   3.936  10.528
47375W        W17190  26.501  27.469   1.404
47376W        W17191  40.916   0.454  11.057
47377W        W17192   0.885  24.006   4.212
47378W        W17193  32.924   5.358   0.898
47379W        W17194  14.765  43.898   3.308
47380W        W17195  13.643  28.542  13.018
47381W        W17196  32.129  10.805   4.772
47382W        W17197   8.352  40.892   2.384
47383W        W17198   5.789  39.535   4.348
47384W        W17199  14.672  33.527  11.877
47385W        W17200  13.145  20.190   2.871
47386W        W17201  31.000   7.411  10.530
47387W        W17202  11.701  38.352   0.896
47388W        W17203  25.117   0.978  14.348
47389W        W17204  15.318  31.967   3.165
47390W        W17205  36.495  29.615  12.007
47391W        W17206   9.787  17.708   0.364
47392W        W17207   5.704  12.841  12.343
47393W        W17208  15.127  14.604  10.919
47394W        W17209  14.102   4.754   4.727
47395W        W17210  27.447   0.293  14.975
47396W        W17211  39.005  29.993  11.906
47397W        W17212   2.296  23.235  13.373
47398W        W17213  21.685   8.876   4.153
47399W        W17214  13.147   5.431  10.604
47400W        W17215  25.555  15.776  10.607
47401W        W17216   6.904  40.396   0.390
47402W        W17217  23.707   1.857  10.519
47403W        W17218  43.290  39.026   2.844
47404W        W17219  24.164   5.430  10.421
47405W        W17220   2.297  13.197  13.310
47406W        W17221  11.302  26.136   1.405
47407W        W17222  28.972  29.474   2.703
47408W        W17223  37.933   4.237  13.539
47409W        W17224  37.543  21.230  13.808
47410W        W17225   5.271  42.832   2.217
47411W        W17226   5.239  25.552   4.235
47412W        W17227  10.750  16.771  14.320
47413W        W17228  19.228  33.384  10.530
47414W        W17229   3.924  44.341  12.346
47415W        W17230  18.563  11.809   4.675
47416W        W17231  40.323  33.435   1.364
47417W        W17232   0.836  39.523  13.308
47418W        W17233  16.294  25.507  14.335
47419W        W17234  37.376  21.662   0.833
47420W        W17235  13.132  30.049   3.679
47421W        W17236  42.994  24.169   1.931
47422W        W17237  42.378  23.148   0.463
47423W        W17238  44.820  41.821   3.293
47424W        W17239  23.042  29.139  14.900
47425W        W17240  44.817  40.996  13.890
47426W        W17241  37.981  30.588  10.027
47427W        W17242   1.944  12.274   3.861
47428W        W17243  12.211   1.350   0.357
47429W        W17244  36.361  14.124  14.430
47430W        W17245  16.130  29.123  12.033
47431W        W17246  10.754  33.599  11.860
47432W        W17247   5.799  12.268  14.896
47433W        W17248  29.103  22.059   3.706
47434W        W17249   8.328  43.506  10.962
47435W        W17250  16.286   9.782  14.875
47436W        W17251  32.629  22.677   0.768
47437W        W17252  10.814   3.399  14.984
47438W        W17253   4.889  43.864  11.062
47439W        W17254  38.397  10.270  14.795
47440W        W17255  31.003  25.038   2.329
47441W        W17256  23.626  11.333  12.503
47442W        W17257  17.251  27.031  10.562
47443W        W17258  19.117  36.409  14.892
47444W        W17259  32.004  40.997   4.640
47445W        W17260   8.350  43.501  12.894
47446W        W17261  28.437  29.124  12.383
47447W        W17262  25.515  16.144  13.818
47448W        W17263  32.608  15.185  14.868
47449W        W17264  43.022  33.447   0.801
47450W        W17265  23.593   1.416  14.831
47451W        W17266  19.072  43.958  10.459
47452W        W17267  10.864  36.858   3.295
47453W        W17268   1.240   3.740  14.887
47454W        W17269   4.891  40.403  11.899
47455W        W17270   0.901   5.216   0.887
47456W        W17271  17.720  36.548   2.207
47457W        W17272   9.227   3.235   1.869
47458W        W17273  22.228  16.731   1.929
47459W        W17274  14.270  34.473   3.634
47460W        W17275  17.299   0.757   2.240
47461W        W17276  10.269   2.383   3.193
47462W        W17277  30.984   9.787  10.448
47463W        W17278  37.959  30.946  13.045
47464W        W17279  13.819  25.023   1.418
47465W        W17280  37.547  37.873   0.295
47466W        W17281   3.246  32.023  10.531
47467W        W17282  10.858  35.468   2.804
47468W        W17283  41.846  17.244  14.865
47469W        W17284   5.772   7.179  13.446
47470W        W17285  10.661  14.123   0.871
47471W        W17286  25.625  10.343  12.830
47472W        W17287  10.354   5.880  13.533
47473W        W17288  24.661  26.146  14.412
47474W        W17289  33.033  26.208   3.249
47475W        W17290  20.087  14.259  13.464
47476W        W17291  30.140  30.994   2.818
47477W        W17292  36.501  13.720  13.378
47478W        W17293  14.824   3.277   4.352
47479W        W17294  10.663  44.484   4.739
47480W        W17295  43.831  26.582   3.732
47481W        W17296  39.880  26.005  12.535
47482W        W17297  18.745  32.055  10.549
47483W        W17298  13.173  43.859  12.903
47484W        W17299  43.801  32.113   0.742
47485W        W17300   1.360  22.689  13.055
47486W        W17301  42.423  25.088   2.244
47487W        W17302  34.517  39.916   4.167
47488W        W17303  18.061  41.001   0.284
47489W        W17304  44.968  35.998   4.189
47490W        W17305  37.943  35.420   3.253
47491W        W17306  11.862  15.802   3.387
47492W        W17307  11.250  29.539  11.440
47493W        W17308  29.167  25.554  12.547
47494W        W17309  34.407   3.913  13.997
47495W        W17310  31.145  32.967   2.409
47496W        W17311  30.580  40.928  10.956
47497W        W17312   5.907  11.149  11.925
47498W        W17313  27.598  23.141  13.876
47499W        W17314   3.809  18.656  14.406
47500W        W17315  25.587  15.271   0.266
47501W        W17316  26.619  17.285   4.771
47502W        W17317   7.897   0.452   0.791
47503W        W17318  12.315  31.434  12.564
47504W        W17319  21.612  18.623   2.192
47505W        W17320  24.515  34.876  13.530
47506W        W17321   3.855  17.800   2.223
47507W        W17322  31.499  35.885  10.634
47508W        W17323  42.520   2.852   4.202
47509W        W17324  29.657  43.331  13.049
47510W        W17325  30.505  35.026   2.226
47511W        W17326  26.196   0.370   1.779
47512W        W17327  38.470  14.821   1.224
47513W        W17328  42.465   1.888  14.997
47514W        W17329   9.880   6.742  12.850
47515W        W17330  33.609  18.698  10.983
47516W        W17331  26.155  34.047   4.812
47517W        W17332   7.377  22.649   0.262
47518W        W17333  43.805   7.900  14.032
47519W        W17334  29.041  27.024   4.714
47520W        W17335  44.313  42.305   1.217
47521W        W17336   6.346  34.499   3.206
47522W        W17337  37.567  32.558  12.966
47523W        W17338  38.054  24.127   3.301
47524W        W17339  39.029  14.259   3.359
47525W        W17340  22.646  31.061  11.945
47526W        W17341  17.140   7.207   4.702
47527W        W17342   0.840   3.259   3.256
47528W        W17343  13.715  31.610   0.767
47529W        W17344  19.189  19.734   2.359
47530W        W17345  11.815  10.298  13.051
47531W        W17346  33.560  21.672   1.381
47532W        W17347  39.959   7.221   0.810
47533W        W17348  18.570  20.553   3.668
47534W        W17349  41.884  19.670   1.765
47535W        W17350   9.337   3.946  14.358
47536W        W17351  24.200  16.729   0.953
47537W        W17352  24.598  11.695   4.759
47538W        W17353  42.408  30.557  11.967
47539W        W17354  19.571   0.283   3.385
47540W        W17355  33.474  30.445  10.933
47541W        W17356  40.376  15.241  12.878
47542W        W17357   0.962  14.286   3.845
47543W        W17358  13.696  28.463  11.899
47544W        W17359  23.598  30.004   0.354
47545W        W17360  11.783  18.070  12.021
47546W        W17361  28.095  41.033  12.389
47547W        W17362   0.971  16.758  13.447
47548W        W17363  22.224  21.126   2.270
47549W        W17364   6.324  40.315  12.504
47550W        W17365  25.137  30.434  12.569
47551W        W17366  25.037  35.100  12.012
47552W        W17367  21.587   6.327  13.500
47553W        W17368   2.930  41.915   4.834
47554W        W17369  27.545  35.945  10.558
47555W        W17370  33.001  36.995   4.191
47556W        W17371   3.405   1.891   3.797
47557W        W17372   4.385  33.451  12.567
47558W        W17373  38.913  33.888   4.328
47559W        W17374  18.228   3.225   2.702
47560W        W17375  38.402  29.969  13.473
47561W        W17376  24.496  28.067  13.860
47562W        W17377  31.548  33.017  13.874
47563W        W17378  18.272  15.218   1.385
47564W        W17379  43.406  37.522   1.852
47565W        W17380  30.429   5.322   0.914
47566W        W17381  31.005  26.702   4.247
47567W        W17382  40.516  39.004   0.784
47568W        W17383   0.293  37.408   3.166
47569W        W17384   0.950   2.811   1.718
47570W        W17385  31.641   9.800  12.860
47571W        W17386  33.548   1.897  14.976
47572W        W17387  43.952  33.429   4.678
47573W        W17388  28.524  21.609   2.842
47574W        W17389  10.324  22.168   2.874
47575W        W17390  28.117  33.525  11.899
47576W        W17391  26.645   1.789  12.520
47577W        W17392  11.729  42.343  11.067
47578W        W17393  20.072  24.177  11.945
47579W        W17394   5.270  22.739   1.351
47580W        W17395  22.597   6.346   5.178
47581W        W17396  23.066  14.212   3.379
47582W        W17397  22.145  40.519  14.812
47583W        W17398  26.666  33.420   0.756
47584W        W17399  22.642  37.562   0.736
47585W        W17400   0.480  15.194   3.360
47586W        W17401  30.656  31.023  10.555
47587W        W17402  32.543  13.610  12.383
47588W        W17403   4.362  13.797  11.466
47589W        W17404  40.427  18.643  11.073
47590W        W17405  42.874   1.305   4.174
47591W        W17406  34.563  18.207  14.372
47592W        W17407  44.419  29.924  10.608
47593W        W17408  44.829  20.234  11.064
47594W        W17409  25.105  17.261   3.748
47595W        W17410  13.108  37.509   5.315
47596W        W17411   1.284   8.736  13.430
47597W        W17412  44.773  12.257  12.066
47598W        W17413  33.014   9.833   0.437
47599W        W17414  29.114  23.089   0.247
47600W        W17415   8.848  31.929  14.802
47601W        W17416  25.114  12.322  12.010
47602W        W17417   3.218  21.113  12.525
47603W        W17418  27.688  16.794  14.805
47604W        W17419  43.877  26.700   2.201
47605W        W17420  34.587  41.320  13.055
47606W        W17421   6.359  16.109  11.107
47607W        W17422  30.615  23.114   1.730
47608W        W17423  26.066  44.781   1.901
47609W        W17424  38.024  33.078   9.653
47610W        W17425  14.662  34.465   0.760
47611W        W17426  41.414  28.652  14.370
47612W        W17427  41.010  14.111   4.246
47613W        W17428   1.372  44.846   1.816
47614W        W17429  30.421  25.555   3.156
47615W        W17430  19.671   6.716  11.410
47616W        W17431   8.282  42.775   2.669
47617W        W17432  41.958  19.710   5.299
47618W        W17433  42.986   6.737  12.061
47619W        W17434  42.002  13.752   3.158
47620W        W17435  38.399  24.998   4.672
47621W        W17436  14.617  20.167  13.519
47622W        W17437   6.296  36.524   1.863
47623W        W17438  37.517  21.102   4.208
47624W        W17439  16.601  25.695  11.378
47625W        W17440  13.684   2.455   3.690
47626W        W17441  13.344  39.410   3.241
47627W        W17442  32.412  34.052  14.415
47628W        W17443  19.262  35.991  13.002
47629W        W17444  42.854  25.013  13.829
47630W        W17445  36.007  29.602   1.880
47631W        W17446  13.148  21.042  12.888
47632W        W17447  29.947  23.187  10.574
47633W        W17448  28.585  44.981   0.846
47634W        W17449  41.905  41.902  13.844
47635W        W17450  19.112   8.275   3.302
47636W        W17451   4.302  28.993   0.297
47637W        W17452  28.476  14.643   1.271
47638W        W17453  11.224  14.238  12.834
47639W        W17454  42.882   2.892  10.505
47640W        W17455  12.336   3.795   3.204
47641W        W17456  36.096  22.177   2.229
47642W        W17457  29.562  44.856  13.834
47643W        W17458  18.178   5.388  11.530
47644W        W17459  16.767   8.398   2.800
47645W        W17460  12.694  24.600   1.836
47646W        W17461  37.991  34.562   1.713
47647W        W17462  38.992  26.599  11.449
47648W        W17463   9.150   3.243   3.659
47649W        W17464  29.433  31.112  11.086
47650W        W17465  18.791  27.691   2.815
47651W        W17466  15.778  19.694   2.701
47652W        W17467  35.490   4.791  12.356
47653W        W17468  12.855  41.835  10.935
47654W        W17469  44.432  28.185  14.378
47655W        W17470  40.341   8.399   1.861
47656W        W17471   3.783  34.417  11.458
47657W        W17472  10.146  33.598  13.064
47658W        W17473  21.580  35.047  10.920
47659W        W17474  35.405  12.353  12.891
47660W        W17475  42.305   7.286  10.916
47661W        W17476  25.178  27.568   4.687
47662W        W17477  11.234  18.617   3.159
47663W        W17478  27.008   3.872   3.170
47664W        W17479  18.061  10.220  14.422
47665W        W17480  34.473  32.584  10.069
47666W        W17481  21.252  35.893  14.302
47667W        W17482  22.236  37.489   2.778
47668W        W17483  29.169  22.132   0.318
47669W        W17484  31.582  13.653  11.583
47670W        W17485  36.535  28.062  14.778
47671W        W17486  29.493  20.675  10.572
47672W        W17487   0.821  10.291   1.883
47673W        W17488  37.998  38.831  13.421
47674W        W17489  19.653  23.069   0.841
47675W        W17490  36.028  18.195  13.820
47676W        W17491  43.300  14.668   4.803
47677W        W17492  39.399   3.339   1.828
47678W        W17493  34.076  11.277  11.005
47679W        W17494  21.717  13.133   2.396
47680W        W17495  28.493   5.301  13.933
47681W        W17496  11.127  28.154   1.929
47682W        W17497   2.764  40.812  12.051
47683W        W17498  13.217  43.271   2.752
47684W        W17499  26.176   7.204  11.482
47685W        W17500   3.946  25.602   3.695
47686W        W17501  42.420  12.693   2.878
47687W        W17502   6.397   2.380   0.964
47688W        W17503  30.943  16.121  14.898
47689W        W17504  33.922  42.448  11.069
47690W        W17505   1.332   7.413   0.853
47691W        W17506  24.648  16.654  12.966
47692W        W17507  23.686  27.539   1.372
47693W        W17508  37.443   3.391   2.318
47694W        W17509  18.143  28.607   0.388
47695W        W17510  41.467  36.973   0.385
47696W        W17511  16.166  16.598   1.381
47697W        W17512  37.572   2.403  10.945
47698W        W17513  31.520  32.480   0.393
47699W        W17514  33.535  21.706  10.531
47700W        W17515  23.170  13.655   3.823
47701W        W17516  21.581  29.994  10.982
47702W        W17517  26.572  36.879   1.766
47703W        W17518  42.357  21.191  13.385
47704W        W17519   9.754  36.965   1.822
47705W        W17520  27.635  25.161   1.329
47706W        W17521  33.466  43.952   2.796
47707W        W17522   5.727  20.138   4.303
47708W        W17523  43.344  26.463   1.360
47709W        W17524   8.310  16.713  11.490
47710W        W17525   5.789  38.049  13.839
47711W        W17526  42.907  20.630   3.674
47712W        W17527  42.836  31.943  11.409
47713W        W17528   9.787  19.673  11.027
47714W        W17529  22.602   8.749   3.174
47715W        W17530   5.432  18.083  11.887
47716W        W17531   4.883  38.364  11.488
47717W        W17532   2.356  33.969   0.447
47718W        W17533  40.890  16.264  10.056
47719W        W17534  18.215   3.723   0.751
47720W        W17535  23.187  43.878   1.704
47721W        W17536   2.883  32.559  10.433
47722W        W17537  44.260   2.831  12.383
47723W        W17538   7.773  27.646  14.310
47724W        W17539  14.311  30.059  13.548
47725W        W17540  18.728  12.179  12.556
47726W        W17541  44.958  34.957   2.409
47727W        W17542  21.200  38.346   4.673
47728W        W17543  24.981  20.769   3.729
47729W        W17544  37.868  34.925   4.332
47730W        W17545  31.436  18.590  11.585
47731W        W17546  41.374  24.520  14.769
47732W        W17547   0.916  32.582   3.785
47733W        W17548   4.723  10.733  13.057
47734W        W17549  33.516  19.184   0.941
47735W        W17550   8.251  17.280   3.843
47736W        W17551  34.981  11.271  14.369
47737W        W17552  11.693  14.220  13.850
47738W        W17553   4.419  44.836   3.720
47739W        W17554  18.114  27.466   3.795
47740W        W17555  33.557  16.642   1.404
47741W        W17556  11.131  37.540   3.190
47742W        W17557  41.909   3.854  11.969
47743W        W17558   8.258  19.610  13.807
47744W        W17559  20.697  19.140  11.464
47745W        W17560  37.431  35.992   1.255
47746W        W17561  13.250  15.581   5.250
47747W        W17562  34.992  39.477   0.882
47748W        W17563   9.240   2.793  12.925
47749W        W17564  12.728  17.660  13.395
47750W        W17565   6.239  18.060  12.381
47751W        W17566  32.920  35.917   3.736
47752W        W17567  32.612  10.185  12.992
47753W        W17568  26.088  20.117   1.858
47754W        W17569  43.299  27.034   1.341
47755W        W17570  41.024   5.712   5.204
47756W        W17571  37.403   7.792  10.480
47757W        W17572  35.432  22.571  13.791
47758W        W17573  41.929  39.450  13.814
47759W        W17574  13.163  15.813  13.037
47760W        W17575  31.583  28.979   4.730
47761W        W17576  44.848   3.354  12.095
47762W        W17577  37.917  18.651   0.313
47763W        W17578  34.105   7.786   2.675
47764W        W17579   5.400   3.716  10.453
47765W        W17580  12.836   6.840  12.532
47766W        W17581  16.076  41.897  14.408
47767W        W17582  22.132  37.839   3.156
47768W        W17583   1.483  31.924  12.979
47769W        W17584  35.409   8.318   1.437
47770W        W17585  25.643  36.380   2.234
47771W        W17586  43.855  17.187   0.311
47772W        W17587  20.701   6.744   3.727
47773W        W17588  27.088  38.825  13.793
47774W        W17589  23.994  16.076   0.772
47775W        W17590  32.050  21.133  12.991
47776W        W17591  15.702  25.985  10.118
47777W        W17592  31.491  23.600  12.434
47778W        W17593  20.037  36.515  12.887
47779W        W17594  33.388  14.594   4.661
47780W        W17595   2.263  20.257  13.912
47781W        W17596  25.161  21.536  13.922
47782W        W17597  39.974  33.594  13.526
47783W        W17598  38.383  31.608  10.948
47784W        W17599  36.022  31.946   3.322
47785W        W17600   5.313  11.351  12.387
47786W        W17601  11.711  41.801   1.849
47787W        W17602  25.706   4.749   0.926
47788W        W17603   0.961  17.769   2.681
47789W        W17604  24.566  44.266   0.908
47790W        W17605  19.619  43.004   4.806
47791W        W17606  44.377  38.966   4.240
47792W        W17607  38.381  44.422  11.932
47793W        W17608  20.166  15.782  12.373
47794W        W17609   9.373  44.928   0.825
47795W        W17610  36.402  15.621   1.805
47796W        W17611  35.515   6.723   3.773
47797W        W17612  30.938  22.086  10.506
47798W        W17613  35.527   2.753  13.863
47799W        W17614   1.257  32.467  13.501
47800W        W17615  24.199  42.015   3.666
47801W        W17616  26.973  41.367  11.034
47802W        W17617  14.711  35.884   3.365
47803W        W17618  39.968  27.947  13.351
47804W        W17619  31.142   4.790   3.147
47805W        W17620  24.153  27.674  11.100
47806W        W17621  14.110  28.939   2.212
47807W        W17622  28.629  17.587   3.262
47808W        W17623  33.125   4.203   0.336
47809W        W17624  24.533   4.312  13.907
47810W        W17625  18.077  26.022   4.307
47811W        W17626  20.030  23.603   2.296
47812W        W17627  12.265  35.446   0.431
47813W        W17628   3.255  35.051  14.927
47814W        W17629   1.835  27.090   4.716
47815W        W17630   9.300  29.083  14.462
47816W        W17631  31.034  30.914   0.856
47817W        W17632  44.475   4.819   1.935
47818W        W17633  10.718  28.592  13.950
47819W        W17634   4.772  15.116  11.936
47820W        W17635  31.913  17.071   5.207
47821W        W17636  29.942  21.708   1.358
47822W        W17637  31.429  34.981  11.941
47823W        W17638  19.249  34.098   1.386
47824W        W17639  30.572  35.088   0.363
47825W        W17640  14.622  11.645  10.424
47826W        W17641  14.818  23.168   4.348
47827W        W17642  12.191   3.720  12.001
47828W        W17643  27.072  27.692   2.204
47829W        W17644   8.863  13.729   4.164
47830W        W17645  33.385   3.941   0.456
47831W        W17646   9.318  28.958   2.888
47832W        W17647  14.766  29.986  14.319
47833W        W17648  15.183  27.112  14.480
47834W        W17649  31.472   4.879  12.350
47835W        W17650  24.714  12.809   4.138
47836W        W17651  14.103   1.474  13.932
47837W        W17652  40.024   9.243   2.218
47838W        W17653  28.505  20.583  13.334
47839W        W17654  20.119  35.091   9.929
47840W        W17655   1.833  23.643   1.932
47841W        W17656  18.126   1.308   2.327
47842W        W17657  30.637   8.842  11.051
47843W        W17658  22.095  41.526   3.677
47844W        W17659   2.448   4.754  14.952
47845W        W17660  27.057  33.600  11.861
47846W        W17661  34.881  10.220   2.304
47847W        W17662   2.292  12.674   3.773
47848W        W17663  30.601  40.383  13.345
47849W        W17664  41.458  25.147  12.382
47850W        W17665  33.516  37.020  11.604
47851W        W17666  34.491  32.991  10.018
47852W        W17667  21.621  32.031   4.202
47853W        W17668  15.200  23.517  11.052
47854W        W17669  29.638  43.803   0.807
47855W        W17670  25.115  33.503   2.249
47856W        W17671  37.536  17.616   0.468
47857W        W17672   4.875  42.938  13.410
47858W        W17673  31.404  27.185  14.350
47859W        W17674   3.289  38.425   2.338
47860W        W17675  13.214  17.216   5.208
47861W        W17676  16.198  16.617  13.534
47862W        W17677  12.180   8.680  10.967
47863W        W17678  27.517  39.024   0.405
47864W        W17679  23.050   1.278  11.505
47865W        W17680  24.588  27.145  11.443
47866W        W17681  44.499   3.215   1.258
47867W        W17682  37.988  38.410  14.486
47868W        W17683   1.867  12.732  10.577
47869W        W17684  29.979   1.971   3.218
47870W        W17685  18.286  43.003  10.936
47871W        W17686  15.699  29.108  14.998
47872W        W17687  20.550  20.606   1.912
47873W        W17688  44.493  34.561   4.334
47874W        W17689  40.884  30.161   2.786
47875W        W17690  18.735  15.326  13.445
47876W        W17691  30.463   7.754  14.374
47877W        W17692  12.162  22.637   3.164
47878W        W17693  38.395  40.417   1.395
47879W        W17694   3.764  44.800  11.884
47880W        W17695  20.066  37.931  12.937
47881W        W17696   5.350  27.455   4.830
47882W        W17697  42.414  27.662   1.274
47883W        W17698  28.571  41.004   4.824
47884W        W17699   7.739  30.577  12.092
47885W        W17700  30.634   3.263   0.334
47886W        W17701  13.638   3.408   3.828
47887W        W17702  39.016  21.209   3.259
47888W        W17703  23.067  36.469   3.856
47889W        W17704   5.714  21.157  12.580
47890W        W17705  17.795  43.449  14.412
47891W        W17706  43.984  36.968   3.852
47892W        W17707  31.527  22.688   1.308
47893W        W17708  38.919   0.938  14.507
47894W        W17709  15.270   3.235  14.814
47895W        W17710  27.184   9.737  12.503
47896W        W17711  32.007   6.223  14.477
47897W        W17712   3.712  25.602   0.824
47898W        W17713  16.641  38.046   1.930
47899W        W17714   0.804  44.406  12.385
47900W        W17715  37.855  30.097  12.348
47901W        W17716   5.912   7.177  10.905
47902W        W17717  18.281  12.267   2.759
47903W        W17718   1.353  44.350   0.921
47904W        W17719  40.407   6.683   0.276
47905W        W17720  41.876  19.144  14.872
47906W        W17721  16.641  13.164  12.344
47907W        W17722  26.189   3.425   3.278
47908W        W17723  19.073  21.728  13.014
47909W        W17724  37.010  12.223  12.983
47910W        W17725  13.332  13.150  14.384
47911W        W17726  31.947  20.586   3.854
47912W        W17727   2.262  23.535  10.617
47913W        W17728  42.943  11.648   3.676
47914W        W17729  24.210  22.244   3.730
47915W        W17730   3.461   5.728  13.970
47916W        W17731  27.958   7.771  11.857
47917W        W17732  30.923  27.182   4.802
47918W        W17733   3.401  30.991   2.389
47919W        W17734  21.660  37.487  10.584
47920W        W17735   4.310  36.537   4.811
47921W        W17736  14.709  28.017   2.365
47922W        W17737   8.337  41.969   1.709
47923W        W17738   2.458  15.792   0.838
47924W        W17739   8.291  34.056   3.654
47925W        W17740   8.303  14.308  12.480
47926W        W17741  10.248  31.632  10.155
47927W        W17742   3.903  14.633   4.791
47928W        W17743   7.781  36.962  12.463
47929W        W17744  27.104  44.335   1.799
47930W        W17745  10.212   8.324  13.910
47931W        W17746  13.341   0.883   4.157
47932W        W17747  26.093  17.607   4.672
47933W        W17748  23.539  16.584  12.425
47934W        W17749  40.510  23.604  12.967
47935W        W17750  24.200  26.093  12.505
47936W        W17751  17.182  23.616  11.027
47937W        W17752   1.843  24.187   3.329
47938W        W17753  10.239   7.751   1.437
47939W        W17754   9.272  33.901  14.967
47940W        W17755  36.501   7.347  10.987
47941W        W17756  28.447  15.262  12.829
47942W        W17757  11.753  43.944   2.697
47943W        W17758  33.914   8.351  13.482
47944W        W17759  30.461   4.236  11.434
47945W        W17760  43.312   4.382   3.865
47946W        W17761  10.690  24.659  13.393
47947W        W17762  22.542  27.153   4.733
47948W        W17763  39.000  34.015   0.361
47949W        W17764  20.224  19.748   2.694
47950W        W17765  14.125  26.626  13.537
47951W        W17766  11.187   8.758   3.363
47952W        W17767   4.343  10.646   3.353
47953W        W17768  29.654  43.347   1.748
47954W        W17769  42.892   7.755  12.482
47955W        W17770  23.636  32.124   3.843
47956W        W17771  17.145  15.212  11.026
47957W        W17772  28.155  32.440   2.326
47958W        W17773  29.601  36.452  14.382
47959W        W17774  11.244  27.508   2.830
47960W        W17775  41.936  26.176  13.802
47961W        W17776   0.758  23.102  10.559
47962W        W17777  13.266  43.514  13.385
47963W        W17778  28.595  12.354  10.549
47964W        W17779   0.340  30.637  11.381
47965W        W17780  31.943  14.095  13.833
47966W        W17781  36.941  39.553  14.464
47967W        W17782  22.519  20.114  13.330
47968W        W17783  22.635  36.347  14.937
47969W        W17784  34.928  23.631  14.277
47970W        W17785  27.182  28.598   1.273
47971W        W17786   4.385  44.455  10.568
47972W        W17787  32.134  40.330   1.331
47973W        W17788  33.411  43.877  12.471
47974W        W17789  19.697  28.641   3.244
47975W        W17790   0.415  39.464  12.048
47976W        W17791  24.083  27.139  11.611
47977W        W17792  33.895  22.229   4.116
47978W        W17793  14.610  43.489  14.312
47979W        W17794  30.068   1.261   1.331
47980W        W17795   3.781  13.148  14.761
47981W        W17796   3.766  27.598   1.710
47982W        W17797  15.277   2.886  12.967
47983W        W17798  12.823  33.417   3.213
47984W        W17799  34.994  14.684  13.326
47985W        W17800  44.301  33.466   3.825
47986W        W17801  40.038  19.731  12.078
47987W        W17802  16.256  28.654  11.489
47988W        W17803  28.492  23.104   3.190
47989W        W17804  43.774  26.178   3.208
47990W        W17805  31.489  20.200  12.470
47991W        W17806  22.235  12.256  11.982
47992W        W17807  10.822  17.793   3.175
47993W        W17808   1.254  32.961   0.474
47994W        W17809  33.892  32.003  12.408
47995W        W17810   6.745   0.979  11.432
47996W        W17811  12.757  41.038   4.629
47997W        W17812   6.762  28.021   3.634
47998W        W17813  13.704  23.071  14.779
47999W        W17814   9.221  13.658   4.257
48000W        W17815  36.847  39.456   2.305
48001W        W17816  36.390   0.253  14.884
48002W        W17817  41.427   2.401   3.826
48003W        W17818  16.733  21.250  13.018
48004W        W17819   6.426  12.316   2.390
48005W        W17820  17.720  30.012   4.251
48006W        W17821  38.064   2.915  12.905
48007W        W17822  40.547  38.857   2.899
48008W        W17823   6.246   3.241   0.430
48009W        W17824   1.974  19.070  14.472
48010W        W17825  30.042  10.194   2.220
48011W        W17826   7.395  19.210  12.026
48012W        W17827  37.520   4.355  14.356
48013W        W17828  40.054  36.876   4.639
48014W        W17829   1.363  13.763  14.276
48015W        W17830  19.772  23.685   3.253
48016W        W17831  29.465  36.422  14.898
48017W        W17832  16.311  24.011  10.999
48018W        W17833  32.437  35.563  11.611
48019W        W17834  39.874   0.781   1.221
48020W        W17835   1.459   2.231   2.189
48021W        W17836   5.232  26.521  13.970
48022W        W17837   0.450  41.922   4.156
48023W        W17838  34.369  35.503  13.988
48024W        W17839  24.005   3.307  13.326
48025W        W17840  17.635  20.272   1.274
48026W        W17841  27.064  15.756  14.953
48027W        W17842  17.798  43.849  11.399
48028W        W17843  35.420  20.251   2.217
48029W        W17844  31.532  28.573   0.847
48030W        W17845  17.082  20.559   0.376
48031W        W17846  19.186  32.603   3.807
48032W        W17847  44.344   7.192  11.103
48033W        W17848  12.730   6.399   4.293
48034W        W17849  24.644  11.751   1.296
48035W        W17850  16.122  26.624   1.261
48036W        W17851   1.854  39.822  12.456
48037W        W17852  23.589  13.842   4.127
48038W        W17853  10.875  26.611  11.465
48039W        W17854   4.206  12.177   4.306
48040W        W17855   6.779  33.082  11.019
48041W        W17856  32.943  16.781   1.443
48042W        W17857  44.819  28.467  11.899
48043W        W17858   6.201  29.011  12.825
48044W        W17859  40.925  14.832  11.424
48045W        W17860   7.835   2.349  10.475
48046W        W17861   7.178  31.958   2.245
48047W        W17862  17.170   7.341  13.535
48048W        W17863  14.737  41.318  12.388
48049W        W17864  17.228  41.853   2.342
48050W        W17865  37.510  12.197  10.423
48051W        W17866   0.415  29.064   0.952
48052W        W17867   6.802  31.531  13.948
48053W        W17868  41.410  30.090  11.377
48054W        W17869  17.264  15.315   0.927
48055W        W17870   7.715  17.114   2.700
48056W        W17871   6.191  10.733  14.450
48057W        W17872   1.373   0.427  13.960
48058W        W17873   6.287  24.699  13.816
48059W        W17874  31.581  33.921   3.776
48060W        W17875  41.361  18.236   1.213
48061W        W17876  10.193   0.269  14.972
48062W        W17877  11.736  38.836  12.494
48063W        W17878   4.381  33.610  13.437
48064W        W17879  26.541  36.346   4.672
48065W        W17880  22.650  29.509  13.875
48066W        W17881  33.963  22.611  13.920
48067W        W17882  30.552  31.460   1.933
48068W        W17883  10.231   5.907  14.464
48069W        W17884  21.098   1.744  12.563
48070W        W17885  21.603   5.899   4.162
48071W        W17886  24.565  40.868   3.800
48072W        W17887   6.677   8.382  10.907
48073W        W17888  17.236   9.680  14.795
48074W        W17889  37.558  25.613  12.053
48075W        W17890  13.207  38.374   2.351
48076W        W17891  34.087   6.372   4.766
48077W        W17892  22.747  13.271   1.782
48078W        W17893   3.857   2.288   2.696
48079W        W17894   1.263   6.775   0.312
48080W        W17895   4.860  17.698  14.982
48081W        W17896  30.006  35.584   1.409
48082W        W17897  25.558  11.169   1.444
48083W        W17898  25.076  18.679  14.856
48084W        W17899  27.606  21.542   1.846
48085W        W17900   9.283   8.682  10.995
48086W        W17901   8.726  33.973   4.735
48087W        W17902  41.008   3.324   0.917
48088W        W17903  24.598  31.989   9.935
48089W        W17904  11.221  14.147   0.945
48090W        W17905   5.708   1.790   0.320
48091W        W17906   0.282  21.260  12.423
48092W        W17907   0.491   1.945  12.393
48093W        W17908   1.784  28.962  13.051
48094W        W17909  17.695   8.660   4.804
48095W        W17910  23.564  21.073  14.976
48096W        W17911   0.809  37.544   0.842
48097W        W17912   0.366  27.673   1.390
48098W        W17913   6.392  29.987  13.940
48099W        W17914   2.440  32.123   4.762
48100W        W17915   8.837  17.287  14.456
48101W        W17916  38.055  37.532  13.832
48102W        W17917   4.351  18.083  12.834
48103W        W17918  23.568  11.132   0.445
48104W        W17919  15.152  14.098  12.429
48105W        W17920  21.158   3.824   0.385
48106W        W17921  25.131  38.359   2.376
48107W        W17922   8.876  40.828  13.999
48108W        W17923   5.324  12.153   2.233
48109W        W17924   7.176  30.995  11.091
48110W        W17925   4.699  39.446   0.414
48111W        W17926  18.693  35.054  11.899
48112W        W17927   4.391  12.300   3.216
48113W        W17928  31.082  34.542   3.763
48114W        W17929  17.670  13.288   1.311
48115W        W17930  35.585  26.502   2.347
48116W        W17931  19.224   9.261  10.521
48117W        W17932  33.550  18.209  13.927
48118W        W17933  41.847  40.342   3.355
48119W        W17934   1.789  12.761   3.191
48120W        W17935  19.606  28.069   4.728
48121W        W17936  14.661  19.761  11.613
48122W        W17937   8.809  23.583  10.931
48123W        W17938  27.668  41.865   3.199
48124W        W17939   4.444  30.458  10.522
48125W        W17940  16.787  23.583  14.789
48126W        W17941  12.857  10.634  11.857
48127W        W17942  26.057  27.111  10.578
48128W        W17943  10.814  28.005  12.453
48129W        W17944  39.850   4.232   4.308
48130W        W17945  42.843  44.389  10.962
48131W        W17946  14.245  11.662   1.930
48132W        W17947  11.298  11.674   0.773
48133W        W17948  42.338  27.084   2.886
48134W        W17949  38.949  40.935  14.384
48135W        W17950  43.841  36.041   2.212
48136W        W17951   1.378  30.516  10.890
48137W        W17952  20.177  40.504   1.351
48138W        W17953   1.269  35.026  13.889
48139W        W17954   4.207  19.549  14.456
48140W        W17955  42.021  14.205   0.874
48141W        W17956  24.979  39.886  13.879
48142W        W17957   3.325  42.501   3.293
48143W        W17958   5.728  40.327   4.635
48144W        W17959  36.365  17.271  13.947
48145W        W17960  44.440  40.901  14.850
48146W        W17961  33.526  36.869   1.416
48147W        W17962  29.012  14.154   4.344
48148W        W17963  20.233   5.689   0.844
48149W        W17964  41.791  14.597   2.754
48150W        W17965  41.404  40.520   4.692
48151W        W17966   0.443  41.341   3.757
48152W        W17967  38.562   8.750  11.424
48153W        W17968  30.033   3.732   4.323
48154W        W17969   5.356  16.185  12.436
48155W        W17970  37.571  29.139   3.642
48156W        W17971  14.196  37.475   0.448
48157W        W17972  44.403   7.197  13.839
48158W        W17973  44.888  42.839  12.367
48159W        W17974  28.146  21.072  14.441
48160W        W17975  18.612  35.597  13.465
48161W        W17976  17.672  24.013   4.661
48162W        W17977  40.861   2.868   3.333
48163W        W17978  14.721  16.642   3.724
48164W        W17979  13.805  26.011  12.394
48165W        W17980  39.437  32.561  13.892
48166W        W17981  30.012   3.872  13.477
48167W        W17982  29.961  30.433  12.834
48168W        W17983  39.525   3.934  14.796
48169W        W17984  31.126   4.255  13.994
48170W        W17985  40.530  34.898   3.278
48171W        W17986  22.611  23.235  12.911
48172W        W17987  44.995   5.195   3.336
48173W        W17988  29.483  36.053  12.986
48174W        W17989  40.431  16.775   4.138
48175W        W17990   0.797  27.007  13.378
48176W        W17991  18.690  36.929   0.957
48177W        W17992  29.578  11.296  11.412
48178W        W17993  32.001  26.575  10.444
48179W        W17994  29.036  18.716   0.482
48180W        W17995  36.492   2.915  10.998
48181W        W17996   5.792  11.224   1.421
48182W        W17997  26.607  35.545   5.120
48183W        W17998  22.187  18.253  11.113
48184W        W17999  26.583  31.121   3.702
48185W        W18000  30.951  18.593   2.345
48186W        W18001  16.225   6.305  10.577
48187W        W18002  27.636  43.965   1.834
48188W        W18003  36.865  21.730  11.045
48189W        W18004  29.537   0.934  12.978
48190W        W18005  27.047   3.832  11.885
48191W        W18006  25.597  31.006   1.841
48192W        W18007  39.907  12.293   0.367
48193W        W18008  40.533  40.019  11.573
48194W        W18009  27.053   8.288  12.555
48195W        W18010  36.588   6.880   1.429
48196W        W18011  32.416  10.687   1.721
48197W        W18012  24.172  29.140   9.930
48198W        W18013  21.588  38.934   4.785
48199W        W18014   1.472  36.051   1.875
48200W        W18015  14.248  32.062  13.829
48201W        W18016  25.099  16.084   2.369
48202W        W18017  41.303  13.830  11.939
48203W        W18018  17.684  44.947  11.482
48204W        W18019  39.533  10.341   2.866
48205W        W18020   7.406  35.384  11.442
48206W        W18021   3.891  31.079  14.805
48207W        W18022  23.022  18.618  14.444
48208W        W18023  18.197  27.000  12.407
48209W        W18024  30.041  10.790   4.819
48210W        W18025  17.182  22.132  14.946
48211W        W18026   3.758  27.054   2.407
48212W        W18027  35.471  44.964   0.768
48213W        W18028  13.259   9.319  13.051
48214W        W18029  19.079   3.362   2.281
48215W        W18030   7.803  14.226   3.748
48216W        W18031  29.658   5.364   1.924
48217W        W18032  41.911   9.887  11.980
48218W        W18033  42.799  29.665   3.226
48219W        W18034  15.653   6.880   0.836
48220W        W18035  41.821  38.922   4.678
48221W        W18036  37.407  32.587   2.363
48222W        W18037  19.535  35.083  11.578
48223W        W18038   8.203  41.824   4.190
48224W        W18039  41.914  13.823  11.509
48225W        W18040  41.368  30.418  12.564
48226W        W18041  18.189  18.188  11.894
48227W        W18042   3.775  41.388  10.405
48228W        W18043   1.328  21.528   2.277
48229W        W18044   1.419  41.953  10.916
48230W        W18045  15.253  15.665  12.831
48231W        W18046  30.503  27.665  14.293
48232W        W18047  44.997  20.054   3.295
48233W        W18048  36.469  17.263  14.485
48234W        W18049  14.641  18.605   1.786
48235W        W18050  29.526   1.282  13.844
48236W        W18051  39.932  34.992   3.354
48237W        W18052  31.530   1.412   2.813
48238W        W18053  32.929  27.468  11.411
48239W        W18054  43.766  26.073   1.870
48240W        W18055  16.756  30.630   1.841
48241W        W18056   6.905  20.074   2.238
48242W        W18057  39.819  31.107   1.708
48243W        W18058  36.435  13.820   2.270
48244W        W18059  24.491  41.988  11.546
48245W        W18060  12.704  34.978  10.960
48246W        W18061  11.723  28.043   2.266
48247W        W18062  38.373  22.644  10.930
48248W        W18063  40.946  13.125  10.069
48249W        W18064   5.912  32.919   2.699
48250W        W18065   5.862  10.725   4.131
48251W        W18066  11.363  10.842  14.451
48252W        W18067   6.681   8.270  13.890
48253W        W18068   3.278  20.121  11.048
48254W        W18069   1.915  20.604   3.843
48255W        W18070   6.395  15.629   2.243
48256W        W18071  40.911  39.044   4.833
48257W        W18072   0.873   8.365   3.736
48258W        W18073  13.276  42.328   0.474
48259W        W18074  38.472  37.489  13.503
48260W        W18075   4.749  38.569   1.726
48261W        W18076   3.326   5.323   0.469
48262W        W18077  43.009  32.457   4.783
48263W        W18078  33.055  19.730   2.672
48264W        W18079  11.354  21.669   4.247
48265W        W18080  15.583  32.423   4.127
48266W        W18081  24.190   5.890  13.476
48267W        W18082  20.223   0.970  10.999
48268W        W18083   4.272  22.648   0.268
48269W        W18084   0.943  11.687  14.417
48270W        W18085  38.511   1.758   4.350
48271W        W18086   3.443  34.438  13.461
48272W        W18087  33.069  41.438   4.783
48273W        W18088  44.263   0.787  13.908
48274W        W18089   2.427  43.963   0.810
48275W        W18090  36.564   7.298  14.027
48276W        W18091   8.401  20.584   0.860
48277W        W18092   2.453  40.812  14.818
48278W        W18093  42.000  23.179  14.370
48279W        W18094  41.349   0.952  12.407
48280W        W18095  39.443  30.577   2.837
48281W        W18096  15.688  25.181   2.818
48282W        W18097   5.243  38.855  12.520
48283W        W18098   2.846  38.890  14.914
48284W        W18099  16.638  16.128  10.523
48285W        W18100  37.875  43.018  11.456
48286W        W18101   6.182  26.683   4.125
48287W        W18102  29.126   8.702   3.235
48288W        W18103  15.285  13.657  13.476
48289W        W18104  31.113   1.919  13.010
48290W        W18105   8.245  28.168  14.022
48291W        W18106  30.547  18.082   1.299
48292W        W18107   8.285  38.356   4.136
48293W        W18108  23.495  40.010  11.557
48294W        W18109   0.950  33.396   1.213
48295W        W18110   0.827  18.125   0.255
48296W        W18111  13.691  41.370  13.361
48297W        W18112  23.166  43.487  11.535
48298W        W18113  35.028  43.854  13.910
48299W        W18114  29.597  14.220   3.648
48300W        W18115   7.270   1.791  10.446
48301W        W18116   8.183  24.555   0.323
48302W        W18117  19.170   5.722   0.841
48303W        W18118  13.709  23.687  13.333
48304W        W18119  39.056   6.183  13.063
48305W        W18120  33.001  15.748  12.437
48306W        W18121   3.306  37.517   4.141
48307W        W18122   3.722  18.212   5.251
48308W        W18123  39.948  20.524   1.744
48309W        W18124   4.363  39.422  10.969
48310W        W18125  22.209  16.740  14.416
48311W        W18126   8.263  37.055   0.759
48312W        W18127   7.388  29.960  14.819
48313W        W18128  20.102  26.128   1.414
48314W        W18129  32.066  38.936  14.020
48315W        W18130  41.860  11.826   2.410
48316W        W18131   8.782  23.564   0.816
48317W        W18132   1.915  18.788  13.857
48318W        W18133   7.844  21.646  12.393
48319W        W18134  21.153  25.565  14.304
48320W        W18135  38.398  23.663  13.998
48321W        W18136  40.469   1.776   4.639
48322W        W18137  34.552   6.240  13.962
48323W        W18138  23.708  25.211  14.510
48324W        W18139  10.688  40.816  11.085
48325W        W18140  43.859   1.253   4.321
48326W        W18141  33.608   2.359   0.787
48327W        W18142   1.461  19.769   3.703
48328W        W18143   5.825   7.744   4.810
48329W        W18144  35.867   8.753   0.777
48330W        W18145   1.395  26.632  14.974
48331W        W18146  43.999  16.698   1.410
48332W        W18147   3.409  11.247   0.270
48333W        W18148   7.779  21.164   3.838
48334W        W18149   0.447  35.099   1.764
48335W        W18150  12.212   2.431  12.963
48336W        W18151  12.288  39.962  10.955
48337W        W18152  22.677  23.986  13.856
48338W        W18153  41.896  15.140  13.982
48339W        W18154  10.143  18.219  12.882
48340W        W18155  32.613  40.933  12.019
48341W        W18156  40.994  11.224   1.747
48342W        W18157  33.415  37.913  13.951
48343W        W18158  14.170  13.252   4.667
48344W        W18159  39.543  28.086  14.361
48345W        W18160  18.614  36.568  11.537
48346W        W18161  20.067   9.323   2.662
48347W        W18162  14.288   8.335  13.362
48348W        W18163  15.745   8.257  12.490
48349W        W18164  29.494   0.320   4.781
48350W        W18165  14.817  20.659  14.831
48351W        W18166  39.383  41.438  12.012
48352W        W18167  28.629  29.491   2.321
48353W        W18168  18.177  30.154   0.777
48354W        W18169  33.439  14.114   0.856
48355W        W18170  39.479  11.315  11.046
48356W        W18171  24.054  33.566   2.267
48357W        W18172  39.013   6.716  12.040
48358W        W18173  27.118  27.605  13.534
48359W        W18174  26.976  22.045  13.332
48360W        W18175  42.288  32.554   3.656
48361W        W18176  16.139  22.704   1.322
48362W        W18177  24.577  29.483   0.294
48363W        W18178  10.839   6.889  13.544
48364W        W18179  24.683  14.310  11.993
48365W        W18180  38.461  26.012  10.960
48366W        W18181  31.416  38.514   2.783
48367W        W18182  25.028  29.544  14.914
48368W        W18183  17.092  32.516  13.869
48369W        W18184   5.340  39.406   0.891
48370W        W18185  21.149   8.196   0.890
48371W        W18186  12.709  35.907  11.118
48372W        W18187  22.165   3.458  14.934
48373W        W18188  13.223  16.700   0.420
48374W        W18189  10.633   5.879  11.116
48375W        W18190  30.648  35.899   4.247
48376W        W18191  20.262  12.217  13.992
48377W        W18192   7.709   5.931   0.367
48378W        W18193  33.548  34.601   2.751
48379W        W18194  32.519  33.447   1.233
48380W        W18195  41.487  31.627   4.183
48381W        W18196   2.239  23.997  12.929
48382W        W18197  25.159  38.414   4.719
48383W        W18198  40.393  19.080  12.426
48384W        W18199   7.333  26.583  11.037
48385W        W18200  42.382  36.551   3.858
48386W        W18201   7.302  20.218  11.891
48387W        W18202  17.716  44.351  11.478
48388W        W18203   8.237  43.011  14.933
48389W        W18204   8.712  20.744   3.161
48390W        W18205  27.029  44.924  11.024
48391W        W18206  40.464  42.289  11.094
48392W        W18207  10.778  30.076  14.486
48393W        W18208  41.401  42.399   2.224
48394W        W18209  43.347   2.748   2.751
48395W        W18210  44.420  12.851  14.398
48396W        W18211  37.020  34.939   0.811
48397W        W18212  22.583  13.315  14.945
48398W        W18213   7.843  40.378   3.226
48399W        W18214  25.166  24.985  13.392
48400W        W18215   1.829  32.905  12.051
48401W        W18216  22.113  10.360   4.835
48402W        W18217  22.134   0.857   0.282
48403W        W18218  10.324  40.803   1.395
48404W        W18219  36.446  41.436   4.122
48405W        W18220   0.826  30.477  14.333
48406W        W18221  34.414  10.250   4.730
48407W        W18222   5.356   1.918   2.786
48408W        W18223  25.533  12.856   0.332
48409W        W18224  21.073  23.495  13.314
48410W        W18225   2.239  38.431  12.502
48411W        W18226  41.438  24.524   2.310
48412W        W18227   8.785  38.014  10.919
48413W        W18228   4.807  13.178  14.336
48414W        W18229  20.640  20.265   3.288
48415W        W18230  20.267  37.455   3.651
48416W        W18231  27.152  44.279   2.203
48417W        W18232   8.365  17.216   4.681
48418W        W18233  32.437  22.115   0.472
48419W        W18234  41.891  30.575  13.429
48420W        W18235  43.357  23.228   2.380
48421W        W18236  43.352  13.140   0.836
48422W        W18237   5.701  39.349  10.426
48423W        W18238  30.622  34.084  14.303
48424W        W18239  40.380   5.222   2.813
48425W        W18240   4.712  16.200   1.696
48426W        W18241   6.226  11.212  11.091
48427W        W18242  24.708  19.277   1.240
48428W        W18243  10.670  25.709   2.727
48429W        W18244   5.282  19.163   1.412
48430W        W18245  13.183  38.972   0.257
48431W        W18246  36.011  13.721  12.919
48432W        W18247  28.185  42.928  12.830
48433W        W18248  13.648  19.571   3.198
48434W        W18249  20.258  18.712   0.826
48435W        W18250   4.910  11.197  10.995
48436W        W18251  43.461  11.221  12.345
48437W        W18252  20.044   8.381   1.922
48438W        W18253  23.513  33.381   0.318
48439W        W18254  14.226  22.119   2.834
48440W        W18255  10.761  16.594   0.965
48441W        W18256  22.050   1.792  13.034
48442W        W18257   7.185   3.818   4.336
48443W        W18258  23.142  30.496   4.155
48444W        W18259   4.944   5.436   2.279
48445W        W18260  20.036  39.842  10.981
48446W        W18261  13.615  38.990   2.194
48447W        W18262   9.862  20.715   2.709
48448W        W18263  42.316  25.710  12.033
48449W        W18264  25.163   8.799   2.772
48450W        W18265  35.870   5.229  11.529
48451W        W18266  21.080   6.373   2.782
48452W        W18267  37.879  10.338  11.966
48453W        W18268  27.446  14.307   0.307
48454W        W18269  23.140  32.949   0.243
48455W        W18270  20.158  29.427   3.236
48456W        W18271  29.507   4.204   1.725
48457W        W18272  10.739  33.477   2.671
48458W        W18273  40.883  31.118  12.834
48459W        W18274   6.226  39.349  10.942
48460W        W18275  22.661   4.738   3.172
48461W        W18276  33.513  36.094   1.913
48462W        W18277  34.494   3.376  12.825
48463W        W18278   1.891  19.632   3.282
48464W        W18279  40.039   5.812  13.328
48465W        W18280  20.600  14.134  13.016
48466W        W18281  38.537  36.098   4.660
48467W        W18282  27.027  35.060  13.398
48468W        W18283  22.176  29.082   4.149
48469W        W18284  17.568  40.413  11.922
48470W        W18285  11.183   0.785   4.825
48471W        W18286  20.577  30.051   3.276
48472W        W18287  41.899  16.140   0.847
48473W        W18288  33.968  22.092  12.349
48474W        W18289  36.531  15.596  14.293
48475W        W18290  21.643  37.440  13.520
48476W        W18291  41.935  38.433  13.380
48477W        W18292  30.630  30.590  10.593
48478W        W18293  29.140  29.483   3.780
48479W        W18294  10.684  12.751  13.495
48480W        W18295  16.577  39.556  14.428
48481W        W18296  43.426  30.564   2.737
48482W        W18297  24.144   4.803  12.526
48483W        W18298  26.088  33.534  11.454
48484W        W18299  30.558  12.688   2.360
48485W        W18300   1.821  35.394   4.759
48486W        W18301  22.710   4.262  12.517
48487W        W18302  44.004  10.344  14.396
48488W        W18303  21.102  37.451   3.803
48489W        W18304  24.973  12.304  10.016
48490W        W18305   4.373   9.194   0.822
48491W        W18306  28.994  13.270  13.456
48492W        W18307   4.369  23.120  10.992
48493W        W18308  14.785  34.594  13.458
48494W        W18309  22.151  15.680   1.736
48495W        W18310  26.144  33.072  11.080
48496W        W18311   4.207  40.506   0.429
48497W        W18312  22.632  33.423  14.897
48498W        W18313  28.013  25.650   0.327
48499W        W18314  44.326  19.177  11.971
48500W        W18315  38.344  36.419  12.543
48501W        W18316  33.114  35.030   3.365
48502W        W18317  30.128  16.592  12.896
48503W        W18318  18.765  15.730  13.335
48504W        W18319  34.457   4.215  14.892
48505W        W18320  12.323  44.369   9.992
48506W        W18321  36.538  36.996  10.535
48507W        W18322  39.954  26.594  11.402
48508W        W18323  10.319   3.902  10.585
48509W        W18324   0.765  12.702   0.907
48510W        W18325  38.459  29.642  12.487
48511W        W18326  16.695  37.882   4.598
48512W        W18327  33.426  19.097   5.215
48513W        W18328  19.756  18.249   2.878
48514W        W18329  16.280   0.396  12.003
48515W        W18330   7.842  40.540   3.745
48516W        W18331  40.828  34.539  12.893
48517W        W18332  24.535  26.006   2.284
48518W        W18333  23.555  38.864  12.510
48519W        W18334  11.672   5.825  12.846
48520W        W18335  28.565   9.169  13.793
48521W        W18336  21.531  28.174  13.401
48522W        W18337   8.810  40.463  14.319
48523W        W18338   6.298  35.376  13.792
48524W        W18339  31.946  30.133   0.803
48525W        W18340  43.385  42.883  11.488
48526W        W18341  22.162  32.906  10.945
48527W        W18342  42.422  28.021  14.369
48528W        W18343  30.620  40.808  11.976
48529W        W18344  29.591   5.915  11.001
48530W        W18345  21.681   0.818   4.807
48531W        W18346  19.094  44.393   1.846
48532W        W18347   8.363  44.824  14.933
48533W        W18348   8.837  32.395  11.429
48534W        W18349  22.085  40.851   2.350
48535W        W18350  37.051  41.976   0.794
48536W        W18351  42.517   3.359   4.152
48537W        W18352  43.351  23.513   1.925
48538W        W18353  42.924  17.136   3.181
48539W        W18354  39.411   8.860  14.327
48540W        W18355  32.488  41.412   1.784
48541W        W18356  35.455   1.290  11.967
48542W        W18357  28.126  14.793  11.097
48543W        W18358   6.736  10.226  13.417
48544W        W18359  12.189  30.130   3.172
48545W        W18360  29.997  13.652  10.570
48546W        W18361  22.611  39.921   3.147
48547W        W18362  28.995  11.295  10.907
48548W        W18363  37.984  41.899  13.450
48549W        W18364   9.236  11.173  10.945
48550W        W18365  34.969  26.131  11.474
48551W        W18366  20.648  30.530   2.819
48552W        W18367  40.337  32.907   2.226
48553W        W18368  36.579  27.607   3.230
48554W        W18369  29.430  26.014  12.504
48555W        W18370  28.575   4.325  14.916
48556W        W18371   7.220   8.255  14.977
48557W        W18372  39.539   3.894   4.232
48558W        W18373  44.373   4.283  14.274
48559W        W18374  17.300  22.206   2.733
48560W        W18375  40.424  26.607  10.968
48561W        W18376  15.793   3.226  14.508
48562W        W18377  28.021  29.436  11.072
48563W        W18378  29.130  24.073   3.681
48564W        W18379  35.955  37.989   2.293
48565W        W18380  39.417  20.693   1.451
48566W        W18381   5.249  34.502  14.987
48567W        W18382   3.815   9.195  11.966
48568W        W18383   1.287  29.068   0.290
48569W        W18384  28.526   9.256  11.064
48570W        W18385  41.474  22.527   1.839
48571W        W18386  33.030   3.436   5.146
48572W        W18387  44.794  24.220  13.429
48573W        W18388   7.328  34.442   3.773
48574W        W18389  21.241   0.982   2.207
48575W        W18390  26.061   5.292   2.294
48576W        W18391  31.002  11.340  12.393
48577W        W18392  44.860  12.207   0.962
48578W        W18393  27.088  23.090  14.862
48579W        W18394  21.212  22.156  13.063
48580W        W18395   4.786  26.018   3.720
48581W        W18396   9.373  10.664  13.483
48582W        W18397  25.477  34.872   1.769
48583W        W18398   7.809  41.981   4.117
48584W        W18399  16.776   9.257  12.528
48585W        W18400  44.913  23.533  10.538
48586W        W18401  21.563  16.310  11.578
48587W        W18402  10.768  18.592  11.498
48588W        W18403  42.508  11.821  10.587
48589W        W18404  35.498  40.965   1.835
48590W        W18405  20.702   6.879  12.019
48591W        W18406  31.453  34.420   4.157
48592W        W18407  16.758  40.525  14.921
48593W        W18408  32.961  40.901   0.464
48594W        W18409  27.135  23.685   4.143
48595W        W18410   0.828  24.066   2.266
48596W        W18411  29.666   7.809  12.854
48597W        W18412   0.761  10.227   3.188
48598W        W18413  22.503  43.910  12.836
48599W        W18414  43.823  18.556  14.905
48600W        W18415  18.785  34.093  13.814
48601W        W18416  36.026  43.510   5.145
48602W        W18417  20.718   0.315  11.491
48603W        W18418  41.435   1.967  14.448
48604W        W18419  16.651  33.874  12.009
48605W        W18420   3.734   2.275  10.895
48606W        W18421  10.775  36.380   4.789
48607W        W18422  24.021   1.239   3.156
48608W        W18423  37.897   4.756  14.925
48609W        W18424  31.040  31.026  14.477
48610W        W18425  41.433  15.823   0.960
48611W        W18426  30.158  16.572   0.435
48612W        W18427  34.888  19.054   1.799
48613W        W18428   4.398  17.242  13.888
48614W        W18429   5.846  38.908   3.195
48615W        W18430   3.716  16.274  10.549
48616W        W18431   1.422  12.152  11.019
48617W        W18432  20.264   3.912  14.465
48618W        W18433  34.103   2.756   3.732
48619W        W18434  38.552  41.935  12.360
48620W        W18435  21.685   7.828   3.661
48621W        W18436  17.643  29.537  10.626
48622W        W18437   2.378   8.277  13.845
48623W        W18438  39.007   6.337   4.619
48624W        W18439  37.575   9.266   1.835
48625W        W18440  22.142   3.398   2.348
48626W        W18441  38.389  33.099   3.369
48627W        W18442  10.182  15.701  11.420
48628W        W18443   5.922   4.409  13.538
48629W        W18444  29.567  43.857  10.938
48630W        W18445  34.992  30.974   0.739
48631W        W18446  36.865  28.072  10.627
48632W        W18447  22.660  42.003  14.473
48633W        W18448   7.398  23.598  13.826
48634W        W18449  40.305  12.718   1.828
48635W        W18450  12.151  37.052   3.359
48636W        W18451  33.913  21.045  13.366
48637W        W18452  44.937  30.455  12.861
48638W        W18453  33.588  29.935  13.897
48639W        W18454  15.137   8.227  13.964
48640W        W18455  27.081  39.357   4.822
48641W        W18456  34.983   8.815   0.804
48642W        W18457  43.771  10.781   4.185
48643W        W18458  34.430  36.551   4.180
48644W        W18459  23.040  27.640  12.022
48645W        W18460  29.431   3.314   5.224
48646W        W18461  25.577  26.106   2.225
48647W        W18462  13.716  21.242   2.823
48648W        W18463  26.161  18.561  12.954
48649W        W18464  12.269  21.602  11.963
48650W        W18465   6.777  33.601   3.156
48651W        W18466  42.517  43.308  10.899
48652W        W18467  16.130  18.656   3.219
48653W        W18468   0.815  35.102  14.967
48654W        W18469  10.155  12.801  10.145
48655W        W18470  37.868  27.130   2.292
48656W        W18471  22.507  25.662  11.969
48657W        W18472   3.730  34.488  12.413
48658W        W18473  24.085  15.588  13.414
48659W        W18474  17.555   8.743  12.987
48660W        W18475  44.424  33.587   4.758
48661W        W18476   8.371  36.431   0.314
48662W        W18477  39.998   6.767  12.519
48663W        W18478  10.640  25.520   0.286
48664W        W18479  41.400  20.134  11.034
48665W        W18480  27.192  33.398   4.677
48666W        W18481  17.233  43.348   4.838
48667W        W18482  43.350   3.835   1.825
48668W        W18483   4.762  38.503  11.025
48669W        W18484  36.074  19.086  14.861
48670W        W18485  24.146  18.732  10.453
48671W        W18486   8.382  11.797   0.345
48672W        W18487  44.817  38.899  14.372
48673W        W18488   4.792  33.049  13.887
48674W        W18489   2.468   6.336  13.406
48675W        W18490  12.232  21.263  10.525
48676W        W18491  11.223   2.294  12.450
48677W        W18492   3.292  36.880  12.054
48678W        W18493  19.579   1.418  14.376
48679W        W18494  21.597  19.563  11.962
48680W        W18495   2.396  22.014   2.664
48681W        W18496   5.324   6.739   0.770
48682W        W18497   4.390  12.272   2.814
48683W        W18498  21.117  25.587   4.192
48684W        W18499  13.721   8.220   1.802
48685W        W18500  11.650  13.684   1.249
48686W        W18501  22.102  32.975   2.899
48687W        W18502  21.559  11.623   1.431
48688W        W18503  20.663  41.528  10.504
48689W        W18504  38.408  40.948   2.292
48690W        W18505   9.191  25.599  13.045
48691W        W18506  12.322  10.811   4.226
48692W        W18507   4.361  42.016  11.456
48693W        W18508  27.011  15.228  10.967
48694W        W18509  42.831  29.051  13.323
48695W        W18510  25.096  32.886  14.296
48696W        W18511  26.152  37.014  11.454
48697W        W18512   6.342  27.639   0.439
48698W        W18513  28.111  31.640   3.318
48699W        W18514  24.137  31.648  12.097
48700W        W18515  28.007  29.048  10.576
48701W        W18516  23.558   1.950  14.012
48702W        W18517  36.988  15.168  10.914
48703W        W18518  30.618  33.895   3.273
48704W        W18519   1.746  43.272  13.042
48705W        W18520  40.898  11.783   3.375
48706W        W18521  41.923  27.955   1.236
48707W        W18522   5.196   2.941   1.407
48708W        W18523  27.655   3.427  13.035
48709W        W18524  42.829  11.279   3.255
48710W        W18525  10.144  14.773  11.880
48711W        W18526  24.709  13.122  11.066
48712W        W18527  13.724   9.750  11.872
48713W        W18528  17.169  23.533  12.457
48714W        W18529  28.455  15.216  13.397
48715W        W18530  14.273  30.503  11.420
48716W        W18531   2.386  12.307   0.756
48717W        W18532  40.343  34.529   0.437
48718W        W18533  27.145  39.473  14.843
48719W        W18534  16.277  41.436  12.859
48720W        W18535   9.287  29.501  14.843
48721W        W18536  42.487   8.673  11.979
48722W        W18537  34.520  28.972   3.763
48723W        W18538  21.253   3.385  14.360
48724W        W18539  27.942  26.107   3.333
48725W        W18540  17.606  17.157  13.527
48726W        W18541  16.670  15.721   4.206
48727W        W18542  12.198  30.941  12.356
48728W        W18543  12.762  31.002  13.945
48729W        W18544   2.947  33.612   4.342
48730W        W18545  41.328  19.712   4.818
48731W        W18546   1.931  13.190  11.074
48732W        W18547  30.579   3.297   3.361
48733W        W18548  28.565  32.006  11.998
48734W        W18549  20.615  41.303  10.937
48735W        W18550  29.154  44.832  13.335
48736W        W18551  25.116  11.645   0.850
48737W        W18552  12.202  10.265  14.400
48738W        W18553  15.327  29.992   1.782
48739W        W18554  19.057  28.954   3.381
48740W        W18555   9.154   2.343   4.757
48741W        W18556  12.323  19.732  14.807
48742W        W18557  40.507  42.843   3.798
48743W        W18558   8.809  10.156   1.852
48744W        W18559   5.933  10.325  13.943
48745W        W18560  24.043  10.298  10.135
48746W        W18561   8.687  29.584   3.821
48747W        W18562  37.562   1.413  14.761
48748W        W18563   5.711  10.224  11.940
48749W        W18564   3.919  12.206   0.320
48750W        W18565  16.694   2.284  12.370
48751W        W18566  42.898  31.899   1.861
48752W        W18567  38.431  35.557   4.159
48753W        W18568  15.641   3.426   4.202
48754W        W18569  24.974  21.522   4.213
48755W        W18570  35.504  25.004  13.843
48756W        W18571  30.916  40.311   3.350
48757W        W18572  43.450  30.030   3.722
48758W        W18573  42.007  15.091  14.289
48759W        W18574  26.623  40.026  13.914
48760W        W18575  17.285  35.073   4.794
48761W        W18576  31.472  16.753   3.848
48762W        W18577  25.619   8.363   1.352
48763W        W18578   6.917  33.489  13.521
48764W        W18579  37.539  26.562   0.815
48765W        W18580  23.607   0.443  14.975
48766W        W18581  13.628  32.017  13.819
48767W        W18582  38.363  27.020  13.314
48768W        W18583  16.774  29.029   2.376
48769W        W18584  29.975  42.490  13.858
48770W        W18585  34.553  17.565  13.480
48771W        W18586  30.000   3.386   2.687
48772W        W18587   0.366  24.541   4.276
48773W        W18588   7.675  29.008  14.409
48774W        W18589  36.021   9.163  11.564
48775W        W18590  44.396  22.009   3.697
48776W        W18591  30.032  39.533   0.819
48777W        W18592  13.152  41.471  10.916
48778W        W18593  10.747  26.580  10.160
48779W        W18594   8.803  43.493   2.696
48780W        W18595  42.876  43.343   4.810
48781W        W18596  20.220  13.604   2.314
48782W        W18597  20.751  40.993  13.526
48783W        W18598  28.058  12.685  13.436
48784W        W18599  32.904  19.757  12.446
48785W        W18600  38.330  40.304   3.653
48786W        W18601  10.762  40.872  12.908
48787W        W18602   1.755   1.372  11.098
48788W        W18603   7.668  39.883   4.705
48789W        W18604  18.214  35.433   0.301
48790W        W18605  38.397   0.855   1.307
48791W        W18606   4.347   3.913   2.221
48792W        W18607  10.250  33.130  11.471
48793W        W18608  27.557  35.097   0.285
48794W        W18609   9.361  18.281  10.418
48795W        W18610  25.974   4.208  14.323
48796W        W18611  41.895   4.925  11.080
48797W        W18612  27.078  30.424   2.401
48798W        W18613  34.485  22.036  12.988
48799W        W18614  37.062  38.478  14.287
48800W        W18615  29.027   1.271   0.416
48801W        W18616   9.161  33.536   1.336
48802W        W18617  37.425  13.822  12.846
48803W        W18618  29.026  11.759  12.499
48804W        W18619  34.026  18.139   1.415
48805W        W18620  18.614  19.629  12.040
48806W        W18621  21.564  18.095  14.894
48807W        W18622  16.316  30.001  10.914
48808W        W18623  22.021   3.395  13.842
48809W        W18624  26.605  28.138   3.312
48810W        W18625  40.411  14.663   0.887
48811W        W18626  28.936   8.298   2.190
48812W        W18627  27.626  39.998  13.051
48813W        W18628  36.845  44.776  11.564
48814W        W18629  26.200  32.891  13.858
48815W        W18630  44.351  42.033   3.686
48816W        W18631  37.984  22.221  11.121
48817W        W18632   2.273  27.676  14.499
48818W        W18633   5.782   3.275   2.842
48819W        W18634  25.703  36.944  10.639
48820W        W18635  35.954  36.077  11.417
48821W        W18636   7.410  13.326  13.827
48822W        W18637  25.515  14.179   1.927
48823W        W18638  26.489  40.327  13.533
48824W        W18639  23.115  25.098   3.712
48825W        W18640  40.337  18.586   1.812
48826W        W18641  31.489  32.973   4.240
48827W        W18642   2.831  41.016  10.971
48828W        W18643   6.185   3.219  11.007
48829W        W18644  31.075  27.658   4.748
48830W        W18645  21.031   4.310  13.908
48831W        W18646  14.783  31.010   4.239
48832W        W18647  36.843  16.171  12.381
48833W        W18648  22.519   0.779  13.835
48834W        W18649  20.718   7.742  11.557
48835W        W18650  40.444  25.479  10.930
48836W        W18651   4.802  17.089   4.767
48837W        W18652  12.315  19.538   0.787
48838W        W18653  16.801  18.228  14.304
48839W        W18654   7.776   5.287   2.833
48840W        W18655  43.007  23.108  12.033
48841W        W18656  37.883  19.096  14.359
48842W        W18657   0.855  18.558  10.579
48843W        W18658  33.941  25.630  11.053
48844W        W18659  20.090  36.527   3.668
48845W        W18660   9.287  24.506   4.738
48846W        W18661  35.074  14.252   2.322
48847W        W18662   8.678  44.969  10.948
48848W        W18663  23.111  10.733  10.527
48849W        W18664  31.039   4.378   0.799
48850W        W18665  19.226  25.186   4.617
48851W        W18666  38.022  14.785   4.213
48852W        W18667   8.777  38.413  11.983
48853W        W18668  20.243  31.029  11.013
48854W        W18669  36.978  44.406   0.819
48855W        W18670  37.891  16.630   4.834
48856W        W18671  18.186  12.803  11.411
48857W        W18672  19.193  40.859   3.243
48858W        W18673  20.755  35.552  13.886
48859W        W18674  35.602  44.952   3.691
48860W        W18675  39.429  38.010   1.921
48861W        W18676  33.509   0.805  10.151
48862W        W18677   7.213  35.598  12.430
48863W        W18678  14.669  32.071  11.455
48864W        W18679  32.044  21.237  10.906
48865W        W18680  18.192   3.897  10.607
48866W        W18681  20.685   1.362   2.391
48867W        W18682  28.541  31.422   0.912
48868W        W18683  44.800  32.586  14.311
48869W        W18684   6.815  36.032   4.777
48870W        W18685  23.636  12.749  13.827
48871W        W18686   2.352  37.870   3.705
48872W        W18687  11.178   4.845  13.367
48873W        W18688   7.683  19.133  12.898
48874W        W18689  12.727  40.865   3.659
48875W        W18690   8.400  40.974  10.955
48876W        W18691  19.547   6.310  13.826
48877W        W18692   7.416  31.485   4.323
48878W        W18693  30.039   3.938  13.018
48879W        W18694  38.468  15.221  12.847
48880W        W18695  40.468   6.688   2.862
48881W        W18696   7.296  28.035  11.583
48882W        W18697  44.377  26.091   1.210
48883W        W18698  29.450  12.689   3.666
48884W        W18699   4.247  20.136  14.415
48885W        W18700   2.879  12.721  11.026
48886W        W18701   4.941   9.869   1.307
48887W        W18702  21.743  20.134  10.593
48888W        W18703  29.089  10.658   2.746
48889W        W18704  15.704  33.067  12.978
48890W        W18705  28.623  42.919   0.915
48891W        W18706  30.462  11.206   4.197
48892W        W18707  25.552  27.995  10.423
48893W        W18708  10.744  37.080   2.323
48894W        W18709  27.045  26.662  10.471
48895W        W18710  19.192  32.003  13.968
48896W        W18711   4.906  12.638  13.368
48897W        W18712   4.279   0.838  11.949
48898W        W18713  11.205  16.159   4.154
48899W        W18714  31.113  36.931   3.760
48900W        W18715  20.037  10.857   2.179
48901W        W18716  35.037  16.259   4.773
48902W        W18717  12.158  33.058   2.821
48903W        W18718   5.286  25.558   2.286
48904W        W18719  22.997  25.131  10.622
48905W        W18720  24.518   4.205  12.049
48906W        W18721   4.238  26.570   1.239
48907W        W18722  24.575  32.053   0.840
48908W        W18723  18.234  44.433  13.995
48909W        W18724  22.225  14.225   2.184
48910W        W18725   9.284  13.782   1.424
48911W        W18726  31.048   6.906  12.827
48912W        W18727  22.721   4.897   1.296
48913W        W18728   8.730   8.801   0.381
48914W        W18729  34.989  12.250  12.909
48915W        W18730  40.438   7.387  10.121
48916W        W18731  38.985  30.545   0.297
48917W        W18732  35.876  21.695   2.281
48918W        W18733  11.364  27.187   0.910
48919W        W18734  18.134  13.164   4.239
48920W        W18735  13.815   4.917  13.316
48921W        W18736  43.423  17.191   0.832
48922W        W18737  31.153  30.909   1.746
48923W        W18738  24.146  41.944   0.892
48924W        W18739  14.225  16.787  13.339
48925W        W18740  35.592   2.749  13.380
48926W        W18741  34.968  42.416   1.224
48927W        W18742  29.655  37.042   3.162
48928W        W18743  32.404  15.583   3.276
48929W        W18744  39.861  23.685   0.293
48930W        W18745  14.333  11.661   4.323
48931W        W18746  34.546  31.564  12.960
48932W        W18747  36.915  12.785   1.413
48933W        W18748  10.366  22.109  14.764
48934W        W18749  32.970   9.743  12.374
48935W        W18750  29.448  27.550   2.689
48936W        W18751  41.791  25.559   3.175
48937W        W18752  31.583  31.531   0.857
48938W        W18753  13.834  37.347   3.741
48939W        W18754  30.479  44.840   3.283
48940W        W18755  34.384  38.910  12.880
48941W        W18756   4.395  25.123   2.662
48942W        W18757  42.888  28.002   5.229
48943W        W18758  39.370  43.011  12.962
48944W        W18759  18.103  22.181   1.719
48945W        W18760  16.288  27.494  11.936
48946W        W18761  23.020  28.654  13.806
48947W        W18762   8.320  20.269  13.480
48948W        W18763   0.296  17.723   2.284
48949W        W18764   4.803   7.823   0.833
48950W        W18765   6.908   1.396  13.356
48951W        W18766  40.989   4.447   0.297
48952W        W18767  35.554  13.124   1.730
48953W        W18768  32.101  40.493  13.027
48954W        W18769  17.612  35.451   3.759
48955W        W18770  10.818  42.818   4.714
48956W        W18771  17.581  17.098   1.361
48957W        W18772  16.117  29.962  13.483
48958W        W18773  35.012   3.311  11.553
48959W        W18774  31.974  29.028   2.231
48960W        W18775  40.872   0.874   9.658
48961W        W18776  20.675  34.607   2.799
48962W        W18777  23.553  10.845  10.570
48963W        W18778   2.293  31.421   3.378
48964W        W18779  35.553  20.724  13.352
48965W        W18780   0.764  32.894   1.784
48966W        W18781  21.623  18.614  13.876
48967W        W18782  21.217  11.866   2.395
48968W        W18783  40.469  34.569   3.829
48969W        W18784  12.353  11.293  11.393
48970W        W18785  22.641  43.516  10.453
48971W        W18786   0.903   3.716   4.780
48972W        W18787  33.489  32.141  13.803
48973W        W18788   0.465   3.931  13.045
48974W        W18789  23.491   4.910   4.741
48975W        W18790  16.197   0.768   3.696
48976W        W18791  35.413  37.843  12.953
48977W        W18792  39.974  14.244   1.921
48978W        W18793  35.977  16.749  12.348
48979W        W18794  42.389  25.663   3.655
48980W        W18795   3.406  21.056  13.476
48981W        W18796   0.431  37.517   1.253
48982W        W18797  22.158  44.455   2.816
48983W        W18798  40.021  25.997   4.200
48984W        W18799   9.325  37.853   3.630
48985W        W18800  44.493  15.116   1.441
48986W        W18801  42.458  27.110   1.745
48987W        W18802  23.148   6.294   0.818
48988W        W18803  10.778   9.686  12.519
48989W        W18804   6.184  37.954  11.601
48990W        W18805  17.616  22.129  13.806
48991W        W18806  27.662  21.054   2.822
48992W        W18807   6.794  40.426   0.929
48993W        W18808  22.557  37.505   4.289
48994W        W18809  40.500  24.647   0.463
48995W        W18810  39.884   2.255  11.108
48996W        W18811  35.873  20.558   3.728
48997W        W18812  33.938  39.889   1.402
48998W        W18813   1.775  33.093  12.837
48999W        W18814  39.486  37.045  12.406
49000W        W18815  26.569  24.049  10.441
49001W        W18816   0.876  28.448   2.250
49002W        W18817  30.496   0.335  11.499
49003W        W18818  17.583  31.408   1.761
49004W        W18819  42.901  19.545  11.603
49005W        W18820  16.093  42.788   0.851
49006W        W18821  19.683   4.912  10.418
49007W        W18822   4.819  42.981   2.715
49008W        W18823   4.777  10.856   2.758
49009W        W18824  37.021  17.574  13.418
49010W        W18825  26.611  41.472   1.441
49011W        W18826  23.666  19.594   2.691
49012W        W18827  13.254  39.438  13.426
49013W        W18828  34.551  12.203  13.813
49014W        W18829  11.824  41.846   4.159
49015W        W18830   2.418   3.215   4.253
49016W        W18831  28.653  34.448   4.241
49017W        W18832  12.159  33.565   2.361
49018W        W18833  36.485  17.173  13.380
49019W        W18834  27.454  24.054   4.709
49020W        W18835   3.719  21.631  11.485
49021W        W18836  34.606  21.136   2.804
49022W        W18837  19.618  24.710   1.379
49023W        W18838  38.367  38.926   0.792
49024W        W18839  15.765  36.388  11.883
49025W        W18840  40.976  42.804   0.954
49026W        W18841  34.913  44.488   4.731
49027W        W18842  31.433  12.184  12.497
49028W        W18843  11.241  31.407   1.801
49029W        W18844  22.190  20.172   3.380
49030W        W18845  27.131  34.534   3.189
49031W        W18846   1.251  43.007  10.426
49032W        W18847  44.407  14.144   4.622
49033W        W18848  16.612  22.509  12.847
49034W        W18849   8.224   5.916   1.739
49035W        W18850  23.020  39.864  11.511
49036W        W18851  44.416  38.906   4.775
49037W        W18852  32.637  16.093  13.795
49038W        W18853  30.511  19.142   4.115
49039W        W18854  37.834  37.441   3.746
49040W        W18855  16.303  10.247   2.763
49041W        W18856  13.656   6.302  10.584
49042W        W18857  37.964  12.733   2.367
49043W        W18858  13.194  42.361  10.625
49044W        W18859  24.163  20.759  14.483
49045W        W18860  38.526   5.878   4.679
49046W        W18861  24.583  19.625   3.225
49047W        W18862  10.271  35.960  13.458
49048W        W18863   2.287  29.491   4.139
49049W        W18864  40.011  16.126  12.000
49050W        W18865  11.148   9.863  13.057
49051W        W18866  39.324  24.588   4.600
49052W        W18867   6.695   6.389  10.964
49053W        W18868  24.170  15.801   2.675
49054W        W18869  35.489  20.744   1.880
49055W        W18870   9.245  26.075   1.757
49056W        W18871  42.485  36.380   3.296
49057W        W18872  26.614  13.335   4.259
49058W        W18873  12.705  15.114   3.375
49059W        W18874  13.290  16.710   0.833
49060W        W18875  34.061  14.195  12.482
49061W        W18876   0.334  28.475   1.402
49062W        W18877   1.750  29.526   0.437
49063W        W18878   5.689  30.019  12.520
49064W        W18879  33.024  43.999  11.955
49065W        W18880   5.698  15.633  12.892
49066W        W18881  33.934  11.712  12.078
49067W        W18882  13.693  32.575  14.858
49068W        W18883  36.851  29.993   0.324
49069W        W18884  37.525  44.422   2.747
49070W        W18885  42.929   1.282  14.512
49071W        W18886   5.818  13.199   2.361
49072W        W18887  27.471   9.851  12.452
49073W        W18888   5.920   3.308  10.642
49074W        W18889  32.588  29.974  11.873
49075W        W18890   7.279  33.394   1.829
49076W        W18891  30.124  32.091  14.486
49077W        W18892  39.472  15.668   3.693
49078W        W18893  38.412  44.893   0.301
49079W        W18894  13.247  28.636   0.266
49080W        W18895   4.729  42.444  11.378
49081W        W18896  15.178   9.678  13.527
49082W        W18897  11.839  21.721   1.756
49083W        W18898  17.128  22.663   2.771
49084W        W18899  44.371  22.516  10.974
49085W        W18900  16.225   8.366   0.299
49086W        W18901  42.020  11.305   4.143
49087W        W18902  35.484   3.755   3.315
49088W        W18903   7.397  16.182   1.437
49089W        W18904  37.061  41.809   2.840
49090W        W18905  25.006  42.301  14.906
49091W        W18906  26.662  24.189  12.446
49092W        W18907   4.331  39.838  13.836
49093W        W18908  22.117  25.032  12.831
49094W        W18909   2.256  31.409   0.433
49095W        W18910  23.065  40.453  12.486
49096W        W18911  36.582  23.110   0.350
49097W        W18912  15.681  42.482  11.013
49098W        W18913  28.610  26.184  11.586
49099W        W18914  12.300  26.003  12.884
49100W        W18915  14.310  36.459   5.156
49101W        W18916  15.667  12.311  13.953
49102W        W18917   8.405  41.322  11.586
49103W        W18918  19.547  34.027  11.871
49104W        W18919  33.118  16.294   3.280
49105W        W18920  15.243  22.104  14.878
49106W        W18921   2.294  31.615  12.052
49107W        W18922  15.619  43.417   4.623
49108W        W18923  24.206  23.125  11.126
49109W        W18924   0.764  21.672  13.061
49110W        W18925  31.918  32.577   3.153
49111W        W18926  20.737  23.566  14.944
49112W        W18927  16.733  25.077  11.550
49113W        W18928   0.261   9.286  14.339
49114W        W18929   7.794  20.114   0.862
49115W        W18930   1.303  32.114  10.532
49116W        W18931  20.733  30.036   3.776
49117W        W18932  15.280  20.084  14.441
49118W        W18933  28.161  16.798  14.440
49119W        W18934  36.488  16.730  12.929
49120W        W18935  42.785  16.217  11.504
49121W        W18936  40.886  10.217  14.901
49122W        W18937  30.006  23.561  14.356
49123W        W18938   1.869  24.202   0.761
49124W        W18939  15.165   1.442  14.316
49125W        W18940  14.291   6.399   5.251
49126W        W18941  12.136  30.597  14.481
49127W        W18942   8.400  23.050   1.416
49128W        W18943  38.489  16.749   2.756
49129W        W18944   6.288  28.947   2.728
49130W        W18945  42.896  38.921   2.234
49131W        W18946  28.453  17.623  12.825
49132W        W18947   5.902  14.763   4.192
49133W        W18948  18.709  25.055  10.602
49134W        W18949  36.426   9.159   2.249
49135W        W18950  26.618   9.205   0.820
49136W        W18951  23.996  18.608   0.802
49137W        W18952  18.073  25.535  11.075
49138W        W18953  31.642  32.446   4.830
49139W        W18954   4.862  32.099  11.926
49140W        W18955  23.551   9.683  11.999
49141W        W18956  29.452  35.903   0.397
49142W        W18957  22.596  44.320   5.187
49143W        W18958  23.182  11.361   2.393
49144W        W18959  10.864  10.234  10.110
49145W        W18960   5.781  34.881   0.767
49146W        W18961   5.891   3.230  12.406
49147W        W18962  22.611  40.409   4.317
49148W        W18963   9.290   9.257  12.081
49149W        W18964  30.945  13.211  14.340
49150W        W18965  28.660   8.897   4.723
49151W        W18966  16.769  37.975  10.919
49152W        W18967  16.753  38.564   3.837
49153W        W18968  28.026  18.157   1.758
49154W        W18969  20.625  28.165   0.840
49155W        W18970   4.315   9.743   0.907
49156W        W18971  39.509  32.943   4.151
49157W        W18972   3.954  25.686  10.960
49158W        W18973  26.513  36.560  14.833
49159W        W18974  15.306   2.913  10.406
49160W        W18975  11.306  17.183   3.675
49161W        W18976  16.610   7.871   0.809
49162W        W18977  23.697  26.997   4.351
49163W        W18978  41.856  34.555  10.485
49164W        W18979  17.701  14.815   2.309
49165W        W18980   7.873  22.686  14.904
49166W        W18981   6.297  19.535   2.246
49167W        W18982  19.761  35.966   1.315
49168W        W18983  14.204  28.979   0.401
49169W        W18984  11.200  20.158   3.254
49170W        W18985  21.664  17.730  11.515
49171W        W18986  22.660  40.878   0.288
49172W        W18987   7.340  43.956   2.763
49173W        W18988  43.270  26.075  14.277
49174W        W18989   3.304  27.178  11.121
49175W        W18990  18.086   4.790  10.497
49176W        W18991  28.655  26.049   4.136
49177W        W18992  32.897  26.077   0.344
49178W        W18993   8.385  25.112  13.435
49179W        W18994  23.236  15.636   3.331
49180W        W18995   3.222  31.614  14.787
49181W        W18996  18.671  13.765   3.163
49182W        W18997  10.789  25.674  12.434
49183W        W18998  26.490   6.736   0.451
49184W        W18999   1.965   6.757  11.980
49185W        W19000  25.661  36.848   3.376
49186W        W19001  44.835  38.414   2.386
49187W        W19002  20.192  18.198  13.850
49188W        W19003   0.452  32.003   4.645
49189W        W19004  39.843  11.685   4.769
49190W        W19005   8.684  31.150   0.869
49191W        W19006  30.917  20.105   1.353
49192W        W19007  15.167  39.481  11.864
49193W        W19008  14.125  30.958   0.329
49194W        W19009  43.414   8.853  11.452
49195W        W19010  11.823  24.524  12.839
49196W        W19011  25.635  30.936   0.806
49197W        W19012   7.823   3.909  11.911
49198W        W19013  12.269  25.556   1.749
49199W        W19014  29.139   3.275  12.531
49200W        W19015  10.722  16.665   4.225
49201W        W19016  38.452   7.203   5.089
49202W        W19017  18.577  10.318  11.604
49203W        W19018   7.300  44.836  11.928
49204W        W19019  44.343  16.740   1.747
49205W        W19020  37.501  22.555  12.904
49206W        W19021  25.688   0.766  11.600
49207W        W19022  19.580   5.788   1.863
49208W        W19023  12.127  28.086  11.055
49209W        W19024   4.785  28.158  12.492
49210W        W19025  37.083  12.701  12.866
49211W        W19026  20.222  42.843   0.345
49212W        W19027  35.583  20.233  11.457
49213W        W19028  15.090  16.810   0.297
49214W        W19029  25.163  33.912  14.899
49215W        W19030  10.808  43.412   4.310
49216W        W19031  31.549  22.128  12.945
49217W        W19032  34.060  33.383   2.859
49218W        W19033  36.550  39.956  14.391
49219W        W19034  10.696  42.290   1.753
49220W        W19035  42.816  31.576  10.438
49221W        W19036  22.538  30.066  11.440
49222W        W19037  42.340  26.199  12.976
49223W        W19038  39.834  38.546  12.955
49224W        W19039   8.187   2.376   2.802
49225W        W19040  41.030  12.758   9.998
49226W        W19041  35.008  23.232   1.735
49227W        W19042   5.763  11.371  11.552
49228W        W19043  33.389  26.675   0.427
49229W        W19044   5.883  13.720  14.297
49230W        W19045   8.401  12.739  13.379
49231W        W19046  28.455  10.141   3.788
49232W        W19047  41.330  11.680  13.513
49233W        W19048  19.648  28.063  14.807
49234W        W19049  16.164  20.231   0.313
49235W        W19050   1.386  35.085  12.464
49236W        W19051  27.972  41.350  13.934
49237W        W19052   9.824  36.514  13.339
49238W        W19053  16.637  44.912  10.973
49239W        W19054  11.311  20.729  13.408
49240W        W19055   9.292  44.297   0.794
49241W        W19056  41.453  23.077   0.266
49242W        W19057  26.540  14.194  11.958
49243W        W19058  10.659  30.512  10.986
49244W        W19059   8.405  34.586  11.524
49245W        W19060  10.665  23.601   0.901
49246W        W19061   9.791  13.819  10.935
49247W        W19062  35.523  44.274  10.405
49248W        W19063  27.976  15.259  14.497
49249W        W19064  43.968  25.673  10.444
49250W        W19065  29.605  25.528   4.114
49251W        W19066  41.024  37.360   1.387
49252W        W19067  14.222  39.960   0.951
49253W        W19068  20.603  15.227   1.392
49254W        W19069   4.821  37.369  11.449
49255W        W19070  36.975  13.709  14.421
49256W        W19071  15.650   8.662   2.387
49257W        W19072  26.514  11.810  14.350
49258W        W19073  12.689  28.600   0.802
49259W        W19074  10.642   6.303  10.559
49260W        W19075  27.047   0.264  10.970
49261W        W19076   9.718  31.522   4.758
49262W        W19077  30.940  25.481  10.511
49263W        W19078  38.984   8.286   3.779
49264W        W19079  25.524  40.524  13.939
49265W        W19080   3.720  16.284   3.657
49266W        W19081  23.704  42.455  12.044
49267W        W19082   9.228   1.940  14.371
49268W        W19083  37.075  33.085  13.820
49269W        W19084  38.076  44.311  14.505
49270W        W19085  44.375   2.378   2.726
49271W        W19086  32.576  11.193  11.463
49272W        W19087   1.944  33.022   3.655
49273W        W19088  44.830  12.151   1.793
49274W        W19089  37.434  44.270  14.942
49275W        W19090  23.564  17.199   1.731
49276W        W19091  39.541  22.591   4.143
49277W        W19092  30.428  10.345  12.864
49278W        W19093  27.037  42.480  13.885
49279W        W19094  15.802  18.606   4.811
49280W        W19095  41.998   2.406  12.342
49281W        W19096  25.106   9.317  11.014
49282W        W19097  13.160  16.568  13.956
49283W        W19098  22.713  43.834  11.962
49284W        W19099  17.747  41.501   0.838
49285W        W19100  11.626  40.397   1.263
49286W        W19101  14.640  21.198   1.906
49287W        W19102  42.014  38.012  11.076
49288W        W19103  40.893  36.045   1.314
49289W        W19104  13.175  44.936  14.025
49290W        W19105   2.771  32.955   2.673
49291W        W19106  28.561   6.734  11.456
49292W        W19107  22.605  28.067  14.435
49293W        W19108  41.373  40.970  14.360
49294W        W19109  39.356  30.610   0.907
49295W        W19110  20.627   2.310  12.489
49296W        W19111  12.210   1.406   4.141
49297W        W19112  37.087  27.550  11.403
49298W        W19113  26.658  28.080   2.881
49299W        W19114  10.872  41.307  13.829
49300W        W19115  34.511  21.024   0.243
49301W        W19116  18.614  19.646   4.740
49302W        W19117  22.154  14.698   4.239
49303W        W19118  24.694   3.881  11.974
49304W        W19119   9.186  15.127   1.339
49305W        W19120  41.294  17.749   4.750
49306W        W19121  41.350  27.641   2.330
49307W        W19122  15.799  33.086  12.453
49308W        W19123   3.749  12.180  10.908
49309W        W19124  41.498  14.258  12.024
49310W        W19125  42.449  38.465   4.136
49311W        W19126  32.546  35.035  10.041
49312W        W19127  13.315  27.062   0.449
49313W        W19128   3.362  17.742  11.517
49314W        W19129  33.073   9.718  12.044
49315W        W19130  32.019   4.876   3.276
49316W        W19131  42.435  25.542  12.886
49317W        W19132  15.292  31.128   4.681
49318W        W19133   6.785  24.186   2.290
49319W        W19134  13.269  16.206  11.997
49320W        W19135  22.711   9.787   3.780
49321W        W19136  12.795  18.124   1.279
49322W        W19137  23.180  40.898  10.480
49323W        W19138  24.676  17.717  14.927
49324W        W19139   1.789  22.522  11.389
49325W        W19140   0.916  33.968   1.871
49326W        W19141   9.832  22.210  12.341
49327W        W19142  14.212  31.432   0.327
49328W        W19143  44.313   5.398  11.491
49329W        W19144  19.168   9.324  14.971
49330W        W19145  41.458   7.709   1.275
49331W        W19146   4.810  37.441   3.650
49332W        W19147  25.025  10.685   3.812
49333W        W19148   6.259  37.921   2.235
49334W        W19149   9.204  14.290  10.026
49335W        W19150  14.328  23.695   0.834
49336W        W19151  12.130  10.380  13.951
49337W        W19152  17.292  18.725   1.711
49338W        W19153  21.117   7.407  11.475
49339W        W19154  39.874  36.501  12.944
49340W        W19155   9.841  37.380   3.762
49341W        W19156  40.859  19.117   3.294
49342W        W19157   4.313  36.974   0.376
49343W        W19158   2.799   0.433  10.929
49344W        W19159  23.540  22.572  14.458
49345W        W19160  19.702  21.684  10.418
49346W        W19161  36.968   5.423  13.493
49347W        W19162   8.790   6.396   3.379
49348W        W19163  34.530  19.705   4.297
49349W        W19164   6.916   1.917   1.352
49350W        W19165   3.885  17.569  12.483
49351W        W19166  15.117  39.810  10.620
49352W        W19167  26.113  37.485   0.483
49353W        W19168  26.658  36.962  10.959
49354W        W19169  23.224  21.561  11.942
49355W        W19170  16.684  15.594  12.862
49356W        W19171  16.656  19.072  12.015
49357W        W19172  28.588  34.957  14.971
49358W        W19173  29.472  37.481  12.884
49359W        W19174  36.460  32.953   4.620
49360W        W19175  29.063  36.394   4.657
49361W        W19176  43.815  23.536   0.942
49362W        W19177  12.775  18.576  10.451
49363W        W19178   8.332  26.591   3.206
49364W        W19179  16.227  18.648  14.992
49365W        W19180  30.647   3.223  14.430
49366W        W19181  38.430  36.366   0.755
49367W        W19182  41.417   3.430   2.388
49368W        W19183   6.748   9.237   0.891
49369W        W19184   6.272  10.789  11.993
49370W        W19185  15.278  38.925  10.431
49371W        W19186  28.948  19.579   0.338
49372W        W19187  32.954   3.774  14.029
49373W        W19188  29.548   0.833   5.245
49374W        W19189  26.594  35.509  14.867
49375W        W19190   2.308  33.601   5.120
49376W        W19191   9.790  41.017   9.506
49377W        W19192  41.298  17.102   1.401
49378W        W19193  41.303  34.450   0.791
49379W        W19194  11.351  40.369  11.036
49380W        W19195  14.208  27.107   0.938
49381W        W19196  12.699  44.305  14.396
49382W        W19197  16.264  42.364   0.843
49383W        W19198  40.483  11.828  13.842
49384W        W19199   8.804  42.353  13.033
49385W        W19200  25.038  35.384   1.816
49386W        W19201  13.678  40.828  12.863
49387W        W19202  20.100  14.733  11.541
49388W        W19203  31.640  17.608   2.241
49389W        W19204  26.175   9.324   1.843
49390W        W19205  31.544   5.280   1.274
49391W        W19206  31.031  17.616  11.371
49392W        W19207  38.378  21.104   0.939
49393W        W19208  10.690   4.204  11.476
49394W        W19209  20.740   0.366   4.778
49395W        W19210  14.319  29.582   4.716
49396W        W19211  19.098  13.123  14.476
49397W        W19212  42.809  13.210   4.127
49398W        W19213  16.765  35.005   1.720
49399W        W19214  44.266   9.732  12.573
49400W        W19215  15.195  28.025  14.489
49401W        W19216  16.091  42.934  12.463
49402W        W19217   7.813  17.731   3.374
49403W        W19218   3.796   8.342   0.942
49404W        W19219   5.918  27.585   3.781
49405W        W19220  32.457   1.852  10.923
49406W        W19221  14.149   7.171   1.394
49407W        W19222  25.001   6.879  12.533
49408W        W19223   2.336  40.438   4.752
49409W        W19224  32.601  28.974   3.187
49410W        W19225  32.974  27.159   1.315
49411W        W19226  39.881  21.142  13.793
49412W        W19227  42.444  26.990   3.717
49413W        W19228  24.189   1.261   4.793
49414W        W19229  42.983  26.033   2.664
49415W        W19230  17.578  10.742  13.353
49416W        W19231  40.345  16.745  14.854
49417W        W19232  26.528  29.034  13.045
49418W        W19233   8.784  14.737   2.664
49419W        W19234  27.171  29.484   4.279
49420W        W19235  37.434  14.317  13.907
49421W        W19236  29.024  10.787  10.999
49422W        W19237  25.523  40.033  12.565
49423W        W19238  27.175   8.385  11.421
49424W        W19239  12.817  37.889  10.528
49425W        W19240  16.235  27.461   0.350
49426W        W19241  38.882  35.050  14.831
49427W        W19242  43.286  36.475   4.134
49428W        W19243  26.636  17.071   0.353
49429W        W19244  13.239   1.914   3.759
49430W        W19245  24.162  16.621   1.393
49431W        W19246   3.890  22.713  10.603
49432W        W19247  17.575  36.991   4.229
49433W        W19248  32.472   2.243   0.414
49434W        W19249  42.874  27.026   1.792
49435W        W19250  43.510   0.325  14.929
49436W        W19251  34.398  14.218  13.463
49437W        W19252  27.500  14.251  14.380
49438W        W19253  11.316  36.970   2.200
49439W        W19254  22.627  15.766  14.898
49440W        W19255  41.984  27.664  11.936
49441W        W19256   1.275  30.497  10.515
49442W        W19257  40.813   6.836  10.631
49443W        W19258  31.911  31.102  12.873
49444W        W19259   0.799  42.947   3.739
49445W        W19260  10.832  18.728  10.072
49446W        W19261  28.970  20.061   3.309
49447W        W19262  23.101  28.978   2.345
49448W        W19263   1.464  43.016   1.343
49449W        W19264  14.811  23.153  12.409
49450W        W19265   6.202  29.924  14.851
49451W        W19266  35.397  33.537  10.547
49452W        W19267  31.568  22.616  13.915
49453W        W19268  32.507   7.383  10.404
49454W        W19269  44.261  12.665   1.313
49455W        W19270  40.814  35.368   4.811
49456W        W19271  20.611  21.064  11.002
49457W        W19272   9.394  27.604   1.333
49458W        W19273  37.380   5.867  11.439
49459W        W19274  41.920  43.443  12.019
49460W        W19275  24.006  31.557  12.399
49461W        W19276   8.835  26.702   1.308
49462W        W19277   2.964  40.036  11.083
49463W        W19278   0.884  41.862   3.792
49464W        W19279  39.550  17.730   0.363
49465W        W19280  10.675  41.318  11.954
49466W        W19281  41.327  30.551   0.821
49467W        W19282  20.621  35.514   3.824
49468W        W19283  26.140   4.383  12.947
49469W        W19284  33.607  21.100  14.328
49470W        W19285   2.862   1.457  13.996
49471W        W19286  29.090   3.371   4.833
49472W        W19287  31.936  13.230   3.842
49473W        W19288  23.232  20.163  13.807
49474W        W19289   9.672  17.796  13.421
49475W        W19290  43.417  31.513   2.865
49476W        W19291  10.248   8.694  13.946
49477W        W19292  40.435   6.862   5.805
49478W        W19293  26.620  12.789  12.847
49479W        W19294  33.962  17.236   2.334
49480W        W19295  44.318  28.085   2.885
49481W        W19296  21.165  35.588  14.476
49482W        W19297  20.742  15.797   0.834
49483W        W19298  25.596  19.150  13.800
49484W        W19299  26.954  39.006  10.533
49485W        W19300   3.859   7.376   2.726
49486W        W19301  28.083  20.085   4.638
49487W        W19302  44.952  41.933  13.044
49488W        W19303  39.542   9.826  11.482
49489W        W19304  29.971   5.211  13.544
49490W        W19305  19.222   9.234   3.743
49491W        W19306  35.379  11.236  12.348
49492W        W19307  41.838   4.852   3.808
49493W        W19308  44.272  40.941   4.117
49494W        W19309   8.303  44.980   0.859
49495W        W19310  13.344  14.770   2.183
49496W        W19311  42.997  39.489   4.813
49497W        W19312  39.407   9.793  13.979
49498W        W19313  36.982  44.900  13.428
49499W        W19314  43.833  12.203  11.875
49500W        W19315  40.380   4.906   2.857
49501W        W19316   2.787  40.864  13.980
49502W        W19317   6.813   4.719  13.920
49503W        W19318   5.743   3.427  12.998
49504W        W19319  22.044  30.960   3.146
49505W        W19320  32.954   9.368   1.700
49506W        W19321  14.114  12.237   0.956
49507W        W19322  26.020  37.363  12.437
49508W        W19323  17.236  15.179  13.892
49509W        W19324  28.447  21.098   3.238
49510W        W19325  33.028   7.860  14.453
49511W        W19326   4.932   4.287   3.713
49512W        W19327  43.458  37.906   3.347
49513W        W19328  14.788  24.030  13.843
49514W        W19329  33.455   7.332   2.217
49515W        W19330  25.587  42.946  13.055
49516W        W19331   1.466   4.257  12.999
49517W        W19332  15.640  43.868   4.717
49518W        W19333  13.780  29.120   3.254
49519W        W19334  20.527  41.350  11.886
49520W        W19335   2.283  29.598   3.860
49521W        W19336  44.996  42.490  12.469
49522W        W19337  22.580  33.954  11.382
49523W        W19338  10.641   8.894   4.290
49524W        W19339  32.948  24.103   3.207
49525W        W19340  35.061  11.777   4.217
49526W        W19341  18.752   6.914   4.631
49527W        W19342  42.350  31.904  12.836
49528W        W19343   0.845  36.511  10.538
49529W        W19344  22.026  26.075   1.237
49530W        W19345  25.618  37.562   2.698
49531W        W19346  16.223  15.598  14.803
49532W        W19347  11.341   3.949   0.429
49533W        W19348  16.135  42.341   3.724
49534W        W19349  33.001  23.000   0.882
49535W        W19350  41.878   1.244   1.918
49536W        W19351  38.822  13.258  11.587
49537W        W19352  14.695   7.808  12.531
49538W        W19353  28.941  30.090  12.077
49539W        W19354  10.877  26.523  13.467
49540W        W19355   9.353  42.505   2.301
49541W        W19356  30.962  40.008   3.770
49542W        W19357   5.769  35.078   2.188
49543W        W19358  44.347  37.005  13.471
49544W        W19359  30.043  41.481  14.860
49545W        W19360  41.786  22.714  14.298
49546W        W19361  17.757  41.344   0.442
49547W        W19362  16.681   7.695  12.410
49548W        W19363   8.366  37.027   0.433
49549W        W19364   0.886   5.257  11.992
49550W        W19365  38.940  21.076   4.828
49551W        W19366  40.976  44.922  14.433
49552W        W19367  39.523  15.266  10.599
49553W        W19368  25.690  33.535  14.906
49554W        W19369  37.491  21.176  11.868
49555W        W19370  35.485   4.891   1.809
49556W        W19371  11.809   6.825   0.780
49557W        W19372  40.874  37.346   4.195
49558W        W19373  17.748  41.930   4.809
49559W        W19374  20.093  39.942   2.690
49560W        W19375  39.455  16.629  11.504
49561W        W19376  32.525  26.460  10.125
49562W        W19377  26.134  37.057   3.256
49563W        W19378  30.054   3.228   4.143
49564W        W19379   5.778  17.778   1.749
49565W        W19380  31.034  36.517  10.596
49566W        W19381  18.774  37.450  14.296
49567W        W19382  25.041  25.076  14.995
49568W        W19383  13.259  13.325  12.566
49569W        W19384   8.766  10.702   0.864
49570W        W19385  24.204   0.765  10.474
49571W        W19386  25.977   9.869  11.419
49572W        W19387  41.944  20.740  12.830
49573W        W19388  11.269  13.211  13.033
49574W        W19389  20.672  38.935   2.311
49575W        W19390  13.829  42.968   1.743
49576W        W19391  39.063  41.394   1.408
49577W        W19392   7.299  15.144   0.343
49578W        W19393  26.549  16.239  12.864
49579W        W19394   4.941  32.401   3.248
49580W        W19395  10.154   3.316  10.417
49581W        W19396  15.196   1.351  10.596
49582W        W19397  44.453  42.514  13.871
49583W        W19398  23.093  26.015   1.732
49584W        W19399   5.692  13.290  12.427
49585W        W19400  17.121  37.964  14.973
49586W        W19401   2.722  36.468   3.711
49587W        W19402  26.656  29.977  13.898
49588W        W19403  31.984  18.721   5.096
49589W        W19404  24.009   0.375  13.385
49590W        W19405  42.392  31.036   4.727
49591W        W19406  21.686  21.578   4.751
49592W        W19407  16.185  25.688  11.425
49593W        W19408   4.848  28.565  12.023
49594W        W19409   9.707  18.175   3.346
49595W        W19410  11.623   0.872  14.764
49596W        W19411  37.878   9.306   0.393
49597W        W19412   1.947  31.947   3.269
49598W        W19413  41.474  34.984   3.767
49599W        W19414  38.057  21.021  11.589
49600W        W19415   1.779  18.689  10.912
49601W        W19416  12.745  28.033  14.456
49602W        W19417  36.459  26.186   0.794
49603W        W19418  15.677  31.445  11.981
49604W        W19419  27.677  19.694  12.916
49605W        W19420  18.656  17.796  12.938
49606W        W19421  33.902   3.812  13.051
49607W        W19422  32.575  30.911   0.791
49608W        W19423  43.925  16.598  14.374
49609W        W19424  37.351   9.374  13.946
49610W        W19425  17.254   2.721  12.468
49611W        W19426  28.460  11.784  14.926
49612W        W19427  22.125  23.720  11.870
49613W        W19428  13.255  27.153   3.753
49614W        W19429  15.700  39.994  10.485
49615W        W19430   1.449  25.673  14.010
49616W        W19431  35.588  33.556   3.243
49617W        W19432   5.229  29.593  14.939
49618W        W19433  35.519  11.160   0.297
49619W        W19434  41.871  14.159   0.284
49620W        W19435  33.532  43.776  13.310
49621W        W19436   9.644   4.377   0.838
49622W        W19437   5.355  43.015   1.858
49623W        W19438  33.500  13.108  13.484
49624W        W19439  40.985  40.927   3.259
49625W        W19440   0.757  39.359   2.746
49626W        W19441   0.470  41.873  10.528
49627W        W19442  41.474  33.042   4.725
49628W        W19443  11.709  43.983   4.734
49629W        W19444   7.174   2.910  13.021
49630W        W19445  35.577  40.409   4.790
49631W        W19446  34.428  27.085   2.768
49632W        W19447  43.964  11.804  12.072
49633W        W19448  27.453   1.379   4.257
49634W        W19449   8.365  20.248   1.286
49635W        W19450  32.951  43.866  13.864
49636W        W19451  35.524   9.158  11.883
49637W        W19452  11.138  10.219   0.391
49638W        W19453  18.153  12.729   2.662
49639W        W19454  22.065  28.933  11.891
49640W        W19455  13.351  18.235   2.374
49641W        W19456  41.309   4.253   3.708
49642W        W19457  13.145  43.902   3.169
49643W        W19458  11.160  31.472  12.989
49644W        W19459  30.959   1.284   1.846
49645W        W19460   4.251  32.558   2.696
49646W        W19461  25.684  13.628   3.346
49647W        W19462  39.376  13.324   2.398
49648W        W19463  32.986  36.516   3.631
49649W        W19464  21.735   1.430   1.225
49650W        W19465   3.904  41.890  11.126
49651W        W19466  41.826  33.061  11.972
49652W        W19467  28.632  43.932  11.951
49653W        W19468  24.671  36.001   4.718
49654W        W19469   9.267   3.232  13.800
49655W        W19470  25.578   9.205  12.040
49656W        W19471   2.470  10.346  13.806
49657W        W19472  19.622  17.605  12.413
49658W        W19473  19.760  11.632  10.556
49659W        W19474  24.644  15.697   1.704
49660W        W19475  14.273  28.438   2.738
49661W        W19476  21.586  13.716  11.512
49662W        W19477   5.706   9.729  10.923
49663W        W19478  17.702   4.363   1.432
49664W        W19479   1.825  34.867   2.884
49665W        W19480  22.016  25.120   2.720
49666W        W19481  40.506  38.356  11.511
49667W        W19482  30.441  33.028  10.984
49668W        W19483  22.040  16.178  14.427
49669W        W19484  11.245  38.445   0.745
49670W        W19485  25.676  18.647   2.195
49671W        W19486   2.858  36.087  11.862
49672W        W19487  23.670  20.150   5.249
49673W        W19488  17.638  42.342  11.003
49674W        W19489  19.769  20.076  11.440
49675W        W19490  23.991   3.450   3.787
49676W        W19491  18.161  21.736   2.811
49677W        W19492   8.709  14.779   1.234
49678W        W19493   4.889  21.068  11.885
49679W        W19494   3.238  38.472  14.505
49680W        W19495  38.564  42.900  14.434
49681W        W19496  38.041  35.002  13.320
49682W        W19497  30.638  16.224   3.282
49683W        W19498   5.738  40.400  11.887
49684W        W19499  23.060  25.092   2.275
49685W        W19500  32.527  31.452   4.817
49686W        W19501  28.047  22.636   2.893
49687W        W19502   8.241  10.793  13.008
49688W        W19503   9.211   8.831   1.740
49689W        W19504   8.840   7.840  11.882
49690W        W19505  37.364  28.538   1.816
49691W        W19506  41.865  36.366  14.884
49692W        W19507  39.432   8.245  12.434
49693W        W19508  41.402   9.738  13.548
49694W        W19509  30.605  13.745  13.433
49695W        W19510  20.112   1.862  11.931
49696W        W19511  41.984  13.120  12.554
49697W        W19512   7.851  19.542   9.948
49698W        W19513  16.744  12.794  14.876
49699W        W19514  29.040  23.523   3.724
49700W        W19515   6.278  15.265   2.348
49701W        W19516  43.859  32.070   4.256
49702W        W19517  41.475  12.272   1.289
49703W        W19518  24.089  23.668  13.823
49704W        W19519  23.502  25.507   0.948
49705W        W19520  44.003  18.203   0.456
49706W        W19521  38.863  28.597  12.372
49707W        W19522  13.692   1.350   0.362
49708W        W19523  21.108  10.853   3.325
49709W        W19524  34.399  20.623  11.920
49710W        W19525  35.546  44.289   1.803
49711W        W19526  44.460  33.888   4.661
49712W        W19527   8.291  24.081   1.850
49713W        W19528  20.058  39.550  11.100
49714W        W19529  31.928   1.451  13.978
49715W        W19530  36.421  14.756   4.194
49716W        W19531  38.498  30.041  11.446
49717W        W19532  24.108   2.844   1.748
49718W        W19533  31.530   7.281   3.382
49719W        W19534  20.140  26.964  13.344
49720W        W19535  24.029  17.558  14.765
49721W        W19536  32.057  28.121  11.595
49722W        W19537   5.897  16.682  14.775
49723W        W19538   2.740  11.656   3.767
49724W        W19539  22.036  31.075   1.705
49725W        W19540  44.272  17.210   4.350
49726W        W19541  34.493  44.846  11.993
49727W        W19542  32.517  16.084  13.046
49728W        W19543  43.958  44.914   1.863
49729W        W19544   1.247  30.091   1.908
49730W        W19545  18.258  44.480  11.013
49731W        W19546  23.006  15.196   0.259
49732W        W19547   8.697  23.542   4.815
49733W        W19548   4.766  41.881   0.743
49734W        W19549   4.864  15.761   1.306
49735W        W19550  40.453  12.254  13.997
49736W        W19551  31.977   6.757   4.210
49737W        W19552  29.530  44.267  13.307
49738W        W19553  27.515  26.134   4.773
49739W        W19554  39.852  39.324  11.041
49740W        W19555   8.371  20.125  11.548
49741W        W19556   0.417  42.013  13.515
49742W        W19557   5.429  18.548   1.712
49743W        W19558  20.652   6.802  12.471
49744W        W19559   8.835  22.199   0.379
49745W        W19560  29.627  31.073   2.755
49746W        W19561   1.960  29.579   1.443
49747W        W19562  19.616  30.157   3.250
49748W        W19563   6.799  15.589  14.360
49749W        W19564  30.646   8.797  11.871
49750W        W19565  26.620  22.602  12.897
49751W        W19566  23.006  29.453  14.815
49752W        W19567   8.226   9.824   0.891
49753W        W19568  43.337  21.718   4.120
49754W        W19569   8.400  11.171  13.455
49755W        W19570   9.394  33.087   3.827
49756W        W19571  10.758  29.656   2.380
49757W        W19572   8.812  21.632   4.670
49758W        W19573  20.765  37.005   2.707
49759W        W19574  10.241   5.385   0.347
49760W        W19575  39.470  25.614  12.847
49761W        W19576  11.752  26.954  13.340
49762W        W19577  28.484   3.928  14.030
49763W        W19578  21.263  28.146   3.785
49764W        W19579  34.521  28.050  11.417
49765W        W19580   1.461  38.543  12.499
49766W        W19581  22.599  17.202   1.426
49767W        W19582  26.075  20.620   0.463
49768W        W19583  18.190  29.929  12.466
49769W        W19584  39.892  11.248   3.646
49770W        W19585  21.528  22.110  10.505
49771W        W19586   2.931  12.261   2.880
49772W        W19587  17.105  16.278  11.380
49773W        W19588   2.897  16.612   2.709
49774W        W19589  22.556  24.079  10.070
49775W        W19590  31.095  37.963   0.785
49776W        W19591  26.564  12.217  11.549
49777W        W19592  33.508  37.901  12.387
49778W        W19593   1.869  34.529   4.663
49779W        W19594   2.422  17.239  12.961
49780W        W19595   0.331   2.960  13.024
49781W        W19596   2.950  30.019  13.032
49782W        W19597  15.083  30.125   0.383
49783W        W19598   8.330  41.944   2.778
49784W        W19599   3.887   6.302  10.517
49785W        W19600   0.461   5.289   4.684
49786W        W19601  42.959  26.632  12.848
49787W        W19602  21.088  24.229   0.896
49788W        W19603   0.321  41.367  10.626
49789W        W19604   8.677  19.725  11.420
49790W        W19605  18.664  43.416  10.589
49791W        W19606   7.792  12.212   4.809
49792W        W19607  37.999  36.095   4.747
49793W        W19608  43.812  15.647   1.885
49794W        W19609  35.451   3.394   3.825
49795W        W19610  19.744  30.926   0.786
49796W        W19611   7.667   7.334  12.507
49797W        W19612  20.073  32.513   4.758
49798W        W19613  31.133   7.812   1.323
49799W        W19614   9.157  39.022   4.832
49800W        W19615  28.962  41.515   4.827
49801W        W19616  18.132   0.785  13.839
49802W        W19617   9.675  32.511  10.569
49803W        W19618  32.137  38.955  12.349
49804W        W19619  17.608  27.546  12.444
49805W        W19620  10.710  39.423  10.513
49806W        W19621  19.574  35.457   2.772
49807W        W19622  17.664  32.959   2.302
49808W        W19623  26.081  25.214   3.759
49809W        W19624  22.698  16.239   2.274
49810W        W19625  41.036  38.446   0.465
49811W        W19626  37.473  20.028  11.417
49812W        W19627  23.992   6.742   3.371
49813W        W19628  17.223  38.939  10.030
49814W        W19629  21.690   9.656   3.287
49815W        W19630  36.376  10.785  12.878
49816W        W19631  30.577  21.022   3.636
49817W        W19632  18.284  34.395   1.382
49818W        W19633  26.077  26.045  14.321
49819W        W19634  36.964  10.804   3.348
49820W        W19635  43.967  29.577   2.809
49821W        W19636  33.073  25.633  10.617
49822W        W19637  11.779  41.874  11.987
49823W        W19638  27.549  24.218  12.362
49824W        W19639  20.571   7.870   0.921
49825W        W19640  25.705   8.770  11.440
49826W        W19641   0.904  18.214  13.994
49827W        W19642  14.125  31.519   1.368
49828W        W19643  44.980   1.903   4.216
49829W        W19644  38.397  43.321   0.810
49830W        W19645  40.470  23.598   3.323
49831W        W19646   3.312   9.318  13.827
49832W        W19647   0.493  20.741  13.464
49833W        W19648   8.891   0.338   2.412
49834W        W19649  39.973  44.781  14.352
49835W        W19650  10.229  33.600  11.533
49836W        W19651  32.034  12.188   1.763
49837W        W19652  35.604   6.839   2.827
49838W        W19653  30.615  16.735   2.227
49839W        W19654   0.977  39.361   1.244
49840W        W19655  23.072  10.359   2.348
49841W        W19656  39.455   2.298  10.424
49842W        W19657  40.523  35.411  12.464
49843W        W19658  18.549  16.232  13.932
49844W        W19659   2.877  33.380   2.317
49845W        W19660  28.599  29.573  10.494
49846W        W19661  31.023  20.552   4.613
49847W        W19662   5.269  42.336  11.024
49848W        W19663  18.241   2.782  10.620
49849W        W19664  41.793  23.083   4.252
49850W        W19665  17.671  44.873  13.835
49851W        W19666  40.959  10.737   0.900
49852W        W19667   4.260   0.776  14.340
49853W        W19668  28.178  17.562   2.200
49854W        W19669  25.085   4.384   1.230
49855W        W19670  24.516  10.151   0.371
49856W        W19671   1.940  10.877  14.384
49857W        W19672   7.791   4.361  12.921
49858W        W19673  27.559  10.145   3.154
49859W        W19674  39.316  37.490  13.548
49860W        W19675  12.820  19.224  13.467
49861W        W19676   0.383  42.406  10.999
49862W        W19677   6.245  12.271   1.258
49863W        W19678  35.567  29.666  11.430
49864W        W19679   2.312  40.395   1.708
49865W        W19680   4.236  43.986   1.933
49866W        W19681  37.034   4.707  14.015
49867W        W19682  22.236   9.259   2.210
49868W        W19683   4.773   5.328  11.062
49869W        W19684  33.906  19.146   3.331
49870W        W19685  35.527  10.381  12.853
49871W        W19686  43.903  44.967   0.245
49872W        W19687  38.042  33.598  13.514
49873W        W19688  14.761  36.880  11.494
49874W        W19689  40.819  29.546   3.752
49875W        W19690  28.012   6.761   2.410
49876W        W19691   5.726  21.191  11.922
49877W        W19692   5.252   6.310  13.338
49878W        W19693  23.169   6.317  10.909
49879W        W19694  17.286   6.292  12.939
49880W        W19695  37.357  31.566  13.406
49881W        W19696   6.914  11.293  13.022
49882W        W19697  11.298   8.899   4.622
49883W        W19698  40.360  22.695  13.833
49884W        W19699  33.458  40.378  14.863
49885W        W19700  31.124  34.895   4.816
49886W        W19701   0.861  15.805   0.409
49887W        W19702  29.955  11.793   0.744
49888W        W19703  26.015  30.009  13.875
49889W        W19704  10.204  36.412   4.765
49890W        W19705  25.710  25.216  14.008
49891W        W19706  30.590   3.421  10.975
49892W        W19707  21.070  37.979  12.983
49893W        W19708   0.878  31.476  12.454
49894W        W19709   6.248  30.058   1.298
49895W        W19710  25.699   2.418   3.763
49896W        W19711  37.034  15.299  13.809
49897W        W19712  28.007   9.823   4.831
49898W        W19713  16.227  10.279  13.994
49899W        W19714  16.146  31.599   3.367
49900W        W19715  34.009   7.216   1.781
49901W        W19716  23.002   1.882   4.622
49902W        W19717   7.897  36.900   2.889
49903W        W19718  29.648  31.428   1.267
49904W        W19719  15.179  20.626  10.482
49905W        W19720  19.563  15.289   3.720
49906W        W19721   1.383  16.751   2.363
49907W        W19722  27.633  42.374   2.842
49908W        W19723  33.465  23.159   2.804
49909W        W19724  26.548  18.084   4.157
49910W        W19725  42.812  40.522   1.426
49911W        W19726  29.160  27.098   1.373
49912W        W19727   2.461  32.001  12.026
49913W        W19728   1.832  38.503   1.356
49914W        W19729  39.989  34.877  14.958
49915W        W19730  10.870  14.769   3.286
49916W        W19731  29.553  21.122  11.064
49917W        W19732  33.115  44.315  13.309
49918W        W19733  14.121  36.419   4.159
49919W        W19734  11.239  20.553  13.952
49920W        W19735   4.300   5.371   3.755
49921W        W19736  12.616   7.213  13.800
49922W        W19737   5.364  22.563  10.148
49923W        W19738  32.103  37.085  10.982
49924W        W19739  22.527  26.064   2.294
49925W        W19740  40.467  21.190   3.734
49926W        W19741  16.791  22.998  10.956
49927W        W19742  37.055  21.705   0.383
49928W        W19743   5.901  12.696   0.311
49929W        W19744  15.721  10.166   1.889
49930W        W19745  15.757  21.153   0.938
49931W        W19746  40.916   6.886   1.788
49932W        W19747   7.292   8.295   0.947
49933W        W19748  42.438   7.356  14.930
49934W        W19749  27.009  32.132   3.746
49935W        W19750  19.249   0.888  14.855
49936W        W19751  26.125   1.774  13.461
49937W        W19752   1.271  24.229  11.099
49938W        W19753  11.642  44.928  12.423
49939W        W19754  22.049  40.852  12.825
49940W        W19755  24.977  30.437  13.489
49941W        W19756  35.519  15.753  10.956
49942W        W19757   4.904  16.242   3.753
49943W        W19758  34.482  29.451  13.892
49944W        W19759   2.899  10.761  10.565
49945W        W19760  23.519  43.838  13.517
49946W        W19761  38.480  30.553  14.450
49947W        W19762  32.435  33.393  10.899
49948W        W19763  24.664   3.293  13.336
49949W        W19764  41.486  19.695   0.867
49950W        W19765  36.410  10.211   1.729
49951W        W19766  40.905   3.943   4.139
49952W        W19767   8.234  16.762  13.460
49953W        W19768  36.353   3.216   1.250
49954W        W19769   9.178  27.073   2.786
49955W        W19770  36.006   6.691   2.864
49956W        W19771  11.863  37.921   4.763
49957W        W19772   9.351  13.640   3.706
49958W        W19773  24.155   6.380   2.776
49959W        W19774   1.757  10.841   1.747
49960W        W19775  20.257  15.663  14.831
49961W        W19776  33.123  11.798   4.346
49962W        W19777  14.271   4.379   4.190
49963W        W19778  25.568  34.519  11.053
49964W        W19779   7.761   5.257  13.486
49965W        W19780   9.178  35.887  14.938
49966W        W19781  24.532  27.486  13.866
49967W        W19782  17.748   1.790   0.748
49968W        W19783   7.359  25.688  13.931
49969W        W19784  13.198  35.882  13.796
49970W        W19785  28.661  16.281   2.787
49971W        W19786  27.539   5.358   1.788
49972W        W19787   3.762  20.626   2.329
49973W        W19788  11.811  18.094  11.028
49974W        W19789  43.461   7.739   4.257
49975W        W19790  20.597  32.622  14.774
49976W        W19791  15.586  26.499  12.370
49977W        W19792  44.957  35.054   2.838
49978W        W19793  30.097  39.961   2.711
49979W        W19794  24.224  14.743  13.388
49980W        W19795  20.049   7.411   4.216
49981W        W19796  28.136  28.107   0.847
49982W        W19797  44.866  22.046   3.379
49983W        W19798  29.943  28.070   2.379
49984W        W19799   3.883   8.882   0.450
49985W        W19800  31.017  35.599  11.444
49986W        W19801  17.570  11.713   1.268
49987W        W19802  25.188  17.125  12.074
49988W        W19803  11.750  35.900   2.892
49989W        W19804  40.966  42.795  11.503
49990W        W19805  40.534  40.870   4.118
49991W        W19806   6.260  31.476  14.389
49992W        W19807  43.952   4.372   4.790
49993W        W19808   7.309  42.414   1.833
49994W        W19809  14.177  21.666  13.966
49995W        W19810  26.501  27.509   0.279
49996W        W19811  18.131  22.028  11.109
49997W        W19812  19.205  21.645  12.025
49998W        W19813  26.050  28.998  10.537
49999W        W19814  33.517   1.802  12.476
50000W        W19815  26.120  21.146   2.303
50001W        W19816  14.125  27.070   3.156
50002W        W19817  13.188   6.887   4.757
50003W        W19818  21.665  25.179   1.257
50004W        W19819  40.978  38.073   4.637
50005W        W19820  40.455  29.560   0.314
50006W        W19821  27.092  37.923  13.437
50007W        W19822   7.289  34.473  10.502
50008W        W19823  33.918   7.851  10.409
50009W        W19824  10.725   1.861  10.449
50010W        W19825   1.290  34.369   4.344
50011W        W19826  28.979  36.593   2.680
50012W        W19827   7.700  11.349   2.361
50013W        W19828  43.832  44.355  11.005
50014W        W19829   0.453  31.049  10.463
50015W        W19830  34.596  30.465   3.357
50016W        W19831  42.414  23.571   1.739
50017W        W19832  36.358  33.904   4.255
50018W        W19833   8.245  16.155   4.618
50019W        W19834  13.177  11.217   0.868
50020W        W19835  20.084  11.832   3.368
50021W        W19836  34.028   7.340  13.350
50022W        W19837  14.187   1.265  10.964
50023W        W19838   8.180  25.198  10.581
50024W        W19839  17.593   9.314   0.287
50025W        W19840  12.705  32.019   3.287
50026W        W19841  42.929  14.209   2.854
50027W        W19842  17.096  17.285   4.734
50028W        W19843  34.910  19.080  12.055
50029W        W19844  22.674   6.911  14.332
50030W        W19845  23.507  38.848   3.836
50031W        W19846  14.625  16.627  10.943
50032W        W19847   8.362  15.121   1.390
50033W        W19848  38.864  33.514   5.139
50034W        W19849  30.427  24.664   3.319
50035W        W19850  37.916  10.189  11.485
50036W        W19851  42.827  38.540  14.024
50037W        W19852   5.329  24.059   4.833
50038W        W19853   5.808  31.440   4.331
50039W        W19854  13.633  31.642  11.469
50040W        W19855  34.462  39.531  11.381
50041W        W19856  22.049  17.146   2.260
50042W        W19857  17.637  12.274   4.264
50043W        W19858   2.862  42.032  12.550
50044W        W19859   1.295   7.250  12.044
50045W        W19860  36.462   8.277   0.958
50046W        W19861  14.663  26.000  10.932
50047W        W19862  34.004   7.417   0.346
50048W        W19863  21.246  11.368  10.501
50049W        W19864  30.584   4.859   0.464
50050W        W19865  13.185   8.237  12.382
50051W        W19866  42.469  15.208  11.554
50052W        W19867   2.303  19.735   0.768
50053W        W19868  44.376  17.281  10.607
50054W        W19869  44.899   6.896   4.767
50055W        W19870  34.086  35.962  12.002
50056W        W19871   0.458  23.078  10.434
50057W        W19872  26.586  14.728   0.318
50058W        W19873  26.057  11.237  10.959
50059W        W19874  25.598  37.533   5.201
50060W        W19875  30.107  14.699   4.289
50061W        W19876   2.428   9.229   1.757
50062W        W19877  25.132  22.623  13.441
50063W        W19878   9.874  40.326   1.706
50064W        W19879  11.149  26.012  14.328
50065W        W19880   7.881   1.450  14.767
50066W        W19881  36.538  15.326  13.308
50067W        W19882  33.561  28.494   0.884
50068W        W19883  42.336  29.945   2.353
50069W        W19884  41.519   3.891   4.687
50070W        W19885  10.772  24.677   0.387
50071W        W19886  34.928   2.825   0.429
50072W        W19887  10.826  19.070  13.502
50073W        W19888  14.311   9.858   4.347
50074W        W19889  27.004  39.914   1.740
50075W        W19890  41.814  36.036  14.921
50076W        W19891   8.721  25.106   0.834
50077W        W19892  42.970   8.230  14.805
50078W        W19893  26.571  21.700   3.184
50079W        W19894  36.534  20.729  11.970
50080W        W19895  10.688  42.019  14.284
50081W        W19896  24.667  32.023  12.905
50082W        W19897  13.260  37.874   4.743
50083W        W19898  29.564  14.600  10.493
50084W        W19899  21.183   3.241   1.885
50085W        W19900   1.910   1.841  10.623
50086W        W19901  31.411  13.143  13.925
50087W        W19902  43.891   9.153   1.822
50088W        W19903  16.206   6.744   4.627
50089W        W19904  26.142  36.968  12.521
50090W        W19905  12.184  44.886  11.524
50091W        W19906  14.648   2.325  13.007
50092W        W19907  23.191  39.536  10.597
50093W        W19908   3.265  22.612  13.035
50094W        W19909  12.204  19.143   3.313
50095W        W19910  41.793  40.834   4.757
50096W        W19911   1.415  21.580   4.665
50097W        W19912   5.770  38.418   1.372
50098W        W19913  24.525  32.603   1.898
50099W        W19914  17.289  32.903  14.026
50100W        W19915  13.327  16.132  14.452
50101W        W19916  33.085  33.539  11.448
50102W        W19917  32.392  22.010   2.331
50103W        W19918   6.411  22.134  13.983
50104W        W19919  32.917  28.117  10.465
50105W        W19920  44.852  18.651   1.843
50106W        W19921  23.681  25.539  12.436
50107W        W19922  37.489  15.792  14.817
50108W        W19923  29.592  40.348   4.137
50109W        W19924   7.710  21.542  10.986
50110W        W19925  22.073  43.013  12.853
50111W        W19926   2.810  26.157   1.353
50112W        W19927  10.356  35.957   1.343
50113W        W19928   3.253  13.240  12.077
50114W        W19929  24.575  41.399  14.846
50115W        W19930   3.250  36.942  13.387
50116W        W19931  10.356   3.248  11.381
50117W        W19932  11.132  26.196  12.408
50118W        W19933  37.361  36.851   1.444
50119W        W19934  19.214  11.799  10.522
50120W        W19935  41.019  15.182  10.642
50121W        W19936   2.324  37.460  13.007
50122W        W19937  29.562  22.639   1.827
50123W        W19938  15.273  44.830   4.641
50124W        W19939  30.517  16.095  11.578
50125W        W19940  22.037  15.792   4.166
50126W        W19941   2.277  16.180  10.996
50127W        W19942  23.528  36.445   0.830
50128W        W19943   7.288  15.713  13.952
50129W        W19944  17.802  41.329  14.428
50130W        W19945  27.446  21.055   1.742
50131W        W19946  32.039  28.460  12.858
50132W        W19947  41.025  15.237   2.688
50133W        W19948  18.296  35.941  13.943
50134W        W19949  15.779  16.238   1.704
50135W        W19950   5.287   0.889  10.520
50136W        W19951  41.528  39.380  10.472
50137W        W19952  33.475  28.626  14.928
50138W        W19953   7.366   4.378   2.319
50139W        W19954   9.384  19.611   3.318
50140W        W19955   5.438  43.009   2.673
50141W        W19956  40.819  32.954   0.784
50142W        W19957  13.183  38.042   3.361
50143W        W19958   1.924   8.787  14.347
50144W        W19959  16.082   1.740  11.933
50145W        W19960   5.195   6.407   4.718
50146W        W19961  16.628  44.769  14.817
50147W        W19962  42.875  21.037   1.362
50148W        W19963  29.621  43.846  14.477
50149W        W19964  44.974  34.948   1.229
50150W        W19965  17.633  39.457  10.640
50151W        W19966  20.094  13.206  12.417
50152W        W19967   3.454  13.795   3.699
50153W        W19968  44.925  24.587   3.377
50154W        W19969  26.544   0.924   0.864
50155W        W19970   1.418  11.724  14.289
50156W        W19971   1.243  12.667  14.803
50157W        W19972  41.528  27.472   3.299
50158W        W19973  32.418   7.869  10.912
50159W        W19974  31.104  41.835   3.306
50160W        W19975   4.745  15.609  13.051
50161W        W19976  38.917  34.386  14.766
50162W        W19977  34.576  29.537   3.746
50163W        W19978  37.910  30.022   1.329
50164W        W19979  44.276  20.589  10.982
50165W        W19980   8.170  38.366  13.369
50166W        W19981  30.548  42.893   4.699
50167W        W19982  17.701  14.171  14.368
50168W        W19983  14.154  26.982  12.441
50169W        W19984   9.738  15.202  13.798
50170W        W19985  40.311   5.692  10.639
50171W        W19986  22.651  23.623  13.447
50172W        W19987  32.058   7.679   2.392
50173W        W19988  20.550  40.948  14.979
50174W        W19989  31.495  40.478   0.759
50175W        W19990  11.295  41.991  13.045
50176W        W19991   6.365  36.974  11.066
50177W        W19992  37.427  38.354  12.866
50178W        W19993  34.885  21.702  11.525
50179W        W19994  18.744  14.278  12.831
50180W        W19995  16.782  24.095   0.889
50181W        W19996  42.376  12.832  13.799
50182W        W19997  30.979   7.839   3.298
50183W        W19998  14.747   5.782   3.355
50184W        W19999  35.469  39.321  14.412
50185W        W20000   5.319  39.556  13.007
50186W        W20001  13.633  17.284  12.357
50187W        W20002   8.279  19.079  11.020
50188W        W20003  29.073  36.054  13.346
50189W        W20004  26.541  22.702   1.331
50190W        W20005  19.135   4.702  12.071
50191W        W20006   0.309   2.821  12.343
50192W        W20007  20.113  12.659   5.266
50193W        W20008  12.159  34.402  10.575
50194W        W20009  27.988   6.281  11.984
50195W        W20010  25.631  20.148  10.895
50196W        W20011  15.693  24.647  11.517
50197W        W20012  13.330  29.175   2.813
50198W        W20013  35.902   1.294   1.368
50199W        W20014  36.961  26.130   1.298
50200W        W20015  20.736  22.040   2.185
50201W        W20016  35.467  44.873   3.147
50202W        W20017  42.848  41.010   2.249
50203W        W20018   1.785  18.658   3.236
50204W        W20019  12.760  34.411   4.284
50205W        W20020   4.354  15.193  14.466
50206W        W20021  40.847  12.163   3.695
50207W        W20022  14.098  18.610  10.593
50208W        W20023  18.580  44.910   0.882
50209W        W20024  10.382  11.275   1.924
50210W        W20025   8.810   8.255  12.546
50211W        W20026  37.990   8.312  11.937
50212W        W20027  12.643  41.035   0.286
50213W        W20028  27.667  39.464   2.895
50214W        W20029   0.752  41.381   1.404
50215W        W20030  21.213   4.801   3.843
50216W        W20031  18.153  21.135  13.360
50217W        W20032  33.608  22.632  14.296
50218W        W20033   9.676  29.515   1.297
50219W        W20034  22.693  29.053  11.515
50220W        W20035  20.577   0.382   3.308
50221W        W20036  35.037  18.553   3.338
50222W        W20037  12.149  40.797   2.248
50223W        W20038   2.249  23.077   2.861
50224W        W20039  41.538   5.859  12.023
50225W        W20040  12.128  33.623  13.379
50226W        W20041  25.499  27.036   0.819
50227W        W20042  30.463  40.407   0.869
50228W        W20043   1.771  44.810  13.934
50229W        W20044   1.453  11.261  12.442
50230W        W20045  43.009   7.792   4.616
50231W        W20046  43.508  22.694  12.888
50232W        W20047  20.246   9.817  11.563
50233W        W20048  25.053  26.073   2.761
50234W        W20049   8.344   0.253   4.731
50235W        W20050  25.581  10.749  11.611
50236W        W20051  11.847  15.727   4.318
50237W        W20052  15.120  21.577   1.860
50238W        W20053   8.188  22.094  14.392
50239W        W20054  38.864  26.190  10.413
50240W        W20055  17.191  31.541  12.949
50241W        W20056  33.122  15.671   4.159
50242W        W20057  44.937  19.180  13.408
50243W        W20058   2.293  27.658   2.295
50244W        W20059  41.840  33.580  11.377
50245W        W20060  39.348  27.073   2.769
50246W        W20061  26.660  25.064   2.864
50247W        W20062  18.564  16.711   0.949
50248W        W20063  33.577  15.594   1.447
50249W        W20064   7.256  11.803  10.645
50250W        W20065  31.005  43.928  10.430
50251W        W20066   7.768  26.141  13.023
50252W        W20067  39.382  16.246   2.663
50253W        W20068   5.373  29.167  13.311
50254W        W20069  35.951   1.816   1.393
50255W        W20070  39.967   4.739  13.983
50256W        W20071  37.530  39.010  14.335
50257W        W20072  35.087  33.575   2.353
50258W        W20073  23.127  11.306  13.527
50259W        W20074  25.680  36.843   5.158
50260W        W20075   9.722  12.304   1.845
50261W        W20076  37.994  18.682  14.969
50262W        W20077  41.425  16.254  14.291
50263W        W20078  14.229  15.672  12.408
50264W        W20079  18.567   8.220  14.285
50265W        W20080  13.701  20.259   4.292
50266W        W20081   0.770  36.444  14.016
50267W        W20082  37.869  11.245  13.016
50268W        W20083  13.698  44.962  12.559
50269W        W20084  30.601  42.496  10.508
50270W        W20085  23.190  36.464  12.528
50271W        W20086  12.791   4.871  12.437
50272W        W20087  21.677  34.057  12.880
50273W        W20088   7.687  16.196  13.972
50274W        W20089  41.010   8.894  10.578
50275W        W20090  32.975  20.595  13.035
50276W        W20091   7.756   2.245   3.248
50277W        W20092  39.519  38.913  10.973
50278W        W20093   9.699  30.467   2.225
50279W        W20094  41.793  23.639  13.949
50280W        W20095  30.103  41.029   2.412
50281W        W20096   0.878  19.740   0.890
50282W        W20097  28.481  25.081  10.965
50283W        W20098  29.939   3.310  14.342
50284W        W20099   4.373  35.089  12.991
50285W        W20100   2.354  43.911  13.329
50286W        W20101   7.882  25.149   2.831
50287W        W20102   2.901  39.876   4.320
50288W        W20103   6.212  19.657   9.944
50289W        W20104  41.507  43.852  13.501
50290W        W20105  22.714  41.995   2.699
50291W        W20106   9.313  18.584   1.273
50292W        W20107   3.407   9.887  11.414
50293W        W20108  42.831  13.789  14.350
50294W        W20109  30.649  41.333   2.773
50295W        W20110  14.739  36.900   4.733
50296W        W20111  20.227  20.638   2.396
50297W        W20112  18.753  21.117   0.755
50298W        W20113  21.146  11.338   0.872
50299W        W20114  21.061  40.389  11.570
50300W        W20115  14.297  36.928   3.829
50301W        W20116   9.375  11.662  11.042
50302W        W20117  39.475  36.387  11.414
50303W        W20118  12.786  12.150   4.807
50304W        W20119  26.189  33.552   0.898
50305W        W20120  32.547  39.545   2.257
50306W        W20121  36.417  16.198  14.506
50307W        W20122  33.010  15.775   4.639
50308W        W20123  32.091  16.074   0.285
50309W        W20124  12.268  21.751  13.945
50310W        W20125  30.504  33.435   2.873
50311W        W20126  36.456  19.562   2.306
50312W        W20127  36.554  12.837  11.509
50313W        W20128  12.696  22.575  11.378
50314W        W20129  23.569  43.912   1.270
50315W        W20130  30.992  20.254   0.421
50316W        W20131  20.218  39.915  13.317
50317W        W20132  24.130  29.953   3.293
50318W        W20133   9.856  37.940   4.788
50319W        W20134  29.601  43.995  13.000
50320W        W20135  15.822  18.639  12.057
50321W        W20136  20.750  42.847  11.015
50322W        W20137  19.161  39.946   3.159
50323W        W20138  23.533  10.710  14.508
50324W        W20139  43.408  23.544  12.431
50325W        W20140  14.635  12.261   3.807
50326W        W20141  26.039  41.821  11.440
50327W        W20142  10.282  18.566  13.807
50328W        W20143  43.896  37.950   0.291
50329W        W20144  14.310  37.053   2.263
50330W        W20145  26.135  37.457   2.882
50331W        W20146  16.654  24.017  12.846
50332W        W20147  23.042  41.891   3.774
50333W        W20148  26.506   9.676   0.822
50334W        W20149  29.426  12.778  11.935
50335W        W20150  33.938  36.559   0.397
50336W        W20151  19.124  42.424   0.244
50337W        W20152   8.251  37.382   4.603
50338W        W20153  30.993  41.012   1.816
50339W        W20154  18.177  20.711   1.278
50340W        W20155   0.479  33.532   1.370
50341W        W20156  29.130  17.564   4.837
50342W        W20157  36.070  25.506  11.553
50343W        W20158  11.831  33.591  11.035
50344W        W20159  30.960  27.053  14.999
50345W        W20160  28.977  38.068   0.394
50346W        W20161  33.553  34.409   2.386
50347W        W20162   0.258  18.579   1.827
50348W        W20163   3.323   3.279   2.810
50349W        W20164  26.014  42.288  11.901
50350W        W20165  22.038  17.274   9.590
50351W        W20166  38.900  14.781  11.047
50352W        W20167  28.135   9.721   1.409
50353W        W20168   4.810  43.332   4.155
50354W        W20169  26.961  43.932   4.636
50355W        W20170  30.489  44.773   1.825
50356W        W20171   3.760   0.408   3.692
50357W        W20172  13.246  44.286  11.378
50358W        W20173  37.966  21.125   0.838
50359W        W20174   9.390   1.259  14.948
50360W        W20175   5.306  15.312   2.392
50361W        W20176  12.175  43.975  13.860
50362W        W20177  31.644  21.168  13.867
50363W        W20178   8.817  10.174   2.366
50364W        W20179  22.191  27.044  10.956
50365W        W20180   3.828  23.103  12.891
50366W        W20181   1.921  26.112   2.882
50367W        W20182  15.608   0.921   0.290
50368W        W20183  33.585  32.126   5.237
50369W        W20184  29.590  35.534  14.370
50370W        W20185   1.849  24.547   3.307
50371W        W20186  33.538  30.076  12.390
50372W        W20187  44.778   7.795   1.927
50373W        W20188  10.657  10.334   1.806
50374W        W20189  24.004  39.809  13.434
50375W        W20190   1.332  27.972   0.378
50376W        W20191   7.688  42.916   2.724
50377W        W20192  21.685  35.405   4.311
50378W        W20193  31.937  24.226   1.280
50379W        W20194  34.030  28.547  14.998
50380W        W20195  41.004  34.380   0.958
50381W        W20196  22.097  16.285  10.540
50382W        W20197  16.155  17.664  12.998
50383W        W20198  21.151   4.767  14.995
50384W        W20199  31.048   8.365   0.854
50385W        W20200  19.241  33.120  14.815
50386W        W20201  12.776  32.899   0.907
50387W        W20202  41.516   6.750  14.362
50388W        W20203   3.730  39.826  10.891
50389W        W20204  24.989  27.139  11.461
50390W        W20205   1.249  21.700  11.505
50391W        W20206  13.622   7.365  10.576
50392W        W20207  42.478   6.716   4.180
50393W        W20208  43.980   7.883  13.312
50394W        W20209  13.239  29.661   4.243
50395W        W20210  41.400  39.550  13.986
50396W        W20211  20.562  35.468   4.598
50397W        W20212  20.155  26.982   2.697
50398W        W20213  22.627  30.417  10.016
50399W        W20214  29.623   6.374   0.786
50400W        W20215  30.042  15.679   3.237
50401W        W20216   5.707  23.029  12.848
50402W        W20217  26.027  28.574   1.729
50403W        W20218  19.662  10.778  12.881
50404W        W20219  42.025  20.123   1.776
50405W        W20220  25.482  42.963   5.167
50406W        W20221   3.750  35.528  13.944
50407W        W20222  19.679  16.192   4.275
50408W        W20223   8.697  15.124  13.981
50409W        W20224  36.923  17.182   2.397
50410W        W20225   9.216   2.265   1.697
50411W        W20226  11.789  29.009  13.804
50412W        W20227  16.608  25.517   2.261
50413W        W20228  11.719   2.420   2.261
50414W        W20229  11.847  27.130  10.590
50415W        W20230   5.372  23.108  10.597
50416W        W20231  25.579   8.842   2.763
50417W        W20232  24.065  41.979  12.905
50418W        W20233   7.402   0.897   4.179
50419W        W20234  29.436  12.632  11.607
50420W        W20235  32.035  28.445   0.868
50421W        W20236  23.523  39.989   3.329
50422W        W20237   6.284  15.675   3.273
50423W        W20238  28.466  34.864   0.816
50424W        W20239  42.294   0.946   0.317
50425W        W20240  13.299   2.760  11.524
50426W        W20241  21.099  28.522   0.783
50427W        W20242   7.685  23.557   0.755
50428W        W20243  31.436   7.878   0.395
50429W        W20244  29.060  33.505  14.973
50430W        W20245  16.121   0.839   1.377
50431W        W20246  27.966   0.251   4.724
50432W        W20247  17.137   3.843   1.784
50433W        W20248  17.274  18.291   2.290
50434W        W20249  31.069  22.666  12.562
50435W        W20250  13.781  38.028  11.463
50436W        W20251  30.938  21.638  11.934
50437W        W20252   1.748  32.114   3.789
50438W        W20253  29.465  39.856  13.978
50439W        W20254  20.095  16.599  14.945
50440W        W20255  33.059   6.276  11.432
50441W        W20256  37.898  14.228  10.919
50442W        W20257  10.333  43.498   1.800
50443W        W20258   2.815  32.600  14.823
50444W        W20259  12.164  40.549  11.899
50445W        W20260  10.169  35.864   0.475
50446W        W20261  18.711  10.763  12.561
50447W        W20262  30.495  41.035   3.273
50448W        W20263   7.386  22.168  13.441
50449W        W20264  16.169   5.376   2.362
50450W        W20265  16.657  39.056   3.740
50451W        W20266   5.853  16.660  11.960
50452W        W20267  16.635  12.237   1.379
50453W        W20268  27.070  33.608  11.096
50454W        W20269  17.699  24.585   0.344
50455W        W20270  31.959  44.433  13.449
50456W        W20271   3.728  16.733  13.880
50457W        W20272  38.471  35.479   3.800
50458W        W20273   7.668  39.044  12.905
50459W        W20274  28.056  30.060  10.954
50460W        W20275   6.332  26.638   2.662
50461W        W20276  40.022  33.119  13.348
50462W        W20277  13.733  19.148  12.358
50463W        W20278  24.607   8.707  13.033
50464W        W20279   1.784  42.842  10.633
50465W        W20280   7.219   6.226   1.802
50466W        W20281  35.443  40.993   0.301
50467W        W20282  10.312  16.169   0.776
50468W        W20283  21.578  30.129  13.920
50469W        W20284  43.858  19.535  11.546
50470W        W20285  15.761  11.669   0.808
50471W        W20286   8.770  20.735  13.819
50472W        W20287  34.900  29.019   1.313
50473W        W20288  38.437  18.679  10.632
50474W        W20289   4.291  42.999   1.881
50475W        W20290   6.381  44.448  11.041
50476W        W20291   4.919   0.288   3.326
50477W        W20292  25.170  14.242  14.987
50478W        W20293  41.406  33.395  13.898
50479W        W20294   9.308   4.208   0.793
50480W        W20295  28.016  11.801   1.758
50481W        W20296  28.616   0.388  13.865
50482W        W20297   2.747   1.251   1.332
50483W        W20298  38.911   3.713  12.917
50484W        W20299  17.160  34.580   0.395
50485W        W20300  15.104  43.299   3.790
50486W        W20301  34.037  27.943   0.785
50487W        W20302   5.904  11.788  10.598
50488W        W20303  30.029  23.142  14.361
50489W        W20304  30.090  36.997  12.579
50490W        W20305  24.123  40.313   0.277
50491W        W20306  43.415   5.719   4.702
50492W        W20307  42.394  21.515  11.900
50493W        W20308  24.114  38.391  13.440
50494W        W20309   6.825  22.199  12.895
50495W        W20310  10.739  19.273  11.599
50496W        W20311  42.939  24.523  12.916
50497W        W20312  10.670   2.379  14.360
50498W        W20313   9.232  15.749   1.768
50499W        W20314  11.208  42.805  13.002
50500W        W20315  22.718  21.050   3.148
50501W        W20316  40.964  27.534  13.897
50502W        W20317  44.317  43.775  13.055
50503W        W20318  15.824  24.188  10.442
50504W        W20319  24.673  28.621   2.326
50505W        W20320  19.099   8.220   2.840
50506W        W20321  19.114  29.492   1.717
50507W        W20322  34.524  33.414  11.087
50508W        W20323  22.225  36.570  14.363
50509W        W20324  44.354   2.421   3.713
50510W        W20325  27.453  36.915   3.768
50511W        W20326  37.865  17.167   3.839
50512W        W20327   8.888  23.079  10.888
50513W        W20328  17.800  12.315  14.320
50514W        W20329  26.139  43.505  13.374
50515W        W20330  11.174  11.259  10.520
50516W        W20331   2.237  14.316   0.405
50517W        W20332  22.012  17.715   2.808
50518W        W20333   6.409   3.916   4.223
50519W        W20334  14.260  40.421  14.468
50520W        W20335  10.187   6.761   2.237
50521W        W20336   0.421   9.308   3.200
50522W        W20337  17.635  18.276  11.582
50523W        W20338  20.662  11.222  14.322
50524W        W20339   4.720   1.961  13.922
50525W        W20340  24.620  20.673   1.720
50526W        W20341  18.291  10.305  13.448
50527W        W20342  28.022  22.513   2.402
50528W        W20343  13.781  25.514  11.076
50529W        W20344  38.915   8.670  10.983
50530W        W20345   5.222   1.479  13.991
50531W        W20346  39.970   6.696   0.776
50532W        W20347  44.812  40.413  13.046
50533W        W20348  28.518  10.347  13.365
50534W        W20349  20.686  22.171  14.453
50535W        W20350   4.433  29.939  14.917
50536W        W20351  11.209  26.981   0.414
50537W        W20352  41.860  21.614   4.318
50538W        W20353  28.628  25.971   3.781
50539W        W20354  19.220  17.685  10.986
50540W        W20355   8.658   0.355  10.958
50541W        W20356  42.983  28.990   3.346
50542W        W20357  24.167  23.206  11.901
50543W        W20358   5.313  36.433  12.942
50544W        W20359  11.768   7.864  13.797
50545W        W20360   9.272   1.375   4.144
50546W        W20361   3.849  23.676  10.143
50547W        W20362  44.005   7.215   2.709
50548W        W20363  40.465   4.343   2.246
50549W        W20364  28.038  25.991   1.818
50550W        W20365  24.084  40.829   3.181
50551W        W20366  21.520  18.064  12.923
50552W        W20367   9.845   4.781   3.723
50553W        W20368   1.438  28.652   1.394
50554W        W20369   2.330  39.328   0.822
50555W        W20370  37.511  14.096   3.724
50556W        W20371   0.454  18.569   3.371
50557W        W20372   7.864  28.649  13.443
50558W        W20373  11.336  15.268   2.216
50559W        W20374  27.560  35.879  13.902
50560W        W20375  23.498  15.089   2.229
50561W        W20376  44.444  41.477  10.533
50562W        W20377  10.867  35.944  10.887
50563W        W20378  14.731  28.091  13.045
50564W        W20379   3.298  32.618  14.931
50565W        W20380  34.980   6.336  11.026
50566W        W20381  25.198  38.376   0.966
50567W        W20382   3.331   1.955   2.841
50568W        W20383   9.201  31.586  11.918
50569W        W20384  31.083  29.096  10.544
50570W        W20385  22.620  16.760  14.919
50571W        W20386  30.643   2.301  13.870
50572W        W20387  19.131  30.033   0.877
50573W        W20388   7.347  11.694  11.396
50574W        W20389  42.977  31.039  12.372
50575W        W20390  35.959  42.941   2.681
50576W        W20391  35.443   0.779   0.830
50577W        W20392  39.934  12.184   4.133
50578W        W20393  31.593  28.543   1.754
50579W        W20394   0.331  26.023  13.375
50580W        W20395  44.498  11.214  13.822
50581W        W20396  12.209  43.281   2.314
50582W        W20397  21.132   0.400   1.913
50583W        W20398  44.407  13.243  11.865
50584W        W20399   8.705  43.782   4.352
50585W        W20400   7.414  31.143  14.488
50586W        W20401  35.855  31.480  12.517
50587W        W20402   6.811  42.790  11.479
50588W        W20403  30.079  14.751  10.606
50589W        W20404  35.897  24.603  10.978
50590W        W20405   4.287  37.424  12.442
50591W        W20406  21.046  42.424  12.078
50592W        W20407  37.461  16.122   0.289
50593W        W20408  42.981   1.949   9.977
50594W        W20409  31.526  43.824  13.883
50595W        W20410  28.062  27.956  10.997
50596W        W20411  42.978   0.345  14.277
50597W        W20412  42.958  21.718  12.356
50598W        W20413  39.481  12.733   2.206
50599W        W20414  30.153  11.312  12.930
50600W        W20415  40.508  18.261   1.930
50601W        W20416  34.080  19.557  11.940
50602W        W20417  26.154  41.459   0.431
50603W        W20418  13.237  36.958   3.211
50604W        W20419   3.871  32.460  12.843
50605W        W20420   6.418  42.405   3.690
50606W        W20421   2.393   3.883  12.892
50607W        W20422   8.204  34.525   4.200
50608W        W20423  43.782  24.028   1.931
50609W        W20424  24.666  15.660  13.939
50610W        W20425   9.787  13.245   2.200
50611W        W20426  28.129  37.465  11.007
50612W        W20427  43.011   0.329   3.701
50613W        W20428  13.126  25.576  13.982
50614W        W20429   7.749  28.062   2.309
50615W        W20430  32.096  35.031   1.234
50616W        W20431  11.321  24.998  13.946
50617W        W20432  10.312  18.783  11.386
50618W        W20433   6.229  16.776  12.357
50619W        W20434   4.218  41.821   4.765
50620W        W20435  30.949  12.201   2.726
50621W        W20436  12.194  13.742  14.310
50622W        W20437  31.124  10.351  14.842
50623W        W20438  32.065  29.936   4.258
50624W        W20439  36.851   9.813  14.503
50625W        W20440   3.728  27.466  13.842
50626W        W20441  44.331  22.683  12.910
50627W        W20442  25.546  13.620  13.006
50628W        W20443  41.350  23.690  13.438
50629W        W20444  43.325  39.014   4.796
50630W        W20445  39.969   1.427   0.448
50631W        W20446  40.518   8.360   3.700
50632W        W20447  36.538  26.546   0.758
50633W        W20448   0.790  37.521  12.426
50634W        W20449  16.192  21.131   4.236
50635W        W20450  22.113  42.001  11.428
50636W        W20451  24.487  23.641   4.287
50637W        W20452  40.495  18.172  11.473
50638W        W20453   0.947   8.364   0.287
50639W        W20454  23.725  43.957   2.232
50640W        W20455  42.855  40.324   4.740
50641W        W20456   3.262  34.913  14.418
50642W        W20457  13.669  30.999  11.516
50643W        W20458  16.111  23.681   2.209
50644W        W20459  16.613  15.592  10.607
50645W        W20460  43.334  44.458   2.786
50646W        W20461  29.173  11.313  13.443
50647W        W20462  34.533   4.251   0.344
50648W        W20463  20.269  34.511   0.946
50649W        W20464  21.152  20.109  10.520
50650W        W20465  25.214  28.503  13.978
50651W        W20466   4.924  10.691   3.378
50652W        W20467  17.273  24.553  13.472
50653W        W20468  35.942  18.109   0.357
50654W        W20469   2.788   9.386  11.111
50655W        W20470  30.960   0.479   2.896
50656W        W20471  40.981  26.467  11.442
50657W        W20472  16.313   9.365  12.919
50658W        W20473   8.254  28.502  13.840
50659W        W20474  16.693  27.019  11.394
50660W        W20475   1.751   1.457  10.411
50661W        W20476   3.866   7.301   1.442
50662W        W20477   4.741  26.062   1.320
50663W        W20478  35.383  15.212   4.244
50664W        W20479   0.778   6.226   3.305
50665W        W20480  17.240  17.611   4.144
50666W        W20481  30.461   6.791  14.833
50667W        W20482  34.918  22.104   3.801
50668W        W20483  27.618  29.519  14.957
50669W        W20484  15.136  31.005   1.324
50670W        W20485  14.769  39.435  14.839
50671W        W20486  16.783  36.481   4.258
50672W        W20487  10.296  39.525   3.175
50673W        W20488  26.665  30.001   0.272
50674W        W20489   4.437  44.992   2.372
50675W        W20490  14.622  17.076   3.634
50676W        W20491  27.037  21.017  14.809
50677W        W20492  27.589  28.154  10.449
50678W        W20493  31.422   6.863   1.747
50679W        W20494   2.379   5.711  14.378
50680W        W20495   0.304  12.843   1.424
50681W        W20496  35.433  44.969   0.428
50682W        W20497  44.892  34.459  10.645
50683W        W20498  12.257  28.124   2.360
50684W        W20499  35.418  44.375   3.317
50685W        W20500   9.250  14.165  13.322
50686W        W20501   3.897  14.256   2.265
50687W        W20502  14.237  39.368   0.800
50688W        W20503  21.640  37.893  14.292
50689W        W20504  29.669  38.033  10.440
50690W        W20505  44.883  28.093   1.771
50691W        W20506  34.901  42.945  11.532
50692W        W20507  23.645  21.752  10.963
50693W        W20508  21.247  33.885  11.016
50694W        W20509  11.208  20.251  12.364
50695W        W20510  17.080  28.643   2.396
50696W        W20511   5.836  31.504   0.421
50697W        W20512  39.814  14.619  12.864
50698W        W20513  25.577  18.254  11.921
50699W        W20514  39.325   1.863   5.682
50700W        W20515  20.065   5.728  11.466
50701W        W20516  36.524  36.474   2.273
50702W        W20517  16.097  30.998   1.929
50703W        W20518  39.473  32.931   2.808
50704W        W20519  36.062  38.033  12.056
50705W        W20520   1.402  23.685   0.871
50706W        W20521  20.057  30.537  14.353
50707W        W20522   8.830   3.367  11.530
50708W        W20523   2.403  42.821  12.064
50709W        W20524  22.111  33.598   1.861
50710W        W20525  33.039  12.323   4.819
50711W        W20526  16.602  32.127   2.384
50712W        W20527  38.924  18.214  11.593
50713W        W20528  14.793  25.624   3.329
50714W        W20529  32.411  27.595   2.778
50715W        W20530   7.298  38.002   3.377
50716W        W20531  22.243  36.454  13.795
50717W        W20532  14.142   7.181  10.524
50718W        W20533  29.667  33.529  13.452
50719W        W20534  17.071  44.755  13.400
50720W        W20535   8.699  41.461   2.846
50721W        W20536  20.120  11.745   0.926
50722W        W20537   4.761  14.312  12.961
50723W        W20538  29.555  19.534  13.993
50724W        W20539  28.058   4.324   4.121
50725W        W20540  19.275  12.173   3.838
50726W        W20541  19.070  39.884   3.839
50727W        W20542  41.888  42.846  14.404
50728W        W20543  26.044  37.520   3.659
50729W        W20544  10.839  32.606  12.352
50730W        W20545  44.447  15.253   2.335
50731W        W20546  41.831  38.406  11.431
50732W        W20547  44.380  12.121  14.408
50733W        W20548  10.291  19.264  13.011
50734W        W20549  32.607   0.742   2.355
50735W        W20550  32.617  44.438   4.673
50736W        W20551  33.505  42.285   0.428
50737W        W20552  41.419  17.797   1.907
50738W        W20553  38.938  29.049   3.189
50739W        W20554   7.182  24.189   3.649
50740W        W20555  34.438   8.258  13.946
50741W        W20556  31.528   9.307   0.415
50742W        W20557  24.054   6.775  14.354
50743W        W20558  17.114  34.007   0.458
50744W        W20559  20.565  21.188   1.733
50745W        W20560   6.705  12.664  11.474
50746W        W20561  17.119  14.758  10.554
50747W        W20562   9.297  16.200  13.351
50748W        W20563  20.197  37.488   1.288
50749W        W20564  19.744  38.538   2.857
50750W        W20565   9.183   8.201   2.875
50751W        W20566  27.983   3.431  14.429
50752W        W20567   4.767   2.284  13.334
50753W        W20568  30.130  21.086   3.380
50754W        W20569   8.177  41.942  13.528
50755W        W20570  17.649  30.639  14.513
50756W        W20571  41.801  29.517   4.189
50757W        W20572  26.170  22.526   0.417
50758W        W20573  13.643  41.042   2.809
50759W        W20574   5.690  27.542  11.400
50760W        W20575   0.960  41.975   5.231
50761W        W20576  30.082  16.662   4.647
50762W        W20577   7.390   4.798   1.388
50763W        W20578  30.013  19.546  11.858
50764W        W20579  43.795  14.617   4.835
50765W        W20580  18.637  26.542   2.186
50766W        W20581  22.664  19.268   2.182
50767W        W20582  30.542  43.021   0.769
50768W        W20583  12.133  39.030  11.892
50769W        W20584  17.282  39.996  11.890
50770W        W20585  21.044  30.957   1.723
50771W        W20586  39.363  21.673  10.414
50772W        W20587  35.935  13.717  14.855
50773W        W20588  41.851  41.819   3.263
50774W        W20589  37.846  25.018  13.506
50775W        W20590   3.401  35.989  11.555
50776W        W20591  42.416  39.943   2.324
50777W        W20592  40.339  13.741   9.954
50778W        W20593  35.371   5.737  13.357
50779W        W20594  14.095  20.566   2.719
50780W        W20595  26.503   1.296  14.998
50781W        W20596  41.029   6.249  10.579
50782W        W20597  22.202  30.427  12.457
50783W        W20598   5.300  17.593  11.442
50784W        W20599  42.527   9.841   3.693
50785W        W20600  28.611   1.328   0.800
50786W        W20601  23.147  21.105   1.714
50787W        W20602  23.138  12.730   3.646
50788W        W20603  35.926  25.198   0.329
50789W        W20604  21.563  22.632   0.333
50790W        W20605   0.358  17.721   3.681
50791W        W20606   3.856  18.190   3.370
50792W        W20607  23.140  42.974   2.188
50793W        W20608  29.083  37.084  14.765
50794W        W20609   9.255   9.747   0.783
50795W        W20610  29.536  42.440   0.727
50796W        W20611   2.793  12.339   1.287
50797W        W20612  32.060  43.791  10.143
50798W        W20613  33.041  42.320   3.797
50799W        W20614   7.762  38.510   1.919
50800W        W20615  13.222  32.972  11.964
50801W        W20616  14.098  34.962   5.126
50802W        W20617   7.900   7.883   1.441
50803W        W20618  18.161  24.161   4.201
50804W        W20619  17.299  42.411   1.838
50805W        W20620  21.018   0.317  12.823
50806W        W20621  10.768  21.633  13.347
50807W        W20622  13.733   1.808   2.289
50808W        W20623  22.601   3.859   4.792
50809W        W20624  30.034  44.312  11.009
50810W        W20625  33.107  21.074  12.468
50811W        W20626   1.817  21.707  10.415
50812W        W20627   9.190  14.629   4.272
50813W        W20628  10.815  34.575   4.749
50814W        W20629  33.612  27.539  14.814
50815W        W20630  39.030  32.043   0.473
50816W        W20631  17.800  24.593   3.173
50817W        W20632  40.819  11.314  14.991
50818W        W20633  36.476   9.344   4.173
50819W        W20634   7.382  44.373  11.906
50820W        W20635  40.493  36.863   3.714
50821W        W20636  28.993  27.968   0.810
50822W        W20637  28.958   9.734   4.246
50823W        W20638   2.921  10.194   0.907
50824W        W20639  18.668  38.830  13.016
50825W        W20640  42.435   4.247  11.587
50826W        W20641  42.987  28.466  11.582
50827W        W20642   5.819   3.752  10.611
50828W        W20643  27.951  32.986  12.348
50829W        W20644  42.332  33.597   2.763
50830W        W20645  11.371  32.963  10.447
50831W        W20646  27.038  41.519  12.496
50832W        W20647  19.619   9.355   2.392
50833W        W20648  32.950  38.853   0.769
50834W        W20649  12.697  40.333  13.453
50835W        W20650  37.954  41.007   2.819
50836W        W20651  22.604  22.020  14.483
50837W        W20652  44.324  11.737  13.313
50838W        W20653  40.815  16.168   3.303
50839W        W20654  25.980  10.256   3.753
50840W        W20655  16.611  19.647   4.760
50841W        W20656  26.043  20.735  11.518
50842W        W20657   0.795  10.267  12.031
50843W        W20658   9.294  44.375   3.153
50844W        W20659  43.766  25.633  14.770
50845W        W20660  12.845   8.395  14.320
50846W        W20661   1.831   4.348   3.190
50847W        W20662  22.681  35.581   0.851
50848W        W20663  27.041  39.041   3.704
50849W        W20664   1.976  20.059  14.350
50850W        W20665  33.383  43.428  10.929
50851W        W20666   7.735  18.177  11.886
50852W        W20667   7.265  40.452   9.951
50853W        W20668  38.474  27.544  12.043
50854W        W20669  41.422  12.850  13.857
50855W        W20670  35.592  17.802  14.358
50856W        W20671  34.550   3.289   3.313
50857W        W20672   3.906  28.967   2.765
50858W        W20673  37.072  23.127   2.882
50859W        W20674   5.224  43.465   3.753
50860W        W20675   0.480  19.091   1.757
50861W        W20676  23.088   0.489   5.695
50862W        W20677  29.981  29.933   0.260
50863W        W20678  34.562  30.498  14.276
50864W        W20679  11.366   8.396   1.321
50865W        W20680  26.990  36.870   3.199
50866W        W20681   9.224  20.055   4.770
50867W        W20682  18.144  23.043  13.866
50868W        W20683  39.931  40.454   2.790
50869W        W20684   6.181  38.927  11.033
50870W        W20685  33.937  19.621   1.933
50871W        W20686  40.365  15.271  11.561
50872W        W20687  12.759   1.471  11.588
50873W        W20688  29.162  20.185  14.854
50874W        W20689  32.413  42.978  12.365
50875W        W20690  29.967  14.126   0.952
50876W        W20691  40.844  18.188  12.533
50877W        W20692  11.328  32.418  14.307
50878W        W20693  11.298  15.803  11.383
50879W        W20694  35.094  16.252  12.982
50880W        W20695  24.599   2.312   3.635
50881W        W20696  41.842  40.023   4.185
50882W        W20697   8.731  30.645  14.835
50883W        W20698  13.815  30.028  12.431
50884W        W20699  44.292  18.114  14.462
50885W        W20700  37.946   1.928  10.949
50886W        W20701  12.251  26.526   2.235
50887W        W20702  34.507  15.230   0.333
50888W        W20703  27.941  20.763   0.871
50889W        W20704  35.602  42.475  10.957
50890W        W20705  24.092  34.049   2.300
50891W        W20706  27.965  12.254   2.756
50892W        W20707   6.333   8.880   5.177
50893W        W20708  43.322  39.323   4.825
50894W        W20709  27.475  13.171   4.805
50895W        W20710  30.954  42.846   5.140
50896W        W20711   7.296  20.677   2.836
50897W        W20712  35.539  23.637  11.033
50898W        W20713  21.212  22.144   3.365
50899W        W20714  17.714  11.208  10.502
50900W        W20715  44.835  15.249  14.831
50901W        W20716  37.972  28.587   1.276
50902W        W20717  22.575  29.001   1.302
50903W        W20718  26.615  31.901  14.974
50904W        W20719  32.496  44.938   0.324
50905W        W20720  41.379  39.520  13.495
50906W        W20721  31.592  23.195   3.215
50907W        W20722  27.042   8.386   2.860
50908W        W20723  39.392  44.401  13.833
50909W        W20724  27.134  15.258   3.347
50910W        W20725  36.861   0.299   0.755
50911W        W20726  24.100  32.571   4.640
50912W        W20727   7.881   5.804  13.923
50913W        W20728  24.645  41.027   1.885
50914W        W20729  38.443  15.689   3.347
50915W        W20730  29.134  34.950   4.203
50916W        W20731  33.608  25.514  11.911
50917W        W20732  16.741  23.619   3.251
50918W        W20733  18.720   8.681   1.879
50919W        W20734   7.791  25.195   1.793
50920W        W20735  21.149   3.896   3.147
50921W        W20736  22.154  37.959  14.760
50922W        W20737  32.903  35.013  13.827
50923W        W20738  24.655  30.970   2.833
50924W        W20739  27.048  19.740  13.430
50925W        W20740  41.419   9.678   2.683
50926W        W20741   4.749  19.200   3.203
50927W        W20742  12.124  42.002   1.846
50928W        W20743  29.054   8.865   1.916
50929W        W20744  20.236  27.989   3.361
50930W        W20745  40.935  10.299  10.486
50931W        W20746  39.013   0.438   4.210
50932W        W20747  28.644  22.500  11.052
50933W        W20748  39.872  35.553   0.726
50934W        W20749  25.632  13.281   1.854
50935W        W20750  34.093  10.237   1.384
50936W        W20751   9.292   3.425   0.464
50937W        W20752  30.104  18.295  10.625
50938W        W20753  33.468   9.812   2.400
50939W        W20754  43.004  16.180  10.587
50940W        W20755  32.948  17.604  14.995
50941W        W20756  25.498  10.653   0.921
50942W        W20757  22.225   0.784  13.486
50943W        W20758   5.252  21.246   3.786
50944W        W20759  41.940  12.758   2.237
50945W        W20760   7.406  21.076   1.211
50946W        W20761  36.498  15.823  11.483
50947W        W20762  25.610  24.692   4.755
50948W        W20763  17.626  14.100  14.797
50949W        W20764  34.899  26.201   2.281
50950W        W20765  37.978  37.374   1.704
50951W        W20766  11.721  29.092  10.122
50952W        W20767  44.837   9.715  12.514
50953W        W20768   4.901  10.727   1.341
50954W        W20769   0.761  37.039   3.733
50955W        W20770  21.208   1.814   1.847
50956W        W20771  44.443  38.399  13.892
50957W        W20772   7.880  14.222  12.926
50958W        W20773  29.157  11.251   4.274
50959W        W20774  39.821  22.186   1.445
50960W        W20775  35.057  10.650   4.774
50961W        W20776  26.508  42.353  13.407
50962W        W20777   1.310   6.357  13.915
50963W        W20778  11.698   8.878  12.440
50964W        W20779   2.370  24.719   3.209
50965W        W20780  39.991   4.832  13.391
50966W        W20781  14.829  22.064   3.149
50967W        W20782  29.938  12.260  13.492
50968W        W20783  11.259  19.061   5.091
50969W        W20784   8.779  25.686   3.744
50970W        W20785  28.557  39.020   0.910
50971W        W20786  39.501  20.178  14.805
50972W        W20787  31.596  35.867   3.207
50973W        W20788  15.235  35.525  10.632
50974W        W20789   2.228  12.162   1.271
50975W        W20790  19.263  14.808  11.568
50976W        W20791  33.568  23.212  14.484
50977W        W20792  24.628  30.947  13.445
50978W        W20793  36.945  30.941   2.873
50979W        W20794  44.903   9.161  10.950
50980W        W20795  12.828  30.582   1.780
50981W        W20796   8.747  17.262  13.309
50982W        W20797  42.810  44.895   0.847
50983W        W20798  41.441  31.630   4.664
50984W        W20799  15.329  18.630   2.771
50985W        W20800  24.070   8.845  12.020
50986W        W20801  27.492  21.089   4.805
50987W        W20802  20.740  21.105  11.516
50988W        W20803   6.839  44.799  13.360
50989W        W20804  15.314  20.695   0.369
50990W        W20805   7.292  26.689   3.736
50991W        W20806  43.904  24.504   1.291
50992W        W20807  29.471  41.839  13.324
50993W        W20808  23.012   4.833   3.152
50994W        W20809  38.975  22.696   2.686
50995W        W20810  42.334   6.842  12.530
50996W        W20811  13.268  13.719   3.330
50997W        W20812  39.861  27.006  11.089
50998W        W20813  32.464  25.963  14.471
50999W        W20814  39.390   8.403  14.848
51000W        W20815  36.011  13.343  10.442
51001W        W20816  17.153  31.897   5.313
51002W        W20817  16.725  39.880   0.476
51003W        W20818  16.691  41.315  13.329
51004W        W20819  12.145   4.398   1.758
51005W        W20820  16.192  30.502  12.422
51006W        W20821  16.711  34.465  10.537
51007W        W20822  12.178  39.501   4.288
51008W        W20823  22.038  14.793  13.821
51009W        W20824  32.456  44.263  14.006
51010W        W20825   1.319  18.293   3.229
51011W        W20826  21.540  24.709   1.393
51012W        W20827   9.166  23.056  12.395
51013W        W20828   0.333  37.489   0.757
51014W        W20829  38.980  21.596   3.250
51015W        W20830  16.655   9.336  11.928
51016W        W20831  20.126  12.295   0.368
51017W        W20832   9.189  20.709  14.959
51018W        W20833   1.970  11.319   4.834
51019W        W20834  23.036   5.398   4.701
51020W        W20835  33.578  22.015  12.497
51021W        W20836  39.465   1.756  14.357
51022W        W20837   3.329  23.646  13.360
51023W        W20838  32.634  20.037   4.263
51024W        W20839   8.741  28.471   2.350
51025W        W20840  20.580  22.226  11.579
51026W        W20841  22.537  14.134   4.229
51027W        W20842  22.690  41.019   0.731
51028W        W20843   4.883  13.658   2.237
51029W        W20844  44.762  42.875  10.975
51030W        W20845  26.645  11.177   0.405
51031W        W20846  26.157  40.953   2.388
51032W        W20847  33.563   7.885   4.733
51033W        W20848   2.881  27.973   2.220
51034W        W20849  15.207  32.583   1.443
51035W        W20850  18.181  36.042  10.604
51036W        W20851  14.608  41.465  10.587
51037W        W20852   0.750  21.699  10.953
51038W        W20853  33.967  15.151  11.504
51039W        W20854  30.016  35.990   4.657
51040W        W20855  44.366   8.819   3.209
51041W        W20856  14.807  13.227  12.917
51042W        W20857  39.357  28.658  11.399
51043W        W20858   5.690  31.055  14.877
51044W        W20859  26.081  16.757  12.036
51045W        W20860  11.840  27.683   0.264
51046W        W20861  11.687  43.281   4.306
51047W        W20862  15.163  16.087  14.773
51048W        W20863  23.655  22.567   0.375
51049W        W20864  39.335   1.747   9.609
51050W        W20865  12.637  12.664   4.813
51051W        W20866  37.886  19.691  12.011
51052W        W20867  16.304  41.502   0.927
51053W        W20868  42.023  30.971  12.465
51054W        W20869  42.840  27.574  12.057
51055W        W20870  41.447  23.690   3.289
51056W        W20871   8.754  13.674  12.409
51057W        W20872  40.367   5.234  13.880
51058W        W20873   5.257  44.761  11.600
51059W        W20874  34.400  11.234  11.905
51060W        W20875  35.068  12.344   4.764
51061W        W20876   4.935  19.184   0.343
51062W        W20877   9.204  29.969  10.430
51063W        W20878  35.365   6.816  10.494
51064W        W20879   4.375  42.951   3.281
51065W        W20880  17.624  21.209  13.433
51066W        W20881  39.318  18.072   0.421
51067W        W20882  21.619  23.233  12.864
51068W        W20883  32.939  15.610  14.885
51069W        W20884   4.835  42.462  12.008
51070W        W20885  19.107   5.383  10.601
51071W        W20886  17.075   1.799   0.848
51072W        W20887  18.094  18.769   0.825
51073W        W20888   4.860  30.924   2.896
51074W        W20889  10.840  13.139  12.906
51075W        W20890   0.360  27.033  13.533
51076W        W20891   8.731  33.456   4.719
51077W        W20892   3.878  18.091  13.485
51078W        W20893   9.267  44.262  12.525
51079W        W20894  11.144  16.788  11.590
51080W        W20895  22.062  40.878  12.545
51081W        W20896   0.946   8.242  12.524
51082W        W20897  22.623  14.644   3.666
51083W        W20898  11.850  30.063  11.412
51084W        W20899  25.995   7.756  10.512
51085W        W20900  36.030  13.128  13.362
51086W        W20901  44.309   4.226  10.952
51087W        W20902  37.007   8.717   4.325
51088W        W20903  15.748  23.723   0.810
51089W        W20904   8.717  31.004  11.072
51090W        W20905  18.585  12.844   1.832
51091W        W20906   2.247  25.492   2.362
51092W        W20907   6.197  18.570  14.304
51093W        W20908  18.689   5.903   1.373
51094W        W20909   4.390  26.200   0.416
51095W        W20910  35.879  26.129  14.506
51096W        W20911  34.457   2.805   4.722
51097W        W20912   6.269  30.053  12.470
51098W        W20913  38.073  19.174  13.000
51099W        W20914  20.213  20.559   1.283
51100W        W20915  34.527  36.452   4.697
51101W        W20916  20.204  38.403  10.485
51102W        W20917  37.916  10.322   3.289
51103W        W20918  26.076  10.730  14.955
51104W        W20919  15.260  15.754   1.355
51105W        W20920   1.862  43.876   3.229
51106W        W20921  43.293  22.178  10.935
51107W        W20922  18.126  15.787  14.905
51108W        W20923  39.854  43.789  14.973
51109W        W20924  42.794   0.369  13.421
51110W        W20925   3.816  36.429  14.362
51111W        W20926  31.599   8.219   4.741
51112W        W20927  36.364  38.942  12.937
51113W        W20928  11.679   0.785  14.346
51114W        W20929   8.321  44.483   3.221
51115W        W20930  17.255  16.273  14.402
51116W        W20931  11.638  33.562   2.238
51117W        W20932  33.480  41.490   3.811
51118W        W20933  43.300  23.721  12.011
51119W        W20934  32.629  40.025  10.010
51120W        W20935  19.126   6.226   3.833
51121W        W20936  12.648  21.147  14.462
51122W        W20937  23.632  42.822  12.376
51123W        W20938  24.492  34.906   0.772
51124W        W20939   4.229  19.537   1.709
51125W        W20940   3.756  19.719  14.405
51126W        W20941  10.324   9.181  13.464
51127W        W20942  26.509  44.862   4.716
51128W        W20943   2.911  28.071  12.378
51129W        W20944   4.280  32.467  11.979
51130W        W20945  34.604   9.813  13.923
51131W        W20946  21.212   9.679  12.520
51132W        W20947  40.471  29.479  11.504
51133W        W20948   2.349  17.783  13.342
51134W        W20949  17.779   4.791   4.672
51135W        W20950  44.769  24.020  14.981
51136W        W20951  26.995  33.950   1.281
51137W        W20952   6.412   2.895  11.487
51138W        W20953  26.994  19.669  14.958
51139W        W20954  33.485   5.433  12.408
51140W        W20955  42.822  40.899  10.980
51141W        W20956  16.121  42.803   1.774
51142W        W20957  24.597   4.808  14.386
51143W        W20958  31.058   8.376  14.402
51144W        W20959  43.847  15.149   4.618
51145W        W20960  22.619  41.985   4.221
51146W        W20961   0.915   1.465  12.017
51147W        W20962   4.218   8.869  13.308
51148W        W20963  28.461  14.106   0.273
51149W        W20964  15.739  13.227   2.693
51150W        W20965  17.710   8.762   1.809
51151W        W20966  28.516  29.127   0.832
51152W        W20967  11.790   1.935  14.845
51153W        W20968   0.930  17.079   4.188
51154W        W20969  22.693  21.644   0.850
51155W        W20970  13.307  43.827   1.846
51156W        W20971   3.427  13.801  10.629
51157W        W20972   5.310   7.183   4.613
51158W        W20973   7.851  31.924  12.415
51159W        W20974  30.081  42.916  11.507
51160W        W20975  30.531  33.015   0.374
51161W        W20976  35.928  19.251  11.441
51162W        W20977  42.020  39.904   4.676
51163W        W20978  39.057  14.785  10.536
51164W        W20979  31.929   0.956   0.835
51165W        W20980   7.711  11.127  12.981
51166W        W20981  28.459  32.895   4.673
51167W        W20982   6.184   7.224  10.894
51168W        W20983   4.336  42.297  10.474
51169W        W20984  23.091  33.451   1.727
51170W        W20985  29.511  10.235  11.467
51171W        W20986  24.094   7.194  14.396
51172W        W20987  37.349  22.628   1.361
51173W        W20988  33.059   9.181   2.777
51174W        W20989  23.233  29.440  11.381
51175W        W20990  32.018  18.219   2.850
51176W        W20991  20.147  11.671  13.884
51177W        W20992  26.965  33.085  12.418
51178W        W20993  40.996   8.836  12.421
51179W        W20994  40.865  32.895   4.773
51180W        W20995   8.363  30.573  13.501
51181W        W20996  39.951  18.109  11.533
51182W        W20997  10.788  39.526   1.877
51183W        W20998  10.317  12.303  11.420
51184W        W20999  37.874  38.075   4.819
51185W        W21000   7.873  14.604   2.392
51186W        W21001  39.447  44.780  12.380
51187W        W21002  43.000   3.726   0.278
51188W        W21003  28.631  28.977   0.398
51189W        W21004   1.481   2.820  12.952
51190W        W21005  27.458  43.767   2.861
51191W        W21006  15.642  16.289   0.943
51192W        W21007  39.922  15.103   3.637
51193W        W21008  42.498  27.637  14.506
51194W        W21009  35.091   4.726   5.215
51195W        W21010  28.930   7.255   1.902
51196W        W21011  36.474  18.662   2.891
51197W        W21012  10.155  23.731   2.412
51198W        W21013  27.657  28.543  14.893
51199W        W21014  19.534  32.899  14.826
51200W        W21015  42.469   5.798  14.390
51201W        W21016  12.344  30.612   4.153
51202W        W21017  25.677   4.339  13.010
51203W        W21018  36.362  33.621   1.840
51204W        W21019   1.746  36.014   0.376
51205W        W21020   8.776  36.966  13.527
51206W        W21021  37.353   4.828  14.965
51207W        W21022  19.735   2.956  14.350
51208W        W21023  41.914   3.248  11.513
51209W        W21024  19.563   4.734   5.254
51210W        W21025  34.466  13.153  14.280
51211W        W21026  20.031  12.629  14.315
51212W        W21027   4.358   8.204  11.403
51213W        W21028  28.591  30.074  12.878
51214W        W21029  30.057  20.526  10.914
51215W        W21030  41.030  16.101  14.795
51216W        W21031   8.654   9.219  11.077
51217W        W21032  20.134  39.024  14.315
51218W        W21033   4.933  21.096   2.230
51219W        W21034   7.332  27.009  14.438
51220W        W21035  26.964  34.997   1.875
51221W        W21036  33.465   4.413  12.351
51222W        W21037   7.331   2.402   1.426
51223W        W21038  18.750  23.083  13.462
51224W        W21039   8.177  41.791  13.931
51225W        W21040   6.324  36.403  14.762
51226W        W21041   3.412  12.269   3.726
51227W        W21042   1.350   1.966   3.311
51228W        W21043  12.360   2.263   0.851
51229W        W21044   2.817  13.762   1.861
51230W        W21045   3.422  41.797  13.793
51231W        W21046   1.356  28.075   4.190
51232W        W21047  42.480   1.307   3.766
51233W        W21048  34.117  27.525  12.080
51234W        W21049  27.037   6.857   2.402
51235W        W21050   7.306  14.117  12.032
51236W        W21051  12.840  44.454   1.813
51237W        W21052  35.581  21.245  14.380
51238W        W21053  30.137  11.684   0.423
51239W        W21054  26.513  16.757  13.506
51240W        W21055  11.736   4.791  13.952
51241W        W21056  27.011  12.636   5.297
51242W        W21057  21.676  34.558  13.313
51243W        W21058  33.544  32.095  14.798
51244W        W21059  28.078   1.955   0.307
51245W        W21060  23.717  31.496  13.310
51246W        W21061  13.778   4.333  13.891
51247W        W21062   5.274  30.647  10.580
51248W        W21063  15.242   4.944   2.327
51249W        W21064  15.329  15.224  11.579
51250W        W21065  40.486  44.825   2.835
51251W        W21066  17.070   8.844  12.886
51252W        W21067  24.542  43.934   0.804
51253W        W21068   7.805  18.250   4.678
51254W        W21069   6.809   3.362   3.736
51255W        W21070  33.589  24.108  10.579
51256W        W21071  22.713  25.106   0.474
51257W        W21072  33.390   2.953  14.277
51258W        W21073  11.329  36.878   3.354
51259W        W21074  23.726  10.872   0.876
51260W        W21075  22.600  16.106  10.626
51261W        W21076   2.760  10.166   3.214
51262W        W21077  19.136  34.473  10.533
51263W        W21078  29.958  34.869  14.025
51264W        W21079   7.284  29.004  14.497
51265W        W21080  35.575   7.912   0.822
51266W        W21081  31.054  40.883   2.378
51267W        W21082  33.617  36.565   0.728
51268W        W21083  13.279   3.267   2.214
51269W        W21084  12.803  15.693  14.304
51270W        W21085  13.758  27.996   2.882
51271W        W21086  38.398  40.364   4.149
51272W        W21087  24.684  24.678   2.287
51273W        W21088  25.595   9.287  12.879
51274W        W21089   8.683  12.813   3.241
51275W        W21090  19.090   6.306  14.458
51276W        W21091  37.423  20.030   0.455
51277W        W21092  33.902  39.858  14.369
51278W        W21093  26.958   7.698   0.247
51279W        W21094   2.859  40.534   4.160
51280W        W21095  27.192   8.746  14.510
51281W        W21096  16.750   0.405   2.790
51282W        W21097  10.346  12.624  11.106
51283W        W21098   9.234  25.108  12.552
51284W        W21099   2.803  42.527   0.929
51285W        W21100  34.381  15.740  14.326
51286W        W21101  44.932  11.819   1.385
51287W        W21102   0.380  28.986  12.018
51288W        W21103  23.512  14.706   4.613
51289W        W21104  43.337   0.480  13.332
51290W        W21105  36.376  21.672   4.117
51291W        W21106  10.223  35.041  14.936
51292W        W21107  12.639  10.364   1.293
51293W        W21108  19.707  14.157  12.894
51294W        W21109   7.910  19.647   3.320
51295W        W21110  36.915  16.247   1.769
51296W        W21111  28.574  34.513  13.965
51297W        W21112  12.808   6.312   1.879
51298W        W21113  39.830  40.980   0.883
51299W        W21114  20.165  31.475  14.380
51300W        W21115  23.662   6.334  14.960
51301W        W21116  42.325  26.591   3.685
51302W        W21117  21.132   3.419  11.604
51303W        W21118  43.383  41.015  13.000
51304W        W21119  23.072  28.991  10.956
51305W        W21120  10.745  21.676   4.708
51306W        W21121  44.469  36.001   3.778
51307W        W21122   4.731  22.576  12.865
51308W        W21123  38.421  14.095  10.923
51309W        W21124  33.045  43.885   2.676
51310W        W21125  34.022   4.933   2.898
51311W        W21126  17.088  30.620   2.701
51312W        W21127  15.715  27.958  11.460
51313W        W21128  33.967   0.353  13.962
51314W        W21129  44.813   3.841   2.838
51315W        W21130  41.357   9.165  11.903
51316W        W21131  12.238  12.361   3.213
51317W        W21132  13.154   2.409  10.955
51318W        W21133   2.253  40.437   5.311
51319W        W21134   2.288  13.738   0.290
51320W        W21135  26.981  28.623  10.978
51321W        W21136  40.874  14.291   2.361
51322W        W21137  15.598  31.632   4.618
51323W        W21138   8.231  12.200   1.224
51324W        W21139   0.838  31.038  12.536
51325W        W21140  28.626   7.770   2.811
51326W        W21141  10.242  35.548  14.946
51327W        W21142  11.143  28.554   0.259
51328W        W21143  27.047   4.424   2.337
51329W        W21144  36.471  42.492   3.687
51330W        W21145  21.099   4.775  12.092
51331W        W21146  34.467  32.521   2.675
51332W        W21147  27.650   0.331  13.397
51333W        W21148   9.336   1.930   2.340
51334W        W21149   2.846  31.589  13.462
51335W        W21150  37.840  32.025   4.303
51336W        W21151  40.463  29.531  12.075
51337W        W21152  23.233  10.775   1.371
51338W        W21153  36.376  10.313  11.996
51339W        W21154  23.494  44.437  10.438
51340W        W21155  33.973  34.928  11.986
51341W        W21156  11.672  41.965   5.287
51342W        W21157  41.980  40.893   1.390
51343W        W21158  41.960  31.951   1.695
51344W        W21159  30.093  35.021   0.461
51345W        W21160  24.520  20.215  10.524
51346W        W21161  20.031   2.898   1.878
51347W        W21162  41.447  22.139  10.940
51348W        W21163   5.318   3.436  14.415
51349W        W21164  30.936   7.780   4.155
51350W        W21165  17.145  22.711   0.414
51351W        W21166  29.091  21.138   4.838
51352W        W21167   3.860   5.769   1.698
51353W        W21168  32.024  43.417   2.883
51354W        W21169   7.710  14.802  11.503
51355W        W21170  24.659  24.692   3.218
51356W        W21171  28.599  23.516   0.732
51357W        W21172  30.562  20.077  10.935
51358W        W21173  10.641  44.888   0.880
51359W        W21174  26.689   8.205   1.897
51360W        W21175  27.155  34.866  10.976
51361W        W21176   4.774   6.823  12.870
51362W        W21177  42.930   8.900  10.905
51363W        W21178   9.888  14.721   2.225
51364W        W21179   1.457  36.463  14.515
51365W        W21180  34.922  14.631   4.136
51366W        W21181  22.051  39.023   1.318
51367W        W21182  32.563   3.771  11.923
51368W        W21183  25.576   2.761  11.587
51369W        W21184  22.699  24.073  12.014
51370W        W21185  29.649  18.147  14.316
51371W        W21186  28.077  11.724  13.484
51372W        W21187   7.216  26.097  12.022
51373W        W21188  30.632  14.690  14.416
51374W        W21189  28.964   1.446  13.356
51375W        W21190  38.925   6.713   4.625
51376W        W21191  32.404   8.274  10.496
51377W        W21192   3.416  34.942   4.231
51378W        W21193  33.435  24.036  12.354
51379W        W21194  10.160  20.215   4.280
51380W        W21195  23.090  12.294   0.915
51381W        W21196  43.870  37.350   4.814
51382W        W21197  23.576  12.242   1.269
51383W        W21198  16.724  11.142  11.884
51384W        W21199  36.429  13.189  11.453
51385W        W21200   5.323  44.976   4.597
51386W        W21201  22.173  28.006  13.955
51387W        W21202  29.931   8.393   0.861
51388W        W21203  33.544  27.142   0.879
51389W        W21204  36.841  25.059   3.364
51390W        W21205  14.781   5.698   2.345
51391W        W21206  33.123   8.894   0.293
51392W        W21207  23.657  42.509   1.935
51393W        W21208  20.700  21.097   4.164
51394W        W21209  11.867  38.006  14.403
51395W        W21210   7.898   7.834  11.124
51396W        W21211   9.682  25.651   2.389
51397W        W21212   7.687   7.309   3.369
51398W        W21213   3.848   0.433   4.312
51399W        W21214   3.804  25.494   1.828
51400W        W21215   8.776  23.635  12.460
51401W        W21216  24.124   3.930  10.467
51402W        W21217  30.466  34.481  10.613
51403W        W21218  32.893   6.906  14.827
51404W        W21219  29.058  31.900  11.399
51405W        W21220   2.956  36.479  10.497
51406W        W21221  14.304  14.602  14.770
51407W        W21222  40.816  20.141  14.983
51408W        W21223  26.095   0.983  14.003
51409W        W21224  36.948  38.857  13.452
51410W        W21225  27.992  15.809  12.073
51411W        W21226  20.089   4.900  12.959
51412W        W21227  34.065  36.361   3.663
51413W        W21228  14.723  12.265  11.385
51414W        W21229  30.604   7.738   4.315
51415W        W21230   1.874   6.827  12.571
51416W        W21231  37.010   3.252   5.166
51417W        W21232  17.706  13.845   0.938
51418W        W21233  41.296  13.118   0.373
51419W        W21234  43.005  17.631   2.261
51420W        W21235  16.134  10.380  11.464
51421W        W21236  40.364  34.579   2.819
51422W        W21237   0.852  20.744   2.275
51423W        W21238  32.566  35.563   3.772
51424W        W21239  21.149  26.693   2.784
51425W        W21240  40.475  15.584   2.861
51426W        W21241   3.865   9.850   2.714
51427W        W21242   6.402  32.017  13.842
51428W        W21243  19.716  27.010  11.042
51429W        W21244  42.837  37.404   1.274
51430W        W21245  25.038  38.897   0.904
51431W        W21246  44.863  29.660  12.085
51432W        W21247  15.641  27.140  11.555
51433W        W21248  43.835  29.557  14.829
51434W        W21249   4.770   4.874   9.945
51435W        W21250  35.920  40.865   1.230
51436W        W21251  29.172  41.353  14.310
51437W        W21252  25.216  39.041  10.612
51438W        W21253  27.103  43.018   4.737
51439W        W21254   4.291   3.414   3.384
51440W        W21255  30.432  33.525   0.247
51441W        W21256   8.837  43.406   0.430
51442W        W21257  27.062  21.249  12.870
51443W        W21258  12.290   8.688   2.817
51444W        W21259  26.999   0.456  14.385
51445W        W21260   4.758  43.781  12.014
51446W        W21261  15.090  36.587   4.820
51447W        W21262  10.696  18.108  10.438
51448W        W21263  29.546  14.733  12.083
51449W        W21264  19.653  10.333   2.715
51450W        W21265  14.251  41.935  11.377
51451W        W21266  34.106  38.829   2.303
51452W        W21267  41.795  30.939  10.893
51453W        W21268  19.107  33.592   0.783
51454W        W21269   3.270  12.650   1.267
51455W        W21270  29.132  16.593   3.646
51456W        W21271  31.913   2.961  11.088
51457W        W21272  10.138   7.779  13.044
51458W        W21273  20.595   8.896  13.899
51459W        W21274  41.966  12.335  12.053
51460W        W21275  23.514  26.151  10.604
51461W        W21276  32.622  25.661  14.763
51462W        W21277  43.957   4.716  12.003
51463W        W21278   4.305   5.875   0.883
51464W        W21279  42.490  30.992  11.550
51465W        W21280  30.590   4.391   1.874
51466W        W21281  42.455   7.304  13.804
51467W        W21282  26.541   3.880  10.580
51468W        W21283  30.993  30.469  11.474
51469W        W21284  19.670  31.123  13.818
51470W        W21285  43.277  10.270   4.777
51471W        W21286  31.042  34.965  12.499
51472W        W21287  31.574  20.271  10.564
51473W        W21288   2.867  16.608  11.579
51474W        W21289  14.611   1.817   4.625
51475W        W21290   2.961   3.412  10.918
51476W        W21291  12.297  28.981   2.334
51477W        W21292   7.185  16.180  10.925
51478W        W21293  15.261  34.408   0.952
51479W        W21294  23.185  11.700  11.038
51480W        W21295   9.217   8.218  11.999
51481W        W21296  27.947  21.558  14.424
51482W        W21297  40.389  39.986   2.249
51483W        W21298  32.942  36.495   2.873
51484W        W21299  16.255  30.603   4.307
51485W        W21300  41.293  36.458  10.987
51486W        W21301   0.330  26.508  14.005
51487W        W21302  25.213  23.694  12.411
51488W        W21303  21.593  18.789  13.331
51489W        W21304  15.203  38.014   1.314
51490W        W21305  18.584  40.891   1.252
51491W        W21306  42.291  43.281  12.038
51492W        W21307   3.725  42.449  10.573
51493W        W21308   4.759  17.785   1.318
51494W        W21309  29.491  33.122  12.498
51495W        W21310   2.762  42.444   0.473
51496W        W21311  37.025  15.790   4.304
51497W        W21312   5.746   2.777   2.409
51498W        W21313  29.032   9.215   4.268
51499W        W21314   7.665  21.180  14.488
51500W        W21315  42.877  44.999   3.192
51501W        W21316  10.709  28.938  14.454
51502W        W21317  12.356  31.598   4.298
51503W        W21318  38.994   7.683   3.303
51504W        W21319  35.370   5.397   4.263
51505W        W21320  21.064  31.019  11.554
51506W        W21321   2.854  34.594  12.382
51507W        W21322   2.806   2.722   0.350
51508W        W21323  19.651  27.989  11.598
51509W        W21324  30.547   6.912   0.780
51510W        W21325  23.683  42.872   3.299
51511W        W21326   6.235   4.703   3.726
51512W        W21327  33.960  41.473  12.832
51513W        W21328  19.084  19.767   0.344
51514W        W21329   2.791   0.380   2.860
51515W        W21330  11.296  13.271   0.458
51516W        W21331   6.198  15.587  14.884
51517W        W21332   1.751  26.703   5.271
51518W        W21333  21.191   9.255   0.291
51519W        W21334   9.708  11.219   2.286
51520W        W21335  15.201  35.957  14.864
51521W        W21336  33.406  33.481   5.085
51522W        W21337   1.826  14.742  11.536
51523W        W21338  44.932  37.376   2.700
51524W        W21339  17.746  12.162  12.877
51525W        W21340  26.207  31.528   3.723
51526W        W21341   9.385   2.281   2.867
51527W        W21342   2.849  25.148   0.376
51528W        W21343  17.270   7.196  13.008
51529W        W21344   2.812  20.701  14.281
51530W        W21345  39.486  29.537  13.903
51531W        W21346  28.095   7.287  10.904
51532W        W21347  24.549  15.093  10.454
51533W        W21348  26.535  23.500  13.389
51534W        W21349   6.868  22.055  13.507
51535W        W21350  35.855  30.593   1.929
51536W        W21351  10.646   9.339  10.452
51537W        W21352   4.746  13.814  10.468
51538W        W21353  35.392  31.604   5.697
51539W        W21354  28.644  16.612  14.415
51540W        W21355  43.775  24.081   3.689
51541W        W21356  26.992  31.452  12.969
51542W        W21357   2.812  34.557  10.964
51543W        W21358  32.566  24.694  14.345
51544W        W21359  16.711  22.665   4.252
51545W        W21360   3.871  20.715  13.530
51546W        W21361   2.385  23.536  11.101
51547W        W21362  36.923  18.628  12.055
51548W        W21363   0.461  32.513   3.793
51549W        W21364  17.564  11.306   0.736
51550W        W21365   4.739   5.830   3.234
51551W        W21366   9.738  41.400  12.348
51552W        W21367  32.607  43.773   0.325
51553W        W21368  33.444   4.254  13.001
51554W        W21369  11.802  24.084  13.380
51555W        W21370   0.255   4.282  14.016
51556W        W21371   1.448  22.141  12.984
51557W        W21372  30.551  22.560  14.022
51558W        W21373   2.438  33.509  10.907
51559W        W21374  15.644  23.008  13.537
51560W        W21375  33.906  24.226   0.460
51561W        W21376  34.053  26.529  10.555
51562W        W21377   8.238  24.069   4.296
51563W        W21378  39.929  31.954   4.828
51564W        W21379  13.821  17.760  12.571
51565W        W21380  32.084   4.321  10.155
51566W        W21381  34.963  40.941  13.381
51567W        W21382  39.394  12.155  11.558
51568W        W21383  23.189  14.291   3.844
51569W        W21384  12.213  39.504  12.046
51570W        W21385  37.448   2.407  13.509
51571W        W21386   1.736  40.371   1.822
51572W        W21387  35.041  24.028  13.879
51573W        W21388  35.595   9.734  14.785
51574W        W21389  21.183  10.252  11.974
51575W        W21390  31.921  39.983  12.088
51576W        W21391  15.306  16.581  11.018
51577W        W21392  19.760  28.665  12.543
51578W        W21393  37.084  35.927   3.825
51579W        W21394  29.095  23.241  10.973
51580W        W21395   6.901  11.349   4.715
51581W        W21396  43.330   6.872   0.925
51582W        W21397  24.104  35.110   3.305
51583W        W21398  26.161  38.405   2.276
51584W        W21399  44.986  38.944  13.813
51585W        W21400   7.326   1.296  12.366
51586W        W21401  42.917  26.681  11.433
51587W        W21402  32.996  24.087  14.857
51588W        W21403  35.036   8.774   4.250
51589W        W21404  13.835  35.047  11.075
51590W        W21405  16.771  26.169   1.240
51591W        W21406  20.195  38.446   0.427
51592W        W21407  28.953   7.328   4.598
51593W        W21408  40.349  27.116  14.926
51594W        W21409   9.235  26.668  14.504
51595W        W21410  21.728  18.750   9.935
51596W        W21411  27.473  15.760   3.241
51597W        W21412  37.366   0.322  13.820
51598W        W21413  20.246   5.879   4.644
51599W        W21414  34.980   9.291   2.290
51600W        W21415  30.536  20.620   3.845
51601W        W21416  21.744  16.108  13.972
51602W        W21417  34.932  20.273   4.674
51603W        W21418  43.794  17.590   4.187
51604W        W21419  44.790  30.414  14.780
51605W        W21420  38.418  32.441  12.964
51606W        W21421  13.293  22.693  14.839
51607W        W21422   6.315  24.178  10.414
51608W        W21423  26.103  44.314  10.988
51609W        W21424  40.307  30.150   1.820
51610W        W21425  21.148  35.067   3.670
51611W        W21426  26.145  33.576   2.736
51612W        W21427   4.944  14.633  12.087
51613W        W21428  42.988  39.859   1.836
51614W        W21429  42.861  41.904  13.361
51615W        W21430   8.205  17.707   1.290
51616W        W21431  13.351  18.557   4.142
51617W        W21432  23.109  44.880  12.989
51618W        W21433   8.390  26.130   4.344
51619W        W21434  34.533  17.798   3.368
51620W        W21435  17.701   2.923   3.158
51621W        W21436   8.833  34.467  12.920
51622W        W21437  40.889  13.697   5.751
51623W        W21438  14.206  21.166   1.713
51624W        W21439  36.872  15.111   4.767
51625W        W21440  16.278   0.907   3.236
51626W        W21441  35.009   4.843   4.335
51627W        W21442  25.100  35.499  13.930
51628W        W21443  26.967  32.962  10.903
51629W        W21444  23.167   3.428  10.462
51630W        W21445  44.442  11.160   1.304
51631W        W21446  11.783   4.707  11.859
51632W        W21447  32.911  31.130   0.459
51633W        W21448   8.340   9.315  14.470
51634W        W21449  18.275  30.578  14.996
51635W        W21450  39.549  42.028   2.279
51636W        W21451  15.109  29.034  12.356
51637W        W21452  18.254  26.104   1.300
51638W        W21453  20.110   5.858   3.285
51639W        W21454  20.124  35.051  12.044
51640W        W21455  21.688   8.832  10.595
51641W        W21456  40.944  39.412  11.392
51642W        W21457  16.317   6.354   2.353
51643W        W21458  20.717  33.580  10.445
51644W        W21459  24.182   2.264  11.014
51645W        W21460  40.009  17.161  14.300
51646W        W21461  25.975   9.835   5.611
51647W        W21462   0.843  11.149   0.929
51648W        W21463  18.072  13.183  11.516
51649W        W21464  42.901  44.312   3.305
51650W        W21465   1.280   6.381  11.093
51651W        W21466   3.799   8.322  13.501
51652W        W21467  34.402  30.141   3.206
51653W        W21468  42.457  38.898  10.944
51654W        W21469  22.067  37.911  12.006
51655W        W21470  13.825  42.849  11.371
51656W        W21471   3.435  32.094   1.429
51657W        W21472  15.143  30.948   0.414
51658W        W21473   1.959  34.960  13.043
51659W        W21474  31.621   7.192   4.627
51660W        W21475  36.858  15.261  14.762
51661W        W21476  14.764  31.095  13.800
51662W        W21477  37.845  40.880  13.805
51663W        W21478   2.816  23.005  11.879
51664W        W21479  42.011   4.823   4.123
51665W        W21480  29.030   5.433   2.903
51666W        W21481  37.846  40.439  10.898
51667W        W21482  36.507  26.053  12.553
51668W        W21483  12.287  35.092   1.430
51669W        W21484  14.223  42.976  14.329
51670W        W21485  10.741  35.508  13.528
51671W        W21486  19.607   2.290   0.784
51672W        W21487  11.830  16.182  10.416
51673W        W21488  11.303   1.864  10.585
51674W        W21489  42.433  33.541  14.455
51675W        W21490  41.511  43.322   1.703
51676W        W21491  10.664  33.109   2.721
51677W        W21492  30.033  39.008   3.175
51678W        W21493  21.214  29.456  13.038
51679W        W21494  42.423   1.387   4.771
51680W        W21495  28.483  22.621  13.383
51681W        W21496   7.279  12.269   2.290
51682W        W21497   0.273  32.047  13.826
51683W        W21498  19.655  37.528   5.306
51684W        W21499   5.401  44.319  10.951
51685W        W21500   3.759  21.083   2.878
51686W        W21501   0.775  30.492  14.772
51687W        W21502   5.897  17.571  14.509
51688W        W21503   3.441  10.849  12.481
51689W        W21504  18.053  28.938   4.633
51690W        W21505  29.142  24.650  11.386
51691W        W21506  44.431  25.076  11.005
51692W        W21507  11.155  16.076   2.381
51693W        W21508   0.399  13.128  13.371
51694W        W21509  20.704  17.223   1.812
51695W        W21510  29.958   6.676   0.860
51696W        W21511  29.528  18.059   4.785
51697W        W21512   8.401   1.327  11.610
51698W        W21513  31.605  32.586   0.878
51699W        W21514  43.491  35.938   1.265
51700W        W21515  22.119  33.956   4.656
51701W        W21516   8.727  33.563  14.449
51702W        W21517  22.506   0.830   1.442
51703W        W21518  31.452  10.769  14.333
51704W        W21519  40.844  25.110  11.885
51705W        W21520  35.923   7.686  13.330
51706W        W21521  13.808  30.519   1.426
51707W        W21522  31.955  15.820  13.806
51708W        W21523  15.315  43.899   3.766
51709W        W21524  21.544   7.804   0.740
51710W        W21525  15.148   1.262   0.360
51711W        W21526  17.092  33.601   3.739
51712W        W21527  20.155  44.868   2.308
51713W        W21528  35.416  20.055   4.651
51714W        W21529  14.681  30.960   1.911
51715W        W21530  11.247  37.415  13.506
51716W        W21531  27.103  13.609   1.895
51717W        W21532  42.328  15.118   4.173
51718W        W21533  13.172  41.478   0.469
51719W        W21534  43.278  34.458   2.803
51720W        W21535  14.635  17.590  11.859
51721W        W21536  14.143  30.587   0.841
51722W        W21537   8.288   7.673   1.843
51723W        W21538  41.803  10.143   0.921
51724W        W21539  17.701  44.845  14.978
51725W        W21540  19.747  29.670  14.986
51726W        W21541   4.746  17.569   4.208
51727W        W21542  34.549  35.381   1.318
51728W        W21543  24.017  18.280   1.432
51729W        W21544   1.343   5.714   0.860
51730W        W21545   9.680  30.579   0.806
51731W        W21546  24.535   9.873  11.128
51732W        W21547   2.836  44.465  14.494
51733W        W21548  18.055  17.113   0.946
51734W        W21549   6.695  26.677   4.346
51735W        W21550  14.159  12.264  13.877
51736W        W21551   3.444  24.068  11.890
51737W        W21552  22.083  22.610  11.474
51738W        W21553   1.857  24.132   0.365
51739W        W21554  14.270  32.436  14.984
51740W        W21555  34.584  40.863   0.316
51741W        W21556   8.369  26.563  11.855
51742W        W21557  40.367  32.964  10.903
51743W        W21558  23.999  29.026  14.012
51744W        W21559  12.817  39.547  10.597
51745W        W21560   2.769   8.278   0.964
51746W        W21561  35.025  26.482  12.998
51747W        W21562  34.374  12.773   4.765
51748W        W21563  14.708  43.014  14.896
51749W        W21564  44.406  33.122   4.602
51750W        W21565  40.943  23.148  11.943
51751W        W21566  42.292  25.558   0.824
51752W        W21567  31.900  17.134  11.097
51753W        W21568  23.541   5.704   2.418
51754W        W21569  16.741  40.358   0.250
51755W        W21570  28.436  31.614   1.345
51756W        W21571  39.005  44.297  13.861
51757W        W21572   1.970  29.929  13.394
51758W        W21573  44.810  40.324   4.250
51759W        W21574  30.986  12.738  14.283
51760W        W21575   5.892  25.022  10.544
51761W        W21576  25.604  11.190   5.255
51762W        W21577  15.823  21.533   3.752
51763W        W21578  42.457  33.079   1.857
51764W        W21579  37.041   3.748  14.315
51765W        W21580  19.239   5.852   0.323
51766W        W21581  22.122  14.246  13.323
51767W        W21582  22.154  20.063   2.206
51768W        W21583   5.820  30.621  10.944
51769W        W21584  21.568  43.469  14.795
51770W        W21585   6.887  41.863   2.337
51771W        W21586  13.109   1.355  14.513
51772W        W21587  25.613  43.948  11.441
51773W        W21588   5.777  15.188   3.731
51774W        W21589  16.619  10.302  10.903
51775W        W21590   5.314  20.609  14.784
51776W        W21591  14.194  29.478  11.065
51777W        W21592  25.195   2.432   2.235
51778W        W21593  21.096  42.320  13.889
51779W        W21594   1.339  11.274   2.855
51780W        W21595  36.038  23.733  11.469
51781W        W21596  36.406  29.572   1.378
51782W        W21597  12.642  38.520   2.240
51783W        W21598  33.079  25.540   2.830
51784W        W21599   8.799  11.276   3.793
51785W        W21600  33.438  18.183   1.238
51786W        W21601   4.852  26.522  13.816
51787W        W21602  13.780  15.173   2.767
51788W        W21603  11.838  35.090  12.510
51789W        W21604  34.920   0.854  13.476
51790W        W21605  32.050  30.083   1.749
51791W        W21606  17.655  15.813  13.488
51792W        W21607  42.825   0.494   4.641
51793W        W21608  14.249   1.469   4.609
51794W        W21609  27.102   2.752  14.382
51795W        W21610  13.675  41.423  14.403
51796W        W21611  12.848  44.873   3.279
51797W        W21612  32.566  32.631  11.533
51798W        W21613  18.720  40.834  14.976
51799W        W21614  34.017  17.622   4.814
51800W        W21615  17.641  37.983  14.471
51801W        W21616  31.102  18.652   0.434
51802W        W21617  35.979  34.025   5.665
51803W        W21618  26.635  25.711  14.924
51804W        W21619  38.903   1.304  11.607
51805W        W21620  30.063  39.443   2.223
51806W        W21621  32.474   6.362   0.918
51807W        W21622  43.394  17.607  14.347
51808W        W21623  19.232  24.550  13.058
51809W        W21624  40.445  15.794  14.877
51810W        W21625  27.648  16.190  12.362
51811W        W21626  22.222  11.310   1.698
51812W        W21627  39.437  38.477   0.305
51813W        W21628  24.074  43.918   0.342
51814W        W21629   3.265  26.651  14.026
51815W        W21630  41.921   3.219  12.506
51816W        W21631   3.852   5.891  10.998
51817W        W21632  18.647  16.303  12.863
51818W        W21633  38.328  28.679   4.254
51819W        W21634  41.969  34.477   0.825
51820W        W21635  29.605  37.875  14.947
51821W        W21636  21.541  43.961   3.640
51822W        W21637  25.080  17.158  11.063
51823W        W21638  12.349  36.463   2.836
51824W        W21639  43.347   2.350  13.974
51825W        W21640  36.554   1.424  12.036
51826W        W21641  33.581  11.365   0.883
51827W        W21642   6.355  23.562   2.865
51828W        W21643  32.120  23.240   2.331
51829W        W21644   7.247   4.885   0.333
51830W        W21645  37.453  21.554  10.541
51831W        W21646   5.358  34.989   1.855
51832W        W21647  25.531  43.306   4.254
51833W        W21648  21.157  37.341  14.287
51834W        W21649  39.503  25.667   2.691
51835W        W21650  13.221   5.199  13.313
51836W        W21651  41.022  18.707  11.127
51837W        W21652  38.901  29.468  13.327
51838W        W21653  20.220  40.442  11.868
51839W        W21654  17.723  10.651   3.670
51840W        W21655  36.908  38.544   2.390
51841W        W21656  38.990  26.178  13.333
51842W        W21657  13.330  10.254  14.310
51843W        W21658  15.109  42.308  13.415
51844W        W21659  32.513   4.358   1.294
51845W        W21660   6.906  29.580   4.172
51846W        W21661   8.731  17.577   1.762
51847W        W21662  36.432  21.110  12.398
51848W        W21663  15.803   5.351  11.520
51849W        W21664  22.567   6.790  10.439
51850W        W21665   9.776  44.414  10.999
51851W        W21666  20.044  10.279  13.856
51852W        W21667  41.898  29.557   1.868
51853W        W21668  39.363  11.747   4.732
51854W        W21669  18.589  38.898  14.280
51855W        W21670   8.196  11.821  12.025
51856W        W21671  40.875  31.946   0.311
51857W        W21672  28.016   5.718   3.838
51858W        W21673  18.173   2.232   0.421
51859W        W21674   5.230   2.951   0.793
51860W        W21675  22.247  16.774  12.570
51861W        W21676  19.152  41.965   1.810
51862W        W21677  18.630   4.328  14.290
51863W        W21678  18.612  35.860   2.286
51864W        W21679  23.202  27.590  10.993
51865W        W21680  11.205  27.103  14.456
51866W        W21681  27.045  40.806  13.799
51867W        W21682  33.111  26.162  11.983
51868W        W21683   7.188  33.046   1.932
51869W        W21684   0.341  19.232  12.514
51870W        W21685   9.789  26.204  13.509
51871W        W21686  11.819   1.851   3.157
51872W        W21687   1.912   1.366  14.987
51873W        W21688   8.662  23.732  12.951
51874W        W21689  22.223  12.347  13.036
51875W        W21690  20.594  32.996   1.338
51876W        W21691  15.305   5.238  11.500
51877W        W21692  12.845   0.760  10.622
51878W        W21693  35.028  16.795  12.518
51879W        W21694  31.010  22.225   2.674
51880W        W21695  27.630  22.055  13.409
51881W        W21696   0.315  40.541   1.283
51882W        W21697  16.727  17.140   2.249
51883W        W21698  14.603  31.024  13.034
51884W        W21699   0.930  14.216   5.173
51885W        W21700  26.081   6.848  11.936
51886W        W21701   6.233  18.228   0.260
51887W        W21702  12.615  26.144  10.483
51888W        W21703  32.982  12.756  11.023
51889W        W21704   2.250   8.367   4.820
51890W        W21705   3.750  24.004  11.426
51891W        W21706  25.586   6.894   4.826
51892W        W21707  25.613  40.819   1.921
51893W        W21708  44.805  34.019   0.727
51894W        W21709  14.835   2.283  13.798
51895W        W21710  39.316  31.901  13.062
51896W        W21711   8.193  39.456  14.761
51897W        W21712   1.965  36.461   2.182
51898W        W21713   9.856   7.287   1.784
51899W        W21714   4.890  35.911  10.151
51900W        W21715  28.042  39.002   0.248
51901W        W21716   5.770  13.756  13.464
51902W        W21717  31.911  35.049   1.831
51903W        W21718  19.051   3.292  12.558
51904W        W21719  32.125  10.317   1.891
51905W        W21720  12.360   2.740  10.954
51906W        W21721  16.627  37.351  13.434
51907W        W21722  23.028  37.963  14.799
51908W        W21723  13.639  24.216  12.456
51909W        W21724  23.039   4.399  10.935
51910W        W21725   9.859   0.780  10.965
51911W        W21726  13.791  34.095  13.885
51912W        W21727  12.726  42.811  14.905
51913W        W21728  33.010  29.091  11.076
51914W        W21729  13.117  44.345   4.606
51915W        W21730  21.044  14.183   4.208
51916W        W21731   5.758  40.055   2.696
51917W        W21732  34.094  17.692   2.383
51918W        W21733  26.518  12.250  14.317
51919W        W21734  29.132  10.345   4.184
51920W        W21735   1.257  29.534  14.888
51921W        W21736  39.536  12.349   3.821
51922W        W21737   8.873  16.677   4.354
51923W        W21738  21.560   0.255  12.524
51924W        W21739  30.533  41.317   4.337
51925W        W21740  40.399  38.070  12.411
51926W        W21741  27.503  33.478   3.682
51927W        W21742  25.503  21.123   9.995
51928W        W21743  20.732  34.065   3.662
51929W        W21744  30.567   8.742  13.504
51930W        W21745   2.944   7.726   0.760
51931W        W21746  29.524   5.360  11.451
51932W        W21747   1.972  20.657   2.289
51933W        W21748  11.222  36.421  13.896
51934W        W21749  33.882  43.965  12.896
51935W        W21750  31.601  11.763  14.938
51936W        W21751  32.925  42.989  13.879
51937W        W21752  31.057  16.752  11.413
51938W        W21753  10.680  10.257   4.299
51939W        W21754  38.931  44.492  12.015
51940W        W21755  17.157  20.038  12.994
51941W        W21756  21.089  39.326   4.168
51942W        W21757   0.485   6.358   1.434
51943W        W21758  10.786  29.097   1.860
51944W        W21759  42.359  20.107   2.847
51945W        W21760  29.065  30.978   3.200
51946W        W21761  24.570  24.563   1.929
51947W        W21762  18.228  11.738   2.392
51948W        W21763  43.393  38.899  14.766
51949W        W21764  37.860  28.037  14.853
51950W        W21765  10.265  20.639   2.837
51951W        W21766  19.074  26.978   3.790
51952W        W21767   0.430   7.181  12.028
51953W        W21768  17.784  29.667  10.979
51954W        W21769   1.843  32.622  10.623
51955W        W21770  39.385  26.640  10.425
51956W        W21771  35.497  39.016   1.335
51957W        W21772  31.066  27.551  10.448
51958W        W21773  22.217   6.355   3.147
51959W        W21774  20.726   4.405   4.215
51960W        W21775  24.562   5.421   4.213
51961W        W21776  18.592  30.917   3.350
51962W        W21777  15.308   4.362  14.993
51963W        W21778  33.424  34.453   3.866
51964W        W21779  34.102  30.021   3.787
51965W        W21780  41.340   9.230   3.774
51966W        W21781  31.909  15.593   2.665
51967W        W21782  21.584  18.737  13.044
51968W        W21783  12.120  21.060  10.985
51969W        W21784  21.545  17.622  14.393
51970W        W21785   1.924  39.430  13.516
51971W        W21786   0.946   5.402   4.643
51972W        W21787  10.178   1.314   0.936
51973W        W21788  33.493  36.468  13.445
51974W        W21789  35.407  38.419   0.821
51975W        W21790  17.087  40.039  10.139
51976W        W21791  11.308  17.691   4.620
51977W        W21792  25.475   0.963  10.641
51978W        W21793  29.460  29.595   4.658
51979W        W21794  12.256  40.952   4.758
51980W        W21795   0.363  44.416  13.315
51981W        W21796  11.203  35.587   0.760
51982W        W21797  26.508  14.593  10.554
51983W        W21798   9.256  27.963   0.744
51984W        W21799  14.302   0.490   2.793
51985W        W21800   0.494  26.995   0.762
51986W        W21801  18.125  27.080  13.444
51987W        W21802  30.127  31.647   1.752
51988W        W21803   2.290  35.567  14.031
51989W        W21804   1.857  17.206   1.363
51990W        W21805  35.441   7.763  11.436
51991W        W21806  28.979  44.851  10.642
51992W        W21807  40.339   5.905   9.995
51993W        W21808  28.045  14.597   4.114
51994W        W21809   7.695  12.212  13.505
51995W        W21810   6.216  33.999   4.280
51996W        W21811  11.684   5.824   2.268
51997W        W21812  36.979  12.636  14.898
51998W        W21813   3.811   9.797   3.154
51999W        W21814  12.138  37.967  13.326
52000W        W21815   0.858  39.436   1.862
52001W        W21816  32.938  43.383  11.126
52002W        W21817   3.905   7.301   5.126
52003W        W21818  25.475  35.566  13.914
52004W        W21819  13.718  32.013   3.195
52005W        W21820  28.645   3.328   3.745
52006W        W21821  11.674  12.720   1.822
52007W        W21822   1.919  37.453   0.343
52008W        W21823  39.895  15.198   1.250
52009W        W21824  29.568  31.129  10.434
52010W        W21825   9.279  37.037   2.331
52011W        W21826   1.283   9.348   4.271
52012W        W21827  19.274  22.160  10.525
52013W        W21828  36.506  41.328  10.890
52014W        W21829  20.628  21.116  11.960
52015W        W21830   1.759  21.129  11.507
52016W        W21831   9.764   8.258  12.526
52017W        W21832  39.320  21.546  13.369
52018W        W21833  11.171  32.967  12.055
52019W        W21834  21.746   7.173  13.323
52020W        W21835   5.413  35.590  11.491
52021W        W21836   5.771  39.339  14.861
52022W        W21837   7.237  17.579   0.940
52023W        W21838   0.347  23.002   0.444
52024W        W21839  26.116  31.015  13.341
52025W        W21840  38.000  21.140   4.696
52026W        W21841  21.131  15.218   3.162
52027W        W21842  33.881  22.013   2.222
52028W        W21843  22.081  13.152   3.678
52029W        W21844  23.565  33.560   2.807
52030W        W21845  44.815   9.758   0.853
52031W        W21846  27.953  31.994  14.338
52032W        W21847  43.978  35.363  14.843
52033W        W21848  34.994  13.291  12.903
52034W        W21849  34.445   1.753   3.233
52035W        W21850  25.168  23.084   2.688
52036W        W21851  33.892  13.777  11.993
52037W        W21852  35.078  13.634  12.497
52038W        W21853  29.465  18.622   4.615
52039W        W21854  43.838  40.872  12.517
52040W        W21855   9.833  42.346   2.733
52041W        W21856   1.747   2.908  10.583
52042W        W21857   1.902   8.369   4.815
52043W        W21858  40.907  34.604  13.928
52044W        W21859  35.950   9.207   1.310
52045W        W21860  23.734  21.175  12.357
52046W        W21861   5.421   4.773   3.711
52047W        W21862  11.856  15.741  12.938
52048W        W21863  15.122  20.111  12.024
52049W        W21864   4.710  36.086  13.827
52050W        W21865  17.141  44.412   1.317
52051W        W21866  39.968  38.039  12.042
52052W        W21867  26.506  17.273  10.587
52053W        W21868   7.391  12.175   1.925
52054W        W21869  15.672  15.644   0.382
52055W        W21870  20.544  13.234   2.392
52056W        W21871  27.515   6.718   2.347
52057W        W21872   3.778   0.905  10.612
52058W        W21873  11.643  20.227  13.017
52059W        W21874   8.268  31.490   3.367
52060W        W21875  37.539  10.311   4.619
52061W        W21876  13.276  26.536  13.980
52062W        W21877  28.030  27.162  12.075
52063W        W21878  29.079  24.047   3.300
52064W        W21879  11.800   0.881   5.126
52065W        W21880  20.116  11.229  10.943
52066W        W21881  42.944  44.851  14.337
52067W        W21882  31.556  29.969  12.848
52068W        W21883  43.339  29.512   3.799
52069W        W21884   9.683   8.689  13.024
52070W        W21885  41.815  20.626  10.924
52071W        W21886  42.352  27.071  12.943
52072W        W21887  22.030   8.732  10.481
52073W        W21888  31.430  14.759   0.386
52074W        W21889  38.373   6.813   2.765
52075W        W21890  22.066  31.987   4.741
52076W        W21891   2.453  13.256   3.636
52077W        W21892  19.186  35.389   2.891
52078W        W21893  11.362  27.121  13.803
52079W        W21894   2.894  37.984   1.873
52080W        W21895  18.561  17.066   2.804
52081W        W21896   6.359  14.738  14.376
52082W        W21897  18.125  16.698   0.324
52083W        W21898  22.733  33.986   3.793
52084W        W21899  43.848  14.800   0.748
52085W        W21900  28.974  34.371  13.349
52086W        W21901  14.193  10.831   3.776
52087W        W21902   3.905  37.018   3.360
52088W        W21903   3.431  34.076  11.985
52089W        W21904   5.391  41.962   4.324
52090W        W21905  27.538  27.463   0.868
52091W        W21906   8.216  17.105  12.056
52092W        W21907  23.619  39.445   2.744
52093W        W21908  41.957  22.068  10.446
52094W        W21909  23.231  30.998   2.813
52095W        W21910  19.690  21.544  12.574
52096W        W21911  14.798  38.386   3.270
52097W        W21912  11.361  10.312   3.809
52098W        W21913  36.492  28.115   0.856
52099W        W21914  38.408  35.002  14.289
52100W        W21915  23.688  28.567   1.825
52101W        W21916  34.913  11.636  13.941
52102W        W21917  18.207  32.125  12.020
52103W        W21918   3.735  30.994   0.771
52104W        W21919  17.751   2.387   3.248
52105W        W21920  37.844   1.814   0.840
52106W        W21921  15.771   2.880   2.401
52107W        W21922  41.945  11.169  14.956
52108W        W21923  14.614  16.657   1.314
52109W        W21924  15.274  11.797  11.533
52110W        W21925  35.595  32.007  14.460
52111W        W21926  39.938   1.239  11.954
52112W        W21927  28.021  39.880   2.838
52113W        W21928  43.412   1.333  13.910
52114W        W21929  16.085  34.040  13.925
52115W        W21930  23.094  10.239   3.632
52116W        W21931  41.491  17.694  12.979
52117W        W21932   8.383  21.060   4.684
52118W        W21933  40.841   5.877  11.556
52119W        W21934  42.893  15.090  12.456
52120W        W21935  17.197   7.330   0.388
52121W        W21936  39.855   4.438  12.555
52122W        W21937  42.830  27.092  14.506
52123W        W21938  20.614   5.798  13.458
52124W        W21939  43.001  36.547   1.299
52125W        W21940  37.002  13.330   4.609
52126W        W21941  18.272  31.633  10.983
52127W        W21942  13.788  19.776   2.745
52128W        W21943  12.709  15.638  14.974
52129W        W21944  44.386   8.838   4.331
52130W        W21945   3.448   3.723  13.365
52131W        W21946  42.828   8.720   2.293
52132W        W21947  40.921  20.166   4.273
52133W        W21948  32.996  24.658  13.368
52134W        W21949  33.418  34.048  12.004
52135W        W21950  23.491  30.501  12.959
52136W        W21951   4.213   4.263   2.323
52137W        W21952  13.821  15.762  12.989
52138W        W21953  38.349   1.433   3.314
52139W        W21954  20.097  41.298   3.315
52140W        W21955  24.073  27.011  13.447
52141W        W21956  33.131  35.543   0.890
52142W        W21957  11.754  27.022  14.879
52143W        W21958  16.224  19.667   3.847
52144W        W21959  25.702   3.790   2.413
52145W        W21960   2.410  34.429  12.361
52146W        W21961  44.823  19.167  11.084
52147W        W21962  28.936   2.848   3.383
52148W        W21963  38.532  18.132  12.911
52149W        W21964  24.091  17.689  11.035
52150W        W21965  41.016   5.227   1.919
52151W        W21966  34.576  29.171   2.217
52152W        W21967  35.887  43.457  14.029
52153W        W21968   4.865   3.369   4.772
52154W        W21969  22.152  41.941   0.789
52155W        W21970  41.374  19.602   1.883
52156W        W21971  43.298  34.522  13.488
52157W        W21972  20.063  14.243   4.691
52158W        W21973  32.542   7.278   3.269
52159W        W21974  41.855  23.026  14.848
52160W        W21975  14.253  27.133   1.322
52161W        W21976  33.437  36.981  10.537
52162W        W21977  21.635  23.623  13.824
52163W        W21978  17.166  20.247   2.795
52164W        W21979  14.680  16.739   2.777
52165W        W21980  18.196   6.803   3.852
52166W        W21981  44.918  17.107  14.288
52167W        W21982  20.586  21.524   2.678
52168W        W21983  20.213  15.581   1.394
52169W        W21984  11.128  39.437  14.793
52170W        W21985   7.405  12.342  11.426
52171W        W21986  20.121  37.448  14.853
52172W        W21987  25.479  28.932   0.438
52173W        W21988  19.269  36.365  12.504
52174W        W21989  17.584   7.722  14.421
52175W        W21990   0.405  12.825  14.476
52176W        W21991  15.114  35.396   2.385
52177W        W21992   3.725  30.604  10.976
52178W        W21993  16.662   4.774  10.926
52179W        W21994  21.108  28.184  11.555
52180W        W21995  29.425  21.648  12.059
52181W        W21996  40.502   6.918   4.625
52182W        W21997  16.140  35.968  13.317
52183W        W21998   3.326  16.594  12.980
52184W        W21999  27.192  32.924  11.944
52185W        W22000   4.707   1.927   4.706
52186W        W22001   3.807  34.947  14.772
52187W        W22002   6.878  25.643   0.892
52188W        W22003  43.871  31.571  13.437
52189W        W22004  43.016  25.470   2.308
52190W        W22005  31.623  13.697   4.152
52191W        W22006   0.756   2.787   0.452
52192W        W22007  23.551  39.523   3.672
52193W        W22008  40.867  18.271  13.384
52194W        W22009  16.085  11.272   1.923
52195W        W22010  12.856   5.871   1.818
52196W        W22011  35.009  41.414  14.390
52197W        W22012  39.390  30.977   0.823
52198W        W22013  24.196  34.101   1.849
52199W        W22014  17.628  17.774   1.212
52200W        W22015   6.776  32.103  13.847
52201W        W22016  39.544  12.648   1.907
52202W        W22017  31.527  30.499  12.902
52203W        W22018  23.490   0.942  13.053
52204W        W22019   6.685  19.282  10.590
52205W        W22020  40.421   6.806   9.639
52206W        W22021  15.777  26.145  11.486
52207W        W22022   4.298  14.759  12.000
52208W        W22023  23.524  31.974  12.464
52209W        W22024  19.584  34.024   4.298
52210W        W22025   0.281  35.028   3.801
52211W        W22026  20.536  15.297  13.518
52212W        W22027   4.439  43.425  11.997
52213W        W22028   7.217  38.952  10.516
52214W        W22029  27.675  39.401   1.292
52215W        W22030  20.708  30.448   3.384
52216W        W22031  44.424  31.058   4.153
52217W        W22032   5.367  16.669   0.396
52218W        W22033  14.757  34.866  11.609
52219W        W22034  18.070  14.237  10.945
52220W        W22035  13.663  36.019   2.862
52221W        W22036  30.526  37.953   3.812
52222W        W22037   9.378  18.294   3.659
52223W        W22038  42.861   7.703   2.221
52224W        W22039  24.001  43.280   2.266
52225W        W22040   2.839  18.560   1.932
52226W        W22041  28.458  13.715  11.445
52227W        W22042  10.222  36.467  10.506
52228W        W22043  38.847  17.639   5.217
52229W        W22044  36.096  34.008  14.969
52230W        W22045  35.107  17.194   2.675
52231W        W22046  13.145   8.790  12.569
52232W        W22047  20.759  14.215  10.502
52233W        W22048  28.640  31.538   4.624
52234W        W22049  40.339  33.556   1.828
52235W        W22050  36.504  40.399   1.841
52236W        W22051   3.758  31.447  12.047
52237W        W22052  23.722  21.072   1.739
52238W        W22053  37.338  12.130   4.296
52239W        W22054   6.405  44.261  11.440
52240W        W22055  32.952   4.338  11.103
52241W        W22056  21.680   5.301   2.380
52242W        W22057   9.232   6.250   0.318
52243W        W22058   2.252  10.247  13.350
52244W        W22059  25.550   5.393   3.368
52245W        W22060   4.909  38.073   0.895
52246W        W22061   3.717  25.024   2.223
52247W        W22062  13.288  32.950   1.239
52248W        W22063  25.032  17.739   1.321
52249W        W22064  20.548  13.704  13.498
52250W        W22065  15.633   6.428   4.755
52251W        W22066  40.309  21.046  12.061
52252W        W22067  43.322  36.082   3.670
52253W        W22068  28.480  38.913   3.726
52254W        W22069   4.833  10.302   0.946
52255W        W22070  15.183  41.025   4.733
52256W        W22071   7.325  38.018  11.389
52257W        W22072  26.582  15.233  14.007
52258W        W22073  39.371  40.969   2.290
52259W        W22074  10.355  28.144   3.239
52260W        W22075  28.159  29.995  13.525
52261W        W22076  24.553  17.681  11.872
52262W        W22077  38.448  24.631   4.120
52263W        W22078  27.940  43.356  12.447
52264W        W22079  27.139   8.797   4.254
52265W        W22080   3.822  29.985  11.867
52266W        W22081  26.635  19.557   1.212
52267W        W22082  23.657  40.367   4.783
52268W        W22083  37.080  26.488   0.726
52269W        W22084  33.544  21.672  13.824
52270W        W22085  14.106  31.996  13.448
52271W        W22086   7.372  26.071   3.710
52272W        W22087  36.993  11.802   3.656
52273W        W22088  26.040  27.686   0.768
52274W        W22089  23.555   7.365  13.859
52275W        W22090   5.843  35.054   3.758
52276W        W22091  16.235  14.208  14.449
52277W        W22092  21.129  35.968  13.483
52278W        W22093  14.247   1.319   1.841
52279W        W22094  19.739  43.958   2.779
52280W        W22095  30.075  34.932  14.909
52281W        W22096  11.259   5.892  13.986
52282W        W22097  31.539  31.461   3.186
52283W        W22098  44.938  24.190   1.299
52284W        W22099  30.943  21.086  11.396
52285W        W22100  37.929  14.682  12.366
52286W        W22101   5.711  12.158  14.015
52287W        W22102  33.539  26.116  12.434
52288W        W22103  29.956  29.565  11.554
52289W        W22104  41.458  35.432   0.364
52290W        W22105  20.202  21.123  12.512
52291W        W22106   3.323  40.470   2.688
52292W        W22107   7.276  28.112  13.965
52293W        W22108  35.060  44.289  14.991
52294W        W22109   3.735  41.319   4.636
52295W        W22110  20.586  41.846   1.863
52296W        W22111  10.176  23.240   3.286
52297W        W22112  40.328  39.914   1.747
52298W        W22113  28.990   6.878   3.788
52299W        W22114   6.734  20.063  13.035
52300W        W22115  19.760  11.704  11.870
52301W        W22116  29.623  13.306  13.448
52302W        W22117  23.613   7.194  12.852
52303W        W22118   4.375   6.239   2.327
52304W        W22119  32.119  38.036   1.403
52305W        W22120  22.508  18.109   4.726
52306W        W22121  28.112  35.488  13.020
52307W        W22122  44.306  16.268  13.463
52308W        W22123   3.808  33.121  11.987
52309W        W22124  32.564  41.956  13.394
52310W        W22125  13.764   6.746   1.260
52311W        W22126  43.351  23.101  11.399
52312W        W22127   0.927   4.216  14.339
52313W        W22128  25.140  14.720   3.650
52314W        W22129   8.340  34.447   2.684
52315W        W22130  22.175   8.721  14.482
52316W        W22131  26.491  37.002   4.176
52317W        W22132  20.609  21.083   4.817
52318W        W22133  42.886  12.635  13.486
52319W        W22134  20.723  19.166  10.606
52320W        W22135  19.198  42.517   1.271
52321W        W22136  15.182   5.741   0.374
52322W        W22137  12.279   8.198  11.003
52323W        W22138  15.301   5.409  14.504
52324W        W22139   3.388  30.127  12.845
52325W        W22140  27.618  19.085  12.903
52326W        W22141  18.668  32.125   0.283
52327W        W22142  18.721  16.714  11.450
52328W        W22143  13.136   9.227   1.349
52329W        W22144  35.030  33.130  12.516
52330W        W22145  27.050  42.894  13.309
52331W        W22146  19.696  41.002   4.758
52332W        W22147  32.126  10.802  11.970
52333W        W22148  15.751   5.762   0.957
52334W        W22149  37.429  40.914   3.242
52335W        W22150  14.644  17.180  13.959
52336W        W22151  38.073  24.193  12.481
52337W        W22152  25.706  41.397   5.204
52338W        W22153   6.751  22.582   1.864
52339W        W22154   1.840  33.080   1.393
52340W        W22155  18.670  43.417  11.035
52341W        W22156  24.035  26.565  14.873
52342W        W22157  19.626  23.013   2.878
52343W        W22158  25.658  28.510  11.006
52344W        W22159  24.530  27.058  10.890
52345W        W22160   4.845  15.326  10.974
52346W        W22161  16.202  32.417  12.403
52347W        W22162   7.760  15.261   1.287
52348W        W22163  38.376  26.162  13.370
52349W        W22164  17.194  35.075   3.744
52350W        W22165   6.316   7.195  13.495
52351W        W22166  30.576  25.531   4.652
52352W        W22167   5.692  21.625   0.316
52353W        W22168  33.502  41.410  12.945
52354W        W22169  33.988  31.142   3.869
52355W        W22170  18.683  26.174   2.788
52356W        W22171  44.759  12.778  12.867
52357W        W22172  21.185   6.261  12.072
52358W        W22173   4.830  31.597  14.442
52359W        W22174  22.171   2.376  11.859
52360W        W22175  37.078   8.333  13.873
52361W        W22176  39.033  39.837  10.981
52362W        W22177  16.195  13.188  13.520
52363W        W22178  11.690   0.380  13.352
52364W        W22179   2.772  14.181   4.334
52365W        W22180  25.589   9.725  14.378
52366W        W22181   4.260  14.631  14.909
52367W        W22182  11.284  28.607   3.739
52368W        W22183  16.133  10.800  14.007
52369W        W22184  15.607  24.693  12.359
52370W        W22185  15.248   3.459   4.601
52371W        W22186  43.444  13.145   4.253
52372W        W22187  38.867  18.224   2.871
52373W        W22188  17.774  10.284  14.860
52374W        W22189   4.270  38.946  13.938
52375W        W22190  40.471  20.735   2.187
52376W        W22191   5.374   4.887  13.946
52377W        W22192   8.365   0.474   3.856
52378W        W22193  28.642   7.328   0.904
52379W        W22194  20.136  24.101   0.442
52380W        W22195  13.671   6.682  10.564
52381W        W22196  17.622  19.109  13.992
52382W        W22197  39.900  10.263  11.062
52383W        W22198  31.405  35.065   1.789
52384W        W22199  15.583  23.710  13.351
52385W        W22200  16.630  20.255   4.631
52386W        W22201   0.946  10.763   2.412
52387W        W22202  37.988  39.413  13.817
52388W        W22203  38.500  43.491  14.789
52389W        W22204  10.821  42.465  11.013
52390W        W22205  38.063   8.167  11.525
52391W        W22206  39.051  39.024   1.231
52392W        W22207   4.296  16.715   4.734
52393W        W22208  23.540  18.690  10.157
52394W        W22209  32.052  21.197   5.091
52395W        W22210  19.721  10.323   1.854
52396W        W22211  23.036  37.530  14.276
52397W        W22212  25.017  39.976   5.169
52398W        W22213  35.095  33.056  11.446
52399W        W22214  13.267  14.237   1.261
52400W        W22215  12.155  39.416  11.045
52401W        W22216  26.465  17.074   2.346
52402W        W22217  13.281  25.538   4.636
52403W        W22218  11.674  18.570   0.831
52404W        W22219  18.556  22.518  10.100
52405W        W22220  39.505  26.621   4.174
52406W        W22221  17.623  32.417  11.389
52407W        W22222  28.176   6.826  11.541
52408W        W22223   3.426  40.367   4.122
52409W        W22224  31.445  25.706  14.937
52410W        W22225  32.074   1.906   0.375
52411W        W22226  41.406  31.963  10.556
52412W        W22227  31.432  33.087  10.604
52413W        W22228  12.283  42.814  13.052
52414W        W22229  17.079   5.210  14.929
52415W        W22230   8.853   5.275   1.336
52416W        W22231  29.549  40.390  11.902
52417W        W22232  32.014  36.964  11.992
52418W        W22233   4.913  32.560  14.899
52419W        W22234   3.917  20.261   4.764
52420W        W22235  32.917  20.522  10.608
52421W        W22236  13.686  10.283  12.824
52422W        W22237  24.673  24.056  12.360
52423W        W22238  18.177   1.814  13.441
52424W        W22239   7.279  41.021   4.195
52425W        W22240  37.420  14.227   2.343
52426W        W22241   0.747  40.015  13.401
52427W        W22242  25.628  11.229  11.464
52428W        W22243  40.946  43.841   1.818
52429W        W22244   5.887  28.586  10.917
52430W        W22245   6.904  34.506   4.119
52431W        W22246  12.708  17.273   4.132
52432W        W22247  42.467  36.982   3.715
52433W        W22248   9.283   4.209  12.853
52434W        W22249  32.891  21.162  13.482
52435W        W22250  37.010  16.107  10.524
52436W        W22251  27.468  25.057  14.364
52437W        W22252   9.854   5.328   2.182
52438W        W22253  41.505  38.039   1.801
52439W        W22254  38.365  34.454  13.966
52440W        W22255  22.534  25.681   1.855
52441W        W22256   8.382  21.643  10.624
52442W        W22257  21.168  22.228   4.319
52443W        W22258   4.280  29.155  11.973
52444W        W22259  16.771  16.267   3.293
52445W        W22260  25.060  15.121  11.454
52446W        W22261  36.956  15.142   3.368
52447W        W22262  36.427  26.515  11.963
52448W        W22263  36.409  17.752   2.891
52449W        W22264  24.499  25.164  11.496
52450W        W22265  41.395   5.706   0.459
52451W        W22266  33.033  27.169  12.512
52452W        W22267   5.420  27.658   2.416
52453W        W22268  39.470  24.134  11.936
52454W        W22269  20.667  19.690  11.072
52455W        W22270  25.148  27.647   3.839
52456W        W22271   0.324  37.442  14.347
52457W        W22272  31.934  27.167   0.918
52458W        W22273  35.953  11.658   5.242
52459W        W22274  29.553   9.808   4.270
52460W        W22275  23.103  29.134  11.533
52461W        W22276  40.477  37.064   4.285
52462W        W22277  43.915  23.035   2.776
52463W        W22278  31.578  42.920  13.984
52464W        W22279  42.942  18.222  12.904
52465W        W22280  19.051  36.953   4.738
52466W        W22281  40.828  42.498  12.851
52467W        W22282  13.172  39.539   1.700
52468W        W22283  33.460  16.243  13.326
52469W        W22284  22.669  22.526  10.412
52470W        W22285   0.487  31.032  12.019
52471W        W22286  11.180  36.070   0.907
52472W        W22287   9.355  35.024   2.267
52473W        W22288   1.367  18.187   0.396
52474W        W22289  28.108  43.020  10.581
52475W        W22290  25.666   6.806   4.173
52476W        W22291  44.910  11.337  14.027
52477W        W22292  11.263  34.017   4.735
52478W        W22293  17.799  17.657  12.913
52479W        W22294  40.939  31.437  13.391
52480W        W22295   6.335  18.265  10.500
52481W        W22296  42.982  37.889   0.904
52482W        W22297  26.639   8.683   1.832
52483W        W22298  38.039  19.244   2.366
52484W        W22299  21.555  27.661   0.250
52485W        W22300  24.164  26.965   0.733
52486W        W22301  19.677   1.350  12.869
52487W        W22302  37.944   0.788  12.010
52488W        W22303  42.493  21.665  12.468
52489W        W22304  15.097  30.618  12.378
52490W        W22305  40.423   1.299  14.344
52491W        W22306   7.378  13.687  11.008
52492W        W22307   9.809  38.478   0.761
52493W        W22308   5.218   4.348  13.998
52494W        W22309  39.015  28.934   1.214
52495W        W22310  37.856  22.171   0.916
52496W        W22311  22.098  20.652  11.568
52497W        W22312  41.340  28.590  11.509
52498W        W22313  29.490   0.255  13.348
52499W        W22314  25.483  39.520  14.361
52500W        W22315  35.465   6.756   1.894
52501W        W22316  35.502   5.899  10.524
52502W        W22317  10.234  44.802   2.200
52503W        W22318  26.625  28.073   4.808
52504W        W22319  16.789  32.471   2.873
52505W        W22320  26.096  33.113   0.424
52506W        W22321  24.687  12.855   4.687
52507W        W22322  27.169  31.926  13.913
52508W        W22323   5.909  29.165  11.921
52509W        W22324  21.537  36.871  10.405
52510W        W22325   4.258  17.594   4.808
52511W        W22326  36.857   8.291  14.804
52512W        W22327   6.402  27.143  12.088
52513W        W22328  22.108   7.179  13.869
52514W        W22329  34.446  22.584   1.331
52515W        W22330  36.531  32.048   1.868
52516W        W22331  39.487  36.582  14.442
52517W        W22332  11.153   9.257   1.876
52518W        W22333   6.716  33.022   2.856
52519W        W22334  15.651  17.151  11.877
52520W        W22335  40.942  38.830  14.935
52521W        W22336   2.889  38.839  13.991
52522W        W22337  17.557  30.163  14.407
52523W        W22338  44.855  19.204  14.417
52524W        W22339  23.220  23.989  14.824
52525W        W22340   6.232  42.775  11.432
52526W        W22341   3.431  43.431   1.793
52527W        W22342  17.579  37.081   3.802
52528W        W22343   1.865   4.287   4.703
52529W        W22344   9.800  11.788  14.421
52530W        W22345   5.744  38.548  13.466
52531W        W22346  36.896   6.881   0.837
52532W        W22347   1.360  13.168   0.743
52533W        W22348  15.714  43.355  14.898
52534W        W22349  28.629   4.911   0.370
52535W        W22350  33.923  34.021   0.434
52536W        W22351  11.644  20.612  12.946
52537W        W22352  29.634  20.114   0.327
52538W        W22353  38.928  21.641  10.920
52539W        W22354  40.830  28.089   2.726
52540W        W22355  15.138  14.806   4.751
52541W        W22356  24.190  32.488   0.962
52542W        W22357  20.227  20.573   1.791
52543W        W22358   6.897   2.449   1.780
52544W        W22359  25.989  12.682   3.320
52545W        W22360  14.590  31.073   0.298
52546W        W22361  11.637  44.269  14.445
52547W        W22362  15.632  31.980  13.935
52548W        W22363  11.695  16.178   2.247
52549W        W22364  40.834  14.194   1.722
52550W        W22365  39.476  43.884  11.985
52551W        W22366  10.686   0.912   0.804
52552W        W22367  17.687   2.393   1.819
52553W        W22368  26.537  13.213   0.757
52554W        W22369  38.388  22.596   2.786
52555W        W22370  43.400  10.186  11.864
52556W        W22371  24.627   2.458   4.168
52557W        W22372  28.933   7.335  13.315
52558W        W22373  17.108   8.829   2.674
52559W        W22374   8.194  11.810   1.270
52560W        W22375  10.680  31.417  12.404
52561W        W22376  29.541   5.779  12.028
52562W        W22377  26.202  14.624  11.452
52563W        W22378  21.071   0.260  12.478
52564W        W22379  33.505  27.521   1.858
52565W        W22380   8.723  15.579   3.246
52566W        W22381  17.197  26.013  14.337
52567W        W22382  18.700  28.178  11.497
52568W        W22383  28.149  26.620   1.727
52569W        W22384  23.682  43.944  11.035
52570W        W22385  43.415  26.516  14.370
52571W        W22386   4.883   8.275   2.297
52572W        W22387  27.195  34.406  10.963
52573W        W22388  27.126  10.174   1.329
52574W        W22389  35.970  41.396   2.304
52575W        W22390   8.385  11.647  13.439
52576W        W22391  19.572  22.700  12.034
52577W        W22392  18.658  39.848   0.381
52578W        W22393   5.425   6.321   3.173
52579W        W22394  28.990   3.343  10.471
52580W        W22395  40.052   1.483  14.447
52581W        W22396  27.178  11.629   2.807
52582W        W22397  44.899  33.551  11.544
52583W        W22398   8.666  34.034  10.506
52584W        W22399  36.522  44.860   0.906
52585W        W22400   5.775  10.342   2.406
52586W        W22401  41.805  17.633   1.240
52587W        W22402  32.065   7.317   4.821
52588W        W22403  23.170  36.988   4.185
52589W        W22404   7.406   9.863   4.164
52590W        W22405   7.280   4.265  10.488
52591W        W22406  22.215  20.124   3.797
52592W        W22407  20.623  22.206   1.419
52593W        W22408  16.580   5.835  14.813
52594W        W22409  13.787  41.032   3.327
52595W        W22410  31.453  39.454   1.833
52596W        W22411   1.364   9.256  14.923
52597W        W22412  18.554  35.035   0.919
52598W        W22413  26.181  23.669  13.448
52599W        W22414  26.550  21.231   0.321
52600W        W22415  16.073  38.437   3.148
52601W        W22416  40.914  40.903   2.811
52602W        W22417  22.210  22.017  13.518
52603W        W22418  38.367  13.273   4.604
52604W        W22419  21.625  33.624  11.492
52605W        W22420  19.568  29.459   1.742
52606W        W22421  20.582  27.492   0.821
52607W        W22422  15.281   3.899  11.431
52608W        W22423  28.992  17.663  11.111
52609W        W22424  12.273  27.050  11.930
52610W        W22425  34.974  13.737  13.033
52611W        W22426  36.376  34.489   0.402
52612W        W22427  18.642  40.432  14.785
52613W        W22428  10.280  31.135   2.232
52614W        W22429  38.332  19.665  10.496
52615W        W22430  21.255  23.108   3.373
52616W        W22431  24.063   8.819  14.989
52617W        W22432  22.568   4.402   2.728
52618W        W22433   0.462  39.819   2.270
52619W        W22434  31.116   8.166  13.882
52620W        W22435  13.235  41.483   1.842
52621W        W22436  43.358  40.401   2.770
52622W        W22437  34.512   3.267  12.409
52623W        W22438  19.586   6.689  14.023
52624W        W22439  29.095  33.089   0.938
52625W        W22440  21.234  43.779   3.356
52626W        W22441  35.012  35.947  12.377
52627W        W22442  29.095  20.144  10.475
52628W        W22443   6.243  11.323  14.791
52629W        W22444   9.356  43.425  10.618
52630W        W22445  23.679  42.925  13.979
52631W        W22446  37.972  28.503   1.762
52632W        W22447  38.075   5.840   3.766
52633W        W22448  14.119  34.985   0.734
52634W        W22449   7.837  12.311  14.507
52635W        W22450  37.057  39.985  14.449
52636W        W22451  44.281  44.459  12.399
52637W        W22452  12.156  35.465   3.377
52638W        W22453  44.437  19.075   0.798
52639W        W22454   6.796  36.396   1.733
52640W        W22455   8.733  30.631   1.742
52641W        W22456  44.277  22.054   4.299
52642W        W22457  42.371  14.182   4.288
52643W        W22458  42.340  42.886   0.260
52644W        W22459  31.538  36.920   3.719
52645W        W22460  18.763   1.247   0.335
52646W        W22461  17.069   3.409   0.370
52647W        W22462  10.216  19.171   3.370
52648W        W22463  37.445  19.098  14.511
52649W        W22464  13.260  35.381  13.055
52650W        W22465  25.998  32.594  12.885
52651W        W22466  11.777  42.841  11.570
52652W        W22467  44.403   1.896   0.258
52653W        W22468  44.982   0.337   0.849
52654W        W22469  24.133   7.751  11.963
52655W        W22470   7.874  16.808  10.536
52656W        W22471  31.071   0.473   4.331
52657W        W22472  18.599  44.326   3.329
52658W        W22473  21.250  16.085  11.917
52659W        W22474  28.166  42.454  11.882
52660W        W22475  38.951  42.287   0.908
52661W        W22476  38.553  23.103   1.856
52662W        W22477  25.085  16.148  12.841
52663W        W22478  10.203  41.913   5.113
52664W        W22479  17.077   4.807   9.925
52665W        W22480  43.928   2.765  10.967
52666W        W22481  12.140  44.389   0.381
52667W        W22482  24.984  34.935   4.286
52668W        W22483  39.356  19.764  14.016
52669W        W22484  12.686  17.626   4.346
52670W        W22485  17.727  42.021  13.881
52671W        W22486  36.372  27.053  11.966
52672W        W22487  27.162  12.262   0.461
52673W        W22488  28.510  24.666   4.607
52674W        W22489  30.026   8.735  14.416
52675W        W22490  41.913  16.219  12.976
52676W        W22491  37.019   2.383  10.569
52677W        W22492  39.410   7.720   5.213
52678W        W22493  35.919  34.396  12.510
52679W        W22494   5.766  14.632  12.345
52680W        W22495  27.529  25.117   1.728
52681W        W22496  30.953  24.017  12.481
52682W        W22497  14.162  27.036   2.356
52683W        W22498   7.251  23.670   4.296
52684W        W22499   6.200  30.601   2.365
52685W        W22500  33.981  21.025  13.022
52686W        W22501   7.353  12.727  10.906
52687W        W22502  29.519  13.189   0.928
52688W        W22503   8.862  44.813  14.324
52689W        W22504  11.665   1.908   3.651
52690W        W22505  28.621  33.400  14.295
52691W        W22506  44.355  36.011  10.141
52692W        W22507  38.438   0.764  14.287
52693W        W22508  18.791   0.933  12.532
52694W        W22509  16.090  27.017   0.304
52695W        W22510  15.283  42.973  13.894
52696W        W22511  23.994  19.189  13.848
52697W        W22512  20.221  29.465  13.838
52698W        W22513  42.919   4.222  10.441
52699W        W22514  20.558   2.384   0.309
52700W        W22515  16.153  29.462  14.383
52701W        W22516  17.091   0.948   1.420
52702W        W22517  15.221  41.027  14.953
52703W        W22518   1.809  36.552   4.682
52704W        W22519  43.318  17.247   4.624
52705W        W22520   5.309  31.555   4.202
52706W        W22521  39.888  21.108   1.839
52707W        W22522  34.508  24.119   2.406
52708W        W22523  27.170  10.705   1.316
52709W        W22524  33.124  22.237   3.258
52710W        W22525  34.868  31.923  12.838
52711W        W22526   1.290  39.418   3.168
52712W        W22527  25.058  40.014   2.749
52713W        W22528   7.907  31.404   2.353
52714W        W22529  26.015  37.896   2.692
52715W        W22530  22.745  27.598  13.939
52716W        W22531  16.681   1.747   1.411
52717W        W22532   0.953  27.508   2.280
52718W        W22533  13.658  36.554   1.899
52719W        W22534  13.255  35.388   2.860
52720W        W22535   8.764   6.246   0.886
52721W        W22536  20.599  39.925   1.350
52722W        W22537  20.751  18.654   2.331
52723W        W22538   8.289  39.857   3.309
52724W        W22539  20.702   4.742  14.968
52725W        W22540  41.460  32.598  12.928
52726W        W22541  34.107  30.038   0.244
52727W        W22542  20.607  19.174   4.269
52728W        W22543  19.754   0.382  11.885
52729W        W22544  21.705  44.344  10.543
52730W        W22545  26.531   2.961   2.217
52731W        W22546  39.830  30.007   0.954
52732W        W22547  41.802  43.823  14.810
52733W        W22548  19.544   4.797  12.505
52734W        W22549  30.641  40.873   0.452
52735W        W22550  44.955  12.354  11.519
52736W        W22551  25.168   9.172   1.835
52737W        W22552  15.602   5.437   3.356
52738W        W22553  43.997  17.142  10.563
52739W        W22554  30.529  36.955   3.799
52740W        W22555  40.364   9.818   0.798
52741W        W22556  39.320  30.973  13.817
52742W        W22557  32.498   8.775   1.777
52743W        W22558  12.784  27.645  12.955
52744W        W22559  44.801   4.377  11.459
52745W        W22560  31.447   6.902  14.492
52746W        W22561  17.178  26.694   1.862
52747W        W22562  14.589  35.969  14.889
52748W        W22563  24.021  35.516   1.796
52749W        W22564  31.150   8.826   2.345
52750W        W22565   0.881  26.983   2.896
52751W        W22566  41.990  33.437  10.888
52752W        W22567  29.060   7.901  10.585
52753W        W22568  41.366  14.829   4.729
52754W        W22569  34.964  33.584   1.834
52755W        W22570  37.895   0.784  13.886
52756W        W22571  41.923   8.719  12.401
52757W        W22572   0.424   3.786  11.525
52758W        W22573  19.127  18.082   4.352
52759W        W22574  22.090  11.339  14.957
52760W        W22575  42.410  24.596   1.727
52761W        W22576  11.684  19.053   2.258
52762W        W22577  42.840  19.070   2.370
52763W        W22578  24.005  41.873   4.762
52764W        W22579  27.569  19.114   4.830
52765W        W22580   1.860  41.976  10.633
52766W        W22581  23.647  37.423   1.798
52767W        W22582  19.659  17.132   0.247
52768W        W22583  21.665  39.927   2.726
52769W        W22584  35.010  17.677   1.344
52770W        W22585  14.680  32.132  13.905
52771W        W22586  29.570   9.259   4.275
52772W        W22587  42.387  35.424   1.418
52773W        W22588   9.204   6.382  12.375
52774W        W22589  36.024  33.997   1.872
52775W        W22590  26.599  38.391   0.820
52776W        W22591  23.120  25.536   4.628
52777W        W22592  38.885  43.506  12.934
52778W        W22593  32.599  10.846   2.725
52779W        W22594   0.362  34.937  14.435
52780W        W22595  25.155  18.685   1.236
52781W        W22596  16.153  36.353  14.895
52782W        W22597  36.416  29.066   1.323
52783W        W22598  41.521  27.657   1.931
52784W        W22599  17.187   8.790   3.797
52785W        W22600  18.164  35.483  13.804
52786W        W22601  25.216  31.546  11.421
52787W        W22602  35.899  20.750  14.951
52788W        W22603  33.474  14.740  14.458
52789W        W22604  31.493  38.969  11.397
52790W        W22605  29.009  24.478   4.624
52791W        W22606  13.669  20.641   4.249
52792W        W22607   0.416  10.866   1.217
52793W        W22608   1.301  35.542  11.482
52794W        W22609  19.121  32.956  12.431
52795W        W22610  16.602  23.725  11.124
52796W        W22611  17.695  19.614  13.883
52797W        W22612  41.507   4.727  12.578
52798W        W22613  10.658  14.162   2.196
52799W        W22614  18.169  16.716   4.699
52800W        W22615  23.211  30.451  11.868
52801W        W22616  42.004  28.556   3.649
52802W        W22617   1.279  14.625   2.784
52803W        W22618  29.447  28.470   2.709
52804W        W22619  24.577   6.880   3.162
52805W        W22620  27.476  26.129  13.437
52806W        W22621  25.047  23.148   4.743
52807W        W22622   9.305  40.524  14.282
52808W        W22623  26.565   3.782  10.933
52809W        W22624  11.732  21.043  10.969
52810W        W22625  17.638  17.184   0.429
52811W        W22626  43.777   7.818   1.768
52812W        W22627   5.246  37.518  12.825
52813W        W22628   9.353  11.130   4.748
52814W        W22629   8.222  32.932   2.807
52815W        W22630   9.205  29.973   1.902
52816W        W22631  41.836  40.811  10.954
52817W        W22632  44.290  44.856   4.615
52818W        W22633  10.794  30.989   4.723
52819W        W22634  29.144  43.005  12.443
52820W        W22635  42.461   5.295   0.419
52821W        W22636   2.940  15.626   4.661
52822W        W22637  21.710   7.327   5.113
52823W        W22638  11.141  38.414   2.327
52824W        W22639   1.335  38.864   1.225
52825W        W22640  25.500   1.834  14.863
52826W        W22641  28.029  11.176  13.444
52827W        W22642  33.459  13.240   3.197
52828W        W22643  15.676  30.079   4.625
52829W        W22644   8.823  31.417   0.917
52830W        W22645  13.841  36.013  11.937
52831W        W22646   5.310  16.681  11.978
52832W        W22647  33.970  32.578  10.632
52833W        W22648  41.923  37.940   4.672
52834W        W22649  39.841  37.421  14.903
52835W        W22650  15.247   6.368  12.353
52836W        W22651  31.086  12.809  10.525
52837W        W22652  17.713   9.205  13.813
52838W        W22653   5.731  30.596   3.812
52839W        W22654  21.179  33.130   2.862
52840W        W22655  42.450  16.264   5.127
52841W        W22656  12.635  39.922  14.373
52842W        W22657  15.793  10.692  12.535
52843W        W22658  41.896  30.082  14.911
52844W        W22659  17.772  41.889   3.681
52845W        W22660   5.296  27.681  13.503
52846W        W22661  11.670  34.386   3.637
52847W        W22662  32.092  29.449  12.341
52848W        W22663  43.940  40.851  11.926
52849W        W22664  24.000  28.033   4.642
52850W        W22665  33.966   4.896   4.643
52851W        W22666  39.337  25.163   0.410
52852W        W22667  22.184  39.056  11.590
52853W        W22668   4.787  21.751  10.423
52854W        W22669  41.380  26.512   1.362
52855W        W22670   2.935  18.680   3.279
52856W        W22671  13.747  33.977   0.906
52857W        W22672  38.045  28.619  11.520
52858W        W22673  17.291  40.807  10.979
52859W        W22674  39.338  44.841   3.678
52860W        W22675  32.975  34.877  12.487
52861W        W22676  13.815  18.090   3.725
52862W        W22677  27.093  41.017  11.128
52863W        W22678  17.573  41.428   2.184
52864W        W22679  14.098  21.694   2.722
52865W        W22680  41.320  26.547  12.842
52866W        W22681  43.307  16.275   1.895
52867W        W22682  35.086  28.542   0.457
52868W        W22683  41.836  40.325  10.483
52869W        W22684  29.622  37.517   5.093
52870W        W22685  12.255  26.509   4.610
52871W        W22686  32.071  29.544   2.830
52872W        W22687   2.418   2.332  14.316
52873W        W22688   4.204  42.889  14.905
52874W        W22689  18.144  23.613  12.000
52875W        W22690   0.411  21.666   0.841
52876W        W22691   7.821   0.874   4.336
52877W        W22692  38.482  18.147  12.007
52878W        W22693  22.242  26.018   4.197
52879W        W22694  33.452  22.698   1.386
52880W        W22695   6.271  33.951  12.488
52881W        W22696  25.564  43.454  12.010
52882W        W22697   3.943   3.416  12.986
52883W        W22698  41.321  21.139  12.560
52884W        W22699  24.481  29.156   1.284
52885W        W22700   0.289  17.215  14.859
52886W        W22701   5.756  28.955  14.791
52887W        W22702   9.659   5.308   0.460
52888W        W22703  39.969   9.752   2.872
52889W        W22704  37.442  11.787   1.754
52890W        W22705   1.339   0.324   1.261
52891W        W22706  32.916  27.668   2.882
52892W        W22707  28.499   7.816  13.383
52893W        W22708  12.356  10.201   0.746
52894W        W22709  42.992  31.095  11.964
52895W        W22710  20.729  41.495  14.787
52896W        W22711  14.748  38.558  14.994
52897W        W22712  30.960  11.695   3.369
52898W        W22713  23.681  38.374  14.847
52899W        W22714  37.967  32.439  14.475
52900W        W22715  38.518  18.098   1.344
52901W        W22716  15.180  16.663  14.974
52902W        W22717  36.363   7.667  12.458
52903W        W22718  39.517   8.889   0.821
52904W        W22719   5.882  41.331   3.157
52905W        W22720   5.825   6.190  12.533
52906W        W22721  17.063  29.005   3.861
52907W        W22722   6.414  31.965  12.842
52908W        W22723   5.703   9.663   3.716
52909W        W22724  13.203  35.492   0.310
52910W        W22725   2.732  10.856   2.215
52911W        W22726  35.531   1.780  11.384
52912W        W22727  44.367  39.402  13.335
52913W        W22728  37.970   4.405  14.924
52914W        W22729   8.752  15.677   3.785
52915W        W22730  37.938  40.842   4.261
52916W        W22731  13.675  11.267  14.434
52917W        W22732  19.084  10.677   2.719
52918W        W22733  29.529  40.500   4.606
52919W        W22734  42.435  38.468   3.725
52920W        W22735  18.186  33.542   2.699
52921W        W22736  41.347   5.904   1.734
52922W        W22737  17.704   0.818  14.387
52923W        W22738  15.818  44.900  11.043
52924W        W22739  23.049  13.262  11.398
52925W        W22740  23.646  18.743  13.371
52926W        W22741   9.313  39.365  14.982
52927W        W22742  40.849  37.863  11.576
52928W        W22743  26.200  29.669  11.960
52929W        W22744  15.815  36.363   3.225
52930W        W22745   2.915  33.508  11.435
52931W        W22746  10.258  33.937   5.270
52932W        W22747  42.775  25.706  11.128
52933W        W22748  22.014  43.367   2.412
52934W        W22749  20.640   2.762  14.822
52935W        W22750   2.789  14.623  13.883
52936W        W22751  17.773  40.012   0.356
52937W        W22752  39.439  42.966   4.244
52938W        W22753  23.504  24.133   4.810
52939W        W22754  35.959   7.821   3.716
52940W        W22755  28.942  16.768   3.363
52941W        W22756  25.207  16.709  11.432
52942W        W22757  43.020  31.501   3.726
52943W        W22758  22.187  32.006  11.037
52944W        W22759  25.548  23.211  11.373
52945W        W22760  41.917  30.528  10.109
52946W        W22761  39.874   9.810   2.212
52947W        W22762  22.025  36.389   0.344
52948W        W22763  39.847  29.456  14.947
52949W        W22764  37.896  10.675  11.575
52950W        W22765  19.245  33.498  12.445
52951W        W22766  42.294  10.234  11.374
52952W        W22767  38.986   1.338   3.830
52953W        W22768  20.717  11.702  14.980
52954W        W22769  23.692  35.955  11.531
52955W        W22770  32.076  43.878  10.926
52956W        W22771  21.199  34.041   0.943
52957W        W22772  13.606  27.467  12.944
52958W        W22773  24.721  36.914  10.536
52959W        W22774   2.722  20.216  12.893
52960W        W22775  32.544  10.640  10.973
52961W        W22776  42.952  20.705   0.768
52962W        W22777   0.978  39.420  12.472
52963W        W22778  41.452  23.992  13.003
52964W        W22779  43.016  22.192   1.907
52965W        W22780  28.051   2.874  14.845
52966W        W22781  12.752   6.705  13.477
52967W        W22782  23.600   7.266   1.755
52968W        W22783   2.905  35.593   1.925
52969W        W22784  28.541  29.110  11.524
52970W        W22785  26.103  42.779  10.945
52971W        W22786  11.307  29.609  12.093
52972W        W22787   6.400  35.376  12.551
52973W        W22788  16.155  40.856  13.973
52974W        W22789  29.920  42.447   2.789
52975W        W22790  16.727   3.456  10.628
52976W        W22791  21.140  14.803   1.233
52977W        W22792  11.213  14.773   4.733
52978W        W22793  27.471  14.800   0.849
52979W        W22794  38.056  12.157   1.789
52980W        W22795   9.656  27.508  12.373
52981W        W22796   0.778  10.851  11.543
52982W        W22797   0.384  11.325   2.301
52983W        W22798   0.483  19.185   4.704
52984W        W22799  41.914  33.954   0.302
52985W        W22800   0.448  10.173  11.586
52986W        W22801  27.171  30.450  10.890
52987W        W22802  14.122   6.719  13.486
52988W        W22803  34.380   4.237  11.904
52989W        W22804   4.395  36.412  14.303
52990W        W22805  27.449   5.751  14.930
52991W        W22806  32.031  41.431   4.793
52992W        W22807  22.163  10.768   2.723
52993W        W22808  12.630  32.136   9.934
52994W        W22809  33.613  29.048   0.333
52995W        W22810  25.571  23.696  12.545
52996W        W22811  24.541   9.732  10.596
52997W        W22812  25.054  29.023   1.787
52998W        W22813  24.669  29.608   0.737
52999W        W22814  11.674  34.051  12.467
53000W        W22815  25.544  10.780   1.918
53001W        W22816  36.921  11.662  13.352
53002W        W22817  24.659  24.497  11.567
53003W        W22818   2.922   1.430  14.831
53004W        W22819   8.722  14.190  13.477
53005W        W22820  27.690  44.386  14.326
53006W        W22821   7.183  14.316  14.337
53007W        W22822  44.332  31.936  10.523
53008W        W22823   5.817  13.675  11.010
53009W        W22824  34.530  28.598   0.423
53010W        W22825  27.102  14.781  10.601
53011W        W22826  32.401  28.176  14.464
53012W        W22827  11.629  12.669   3.185
53013W        W22828  23.240  17.275   5.143
53014W        W22829   3.827  33.580  14.948
53015W        W22830  40.424  20.087  11.118
53016W        W22831  38.995  17.713   1.447
53017W        W22832  12.209   9.790  14.466
53018W        W22833   3.944  19.564   3.318
53019W        W22834   7.317   9.237   1.890
53020W        W22835  21.227  26.628   1.767
53021W        W22836  11.183  28.669  12.382
53022W        W22837  22.193   9.221  14.350
53023W        W22838  28.082  14.818  12.026
53024W        W22839  14.246  11.791   5.258
53025W        W22840  28.679  43.940   2.254
53026W        W22841  26.957   4.897   4.246
53027W        W22842  35.959  17.211   3.153
53028W        W22843  15.685   1.446  11.092
53029W        W22844  36.555   7.893   3.259
53030W        W22845  42.020   4.402   4.766
53031W        W22846   2.808  14.662   2.192
53032W        W22847  40.887  35.088   1.771
53033W        W22848  44.909   1.254  11.507
53034W        W22849  24.614   0.405   2.847
53035W        W22850   0.258  39.842   2.706
53036W        W22851  27.637  31.996   1.930
53037W        W22852  22.657  35.972  10.578
53038W        W22853  15.582  22.513   4.201
53039W        W22854  21.537  26.506  13.902
53040W        W22855  43.387  29.617  12.886
53041W        W22856  30.572  40.323  12.540
53042W        W22857  22.689  36.919   0.437
53043W        W22858  39.379  36.986  10.943
53044W        W22859  24.103   6.723   4.621
53045W        W22860  41.954  13.628  11.076
53046W        W22861  40.465  39.457   3.167
53047W        W22862  32.100  22.583  11.547
53048W        W22863  37.024  11.232   1.795
53049W        W22864  35.439   9.710   2.715
53050W        W22865   9.774  18.215  10.557
53051W        W22866  25.147  35.479   0.818
53052W        W22867  24.666  20.095  13.017
53053W        W22868  15.645  39.454  12.057
53054W        W22869  38.483  14.243  10.427
53055W        W22870   1.769  43.391  11.083
53056W        W22871  30.466  32.469   1.736
53057W        W22872  43.005  35.044   3.346
53058W        W22873  10.729   7.218   4.751
53059W        W22874  41.882  41.384   4.782
53060W        W22875   5.241  29.467   4.255
53061W        W22876  13.114   9.350  10.437
53062W        W22877  23.203  20.738  12.038
53063W        W22878  37.362  43.939  12.512
53064W        W22879  27.197  34.928   2.831
53065W        W22880  18.695  30.608  10.097
53066W        W22881   7.731  16.306  14.910
53067W        W22882  16.575  18.295   0.442
53068W        W22883  12.627  42.325  11.108
53069W        W22884  24.996  11.135  12.828
53070W        W22885   0.861  27.144  12.980
53071W        W22886   7.849  24.223   2.863
53072W        W22887   5.432  44.911  14.492
53073W        W22888  11.135   7.385   3.192
53074W        W22889  41.447   3.242   0.843
53075W        W22890   7.293  44.889   3.720
53076W        W22891  40.488  28.021   2.835
53077W        W22892  39.430  17.119  10.541
53078W        W22893  27.070  31.529   3.337
53079W        W22894  44.485  17.072   2.298
53080W        W22895  30.027   9.380   0.313
53081W        W22896   6.748  30.529   1.219
53082W        W22897  34.460  40.011  14.895
53083W        W22898  23.174  17.255   3.284
53084W        W22899   8.845  38.540   0.927
53085W        W22900   6.845  43.492   0.280
53086W        W22901  43.826   7.676  12.516
53087W        W22902  27.606  31.447   4.237
53088W        W22903   8.359  23.536  14.862
53089W        W22904  42.029  35.416   3.714
53090W        W22905   2.429  17.239   4.224
53091W        W22906  41.026  27.095   3.163
53092W        W22907  44.885  27.641  11.875
53093W        W22908  21.629  33.096  13.401
53094W        W22909  38.822  12.821  11.034
53095W        W22910   2.426  40.909   1.400
53096W        W22911  34.879   3.227  14.892
53097W        W22912  32.951   0.272   2.216
53098W        W22913  37.412  11.637  12.039
53099W        W22914   3.241  26.112  13.029
53100W        W22915  35.418  29.153   4.606
53101W        W22916   3.890  26.109   1.889
53102W        W22917  40.873   4.396   2.217
53103W        W22918  43.813   0.840  10.477
53104W        W22919  17.634   1.747   0.382
53105W        W22920   6.727  38.555  11.965
53106W        W22921  43.494  22.599  13.873
53107W        W22922   9.293   7.815   1.761
53108W        W22923  35.415  40.539   1.856
53109W        W22924  16.725  16.257   4.345
53110W        W22925  37.002  24.641   0.944
53111W        W22926  20.549  15.298  11.564
53112W        W22927   9.712  37.988   2.228
53113W        W22928   7.243  26.994  11.427
53114W        W22929  25.970  16.588   3.745
53115W        W22930   6.745  12.318   1.933
53116W        W22931  26.060  27.079   3.370
53117W        W22932  13.651  32.957   1.823
53118W        W22933  18.200  35.549   2.808
53119W        W22934  39.556  34.053  11.557
53120W        W22935  13.757   3.799   3.855
53121W        W22936  42.804   1.288  13.328
53122W        W22937   8.792  44.980   2.884
53123W        W22938  25.488  41.974   3.831
53124W        W22939  19.673   7.232  10.618
53125W        W22940  20.576  15.707  13.867
53126W        W22941  17.693  23.035   3.870
53127W        W22942  19.268  10.810   2.338
53128W        W22943  37.381   8.207  10.502
53129W        W22944  32.985  40.012   3.194
53130W        W22945  16.576   1.780  12.460
53131W        W22946  36.438   2.839  13.481
53132W        W22947  26.124  15.177  12.475
53133W        W22948  40.047  17.657   3.365
53134W        W22949  40.811  15.772   2.694
53135W        W22950  11.631   3.215   0.462
53136W        W22951   0.762  25.552  14.490
53137W        W22952  19.620   6.362  13.535
53138W        W22953  11.764   9.873   0.260
53139W        W22954  30.090  43.826  13.425
53140W        W22955  19.100   0.384  13.820
53141W        W22956  16.578  36.007  14.368
53142W        W22957  41.433  12.683   3.384
53143W        W22958   8.704   3.303   0.346
53144W        W22959  44.497  13.787  10.897
53145W        W22960  33.969  19.743   2.207
53146W        W22961  23.512   5.214   2.724
53147W        W22962  39.425  21.255   2.369
53148W        W22963  11.797  19.566   2.271
53149W        W22964  33.407  42.457  11.428
53150W        W22965  14.269  20.230  13.797
53151W        W22966   8.229  39.532   9.531
53152W        W22967   8.250   8.237  12.852
53153W        W22968  24.194  16.583   9.955
53154W        W22969  39.419   4.413  13.337
53155W        W22970  13.105  17.653  12.575
53156W        W22971  12.243  35.521  13.420
53157W        W22972  23.715  30.909   1.913
53158W        W22973   0.489   7.850   2.226
53159W        W22974   4.309   4.305   1.298
53160W        W22975  33.480   5.760  14.780
53161W        W22976  20.616  28.584   0.778
53162W        W22977  17.650  12.645  14.024
53163W        W22978  43.449  33.973  12.450
53164W        W22979   4.861  18.253   2.866
53165W        W22980  17.125  14.283   4.210
53166W        W22981  24.528  24.521  10.989
53167W        W22982  37.575  43.888  10.595
53168W        W22983   0.880  39.946  11.091
53169W        W22984  39.868  40.543  10.409
53170W        W22985  16.238  14.660   1.306
53171W        W22986  22.706   3.350  12.572
53172W        W22987  17.069  38.399  14.916
53173W        W22988   0.984  33.026  14.387
53174W        W22989  40.841  29.938  14.799
53175W        W22990   0.901   4.748   1.399
53176W        W22991  39.847  28.547   4.824
53177W        W22992  32.573  10.146   1.307
53178W        W22993  44.862   2.908  14.365
53179W        W22994  33.952  11.307   1.212
53180W        W22995  44.781  38.511   4.291
53181W        W22996  20.180  41.416  13.432
53182W        W22997   9.667   1.406  13.516
53183W        W22998  25.982  35.037   4.193
53184W        W22999  41.340   0.308   4.302
53185W        W23000  30.159  24.111   4.343
53186W        W23001  11.323  28.079   3.209
53187W        W23002   0.922   7.751  13.477
53188W        W23003  23.648  18.634   0.411
53189W        W23004  18.054  22.650   3.217
53190W        W23005  17.086  25.654   4.752
53191W        W23006   8.801   7.853   4.744
53192W        W23007   6.305   4.883  11.529
53193W        W23008  34.007  41.970  11.431
53194W        W23009  23.220  19.263   5.778
53195W        W23010  31.557  11.735  13.830
53196W        W23011  37.407   2.267  12.410
53197W        W23012  10.239  29.614   4.312
53198W        W23013  28.515  41.506   4.261
53199W        W23014  26.559  13.788  12.005
53200W        W23015  14.239  36.892   0.819
53201W        W23016  23.615  43.883   0.251
53202W        W23017   8.684  43.282   2.335
53203W        W23018  42.413  18.165  11.478
53204W        W23019  26.462  43.272  11.042
53205W        W23020  41.939   0.447  12.853
53206W        W23021  26.024  40.368   4.789
53207W        W23022  38.070  21.243   1.725
53208W        W23023  24.136  10.261  10.918
53209W        W23024  30.549  12.805   2.838
53210W        W23025  11.132  32.480   0.807
53211W        W23026  16.772  44.418  11.927
53212W        W23027  39.974   2.862   1.383
53213W        W23028  37.850  18.132  11.081
53214W        W23029  11.831  29.557   4.792
53215W        W23030  33.486  34.506   1.702
53216W        W23031   4.741  14.328  11.074
53217W        W23032   1.369  19.195  14.826
53218W        W23033  11.754  16.081  13.548
53219W        W23034   0.906   3.314   1.922
53220W        W23035  43.813  14.756  12.418
53221W        W23036   3.273   8.299  10.514
53222W        W23037  37.063  11.662  10.943
53223W        W23038  20.179  27.973   0.281
53224W        W23039   6.255  30.454   2.809
53225W        W23040  25.119   2.893   0.454
53226W        W23041  35.505   9.749   0.896
53227W        W23042  18.624  12.646   3.645
53228W        W23043  20.598  37.518  13.501
53229W        W23044  11.850  31.583   3.751
53230W        W23045  43.971  37.465   3.194
53231W        W23046   1.405  20.740  10.554
53232W        W23047  40.410  41.834   1.864
53233W        W23048  21.619  27.483  14.507
53234W        W23049   4.837   9.394   2.886
53235W        W23050   0.932   2.875   3.797
53236W        W23051  30.531  23.723  14.317
53237W        W23052  40.381  43.278   2.251
53238W        W23053   3.421  12.742  14.360
53239W        W23054  23.520  17.588   1.699
53240W        W23055  16.654  38.859   0.252
53241W        W23056  31.507  10.829  12.004
53242W        W23057  33.465  24.086  12.832
53243W        W23058  20.228   1.444  13.538
53244W        W23059  40.511  26.616   2.902
53245W        W23060  23.566  38.886   5.153
53246W        W23061  34.117   6.754  11.462
53247W        W23062  22.064  39.968  14.865
53248W        W23063  36.519  15.321   3.234
53249W        W23064  37.953   8.391   0.770
53250W        W23065  14.124   1.845   0.468
53251W        W23066  37.455  10.779  13.417
53252W        W23067  30.542  30.483  12.435
53253W        W23068  11.128  26.684  13.991
53254W        W23069  30.657   7.413  14.326
53255W        W23070   7.295  23.729  11.908
53256W        W23071  15.714   3.776   2.830
53257W        W23072  25.169  30.011  13.376
53258W        W23073   0.932  30.056  12.091
53259W        W23074  26.111  33.087   4.261
53260W        W23075  32.071   5.695   2.870
53261W        W23076  15.100  21.198   1.236
53262W        W23077  12.751  29.593  11.598
53263W        W23078  19.550  11.713   3.267
53264W        W23079  15.650  19.638  12.038
53265W        W23080  16.135   0.286   2.733
53266W        W23081   1.469  30.003  13.048
53267W        W23082  25.520  24.629   0.949
53268W        W23083   5.239   5.208   0.474
53269W        W23084  14.615   1.403  13.497
53270W        W23085  10.216  22.616  10.592
53271W        W23086   7.799  33.431   3.181
53272W        W23087   5.807  44.829  11.592
53273W        W23088  25.558  32.908  13.829
53274W        W23089   0.390  43.770  11.427
53275W        W23090   2.402   0.302  12.361
53276W        W23091  24.021  41.537  14.949
53277W        W23092  32.912  27.180   3.772
53278W        W23093  36.039  44.356   2.392
53279W        W23094  44.993  15.801   0.342
53280W        W23095  21.641   4.335   3.347
53281W        W23096  31.113  19.773  14.934
53282W        W23097   7.710  39.897   9.926
53283W        W23098   4.710  38.904  13.310
53284W        W23099  38.387  24.021   2.317
53285W        W23100  27.447  39.461   0.326
53286W        W23101  26.561  26.601   0.943
53287W        W23102  22.592  27.635   1.272
53288W        W23103   8.893  13.302  14.276
53289W        W23104  29.565  29.432   3.781
53290W        W23105  34.431  38.914   2.376
53291W        W23106  33.912  19.215  12.409
53292W        W23107  32.582   4.210   1.850
53293W        W23108  15.653  21.200   1.703
53294W        W23109  10.822  25.693  12.890
53295W        W23110  39.833  19.102   2.394
53296W        W23111  42.781  11.216   0.966
53297W        W23112  39.539  38.879  14.861
53298W        W23113   6.733  44.898   1.704
53299W        W23114   1.400  34.061  10.518
53300W        W23115  41.311  31.951   1.722
53301W        W23116  20.257  20.595  12.415
53302W        W23117  18.283  10.715  14.887
53303W        W23118   9.761   5.908   3.345
53304W        W23119  17.697   0.340   0.823
53305W        W23120  43.781  10.817   1.352
53306W        W23121  34.015  24.575  13.898
53307W        W23122   0.799  23.582  10.151
53308W        W23123  28.469  33.916   1.805
53309W        W23124  17.644   3.790   2.353
53310W        W23125  24.724  14.595  11.546
53311W        W23126  33.082  22.596   0.325
53312W        W23127   5.329  13.824  11.996
53313W        W23128  42.851  36.076  11.487
53314W        W23129   6.778  28.138   1.831
53315W        W23130  30.915  39.062   1.928
53316W        W23131  32.087  44.298   3.190
53317W        W23132  14.257   9.345  10.490
53318W        W23133  14.249   9.710   1.356
53319W        W23134  14.646  34.587   0.326
53320W        W23135   3.939  31.071   3.224
53321W        W23136  32.572  12.765  12.499
53322W        W23137  17.293   7.674  10.486
53323W        W23138   7.397  18.640  13.804
53324W        W23139  41.497  19.574  11.385
53325W        W23140  12.702  17.209  12.086
53326W        W23141  12.308  24.631  10.451
53327W        W23142   7.360   9.677   0.834
53328W        W23143   9.729  43.309  11.992
53329W        W23144  34.438  28.448   1.224
53330W        W23145  12.263  23.103   0.378
53331W        W23146  14.242  36.919   3.170
53332W        W23147  39.470  20.101   2.415
53333W        W23148  26.541  38.404  11.983
53334W        W23149  38.369  14.750  10.634
53335W        W23150  30.640  29.105  14.364
53336W        W23151  44.388  34.982  12.084
53337W        W23152  42.985   1.283   1.694
53338W        W23153   5.230  11.230   1.333
53339W        W23154  35.964  25.572  14.768
53340W        W23155   5.851  40.311   2.210
53341W        W23156   2.848   0.444   1.865
53342W        W23157  44.488  33.489   1.231
53343W        W23158  42.343  41.940   0.963
53344W        W23159  17.606  24.614  12.965
53345W        W23160  28.010  17.080   5.299
53346W        W23161  43.402  36.924   1.776
53347W        W23162  27.617  36.450   1.407
53348W        W23163  18.238  38.560   3.634
53349W        W23164   3.346  12.641   3.723
53350W        W23165  21.237  29.573   2.841
53351W        W23166  37.077  32.079   3.195
53352W        W23167  18.683  15.665   4.320
53353W        W23168   7.801  26.686   2.312
53354W        W23169  33.600  12.843   1.422
53355W        W23170  39.970   5.434  12.885
53356W        W23171  29.480   6.362  12.058
53357W        W23172  37.435   7.693   4.268
53358W        W23173   2.744  20.095   3.323
53359W        W23174   0.436   9.691  14.500
53360W        W23175   3.412  41.444  11.536
53361W        W23176  23.231   6.799  14.878
53362W        W23177  31.975  36.406  12.349
53363W        W23178   6.265  42.372   0.360
53364W        W23179  41.444  19.653  11.858
53365W        W23180  25.999  19.570   0.311
53366W        W23181  23.114  26.008   3.385
53367W        W23182  41.832  16.589   4.746
53368W        W23183  36.434  41.919  11.115
53369W        W23184  44.295  15.628  14.929
53370W        W23185  13.787  19.773   0.737
53371W        W23186   5.262   5.902   0.742
53372W        W23187  41.910  34.920   5.116
53373W        W23188  10.710   1.928   4.644
53374W        W23189  17.711  19.236  14.913
53375W        W23190   4.945  18.285  10.446
53376W        W23191  12.151  15.816   2.855
53377W        W23192  13.299  27.125  13.948
53378W        W23193  36.002  33.379  11.035
53379W        W23194  28.032  14.253  14.822
53380W        W23195  33.993  29.080  12.057
53381W        W23196  16.729  30.026   2.359
53382W        W23197  25.567  31.627   2.376
53383W        W23198  34.452  34.056  11.892
53384W        W23199  16.195  16.578   4.597
53385W        W23200  13.756  32.008   2.416
53386W        W23201  24.221  40.356  10.468
53387W        W23202  16.129  35.906   2.393
53388W        W23203  26.079   9.685  11.096
53389W        W23204  14.193  40.858  12.046
53390W        W23205  17.155  44.453   0.430
53391W        W23206   8.789  11.785  11.980
53392W        W23207  14.782  11.309  10.916
53393W        W23208   2.428  23.521   2.389
53394W        W23209  30.136  19.769   4.349
53395W        W23210  16.182  37.841   1.252
53396W        W23211   6.395  41.358   2.719
53397W        W23212  42.297  16.634   3.692
53398W        W23213  19.223  12.252  13.020
53399W        W23214  12.347   9.305   1.220
53400W        W23215  20.073  30.038   0.928
53401W        W23216  12.782  20.734  13.943
53402W        W23217  24.570  38.519  14.978
53403W        W23218  36.006  14.665  13.938
53404W        W23219  25.576  40.842  14.989
53405W        W23220   0.748   1.859   2.301
53406W        W23221   0.809  42.919  13.043
53407W        W23222  39.541  35.006   2.823
53408W        W23223  38.506   5.315   2.342
53409W        W23224  36.376  25.015  12.853
53410W        W23225  29.455  18.779   1.340
53411W        W23226   8.294  37.391  13.051
53412W        W23227  35.893   8.359  10.411
53413W        W23228  28.460  11.690  14.457
53414W        W23229  44.364  40.392  11.383
53415W        W23230   5.407  21.052  12.913
53416W        W23231  37.984  36.977  13.356
53417W        W23232  35.520  32.018  10.491
53418W        W23233   9.838   0.861  12.508
53419W        W23234  36.505  18.606   1.307
53420W        W23235  15.301  33.951  13.845
53421W        W23236  10.353   0.784  12.874
53422W        W23237  24.121  34.943   0.944
53423W        W23238  13.678   8.179   0.936
53424W        W23239  32.407   6.413  10.524
53425W        W23240  24.134  11.316  12.394
53426W        W23241  44.887   2.457  11.042
53427W        W23242  28.954  32.074   1.802
53428W        W23243  15.710  35.007   0.291
53429W        W23244  35.081  44.875   0.807
53430W        W23245  42.986   6.683   0.441
53431W        W23246  25.964   7.749   3.278
53432W        W23247   1.915  23.687   1.424
53433W        W23248   3.894  36.556   1.732
53434W        W23249   3.368  13.216   4.707
53435W        W23250  32.597  24.006  12.543
53436W        W23251   4.306   2.259  11.013
53437W        W23252   9.869  18.736  14.324
53438W        W23253  41.498   2.838   2.881
53439W        W23254  40.941  20.685  11.936
53440W        W23255  33.889  13.283   3.649
53441W        W23256  34.613  24.136  14.934
53442W        W23257  43.270  34.615   4.151
53443W        W23258  12.153  13.190   0.324
53444W        W23259  22.657   7.680   5.220
53445W        W23260  15.580  28.152  13.937
53446W        W23261  38.499  29.592   3.689
53447W        W23262  24.569  32.495   4.810
53448W        W23263   5.415  43.335  13.828
53449W        W23264  18.771  20.088   2.814
53450W        W23265  29.922  17.214   0.768
53451W        W23266  24.500  39.544  10.591
53452W        W23267  13.663  43.274   0.945
53453W        W23268   4.870   9.740  12.863
53454W        W23269  44.403  21.736   1.244
53455W        W23270   4.413  28.500   2.723
53456W        W23271  20.133  17.067   2.892
53457W        W23272  18.604   5.785   2.663
53458W        W23273   9.754  32.487   1.258
53459W        W23274  26.204  38.974   3.797
53460W        W23275  23.067  22.671   2.748
53461W        W23276  18.787   2.790  10.608
53462W        W23277  27.108  36.946   1.731
53463W        W23278  43.862   5.756  10.434
53464W        W23279   4.936   3.361  13.505
53465W        W23280  13.660   9.167   0.469
53466W        W23281   0.957   8.895   9.956
53467W        W23282  23.509   0.452  11.889
53468W        W23283  13.609  21.248   3.790
53469W        W23284  21.054  17.261   1.339
53470W        W23285  15.682  14.186   4.801
53471W        W23286  12.165  20.228   4.761
53472W        W23287  21.600  20.548   4.635
53473W        W23288  43.870  41.467  12.946
53474W        W23289  34.539   3.288   2.292
53475W        W23290  39.330  43.859   1.268
53476W        W23291   7.187   7.682  13.007
53477W        W23292  23.007  23.688   4.647
53478W        W23293  44.827  32.445   3.827
53479W        W23294  38.962   0.901   4.614
53480W        W23295  32.890  40.352  10.888
53481W        W23296  12.132  13.772   1.908
53482W        W23297  41.368  29.065  14.799
53483W        W23298   4.347  33.118  11.478
53484W        W23299  41.328  32.590   1.877
53485W        W23300  10.713  42.878  12.839
53486W        W23301   9.179  32.595   1.442
53487W        W23302   4.349   1.253   2.272
53488W        W23303  20.575  38.431   1.746
53489W        W23304  12.255  40.497   1.333
53490W        W23305   9.172  27.653  11.116
53491W        W23306   7.337  36.014  11.517
53492W        W23307  24.103   0.752  14.465
53493W        W23308  15.120   6.787  13.889
53494W        W23309  31.902  44.964   4.174
53495W        W23310  40.468  32.091  10.948
53496W        W23311  26.035  18.161  11.936
53497W        W23312  38.414  32.544  10.916
53498W        W23313  20.272  21.753   1.817
53499W        W23314  10.683   3.832   2.411
53500W        W23315  44.289  25.191   2.331
53501W        W23316  22.076  13.731   1.764
53502W        W23317  11.274  37.462   4.721
53503W        W23318  24.176  20.241  11.048
53504W        W23319  43.836  23.648   3.310
53505W        W23320  19.083  28.000   4.233
53506W        W23321  15.586  33.583   4.138
53507W        W23322  44.919  43.316  14.880
53508W        W23323  26.143  14.801   0.779
53509W        W23324  12.678   3.955   1.793
53510W        W23325  33.497  42.424   4.354
53511W        W23326   3.449  25.627   4.668
53512W        W23327  15.617  13.261   3.199
53513W        W23328  34.115   3.400   3.814
53514W        W23329   8.707   9.805   4.320
53515W        W23330   1.861  26.138   1.418
53516W        W23331   7.779  11.327  10.628
53517W        W23332   6.720  16.186   4.166
53518W        W23333  32.624  25.546  11.977
53519W        W23334  36.954  26.459  12.392
53520W        W23335  20.083  15.704   4.796
53521W        W23336  18.619  41.825  10.554
53522W        W23337   8.393   8.306  10.560
53523W        W23338  16.133   6.790  12.391
53524W        W23339  44.995  24.617   4.126
53525W        W23340  29.066  10.835  13.867
53526W        W23341  22.160  44.801  13.861
53527W        W23342  41.929  43.782   4.301
53528W        W23343  16.124  17.738   1.238
53529W        W23344  34.411  38.945   0.914
53530W        W23345  18.115  37.855   1.238
53531W        W23346   2.328   3.322  13.998
53532W        W23347  24.019   8.831   1.740
53533W        W23348  27.141   3.225   2.896
53534W        W23349   0.795   5.211   1.884
53535W        W23350  34.034   5.775  13.472
53536W        W23351  30.953  18.619   4.755
53537W        W23352  16.112   5.741  12.094
53538W        W23353   7.397  33.479   3.236
53539W        W23354  42.370   1.437  11.412
53540W        W23355  12.131  39.551  12.968
53541W        W23356  44.990  37.474   3.191
53542W        W23357  30.032  10.634   3.646
53543W        W23358  18.295  30.918   4.662
53544W        W23359   6.825  27.608  11.125
53545W        W23360  10.834  22.063   0.775
53546W        W23361  18.057   0.415  10.411
53547W        W23362  14.113  32.943  13.969
53548W        W23363   1.911   5.780   4.126
53549W        W23364  43.297  19.649   2.217
53550W        W23365  36.844  30.975  11.401
53551W        W23366  20.186   5.346  14.793
53552W        W23367  42.483  20.716   2.699
53553W        W23368  21.652  19.660   5.227
53554W        W23369  30.597  29.569   1.300
53555W        W23370  14.271  26.004  12.000
53556W        W23371  17.748  10.672   1.861
53557W        W23372   8.241  29.050   1.315
53558W        W23373  31.474   9.671  13.426
53559W        W23374  44.407  12.790   0.874
53560W        W23375  17.266  26.003  11.932
53561W        W23376   3.904  27.556   2.793
53562W        W23377  41.810  14.300   2.876
53563W        W23378  12.292  31.045   0.794
53564W        W23379  36.550  27.519  11.578
53565W        W23380  14.594  37.396   0.336
53566W        W23381  14.800  32.108   4.674
53567W        W23382  15.114  31.568  12.895
53568W        W23383   0.759  36.359   1.705
53569W        W23384  43.499  40.797  13.389
53570W        W23385   0.745   7.830  14.777
53571W        W23386  35.586  32.468  10.416
53572W        W23387  16.211  10.739   3.182
53573W        W23388  12.725  12.746  11.611
53574W        W23389  18.625  23.563  12.882
53575W        W23390  11.678   7.291  11.988
53576W        W23391  25.509   5.341   2.404
53577W        W23392  18.782  29.055  12.546
53578W        W23393  20.071   0.330  14.025
53579W        W23394  44.395  44.367   4.199
53580W        W23395  42.368  24.116  12.460
53581W        W23396  34.570  28.091   3.176
53582W        W23397  20.623  32.095  13.464
53583W        W23398   6.883  12.167  13.487
53584W        W23399  21.626  44.294   4.699
53585W        W23400  11.355   3.283   3.323
53586W        W23401   2.874   4.312   0.789
53587W        W23402  24.549   0.429  13.910
53588W        W23403  35.416   8.740   1.323
53589W        W23404  14.791  43.509   2.740
53590W        W23405   7.796  12.181  12.019
53591W        W23406  11.342  44.930   1.359
53592W        W23407  21.048  12.631   3.866
53593W        W23408   4.900  33.912  13.308
53594W        W23409  15.272  22.511  11.974
53595W        W23410  20.530  32.628  11.918
53596W        W23411  11.679  14.314  11.438
53597W        W23412  42.025  17.742  14.338
53598W        W23413  24.225   2.273   4.705
53599W        W23414  40.848  42.478  12.031
53600W        W23415  32.523  25.122  14.792
53601W        W23416  24.103  23.006   4.731
53602W        W23417  24.208  25.677   3.721
53603W        W23418  16.292  23.670   4.266
53604W        W23419  37.336  23.147   4.718
53605W        W23420  27.668   7.348   3.762
53606W        W23421  34.404  43.859   1.764
53607W        W23422   7.196   4.759  12.938
53608W        W23423  30.621  36.448   4.305
53609W        W23424  25.554  10.809   3.335
53610W        W23425  37.927   4.445  13.809
53611W        W23426  18.128  10.691  12.072
53612W        W23427  43.290  25.212   4.614
53613W        W23428  44.905   6.349   0.795
53614W        W23429  23.230   9.375  14.465
53615W        W23430   3.923  10.323   2.781
53616W        W23431   9.273   2.859   1.932
53617W        W23432  43.316  19.112  10.630
53618W        W23433   5.201  42.377   3.814
53619W        W23434  24.504   8.796   1.761
53620W        W23435  23.067  37.855   3.698
53621W        W23436  32.065  11.779  11.512
53622W        W23437   2.728  42.891   3.356
53623W        W23438  26.112  35.453  12.085
53624W        W23439  13.706   5.229  10.521
53625W        W23440   7.210  37.426  14.322
53626W        W23441  31.902   6.287   1.278
53627W        W23442  22.248   4.726  11.926
53628W        W23443   5.868  28.106   2.818
53629W        W23444  18.290  41.516  14.492
53630W        W23445   2.433   0.987   2.901
53631W        W23446  40.322  42.518  14.786
53632W        W23447  31.473  37.419  11.461
53633W        W23448  31.949  39.394   2.899
53634W        W23449  29.975   0.400   4.236
53635W        W23450  26.027  22.704   1.250
53636W        W23451  23.712  31.945   2.726
53637W        W23452  36.876   8.218   3.839
53638W        W23453  38.945  36.432   2.689
53639W        W23454   6.248  35.546   4.289
53640W        W23455  40.920  41.364   4.285
53641W        W23456  13.714  41.037  13.928
53642W        W23457  42.460  41.973   1.858
53643W        W23458  36.391  41.854  13.985
53644W        W23459  15.142  35.022  14.444
53645W        W23460  18.271  27.969  12.871
53646W        W23461  38.920   8.338   1.319
53647W        W23462  33.086  13.281  11.100
53648W        W23463  41.848  16.615   3.687
53649W        W23464  26.029   9.854   2.799
53650W        W23465  27.027  14.751  11.452
53651W        W23466  32.532   6.355   0.468
53652W        W23467  41.791  41.482   0.779
53653W        W23468  14.670  14.665  10.516
53654W        W23469   0.962  33.981   0.478
53655W        W23470  33.972  21.037   0.463
53656W        W23471  29.533  27.005  14.889
53657W        W23472  33.977  19.677   4.168
53658W        W23473   6.230  17.062   3.734
53659W        W23474  14.704  44.951  12.879
53660W        W23475  25.036  37.399   4.791
53661W        W23476  38.521   8.823  14.507
53662W        W23477  17.091  29.447  10.593
53663W        W23478  16.223  33.418  11.866
53664W        W23479  12.705  11.135  13.029
53665W        W23480  20.119  39.431  10.411
53666W        W23481  43.481  21.115   3.336
53667W        W23482  32.491  14.782   1.224
53668W        W23483  35.538  10.811  14.860
53669W        W23484  38.075   3.937  14.826
53670W        W23485   5.719  32.971  12.964
53671W        W23486  19.750   0.416   5.749
53672W        W23487  27.495  36.976  13.046
53673W        W23488   9.859  32.461   3.272
53674W        W23489  42.008   5.308  14.301
53675W        W23490   4.703  25.076  14.375
53676W        W23491  22.628  21.619   4.350
53677W        W23492  43.787   6.209   4.135
53678W        W23493  35.052   1.864   4.269
53679W        W23494   8.754  21.594  10.428
53680W        W23495  15.299  10.747  13.538
53681W        W23496  24.534  40.955  13.871
53682W        W23497  11.712  24.173  14.984
53683W        W23498  41.482  43.317   0.801
53684W        W23499  33.068  13.142  12.488
53685W        W23500  15.300  21.045   3.278
53686W        W23501  34.614  34.369   2.807
53687W        W23502  24.171  26.579  14.508
53688W        W23503  13.791  42.383   4.227
53689W        W23504  24.607  37.545  11.587
53690W        W23505   3.440   6.313  13.366
53691W        W23506  28.087   5.903   0.897
53692W        W23507  20.664  24.707   4.345
53693W        W23508  10.143   5.789   0.331
53694W        W23509  10.189  35.085   5.123
53695W        W23510  19.771   5.887  13.527
53696W        W23511  17.070  16.602   3.737
53697W        W23512  29.097  11.713   2.393
53698W        W23513  35.427  23.696   1.780
53699W        W23514  22.579  34.971  12.383
53700W        W23515  35.891  16.768  11.454
53701W        W23516  34.502  43.004  10.553
53702W        W23517  36.068   9.347  14.912
53703W        W23518  37.837  26.514   0.958
53704W        W23519  28.556  29.113   4.737
53705W        W23520  39.507  16.597  14.779
53706W        W23521  11.662  29.049   4.297
53707W        W23522  21.135  42.316   3.870
53708W        W23523  29.427  15.227   2.778
53709W        W23524   7.735   1.299  12.030
53710W        W23525  23.023  36.848  13.393
53711W        W23526  28.567  30.545  14.024
53712W        W23527  31.610  43.826  13.468
53713W        W23528  40.914  41.305  10.465
53714W        W23529  22.532   5.227  12.029
53715W        W23530  26.187  16.109  11.959
53716W        W23531  44.441  33.503  11.518
53717W        W23532   9.874  20.589   1.276
53718W        W23533  24.667   3.893   4.712
53719W        W23534  16.163  24.980   3.788
53720W        W23535  19.215  16.709  13.514
53721W        W23536  13.313  31.078  11.421
53722W        W23537   9.327  14.221  12.915
53723W        W23538  31.488  23.146   2.409
53724W        W23539  44.871  44.792  14.302
53725W        W23540  35.420  25.558   0.365
53726W        W23541   0.258  11.629  11.923
53727W        W23542  17.713  20.080  14.767
53728W        W23543  43.276   3.884   2.412
53729W        W23544   1.951  37.061   0.874
53730W        W23545   6.358  24.698   2.726
53731W        W23546  25.968  12.233   4.801
53732W        W23547  28.078  18.547  12.507
53733W        W23548   6.894  15.298   3.341
53734W        W23549  43.284   9.380  11.910
53735W        W23550  20.594  19.643  13.498
53736W        W23551  23.121  23.045  13.012
53737W        W23552  18.279  26.168  14.815
53738W        W23553  14.173  38.884  11.491
53739W        W23554  15.737  12.286  14.844
53740W        W23555  10.879  30.445   3.160
53741W        W23556  20.093   9.718   0.308
53742W        W23557  39.825  24.662   3.179
53743W        W23558  38.544  17.625  14.768
53744W        W23559  25.485  17.192   0.273
53745W        W23560   1.906  14.173  12.391
53746W        W23561  28.033  29.920   2.403
53747W        W23562  39.342  16.788  13.957
53748W        W23563  28.957   3.896   4.670
53749W        W23564  25.201   6.308   3.744
53750W        W23565  21.017  32.976  14.396
53751W        W23566  28.162   9.793   0.320
53752W        W23567  39.455  27.963  10.446
53753W        W23568  13.737  21.222   4.653
53754W        W23569  43.964  21.060   1.308
53755W        W23570  39.878  31.578   1.866
53756W        W23571  12.676   1.914   3.747
53757W        W23572  38.551  38.820   3.213
53758W        W23573  28.601  29.469   4.204
53759W        W23574  11.211   1.827   2.864
53760W        W23575   1.773  14.631   1.265
53761W        W23576  23.200  22.711  13.426
53762W        W23577  39.014  16.116   4.671
53763W        W23578  20.768  35.913   2.244
53764W        W23579  31.063  18.723  13.533
53765W        W23580   4.787   4.442   2.837
53766W        W23581  21.102  22.229   2.223
53767W        W23582   7.310  19.722  11.095
53768W        W23583  18.213  34.567   0.757
53769W        W23584   3.719  27.470  12.999
53770W        W23585  21.530   1.957  11.026
53771W        W23586  12.341  10.220   3.320
53772W        W23587  28.534  29.134   3.713
53773W        W23588   4.436  33.018   2.213
53774W        W23589  28.505  16.216  10.433
53775W        W23590  27.550  36.489  10.613
53776W        W23591  19.265  41.832  12.372
53777W        W23592  24.007  37.452  10.956
53778W        W23593  33.912  41.426  14.398
53779W        W23594  18.580   5.330  13.367
53780W        W23595   0.389  12.758   0.409
53781W        W23596  30.483  15.749   2.383
53782W        W23597  25.489  38.504  14.493
53783W        W23598  26.012   1.461   4.669
53784W        W23599  42.438  27.963   2.410
53785W        W23600  32.633   3.866  14.975
53786W        W23601  36.021   7.310  10.618
53787W        W23602  38.419  36.470   4.617
53788W        W23603  25.507  31.984  13.532
53789W        W23604  40.374   0.458   1.920
53790W        W23605   0.457  29.498  12.352
53791W        W23606  34.049  24.090   2.398
53792W        W23607  41.468   8.289  14.422
53793W        W23608  40.517  43.491   2.719
53794W        W23609  23.692  18.583  14.281
53795W        W23610  29.985  17.283  13.028
53796W        W23611  44.921  33.456  13.952
53797W        W23612  38.974   2.310   3.779
53798W        W23613   4.700  40.338  10.569
53799W        W23614  33.096   8.313  13.424
53800W        W23615  18.549  31.078   1.853
53801W        W23616  33.947   8.664  10.476
53802W        W23617  23.152   0.309   1.215
53803W        W23618   9.801  12.308  14.288
53804W        W23619  23.232   6.861  14.019
53805W        W23620  23.099  28.075   0.768
53806W        W23621  42.452  33.561   4.289
53807W        W23622   1.273  40.891  14.327
53808W        W23623  32.506   8.311  14.359
53809W        W23624  44.838  35.969   3.661
53810W        W23625  40.529  23.987   4.247
53811W        W23626  23.120  26.192  12.563
53812W        W23627  29.053  35.891   4.190
53813W        W23628  34.951  34.089   3.632
53814W        W23629  31.531   8.813   4.717
53815W        W23630  11.658  36.000  10.937
53816W        W23631  37.051  25.085   1.934
53817W        W23632  44.405  15.254  13.042
53818W        W23633  43.361  34.385   3.676
53819W        W23634   4.880  19.072  11.867
53820W        W23635  39.514  21.690  13.903
53821W        W23636  37.446  12.175  12.555
53822W        W23637  15.809  31.015  14.281
53823W        W23638  36.493  32.946   3.375
53824W        W23639   6.246  24.975   1.832
53825W        W23640  39.868   4.342   3.195
53826W        W23641  35.992  10.369  14.380
53827W        W23642  21.586   1.786   3.180
53828W        W23643  27.091  34.400  13.045
53829W        W23644  35.368   6.263   1.794
53830W        W23645  16.700   6.320   3.857
53831W        W23646  24.082  11.701   3.766
53832W        W23647  32.064  15.285   0.734
53833W        W23648  36.463   3.383  14.336
53834W        W23649  33.461  41.497  14.815
53835W        W23650  26.184  39.837  13.531
53836W        W23651  18.151  24.137   2.851
53837W        W23652  13.315   1.739   4.624
53838W        W23653  32.557  20.729   1.901
53839W        W23654  37.044   5.894  11.538
53840W        W23655  25.022   0.339   2.860
53841W        W23656  38.516  26.693  14.275
53842W        W23657  13.268   1.836  13.423
53843W        W23658  33.082  19.115  13.937
53844W        W23659   3.272  14.679  14.434
53845W        W23660  18.722  30.009  14.419
53846W        W23661  41.959  14.319  13.474
53847W        W23662  31.957   5.918   0.395
53848W        W23663  32.037  14.829   2.772
53849W        W23664  21.720  25.151   4.129
53850W        W23665  15.801   1.778  13.537
53851W        W23666   1.925  42.368  10.513
53852W        W23667  20.179  34.943   1.407
53853W        W23668  42.797  37.830  10.640
53854W        W23669  36.952  29.024  12.840
53855W        W23670  35.538  42.862  13.466
53856W        W23671  14.143  44.008  10.996
53857W        W23672   2.297  43.994   2.315
53858W        W23673   1.788  38.936   3.786
53859W        W23674  18.081   1.947   0.305
53860W        W23675   1.921  15.760  14.418
53861W        W23676  19.538  40.357  13.957
53862W        W23677  19.220   8.242  13.006
53863W        W23678  29.606  24.703  14.380
53864W        W23679   4.287  39.874   1.855
53865W        W23680  37.958  39.952  12.399
53866W        W23681  43.795  32.598   1.272
53867W        W23682   6.881  33.446   2.862
53868W        W23683   7.733  19.612  10.546
53869W        W23684  35.483  27.026  13.497
53870W        W23685  12.715  29.143  13.535
53871W        W23686  24.160  26.574   3.349
53872W        W23687  16.296  11.784   4.176
53873W        W23688  27.576  11.777   1.425
53874W        W23689  29.507  13.702  14.902
53875W        W23690  20.731   6.769   1.385
53876W        W23691   7.231  32.086   3.834
53877W        W23692   6.872  36.536  11.119
53878W        W23693  34.518  38.925  11.909
53879W        W23694  24.552  16.139   0.322
53880W        W23695  21.704   4.740   2.269
53881W        W23696  19.713  22.102  13.324
53882W        W23697  42.354  32.920   4.216
53883W        W23698  20.755   8.173  11.959
53884W        W23699  17.225  38.911   3.274
53885W        W23700  13.678   2.440  10.638
53886W        W23701   9.194  18.604  14.468
53887W        W23702  40.409  31.583   3.812
53888W        W23703  36.349   6.703   0.965
53889W        W23704  14.754  44.479  10.918
53890W        W23705  19.250  32.525   3.221
53891W        W23706  30.153  16.184   4.207
53892W        W23707  40.936  40.412   1.238
53893W        W23708  11.359  21.144   0.446
53894W        W23709  36.547  26.981   1.437
53895W        W23710   5.355  15.725  13.451
53896W        W23711  23.054  19.064  13.828
53897W        W23712   8.884  30.163   3.780
53898W        W23713  41.532  27.940  11.015
53899W        W23714   6.238  21.247   3.703
53900W        W23715  22.617   7.290  12.939
53901W        W23716  25.665   4.763  12.371
53902W        W23717  24.561  30.117   3.273
53903W        W23718  14.742  10.252  12.081
53904W        W23719  20.141  35.046  13.323
53905W        W23720  34.495   1.862  12.539
53906W        W23721  26.579  42.518  14.961
53907W        W23722  35.059   6.904   2.352
53908W        W23723  11.659  39.857   2.698
53909W        W23724   0.846  11.216  12.920
53910W        W23725  11.704  24.029   1.724
53911W        W23726  41.959  11.681   4.289
53912W        W23727   3.222  32.934   4.809
53913W        W23728  11.274  22.019  10.569
53914W        W23729  36.865   6.356  12.416
53915W        W23730  10.742  19.766   3.335
53916W        W23731  14.225   7.775   4.766
53917W        W23732  37.402  17.234   5.163
53918W        W23733  41.382  15.715  11.935
53919W        W23734  34.984  34.094   4.680
53920W        W23735  41.427  41.333   3.856
53921W        W23736  26.651  21.612   4.801
53922W        W23737  11.755  34.920   0.797
53923W        W23738   3.412  15.783  10.902
53924W        W23739  23.001  34.502   0.765
53925W        W23740  23.626  13.836  12.977
53926W        W23741  10.333  21.081   1.257
53927W        W23742  18.207  18.768  10.414
53928W        W23743  11.677  44.854   3.154
53929W        W23744  18.122  40.536  14.878
53930W        W23745  36.453  34.596  13.040
53931W        W23746  42.896   6.350   2.239
53932W        W23747  11.298  12.138   1.267
53933W        W23748  25.106  25.148  11.931
53934W        W23749  18.272   1.265  12.447
53935W        W23750  14.107  30.103   4.671
53936W        W23751  33.462   8.785   3.242
53937W        W23752  24.631  15.754  10.964
53938W        W23753  10.233  38.343   2.352
53939W        W23754   2.347  27.127   0.892
53940W        W23755  40.361  19.660  11.859
53941W        W23756   6.745   4.763  13.477
53942W        W23757  29.554  18.660  13.799
53943W        W23758  10.146  41.867  12.026
53944W        W23759   6.374   1.343   0.325
53945W        W23760  19.715  11.269   0.370
53946W        W23761   6.868  25.512   4.245
53947W        W23762  27.977  21.143  13.479
53948W        W23763  22.625  30.595   1.732
53949W        W23764  34.106   9.295  10.892
53950W        W23765  40.926  32.395   4.227
53951W        W23766  15.164  31.471  10.572
53952W        W23767  21.613   3.727  12.417
53953W        W23768  27.597   3.432  10.088
53954W        W23769  29.017   6.822  14.420
53955W        W23770  19.203  14.216  10.891
53956W        W23771   2.926   7.896  10.435
53957W        W23772  20.728  20.752  13.374
53958W        W23773  20.598   3.891  14.903
53959W        W23774  26.549  27.076   3.380
53960W        W23775  30.139   4.288  12.964
53961W        W23776  10.339  15.815  14.865
53962W        W23777  40.866  16.654   0.818
53963W        W23778  12.757  38.424  11.423
53964W        W23779   6.262   7.747  13.020
53965W        W23780  26.533   9.875  14.387
53966W        W23781  26.010  16.611   3.226
53967W        W23782  25.063  43.885   2.366
53968W        W23783  11.623  41.793   0.727
53969W        W23784  30.071  36.484   4.118
53970W        W23785   2.402  43.811   3.655
53971W        W23786   0.268  30.428  12.522
53972W        W23787  26.493  17.283   3.274
53973W        W23788  38.389   0.439  12.429
53974W        W23789  10.219  24.710  14.473
53975W        W23790  11.318  18.778   5.089
53976W        W23791  20.555   3.261  14.509
53977W        W23792   3.215  42.900  11.035
53978W        W23793  39.361  24.977   4.278
53979W        W23794  16.196   4.907   1.253
53980W        W23795  19.612  44.456  11.927
53981W        W23796  38.371   0.261   5.293
53982W        W23797  28.664  22.727  11.554
53983W        W23798  30.910  27.621  11.067
53984W        W23799  36.387   6.769  13.949
53985W        W23800  29.959  28.170   1.812
53986W        W23801   9.862  43.962   2.230
53987W        W23802   0.269  26.530  10.915
53988W        W23803  12.260  35.875  12.507
53989W        W23804  26.117   5.230  12.430
53990W        W23805   0.435  17.642   4.804
53991W        W23806  30.047  40.801   3.202
53992W        W23807  19.652   7.688   0.851
53993W        W23808  41.425  13.782   2.241
53994W        W23809   1.306  42.348  11.951
53995W        W23810   4.789   6.324  11.063
53996W        W23811   3.930  19.674  12.565
53997W        W23812  23.520   2.820   1.341
53998W        W23813   9.733  42.318   1.713
53999W        W23814  34.518  24.711  10.626
54000W        W23815  34.903  12.735  10.551
54001W        W23816  18.154  25.505  14.450
54002W        W23817  38.528  39.447   1.342
54003W        W23818  24.006  23.564   0.754
54004W        W23819  17.731  31.932  12.837
54005W        W23820   9.321  21.213  12.445
54006W        W23821  24.121  37.868  13.314
54007W        W23822  22.069  20.066  11.398
54008W        W23823  42.504  37.061   0.352
54009W        W23824   3.454  17.199  10.959
54010W        W23825  28.153   9.233   0.297
54011W        W23826  38.861  36.436   1.389
54012W        W23827  16.284  25.196   1.800
54013W        W23828  37.921  37.387   4.174
54014W        W23829  21.068  27.629   2.179
54015W        W23830  36.555  16.697   4.189
54016W        W23831  22.247   7.800   1.298
54017W        W23832  16.767   3.944  14.982
54018W        W23833  44.452  32.413  13.445
54019W        W23834  43.971  26.578  10.964
54020W        W23835  27.956  42.788   4.719
54021W        W23836  34.396  20.660  13.046
54022W        W23837  14.169  36.407   0.837
54023W        W23838  24.160  11.254   3.200
54024W        W23839  16.626  17.592  11.911
54025W        W23840  20.767  25.072   1.432
54026W        W23841  39.980  11.649   0.892
54027W        W23842   1.845  29.140   0.281
54028W        W23843  37.863  34.526  12.054
54029W        W23844  34.599   8.187   4.321
54030W        W23845   1.888  20.221   4.637
54031W        W23846  20.737  29.514  14.820
54032W        W23847  30.498  21.702  14.322
54033W        W23848  35.877  38.028   1.392
54034W        W23849  42.422  29.434  13.409
54035W        W23850  42.404  24.509  13.798
54036W        W23851  32.922  39.365   2.284
54037W        W23852  44.279  43.329  12.356
54038W        W23853  26.584  10.235   5.292
54039W        W23854   0.366  31.517  13.529
54040W        W23855  11.763  30.548   1.369
54041W        W23856  38.518  44.318   2.888
54042W        W23857  40.452  26.489   3.665
54043W        W23858  40.320  33.948   3.804
54044W        W23859  26.072  11.842  12.982
54045W        W23860  44.803  30.917  11.500
54046W        W23861  15.604  41.990   2.681
54047W        W23862  22.184   5.902   4.688
54048W        W23863  12.639  14.309   0.740
54049W        W23864  19.776  28.136   1.753
54050W        W23865   3.360  24.148  13.389
54051W        W23866  32.390  26.072  11.400
54052W        W23867  15.217  32.540   3.707
54053W        W23868  23.722  42.511   2.826
54054W        W23869   4.428  21.752   2.782
54055W        W23870  38.946   6.311   4.338
54056W        W23871  30.447  20.653   0.477
54057W        W23872  39.356  31.953   2.816
54058W        W23873  26.541   4.344  13.946
54059W        W23874  35.061  40.545   3.779
54060W        W23875  40.930  36.530   3.280
54061W        W23876  36.582  36.015   2.301
54062W        W23877   1.884  23.182   3.829
54063W        W23878  26.120  39.882   3.244
54064W        W23879  40.892  17.684   3.301
54065W        W23880  42.293  18.202   4.603
54066W        W23881  23.087   8.233  14.834
54067W        W23882  44.402  15.272   4.834
54068W        W23883  33.434  41.002   0.321
54069W        W23884  19.728   2.963  14.856
54070W        W23885  36.057  34.595  12.030
54071W        W23886  35.519  37.919  14.443
54072W        W23887  43.974   7.282  11.013
54073W        W23888  29.946   4.936  13.023
54074W        W23889   4.794  35.877  11.015
54075W        W23890   7.338  10.253  11.477
54076W        W23891  10.791  12.309  13.907
54077W        W23892  43.815  30.633   2.700
54078W        W23893  11.142  30.056  11.874
54079W        W23894  41.349  40.337   3.161
54080W        W23895  12.777  37.513   2.790
54081W        W23896  31.414  14.198  14.821
54082W        W23897  24.682   0.261  12.544
54083W        W23898  39.558   8.685   3.729
54084W        W23899   2.803  10.718  11.097
54085W        W23900  43.498  27.572  10.936
54086W        W23901   5.749   3.226  14.439
54087W        W23902   0.480  23.226  12.446
54088W        W23903  25.615  29.600  12.912
54089W        W23904  16.307  15.204  11.582
54090W        W23905  40.536  37.051   2.349
54091W        W23906  19.224  14.644  10.550
54092W        W23907  44.891  11.368   1.792
54093W        W23908  22.230  36.856   4.291
54094W        W23909   4.708  15.647  11.554
54095W        W23910  32.928  21.756  12.505
54096W        W23911  25.652  30.491   1.306
54097W        W23912  17.628  16.635  11.031
54098W        W23913  41.390  22.531  14.354
54099W        W23914   0.438  15.315   2.845
54100W        W23915  18.257   1.428  11.920
54101W        W23916   3.243  25.481   3.650
54102W        W23917   8.347  34.905   1.873
54103W        W23918  42.023  32.013  14.489
54104W        W23919  13.828  17.106   2.321
54105W        W23920   9.319  22.732   4.613
54106W        W23921  34.102  24.491   2.786
54107W        W23922  37.572   8.695  12.575
54108W        W23923  43.873  42.436  13.904
54109W        W23924  11.331  18.585  11.527
54110W        W23925  31.638  41.293   4.632
54111W        W23926  15.629  10.658  13.792
54112W        W23927  24.974   7.696   1.889
54113W        W23928  34.500  27.561   1.256
54114W        W23929   3.372   9.319   4.758
54115W        W23930  37.363  31.999  11.497
54116W        W23931  15.111  34.586  11.034
54117W        W23932   2.427  32.516  14.408
54118W        W23933  44.952  16.796   1.820
54119W        W23934  15.185  30.524   1.893
54120W        W23935  35.482   4.829   3.695
54121W        W23936   2.918   9.734  13.414
54122W        W23937   6.721  25.160  13.824
54123W        W23938   8.333  26.049   0.802
54124W        W23939  21.128  20.054  13.815
54125W        W23940  15.599  36.353   0.453
54126W        W23941  13.669   8.316   2.863
54127W        W23942   8.772  22.157   0.950
54128W        W23943  29.511  10.639  14.962
54129W        W23944  19.211  25.059  10.908
54130W        W23945  44.269  33.007  14.943
54131W        W23946   0.309  39.385   3.848
54132W        W23947  34.454  14.204   2.885
54133W        W23948  39.019  27.600  13.006
54134W        W23949   4.437   3.300  10.524
54135W        W23950  29.491  19.697   2.700
54136W        W23951  22.742  22.997  12.094
54137W        W23952  37.945   8.718   4.208
54138W        W23953  35.503  31.562   3.381
54139W        W23954  17.254  41.989  14.864
54140W        W23955  20.214  23.579   1.747
54141W        W23956  39.560  29.028  10.636
54142W        W23957  36.016  13.646  11.412
54143W        W23958  33.040  20.760  14.311
54144W        W23959  21.596  21.184  12.391
54145W        W23960  15.634  24.624   2.291
54146W        W23961  10.382  17.261   1.860
54147W        W23962  12.704  34.546  10.587
54148W        W23963  36.994   5.196  11.038
54149W        W23964   0.787  19.644   5.202
54150W        W23965   5.262   8.349  13.854
54151W        W23966  43.278   1.976   2.841
54152W        W23967   1.774   1.824  12.864
54153W        W23968   5.359  12.741   0.829
54154W        W23969  35.956  37.832  13.826
54155W        W23970   5.436   9.697  10.979
54156W        W23971  23.731  20.581  12.877
54157W        W23972  27.570  27.092  13.467
54158W        W23973   1.935  15.772   2.199
54159W        W23974   0.470   8.317   0.250
54160W        W23975  33.551  18.191  13.545
54161W        W23976  14.270   8.371   2.876
54162W        W23977  21.224   7.795  10.567
54163W        W23978   2.248  20.644  12.895
54164W        W23979  17.197  11.793  12.028
54165W        W23980  22.163   0.857   0.966
54166W        W23981  43.889  34.389  13.856
54167W        W23982  30.481  26.998  11.570
54168W        W23983  11.327  21.712  14.338
54169W        W23984   6.242   6.361  13.412
54170W        W23985  29.151   4.746   3.819
54171W        W23986   5.220  22.599   0.457
54172W        W23987  14.158  37.555  11.400
54173W        W23988  35.383  33.451   1.913
54174W        W23989  29.031  43.816   3.228
54175W        W23990   7.747   7.679  14.912
54176W        W23991  18.606  28.503   4.730
54177W        W23992  36.389  43.397  10.506
54178W        W23993   2.726  44.323   4.205
54179W        W23994  14.201  25.178  10.609
54180W        W23995   3.397   6.392  11.382
54181W        W23996  42.851  33.876   2.342
54182W        W23997  30.450   4.725  11.078
54183W        W23998   3.900  22.130  14.516
54184W        W23999   6.342  27.030  13.029
54185W        W24000  15.768  20.621  14.975
54186W        W24001  36.071   5.351  12.545
54187W        W24002  39.905  26.011   4.626
54188W        W24003  38.877  37.893  13.892
54189W        W24004  37.875   3.793  11.516
54190W        W24005  38.450  23.506   4.158
54191W        W24006  42.977   3.420   1.923
54192W        W24007   1.853  35.494   2.306
54193W        W24008  30.494  36.068  13.308
54194W        W24009   4.351   6.231   3.151
54195W        W24010  13.285  43.465  10.432
54196W        W24011   0.333  18.712  11.391
54197W        W24012  27.504  31.031   4.643
54198W        W24013  17.172  38.457   3.328
54199W        W24014  36.864   9.778  13.945
54200W        W24015   6.719  13.349   0.848
54201W        W24016  19.236  17.255  11.480
54202W        W24017  40.541  10.189  12.579
54203W        W24018  15.730  30.485   2.678
54204W        W24019  21.165  19.142  11.612
54205W        W24020   2.329  39.322   1.307
54206W        W24021   3.423  28.094  13.374
54207W        W24022   7.674  38.331  10.556
54208W        W24023  38.562  28.043  14.332
54209W        W24024  44.354  37.852  12.508
54210W        W24025  35.452  29.065   3.770
54211W        W24026  15.224  32.453  13.998
54212W        W24027  12.636  16.618  14.390
54213W        W24028   4.774  19.560   2.670
54214W        W24029  40.342  15.087   4.233
54215W        W24030   1.866  22.573  10.457
54216W        W24031  11.213  13.736  13.314
54217W        W24032  39.999  19.166  13.043
54218W        W24033   9.801  17.158   0.426
54219W        W24034  36.940  17.185  10.525
54220W        W24035  29.998  41.378   0.289
54221W        W24036  40.518  41.826  13.037
54222W        W24037  29.027  34.997   4.762
54223W        W24038  22.234  14.637   4.644
54224W        W24039  17.606  29.978  12.069
54225W        W24040  16.243  12.314  14.957
54226W        W24041  14.813  28.179  12.472
54227W        W24042  13.303  20.550  11.965
54228W        W24043  31.563  21.670  12.025
54229W        W24044   9.334   0.485   3.645
54230W        W24045   3.351   4.397  12.970
54231W        W24046  25.703   2.838  12.082
54232W        W24047  41.959  39.458  12.455
54233W        W24048   2.775   6.202  10.555
54234W        W24049  17.250  39.369   4.126
54235W        W24050   8.800  30.037   2.835
54236W        W24051  13.710  42.495   1.720
54237W        W24052  10.185  19.100  12.433
54238W        W24053  27.600   9.368  14.997
54239W        W24054  13.610  24.503  12.094
54240W        W24055   5.320  29.626  10.628
54241W        W24056  19.227  24.619   0.390
54242W        W24057  43.336  19.122  10.959
54243W        W24058  28.994  26.181   2.835
54244W        W24059   3.861  31.419  14.488
54245W        W24060   7.412  43.006   1.350
54246W        W24061  18.658   5.812  13.398
54247W        W24062  17.300  11.836   0.403
54248W        W24063  44.973   5.253  10.450
54249W        W24064   8.340   2.437   0.806
54250W        W24065  39.465  40.045  12.450
54251W        W24066  39.049  38.452  14.432
54252W        W24067  19.176  32.957   3.735
54253W        W24068   0.793  42.472  14.508
54254W        W24069  28.477  10.726  14.286
54255W        W24070  33.547   2.444  10.489
54256W        W24071   3.303  25.528  14.360
54257W        W24072   2.824  36.049  13.901
54258W        W24073   7.417  20.625  14.422
54259W        W24074  31.951  24.515  13.971
54260W        W24075  37.421  30.478  11.400
54261W        W24076   5.329   5.423   3.353
54262W        W24077  20.624   0.311  10.644
54263W        W24078  42.365  11.341   2.743
54264W        W24079   5.733  17.293   1.718
54265W        W24080   4.832  35.468  10.951
54266W        W24081  20.063  33.604   1.409
54267W        W24082  10.223   8.740   1.803
54268W        W24083  38.070  14.291  12.576
54269W        W24084   0.928   2.369   2.398
54270W        W24085  16.105  44.300   2.335
54271W        W24086  27.013  13.142  13.517
54272W        W24087   6.251  19.262   2.411
54273W        W24088  24.501  20.587   0.275
54274W        W24089  24.211  38.897   2.729
54275W        W24090  34.019  18.295  14.439
54276W        W24091  18.553  23.655   5.090
54277W        W24092   6.819  38.004   3.191
54278W        W24093  14.206  39.376   2.293
54279W        W24094   9.650  19.559  11.582
54280W        W24095  28.120  10.355  12.974
54281W        W24096   3.911  38.907   1.275
54282W        W24097  28.541   8.878  12.050
54283W        W24098   3.456  43.313  13.324
54284W        W24099   4.926  27.450   2.250
54285W        W24100  38.929  16.111  12.020
54286W        W24101  22.028   7.838  11.430
54287W        W24102  35.498  31.403  13.941
54288W        W24103  30.921  43.280  11.879
54289W        W24104  44.443  43.904  13.338
54290W        W24105  12.712  24.078  14.310
54291W        W24106  14.100  35.084   1.370
54292W        W24107  25.177  38.894   2.372
54293W        W24108  34.018  26.965   4.778
54294W        W24109  20.247  22.113  13.543
54295W        W24110  13.109  39.986  11.482
54296W        W24111   0.394  12.797   4.756
54297W        W24112  32.528   8.254  11.080
54298W        W24113  36.024  10.286   2.868
54299W        W24114   7.288  38.384  13.395
54300W        W24115  44.828   3.300   2.684
54301W        W24116  29.617  28.527   0.738
54302W        W24117  12.771  26.508   1.868
54303W        W24118   0.388  17.077   2.184
54304W        W24119   1.358   7.853   0.322
54305W        W24120   2.269  30.450  10.996
54306W        W24121  28.015  27.634  10.994
54307W        W24122  41.299  34.598   2.760
54308W        W24123  41.297   2.779  12.843
54309W        W24124  23.027  13.683   0.276
54310W        W24125  33.971   7.853  14.827
54311W        W24126  23.586   6.701  13.800
54312W        W24127  35.371  37.972  10.644
54313W        W24128  17.152  26.678   1.378
54314W        W24129  12.732  39.865   1.422
54315W        W24130  25.644  13.172  13.473
54316W        W24131  38.017  42.897  12.421
54317W        W24132  38.869  13.767  14.016
54318W        W24133   1.763  41.502   1.778
54319W        W24134  15.802   7.223  13.057
54320W        W24135   7.405  28.563   2.373
54321W        W24136  40.011  38.994   0.958
54322W        W24137  15.192  21.527  12.929
54323W        W24138  28.529  27.071  12.408
54324W        W24139  28.620  25.606   1.284
54325W        W24140  23.011   0.350  11.398
54326W        W24141  33.540  30.084   5.168
54327W        W24142  15.777  23.554   2.722
54328W        W24143  26.522  32.580  12.890
54329W        W24144   9.339   4.935   0.755
54330W        W24145  41.477  34.544  12.843
54331W        W24146  36.487  31.087  11.025
54332W        W24147  34.933  20.088  10.474
54333W        W24148  29.480  19.775  12.882
54334W        W24149   6.371  29.118   3.223
54335W        W24150  26.587  20.558  12.372
54336W        W24151  41.802  40.049  12.351
54337W        W24152  31.136   4.725  13.487
54338W        W24153  14.602  26.670   3.743
54339W        W24154  30.943   8.677  12.911
54340W        W24155   7.399  15.652   2.835
54341W        W24156   6.315   9.765   2.320
54342W        W24157  23.995  32.593  11.418
54343W        W24158  18.077  10.637  13.411
54344W        W24159  21.086  33.956  14.451
54345W        W24160  41.023  15.710   3.204
54346W        W24161   3.887  37.414  13.876
54347W        W24162  25.557   8.660   4.222
54348W        W24163  10.860  17.097  11.519
54349W        W24164   4.222  25.665  14.794
54350W        W24165  16.248  10.257   3.162
54351W        W24166  26.176  16.592   0.736
54352W        W24167  44.828  39.553   1.247
54353W        W24168  27.023  18.783  12.881
54354W        W24169  28.508  36.374   2.306
54355W        W24170   2.909   7.401  12.061
54356W        W24171  17.109  22.504   3.281
54357W        W24172  44.357  23.083  11.014
54358W        W24173  27.692  15.674   2.785
54359W        W24174  12.673  28.151   3.297
54360W        W24175  19.068  43.012   2.185
54361W        W24176   3.921   1.734  13.841
54362W        W24177  38.398   9.822  10.460
54363W        W24178  26.996  26.528  12.013
54364W        W24179   1.250  34.910  14.431
54365W        W24180  30.472   9.882  10.605
54366W        W24181   8.713   5.366  14.940
54367W        W24182   3.871  34.065  14.908
54368W        W24183  40.816   8.194   5.268
54369W        W24184  26.513  38.971   4.689
54370W        W24185  35.856   0.821  12.532
54371W        W24186  40.473  30.450  14.984
54372W        W24187  10.325  42.838   5.221
54373W        W24188  20.695  18.693  10.488
54374W        W24189   6.195  10.644   2.877
54375W        W24190  22.621   6.743   0.313
54376W        W24191  28.018  28.136  13.795
54377W        W24192  14.697  14.098   1.767
54378W        W24193  22.567  31.527  12.450
54379W        W24194   2.415   6.336   3.786
54380W        W24195  13.810  25.513  14.801
54381W        W24196  30.061  37.874   4.687
54382W        W24197  37.923  17.280  11.391
54383W        W24198  37.901  23.602  11.021
54384W        W24199  12.633  31.029  11.385
54385W        W24200  29.988  35.426   4.210
54386W        W24201   7.687  31.068  14.013
54387W        W24202  10.636   4.268  12.081
54388W        W24203  22.184  27.985   2.845
54389W        W24204  13.770  24.189   2.869
54390W        W24205   2.443  38.403  13.809
54391W        W24206  42.524  38.512  12.512
54392W        W24207  37.936  30.021  10.493
54393W        W24208  34.090   5.790  13.997
54394W        W24209   3.317  17.610  14.428
54395W        W24210  29.158  12.164   1.233
54396W        W24211   8.808   9.730  14.791
54397W        W24212   3.246  27.592   0.419
54398W        W24213  39.356  27.177   0.810
54399W        W24214  19.056   5.895  11.482
54400W        W24215  21.577  26.533   1.820
54401W        W24216   8.339   7.227   4.710
54402W        W24217   1.417   9.861  11.107
54403W        W24218  24.146  30.164  14.464
54404W        W24219  26.639  34.517  14.950
54405W        W24220   0.477  21.681  10.469
54406W        W24221   0.951  39.499  10.620
54407W        W24222  14.827  17.087  14.848
54408W        W24223  19.641  21.189   3.781
54409W        W24224  40.481  30.522   1.222
54410W        W24225   9.649  19.199   0.423
54411W        W24226  27.994   4.903   5.271
54412W        W24227  41.980  44.425   4.273
54413W        W24228  26.666  40.371   4.689
54414W        W24229   9.699   5.216  11.864
54415W        W24230  10.304  29.031  12.914
54416W        W24231  27.972  19.600  12.841
54417W        W24232   8.239  12.201  14.020
54418W        W24233  15.261  34.003  14.842
54419W        W24234  36.921  31.004  12.984
54420W        W24235  30.511  14.125  10.490
54421W        W24236  38.525   7.692  14.485
54422W        W24237  36.065   5.727  10.619
54423W        W24238  25.984   6.813   0.948
54424W        W24239  24.596   9.149  11.986
54425W        W24240  14.328  32.080  11.982
54426W        W24241  12.242  22.172   0.332
54427W        W24242  18.738  34.565  10.927
54428W        W24243   7.805   3.813   4.648
54429W        W24244  42.357  43.769   0.288
54430W        W24245  26.971   3.440   2.259
54431W        W24246  14.224   2.467  13.875
54432W        W24247  38.390  25.028  12.404
54433W        W24248  16.122  27.137   3.786
54434W        W24249   2.782  41.516  13.997
54435W        W24250  25.177   6.300   1.919
54436W        W24251  21.517  23.149  13.797
54437W        W24252  22.534  15.785  14.501
54438W        W24253  20.631  39.440  13.904
54439W        W24254  15.677   3.288   3.865
54440W        W24255   7.230  43.454   2.808
54441W        W24256  39.540   2.959  12.423
54442W        W24257   7.764   2.459  12.833
54443W        W24258   7.328   0.866  13.962
54444W        W24259  21.104  33.097   1.239
54445W        W24260  39.011   5.428   4.676
54446W        W24261  14.785  27.662  11.538
54447W        W24262   9.834   6.331   1.725
54448W        W24263  21.173  17.067  11.538
54449W        W24264  32.067   2.397   4.641
54450W        W24265  35.490  42.878  14.876
54451W        W24266  29.933   3.880  10.962
54452W        W24267  22.618   0.485  13.900
54453W        W24268  35.008  16.698   1.358
54454W        W24269  11.692   4.342  14.964
54455W        W24270  25.508  24.047   4.175
54456W        W24271   9.689  16.147  11.605
54457W        W24272  20.184   7.817   3.364
54458W        W24273   2.834  39.059  14.308
54459W        W24274  27.947   0.896   3.807
54460W        W24275  23.701  14.785   4.303
54461W        W24276   2.750  11.150  10.890
54462W        W24277   6.207  12.742  10.629
54463W        W24278   9.191   8.346   4.125
54464W        W24279  43.791  16.153   1.310
54465W        W24280  15.711  17.604  12.494
54466W        W24281   1.818  39.448  10.901
54467W        W24282  40.839  33.997  13.845
54468W        W24283   3.931  20.602  12.395
54469W        W24284  39.001  35.580   3.299
54470W        W24285  27.092  42.935  11.474
54471W        W24286  42.389  17.188  12.855
54472W        W24287  14.282  16.695   4.218
54473W        W24288  31.967   5.739   3.327
54474W        W24289  13.292  41.831  11.417
54475W        W24290  11.151  21.169  12.896
54476W        W24291  41.468   4.445  14.357
54477W        W24292  41.032   3.326   1.231
54478W        W24293  19.670  26.126   4.776
54479W        W24294   9.275  21.630  13.436
54480W        W24295  27.197  29.535  11.497
54481W        W24296  37.878  20.622   0.809
54482W        W24297  24.068   5.767   3.171
54483W        W24298   3.868  44.393   3.269
54484W        W24299  43.366  39.406  14.834
54485W        W24300  44.489   3.362  13.876
54486W        W24301   8.711  11.228  10.410
54487W        W24302  21.258  16.075   3.149
54488W        W24303  24.542  18.240   2.823
54489W        W24304  20.043   8.163  12.988
54490W        W24305  14.262  31.550   1.880
54491W        W24306   9.796   7.202   1.428
54492W        W24307  30.074  10.850   2.745
54493W        W24308   0.379  27.049  11.968
54494W        W24309  18.790  14.748  12.487
54495W        W24310  34.425  17.285  14.958
54496W        W24311  19.052  10.375   2.387
54497W        W24312  43.800   1.745  10.459
54498W        W24313  35.578   9.264  11.488
54499W        W24314   0.877  26.161  10.967
54500W        W24315  40.383  27.157   0.411
54501W        W24316  30.434  12.295   4.250
54502W        W24317  28.092  19.172  12.564
54503W        W24318   7.795   3.425  12.403
54504W        W24319  12.287   7.226   2.195
54505W        W24320  41.036  12.839  13.998
54506W        W24321  41.860  15.299  12.055
54507W        W24322  11.708  17.678   4.322
54508W        W24323   8.701  26.637  10.074
54509W        W24324  10.699  32.932  13.385
54510W        W24325  14.620  13.309   2.756
54511W        W24326  15.306  39.527   3.638
54512W        W24327  40.506  19.662  10.464
54513W        W24328  37.934   6.757  13.010
54514W        W24329  37.878   4.273   4.717
54515W        W24330  42.356  12.778  12.840
54516W        W24331  18.570  35.520  14.770
54517W        W24332  42.960  14.601   1.846
54518W        W24333  20.269  43.470  11.379
54519W        W24334   9.674   3.392   3.644
54520W        W24335  16.132  32.932  14.501
54521W        W24336  14.099  24.132   4.617
54522W        W24337  31.594  31.014   1.794
54523W        W24338  34.414  10.160  11.558
54524W        W24339   0.798  30.511  10.531
54525W        W24340  23.014  42.871  10.455
54526W        W24341  25.513  41.516   1.829
54527W        W24342   9.256  43.870  14.514
54528W        W24343  12.180  12.251   1.751
54529W        W24344   4.791  17.159  12.945
54530W        W24345  30.121  26.561  13.851
54531W        W24346  22.704  23.039   4.197
54532W        W24347  15.646   0.889  10.948
54533W        W24348  21.613   7.273  13.838
54534W        W24349  38.941  19.660   3.205
54535W        W24350  25.698  28.102   1.840
54536W        W24351  37.923  40.429  12.931
54537W        W24352  23.638  24.606   4.664
54538W        W24353  34.424  18.676   3.179
54539W        W24354  40.509  11.672  10.984
54540W        W24355  19.560  14.302  12.450
54541W        W24356  31.568  12.744  11.549
54542W        W24357  36.877  23.629   0.481
54543W        W24358  25.631  42.508   3.273
54544W        W24359  43.510  14.100  14.328
54545W        W24360  32.075  25.622  13.475
54546W        W24361   3.341  32.111   4.314
54547W        W24362  44.317  31.507  12.957
54548W        W24363  36.505  39.549   3.323
54549W        W24364  25.164  37.386   1.375
54550W        W24365  24.039  18.692  10.068
54551W        W24366  21.718  40.920   4.718
54552W        W24367  30.914  30.005  13.376
54553W        W24368  25.695  12.751  11.373
54554W        W24369   9.236  30.527   5.293
54555W        W24370  19.650  29.938  14.945
54556W        W24371  38.071  12.769  12.983
54557W        W24372  12.172   3.397   1.271
54558W        W24373   4.355  15.596   4.222
54559W        W24374  29.072  41.022  13.891
54560W        W24375  28.657  15.743   2.193
54561W        W24376   8.900  12.682   4.660
54562W        W24377  43.436  26.003   0.887
54563W        W24378  10.635  36.875   4.613
54564W        W24379  10.356  24.180   5.146
54565W        W24380  17.176   4.775  10.570
54566W        W24381  23.644  24.492  11.040
54567W        W24382   9.730  33.095  14.022
54568W        W24383  11.370  43.483  14.787
54569W        W24384  12.803  44.369  10.472
54570W        W24385   2.759  27.944   3.305
54571W        W24386  20.093  17.604  12.071
54572W        W24387   6.222  34.957   4.756
54573W        W24388   7.290  34.118  10.974
54574W        W24389   1.792  14.151  14.967
54575W        W24390  34.890  22.154   2.691
54576W        W24391   5.269  32.607  12.929
54577W        W24392  30.060  23.016   1.322
54578W        W24393  10.278  32.456  10.631
54579W        W24394  35.519  11.793  14.810
54580W        W24395  23.720   5.278  10.974
54581W        W24396  30.523  17.113   1.927
54582W        W24397   3.842  16.204  14.956
54583W        W24398  16.799  20.054   1.293
54584W        W24399  43.369  14.721   4.317
54585W        W24400  13.179  11.759  10.104
54586W        W24401  28.066  17.129  10.047
54587W        W24402  24.086  16.698  11.452
54588W        W24403  19.571   0.841  10.513
54589W        W24404  39.550  33.953   0.824
54590W        W24405  36.513   8.320  12.370
54591W        W24406   7.184  41.466   0.892
54592W        W24407  20.708  39.823  13.371
54593W        W24408  27.043  19.597   3.719
54594W        W24409  15.762  40.483  14.497
54595W        W24410  20.227  37.522   2.403
54596W        W24411  25.122  32.947   4.198
54597W        W24412  26.997  29.643   1.812
54598W        W24413  21.235   1.280  11.858
54599W        W24414   5.832  24.189  11.017
54600W        W24415  29.602  10.265  10.553
54601W        W24416  11.740  13.250  11.049
54602W        W24417  44.458  27.114   2.824
54603W        W24418  40.327  15.295  11.117
54604W        W24419  32.572  34.399  10.950
54605W        W24420  43.868  13.795   3.854
54606W        W24421  36.991   3.294   3.376
54607W        W24422  13.194   0.757   3.718
54608W        W24423   4.447  26.108   0.732
54609W        W24424  20.675   7.350   0.445
54610W        W24425  36.574  37.967   4.717
54611W        W24426   4.243  44.485   2.806
54612W        W24427  42.503  30.555  14.941
54613W        W24428   2.851  35.956  14.957
54614W        W24429  42.397  35.868   3.262
54615W        W24430  33.417  20.037   1.218
54616W        W24431  12.637   7.820  14.771
54617W        W24432  44.759  44.299  14.303
54618W        W24433  17.745  18.060  13.420
54619W        W24434  16.568   2.947   2.375
54620W        W24435  41.808  29.942   4.639
54621W        W24436   5.317  12.613   4.316
54622W        W24437   2.417  19.060  10.623
54623W        W24438  23.088  10.792   3.870
54624W        W24439  27.161   4.253   3.696
54625W        W24440  19.733  28.995  14.341
54626W        W24441  22.146   4.315   1.264
54627W        W24442   8.749   4.324  14.396
54628W        W24443  19.236  25.001  14.783
54629W        W24444  20.213  20.064  13.522
54630W        W24445   6.862   8.249   4.349
54631W        W24446  28.538  29.552   4.687
54632W        W24447  28.635  41.296  13.410
54633W        W24448  14.101  39.326  14.994
54634W        W24449  16.599  39.064   4.808
54635W        W24450  21.083  34.959   2.782
54636W        W24451  14.734  36.588  10.451
54637W        W24452  11.675  40.851  14.881
54638W        W24453  17.294  17.070   3.859
54639W        W24454  31.951  38.931   5.123
54640W        W24455  20.709  13.708  11.978
54641W        W24456  12.832  22.596   1.831
54642W        W24457  34.111  21.105   5.153
54643W        W24458   1.940  18.662   3.831
54644W        W24459  40.052  14.172  11.546
54645W        W24460   3.933   7.316  13.449
54646W        W24461  43.766   9.167  13.315
54647W        W24462  29.957  12.789  14.368
54648W        W24463  14.724  35.560  14.800
54649W        W24464  14.180  12.352   2.804
54650W        W24465  42.803  17.067  11.391
54651W        W24466   3.450   4.906   4.652
54652W        W24467  16.632   4.858   0.794
54653W        W24468  27.048   3.311  14.779
54654W        W24469   2.338  38.867  12.074
54655W        W24470   9.813  10.299  11.087
54656W        W24471  22.598  39.050  14.967
54657W        W24472  32.442   8.728  12.833
54658W        W24473   5.259  43.472  10.616
54659W        W24474   3.750  16.257  13.844
54660W        W24475  44.266  18.243   0.444
54661W        W24476  44.303  29.141  10.994
54662W        W24477  44.840  27.619   1.327
54663W        W24478   1.940  36.040   3.316
54664W        W24479  12.251   4.289   4.304
54665W        W24480  33.127  36.524  12.564
54666W        W24481  27.515   0.451  11.579
54667W        W24482  16.729  28.134   2.893
54668W        W24483  39.510  42.378  10.618
54669W        W24484   3.790  11.753  12.507
54670W        W24485   6.778  42.827   0.396
54671W        W24486   9.737   1.407  12.870
54672W        W24487   1.344  20.551  14.857
54673W        W24488  20.237  31.109  14.030
54674W        W24489  38.326  12.160   4.647
54675W        W24490  10.326   3.215   1.210
54676W        W24491  18.272  12.684   1.746
54677W        W24492  13.794  23.544   4.618
54678W        W24493  33.047  33.886  11.125
54679W        W24494   7.781  11.355   1.316
54680W        W24495  16.206  27.163   4.804
54681W        W24496   8.334  30.573   3.196
54682W        W24497  29.168   6.353   0.890
54683W        W24498  42.293  24.080   0.395
54684W        W24499  31.601  19.623  14.910
54685W        W24500  18.585  22.525   0.351
54686W        W24501  31.455  14.738  12.533
54687W        W24502  19.606  16.777   3.814
54688W        W24503  26.603  30.604  11.572
54689W        W24504  17.268   0.867  12.985
54690W        W24505  29.615  31.902   1.735
54691W        W24506  43.465  29.035   0.939
54692W        W24507  26.499  41.331   1.836
54693W        W24508   8.745  36.082   1.923
54694W        W24509  35.461  36.865  11.051
54695W        W24510  25.196  31.560   4.331
54696W        W24511  23.984  25.151   3.315
54697W        W24512   9.658  35.438  11.107
54698W        W24513   2.834   9.853   0.405
54699W        W24514  17.614   3.317  11.462
54700W        W24515  13.735  12.808  11.038
54701W        W24516   7.396  44.860   0.857
54702W        W24517  18.643   7.301  11.872
54703W        W24518  27.179  30.494   1.276
54704W        W24519  38.492  34.499   4.145
54705W        W24520   9.241  18.652  14.015
54706W        W24521   8.682  41.344   3.850
54707W        W24522  29.036  36.499   3.731
54708W        W24523  36.351  29.927   2.762
54709W        W24524  38.552  36.505   2.256
54710W        W24525  40.928  16.135  14.021
54711W        W24526   9.226  42.423  14.895
54712W        W24527  24.063  16.774  12.950
54713W        W24528   1.963  42.496  11.055
54714W        W24529  17.203  43.409   2.384
54715W        W24530  11.207   2.824   0.732
54716W        W24531  28.597  13.206   0.865
54717W        W24532  25.655  10.254  14.007
54718W        W24533  35.896  19.627  13.934
54719W        W24534  31.523  17.078   3.184
54720W        W24535  34.023  21.727  13.524
54721W        W24536  35.480  40.417   0.458
54722W        W24537  25.664   7.233   5.226
54723W        W24538  18.638   2.762   2.838
54724W        W24539  23.606   3.430  12.969
54725W        W24540   5.737  26.117   1.867
54726W        W24541  33.564  31.977   4.116
54727W        W24542  30.659  13.742   1.363
54728W        W24543   8.354  16.149  11.592
54729W        W24544  35.990  28.124   0.332
54730W        W24545  28.554  29.658  13.958
54731W        W24546  22.711  30.627   5.272
54732W        W24547   8.386  39.033  11.906
54733W        W24548  40.045  24.582   1.319
54734W        W24549  22.638   2.324  10.480
54735W        W24550  12.710  22.604  13.427
54736W        W24551  18.624  27.565  13.866
54737W        W24552  13.179  30.011  11.528
54738W        W24553   7.350  25.169   1.879
54739W        W24554  37.400  27.455   2.235
54740W        W24555  31.102   9.189   3.703
54741W        W24556  39.403  11.178   1.405
54742W        W24557   3.954  12.333   1.701
54743W        W24558  24.065  39.048  11.507
54744W        W24559  28.591  27.048   1.372
54745W        W24560  27.619  26.563   4.173
54746W        W24561  30.557   6.353  14.458
54747W        W24562  28.168   1.927  12.388
54748W        W24563  13.173   7.684  14.432
54749W        W24564  14.258  12.727  11.975
54750W        W24565  10.190   8.229   4.144
54751W        W24566  36.439  38.557   0.799
54752W        W24567  44.361  41.872  14.967
54753W        W24568  10.287  31.974   3.819
54754W        W24569  11.797  41.409   0.380
54755W        W24570   3.856   5.303   0.462
54756W        W24571  37.579   2.400   4.259
54757W        W24572  31.014  16.300  11.528
54758W        W24573  11.794   0.969   3.835
54759W        W24574  16.172   2.395  13.034
54760W        W24575  37.016  27.017   2.843
54761W        W24576   9.707  30.468   1.252
54762W        W24577  44.473  42.485  13.412
54763W        W24578  15.179  20.576   4.266
54764W        W24579  22.033  31.947   0.267
54765W        W24580  13.784   5.901   3.860
54766W        W24581  14.826   5.321  11.037
54767W        W24582  19.090   1.320  14.412
54768W        W24583   6.798   2.778   3.182
54769W        W24584  26.700   3.456   1.430
54770W        W24585  15.169  14.203   3.334
54771W        W24586  44.358  18.549   5.094
54772W        W24587  41.473  43.921   1.298
54773W        W24588   6.190  24.108   2.246
54774W        W24589  20.085  15.287  12.885
54775W        W24590  15.224  28.175   0.952
54776W        W24591  41.817   0.364   0.440
54777W        W24592  43.447  17.768   0.410
54778W        W24593   7.769   0.744  14.337
54779W        W24594  33.918  44.494  13.388
54780W        W24595   4.823  42.838  10.941
54781W        W24596  19.155   6.729   0.348
54782W        W24597  44.893   0.306  10.949
54783W        W24598  13.133  36.871  11.036
54784W        W24599  39.489   0.365   2.696
54785W        W24600  31.533   6.863   0.448
54786W        W24601  24.693   7.762   4.165
54787W        W24602  35.948  23.140   0.902
54788W        W24603  24.986  24.168   1.337
54789W        W24604   0.806  23.700   2.207
54790W        W24605   2.408  20.563   4.317
54791W        W24606  37.830  43.332   0.357
54792W        W24607  19.694  10.231   0.804
54793W        W24608   7.323  27.626  13.893
54794W        W24609  36.547  24.558  11.579
54795W        W24610  43.325  34.442   3.257
54796W        W24611  28.634  27.160   2.759
54797W        W24612   5.199  24.191  13.451
54798W        W24613  30.908  34.506   4.745
54799W        W24614  17.779  30.519   0.867
54800W        W24615  31.080  20.593   3.216
54801W        W24616  20.718  16.218   2.774
54802W        W24617  21.614  24.116   4.194
54803W        W24618  19.779  11.794  12.861
54804W        W24619   0.859  41.327   3.321
54805W        W24620  41.938  22.551   1.879
54806W        W24621  25.659  17.245   1.441
54807W        W24622  41.433  30.624  14.823
54808W        W24623  10.331   1.482   4.121
54809W        W24624  38.493  33.572   3.187
54810W        W24625   9.811   1.893  13.816
54811W        W24626   8.775  26.464   2.330
54812W        W24627  38.864  38.917   5.128
54813W        W24628  19.245  23.561   1.314
54814W        W24629   1.816   5.373  14.444
54815W        W24630  37.871  25.641   4.281
54816W        W24631  25.204  29.670   4.773
54817W        W24632   5.879  42.320  11.976
54818W        W24633  26.055  31.572  10.413
54819W        W24634   9.690   5.818  12.481
54820W        W24635  20.614  23.124   2.273
54821W        W24636  14.807   6.368   3.204
54822W        W24637  37.531  37.937   3.710
54823W        W24638  32.060  41.911  13.415
54824W        W24639  11.169  21.630  11.880
54825W        W24640   3.375  27.675  13.981
54826W        W24641   6.718   8.228   3.835
54827W        W24642  37.561  14.712   2.770
54828W        W24643   6.703  24.712  13.475
54829W        W24644  11.210  13.264   2.832
54830W        W24645  32.050  29.106  13.952
54831W        W24646  43.893  15.090   2.387
54832W        W24647  33.895  44.422   1.799
54833W        W24648   7.670  21.743   3.720
54834W        W24649  34.910  13.114  11.904
54835W        W24650   9.381  41.353  10.435
54836W        W24651   5.417   9.301  10.464
54837W        W24652  25.999   7.899   3.809
54838W        W24653   7.205  19.605   3.237
54839W        W24654  38.504  20.675  12.874
54840W        W24655  39.968  38.535  10.959
54841W        W24656   2.436  24.124  11.007
54842W        W24657  40.022  35.964  13.542
54843W        W24658  15.172   6.683   1.245
54844W        W24659  12.181  31.453   2.406
54845W        W24660   8.835  25.108   3.749
54846W        W24661   9.255   7.786  12.963
54847W        W24662  29.558  32.003  12.917
54848W        W24663  22.662  28.680  10.111
54849W        W24664  22.568  19.735  13.516
54850W        W24665  29.578  44.775   3.811
54851W        W24666  25.114  43.378  10.897
54852W        W24667  30.076  11.161   2.823
54853W        W24668  22.607  42.930  10.410
54854W        W24669  10.331  35.099  12.872
54855W        W24670  29.069   7.762   2.332
54856W        W24671  29.944   5.760  14.925
54857W        W24672   9.227  26.986  14.483
54858W        W24673  24.112  22.106   0.303
54859W        W24674  32.961  24.155   2.351
54860W        W24675  33.623  34.373  11.549
54861W        W24676  41.430   9.809  11.062
54862W        W24677  20.741  24.682   4.741
54863W        W24678  29.618   2.240  11.551
54864W        W24679  11.266  11.155  14.896
54865W        W24680  26.652  19.165  10.953
54866W        W24681  38.965  29.001  11.507
54867W        W24682  37.528   8.753  10.896
54868W        W24683  34.532  37.002   1.805
54869W        W24684  15.596  36.989  11.578
54870W        W24685  31.911  14.163  12.473
54871W        W24686   8.199  43.498   2.780
54872W        W24687   6.789  39.480   1.764
54873W        W24688  38.000  33.574  11.414
54874W        W24689  17.105  13.821   2.219
54875W        W24690   7.784  37.419   0.930
54876W        W24691   9.150   6.881  14.846
54877W        W24692  30.999  34.509   3.149
54878W        W24693   4.227   0.876   1.860
54879W        W24694   0.363  40.817  13.522
54880W        W24695  28.583  12.665  10.930
54881W        W24696   8.759  26.011   0.262
54882W        W24697   7.206  30.109  11.946
54883W        W24698  41.535  44.898  11.924
54884W        W24699   1.750  38.999   4.150
54885W        W24700   5.369  18.179   3.797
54886W        W24701   7.887  39.328   0.357
54887W        W24702  15.775   0.322   3.861
54888W        W24703  42.806  19.074  12.463
54889W        W24704   1.922  26.663  12.915
54890W        W24705   8.796  41.358   2.195
54891W        W24706  21.154  30.652   1.385
54892W        W24707  44.277  21.050  12.498
54893W        W24708  29.978  40.834  13.909
54894W        W24709  40.313  35.393   3.322
54895W        W24710  39.063   7.832  13.491
54896W        W24711  26.638  34.035  12.530
54897W        W24712  26.049  20.267  12.082
54898W        W24713  29.998   4.222  11.997
54899W        W24714  34.017  28.145   4.280
54900W        W24715  26.567   1.477   1.404
54901W        W24716  10.846  38.428   3.780
54902W        W24717  29.593  26.039   1.695
54903W        W24718  15.646   2.263   0.245
54904W        W24719  38.514  19.185   4.597
54905W        W24720  16.654  26.044   2.665
54906W        W24721  33.917  15.692  13.515
54907W        W24722  16.159  41.396   3.782
54908W        W24723  23.041   0.913  12.340
54909W        W24724  37.506  19.272  13.844
54910W        W24725   7.738  33.989  14.859
54911W        W24726  41.331  40.473  11.383
54912W        W24727  42.782  12.245   1.293
54913W        W24728  37.368  34.444  10.024
54914W        W24729  32.448  40.838  13.519
54915W        W24730   5.413   6.310  11.877
54916W        W24731  29.607   0.410   2.663
54917W        W24732  33.106  26.102  13.442
54918W        W24733  15.619  33.543   0.793
54919W        W24734  35.079  24.027  14.499
54920W        W24735  23.214  11.134   4.120
54921W        W24736  36.449  13.644  10.416
54922W        W24737   4.285  41.878  13.047
54923W        W24738  11.640  39.809   5.304
54924W        W24739  15.317  22.173  12.957
54925W        W24740  23.681  23.036   0.344
54926W        W24741   1.878   2.463   4.629
54927W        W24742  15.772  23.163   4.198
54928W        W24743  42.446  14.307   1.297
54929W        W24744  15.735  13.831  14.875
54930W        W24745  21.572  13.842  13.528
54931W        W24746  39.534  35.542  14.941
54932W        W24747   3.893  13.759  12.008
54933W        W24748  10.236  14.645   2.897
54934W        W24749   5.333  19.597  11.490
54935W        W24750  33.950  30.648  10.987
54936W        W24751  23.078  41.384   3.306
54937W        W24752  35.366  11.783   4.274
54938W        W24753  24.168  20.131   3.352
54939W        W24754  39.999  12.829   1.812
54940W        W24755   8.195  27.581  14.915
54941W        W24756  15.174  20.248   3.260
54942W        W24757  11.147  28.987   2.677
54943W        W24758  19.610  37.943  10.620
54944W        W24759  30.061  22.108  11.534
54945W        W24760  42.982  27.454  14.830
54946W        W24761  40.009  12.787   4.217
54947W        W24762   0.906  17.106   0.319
54948W        W24763   6.820  40.506  12.887
54949W        W24764   3.836  24.974   0.836
54950W        W24765   3.818   3.392  10.591
54951W        W24766  15.264  22.568  13.903
54952W        W24767  31.567   8.204   1.444
54953W        W24768  22.599  42.859   4.698
54954W        W24769  40.869  18.556  13.905
54955W        W24770  14.602  35.060   4.315
54956W        W24771  31.454  33.928  10.634
54957W        W24772  36.845   7.196   4.761
54958W        W24773  39.012   1.415   0.437
54959W        W24774  27.687  31.634  14.769
54960W        W24775  42.850  44.971   0.327
54961W        W24776  16.310  20.619  10.565
54962W        W24777  16.772   5.224   0.469
54963W        W24778  30.105   4.308   4.703
54964W        W24779  11.684   3.238   4.757
54965W        W24780  21.712  22.123   2.295
54966W        W24781  17.302  44.403   3.778
54967W        W24782  11.373   2.386  11.085
54968W        W24783  39.319  40.893   0.794
54969W        W24784   4.284  38.543  11.027
54970W        W24785  19.040  25.163   3.359
54971W        W24786  33.579  14.200   4.747
54972W        W24787   6.290   4.819   3.161
54973W        W24788  18.150  16.123   3.363
54974W        W24789  18.075   8.685  14.835
54975W        W24790  14.181  30.650   4.766
54976W        W24791  42.316  20.701   4.682
54977W        W24792  25.706   8.339  13.321
54978W        W24793  28.572  16.261  13.341
54979W        W24794  14.219  37.354   1.439
54980W        W24795  44.503   9.258  10.939
54981W        W24796   9.784  18.256   1.216
54982W        W24797   3.845  17.219  10.954
54983W        W24798  40.955  33.993  14.426
54984W        W24799  23.598  27.624   2.847
54985W        W24800  24.987  11.170  14.844
54986W        W24801   8.202   6.310  12.041
54987W        W24802  16.186  22.701   4.263
54988W        W24803   0.485  41.847  14.278
54989W        W24804  11.737  36.384   2.761
54990W        W24805  14.743  41.908  12.480
54991W        W24806  15.792  17.597   1.222
54992W        W24807  35.993   4.324  13.517
54993W        W24808  12.183  12.358   0.395
54994W        W24809  11.695   1.809   1.891
54995W        W24810  40.009  15.756  10.927
54996W        W24811  43.403  21.182  14.347
54997W        W24812  22.507  37.972   4.629
54998W        W24813   4.437  26.197   1.839
54999W        W24814  17.130  35.377   3.826
55000W        W24815   7.331  29.502  10.928
55001W        W24816  22.026   5.788  13.950
55002W        W24817  41.440   7.868   0.397
55003W        W24818  21.029  13.218   2.320
55004W        W24819   6.410  22.168   1.747
55005W        W24820  12.220  25.670  12.988
55006W        W24821  24.559   1.778  10.888
55007W        W24822  40.928  37.986  12.847
55008W        W24823   8.171  10.783  12.502
55009W        W24824  28.185   5.887   2.296
55010W        W24825   8.713  41.879   9.932
55011W        W24826   3.914  30.465  14.957
55012W        W24827  40.321  40.945   3.765
55013W        W24828  25.605  32.532  13.033
55014W        W24829  34.573  32.103   9.576
55015W        W24830  34.923  30.619  10.134
55016W        W24831  19.090  37.944  11.547
55017W        W24832  29.661  31.913   0.266
55018W        W24833  20.180  12.826  13.811
55019W        W24834  22.596  23.490   4.600
55020W        W24835  24.991   2.915   1.414
55021W        W24836  34.540   1.459   3.302
55022W        W24837  37.482  31.098   4.725
55023W        W24838  25.606  16.274   2.202
55024W        W24839  39.024   3.357   0.413
55025W        W24840  28.930  11.690   4.625
55026W        W24841  12.291  13.322   2.203
55027W        W24842  20.758   8.348  10.903
55028W        W24843   7.811  26.497  10.039
55029W        W24844  32.036  21.071  14.959
55030W        W24845  18.580   7.174  11.441
55031W        W24846   5.716  16.685  12.913
55032W        W24847  26.516  30.632   2.799
55033W        W24848  34.390  25.501  14.495
55034W        W24849  24.004  31.479   3.736
55035W        W24850  14.096  22.502   2.325
55036W        W24851  32.932  27.994   0.271
55037W        W24852  26.130   8.371   3.367
55038W        W24853  43.842  44.891   4.195
55039W        W24854  31.934  11.261   3.171
55040W        W24855   6.781  39.022  12.875
55041W        W24856  40.539  25.690  11.919
55042W        W24857  42.357  44.445   0.899
55043W        W24858   8.735  13.610   1.438
55044W        W24859   1.468  27.573  10.611
55045W        W24860   7.257  28.030  11.855
55046W        W24861   6.383  14.603  12.501
55047W        W24862  22.088  40.035   2.897
55048W        W24863  42.913   8.696   1.732
55049W        W24864  29.004   6.417   1.793
55050W        W24865  39.330  38.552  12.423
55051W        W24866  23.582  22.012  14.324
55052W        W24867  29.633  20.265  14.310
55053W        W24868  18.053   2.880   4.340
55054W        W24869  23.993   9.805  11.080
55055W        W24870  44.984   3.715  12.848
55056W        W24871  43.297  37.861   4.158
55057W        W24872  24.124  10.183  14.482
55058W        W24873  38.986   3.299   0.938
55059W        W24874  32.070  27.529   4.197
55060W        W24875  32.492  13.284  12.395
55061W        W24876   7.222  44.478  10.512
55062W        W24877   0.368   3.414  11.047
55063W        W24878  17.796  33.516   3.308
55064W        W24879  43.387  16.168   2.722
55065W        W24880  35.947  28.128   3.279
55066W        W24881  25.687  16.698   1.853
55067W        W24882  31.647  24.583   4.222
55068W        W24883  44.905  42.930   4.194
55069W        W24884  14.118  20.118   1.398
55070W        W24885  41.346  33.594   3.160
55071W        W24886  15.091  18.659  12.916
55072W        W24887  21.642  18.134   4.602
55073W        W24888   0.397  31.578  14.474
55074W        W24889  36.569  16.267   3.377
55075W        W24890  16.602  18.124  12.889
55076W        W24891  36.014   5.312  12.080
55077W        W24892  40.441  44.396  12.469
55078W        W24893  18.783  29.169  13.993
55079W        W24894   3.875  19.203  10.420
55080W        W24895  23.071  29.596   3.780
55081W        W24896  16.182  40.406  11.091
55082W        W24897  22.158  18.054   4.705
55083W        W24898  21.104  42.809   3.795
55084W        W24899  37.571  21.247   0.947
55085W        W24900  19.737  23.153  13.387
55086W        W24901   5.789  14.716   1.862
55087W        W24902  38.411  31.900   3.785
55088W        W24903   5.870   1.277  10.498
55089W        W24904  17.133  10.337   0.330
55090W        W24905   6.253  22.526  10.539
55091W        W24906   2.245   9.756   4.681
55092W        W24907  36.071  40.452   3.685
55093W        W24908   7.765  22.602  11.459
55094W        W24909  28.675  44.763   3.350
55095W        W24910  34.029  21.648  14.398
55096W        W24911  33.503   7.398  11.460
55097W        W24912  19.109  30.966   2.308
55098W        W24913  32.595   3.422  11.114
55099W        W24914  12.765   2.384  10.970
55100W        W24915  22.038  17.126  11.049
55101W        W24916  44.916   1.967   1.835
55102W        W24917  35.583   6.722   0.450
55103W        W24918  32.078  41.832  13.886
55104W        W24919  37.574  20.206   1.348
55105W        W24920   6.731   5.339  10.490
55106W        W24921  14.683  20.538  12.552
55107W        W24922  31.941  43.278  11.585
55108W        W24923  16.189   8.768  14.772
55109W        W24924  27.124  41.298   9.938
55110W        W24925   4.445   3.892  13.891
55111W        W24926  43.454  38.876  10.584
55112W        W24927  43.882   9.356  13.963
55113W        W24928   5.769  15.324   1.396
55114W        W24929  44.779  18.590  10.947
55115W        W24930  35.028   7.862   4.691
55116W        W24931  12.738  26.099  12.060
55117W        W24932   9.234  35.949   3.869
55118W        W24933   9.754  24.684  13.029
55119W        W24934   2.471  36.953   1.334
55120W        W24935  16.600  44.960   4.640
55121W        W24936  27.110  41.519   4.118
55122W        W24937  36.412  13.638   0.899
55123W        W24938  25.114   1.968  12.443
55124W        W24939   9.258  31.990   2.737
55125W        W24940   9.341   8.882   4.695
55126W        W24941  37.526  24.015   3.275
55127W        W24942  36.993  21.250   2.319
55128W        W24943   7.834  41.025  11.892
55129W        W24944   0.270  37.919  13.538
55130W        W24945  12.625  41.027   3.257
55131W        W24946  15.654  44.781   0.415
55132W        W24947   2.851   5.865  10.515
55133W        W24948  31.626  28.514  12.941
55134W        W24949   6.912  31.586   4.344
55135W        W24950  25.110  37.510   3.311
55136W        W24951  16.658  33.524   3.713
55137W        W24952   3.414   5.702  11.499
55138W        W24953  26.534   2.811  13.818
55139W        W24954  21.740  24.017   1.214
55140W        W24955  41.463  21.021   0.928
55141W        W24956  13.317  18.576  14.986
55142W        W24957   9.272  37.054  11.583
55143W        W24958  28.661  16.158   3.359
55144W        W24959  38.985   5.882   0.912
55145W        W24960  27.048  32.956   2.753
55146W        W24961   9.709  28.002  13.314
55147W        W24962   3.421  40.538   4.733
55148W        W24963  36.937   0.360  12.377
55149W        W24964  36.513   4.836   2.822
55150W        W24965   3.954   1.782   3.146
55151W        W24966  43.841   6.824   2.419
55152W        W24967  15.214  40.996   2.867
55153W        W24968   0.402   6.387   3.326
55154W        W24969  15.607  18.750  10.586
55155W        W24970  26.650  25.141  12.855
55156W        W24971  44.375  14.172  13.993
55157W        W24972  18.578  15.621  14.410
55158W        W24973  22.502  13.671   4.820
55159W        W24974  23.510   5.301   1.445
55160W        W24975  30.538  23.581  11.464
55161W        W24976  21.175  27.038   3.836
55162W        W24977  37.950  23.571  10.429
55163W        W24978   7.406  25.689  12.418
55164W        W24979  40.969  17.245   2.393
55165W        W24980  14.689  19.578  13.970
55166W        W24981  26.531  34.990  10.590
55167W        W24982  27.138   5.307   4.736
55168W        W24983  41.336  26.652   0.246
55169W        W24984  23.224  13.307   2.188
55170W        W24985   5.778   7.399  14.324
55171W        W24986  20.062  39.502  13.997
55172W        W24987  38.989  42.357   0.351
55173W        W24988  14.795  38.882   2.849
55174W        W24989   6.824  29.622  14.937
55175W        W24990   7.335  13.235   1.445
55176W        W24991  29.109  44.993   1.324
55177W        W24992  37.006  15.656  14.791
55178W        W24993  20.709   7.712  13.404
55179W        W24994   7.889  17.064  11.549
55180W        W24995  29.160  23.598  12.382
55181W        W24996  40.839   2.872   1.218
55182W        W24997  27.041  37.562  12.340
55183W        W24998  37.009   0.760  14.379
55184W        W24999  17.216  39.428  14.943
55185W        W25000  26.525   3.759   0.930
55186W        W25001  39.514  10.825   2.901
55187W        W25002  23.121   5.896  12.886
55188W        W25003  41.936  15.725   9.966
55189W        W25004  15.243  42.386   4.830
55190W        W25005  31.445  44.403  13.506
55191W        W25006  37.543   3.885  13.419
55192W        W25007  14.768  29.957   1.921
55193W        W25008  12.293  39.825  11.384
55194W        W25009  21.630   3.382  13.344
55195W        W25010  19.247  36.881   3.779
55196W        W25011  19.221  37.477   1.868
55197W        W25012  28.104  32.950  14.453
55198W        W25013   7.401  36.951   1.765
55199W        W25014   5.289  18.148   3.267
55200W        W25015  21.162  24.090  10.955
55201W        W25016  38.384  42.304  11.954
55202W        W25017  22.147   5.327   0.249
55203W        W25018  11.364  37.552   4.116
55204W        W25019  40.367  22.637   2.258
55205W        W25020  31.409  28.657  12.409
55206W        W25021   2.401  10.278  10.585
55207W        W25022  29.135  12.668  14.890
55208W        W25023  40.881   9.868  10.542
55209W        W25024  44.498  31.402  10.415
55210W        W25025  28.174  41.889  10.434
55211W        W25026  41.476  33.016   3.155
55212W        W25027  10.199  36.044   4.275
55213W        W25028  30.989  25.617   4.290
55214W        W25029  21.094  42.958  13.803
55215W        W25030  29.588   3.770   2.207
55216W        W25031   7.315   8.777  12.351
55217W        W25032   9.721   4.302   2.234
55218W        W25033  29.510  22.603   1.233
55219W        W25034  19.668  17.253  14.384
55220W        W25035  24.020  38.568  12.081
55221W        W25036  21.249  15.295   4.148
55222W        W25037  23.057  32.418  14.925
55223W        W25038  36.559  19.194  14.282
55224W        W25039  11.848   2.319  13.409
55225W        W25040  35.483  19.570  13.044
55226W        W25041  18.132   7.379  14.881
55227W        W25042  24.608  29.532   3.292
55228W        W25043  41.345  40.825   4.267
55229W        W25044  33.104   9.672   2.782
55230W        W25045  12.266   6.282  11.452
55231W        W25046   7.382   0.394  11.944
55232W        W25047   7.293  21.671   2.375
55233W        W25048   2.284   5.909   2.378
55234W        W25049  26.653  44.891  10.922
55235W        W25050  43.827  14.816   1.839
55236W        W25051  39.890  10.141  13.027
55237W        W25052  26.125   8.347  12.341
55238W        W25053  18.703  14.176   4.606
55239W        W25054  21.150   8.881   0.782
55240W        W25055  16.107  19.605  14.419
55241W        W25056  38.569  18.697   2.833
55242W        W25057  31.946  23.233   1.767
55243W        W25058  15.733  37.013   4.279
55244W        W25059  21.742  36.406   4.302
55245W        W25060   8.876   0.374   1.425
55246W        W25061   1.789   6.394   4.657
55247W        W25062   6.814  31.085   2.699
55248W        W25063  21.531   4.267   3.856
55249W        W25064   7.227   9.208   4.280
55250W        W25065  37.354  19.645   4.609
55251W        W25066  13.770  35.580   2.241
55252W        W25067   5.371  39.342  13.341
55253W        W25068  39.833  18.173  14.838
55254W        W25069  10.825  27.636   0.269
55255W        W25070   4.940   8.288   1.409
55256W        W25071   2.812  28.037   4.336
55257W        W25072  16.775  11.150  14.473
55258W        W25073  24.135  12.129  13.486
55259W        W25074  16.743  34.524  13.356
55260W        W25075  34.069  12.292  12.386
55261W        W25076  15.697  25.058  13.855
55262W        W25077   1.800  42.829  12.528
55263W        W25078  10.769  35.879   4.119
55264W        W25079  21.243   0.406  14.364
55265W        W25080   0.834  41.857  11.961
55266W        W25081   9.286  37.482   1.319
55267W        W25082  17.235  27.944   0.363
55268W        W25083  33.589  17.697   0.960
55269W        W25084   6.793  16.779   3.310
55270W        W25085  42.329  30.999   4.215
55271W        W25086  10.346  28.490  10.067
55272W        W25087  15.746  43.910  10.986
55273W        W25088  31.600  17.707   4.185
55274W        W25089  32.950  38.494  13.337
55275W        W25090   0.981  14.188  10.511
55276W        W25091  14.662  32.003  10.444
55277W        W25092  10.800  11.648   1.364
55278W        W25093  35.084  15.106   2.778
55279W        W25094  19.066  40.424  14.332
55280W        W25095  11.713  23.084   1.339
55281W        W25096  11.845  24.105  14.324
55282W        W25097  10.823  41.372   0.765
55283W        W25098  37.556  17.743   3.687
55284W        W25099  28.619  36.946  12.999
55285W        W25100   9.150  28.680  12.532
55286W        W25101  27.959  36.928   4.835
55287W        W25102  14.687  30.000  12.019
55288W        W25103  20.665   2.378   0.895
55289W        W25104  24.512  22.196   2.257
55290W        W25105  13.106   8.759  10.123
55291W        W25106  25.510  22.559   1.876
55292W        W25107  39.984  42.391   2.902
55293W        W25108  29.463  12.689   0.783
55294W        W25109  10.738   8.244   1.804
55295W        W25110  40.916   0.398   9.955
55296W        W25111  40.914  28.605   2.713
55297W        W25112  23.511  16.602  10.088
55298W        W25113  19.055  34.538   2.194
55299W        W25114  37.016  28.564   1.286
55300W        W25115   9.215  40.949  14.961
55301W        W25116   9.337  35.497   0.966
55302W        W25117  43.515  14.751  11.953
55303W        W25118  30.656  39.028  12.344
55304W        W25119  43.841  26.617  12.507
55305W        W25120   6.295  30.938  10.981
55306W        W25121  21.705  13.700  12.896
55307W        W25122  15.111   6.311  12.020
55308W        W25123   5.239  43.303  11.037
55309W        W25124  40.915  44.439   1.374
55310W        W25125  32.596  36.587  12.557
55311W        W25126  35.419  30.445   2.715
55312W        W25127   7.761  14.611  13.366
55313W        W25128  32.436  21.141   3.181
55314W        W25129  15.737  28.978  10.904
55315W        W25130  43.961  42.403  13.517
55316W        W25131  21.217  40.856  11.436
55317W        W25132  32.404  11.312  10.526
55318W        W25133  22.581  30.610  13.884
55319W        W25134  10.823   7.323   2.366
55320W        W25135   5.706  30.092   1.288
55321W        W25136   7.180  23.101  12.875
55322W        W25137  17.183  35.439   3.242
55323W        W25138  15.597  40.006   0.943
55324W        W25139  18.652  11.196  10.923
55325W        W25140   6.745  42.002  14.877
55326W        W25141   2.816  41.948  10.455
55327W        W25142  40.361  10.846  13.040
55328W        W25143  39.396   8.719  10.947
55329W        W25144  30.138   7.316  12.485
55330W        W25145  12.303  42.948   0.471
55331W        W25146  14.283  25.693   0.863
55332W        W25147   4.283  21.141   2.898
55333W        W25148  44.273  11.854   0.280
55334W        W25149  40.534   0.448   3.737
55335W        W25150  30.144  27.567   1.286
55336W        W25151   0.773  31.956  10.465
55337W        W25152   7.824  27.947  13.810
55338W        W25153  10.678   8.802   4.676
55339W        W25154  31.489  13.606   2.407
55340W        W25155  33.948  36.049   2.697
55341W        W25156  12.336  11.793  14.478
55342W        W25157   5.869  20.096  11.872
55343W        W25158   7.776  44.876  12.429
55344W        W25159  18.753  15.684   1.756
55345W        W25160  13.724  20.642  10.548
55346W        W25161  34.919  26.514   0.806
55347W        W25162   8.315   8.213   1.804
55348W        W25163   1.770   8.896  11.054
55349W        W25164  40.375  18.177   2.889
55350W        W25165  30.523  28.058   1.220
55351W        W25166   2.317  12.140  13.900
55352W        W25167   6.701   8.891  12.923
55353W        W25168  11.753  39.467  14.831
55354W        W25169  34.480   4.919  11.114
55355W        W25170  44.391   9.767   3.790
55356W        W25171  20.134  38.530  13.466
55357W        W25172  33.420  29.471   2.182
55358W        W25173   0.285  24.222   1.446
55359W        W25174  31.950   8.863  12.381
55360W        W25175   5.361   2.816   4.659
55361W        W25176  30.507   2.808  14.906
55362W        W25177   7.826  15.823   1.697
55363W        W25178  36.959  44.329  12.939
55364W        W25179  30.437   6.406   3.854
55365W        W25180  21.073  13.242  11.057
55366W        W25181  19.723  39.814  12.569
55367W        W25182  16.611  33.085  13.856
55368W        W25183   6.782   9.720  14.300
55369W        W25184  31.570  15.193   4.317
55370W        W25185  42.321  40.917  10.443
55371W        W25186   4.823  24.496   0.439
55372W        W25187  24.581   8.383  10.582
55373W        W25188  26.463   5.819  13.437
55374W        W25189   6.274  30.062   4.731
55375W        W25190   4.795  41.433  10.535
55376W        W25191  37.347   7.718   2.388
55377W        W25192  17.638   4.734   4.257
55378W        W25193   3.349   2.748   0.303
55379W        W25194  23.587  20.274  12.068
55380W        W25195  29.553   0.268  11.916
55381W        W25196  18.587  34.533   3.159
55382W        W25197  33.875  30.638  12.030
55383W        W25198  11.858   1.322  10.481
55384W        W25199  17.082   3.367   4.282
55385W        W25200  11.343  22.119  12.046
55386W        W25201  43.945  13.217  13.430
55387W        W25202  10.225  35.012   3.188
55388W        W25203  23.147  18.247  14.958
55389W        W25204  35.529  27.665   3.382
55390W        W25205  32.549  33.952  11.385
55391W        W25206   2.261  29.035  12.952
55392W        W25207  27.572  19.656   1.410
55393W        W25208   7.183  38.875   4.806
55394W        W25209  32.578  13.608  10.921
55395W        W25210  43.826  20.067  13.980
55396W        W25211  32.018  37.506  10.518
55397W        W25212   4.366  27.946  13.539
55398W        W25213  16.307  12.239  13.320
55399W        W25214  28.142  35.941  14.876
55400W        W25215  26.576  33.520  14.509
55401W        W25216  42.808  30.612   1.802
55402W        W25217  32.512  28.641  14.433
55403W        W25218  31.562   3.792  13.475
55404W        W25219  34.544  10.733   1.330
55405W        W25220  33.454   0.313   4.658
55406W        W25221  12.819  17.261   2.786
55407W        W25222  21.720  28.652  12.400
55408W        W25223  37.341  44.328   2.262
55409W        W25224  29.587  34.049  14.848
55410W        W25225  44.001  19.247  14.903
55411W        W25226  21.216  28.168  11.868
55412W        W25227   5.397  11.293   2.804
55413W        W25228  30.916   4.271   3.219
55414W        W25229  26.655  31.463   1.728
55415W        W25230  26.613  44.447  10.540
55416W        W25231  41.970  35.441   0.779
55417W        W25232  16.077  32.409   2.183
55418W        W25233  38.874  35.398  11.511
55419W        W25234  11.357  21.125   1.319
55420W        W25235   7.178  40.017   1.791
55421W        W25236  21.641  15.240   0.420
55422W        W25237  22.106   9.868   2.361
55423W        W25238  35.870   5.889  11.906
55424W        W25239  39.389  14.672  11.004
55425W        W25240   0.389   0.981   3.381
55426W        W25241  20.153  14.627   0.475
55427W        W25242   9.777  25.201  14.429
55428W        W25243  35.395  36.961  10.537
55429W        W25244  14.660  16.734   4.154
55430W        W25245  25.610  21.671  13.313
55431W        W25246  11.150  18.207  10.940
55432W        W25247  30.539  29.653   0.876
55433W        W25248  26.048   4.880  13.039
55434W        W25249  30.467  15.249  11.967
55435W        W25250   6.303   8.874   4.641
55436W        W25251  17.097   4.881   5.105
55437W        W25252  42.830   2.895   4.338
55438W        W25253  27.452  32.439   4.653
55439W        W25254   8.306  34.890   4.336
55440W        W25255  43.515  30.575  13.038
55441W        W25256  11.170  20.635  11.401
55442W        W25257   0.920  10.313   5.157
55443W        W25258  44.807  14.123   0.410
55444W        W25259  32.509  34.577  14.786
55445W        W25260   3.931  44.343  13.061
55446W        W25261  37.918   6.760  13.971
55447W        W25262  34.463  34.004  14.898
55448W        W25263  14.298  21.064  12.574
55449W        W25264  12.847  20.626   3.251
55450W        W25265  13.774  38.040  10.412
55451W        W25266   2.768   3.256  13.837
55452W        W25267  42.915  32.446   4.173
55453W        W25268  11.829  11.738  11.985
55454W        W25269   0.489  26.077   3.256
55455W        W25270  39.355  28.595  11.943
55456W        W25271  29.171  26.036   3.352
55457W        W25272  42.486   4.924   2.339
55458W        W25273  36.498   4.710  14.365
55459W        W25274  31.466  23.690   2.385
55460W        W25275  15.781  33.942   3.817
55461W        W25276  36.419  37.024  11.037
55462W        W25277   7.860  44.448  12.938
55463W        W25278  15.711  29.540   0.338
55464W        W25279   7.787  25.149   0.366
55465W        W25280  30.145   6.357  13.962
55466W        W25281  39.947   9.764  10.972
55467W        W25282  27.053  35.062   2.249
55468W        W25283  28.014   3.839   1.779
55469W        W25284  37.581  40.469   1.835
55470W        W25285  22.066  26.177   0.446
55471W        W25286   2.954   2.441   4.114
55472W        W25287  23.188  27.525   1.339
55473W        W25288  42.337  26.031  13.918
55474W        W25289  35.408  15.589  14.967
55475W        W25290  41.462  20.216  10.591
55476W        W25291   4.448  16.126  10.992
55477W        W25292  14.803  34.007  14.462
55478W        W25293  20.687  34.471  14.850
55479W        W25294  43.799  26.083  11.894
55480W        W25295  14.110   3.946  11.476
55481W        W25296   7.733  27.100  12.467
55482W        W25297  41.836  25.031  14.766
55483W        W25298  31.501  15.777   2.836
55484W        W25299  23.611  44.356   3.379
55485W        W25300   9.292   4.291   3.856
55486W        W25301   6.333  18.057   1.878
55487W        W25302  27.633  32.596  12.504
55488W        W25303   3.906  25.479  12.519
55489W        W25304   9.880  42.796  10.412
55490W        W25305   1.951   8.790   1.335
55491W        W25306  12.241  44.854   3.301
55492W        W25307   1.311  14.131   4.822
55493W        W25308  34.090  12.206  12.861
55494W        W25309   6.736  30.450  11.404
55495W        W25310  25.084  41.851  10.948
55496W        W25311  11.725  28.538   1.934
55497W        W25312  23.674  12.291   0.262
55498W        W25313   7.753   2.234  14.900
55499W        W25314  39.891  10.701  13.974
55500W        W25315   1.733   4.349   2.359
55501W        W25316  24.068  44.847   1.390
55502W        W25317   9.361  27.977  13.935
55503W        W25318  12.189  43.835   3.341
55504W        W25319  30.555  14.784  13.540
55505W        W25320  18.068  25.119  12.072
55506W        W25321   1.903  19.646   4.151
55507W        W25322  23.646  37.004  12.910
55508W        W25323  36.845  42.500   2.708
55509W        W25324  10.273   3.949   5.305
55510W        W25325  11.826  18.063   1.345
55511W        W25326  28.664  10.663  12.069
55512W        W25327  19.743  27.657   3.728
55513W        W25328  35.447  41.976  12.961
55514W        W25329   8.810  12.303   2.664
55515W        W25330   6.721  19.772   1.833
55516W        W25331   1.378   9.271  12.842
55517W        W25332  41.438   9.388   4.625
55518W        W25333   8.724  44.816  11.907
55519W        W25334  21.727  31.453  13.498
55520W        W25335  34.035  38.411  13.520
55521W        W25336  19.614   3.819   2.205
55522W        W25337  40.856  35.858  11.372
55523W        W25338  28.958  24.593   4.169
55524W        W25339  24.540   1.473   1.814
55525W        W25340  42.959  10.670  13.893
55526W        W25341  27.637  34.388   0.257
55527W        W25342  10.296  39.038   4.811
55528W        W25343  26.468  10.781  10.494
55529W        W25344  40.399  19.120  13.061
55530W        W25345  35.856  34.515   0.383
55531W        W25346  34.877  16.123   0.773
55532W        W25347  20.251  34.517  14.884
55533W        W25348  32.047  36.950  14.772
55534W        W25349  23.578  11.772   3.773
55535W        W25350  41.537  34.940   3.252
55536W        W25351  40.938   6.801   2.899
55537W        W25352  18.778  14.645   1.285
55538W        W25353  38.964   2.801  12.074
55539W        W25354  25.673  37.073  14.489
55540W        W25355  17.667   6.684   0.784
55541W        W25356   1.258   6.809  10.540
55542W        W25357  24.612  19.281   4.751
55543W        W25358  44.968   0.929   2.838
55544W        W25359  15.621  41.486   0.299
55545W        W25360  16.279  10.228  12.010
55546W        W25361   3.721  43.475   1.931
55547W        W25362  30.953  14.177   0.944
55548W        W25363  22.742  37.049  12.423
55549W        W25364   1.260  11.359  14.991
55550W        W25365  18.247  41.530   3.178
55551W        W25366  33.982  13.314   2.699
55552W        W25367  13.212  20.545   2.815
55553W        W25368  36.580   9.296   1.785
55554W        W25369   8.809  31.022  14.351
55555W        W25370   1.864   3.400   4.315
55556W        W25371  23.718  14.608  14.471
55557W        W25372  15.595   9.152   4.209
55558W        W25373  35.507  21.144   1.449
55559W        W25374  35.915  19.581   0.932
55560W        W25375   4.334  35.905   1.316
55561W        W25376   9.301  19.621   0.477
55562W        W25377  44.894  22.536  11.384
55563W        W25378  22.609  39.357  11.862
55564W        W25379  24.723   4.429   0.421
55565W        W25380  14.139  40.516   4.796
55566W        W25381  20.259   1.247  13.879
55567W        W25382   5.825  12.835   1.812
55568W        W25383  30.129   5.824   3.186
55569W        W25384  23.080  35.859   1.373
55570W        W25385  14.722  22.661  10.099
55571W        W25386   2.381  12.663   1.225
55572W        W25387  32.127  43.380  13.949
55573W        W25388  25.696  42.397   3.818
55574W        W25389  12.322  40.474   2.245
55575W        W25390  11.812  25.068  14.466
55576W        W25391  28.671   8.737   0.379
55577W        W25392  44.929  40.537  11.099
55578W        W25393  39.919  28.641  13.809
55579W        W25394   6.401   7.796  14.772
55580W        W25395  33.110  42.792  12.937
55581W        W25396  22.710  35.530   1.418
55582W        W25397  10.181  12.344  10.913
55583W        W25398   9.688  38.392   1.417
55584W        W25399  10.246  36.513  12.570
55585W        W25400  40.807   0.458   3.211
55586W        W25401  13.132  33.963  11.413
55587W        W25402  20.677   5.852  13.822
55588W        W25403  27.122  27.532  11.105
55589W        W25404  38.842  24.626  13.875
55590W        W25405  30.995  39.065   4.625
55591W        W25406   0.875  44.984   4.734
55592W        W25407   3.876  32.549   4.342
55593W        W25408   3.929   6.329   4.180
55594W        W25409  12.229  22.205  11.958
55595W        W25410  32.588  22.212  12.824
55596W        W25411  30.106   2.467  11.466
55597W        W25412  18.073  11.230   1.914
55598W        W25413  38.532   1.769  11.912
55599W        W25414  28.477  20.077  14.479
55600W        W25415  40.481  40.905   1.852
55601W        W25416   0.846   7.208   4.118
55602W        W25417  20.646   8.886  13.536
55603W        W25418  29.986  33.008  12.354
55604W        W25419  14.725   2.869  12.040
55605W        W25420  40.891   5.829   3.863
55606W        W25421  30.445  33.882  14.904
55607W        W25422  43.885  13.710   4.231
55608W        W25423  37.894  18.064   2.803
55609W        W25424  41.887  29.559  11.519
55610W        W25425  30.978  43.480   0.763
55611W        W25426  23.633  44.796   1.863
55612W        W25427  26.104   1.774   0.394
55613W        W25428   8.353  24.215   1.429
55614W        W25429  43.819   0.887  14.764
55615W        W25430  18.232  40.532  12.577
55616W        W25431  30.035  22.230  12.836
55617W        W25432  38.030  28.584  10.525
55618W        W25433  26.127  39.920   9.967
55619W        W25434   0.791  44.849   2.738
55620W        W25435  15.633  34.897  10.480
55621W        W25436  27.661  14.674   2.344
55622W        W25437  15.151  17.109   1.706
55623W        W25438  17.153  17.126  13.984
55624W        W25439  35.575  17.654   1.399
55625W        W25440   3.894  31.490   3.361
55626W        W25441  13.803  44.809  12.900
55627W        W25442  38.526  10.774  14.991
55628W        W25443  25.188  14.681   1.218
55629W        W25444   5.881   6.303  11.052
55630W        W25445  21.129  44.274   0.405
55631W        W25446  39.025  15.180   3.378
55632W        W25447  19.053  31.514   0.288
55633W        W25448   9.384  13.126   2.733
55634W        W25449  22.015  12.283   0.460
55635W        W25450  16.212  28.665   3.660
55636W        W25451  25.523  43.924   4.330
55637W        W25452  24.056  13.803   3.826
55638W        W25453  39.834  30.485  11.893
55639W        W25454   5.439   2.871   2.334
55640W        W25455  43.434   6.829  12.885
55641W        W25456  30.125   2.812   3.865
55642W        W25457   5.864   0.491   2.789
55643W        W25458   8.376   8.395  14.320
55644W        W25459  26.488  43.826  14.861
55645W        W25460   8.339  18.077  14.780
55646W        W25461   2.859  10.659   3.758
55647W        W25462   0.352  10.228  14.386
55648W        W25463  34.963  24.599  13.006
55649W        W25464  39.520  13.124   1.265
55650W        W25465   8.391  17.115   1.300
55651W        W25466  28.436  34.070   4.232
55652W        W25467  14.108  43.918  11.417
55653W        W25468  10.657   3.856   4.630
55654W        W25469  42.482  29.524  10.618
55655W        W25470  20.758  38.326   0.927
55656W        W25471  17.294   7.753   0.348
55657W        W25472  11.828  15.302  10.942
55658W        W25473   8.168   2.240  10.577
55659W        W25474  38.376  29.437  12.065
55660W        W25475  15.775  10.307   2.750
55661W        W25476  36.028  44.984  14.865
55662W        W25477  27.181   2.738   3.275
55663W        W25478  27.102  22.678   3.682
55664W        W25479  31.597  10.775   1.921
55665W        W25480  26.105  15.269  13.791
55666W        W25481  37.562  21.154   1.378
55667W        W25482  29.948  32.535   3.221
55668W        W25483   8.828  27.197   4.767
55669W        W25484  28.675  33.946  13.433
55670W        W25485  22.024   2.967   1.910
55671W        W25486  39.038  32.459   5.196
55672W        W25487  22.241  18.125  12.942
55673W        W25488  43.835  33.056   4.633
55674W        W25489   6.759  40.852  12.878
55675W        W25490  20.223  33.472   2.727
55676W        W25491  13.202  32.122  13.001
55677W        W25492  35.005  36.991   0.351
55678W        W25493  26.543   1.347  12.422
55679W        W25494  16.759  32.966  10.473
55680W        W25495  21.529  10.273  11.529
55681W        W25496  28.002   2.229   0.829
55682W        W25497  26.114   9.775  10.154
55683W        W25498  20.221  31.617  13.822
55684W        W25499  13.684  27.622   2.856
55685W        W25500  21.678   3.338   1.818
55686W        W25501  12.836  10.138  10.444
55687W        W25502   2.857  21.161  14.821
55688W        W25503  32.126  26.130  14.447
55689W        W25504   6.272  33.456  12.384
55690W        W25505  33.616  43.774   4.129
55691W        W25506  13.660   3.376  13.802
55692W        W25507  31.097  12.771   3.330
55693W        W25508  12.174  19.736   3.235
55694W        W25509  32.091  20.029  13.399
55695W        W25510  29.094  33.606  11.576
55696W        W25511  26.628  42.925   1.342
55697W        W25512  39.998   0.883  11.436
55698W        W25513  12.235  15.788   1.272
55699W        W25514  11.280  41.307  13.443
55700W        W25515  17.623   2.831   0.744
55701W        W25516   9.336  12.775   1.265
55702W        W25517  22.724  30.597   0.449
55703W        W25518  30.964   8.816   3.344
55704W        W25519  20.527  41.035   0.263
55705W        W25520   9.246   6.279   4.353
55706W        W25521  44.852  36.572  14.779
55707W        W25522  33.906  20.237   3.750
55708W        W25523  13.271  18.639   2.729
55709W        W25524  44.493  10.163  14.781
55710W        W25525  36.095  36.865  14.872
55711W        W25526  34.068  32.005  14.320
55712W        W25527  18.267  35.453  12.950
55713W        W25528  44.007  40.315   1.744
55714W        W25529  11.782   4.733  13.341
55715W        W25530   2.964  23.664   3.365
55716W        W25531  32.513  21.100  11.449
55717W        W25532  26.615  29.460  10.593
55718W        W25533  44.859  40.341  11.486
55719W        W25534  24.223  27.546   3.862
55720W        W25535  44.836  31.558  12.902
55721W        W25536  25.522  33.613   2.781
55722W        W25537   8.312  28.467  11.058
55723W        W25538  34.397  22.528   4.794
55724W        W25539  22.219  16.663   2.346
55725W        W25540  13.692  39.382   0.878
55726W        W25541  40.888  13.687  13.804
55727W        W25542  30.497   9.356   0.769
55728W        W25543  40.809  13.622  13.371
55729W        W25544  38.916  22.047   4.728
55730W        W25545  33.074  24.574   2.328
55731W        W25546  41.374  26.058   3.204
55732W        W25547  39.373  25.195   1.749
55733W        W25548   2.445  43.344  13.979
55734W        W25549  31.036  43.356   1.318
55735W        W25550  17.122  44.462  10.535
55736W        W25551  37.386  18.738  12.068
55737W        W25552  14.099   2.800   1.724
55738W        W25553  32.051  18.142  10.064
55739W        W25554  17.239   6.341   3.782
55740W        W25555  19.645   1.963  13.339
55741W        W25556  17.671   3.756   2.763
55742W        W25557  34.994  24.674  11.410
55743W        W25558  19.237  23.040  12.544
55744W        W25559   3.783  16.652   4.163
55745W        W25560  21.218   5.921  14.388
55746W        W25561  37.869  12.763   1.402
55747W        W25562  35.369  42.976  14.449
55748W        W25563  11.343  43.398   3.699
55749W        W25564   3.409  35.892   3.237
55750W        W25565   9.745  13.125   2.835
55751W        W25566  43.781  18.566  12.829
55752W        W25567   2.391  11.275  12.351
55753W        W25568  29.992  37.855  14.313
55754W        W25569  21.188   1.837  13.983
55755W        W25570  11.790  28.050  14.479
55756W        W25571   3.906  38.412  10.983
55757W        W25572   3.291  10.711   1.740
55758W        W25573   4.899  30.552   3.167
55759W        W25574  27.486  22.090   4.832
55760W        W25575  39.462  42.455   1.385
55761W        W25576  32.424  38.882   3.354
55762W        W25577  41.398  31.898   4.230
55763W        W25578  23.208   5.244   0.310
55764W        W25579  31.034  20.527   0.339
55765W        W25580   9.663  13.309  14.962
55766W        W25581  10.183  40.518  11.553
55767W        W25582  16.812   9.696   3.699
55768W        W25583  12.768  41.443   1.832
55769W        W25584  42.373  35.079   0.450
55770W        W25585  13.772  30.525   0.966
55771W        W25586  41.350  11.153  10.514
55772W        W25587  40.322  31.576   3.214
55773W        W25588   3.922  41.293   2.309
55774W        W25589   5.749  20.120   0.447
55775W        W25590  43.454  29.133  11.595
55776W        W25591  25.591  27.082   2.379
55777W        W25592   0.453   4.717  12.921
55778W        W25593  30.109  17.637   1.858
55779W        W25594  20.548  43.880  11.497
55780W        W25595  23.160  24.580   4.319
55781W        W25596  19.261  21.230  12.873
55782W        W25597   1.331  28.089  12.527
55783W        W25598   0.871  37.439   2.690
55784W        W25599   4.943  32.992   3.800
55785W        W25600  20.154   1.284   2.228
55786W        W25601  35.071  32.633   2.885
55787W        W25602  23.622  39.532   9.555
55788W        W25603   7.716  31.489   1.379
55789W        W25604  42.008  22.656   2.380
55790W        W25605  37.376  21.026   3.171
55791W        W25606   8.162  18.250   2.702
55792W        W25607   7.253  28.141  13.435
55793W        W25608  32.994  15.684  13.332
55794W        W25609  41.292  22.670   3.702
55795W        W25610  25.059  37.481  12.489
55796W        W25611  19.568   1.471   2.195
55797W        W25612  37.422  39.509   0.370
55798W        W25613  37.473  25.215   3.801
55799W        W25614  34.526  15.277   0.805
55800W        W25615   2.788  27.668   1.268
55801W        W25616  23.115   1.763  13.497
55802W        W25617  30.918   9.231   2.188
55803W        W25618  17.291  25.977  11.584
55804W        W25619  11.719  12.270   1.728
55805W        W25620  19.102  30.626   0.293
55806W        W25621  19.247  25.564  12.383
55807W        W25622  16.807   2.818  11.969
55808W        W25623  12.843  17.291  13.388
55809W        W25624  39.951  26.143  14.469
55810W        W25625  30.931  21.225   3.197
55811W        W25626  35.107  28.181   1.329
55812W        W25627   2.311  30.537   0.250
55813W        W25628  17.226  39.922   1.280
55814W        W25629   9.182  27.101  11.030
55815W        W25630   3.392  35.404  11.015
55816W        W25631   1.918  25.598  12.000
55817W        W25632  28.157   5.770   1.796
55818W        W25633  18.676  12.738   3.285
55819W        W25634  26.190  27.679  12.493
55820W        W25635  40.321  22.043   3.772
55821W        W25636   7.277   0.909  12.045
55822W        W25637  32.464  28.437   4.667
55823W        W25638  24.114  34.013  12.497
55824W        W25639   6.355   0.917  10.054
55825W        W25640  16.808  17.075  11.553
55826W        W25641  14.736  28.055   0.397
55827W        W25642  25.176  32.433  12.857
55828W        W25643  40.839  30.046  12.527
55829W        W25644  36.074  38.063   3.374
55830W        W25645  38.332   6.205   0.278
55831W        W25646  38.046  36.448  11.989
55832W        W25647  11.724  37.906   0.752
55833W        W25648  18.237  13.638   0.788
55834W        W25649  25.683  11.308   2.828
55835W        W25650  34.421  43.342   0.269
55836W        W25651  41.833  11.834   0.787
55837W        W25652  18.705  31.076   2.258
55838W        W25653  11.694  36.974  12.030
55839W        W25654   6.398   2.348   1.223
55840W        W25655  19.129  34.462   0.900
55841W        W25656  36.974  31.493   3.642
55842W        W25657   7.358  15.321  12.873
55843W        W25658  29.668  44.498  10.431
55844W        W25659  33.567  36.953   2.835
55845W        W25660  20.251  13.335  14.885
55846W        W25661  23.533  24.118   3.208
55847W        W25662   1.302  19.722   1.728
55848W        W25663  11.128  38.353  10.497
55849W        W25664   6.848   4.868  12.370
55850W        W25665  44.268  20.561  11.489
55851W        W25666  37.037  36.891   4.711
55852W        W25667   4.913  20.198  12.936
55853W        W25668  40.045  38.026  13.490
55854W        W25669   4.855  34.517  12.922
55855W        W25670  20.738  24.020  14.889
55856W        W25671   5.292  12.857   2.396
55857W        W25672  30.423  13.258   0.872
55858W        W25673  37.875   2.874   0.854
55859W        W25674  19.652  31.418  13.035
55860W        W25675  31.422  24.543   3.706
55861W        W25676  40.417  11.702   5.115
55862W        W25677  36.464  10.782  12.339
55863W        W25678  34.006   2.868   3.372
55864W        W25679  29.954  30.139   1.431
55865W        W25680  30.945  39.533  11.549
55866W        W25681   4.337  15.693   1.286
55867W        W25682   6.427   4.283   2.264
55868W        W25683  37.406  35.912   2.377
55869W        W25684  38.044  43.874   2.380
55870W        W25685  26.071  24.136   2.269
55871W        W25686   5.336  25.964   2.742
55872W        W25687  18.788  21.114   4.349
55873W        W25688  36.421  14.184   0.740
55874W        W25689  42.908  36.973   0.823
55875W        W25690  43.414  39.911  11.975
55876W        W25691  25.026   3.235  14.464
55877W        W25692  36.984  13.646  11.395
55878W        W25693   8.693  33.537  13.321
55879W        W25694   4.698   6.329   2.673
55880W        W25695   5.828  44.317  11.559
55881W        W25696  29.655  21.690   2.379
55882W        W25697   3.787   6.805   1.309
55883W        W25698  10.243  37.525  13.892
55884W        W25699  16.780  11.777  12.953
55885W        W25700  13.311  38.528  11.555
55886W        W25701  42.292  28.485  11.531
55887W        W25702  17.071   0.368  14.795
55888W        W25703  37.960  13.834  14.299
55889W        W25704   1.911  39.909   1.250
55890W        W25705  42.463  16.160   4.176
55891W        W25706  23.588  34.374   4.642
55892W        W25707  31.514   9.360  12.020
55893W        W25708  28.510  33.548   4.297
55894W        W25709   1.463  26.606   1.732
55895W        W25710  23.685   5.713  12.864
55896W        W25711  27.559  30.033   2.347
55897W        W25712   4.413  22.231   3.793
55898W        W25713  42.808  11.264  11.882
55899W        W25714  23.553  38.995   2.723
55900W        W25715  26.510   6.792  10.493
55901W        W25716  18.615   4.738  12.034
55902W        W25717  43.274  11.235  14.777
55903W        W25718  13.284  14.711   0.870
55904W        W25719  11.638  11.757   0.342
55905W        W25720  44.999  18.693   4.119
55906W        W25721  38.455  17.300   3.732
55907W        W25722  42.838  13.158   3.774
55908W        W25723  20.098   5.234  13.957
55909W        W25724   1.368  32.584   1.720
55910W        W25725  21.093  35.915  12.386
55911W        W25726  30.543   0.885  11.061
55912W        W25727   2.361  28.447   2.384
55913W        W25728  22.664  15.750   9.949
55914W        W25729  10.249  17.708  13.421
55915W        W25730  25.973  31.911   1.933
55916W        W25731  38.998   7.292   2.784
55917W        W25732  28.101   8.817  10.470
55918W        W25733  30.137  17.650   3.185
55919W        W25734   1.362   0.412   3.232
55920W        W25735   7.393  39.359   5.201
55921W        W25736  18.115  36.487   1.821
55922W        W25737  25.158  20.720   1.859
55923W        W25738   1.950  15.206   2.362
55924W        W25739  39.043  31.106  10.427
55925W        W25740   5.797  32.412  11.073
55926W        W25741  12.116  20.545   2.240
55927W        W25742  37.564  22.132   1.854
55928W        W25743  36.873  39.049   1.353
55929W        W25744  43.786  40.017  10.942
55930W        W25745  42.854   6.876  14.767
55931W        W25746  25.992   0.430  10.613
55932W        W25747   9.258  22.089   4.651
55933W        W25748  26.161   5.905   3.698
55934W        W25749   4.390   9.833  14.343
55935W        W25750  25.612  25.027  12.480
55936W        W25751  35.984  12.718   4.830
55937W        W25752  19.226  11.256   2.753
55938W        W25753   1.448  35.413   3.276
55939W        W25754  24.492  24.089   0.320
55940W        W25755   6.862   9.763  10.975
55941W        W25756  34.457  17.149  13.955
55942W        W25757  21.654  32.968   0.960
55943W        W25758  23.082  10.327  10.451
55944W        W25759  26.118   3.918  10.515
55945W        W25760  10.252  21.586   4.327
55946W        W25761  28.578   7.765  11.555
55947W        W25762  35.109   1.855  11.881
55948W        W25763  11.135   1.407  13.329
55949W        W25764  41.521  12.827   1.723
55950W        W25765   5.864  36.857  14.323
55951W        W25766   3.290  18.684   5.317
55952W        W25767   2.394  34.891   2.395
55953W        W25768  24.014  19.577  13.336
55954W        W25769  30.477  15.788  12.891
55955W        W25770   9.668  24.989   3.773
55956W        W25771  35.956   5.886  12.444
55957W        W25772  16.294  11.373  11.470
55958W        W25773  35.472  39.444  10.891
55959W        W25774  40.835  22.602  12.000
55960W        W25775  17.645  19.657  10.433
55961W        W25776  43.506   1.818   3.291
55962W        W25777  12.329  35.454  11.110
55963W        W25778  27.576  23.528   3.697
55964W        W25779  24.572  36.393   1.427
55965W        W25780   2.872  22.643  13.339
55966W        W25781  32.941  38.016  13.438
55967W        W25782  37.084  34.611   1.418
55968W        W25783  28.512  21.615   0.968
55969W        W25784  11.193  13.820  11.919
55970W        W25785  15.585  36.948   2.204
55971W        W25786  16.610  23.535   2.396
55972W        W25787   9.268   2.778   0.792
55973W        W25788  29.607   5.309  10.412
55974W        W25789  21.126  10.841   0.921
55975W        W25790  42.990  11.278  14.846
55976W        W25791  35.539   1.896  10.407
55977W        W25792  25.981  15.710   1.266
55978W        W25793  14.218  29.567  11.463
55979W        W25794  10.750   3.406   2.287
55980W        W25795  39.315  44.962  11.915
55981W        W25796  12.759  43.370  12.544
55982W        W25797  32.581  15.195   1.861
55983W        W25798  11.193  25.060  13.446
55984W        W25799  18.577   5.256  12.074
55985W        W25800  30.466  34.086  13.413
55986W        W25801  21.031  39.321   0.445
55987W        W25802   3.866   1.433   2.728
55988W        W25803   5.768   2.756   3.651
55989W        W25804  38.504  16.307   1.720
55990W        W25805  19.279   5.211  12.082
55991W        W25806   5.391  10.787  14.850
55992W        W25807  43.878   8.840  10.445
55993W        W25808  16.593  21.716  14.401
55994W        W25809  29.987   0.948   3.680
55995W        W25810  18.786  10.672  13.868
55996W        W25811  15.132  27.029   4.769
55997W        W25812  40.462  20.652  13.870
55998W        W25813  15.588   3.339  12.879
55999W        W25814  10.681   6.805   1.917
56000W        W25815  17.648  14.626   0.447
56001W        W25816  37.378  44.887  14.483
56002W        W25817  38.840   9.374   1.219
56003W        W25818  13.113  33.987   1.401
56004W        W25819  17.654   3.955  13.311
56005W        W25820   9.205   4.785   4.742
56006W        W25821  27.965  31.504  12.369
56007W        W25822  39.841  28.984  14.444
56008W        W25823   0.956   2.769  12.030
56009W        W25824  34.097   5.342  14.003
56010W        W25825  22.691  24.129   4.773
56011W        W25826   7.233  24.670   2.729
56012W        W25827   5.276  19.637  13.510
56013W        W25828  35.903  41.501   4.654
56014W        W25829  14.647   4.403   3.843
56015W        W25830  30.124  27.468   2.294
56016W        W25831   4.328  38.458   1.825
56017W        W25832  31.968  35.507  12.860
56018W        W25833  19.642  20.169  11.929
56019W        W25834   8.684  27.042  13.001
56020W        W25835  20.266  24.559  13.957
56021W        W25836  11.731  36.426  12.980
56022W        W25837  37.571  36.887   2.803
56023W        W25838  20.639  35.452  14.507
56024W        W25839  33.536  11.689   5.276
56025W        W25840  44.352  22.029   2.388
56026W        W25841   4.740  15.319  12.407
56027W        W25842  44.275  10.231  12.056
56028W        W25843  37.348  13.672  11.595
56029W        W25844  11.345  27.979   1.370
56030W        W25845   9.828  31.431  13.841
56031W        W25846  14.765  16.314  14.344
56032W        W25847  28.492   2.307   3.323
56033W        W25848  41.876  21.212   3.182
56034W        W25849  43.940  35.942  11.957
56035W        W25850  27.690  32.586   2.784
56036W        W25851   4.425  19.219   1.704
56037W        W25852  41.490   4.310   4.158
56038W        W25853  14.189  19.639   4.723
56039W        W25854  16.299  22.629   0.895
56040W        W25855  12.669  24.555   3.208
56041W        W25856  38.564   3.898  11.926
56042W        W25857  12.723  25.098   0.823
56043W        W25858  35.030  41.519   4.343
56044W        W25859  41.821   6.806   1.280
56045W        W25860  43.942  28.968  14.336
56046W        W25861  34.114  25.210  11.998
56047W        W25862  22.037  18.707  12.873
56048W        W25863  28.456  11.753   0.399
56049W        W25864  11.347  40.925   2.855
56050W        W25865  28.054  11.198  14.467
56051W        W25866   4.343   2.366  14.825
56052W        W25867  39.058  44.882   1.233
56053W        W25868  17.200  40.378   1.715
56054W        W25869  21.524  43.349  12.867
56055W        W25870  28.531   6.427   3.340
56056W        W25871   5.257   6.757  13.852
56057W        W25872  29.063  39.875  10.901
56058W        W25873  16.167  24.547   4.686
56059W        W25874  42.795  14.194  11.582
56060W        W25875  30.953  31.467  13.309
56061W        W25876  24.608  22.590   1.928
56062W        W25877  35.478  22.620  10.978
56063W        W25878  42.372  26.605   4.713
56064W        W25879  44.950  19.581   2.290
56065W        W25880  30.452  34.877  11.948
56066W        W25881  39.810  22.207  11.927
56067W        W25882  41.962  42.902   3.723
56068W        W25883   6.701  23.141  11.024
56069W        W25884   2.916  39.550  14.291
56070W        W25885  34.472  28.160   1.873
56071W        W25886  15.243  12.294  10.976
56072W        W25887  31.612   0.963   4.732
56073W        W25888  37.462  27.172   1.881
56074W        W25889  25.617  20.219  13.311
56075W        W25890  38.903  21.589   0.388
56076W        W25891  25.650   4.323   1.810
56077W        W25892  35.378  32.901   3.352
56078W        W25893  38.864  21.157  10.542
56079W        W25894   5.356  33.456  12.396
56080W        W25895  42.364  12.790   0.853
56081W        W25896   3.744  16.126   0.450
56082W        W25897  11.346  14.314  12.455
56083W        W25898  27.954   4.842   1.437
56084W        W25899  44.274  19.699   0.246
56085W        W25900   0.397  43.848   2.409
56086W        W25901  44.459  35.576   2.797
56087W        W25902  22.720  40.524  14.490
56088W        W25903   9.843  41.338   1.887
56089W        W25904  29.638  35.413   1.865
56090W        W25905   8.261  38.029  12.358
56091W        W25906  36.952   9.372   0.945
56092W        W25907  21.162  37.485   4.342
56093W        W25908  18.195   7.189   3.677
56094W        W25909  12.157  22.202   4.132
56095W        W25910   8.777  11.672  11.439
56096W        W25911  16.576  40.335  12.447
56097W        W25912  20.651  17.687   0.412
56098W        W25913  17.640  16.584  10.567
56099W        W25914   5.774  36.473  11.027
56100W        W25915  25.588  10.827  10.106
56101W        W25916  11.833   9.275   1.879
56102W        W25917  11.783  10.155   3.332
56103W        W25918  30.426  11.250   0.858
56104W        W25919  18.108  29.044   4.343
56105W        W25920  10.195  13.329   3.172
56106W        W25921  14.172  10.199  11.897
56107W        W25922  21.085  24.522   3.702
56108W        W25923  43.995  15.104  13.048
56109W        W25924  28.026  40.427   3.217
56110W        W25925   9.190   9.326  14.369
56111W        W25926  11.738  14.724  14.508
56112W        W25927  29.456  15.236   1.246
56113W        W25928  19.179  37.983   2.741
56114W        W25929  12.270   7.760  13.802
56115W        W25930  44.284   7.860  14.005
56116W        W25931  43.781  22.160  13.960
56117W        W25932  22.220  30.472   4.304
56118W        W25933  33.020  44.010  13.490
56119W        W25934  12.293  22.073  13.926
56120W        W25935  44.933  26.620  14.784
56121W        W25936  16.228  29.936  14.979
56122W        W25937   4.319   2.386  10.543
56123W        W25938  17.068   0.883  10.470
56124W        W25939  22.088  24.547   1.848
56125W        W25940  38.994  33.093   4.599
56126W        W25941  32.407  35.993  10.908
56127W        W25942  11.759  14.158   9.994
56128W        W25943  41.972  20.057  12.533
56129W        W25944  10.702  31.009   2.741
56130W        W25945  31.559  37.534   1.402
56131W        W25946  39.432   5.903   0.820
56132W        W25947   5.688  26.103  13.037
56133W        W25948  19.268  34.082  13.426
56134W        W25949   7.267  37.492   5.104
56135W        W25950  26.470  44.401   5.204
56136W        W25951  42.954   1.950  13.408
56137W        W25952  10.876  25.992   0.911
56138W        W25953   5.789   1.273   0.251
56139W        W25954  44.916  24.582  11.539
56140W        W25955  25.672  13.306   4.137
56141W        W25956  23.542   4.863  14.354
56142W        W25957  42.835  36.560   2.396
56143W        W25958  37.521  33.387  14.806
56144W        W25959  41.929  41.319   1.729
56145W        W25960  15.218  18.073  13.969
56146W        W25961   8.696  34.060  14.448
56147W        W25962  10.771  42.307  14.447
56148W        W25963  32.542  27.185  12.357
56149W        W25964  38.820   6.841  11.494
56150W        W25965   0.249  38.904  13.419
56151W        W25966   2.913  38.846   4.244
56152W        W25967  42.362  29.003  10.534
56153W        W25968  42.299   5.387   3.315
56154W        W25969  14.151  14.110   2.220
56155W        W25970  41.329  32.037   4.798
56156W        W25971  21.536  34.867   4.694
56157W        W25972  40.543  13.682   3.338
56158W        W25973  43.998  16.746   2.291
56159W        W25974   0.762  26.183  13.374
56160W        W25975   6.401  33.924   2.719
56161W        W25976  28.548  29.934  13.460
56162W        W25977  41.422  10.346  14.481
56163W        W25978   8.885  19.745   2.665
56164W        W25979  20.658  12.154  10.914
56165W        W25980  33.127  35.574  11.501
56166W        W25981   4.446   5.909  14.319
56167W        W25982  12.216  12.735  11.927
56168W        W25983  36.401  30.968   0.731
56169W        W25984  24.537  22.543   3.164
56170W        W25985   6.908  25.141  10.631
56171W        W25986  35.918  24.604  12.062
56172W        W25987  13.607  39.331   2.845
56173W        W25988  42.487  15.240  14.436
56174W        W25989   8.201  13.285  13.359
56175W        W25990  16.100  19.101   1.408
56176W        W25991  29.644  41.495  10.511
56177W        W25992  41.306  32.502   3.215
56178W        W25993   6.412  38.864   1.296
56179W        W25994  39.493   8.392   2.347
56180W        W25995   0.859  26.049  12.977
56181W        W25996  19.066  39.333   0.363
56182W        W25997   1.376  40.381   4.172
56183W        W25998  12.751  16.699   1.901
56184W        W25999  25.086  22.637  10.558
56185W        W26000  29.591   0.343   0.379
56186W        W26001  30.993  23.079  10.557
56187W        W26002  13.644   2.441  12.991
56188W        W26003  20.759  23.001   3.181
56189W        W26004  27.668   1.257  11.858
56190W        W26005  28.585  35.447  13.342
56191W        W26006  13.638  10.711  10.892
56192W        W26007  12.343  30.629  11.433
56193W        W26008  22.628   3.882  11.912
56194W        W26009  37.446   2.957  10.445
56195W        W26010  41.321  43.975  10.600
56196W        W26011  39.385   1.375   2.218
56197W        W26012  28.081  13.681  10.931
56198W        W26013  44.339   4.393  13.942
56199W        W26014   7.261   0.892  10.896
56200W        W26015  11.820  27.672   1.777
56201W        W26016   3.801   0.986  10.111
56202W        W26017   7.403  23.704   2.669
56203W        W26018  33.970  14.240   3.346
56204W        W26019  18.181  28.121   1.869
56205W        W26020  44.845  10.670  10.964
56206W        W26021  12.222  27.971  11.973
56207W        W26022  35.371  23.095   3.774
56208W        W26023   4.703  26.969  12.544
56209W        W26024  13.607  11.691   1.761
56210W        W26025   0.479  33.045   2.238
56211W        W26026  12.249  39.017  11.478
56212W        W26027   3.305  40.527   0.458
56213W        W26028   5.739  22.643  14.487
56214W        W26029  42.455  32.452  12.444
56215W        W26030  41.788  40.877  14.830
56216W        W26031  42.026  39.960  11.858
56217W        W26032   4.268  35.895   3.750
56218W        W26033   6.306  16.646   1.237
56219W        W26034  37.944  15.799  13.989
56220W        W26035  35.859  19.222   4.832
56221W        W26036  41.338   1.768  13.799
56222W        W26037   2.812  36.591   4.152
56223W        W26038   6.336  22.080  12.886
56224W        W26039  10.267  40.408  12.429
56225W        W26040  25.577   3.253   1.864
56226W        W26041  42.777   8.663  10.470
56227W        W26042  40.952  24.191   0.393
56228W        W26043  37.083  13.328  13.900
56229W        W26044  11.309  43.896  14.502
56230W        W26045   4.760  25.497  12.036
56231W        W26046  44.285   9.864   1.265
56232W        W26047  34.083  31.954  10.615
56233W        W26048  40.938  26.022  11.557
56234W        W26049  16.213   5.730   0.428
56235W        W26050  25.974   4.892  14.937
56236W        W26051  20.564  33.445   3.304
56237W        W26052  42.899  23.148   2.254
56238W        W26053  21.142  16.599  14.364
56239W        W26054  13.149  36.564   2.370
56240W        W26055  38.999  12.176   3.224
56241W        W26056  27.067  15.678   3.305
56242W        W26057  21.598  13.290  12.025
56243W        W26058  34.500  14.780   2.214
56244W        W26059  29.581  22.721  14.937
56245W        W26060   9.191   3.914  11.961
56246W        W26061  15.601  25.963   2.897
56247W        W26062  40.368  11.702  11.426
56248W        W26063  14.116  33.043   0.823
56249W        W26064  23.122  10.703  14.011
56250W        W26065  27.572  22.571  12.910
56251W        W26066  18.241  11.205   1.270
56252W        W26067  28.055  13.670   2.245
56253W        W26068   3.737  44.920  13.880
56254W        W26069   7.895  20.257  14.852
56255W        W26070  20.219   8.757  12.831
56256W        W26071  17.199  13.239  14.447
56257W        W26072  22.225  15.654   3.837
56258W        W26073  34.444  16.160   4.721
56259W        W26074   5.407  11.764   1.326
56260W        W26075  22.540  31.026   1.231
56261W        W26076   6.897  36.905  14.404
56262W        W26077   2.454  22.561  10.562
56263W        W26078  44.970  43.798  10.484
56264W        W26079   2.797  26.014   4.222
56265W        W26080  27.602  13.288  13.421
56266W        W26081  23.617  18.678   3.341
56267W        W26082  37.551  29.062   3.162
56268W        W26083   4.840  18.642  12.006
56269W        W26084  26.067   6.323   2.262
56270W        W26085  42.821  41.397  12.990
56271W        W26086   2.899   2.321   1.315
56272W        W26087  20.118  12.732   3.221
56273W        W26088  44.942   0.894  12.493
56274W        W26089  31.437  17.756   3.343
56275W        W26090  38.886  17.584  12.344
56276W        W26091  27.520   0.272   3.703
56277W        W26092  14.620  21.607  13.840
56278W        W26093  11.683  37.518  13.830
56279W        W26094   9.726   7.840   0.734
56280W        W26095  26.061  40.444  10.409
56281W        W26096  29.067  11.227  12.031
56282W        W26097  13.119  38.475   0.835
56283W        W26098  15.234   9.268   2.863
56284W        W26099  40.875   3.949   0.437
56285W        W26100  19.588  11.650   0.466
56286W        W26101  20.220  14.820  10.993
56287W        W26102  26.054  12.298  13.362
56288W        W26103  14.590   9.659  11.554
56289W        W26104  22.740  44.940   4.761
56290W        W26105   2.783   3.725  12.089
56291W        W26106  43.946   4.250  11.039
56292W        W26107  31.497  32.054  11.126
56293W        W26108  19.168  31.049   4.784
56294W        W26109  33.427  19.698  11.975
56295W        W26110  17.172   1.389  10.412
56296W        W26111  27.566  12.249   4.764
56297W        W26112   1.926  44.922  11.475
56298W        W26113  42.282  44.494   2.698
56299W        W26114  14.643  26.141  13.007
56300W        W26115  14.308   6.396  14.986
56301W        W26116  26.554  42.413  12.895
56302W        W26117  25.525  14.106  11.962
56303W        W26118  40.515  30.043  12.400
56304W        W26119   1.456  31.499  14.992
56305W        W26120  13.614   0.759  12.976
56306W        W26121  35.420   2.866  12.055
56307W        W26122  31.407   7.402  14.835
56308W        W26123  16.129  44.958   3.380
56309W        W26124  43.888  34.572  11.967
56310W        W26125  10.818  35.852   1.386
56311W        W26126  19.069   5.932   3.149
56312W        W26127   0.303  25.539   0.887
56313W        W26128  35.935  17.644  11.065
56314W        W26129   7.265  12.843   1.796
56315W        W26130  25.610  20.662   4.819
56316W        W26131   2.236  24.522   4.674
56317W        W26132  31.108  21.072   1.271
56318W        W26133   8.209  37.869   1.306
56319W        W26134  40.333  15.099   4.677
56320W        W26135  15.216  41.958  11.029
56321W        W26136  20.700   0.849  14.773
56322W        W26137  34.435  15.227   1.786
56323W        W26138  34.981  10.271   3.343
56324W        W26139  30.917   1.841   9.999
56325W        W26140   4.756  42.944  10.423
56326W        W26141  11.316   4.913   2.822
56327W        W26142  17.155  14.221  14.362
56328W        W26143   4.240  33.565   0.823
56329W        W26144  30.021  20.104   1.427
56330W        W26145  28.564  12.809  13.900
56331W        W26146  44.419   6.252  14.947
56332W        W26147  26.154  42.473  13.418
56333W        W26148  25.707  28.550   3.673
56334W        W26149  33.124  19.125  11.418
56335W        W26150  24.502  38.848   2.245
56336W        W26151  10.637   0.264   3.775
56337W        W26152  32.391  29.950   2.331
56338W        W26153  42.848  30.110  10.615
56339W        W26154  32.616  30.417  11.857
56340W        W26155  24.989   4.439   4.830
56341W        W26156  16.286  16.770   1.893
56342W        W26157   0.471   7.665   3.174
56343W        W26158  31.075  36.083  10.476
56344W        W26159  42.914  28.963  12.565
56345W        W26160  22.699  34.411  12.047
56346W        W26161   4.913  19.052   4.672
56347W        W26162  37.537  40.810   4.242
56348W        W26163  40.930  38.549  14.300
56349W        W26164  14.753  13.342  13.482
56350W        W26165  36.936  43.974   3.179
56351W        W26166  15.754  36.038   0.390
56352W        W26167  14.736   4.355   1.346
56353W        W26168  24.673  15.630  12.002
56354W        W26169  11.691   8.884  11.075
56355W        W26170   4.369  15.737   1.917
56356W        W26171  40.389   8.677   0.851
56357W        W26172  38.501  40.034  13.047
56358W        W26173  44.986  32.557   4.767
56359W        W26174  10.639  10.233  12.989
56360W        W26175  32.509  26.053  13.450
56361W        W26176   5.290  44.784  13.436
56362W        W26177   3.898   3.772  14.990
56363W        W26178  25.126   4.751  11.883
56364W        W26179  12.751  24.992   2.378
56365W        W26180  31.905  39.487  11.446
56366W        W26181  40.808  29.121  11.551
56367W        W26182  32.980   3.310  11.548
56368W        W26183   9.770  40.024  14.998
56369W        W26184  15.764  11.783  11.084
56370W        W26185  40.920  18.198   4.177
56371W        W26186  33.576  29.960  12.892
56372W        W26187  13.782   8.852   2.897
56373W        W26188  39.036  15.093   1.362
56374W        W26189  24.663  39.436   0.949
56375W        W26190  43.924   2.359  13.849
56376W        W26191  10.211  18.576   2.752
56377W        W26192  42.306  13.742  10.137
56378W        W26193   1.877  44.989  10.984
56379W        W26194  26.661  36.367   5.176
56380W        W26195  31.141  31.950   0.265
56381W        W26196  27.967  26.591   0.964
56382W        W26197  21.745  41.384  10.933
56383W        W26198   0.969  43.794   3.163
56384W        W26199  25.219  44.344   2.791
56385W        W26200  12.620  27.079   4.341
56386W        W26201  20.245  27.556  10.455
56387W        W26202  30.422  34.950  10.624
56388W        W26203  31.038  33.615  14.832
56389W        W26204  31.007  23.130   2.766
56390W        W26205  35.000  14.114   2.884
56391W        W26206  17.134   2.875  13.539
56392W        W26207  16.772   0.855   1.830
56393W        W26208   6.336  20.649  13.023
56394W        W26209  14.310  16.199   0.402
56395W        W26210  21.072  26.016   0.483
56396W        W26211  44.334  41.314   1.347
56397W        W26212  13.711  15.213  11.973
56398W        W26213   2.751  40.352   1.893
56399W        W26214  13.233   0.957  13.494
56400W        W26215   2.752  36.039  10.576
56401W        W26216   2.284  15.679  12.480
56402W        W26217  27.056  30.450   5.311
56403W        W26218  25.189  40.960  11.075
56404W        W26219  18.588  10.730  12.016
56405W        W26220   8.666  18.553   0.384
56406W        W26221  30.930  28.967   2.261
56407W        W26222  41.472  37.496  14.300
56408W        W26223  10.834  41.813   1.433
56409W        W26224  10.825   8.397   2.703
56410W        W26225   0.490   6.259  12.393
56411W        W26226  30.086  42.516  14.992
56412W        W26227  42.022  31.534  12.974
56413W        W26228  37.403  28.607  13.376
56414W        W26229  29.637  36.048   4.249
56415W        W26230  35.955  22.603  13.325
56416W        W26231  15.704   3.271  11.380
56417W        W26232  10.329  43.934  13.875
56418W        W26233  13.250  37.400  12.435
56419W        W26234  11.801  17.560  12.952
56420W        W26235   6.884   4.830   2.397
56421W        W26236  28.030  17.571   1.874
56422W        W26237  20.050  36.538   2.310
56423W        W26238  18.142  23.725  12.849
56424W        W26239  25.092  11.743  11.380
56425W        W26240  19.598  30.501  14.874
56426W        W26241  38.885  24.542   2.216
56427W        W26242  37.464  23.088  12.572
56428W        W26243  24.184  43.841  13.411
56429W        W26244  15.780   7.849  10.543
56430W        W26245   3.397  27.663   2.210
56431W        W26246  13.137  37.927   3.854
56432W        W26247  19.735  38.499  13.541
56433W        W26248  20.046  26.148  12.010
56434W        W26249   0.289  13.290  10.409
56435W        W26250  29.645  29.981  12.979
56436W        W26251  21.729  25.493   4.216
56437W        W26252  33.124   7.327  11.484
56438W        W26253   4.874  22.500   3.297
56439W        W26254  23.172  41.295  13.437
56440W        W26255   0.974  38.943   1.264
56441W        W26256  25.967  35.379   3.650
56442W        W26257   6.239   5.246   0.740
56443W        W26258  38.012   5.365  11.074
56444W        W26259   1.753   5.389  11.588
56445W        W26260  15.735  19.052   2.250
56446W        W26261   0.945  33.619   2.662
56447W        W26262  16.768   2.317   2.688
56448W        W26263   9.267   4.247  10.519
56449W        W26264  31.097  20.580   4.255
56450W        W26265  35.854  14.166   2.409
56451W        W26266  19.127  16.185  13.989
56452W        W26267  34.944  38.822  13.415
56453W        W26268  26.194  17.073   2.741
56454W        W26269  28.482   4.904  13.438
56455W        W26270  39.011  30.934  14.446
56456W        W26271  42.972  32.635  14.340
56457W        W26272   4.308  11.732   0.246
56458W        W26273  14.304  39.531  12.831
56459W        W26274  17.604  37.450  11.883
56460W        W26275  10.239  11.804   0.390
56461W        W26276   4.413  29.040  11.027
56462W        W26277   9.234  27.447  10.453
56463W        W26278  25.693   7.306  12.492
56464W        W26279   4.753   4.915  13.814
56465W        W26280  29.559   9.374   3.790
56466W        W26281  24.138   3.896  12.889
56467W        W26282   1.760  24.513  10.611
56468W        W26283  15.128  39.389  11.438
56469W        W26284  41.308   8.834   3.702
56470W        W26285  37.975   5.245  14.430
56471W        W26286  39.538   4.419   3.691
56472W        W26287  28.007  41.302  10.404
56473W        W26288   1.274  16.159   4.617
56474W        W26289  15.134   9.358   1.303
56475W        W26290  25.471  17.697   3.156
56476W        W26291  43.422   2.931   1.822
56477W        W26292  39.045  28.996   2.360
56478W        W26293  20.714   4.795   0.443
56479W        W26294  26.700  17.259   2.707
56480W        W26295   3.834  32.946   1.449
56481W        W26296   4.385  22.695  13.046
56482W        W26297   7.871  44.842  10.473
56483W        W26298  17.772  44.381  12.566
56484W        W26299  28.624  13.729  12.912
56485W        W26300  31.477  13.211   2.847
56486W        W26301  34.869  31.067   4.238
56487W        W26302   4.359   7.904   3.219
56488W        W26303  31.494  41.027   1.311
56489W        W26304  16.134  11.685  14.463
56490W        W26305  33.425   4.943   4.794
56491W        W26306  35.548  15.197   0.961
56492W        W26307   7.323  29.535  11.556
56493W        W26308  30.160  44.003  12.964
56494W        W26309  32.117  11.855  12.535
56495W        W26310  15.100   3.787   4.351
56496W        W26311  42.393   2.732  11.084
56497W        W26312  25.005   4.337   3.374
56498W        W26313  26.698  40.380  11.920
56499W        W26314   8.843  39.931   2.727
56500W        W26315  36.387  28.173  11.957
56501W        W26316   8.732   5.857  13.380
56502W        W26317  25.492  28.080  13.839
56503W        W26318   3.318  38.398  13.514
56504W        W26319   0.369  30.944   1.729
56505W        W26320   1.290   5.723  12.924
56506W        W26321  20.622  34.983  11.611
56507W        W26322  26.593  37.540  11.499
56508W        W26323  26.599   5.336   1.271
56509W        W26324  41.425  31.045   3.746
56510W        W26325  42.860  38.384   3.734
56511W        W26326  31.530  27.534  11.993
56512W        W26327  31.128   1.748   4.288
56513W        W26328  18.720   8.399  10.413
56514W        W26329  35.871  36.407   4.251
56515W        W26330   5.384  15.320  13.389
56516W        W26331  19.245   3.365  11.058
56517W        W26332  32.394  24.061  12.001
56518W        W26333   3.719   3.767   3.855
56519W        W26334   1.465   3.447   3.750
56520W        W26335  37.072  43.779   1.244
56521W        W26336  42.831  16.607  10.570
56522W        W26337   4.221  36.581  12.866
56523W        W26338  40.439  37.952   2.249
56524W        W26339  44.370  18.577  13.388
56525W        W26340  10.231  39.967  13.439
56526W        W26341  44.928  33.002  14.946
56527W        W26342  12.302   5.208   4.781
56528W        W26343  13.808  39.444  11.377
56529W        W26344  21.576  21.178  13.372
56530W        W26345   1.430  22.024  11.054
56531W        W26346  44.370  34.009   3.744
56532W        W26347  20.042  43.363  14.362
56533W        W26348  36.539  25.010   3.238
56534W        W26349  42.898  35.086  11.906
56535W        W26350  15.598  29.940  14.856
56536W        W26351  42.306  42.460  11.400
56537W        W26352  30.026  12.671  11.420
56538W        W26353   9.293  37.350   2.247
56539W        W26354  14.230  23.556  13.027
56540W        W26355  21.182  36.372  14.020
56541W        W26356  24.225  37.901  12.550
56542W        W26357  40.949   7.722  12.961
56543W        W26358  37.525  32.529  10.018
56544W        W26359  25.712  11.663   5.253
56545W        W26360   1.331  41.861  14.026
56546W        W26361   7.669  19.674   4.760
56547W        W26362  33.587   6.762  14.919
56548W        W26363  20.724  11.759   3.346
56549W        W26364  13.752  28.550  13.990
56550W        W26365  26.102  35.004  14.953
56551W        W26366  39.005  29.631   3.808
56552W        W26367  18.597  22.643  14.413
56553W        W26368  42.337  21.524  11.529
56554W        W26369  34.599   8.319   3.667
56555W        W26370  27.095  19.155  14.363
56556W        W26371  43.413  22.604  12.047
56557W        W26372  19.693   1.817  11.124
56558W        W26373  10.861   3.267   0.852
56559W        W26374  29.151  21.051   1.888
56560W        W26375  26.170  29.918   1.912
56561W        W26376  32.405  29.928   0.819
56562W        W26377  28.099  22.179  10.098
56563W        W26378  27.140  25.526  13.323
56564W        W26379  11.697  19.282   5.231
56565W        W26380   2.318  35.025   2.830
56566W        W26381  33.474  12.735  13.851
56567W        W26382   4.416   8.678  14.803
56568W        W26383  25.562   7.193   2.791
56569W        W26384  33.894  37.458  14.807
56570W        W26385  19.740  10.785  11.382
56571W        W26386   4.903  11.334   4.746
56572W        W26387  28.060  37.524   3.666
56573W        W26388  19.568  22.038  13.925
56574W        W26389  22.740  11.293   0.449
56575W        W26390  11.750   1.972  10.002
56576W        W26391  23.678   5.208  11.922
56577W        W26392  44.822  33.952   1.317
56578W        W26393  32.454  16.174   3.318
56579W        W26394  28.640  26.559  11.042
56580W        W26395  23.587  21.138   0.253
56581W        W26396  28.989  37.524   1.311
56582W        W26397   5.785  39.051   1.796
56583W        W26398   1.870  22.528  12.477
56584W        W26399  15.198  17.800   2.759
56585W        W26400   2.372  25.129  13.440
56586W        W26401  18.179   1.249   0.727
56587W        W26402   7.262  36.845  11.005
56588W        W26403   2.346  20.267  14.491
56589W        W26404  36.048  15.747   3.380
56590W        W26405  19.764   9.292   4.778
56591W        W26406   8.682  20.232   2.818
56592W        W26407  37.834   8.774   5.136
56593W        W26408  36.462  25.598   4.763
56594W        W26409  20.606  37.034   4.211
56595W        W26410  13.162   0.776   2.410
56596W        W26411   0.858  10.808  12.843
56597W        W26412  16.125  23.723  14.856
56598W        W26413  21.231  27.092  14.495
56599W        W26414  31.086  35.487   1.409
56600W        W26415  25.990  31.502   2.686
56601W        W26416  36.957  11.828  11.918
56602W        W26417  19.166  27.649  14.882
56603W        W26418   6.417  27.499  13.817
56604W        W26419  33.978  25.119   2.263
56605W        W26420  22.591  10.187   4.775
56606W        W26421   6.760  20.063  11.389
56607W        W26422   5.364  28.510   2.690
56608W        W26423  20.064  20.137   4.630
56609W        W26424   2.729  40.492   3.852
56610W        W26425  34.995   7.329  12.865
56611W        W26426  39.972  14.831  13.826
56612W        W26427   0.773  22.650  10.932
56613W        W26428  28.184  21.019  10.497
56614W        W26429   9.242  18.657   9.948
56615W        W26430  32.538  29.454  11.115
56616W        W26431  41.536   5.875   2.796
56617W        W26432  10.349  19.057  11.917
56618W        W26433  40.529   6.194  13.438
56619W        W26434  19.601  41.856   1.707
56620W        W26435  15.753   0.830   3.333
56621W        W26436  22.245  39.938  11.998
56622W        W26437  23.025   7.799  12.870
56623W        W26438  23.149  41.023   4.228
56624W        W26439  35.578  41.824   3.778
56625W        W26440   0.291  39.832  12.023
56626W        W26441  15.709  43.439   1.721
56627W        W26442   1.906  37.048  10.562
56628W        W26443  18.686   3.299  14.003
56629W        W26444  29.462  14.326   0.402
56630W        W26445  36.360  34.919  10.628
56631W        W26446  22.630  20.206   3.191
56632W        W26447  40.947  21.203   4.297
56633W        W26448  38.839  37.013   2.415
56634W        W26449  40.454  42.889  13.028
56635W        W26450  38.869  42.475   4.176
56636W        W26451  35.935  40.926   4.794
56637W        W26452  10.280   3.869  12.443
56638W        W26453  14.718  36.088   9.971
56639W        W26454  36.038  34.994  11.453
56640W        W26455  26.010  15.591   1.774
56641W        W26456   3.322  33.427   3.774
56642W        W26457  24.227   7.296  12.881
56643W        W26458  43.428  13.663   3.803
56644W        W26459  43.489   3.339   2.769
56645W        W26460  41.798  11.139  11.581
56646W        W26461  29.968  41.807  12.517
56647W        W26462   8.830  31.920   2.883
56648W        W26463   7.771  12.795   4.749
56649W        W26464  30.465  16.756   3.257
56650W        W26465   2.230   9.311  13.879
56651W        W26466  25.636  39.359  12.499
56652W        W26467  18.590  21.539  11.050
56653W        W26468   8.714  44.276  12.030
56654W        W26469  23.697  19.248   0.921
56655W        W26470   5.311  21.581   1.433
56656W        W26471  43.363  26.672   2.257
56657W        W26472  21.693   2.958  12.509
56658W        W26473  12.629   0.274   2.823
56659W        W26474  42.483  17.793  14.360
56660W        W26475   7.883   8.741  14.350
56661W        W26476  43.923  15.761  10.512
56662W        W26477  14.725  42.959  11.088
56663W        W26478  19.708  21.721   3.379
56664W        W26479  25.586  37.020  13.993
56665W        W26480  33.986   6.362  13.447
56666W        W26481  11.150  38.946  12.504
56667W        W26482  28.117  41.926   0.740
56668W        W26483  37.883  16.680  14.473
56669W        W26484   1.940  30.439  10.975
56670W        W26485  25.713   2.278   0.815
56671W        W26486  17.108  36.063   2.216
56672W        W26487  30.613  28.591  11.513
56673W        W26488  31.006  33.404   2.330
56674W        W26489  11.718  40.446   4.702
56675W        W26490   4.838  22.212  10.539
56676W        W26491  23.168   7.807   1.436
56677W        W26492   1.392  13.630   3.313
56678W        W26493  10.776   6.212  13.887
56679W        W26494  26.963   4.829   3.216
56680W        W26495  15.752   2.919   4.784
56681W        W26496  22.711  14.787   0.755
56682W        W26497  27.650  13.282   3.666
56683W        W26498  20.723  26.049  12.427
56684W        W26499   5.379  31.459  13.310
56685W        W26500  21.710  21.192   4.179
56686W        W26501  27.465  44.793  11.073
56687W        W26502  39.537  43.384   4.598
56688W        W26503  34.556  38.513   0.768
56689W        W26504  33.440  27.018   1.934
56690W        W26505  29.611  34.541  11.609
56691W        W26506  42.892  33.381   3.841
56692W        W26507  35.965  21.587   0.767
56693W        W26508  28.634  18.553   2.888
56694W        W26509  18.096  23.611   3.187
56695W        W26510  28.174  37.449   4.258
56696W        W26511  37.936  22.995  13.824
56697W        W26512   2.399  19.715   1.278
56698W        W26513  23.048   3.914   1.819
56699W        W26514   3.925  38.931  10.892
56700W        W26515  11.206  12.825   4.280
56701W        W26516  39.342  43.851   3.384
56702W        W26517  18.711  20.190  12.391
56703W        W26518   9.702   3.281   0.391
56704W        W26519  17.692   6.408  13.916
56705W        W26520  43.314  40.831   0.765
56706W        W26521  29.980  32.482   0.787
56707W        W26522  21.114  33.980   1.437
56708W        W26523  36.350   6.362   0.346
56709W        W26524  18.152  29.532   4.618
56710W        W26525  31.022   7.322  11.906
56711W        W26526  24.161  17.203   2.301
56712W        W26527  26.536  16.687   2.720
56713W        W26528   8.825  34.396   9.931
56714W        W26529  19.093  19.691  14.854
56715W        W26530  32.432   8.160  11.952
56716W        W26531   4.914  19.276  12.546
56717W        W26532   0.366  42.317  14.290
56718W        W26533  40.500  30.117   4.237
56719W        W26534  35.372  21.221  11.109
56720W        W26535  19.742   5.357  11.014
56721W        W26536  43.479  15.648   9.925
56722W        W26537  34.417  37.532  11.468
56723W        W26538  30.519  29.071   0.954
56724W        W26539  16.188  33.460  13.484
56725W        W26540  42.452   0.352   4.719
56726W        W26541  44.481  30.009  12.407
56727W        W26542  42.844   8.840  13.402
56728W        W26543  27.129  34.407   1.917
56729W        W26544   9.653  35.498  12.902
56730W        W26545  30.650  28.445   2.185
56731W        W26546  36.517  13.311  12.476
56732W        W26547  21.516  24.612  11.526
56733W        W26548  10.340   3.274   2.889
56734W        W26549  42.969  17.740   3.765
56735W        W26550  24.000  39.537  14.513
56736W        W26551  34.883  39.931  10.158
56737W        W26552  17.233  18.579  11.379
56738W        W26553  39.461  29.567  11.375
56739W        W26554   8.750  31.598   1.903
56740W        W26555  15.732  16.785  14.799
56741W        W26556  27.075  23.202   1.773
56742W        W26557  32.580   9.843   0.359
56743W        W26558  44.470  42.801  13.402
56744W        W26559  15.614   4.863   4.135
56745W        W26560   8.776  37.500   0.736
56746W        W26561  16.193  16.646  11.974
56747W        W26562   7.905  41.371  14.791
56748W        W26563  28.613   1.355  10.586
56749W        W26564  42.299  41.017   0.461
56750W        W26565  10.667   1.756  14.354
56751W        W26566  11.634  42.986   5.093
56752W        W26567  34.902  20.652   1.870
56753W        W26568  40.837  16.315   2.178
56754W        W26569  24.091  12.245  11.594
56755W        W26570  12.783   4.284   4.345
56756W        W26571  24.559   9.287   4.690
56757W        W26572   5.688  18.267  14.439
56758W        W26573  39.380  34.027  13.828
56759W        W26574  39.048  23.096  12.837
56760W        W26575  16.738  38.510  12.537
56761W        W26576  44.310  36.969  10.461
56762W        W26577  41.294  15.679   2.813
56763W        W26578   8.833  10.655   1.835
56764W        W26579  36.892  10.194   1.406
56765W        W26580   3.395  25.178  12.441
56766W        W26581  37.363   3.369   3.758
56767W        W26582  33.577  44.978  11.594
56768W        W26583   7.396  10.238  11.095
56769W        W26584  28.981  36.455  14.949
56770W        W26585  10.780   4.227   4.746
56771W        W26586   0.293   8.726  10.902
56772W        W26587  14.146  25.130  13.514
56773W        W26588  27.692  10.277   0.958
56774W        W26589  36.381  30.019  12.449
56775W        W26590  31.568  21.709  14.391
56776W        W26591  41.394  25.089   3.342
56777W        W26592   5.398  22.185   2.315
56778W        W26593  26.196  33.895   4.186
56779W        W26594  33.382  16.647  11.452
56780W        W26595   1.405  44.305  10.474
56781W        W26596  29.456  17.603   3.707
56782W        W26597  14.682  14.213   2.755
56783W        W26598  20.199  12.129  14.400
56784W        W26599  40.818  32.926  13.987
56785W        W26600  22.083  35.364  14.497
56786W        W26601  17.079  16.138   3.225
56787W        W26602   8.399  36.987  14.480
56788W        W26603  17.243  35.982   2.872
56789W        W26604  36.525  13.233   5.128
56790W        W26605   4.317  38.418   0.414
56791W        W26606   1.271  30.538  14.794
56792W        W26607  44.476  22.611   9.953
56793W        W26608  23.104  12.132   3.232
56794W        W26609  41.911  21.051  14.948
56795W        W26610   1.269   2.449  13.896
56796W        W26611  41.323  38.522  10.889
56797W        W26612  44.341  24.155   3.755
56798W        W26613  16.631  33.558   4.632
56799W        W26614   0.783  29.024  12.947
56800W        W26615  31.041   5.394   4.159
56801W        W26616  31.115  27.451   0.394
56802W        W26617  22.236   5.709   2.301
56803W        W26618  21.124   5.703  14.892
56804W        W26619  34.422  15.144  10.512
56805W        W26620   3.785  30.074  13.846
56806W        W26621  23.725  21.655   3.153
56807W        W26622  39.040   1.896  11.098
56808W        W26623  27.665  10.364  14.332
56809W        W26624  37.024  40.898  10.625
56810W        W26625  25.005  19.110  12.553
56811W        W26626  21.074  36.461   3.240
56812W        W26627  11.730  34.500  11.865
56813W        W26628  16.084  21.596   3.280
56814W        W26629  31.614  44.311   2.860
56815W        W26630  43.346  44.343   4.208
56816W        W26631   1.335  11.735  10.581
56817W        W26632  12.753  21.135  11.985
56818W        W26633   1.241   3.926   4.217
56819W        W26634   7.189  26.617  14.858
56820W        W26635  29.497  27.030   1.373
56821W        W26636  27.588   1.781  14.975
56822W        W26637  29.571  29.531   2.705
56823W        W26638   6.299   1.900  14.000
56824W        W26639  19.079  12.211   3.324
56825W        W26640  18.628  20.137  11.544
56826W        W26641  37.374  12.685  13.824
56827W        W26642  10.313  15.794   3.834
56828W        W26643   7.215  43.300  11.020
56829W        W26644  14.815  10.653   4.673
56830W        W26645  33.923   9.673   3.810
56831W        W26646  34.956  28.466  10.518
56832W        W26647  26.187  15.237   1.873
56833W        W26648  17.275  19.545  10.478
56834W        W26649  19.120  28.954  12.854
56835W        W26650   4.886  39.503  14.400
56836W        W26651  36.984  14.685  14.997
56837W        W26652  15.199  33.402   1.823
56838W        W26653  26.013  32.627   0.430
56839W        W26654  25.117  27.565   4.235
56840W        W26655  38.393   6.428  12.418
56841W        W26656  10.878  23.687  14.389
56842W        W26657   0.262  29.097  12.414
56843W        W26658   6.832  43.938   3.751
56844W        W26659  42.796  35.031   1.916
56845W        W26660  31.016  43.405   2.404
56846W        W26661   7.285   7.667  11.405
56847W        W26662  26.666  29.157   2.901
56848W        W26663   3.382  11.675   2.393
56849W        W26664  14.286  10.141  10.500
56850W        W26665  35.087  35.380   2.887
56851W        W26666  37.495  32.068   5.213
56852W        W26667  10.840  27.066   1.860
56853W        W26668  32.059   5.245  11.548
56854W        W26669  14.128  16.151   1.873
56855W        W26670  21.529  42.869   1.729
56856W        W26671  22.187   6.885  11.439
56857W        W26672  37.951  10.376   1.274
56858W        W26673  27.122   1.244  14.919
56859W        W26674  14.646   4.223  13.970
56860W        W26675   2.240   7.273   3.241
56861W        W26676  26.185  36.058   0.299
56862W        W26677  26.595  28.680   4.214
56863W        W26678  39.476  33.984  13.451
56864W        W26679  10.309  11.296  13.009
56865W        W26680  17.069  16.230  12.970
56866W        W26681  11.261  21.584   1.827
56867W        W26682  35.042   0.372  12.462
56868W        W26683   1.806  40.307   0.802
56869W        W26684  41.338  39.517  14.774
56870W        W26685  41.465  17.608  14.916
56871W        W26686  12.612   0.431  13.423
56872W        W26687  10.150  43.340   3.855
56873W        W26688   5.345  31.918  13.385
56874W        W26689   4.923  34.527   3.305
56875W        W26690  19.243  30.000  14.507
56876W        W26691  25.090   5.857  14.485
56877W        W26692  18.544  10.693  14.289
56878W        W26693  28.575   3.432  11.966
56879W        W26694   1.304  30.948  14.805
56880W        W26695  12.230  34.989  10.474
56881W        W26696  23.163  23.198  12.531
56882W        W26697  12.847   5.405  10.417
56883W        W26698  23.663   7.871   2.724
56884W        W26699  24.059  35.879   3.264
56885W        W26700  36.405   8.739   2.818
56886W        W26701  30.613  15.760  10.078
56887W        W26702  27.944   0.967  13.867
56888W        W26703   7.286  41.322  11.991
56889W        W26704   6.923  39.428  14.776
56890W        W26705  10.667   2.870  14.774
56891W        W26706  43.397  35.073   3.343
56892W        W26707   6.279  11.719   3.347
56893W        W26708  38.551  25.091  13.874
56894W        W26709  25.545  26.970   2.843
56895W        W26710  40.036  39.856   4.301
56896W        W26711  44.469  25.541  10.636
56897W        W26712  14.287   9.151   0.852
56898W        W26713  12.653  25.640   4.199
56899W        W26714  37.418  26.477  12.963
56900W        W26715  39.875   9.272  11.871
56901W        W26716  26.594  32.434   3.154
56902W        W26717  21.696  16.766  11.090
56903W        W26718  17.801  41.803   4.123
56904W        W26719  39.942  28.057  11.543
56905W        W26720  34.037  12.796  10.538
56906W        W26721   5.333  20.650   0.393
56907W        W26722  21.095  31.994  12.857
56908W        W26723  21.040  43.391   2.266
56909W        W26724   1.438  29.504  13.511
56910W        W26725   9.324   7.358   2.808
56911W        W26726  21.592   7.672  14.428
56912W        W26727  32.531   2.733  11.424
56913W        W26728  13.280  21.693  12.980
56914W        W26729  23.687  33.406   1.850
56915W        W26730  27.551  16.792   1.384
56916W        W26731  37.923  15.733   4.758
56917W        W26732  28.670  12.800   2.664
56918W        W26733  26.591  15.736   0.289
56919W        W26734  27.065  24.620  13.423
56920W        W26735  16.657  15.760   1.782
56921W        W26736   5.886  41.320   2.880
56922W        W26737   3.925  26.137  10.430
56923W        W26738  31.961   9.249  13.321
56924W        W26739  17.789  22.525  10.135
56925W        W26740  27.955  43.901  11.094
56926W        W26741  30.540  42.913  12.556
56927W        W26742   8.828  40.922  12.381
56928W        W26743   3.271  32.532   0.751
56929W        W26744   2.787  20.219  13.309
56930W        W26745   3.733   1.386  10.993
56931W        W26746  32.489  27.515   4.118
56932W        W26747   9.156  21.729  14.941
56933W        W26748  19.222  16.268   0.369
56934W        W26749   1.958  26.092  11.454
56935W        W26750   4.219  20.054   1.251
56936W        W26751   9.693  28.581   0.945
56937W        W26752  20.193  28.011   2.865
56938W        W26753  39.815  32.404  14.353
56939W        W26754  16.276  42.838   2.882
56940W        W26755   5.730  24.681   1.324
56941W        W26756   2.827  37.951   0.292
56942W        W26757  24.003  23.045   3.639
56943W        W26758  42.291   7.892   3.694
56944W        W26759  36.090  11.755   2.903
56945W        W26760  14.815   7.773  14.443
56946W        W26761  22.149  39.850  13.542
56947W        W26762  27.974  10.658   4.258
56948W        W26763   0.306  22.536   1.299
56949W        W26764  40.980  22.655   3.357
56950W        W26765  37.954  35.554  10.584
56951W        W26766  41.888  31.079  11.613
56952W        W26767   8.336  16.213   4.354
56953W        W26768  22.101  13.301   2.265
56954W        W26769  41.885   2.299   1.421
56955W        W26770  17.664  26.516   3.838
56956W        W26771  28.612  33.968  14.963
56957W        W26772  20.049   0.748  10.101
56958W        W26773  18.701  15.314  10.406
56959W        W26774  27.536  32.032   0.264
56960W        W26775  21.101  24.548  14.419
56961W        W26776  27.955  27.532   0.258
56962W        W26777   5.356  10.223   4.828
56963W        W26778   0.795  38.533   2.699
56964W        W26779   5.698   2.790   4.156
56965W        W26780  17.215  20.577  13.950
56966W        W26781   9.849  20.686  13.365
56967W        W26782  39.969  10.719   0.832
56968W        W26783  25.127  22.709  12.045
56969W        W26784  18.662   8.732   2.245
56970W        W26785  11.226   5.779  11.103
56971W        W26786  33.932   2.446  13.807
56972W        W26787  11.230  21.135  12.563
56973W        W26788  35.359   4.277  13.044
56974W        W26789  31.592  30.133  14.326
56975W        W26790  30.430  28.517   0.941
56976W        W26791  21.568   1.434  13.946
56977W        W26792   0.288  15.083  11.104
56978W        W26793   9.768  15.153  10.438
56979W        W26794   3.290   6.292  14.791
56980W        W26795  19.614  33.469  10.577
56981W        W26796  20.132  19.774  11.538
56982W        W26797  14.332  34.885  13.407
56983W        W26798  14.698  12.314  14.879
56984W        W26799  10.156   6.820   5.222
56985W        W26800   1.272  25.541  11.093
56986W        W26801  27.625  38.419   1.821
56987W        W26802  33.624  30.004   1.391
56988W        W26803   4.773   3.823   3.679
56989W        W26804   5.846  11.707   0.799
56990W        W26805  41.396  22.724  11.438
56991W        W26806  19.690  36.036   2.725
56992W        W26807  41.449  15.670  11.438
56993W        W26808   4.900  17.239  14.807
56994W        W26809  19.190  21.069  10.620
56995W        W26810  25.055  40.002   3.630
56996W        W26811  32.527  28.527  13.457
56997W        W26812  12.768  23.140  12.077
56998W        W26813   6.837  18.101   4.208
56999W        W26814  22.645   5.244  14.807
57000W        W26815  33.006   8.296   4.238
57001W        W26816   5.373  19.161   2.266
57002W        W26817  41.430  22.611   2.895
57003W        W26818  37.407  18.602   4.623
57004W        W26819  22.713  17.559   4.237
57005W        W26820  23.988  31.568   4.718
57006W        W26821   5.752   0.493  12.398
57007W        W26822  44.398  28.672  13.459
57008W        W26823   8.712  20.683   4.276
57009W        W26824  35.012  21.728   2.899
57010W        W26825  35.481  19.156   2.324
57011W        W26826  35.051  38.513  10.956
57012W        W26827  14.099  38.031  11.104
57013W        W26828  44.805  19.193  10.453
57014W        W26829  29.486  31.514   2.213
57015W        W26830  42.876  37.577  13.335
57016W        W26831  38.475  36.885   2.749
57017W        W26832   3.910   9.687   4.274
57018W        W26833  28.077  12.614   5.139
57019W        W26834   5.255  30.621  14.463
57020W        W26835  19.642   4.824  13.474
57021W        W26836  33.597  34.031  10.954
57022W        W26837   5.256   2.282   2.316
57023W        W26838  31.584  32.140  14.407
57024W        W26839  13.305  39.322  14.861
57025W        W26840   5.345  20.675   3.237
57026W        W26841   3.281  40.381  14.419
57027W        W26842  40.494  19.635   1.846
57028W        W26843  22.128  17.216   5.621
57029W        W26844  43.951   1.875   0.455
57030W        W26845  23.670  29.472   0.896
57031W        W26846  24.140  18.768   2.738
57032W        W26847  30.008  34.570   2.690
57033W        W26848   8.787  21.020   3.656
57034W        W26849  14.148  11.205   2.399
57035W        W26850  26.026  31.956   4.177
57036W        W26851  12.289   6.765  12.054
57037W        W26852  19.688  19.729  10.596
57038W        W26853  36.474  40.856   2.788
57039W        W26854  17.242   5.348  10.643
57040W        W26855  22.152  36.567  11.471
57041W        W26856  44.442  22.635  11.375
57042W        W26857  38.012  43.954   4.656
57043W        W26858  37.017  40.352  10.497
57044W        W26859  38.882  16.744   0.740
57045W        W26860   9.158   5.826  11.063
57046W        W26861   2.392  28.644   1.218
57047W        W26862   6.804  43.478   2.401
57048W        W26863  20.627   9.822  13.855
57049W        W26864   4.806   6.281   5.132
57050W        W26865  18.742  32.463   0.814
57051W        W26866  11.698  34.117  11.456
57052W        W26867   4.730  42.429  12.501
57053W        W26868  16.314  42.863   3.770
57054W        W26869   8.664  42.808  12.908
57055W        W26870  27.680   9.647  13.325
57056W        W26871   4.270  16.669  14.005
57057W        W26872  11.319  26.639  10.905
57058W        W26873  12.651  39.923  13.945
57059W        W26874  28.596  18.602  13.043
57060W        W26875  11.359   6.410  14.019
57061W        W26876  32.432  27.659  13.348
57062W        W26877  12.759  10.370   3.745
57063W        W26878  11.763  33.463  10.069
57064W        W26879  22.577  25.517  10.644
57065W        W26880  11.836  18.170  10.616
57066W        W26881  20.198  34.081   2.184
57067W        W26882  20.152  11.259  14.776
57068W        W26883  11.242  44.403  12.350
57069W        W26884  39.049  41.809   1.351
57070W        W26885  26.592  15.671   2.852
57071W        W26886  13.631  41.374   4.601
57072W        W26887   5.818  24.055   3.793
57073W        W26888  42.981  33.514  12.549
57074W        W26889  14.616   0.365  13.853
57075W        W26890   2.372  17.131  10.062
57076W        W26891  17.183   9.149  10.548
57077W        W26892  30.106  35.551  14.287
57078W        W26893  38.444  31.454   3.652
57079W        W26894  34.437   9.864   4.788
57080W        W26895  18.660  16.808   4.315
57081W        W26896   5.738   4.842   3.297
57082W        W26897  23.109  36.878  10.642
57083W        W26898   4.312  41.381   0.404
57084W        W26899  16.315  37.370   1.887
57085W        W26900  15.118  39.401  14.805
57086W        W26901  34.496  23.083  11.071
57087W        W26902   6.850   6.825  12.378
57088W        W26903  32.904   0.858   4.148
57089W        W26904   3.886  24.562  10.456
57090W        W26905  34.391  17.272   2.837
57091W        W26906  31.938   9.249   4.639
57092W        W26907  28.009   8.369   3.799
57093W        W26908   9.225  39.397   4.166
57094W        W26909  26.037  28.585   0.336
57095W        W26910  44.403  41.474  13.040
57096W        W26911  33.579  31.551   1.350
57097W        W26912  15.696  25.678   0.266
57098W        W26913  43.350   3.397  14.027
57099W        W26914  15.791  37.044  13.829
57100W        W26915  11.717  32.949  11.054
57101W        W26916  25.667  34.569   0.827
57102W        W26917  20.273   7.184   2.737
57103W        W26918  34.963  34.934  10.944
57104W        W26919   0.976  39.450  13.922
57105W        W26920  15.314   2.896  11.404
57106W        W26921   6.273  22.197  12.434
57107W        W26922  16.568  32.634   0.833
57108W        W26923  44.848  29.474  14.397
57109W        W26924   7.848  15.180   4.605
57110W        W26925  24.662  10.196  11.955
57111W        W26926  27.947  44.897  12.983
57112W        W26927  38.850   2.925  13.004
57113W        W26928  17.266  42.985   4.250
57114W        W26929  30.164  35.507  13.966
57115W        W26930  41.330  37.422  11.598
57116W        W26931  41.449  29.521   0.761
57117W        W26932  28.569  33.411  13.941
57118W        W26933  42.014  19.269   1.447
57119W        W26934   6.377  39.318  13.418
57120W        W26935  34.869  22.223  12.497
57121W        W26936  27.064  12.167   9.573
57122W        W26937  17.777  11.267  12.075
57123W        W26938  30.920  24.122   1.871
57124W        W26939  35.561  36.890   4.121
57125W        W26940   7.229   1.925  11.960
57126W        W26941  15.792  10.688  14.760
57127W        W26942  21.215  33.532  13.477
57128W        W26943  39.813   8.406  11.586
57129W        W26944  39.012  10.754   3.372
57130W        W26945  38.034  41.993   4.119
57131W        W26946  37.375   3.350  13.866
57132W        W26947   2.900  33.057   0.950
57133W        W26948  33.955  13.699  13.370
57134W        W26949  28.572  40.468   3.721
57135W        W26950  26.994  31.131   4.776
57136W        W26951  10.219   7.248   2.771
57137W        W26952  24.160  43.326  11.494
57138W        W26953  40.931  19.071  12.573
57139W        W26954  13.707  39.030   4.768
57140W        W26955  10.704  30.524  11.866
57141W        W26956  17.762   7.761   1.213
57142W        W26957  21.637  21.668   1.900
57143W        W26958  16.118  27.101   2.707
57144W        W26959  16.702  25.166  11.879
57145W        W26960  29.045  33.614   1.351
57146W        W26961  41.466  41.978  13.800
57147W        W26962  41.371  14.247   3.841
57148W        W26963   0.914  35.886  11.427
57149W        W26964  29.599  12.715   2.895
57150W        W26965  13.258  17.138   4.793
57151W        W26966  13.786  11.742   1.290
57152W        W26967  40.333  25.530  14.495
57153W        W26968   1.349  44.978   1.380
57154W        W26969  22.107  22.588  12.901
57155W        W26970   9.839  16.151  13.879
57156W        W26971  40.040  17.637  13.341
57157W        W26972   0.756  19.107  11.000
57158W        W26973   1.853  39.866   2.903
57159W        W26974  38.912  23.623   4.775
57160W        W26975  37.582   4.937  12.360
57161W        W26976  21.034   2.908   1.332
57162W        W26977   2.905  44.346   1.700
57163W        W26978  42.372  33.090  11.034
57164W        W26979   2.324  24.127   5.233
57165W        W26980   3.919  25.020   4.227
57166W        W26981  28.454  34.549  11.025
57167W        W26982  22.228  35.909   3.849
57168W        W26983  32.513  18.731  10.427
57169W        W26984  26.046  43.274  11.535
57170W        W26985  19.111  44.758  14.428
57171W        W26986  23.234   8.767   3.866
57172W        W26987  15.283   0.837  10.424
57173W        W26988  38.939  10.742  14.471
57174W        W26989   8.194  17.648   0.444
57175W        W26990  21.643  28.080   2.291
57176W        W26991  16.184   6.811   2.308
57177W        W26992   0.442  36.899   2.405
57178W        W26993  31.023  34.033   4.649
57179W        W26994   5.234  32.414  13.858
57180W        W26995  14.705   5.234  14.854
57181W        W26996   9.883   4.730  14.382
57182W        W26997  22.207   6.421  11.102
57183W        W26998  28.104  41.432  14.985
57184W        W26999  26.473  43.430  10.437
57185W        W27000  32.500  33.015  10.518
57186W        W27001   5.402  20.128  11.035
57187W        W27002  13.683   6.855  13.979
57188W        W27003   7.866  21.094  13.388
57189W        W27004  35.001  40.369  13.408
57190W        W27005  43.865  20.046   2.758
57191W        W27006  24.174  31.964   0.402
57192W        W27007  21.717  37.937   1.696
57193W        W27008  43.811  18.591  11.523
57194W        W27009  40.386   3.316  11.924
57195W        W27010  22.080  17.603  14.402
57196W        W27011  35.975  44.446  11.011
57197W        W27012  34.938   0.881   4.631
57198W        W27013  14.816  36.042  14.474
57199W        W27014  29.967  33.077  10.469
57200W        W27015  38.435  32.569   0.757
57201W        W27016   6.213  10.645  12.578
57202W        W27017  22.161   3.846  12.081
57203W        W27018  31.645  24.183  11.933
57204W        W27019  32.465   7.309  12.530
57205W        W27020  12.202   9.150   0.356
57206W        W27021  11.784   4.409   9.951
57207W        W27022  26.602  21.519  13.314
57208W        W27023  27.648   0.291   2.198
57209W        W27024  38.407  23.128   1.407
57210W        W27025  21.233  19.704   0.932
57211W        W27026  11.742  16.777   4.774
57212W        W27027  30.647  22.093   1.322
57213W        W27028  10.344   6.817   1.908
57214W        W27029  12.840  31.968  10.933
57215W        W27030  42.440  31.141   1.371
57216W        W27031  31.049  17.637  14.956
57217W        W27032   8.876  25.077   4.324
57218W        W27033  38.562   8.687  13.433
57219W        W27034   3.919  21.722   3.650
57220W        W27035  11.213   7.886   3.273
57221W        W27036  27.037  18.295  10.967
57222W        W27037  29.036  30.107  14.284
57223W        W27038  18.590  40.982   3.313
57224W        W27039  15.099  34.062   3.861
57225W        W27040  31.615   7.722  12.557
57226W        W27041  13.323  32.418   1.819
57227W        W27042   5.799  24.707   2.708
57228W        W27043  27.040  25.078   4.120
57229W        W27044  35.432  27.492   2.818
57230W        W27045  27.032   4.806  13.397
57231W        W27046  16.628  35.981  13.058
57232W        W27047  22.504  41.307   1.365
57233W        W27048   6.250   0.488   0.751
57234W        W27049  36.487  32.536  14.410
57235W        W27050  10.305   6.881  14.011
57236W        W27051   4.902   3.413  14.354
57237W        W27052  34.461  18.615   1.314
57238W        W27053  22.039  22.057  12.909
57239W        W27054  37.567  31.488   1.424
57240W        W27055  15.634  32.090  11.991
57241W        W27056   6.768   5.930   0.834
57242W        W27057  41.462   7.831  13.861
57243W        W27058  37.469  27.605  14.283
57244W        W27059  31.538  29.969  14.991
57245W        W27060  41.792   4.718   2.281
57246W        W27061  41.431  34.012   4.300
57247W        W27062   7.727  24.526  11.577
57248W        W27063  28.963  22.683  12.930
57249W        W27064  11.263  21.625  11.491
57250W        W27065  37.341   0.450  10.496
57251W        W27066   3.892   4.754  14.497
57252W        W27067  10.659  20.228  12.562
57253W        W27068  27.075  16.567  11.114
57254W        W27069  17.228  37.871  10.929
57255W        W27070  10.858  30.454   4.118
57256W        W27071   6.838  34.086   1.771
57257W        W27072   3.848   8.812  11.586
57258W        W27073  23.522  11.802   2.359
57259W        W27074   6.793  10.173  10.589
57260W        W27075  23.521   7.323   2.821
57261W        W27076  24.144   1.348  12.089
57262W        W27077   0.483  36.532   0.331
57263W        W27078  35.910  31.996  12.862
57264W        W27079  19.777  15.674   4.828
57265W        W27080   8.715  38.920  11.608
57266W        W27081  17.654  17.755   3.765
57267W        W27082  32.463  36.073   3.786
57268W        W27083  19.733   1.955  12.068
57269W        W27084  21.088  35.894   2.870
57270W        W27085  10.855   9.311   1.384
57271W        W27086  21.229  18.570  12.071
57272W        W27087   7.673  34.938   4.678
57273W        W27088  43.966   7.743   1.266
57274W        W27089  19.677  17.120   2.210
57275W        W27090  44.415   5.302  11.085
57276W        W27091  20.720  20.639   3.707
57277W        W27092  28.966  43.803  12.547
57278W        W27093  28.558  29.497   3.251
57279W        W27094  42.935  32.021   0.278
57280W        W27095  31.567  11.291  14.764
57281W        W27096  40.309  43.276   4.624
57282W        W27097  39.029  42.891  14.808
57283W        W27098  18.650   5.331  13.806
57284W        W27099  38.914  28.661  14.833
57285W        W27100  30.602  41.909  11.418
57286W        W27101   4.360  44.990   4.222
57287W        W27102  17.602  18.060  14.438
57288W        W27103  35.985  39.862  14.884
57289W        W27104  29.564  33.901  13.379
57290W        W27105  13.251  26.063  12.481
57291W        W27106  29.147   1.974  13.899
57292W        W27107  25.658  35.591  12.078
57293W        W27108  20.528  18.128  10.500
57294W        W27109  37.370   6.687   1.825
57295W        W27110  43.837  10.676  13.457
57296W        W27111  19.254  15.269   4.697
57297W        W27112  21.153   2.933  14.470
57298W        W27113  15.725  39.449   0.786
57299W        W27114  40.352   9.871  13.383
57300W        W27115  22.542  11.749   1.349
57301W        W27116   4.445  36.435  11.541
57302W        W27117  19.056   5.869  13.352
57303W        W27118  37.064  31.559  10.096
57304W        W27119  22.159  27.469   1.229
57305W        W27120  13.188  43.785  10.943
57306W        W27121  39.063  37.861  12.515
57307W        W27122  44.894  34.883   3.257
57308W        W27123  34.441  26.977  13.346
57309W        W27124   9.259  33.080   1.734
57310W        W27125  12.733  40.986   0.889
57311W        W27126  24.080  18.584   4.147
57312W        W27127   9.826   3.812  14.975
57313W        W27128  26.009  33.033   2.831
57314W        W27129   3.939  38.386  13.363
57315W        W27130   7.730  44.883   3.738
57316W        W27131  25.967  30.640   2.236
57317W        W27132  22.166  43.432  13.901
57318W        W27133  31.140  37.050   2.693
57319W        W27134  24.083  35.049  10.448
57320W        W27135  35.547  17.207   2.707
57321W        W27136  44.929  21.584  12.026
57322W        W27137  18.192  25.989  11.101
57323W        W27138  37.845   8.170  10.421
57324W        W27139  43.345  32.946  14.380
57325W        W27140  34.010  27.486  12.470
57326W        W27141   4.735  35.852  11.913
57327W        W27142  31.142  25.102   3.315
57328W        W27143  32.451   5.378   1.263
57329W        W27144  41.896  15.592  10.494
57330W        W27145  21.031  37.444  13.978
57331W        W27146   6.762  41.471  12.443
57332W        W27147   4.415  15.134  14.874
57333W        W27148  13.244  19.268   5.196
57334W        W27149  20.252  35.528  14.430
57335W        W27150   7.843  27.996   1.850
57336W        W27151  31.909  13.143   4.129
57337W        W27152  43.329  30.028  11.963
57338W        W27153   0.889   1.245   3.784
57339W        W27154  24.210   0.969   4.202
57340W        W27155  35.105   4.315   3.685
57341W        W27156  42.026   0.267  10.985
57342W        W27157   6.713  42.311  11.394
57343W        W27158  30.526  21.226  14.839
57344W        W27159  30.462  18.189  14.897
57345W        W27160  42.347   7.787   0.364
57346W        W27161  10.149   2.784   2.804
57347W        W27162   9.826   8.823   0.906
57348W        W27163  18.190   7.744  13.339
57349W        W27164   5.805  37.477   2.275
57350W        W27165  22.530   8.281  13.917
57351W        W27166  19.608   7.795   2.362
57352W        W27167   3.714   5.863  10.636
57353W        W27168  27.094  39.403  11.037
57354W        W27169   0.854  21.032  11.949
57355W        W27170  28.498  11.357   5.257
57356W        W27171   0.923  22.704  13.894
57357W        W27172  32.907  26.100   4.263
57358W        W27173   0.920   6.255  10.613
57359W        W27174  19.216  41.322   2.881
57360W        W27175  13.642  19.557   0.325
57361W        W27176  18.191   1.920   1.923
57362W        W27177  26.700  14.270  14.450
57363W        W27178  41.413  30.429  12.922
57364W        W27179  14.281  43.876   0.339
57365W        W27180  34.003  20.605   3.249
57366W        W27181   9.863  23.623  13.501
57367W        W27182  39.922  26.515  11.929
57368W        W27183  25.630  20.059  12.852
57369W        W27184  40.498  33.420  11.099
57370W        W27185  12.206  16.645   5.725
57371W        W27186   9.725  44.782  13.379
57372W        W27187  30.087  30.598   4.330
57373W        W27188  32.541  19.269  14.861
57374W        W27189  24.566  17.240   4.805
57375W        W27190   7.669  14.731   4.693
57376W        W27191  40.835  43.431  11.058
57377W        W27192  30.038   3.931  10.550
57378W        W27193  27.634  28.542  11.431
57379W        W27194  12.744  17.670  10.944
57380W        W27195  34.397  41.914   2.413
57381W        W27196  14.590  11.680   3.762
57382W        W27197  27.102  29.455   0.359
57383W        W27198   9.161   8.892  11.932
57384W        W27199  34.903  18.070   1.346
57385W        W27200  37.482  27.049  12.462
57386W        W27201  27.471  24.134   2.382
57387W        W27202  40.426  30.613  12.029
57388W        W27203  44.482  32.448   1.394
57389W        W27204  22.724  11.754   4.139
57390W        W27205  43.428  11.362  11.910
57391W        W27206   5.334   0.968   3.798
57392W        W27207  16.731   0.304  14.305
57393W        W27208  32.417  17.067   1.723
57394W        W27209  23.231   8.775  10.458
57395W        W27210  28.493  16.770   0.794
57396W        W27211  23.557  42.987  11.876
57397W        W27212  32.891  23.040  10.952
57398W        W27213  30.980  27.983   4.138
57399W        W27214   5.740  33.617  12.859
57400W        W27215   8.764  16.673   3.770
57401W        W27216   3.242  41.476  13.820
57402W        W27217  37.575  37.576  12.896
57403W        W27218  42.916  37.344   3.175
57404W        W27219  19.623  10.153   0.375
57405W        W27220  43.780  42.988   0.344
57406W        W27221   5.317   8.400   4.209
57407W        W27222  28.483  42.461   2.753
57408W        W27223  27.543   6.281  11.936
57409W        W27224   8.284  38.936  13.043
57410W        W27225  30.101   8.287  11.941
57411W        W27226  22.055  32.029   0.942
57412W        W27227  26.632  14.255   4.749
57413W        W27228  36.581  33.436  10.999
57414W        W27229  19.639  35.947  13.320
57415W        W27230  23.235  32.980  13.413
57416W        W27231  15.739   3.341  10.002
57417W        W27232  35.459  38.330   1.861
57418W        W27233  44.841  36.547   4.792
57419W        W27234  13.705  35.449  10.905
57420W        W27235  19.670  21.734   3.697
57421W        W27236  10.327  36.891  12.873
57422W        W27237   6.830  13.693  10.627
57423W        W27238  37.573  25.693   4.721
57424W        W27239   7.807   4.256  14.355
57425W        W27240  13.151   0.888  12.849
57426W        W27241  23.039  33.955  12.537
57427W        W27242   1.928  32.965   0.445
57428W        W27243  39.822  23.236  14.330
57429W        W27244   9.795  36.852  11.512
57430W        W27245  16.188  23.572   0.915
57431W        W27246  12.305   9.158  12.011
57432W        W27247  11.692  17.083   9.937
57433W        W27248  27.634  36.078   1.886
57434W        W27249   6.270  24.604  11.464
57435W        W27250  10.247   1.421   2.248
57436W        W27251  18.691   0.876   1.861
57437W        W27252   0.413  39.003   3.359
57438W        W27253   3.323  29.558  13.994
57439W        W27254  22.216  41.855   1.930
57440W        W27255   0.413  22.048   3.225
57441W        W27256  15.797   7.875   5.203
57442W        W27257  33.070  39.818  13.958
57443W        W27258  41.976  35.388  12.532
57444W        W27259  30.152  43.315   0.966
57445W        W27260  21.064   1.265   0.806
57446W        W27261  30.972   0.950   1.897
57447W        W27262  37.975   8.299   2.852
57448W        W27263   5.788  14.331   4.306
57449W        W27264   1.379  35.374   0.297
57450W        W27265  17.226   6.715   0.344
57451W        W27266  14.300  29.938  11.397
57452W        W27267  33.506  28.555  10.956
57453W        W27268  20.625   9.829   1.697
57454W        W27269  23.706  20.566   4.271
57455W        W27270  10.770  30.057  11.457
57456W        W27271  24.009  42.332   0.319
57457W        W27272  11.175  23.621  14.838
57458W        W27273  38.832  39.502   0.844
57459W        W27274  42.416  23.081   1.255
57460W        W27275  13.225  32.063   3.320
57461W        W27276  37.914  38.873   4.711
57462W        W27277   3.350  16.213   2.359
57463W        W27278  31.991  37.834  11.952
57464W        W27279  18.592  44.760  14.852
57465W        W27280  15.300  23.060   3.374
57466W        W27281  30.432  14.633  13.933
57467W        W27282  30.907  27.121  10.483
57468W        W27283  38.470  13.653  12.372
57469W        W27284  10.358   5.393  14.308
57470W        W27285  13.841  38.849  14.459
57471W        W27286  34.386   4.846  14.990
57472W        W27287  21.110  28.559  11.504
57473W        W27288   6.760  15.782  13.834
57474W        W27289  25.483  14.149  12.935
57475W        W27290  43.797  21.660   0.316
57476W        W27291  29.564   9.241   4.778
57477W        W27292  13.622  26.664   3.374
57478W        W27293  15.215  42.881   4.712
57479W        W27294   3.452  23.503   1.230
57480W        W27295  10.681  26.694   1.396
57481W        W27296  22.078  21.171   1.734
57482W        W27297   9.676   1.759  12.966
57483W        W27298  19.643   9.225  11.074
57484W        W27299  20.189  42.338  14.473
57485W        W27300   2.874  19.086  13.421
57486W        W27301  20.188  44.339   0.823
57487W        W27302  29.152  38.455   2.335
57488W        W27303  17.653  28.440  11.127
57489W        W27304  44.423  27.580   0.921
57490W        W27305   7.375   1.433   1.791
57491W        W27306  15.165   7.259  10.565
57492W        W27307  30.147   2.876  14.511
57493W        W27308  25.565  42.027   2.361
57494W        W27309  16.180  43.819   3.285
57495W        W27310  15.797   9.698  13.513
57496W        W27311  29.486  13.136   4.634
57497W        W27312  23.688  39.879   5.130
57498W        W27313  28.149  24.010  12.578
57499W        W27314   3.306   8.296  12.037
57500W        W27315  37.456  30.998   1.814
57501W        W27316  15.787  41.386   1.313
57502W        W27317   8.239  30.447  12.560
57503W        W27318  31.039  42.782  11.978
57504W        W27319  26.168  28.438  12.469
57505W        W27320   4.407  19.251  12.416
57506W        W27321  44.382  25.982   3.761
57507W        W27322  23.575   5.785  12.352
57508W        W27323  25.526  23.174   1.786
57509W        W27324  21.082  18.655  10.575
57510W        W27325   4.387  31.914   0.919
57511W        W27326  29.614  14.630  10.908
57512W        W27327  38.548  39.928  12.068
57513W        W27328  34.969  37.847   4.181
57514W        W27329  28.555  21.093   0.350
57515W        W27330  24.117  43.465  13.047
57516W        W27331  11.288  40.508  13.022
57517W        W27332  39.960  18.566  12.547
57518W        W27333  32.537  37.924   1.228
57519W        W27334  23.989   5.291   1.861
57520W        W27335  38.515   7.306  11.528
57521W        W27336  25.664  20.743  11.515
57522W        W27337  28.518  33.997   2.312
57523W        W27338  31.580  31.082  11.088
57524W        W27339   7.893  13.160   1.843
57525W        W27340   4.427  39.424   3.335
57526W        W27341  13.659  43.849  13.054
57527W        W27342  21.021   7.716   1.397
57528W        W27343  23.736  21.136   1.324
57529W        W27344   1.839  35.487   3.741
57530W        W27345  18.668  13.185  14.356
57531W        W27346  35.016  40.870  14.993
57532W        W27347  42.862  18.627   4.710
57533W        W27348  21.532   5.416  14.487
57534W        W27349  32.076  33.970   2.730
57535W        W27350  23.067   0.878  14.511
57536W        W27351   5.856   3.298   1.304
57537W        W27352  20.736   6.398  13.918
57538W        W27353  27.689  15.294   3.844
57539W        W27354  19.079  16.202   4.167
57540W        W27355  31.412  25.703  11.542
57541W        W27356   8.726   9.833  12.969
57542W        W27357  26.174   8.838  13.849
57543W        W27358  27.586  10.655   3.262
57544W        W27359  18.756  21.620  13.476
57545W        W27360  33.946   6.703   3.216
57546W        W27361  41.316  20.058   1.756
57547W        W27362  10.692   5.791   1.725
57548W        W27363  16.137  19.767   1.444
57549W        W27364  44.790  34.422   3.767
57550W        W27365  35.867  28.510   0.420
57551W        W27366  19.767   7.245   0.434
57552W        W27367  44.268   0.844  12.032
57553W        W27368  29.980  25.473   1.366
57554W        W27369  16.240   1.372   3.855
57555W        W27370  43.320  26.125   2.775
57556W        W27371  29.100   6.184   1.375
57557W        W27372  40.898  42.800  12.991
57558W        W27373   5.314  35.468   4.806
57559W        W27374  43.886  11.149  11.447
57560W        W27375  32.607   7.238  10.969
57561W        W27376  28.645  37.897   1.868
57562W        W27377  43.901  19.759   3.711
57563W        W27378  34.898  38.384   0.480
57564W        W27379  42.977   0.937   4.252
57565W        W27380  39.400  28.660   1.277
57566W        W27381  28.095  19.686   3.226
57567W        W27382  20.555  16.184   1.328
57568W        W27383  19.551  27.010  13.899
57569W        W27384  37.582  23.007   0.274
57570W        W27385  18.641  18.119  12.084
57571W        W27386  20.273   5.779   2.396
57572W        W27387  32.925  22.632  11.482
57573W        W27388  38.365  43.386   3.777
57574W        W27389   3.344  18.568  10.541
57575W        W27390  29.511  11.324  12.056
57576W        W27391  39.518   9.359   3.737
57577W        W27392  28.623  21.537  14.001
57578W        W27393   3.433  42.934  13.545
57579W        W27394  15.661   6.379  14.398
57580W        W27395  34.425  27.581  14.403
57581W        W27396  39.499   1.761   3.191
57582W        W27397   3.895  40.952   4.252
57583W        W27398  15.700  34.989   2.838
57584W        W27399  29.476  23.081  11.942
57585W        W27400  16.133  14.723   0.943
57586W        W27401  32.123  19.078  14.307
57587W        W27402  39.394  26.177  12.361
57588W        W27403  18.236  28.027  14.777
57589W        W27404   2.818  31.639  12.054
57590W        W27405  30.043  32.027   4.736
57591W        W27406  14.732  35.027  11.968
57592W        W27407   1.464   8.770   1.753
57593W        W27408   3.897  15.156   3.380
57594W        W27409  21.607   5.402   1.850
57595W        W27410  34.070   9.747  14.835
57596W        W27411  44.907  18.106   3.332
57597W        W27412  31.915   5.696  14.023
57598W        W27413  42.861  26.145   1.700
57599W        W27414   0.430   4.400   2.190
57600W        W27415  34.051  20.737  12.566
57601W        W27416   5.334  19.104  11.980
57602W        W27417  10.345  31.086   1.343
57603W        W27418  31.484  19.283  13.489
57604W        W27419  15.090  36.411  13.018
57605W        W27420  23.986  29.016   3.866
57606W        W27421  21.713  25.565   2.721
57607W        W27422  44.333  29.060   3.870
57608W        W27423  10.339  22.506  11.900
57609W        W27424  26.060  39.843  10.419
57610W        W27425  30.559   5.789  13.039
57611W        W27426  10.732  40.021   0.354
57612W        W27427  14.802  23.081   4.632
57613W        W27428  17.125   4.381   3.169
57614W        W27429  15.213   4.260  12.848
57615W        W27430  24.499  23.023   0.816
57616W        W27431  16.691  42.792   2.669
57617W        W27432  27.156  28.670   1.899
57618W        W27433  44.347   5.845  13.995
57619W        W27434  12.802  30.581  14.824
57620W        W27435  13.196  22.131  14.384
57621W        W27436  26.662   6.894   4.727
57622W        W27437  20.740  13.194   1.907
57623W        W27438  37.505  25.115  10.560
57624W        W27439  10.810  14.117   4.141
57625W        W27440  37.052  39.866   4.677
57626W        W27441  40.389  20.037  12.075
57627W        W27442  21.258  28.092  13.935
57628W        W27443  27.088   8.778  11.468
57629W        W27444  23.730  35.861  11.879
57630W        W27445  19.633  33.039   4.178
57631W        W27446  19.061  13.735  11.101
57632W        W27447  29.130  28.450  12.432
57633W        W27448  26.053  27.156  10.976
57634W        W27449  42.370  37.417  10.570
57635W        W27450   9.298  34.935  13.338
57636W        W27451  35.590  19.598  12.487
57637W        W27452  40.039  26.000  14.971
57638W        W27453   5.351  38.859  13.994
57639W        W27454  27.651  29.130   3.149
57640W        W27455  40.442  18.278  13.975
57641W        W27456  36.423  13.178  11.929
57642W        W27457   2.471  41.397   5.108
57643W        W27458  29.587  21.183   3.214
57644W        W27459  10.213  22.155  11.579
57645W        W27460  23.111  37.539   4.197
57646W        W27461  13.810  24.107  11.076
57647W        W27462  33.532  36.418  10.433
57648W        W27463  44.319  35.972   0.397
57649W        W27464  42.338  35.089   1.403
57650W        W27465  39.954  35.538   1.786
57651W        W27466  42.392   4.239  10.543
57652W        W27467  17.263  32.953   4.811
57653W        W27468   7.731  41.908  13.348
57654W        W27469  14.312  15.726   3.695
57655W        W27470  24.677  21.214  14.876
57656W        W27471  36.049  31.574   5.760
57657W        W27472  42.525  37.026  13.064
57658W        W27473  19.647   2.309  12.507
57659W        W27474  25.963  20.706  11.001
57660W        W27475  22.049  22.739   0.775
57661W        W27476   6.363  28.069   3.365
57662W        W27477  14.652  42.501  12.491
57663W        W27478  34.416  15.267   2.341
57664W        W27479  22.036  34.957   4.223
57665W        W27480  10.638  36.992   2.846
57666W        W27481  34.374  30.999   0.274
57667W        W27482  42.449   2.332  13.353
57668W        W27483   6.687  17.101  12.411
57669W        W27484   5.327  31.054   2.202
57670W        W27485   9.194  24.665   2.766
57671W        W27486  26.014  40.896  10.946
57672W        W27487   0.321  30.539   0.300
57673W        W27488   0.442  30.161  12.517
57674W        W27489  42.975  39.880  12.466
57675W        W27490   3.258  15.583  10.419
57676W        W27491  38.873  23.124   1.846
57677W        W27492  44.275  16.753   2.859
57678W        W27493  13.733  42.430  12.411
57679W        W27494  25.197  25.537   3.702
57680W        W27495  37.853  37.887   3.711
57681W        W27496  42.959  27.188   0.387
57682W        W27497   7.785  40.474  13.537
57683W        W27498  29.997  17.082  13.986
57684W        W27499  14.110   3.306   3.814
57685W        W27500   3.339   7.329   0.917
57686W        W27501  38.887  13.769   1.789
57687W        W27502  38.017  30.550  12.836
57688W        W27503  44.831  41.480  14.817
57689W        W27504  38.561  31.112  13.799
57690W        W27505  10.719   8.261  12.569
57691W        W27506   7.709  17.620  12.059
57692W        W27507  32.461  20.715   3.342
57693W        W27508  37.580  29.620   5.089
57694W        W27509  36.528  28.184  11.605
57695W        W27510   8.683  19.701   4.285
57696W        W27511  18.718  42.433   1.236
57697W        W27512  39.859  19.113   1.441
57698W        W27513  41.397   3.855  14.888
57699W        W27514   4.254  10.188  13.498
57700W        W27515  29.528  20.712  12.411
57701W        W27516  29.519  39.423   2.664
57702W        W27517  15.673  25.110   5.291
57703W        W27518  12.220  32.405  10.457
57704W        W27519   1.397   7.905   1.836
57705W        W27520  29.948  10.363  12.949
57706W        W27521  36.906  26.192   0.938
57707W        W27522  22.034  40.938   0.832
57708W        W27523   1.327  23.225  11.881
57709W        W27524  11.334  43.976  14.020
57710W        W27525  15.211  15.089   3.848
57711W        W27526  39.909  10.339   4.652
57712W        W27527  23.586  30.009  14.478
57713W        W27528  26.496  42.334   1.328
57714W        W27529  25.495  36.532  12.856
57715W        W27530  27.995   7.403  12.946
57716W        W27531   4.862  13.675  12.498
57717W        W27532  29.121  22.714   0.459
57718W        W27533  28.945  34.922   0.746
57719W        W27534  13.700  40.475   0.789
57720W        W27535  20.719   9.742   1.409
57721W        W27536  38.402  17.200  14.406
57722W        W27537  26.598  32.909  13.494
57723W        W27538  32.074  21.535   1.859
57724W        W27539  30.012  32.474   1.267
57725W        W27540  27.035   6.731   0.279
57726W        W27541  13.274  10.672  10.935
57727W        W27542   1.439  17.061  14.336
57728W        W27543  35.542  18.093  12.485
57729W        W27544  33.009   6.373  14.944
57730W        W27545  40.805  35.989   0.836
57731W        W27546   9.765  19.171  14.307
57732W        W27547   6.320  27.097   2.853
57733W        W27548  15.701  34.103   0.830
57734W        W27549   9.239  35.950  13.008
57735W        W27550   0.353   4.933  10.509
57736W        W27551  27.010   7.252  11.579
57737W        W27552  31.576  10.259   1.353
57738W        W27553  18.573  16.305   2.736
57739W        W27554   0.943  29.984  14.975
57740W        W27555  14.813   6.896   3.374
57741W        W27556  41.535  16.191   5.204
57742W        W27557  41.789  32.399   4.326
57743W        W27558  27.185  36.431  11.073
57744W        W27559  31.105  35.359   0.748
57745W        W27560  22.125  37.437  13.521
57746W        W27561  39.380  24.029  14.857
57747W        W27562  20.524  13.193   3.264
57748W        W27563  42.024  17.222  12.056
57749W        W27564  32.965   3.307   0.410
57750W        W27565  21.676  44.892  13.333
57751W        W27566   1.263  32.476  11.905
57752W        W27567   7.322   5.432   1.405
57753W        W27568   1.332  26.000  11.104
57754W        W27569  35.060   2.799  12.356
57755W        W27570  35.444   3.886   4.732
57756W        W27571  32.583  42.444  14.790
57757W        W27572  42.879  32.139  10.099
57758W        W27573  29.427   2.372  11.117
57759W        W27574  43.366  14.242  12.065
57760W        W27575  20.168   2.259   2.664
57761W        W27576  21.213  39.819  12.438
57762W        W27577  38.427   6.745  11.859
57763W        W27578   1.375  12.687   3.369
57764W        W27579  24.227   2.426  12.048
57765W        W27580  31.106   9.187  13.354
57766W        W27581  13.602   8.313  11.011
57767W        W27582  13.105  34.384  10.024
57768W        W27583  32.927  44.818  12.437
57769W        W27584  44.471  22.162   4.767
57770W        W27585  19.063  32.479   1.932
57771W        W27586  19.209  10.146   3.760
57772W        W27587  27.067  37.076  13.851
57773W        W27588   1.742   1.931  10.956
57774W        W27589   6.327   5.820   4.170
57775W        W27590  25.645   7.889   2.789
57776W        W27591   8.307  12.709   1.328
57777W        W27592  28.526  14.652  11.087
57778W        W27593  14.613  32.902  13.864
57779W        W27594  17.646  12.183  11.015
57780W        W27595   7.255  20.657   4.805
57781W        W27596   1.273   3.796   0.753
57782W        W27597  14.185  29.598   1.818
57783W        W27598   1.269  39.457   1.277
57784W        W27599  12.772  26.968  10.921
57785W        W27600  21.720  17.610  11.887
57786W        W27601  42.298   3.402  14.945
57787W        W27602  35.507  27.596  10.912
57788W        W27603   3.327  41.523   2.666
57789W        W27604  43.384  23.592  13.489
57790W        W27605  32.955  18.725   3.382
57791W        W27606  25.215  27.495  11.603
57792W        W27607   5.761  19.664  11.076
57793W        W27608   4.776  26.046   0.406
57794W        W27609  24.095  38.552  12.851
57795W        W27610  36.348  24.111   2.880
57796W        W27611  29.428  15.696  10.462
57797W        W27612  33.914  16.674   4.304
57798W        W27613  12.710   2.940   1.918
57799W        W27614  24.552   3.762  14.962
57800W        W27615  23.601   3.235   1.367
57801W        W27616  24.567  10.872  10.418
57802W        W27617  17.605   0.254  10.968
57803W        W27618  33.571  36.487   3.356
57804W        W27619  42.396  21.167  12.996
57805W        W27620  16.722   5.908  13.347
57806W        W27621  39.369  41.330   5.199
57807W        W27622  19.121   6.394  13.496
57808W        W27623  10.324  16.167  11.910
57809W        W27624  24.679   7.213   2.690
57810W        W27625  32.011  14.302   1.806
57811W        W27626  37.344  30.057  14.885
57812W        W27627  16.251  33.434  11.604
57813W        W27628  13.307  16.293   0.431
57814W        W27629  34.531  23.670   0.322
57815W        W27630   9.887  28.052   2.836
57816W        W27631  27.617  31.428   0.898
57817W        W27632  18.598  39.889  10.538
57818W        W27633  37.960   6.864   2.862
57819W        W27634  42.457  10.357  14.875
57820W        W27635   4.896  11.257   3.375
57821W        W27636  21.063   2.747  13.048
57822W        W27637  27.639  20.568   2.769
57823W        W27638  22.066   3.232  11.479
57824W        W27639  10.266  26.535   2.373
57825W        W27640  12.348  21.730   2.243
57826W        W27641   2.954  22.230   2.359
57827W        W27642   4.801  12.211   5.220
57828W        W27643  35.470   0.377   4.352
57829W        W27644  42.917  38.046   1.315
57830W        W27645  18.577  26.064  11.420
57831W        W27646   3.727  10.232  11.505
57832W        W27647  42.484   9.766  11.874
57833W        W27648   8.899   3.311  13.324
57834W        W27649  12.310  30.102  13.817
57835W        W27650  40.871  40.876  14.308
57836W        W27651  17.136  28.072   2.398
57837W        W27652   6.263  32.981  12.894
57838W        W27653  13.304  41.821   0.370
57839W        W27654   8.825  25.542  13.441
57840W        W27655  29.573   4.249  13.942
57841W        W27656  27.517  15.585  13.042
57842W        W27657  22.541  37.347   4.677
57843W        W27658  33.117  20.048  11.885
57844W        W27659   4.729   8.172   3.674
57845W        W27660  12.286  24.133   3.675
57846W        W27661  31.488  14.117  14.448
57847W        W27662   4.885   4.882   2.328
57848W        W27663   0.459  15.600  13.791
57849W        W27664  40.917  14.158   0.908
57850W        W27665  38.944   8.683  11.859
57851W        W27666   1.296  29.150  12.473
57852W        W27667   2.964   6.817   0.932
57853W        W27668  19.544   4.857   3.301
57854W        W27669  29.038   3.367   3.321
57855W        W27670  22.557   8.701  12.037
57856W        W27671   7.769  14.206  13.994
57857W        W27672   9.844  32.940   0.770
57858W        W27673  17.238  32.604   0.911
57859W        W27674  29.657   3.233   2.845
57860W        W27675   3.254  28.037   5.196
57861W        W27676   1.471  40.885   2.237
57862W        W27677  13.223  19.188   1.869
57863W        W27678   5.341  40.304  11.903
57864W        W27679  14.610   9.871  13.967
57865W        W27680  27.495  11.221   3.233
57866W        W27681  31.061   2.440   1.325
57867W        W27682   9.158  41.367   5.785
57868W        W27683   6.311  21.638  11.376
57869W        W27684  11.655   8.766   2.296
57870W        W27685  30.449  18.050   1.797
57871W        W27686  23.196  18.663  14.901
57872W        W27687  30.492  10.209  14.838
57873W        W27688  30.962  15.106  13.516
57874W        W27689   4.331  25.203   0.924
57875W        W27690  33.397  15.090  11.967
57876W        W27691  26.102  31.962  10.425
57877W        W27692  20.737  30.620  13.972
57878W        W27693   4.835  21.572   3.869
57879W        W27694  33.020  39.016  10.549
57880W        W27695   2.364   8.859   4.327
57881W        W27696   9.805  31.546   3.812
57882W        W27697  21.233  16.793   4.335
57883W        W27698   1.450  10.193  10.117
57884W        W27699  18.118  39.317  11.069
57885W        W27700  31.595  18.599   2.765
57886W        W27701  14.298  20.130   2.701
57887W        W27702  34.917  40.907   2.785
57888W        W27703  28.157  31.459   4.733
57889W        W27704  26.542  36.877   1.371
57890W        W27705  13.776   3.806   4.799
57891W        W27706  35.911  12.352   4.226
57892W        W27707  44.851  24.998  12.399
57893W        W27708  34.953  24.000  10.510
57894W        W27709   6.404   3.852   0.809
57895W        W27710   6.423  33.417  12.966
57896W        W27711   4.773  13.690  11.005
57897W        W27712   1.298  29.626   3.733
57898W        W27713  38.391   6.415   4.169
57899W        W27714  31.477  39.523   2.875
57900W        W27715   4.378  14.651   4.808
57901W        W27716  31.984  13.604  12.386
57902W        W27717  15.247  28.584  14.834
57903W        W27718  42.466   7.710   0.888
57904W        W27719   6.363   4.423  12.398
57905W        W27720  10.158  43.841   4.167
57906W        W27721  27.511  22.678   0.413
57907W        W27722  33.444  37.371  11.419
57908W        W27723  35.910  32.402  11.978
57909W        W27724  44.007  39.426  14.495
57910W        W27725  38.921   4.812   0.873
57911W        W27726  21.731  27.498  13.851
57912W        W27727  31.032  23.187   2.354
57913W        W27728  35.410  31.412   1.286
57914W        W27729  19.218  41.911   4.345
57915W        W27730  44.280   5.425  13.040
57916W        W27731  29.453  28.999  12.855
57917W        W27732  27.480  44.993   0.442
57918W        W27733  44.466   0.825   0.282
57919W        W27734  13.641  39.065   4.198
57920W        W27735  11.628  24.213   0.952
57921W        W27736  32.990  33.067   3.157
57922W        W27737   3.346  32.080  13.981
57923W        W27738   6.764   7.884   1.247
57924W        W27739  18.131   2.471   4.131
57925W        W27740  28.178  22.126  13.309
57926W        W27741  28.584  32.394   1.865
57927W        W27742  23.002   0.794  12.878
57928W        W27743  34.921  26.674  14.443
57929W        W27744  37.839  36.487  12.537
57930W        W27745  35.531  19.711   1.767
57931W        W27746  16.312  43.862   4.645
57932W        W27747  11.788  43.781   0.796
57933W        W27748  32.924   2.753  12.571
57934W        W27749  43.366  28.966   2.738
57935W        W27750  40.912  31.010   3.302
57936W        W27751  42.901  23.645  14.456
57937W        W27752  38.477  24.486  12.352
57938W        W27753  27.477   2.948  11.989
57939W        W27754  44.980  35.913  14.933
57940W        W27755  12.121  31.110   0.330
57941W        W27756  28.615  17.146   4.649
57942W        W27757  19.263  21.235   1.923
57943W        W27758  20.683  14.239   0.414
57944W        W27759  25.595  25.000  11.558
57945W        W27760  31.414   0.955  14.818
57946W        W27761   8.324  37.417   1.824
57947W        W27762  14.796  28.975   4.782
57948W        W27763   0.899  12.318  13.994
57949W        W27764  24.056   0.917   4.732
57950W        W27765  24.681  16.570   5.655
57951W        W27766  25.978  31.036  10.440
57952W        W27767  35.478  18.572  11.455
57953W        W27768  35.021   3.428  10.550
57954W        W27769   6.715  19.703  14.903
57955W        W27770  43.437  32.131  11.470
57956W        W27771  37.534  25.522   2.335
57957W        W27772  22.126  19.543  10.571
57958W        W27773  20.690  44.265   2.354
57959W        W27774  39.008  17.608  12.999
57960W        W27775  26.975  27.953   3.649
57961W        W27776  36.590  16.636   2.182
57962W        W27777  38.380  44.351  14.509
57963W        W27778   0.773  33.462   0.779
57964W        W27779   1.483  23.595  14.398
57965W        W27780  14.254   6.194  11.016
57966W        W27781  31.140  41.830  10.557
57967W        W27782  32.474  18.099  14.319
57968W        W27783   6.858  33.450   1.379
57969W        W27784   5.797  31.093  12.425
57970W        W27785  20.603  39.364   2.859
57971W        W27786   6.237  28.659  10.891
57972W        W27787  13.795  35.905  10.613
57973W        W27788   9.268   9.652  14.815
57974W        W27789  10.309   1.894   4.301
57975W        W27790  38.927  32.521   3.861
57976W        W27791  41.538  20.769   0.360
57977W        W27792  23.726  16.674   0.776
57978W        W27793  34.955  39.534   2.809
57979W        W27794  33.404   6.897  12.342
57980W        W27795  19.143  29.082  12.055
57981W        W27796  38.863  23.170   2.773
57982W        W27797  33.586  20.628  11.907
57983W        W27798  14.697  17.164   0.818
57984W        W27799  25.541   6.292  13.891
57985W        W27800  31.442   6.181   0.307
57986W        W27801  41.304  25.555   4.266
57987W        W27802  39.482  19.657  11.436
57988W        W27803  16.144  23.637  14.016
57989W        W27804  10.745  30.432   2.405
57990W        W27805  28.680  24.545  12.868
57991W        W27806  22.714   8.835  13.448
57992W        W27807  21.513  41.788  10.636
57993W        W27808  31.486  29.434   1.252
57994W        W27809  24.721  19.736  13.872
57995W        W27810  32.447  42.409   3.640
57996W        W27811  17.111  19.195  13.454
57997W        W27812   7.865  18.279  13.831
57998W        W27813   7.821   9.709  11.989
57999W        W27814  25.083  40.437  11.894
58000W        W27815  10.335  23.717   4.117
58001W        W27816  14.279  36.384  11.455
58002W        W27817  25.470  35.005  14.496
58003W        W27818  33.131  28.067   1.245
58004W        W27819  14.778  37.027   0.243
58005W        W27820  44.781  21.565  13.037
58006W        W27821  10.725  39.049  11.094
58007W        W27822  41.976  16.746  13.890
58008W        W27823  16.229  38.356   2.273
58009W        W27824   3.883  34.030   1.369
58010W        W27825  29.086   5.930  12.368
58011W        W27826  37.337  10.313  11.475
58012W        W27827  41.320   6.221  12.448
58013W        W27828  34.435  41.921  12.942
58014W        W27829  36.082  27.656   2.883
58015W        W27830  11.277  28.081  12.367
58016W        W27831  43.987  38.566   0.430
58017W        W27832  24.176  25.604  13.877
58018W        W27833  26.990  30.535  14.461
58019W        W27834  44.957  10.774   0.452
58020W        W27835   1.273  41.796  10.421
58021W        W27836  26.959  22.621  14.287
58022W        W27837  36.370  35.042   4.723
58023W        W27838   3.894   5.254  11.921
58024W        W27839  22.701  17.228   2.284
58025W        W27840   9.864  16.769   0.935
58026W        W27841  30.498  23.621   1.860
58027W        W27842  37.057  43.894  12.942
58028W        W27843   5.901  44.760   4.788
58029W        W27844   9.261  20.233   1.397
58030W        W27845  39.391  25.518   4.685
58031W        W27846  44.755  15.609  12.345
58032W        W27847  17.668  37.520  11.461
58033W        W27848  35.490  40.919   0.843
58034W        W27849  22.145  39.922  12.852
58035W        W27850  38.820   1.811  12.091
58036W        W27851   8.323  41.866  10.547
58037W        W27852  42.374  31.113   0.416
58038W        W27853  18.201  24.220   4.681
58039W        W27854  12.840  26.163   3.768
58040W        W27855  42.464   8.270  12.550
58041W        W27856  29.142  16.193   0.803
58042W        W27857   1.769  41.423   0.786
58043W        W27858   7.850  29.466   0.802
58044W        W27859  32.886  40.419  14.955
58045W        W27860  11.356  15.758  13.023
58046W        W27861  10.202  14.600  12.393
58047W        W27862  10.294  25.065   0.872
58048W        W27863  25.180  13.220  12.031
58049W        W27864  29.083   5.770  13.890
58050W        W27865  10.183   8.232   1.404
58051W        W27866  10.246   5.906  10.930
58052W        W27867  33.514  30.545   5.176
58053W        W27868  39.515  29.006  13.892
58054W        W27869  21.538  30.005  12.092
58055W        W27870  10.674  14.325  14.023
58056W        W27871   5.215   6.723   1.440
58057W        W27872  12.733  36.454   0.944
58058W        W27873  33.975  36.538  12.544
58059W        W27874  33.560  11.225  14.298
58060W        W27875  18.654  28.122   4.337
58061W        W27876  26.187  42.826   4.155
58062W        W27877  15.795  39.828   0.418
58063W        W27878   1.415  42.316   1.377
58064W        W27879   5.395  25.100  11.446
58065W        W27880  22.023  25.709   4.308
58066W        W27881   5.925   3.758  12.553
58067W        W27882  32.483  40.911  12.399
58068W        W27883  30.143   3.322   2.353
58069W        W27884  36.456  35.064   1.838
58070W        W27885   2.932   2.760   1.699
58071W        W27886  15.301  31.997   2.268
58072W        W27887  34.413  39.499  12.075
58073W        W27888  44.954  16.281  12.952
58074W        W27889  36.542   8.406  11.012
58075W        W27890  16.114  42.781  14.848
58076W        W27891  23.088  35.959  13.060
58077W        W27892  15.126  37.837   4.801
58078W        W27893  34.011  20.071   3.227
58079W        W27894  24.596  27.023  13.452
58080W        W27895   2.337  37.545  10.140
58081W        W27896  32.588   6.916  14.403
58082W        W27897   2.797  19.633  11.496
58083W        W27898  31.972  26.005  13.420
58084W        W27899  42.507   6.346  11.568
58085W        W27900  30.056  25.632  13.459
58086W        W27901  17.233  26.054  10.636
58087W        W27902  19.110   2.919  13.529
58088W        W27903  42.851  36.018  12.058
58089W        W27904  36.946   2.806  14.342
58090W        W27905  27.189  33.892   4.796
58091W        W27906   2.948   6.889   2.179
58092W        W27907  37.520  17.267  11.088
58093W        W27908  36.913  37.368  10.439
58094W        W27909  18.056  10.689  14.345
58095W        W27910  42.409   9.716   3.297
58096W        W27911  40.346  12.351  11.528
58097W        W27912  36.953  16.115  14.796
58098W        W27913   6.207  40.025   0.733
58099W        W27914  12.250   3.413  10.981
58100W        W27915  14.745  36.362  13.321
58101W        W27916  35.528   8.833  13.397
58102W        W27917  15.738   6.265  13.897
58103W        W27918   7.875  37.507  10.471
58104W        W27919  19.705  14.700  14.886
58105W        W27920  40.359  12.324  14.990
58106W        W27921   4.845  13.807   4.599
58107W        W27922  39.450  24.117   4.624
58108W        W27923   2.924  24.154   1.419
58109W        W27924  14.831   3.433   2.355
58110W        W27925   3.896   1.285  12.354
58111W        W27926  44.966   9.379  11.550
58112W        W27927  35.918  15.620  11.374
58113W        W27928  10.654  31.443   3.717
58114W        W27929   8.209   8.701  11.007
58115W        W27930  31.110  14.239  11.459
58116W        W27931  39.027  33.106  13.005
58117W        W27932   5.868  42.848   4.668
58118W        W27933  23.634  26.961  13.377
58119W        W27934  33.412  23.727   4.279
58120W        W27935  23.170   9.655   2.398
58121W        W27936  14.238  31.619   3.786
58122W        W27937  26.061   4.770   4.118
58123W        W27938   5.402  36.467   2.739
58124W        W27939  29.426  44.362   2.844
58125W        W27940  35.495  35.931  10.906
58126W        W27941   2.398   7.349  12.350
58127W        W27942  37.967   1.879   1.280
58128W        W27943   7.736  25.994  11.400
58129W        W27944  43.278  20.173   1.894
58130W        W27945  13.107   6.884   2.694
58131W        W27946   5.802   8.277  10.575
58132W        W27947  31.907  10.646  12.557
58133W        W27948  27.178  28.160  11.390
58134W        W27949   3.440  23.074  11.499
58135W        W27950  37.559  28.069  14.005
58136W        W27951  42.848  10.337   4.289
58137W        W27952  27.049   4.294   1.242
58138W        W27953   7.238   5.371  11.051
58139W        W27954  40.464  21.602   4.157
58140W        W27955   9.201  24.165   3.726
58141W        W27956  17.100  34.079   2.743
58142W        W27957  34.981   6.727  10.535
58143W        W27958  35.378  26.461   3.305
58144W        W27959   6.704  35.040   2.730
58145W        W27960  21.249  14.766  11.061
58146W        W27961  43.337  19.617  14.394
58147W        W27962  40.961  19.666   3.269
58148W        W27963   3.345   1.260   3.663
58149W        W27964   0.486  33.105  12.011
58150W        W27965  41.972  10.716   3.193
58151W        W27966  19.140   1.754   4.697
58152W        W27967  26.473  11.218  10.080
58153W        W27968  32.476  15.088   3.760
58154W        W27969  24.143  25.197   5.299
58155W        W27970  28.601  14.153  14.766
58156W        W27971  27.615  21.520   1.241
58157W        W27972  37.398   0.988  14.451
58158W        W27973  15.817  25.985  14.464
58159W        W27974  27.499  33.483  13.501
58160W        W27975   0.252  39.507  10.498
58161W        W27976   0.884  18.642   2.329
58162W        W27977   8.708  30.577  10.501
58163W        W27978   2.937  42.393  12.456
58164W        W27979   2.376  30.044  10.629
58165W        W27980  29.008  38.055   3.219
58166W        W27981  20.570  41.923   2.672
58167W        W27982  41.996  22.724  14.780
58168W        W27983  19.632  13.600  13.041
58169W        W27984   2.427   7.711  12.834
58170W        W27985   6.266  29.028   0.926
58171W        W27986   0.956  40.842  12.549
58172W        W27987  30.629   2.822  12.845
58173W        W27988  43.372  43.946   1.408
58174W        W27989  43.913  35.883   1.387
58175W        W27990  14.608  43.935   3.863
58176W        W27991  31.019  13.631  14.802
58177W        W27992  22.663  33.102  12.389
58178W        W27993  25.116  38.562   3.379
58179W        W27994  40.957  11.182   4.800
58180W        W27995  26.467  32.094   4.259
58181W        W27996  13.140   5.754   0.435
58182W        W27997  31.035  26.196   4.330
58183W        W27998  18.715   3.888   0.460
58184W        W27999   3.801  23.609  11.020
58185W        W28000  24.521  10.713  13.352
58186W        W28001  16.660  30.003   0.464
58187W        W28002  23.541  42.997  13.472
58188W        W28003   1.904  10.874   4.762
58189W        W28004  19.637   8.743   4.632
58190W        W28005   8.195  13.785   3.853
58191W        W28006  30.414  14.595  11.522
58192W        W28007  34.550   4.266   3.737
58193W        W28008  41.041  39.895   3.676
58194W        W28009   7.349  21.030  12.003
58195W        W28010  44.483  36.511  10.619
58196W        W28011   6.854  24.565   0.467
58197W        W28012  43.419  43.822  14.877
58198W        W28013  10.666  36.956  13.490
58199W        W28014  37.832  32.075   3.147
58200W        W28015  10.754  39.992  14.377
58201W        W28016  44.490  36.863  12.033
58202W        W28017   2.812  39.913  11.525
58203W        W28018  17.176  30.544  14.356
58204W        W28019  26.511  44.003  11.408
58205W        W28020  39.551  17.582   3.807
58206W        W28021  15.679  21.605   1.293
58207W        W28022  11.372  28.974  11.554
58208W        W28023  10.298  40.931  14.493
58209W        W28024   8.220  40.483  10.967
58210W        W28025  30.613  41.474   1.730
58211W        W28026  44.463  21.554   5.154
58212W        W28027  36.404   8.758   2.221
58213W        W28028  23.116  19.198   3.697
58214W        W28029  30.481  30.082   2.860
58215W        W28030  10.841  28.956  12.410
58216W        W28031  28.149  38.044   3.168
58217W        W28032   2.278  12.663   4.275
58218W        W28033  34.547   7.180   4.241
58219W        W28034  27.176   1.929  12.452
58220W        W28035  25.493  39.467  11.488
58221W        W28036  36.436   4.882   0.855
58222W        W28037  41.882  32.098   4.147
58223W        W28038  14.164   2.342   0.966
58224W        W28039  33.622   8.403   5.222
58225W        W28040  11.840  43.313   3.262
58226W        W28041   9.706   2.356  12.062
58227W        W28042  22.082  39.476  13.875
58228W        W28043  12.800  21.080  11.106
58229W        W28044  18.063  26.091  12.562
58230W        W28045  12.688  43.883  12.878
58231W        W28046  18.064  10.376   1.265
58232W        W28047  31.951  27.041  10.511
58233W        W28048  20.081   4.834   4.760
58234W        W28049  19.765  39.431   2.209
58235W        W28050  22.999  31.930  14.838
58236W        W28051  10.820  13.678   0.914
58237W        W28052  15.707  43.377  12.084
58238W        W28053  29.584  29.486  11.936
58239W        W28054  39.972  15.317  10.462
58240W        W28055  44.940  18.198  10.628
58241W        W28056  23.592   2.253   4.716
58242W        W28057  39.349   3.401  12.396
58243W        W28058   9.701  23.724   3.175
58244W        W28059  32.091  37.568   4.699
58245W        W28060  28.540  10.261   2.357
58246W        W28061  35.934  30.029   2.208
58247W        W28062  29.940   0.379  13.514
58248W        W28063  23.083  43.300  13.877
58249W        W28064  15.323   7.335   1.303
58250W        W28065  27.087   9.728   3.743
58251W        W28066  43.409  15.639   1.801
58252W        W28067  27.954   7.264   3.747
58253W        W28068   4.450   1.354  11.057
58254W        W28069  41.350  18.247   2.872
58255W        W28070  28.659  20.719   2.781
58256W        W28071  24.996   6.771  14.975
58257W        W28072  31.071  17.630  13.507
58258W        W28073   0.977  21.195   3.657
58259W        W28074   8.242  41.927  11.060
58260W        W28075  14.600   2.433   0.293
58261W        W28076   7.725  41.986  10.124
58262W        W28077  14.608  23.606   0.790
58263W        W28078  13.329  17.148   3.658
58264W        W28079  35.031  25.083   4.765
58265W        W28080  44.335  23.030   4.210
58266W        W28081  34.475   3.810   0.297
58267W        W28082  28.596  28.621  13.526
58268W        W28083  22.078  38.506  13.365
58269W        W28084  41.939  30.045  12.571
58270W        W28085  13.351  14.760   1.741
58271W        W28086  28.535  14.704  12.574
58272W        W28087  17.734  22.537   2.857
58273W        W28088  37.393  32.433  12.570
58274W        W28089   1.355   2.258  12.956
58275W        W28090  34.518   3.803   0.733
58276W        W28091  37.547   4.892  11.074
58277W        W28092  36.574  30.019  13.904
58278W        W28093   1.763  26.626   2.835
58279W        W28094  16.233  44.309  14.502
58280W        W28095  37.920  23.671   2.230
58281W        W28096  14.678  21.150   2.812
58282W        W28097  38.841  30.580   1.780
58283W        W28098   4.872  33.494  10.518
58284W        W28099   4.750  44.305  10.149
58285W        W28100  44.841   6.764  10.979
58286W        W28101  23.583   1.743  14.440
58287W        W28102   7.317  35.582  11.870
58288W        W28103  12.649  19.281  14.286
58289W        W28104  29.975  25.178   4.193
58290W        W28105  18.766  14.106  11.526
58291W        W28106   8.386  43.941  13.431
58292W        W28107  25.084  34.035  10.578
58293W        W28108  28.998   9.862   2.381
58294W        W28109  38.498  24.631  13.018
58295W        W28110  18.579  28.481   3.800
58296W        W28111   0.846  30.453  12.429
58297W        W28112  22.165  11.746   2.221
58298W        W28113  38.339  27.046   3.268
58299W        W28114  10.329  37.363  12.508
58300W        W28115  26.527  36.985   4.830
58301W        W28116  23.104   1.739  14.835
58302W        W28117   6.772  11.712  10.455
58303W        W28118  13.216  39.535  11.988
58304W        W28119  32.495   3.431  12.063
58305W        W28120  21.728  20.120  14.981
58306W        W28121  28.650  17.074  14.421
58307W        W28122  41.847  25.571  10.412
58308W        W28123  28.552  38.935  11.489
58309W        W28124  16.204   1.949   3.742
58310W        W28125  38.924  25.508  14.927
58311W        W28126  41.453  12.303  14.918
58312W        W28127  15.679  18.102  14.307
58313W        W28128  29.551   7.295  12.072
58314W        W28129  23.734  35.914  14.030
58315W        W28130  11.265  24.022  14.289
58316W        W28131  27.530   2.398   1.758
58317W        W28132  26.974  18.128   2.378
58318W        W28133  16.800  32.400   1.401
58319W        W28134  31.937  28.039  13.434
58320W        W28135  44.284  15.743  13.348
58321W        W28136  30.489  30.915  14.888
58322W        W28137   2.777  23.721  14.026
58323W        W28138  23.120  16.192  10.973
58324W        W28139  10.345   8.370  12.017
58325W        W28140  14.200  30.542  12.987
58326W        W28141  11.772  18.063  11.436
58327W        W28142  43.967  17.127  13.528
58328W        W28143   8.892  13.212   4.344
58329W        W28144  22.186  29.450   0.295
58330W        W28145   3.885   1.350   3.750
58331W        W28146   9.353  10.751  11.953
58332W        W28147  19.746   1.432  12.467
58333W        W28148  20.248  40.963   3.320
58334W        W28149   1.421  18.729   3.661
58335W        W28150   1.789   2.243   1.247
58336W        W28151  42.013   7.216   0.798
58337W        W28152   6.812  41.533   4.260
58338W        W28153  42.937  29.635   2.813
58339W        W28154  27.969  26.684   3.267
58340W        W28155  22.245   1.341  14.298
58341W        W28156   6.425   9.742   0.409
58342W        W28157  15.652  19.549  13.426
58343W        W28158   9.191  12.837  11.989
58344W        W28159   8.263  44.373   3.777
58345W        W28160  40.338  13.166  12.577
58346W        W28161   0.455  33.023  10.981
58347W        W28162  15.191   9.737  11.611
58348W        W28163  31.536   2.772   3.357
58349W        W28164  21.108  11.839   3.382
58350W        W28165  25.501   2.316  11.449
58351W        W28166  37.837  18.723  10.949
58352W        W28167  44.923  41.332   4.148
58353W        W28168  35.016  12.638   3.816
58354W        W28169  32.007  21.564  11.085
58355W        W28170  33.111  28.167  11.450
58356W        W28171  16.604  23.551   1.448
58357W        W28172  26.550  30.545  13.521
58358W        W28173  24.513  39.364  12.444
58359W        W28174  44.756  20.057  10.528
58360W        W28175  19.569  15.773  12.868
58361W        W28176  18.134  34.042  14.833
58362W        W28177  20.692  44.838   3.167
58363W        W28178  17.104  41.388  14.288
58364W        W28179  31.575  34.969   1.389
58365W        W28180  25.060  13.321   2.220
58366W        W28181   3.947   5.846  13.927
58367W        W28182  12.239  36.353  11.036
58368W        W28183  19.214   0.299   5.172
58369W        W28184  24.594   1.353   2.701
58370W        W28185  21.082  44.408   4.333
58371W        W28186  10.264  44.375  11.969
58372W        W28187   9.786   6.890  10.558
58373W        W28188  13.150   1.245   3.212
58374W        W28189  29.019  33.459   0.244
58375W        W28190   4.310  33.059  12.926
58376W        W28191  17.067   3.255   4.836
58377W        W28192  25.085  39.513   4.181
58378W        W28193  13.698  28.173   4.325
58379W        W28194  42.304   1.386  12.399
58380W        W28195   5.772  37.037   3.292
58381W        W28196   8.332  24.499   1.345
58382W        W28197  26.512  15.247  14.511
58383W        W28198  27.941   5.392   1.355
58384W        W28199  37.945   5.365   0.932
58385W        W28200  14.264   8.276  11.536
58386W        W28201  13.254  33.999   3.746
58387W        W28202  39.447  25.058   4.712
58388W        W28203   5.820  25.201  14.376
58389W        W28204  44.505  31.958  11.562
58390W        W28205  13.201  15.283   2.404
58391W        W28206   7.796   3.913  13.436
58392W        W28207  41.518  12.756  10.913
58393W        W28208  14.217  24.087  10.894
58394W        W28209  27.540  10.162   1.220
58395W        W28210  24.607  36.508   0.243
58396W        W28211  28.132  43.404   0.951
58397W        W28212  39.492  36.376  10.508
58398W        W28213   2.950  26.568  13.531
58399W        W28214   0.754  38.474  11.010
58400W        W28215  15.634  29.146  12.455
58401W        W28216   3.432  35.597   2.764
58402W        W28217   3.318   8.692   1.877
58403W        W28218  33.059  40.498   1.901
58404W        W28219   2.460  36.086  10.012
58405W        W28220  13.198  39.917  12.371
58406W        W28221  21.168  18.079   0.312
58407W        W28222  15.764   3.837  13.001
58408W        W28223  38.857  14.750   3.692
58409W        W28224  32.091  25.075  11.125
58410W        W28225  15.305  17.612   1.820
58411W        W28226  42.857  17.662   0.737
58412W        W28227   3.840  26.652   1.740
58413W        W28228   3.272  13.620   2.321
58414W        W28229  39.022  16.767   4.237
58415W        W28230   5.742  40.518   1.809
58416W        W28231  41.320  27.497   4.664
58417W        W28232  43.435  11.704   0.868
58418W        W28233   7.705  12.626   1.706
58419W        W28234   5.306  28.936   2.390
58420W        W28235  26.508  20.582   3.335
58421W        W28236   1.951  25.185   4.348
58422W        W28237  37.549  44.881  12.093
58423W        W28238  10.373   9.846  13.399
58424W        W28239  30.164  21.547  14.991
58425W        W28240  18.748  36.395   2.249
58426W        W28241  28.488  36.386  13.942
58427W        W28242  18.622  37.443   3.871
58428W        W28243  18.713   7.195  12.898
58429W        W28244  39.397  38.064   2.252
58430W        W28245  17.125  23.188   0.310
58431W        W28246   2.433  10.822  14.028
58432W        W28247  42.427  44.297   4.210
58433W        W28248  27.136  25.998  10.440
58434W        W28249   4.284  40.997  13.547
58435W        W28250  34.887  19.669   0.357
58436W        W28251  30.588  16.638   0.459
58437W        W28252  44.834   2.393  11.436
58438W        W28253  22.027  34.895   1.422
58439W        W28254  37.882   2.892   0.270
58440W        W28255  21.234  37.869  11.901
58441W        W28256   7.812   8.406  12.908
58442W        W28257  43.820  39.840  12.048
58443W        W28258   3.458  37.462   1.716
58444W        W28259  33.509  37.474  10.561
58445W        W28260  44.418  34.904   1.830
58446W        W28261  22.727  12.854   1.909
58447W        W28262   5.830  23.569  13.435
58448W        W28263  39.968  22.080  13.819
58449W        W28264  40.867  37.558   1.912
58450W        W28265  32.121   6.882  12.991
58451W        W28266  23.643  41.837  14.789
58452W        W28267  18.184   1.400   1.787
58453W        W28268  31.638   6.417  11.394
58454W        W28269  39.560  21.042   3.814
58455W        W28270  28.064  26.636  11.994
58456W        W28271  34.437  44.813  12.384
58457W        W28272  22.693  27.057  13.935
58458W        W28273  24.092  36.844  10.979
58459W        W28274  17.773  24.034   1.730
58460W        W28275  21.669  31.897  11.974
58461W        W28276  27.654  40.341   3.284
58462W        W28277   5.268  13.237  12.023
58463W        W28278  37.884  34.452   5.225
58464W        W28279  25.984  40.531  14.002
58465W        W28280  14.131  34.371  11.116
58466W        W28281  21.019   5.877   0.778
58467W        W28282  36.559  31.981   4.320
58468W        W28283   8.402  32.537  12.515
58469W        W28284  28.528  34.369   0.409
58470W        W28285  44.009   9.793  12.381
58471W        W28286   2.291  41.993  12.945
58472W        W28287  33.461  39.420  11.082
58473W        W28288  18.186  43.424  14.305
58474W        W28289  18.173  41.301   1.252
58475W        W28290  43.279  21.178  12.977
58476W        W28291  39.878  33.897   0.330
58477W        W28292  13.224  43.295   0.766
58478W        W28293  16.583  35.520  14.829
58479W        W28294  38.431  32.975  11.871
58480W        W28295  39.342  31.952  14.803
58481W        W28296   7.189  14.730  14.762
58482W        W28297   9.740  11.189  11.911
58483W        W28298  26.025  37.490  13.797
58484W        W28299   2.243   5.372  11.107
58485W        W28300  17.787  24.034  11.098
58486W        W28301  34.386  26.112  11.030
58487W        W28302  18.296  31.905   1.713
58488W        W28303  39.833  30.943  11.516
58489W        W28304  17.304   0.348  14.309
58490W        W28305  19.143  34.433  13.313
58491W        W28306  42.397  35.467   4.341
58492W        W28307  28.126  31.973   1.769
58493W        W28308  13.145  24.549  10.622
58494W        W28309  43.418  26.535  11.485
58495W        W28310   9.700  33.935  10.601
58496W        W28311  20.546  15.153  11.085
58497W        W28312   4.209  31.420   4.234
58498W        W28313   6.804   0.489   3.153
58499W        W28314  16.634  16.119  12.340
58500W        W28315   5.235  31.566  10.484
58501W        W28316  44.758  44.854   3.308
58502W        W28317  25.707  26.131  12.971
58503W        W28318  26.087  22.028   4.735
58504W        W28319   3.873  10.755  12.568
58505W        W28320  25.106  27.665  14.509
58506W        W28321  12.358   7.314   3.832
58507W        W28322  42.369  19.724   1.412
58508W        W28323  13.257  10.786   4.812
58509W        W28324   1.777  11.160  12.007
58510W        W28325  40.054   4.260   0.938
58511W        W28326  18.569  33.045   0.243
58512W        W28327  17.137  34.546   0.762
58513W        W28328  13.610  40.943  11.564
58514W        W28329   0.345   7.270   4.331
58515W        W28330  28.656  13.295   2.405
58516W        W28331  15.180  23.145  12.014
58517W        W28332  10.654  20.259  13.542
58518W        W28333   1.411  17.274  11.409
58519W        W28334  13.662  24.618  13.341
58520W        W28335  15.682  28.570   4.316
58521W        W28336  16.741   9.346   2.235
58522W        W28337  31.568   2.930   1.442
58523W        W28338   5.279  12.316   4.659
58524W        W28339  41.426  30.127  13.952
58525W        W28340  11.844  12.120   0.938
58526W        W28341  19.050  21.545  10.455
58527W        W28342  37.354  10.222   0.822
58528W        W28343  42.324  13.660   5.789
58529W        W28344  15.256  29.004  14.812
58530W        W28345  13.309  37.391   3.250
58531W        W28346  38.050  33.128  11.524
58532W        W28347  27.634  24.976   4.643
58533W        W28348   2.306  35.391   2.780
58534W        W28349   6.266  23.588  14.031
58535W        W28350  25.655  17.795  11.017
58536W        W28351   9.836  44.476  14.345
58537W        W28352   7.860   7.795   2.380
58538W        W28353  11.718  14.826  10.584
58539W        W28354  43.003  12.610  12.578
58540W        W28355  16.267  17.595   1.775
58541W        W28356   3.794   1.468  13.798
58542W        W28357  43.824   4.248   2.251
58543W        W28358  39.949  28.108   0.950
58544W        W28359   0.958  20.540   4.728
58545W        W28360  42.415  21.131   4.141
58546W        W28361  17.246  32.541  12.009
58547W        W28362  10.227  13.342  12.019
58548W        W28363  41.436  37.539   3.384
58549W        W28364   8.178  12.756   2.315
58550W        W28365  11.690  15.792   2.311
58551W        W28366  41.432   8.221  12.537
58552W        W28367  23.579  15.676   3.202
58553W        W28368  35.460   6.274  13.019
58554W        W28369  13.141   8.897   4.217
58555W        W28370  10.209  30.637   1.335
58556W        W28371  30.513  22.617  11.881
58557W        W28372  21.701  34.526   4.209
58558W        W28373   9.368  19.075   1.277
58559W        W28374  38.944   5.897   2.888
58560W        W28375   4.714  37.833  13.494
58561W        W28376  24.676  37.904   4.313
58562W        W28377  43.413   5.721  14.807
58563W        W28378  33.450  35.411   0.298
58564W        W28379   9.376  19.611  10.909
58565W        W28380  29.145  43.849   2.864
58566W        W28381  34.092  14.166   4.616
58567W        W28382   4.844   7.810   4.681
58568W        W28383  28.982  11.667   3.291
58569W        W28384   8.228  32.473  11.956
58570W        W28385  16.169   9.739   1.818
58571W        W28386  31.044   0.261  14.980
58572W        W28387   8.377  27.055   2.903
58573W        W28388  28.471   5.766   3.374
58574W        W28389  12.266  21.210   2.216
58575W        W28390  28.576  27.996   4.256
58576W        W28391  29.563  29.436   0.243
58577W        W28392   6.327  21.211  10.614
58578W        W28393   2.449  16.123   0.278
58579W        W28394  23.597  41.504   0.288
58580W        W28395  22.607  12.613  13.898
58581W        W28396  15.617   1.956  12.078
58582W        W28397  11.863  36.887  12.476
58583W        W28398  27.467  14.715   4.197
58584W        W28399  35.990   3.926   4.309
58585W        W28400   0.371  42.360   2.695
58586W        W28401  32.552  16.185   0.727
58587W        W28402  36.347  14.286  12.462
58588W        W28403   1.305  39.009  12.964
58589W        W28404  44.312  42.507   5.307
58590W        W28405   4.939  43.969   2.837
58591W        W28406  37.499  30.994  14.867
58592W        W28407  14.703  43.369   1.345
58593W        W28408  33.480  19.764  11.465
58594W        W28409  40.026  10.844  10.964
58595W        W28410  40.810  24.202  13.499
58596W        W28411  15.219   1.298  11.504
58597W        W28412  42.906  28.176  14.379
58598W        W28413  19.262  13.349   1.732
58599W        W28414  32.928  23.625  13.004
58600W        W28415  13.248   3.456  11.088
58601W        W28416  30.938  34.908   3.275
58602W        W28417   2.308  44.956   0.933
58603W        W28418  36.930  43.797  11.470
58604W        W28419  31.533   9.201   2.260
58605W        W28420  35.022  34.116   0.333
58606W        W28421  37.537   2.928  12.853
58607W        W28422  16.599  11.329  11.047
58608W        W28423  12.325  13.722  11.072
58609W        W28424  10.852  19.709  11.058
58610W        W28425  18.144   7.750  11.530
58611W        W28426  30.650  41.947  11.983
58612W        W28427  21.569  24.657  13.815
58613W        W28428  15.611  19.074  14.474
58614W        W28429   8.184  40.370   4.322
58615W        W28430  36.419  28.134  10.449
58616W        W28431   5.723  14.302  13.816
58617W        W28432  19.583  36.052   4.129
58618W        W28433   9.312  32.002   1.887
58619W        W28434   5.865  35.976  13.431
58620W        W28435  24.529  30.988  13.858
58621W        W28436   8.305  28.657   4.170
58622W        W28437  16.224   5.284  12.407
58623W        W28438  14.114  40.406   1.819
58624W        W28439  38.337  11.836  10.526
58625W        W28440   2.280   1.296   2.872
58626W        W28441  14.692   2.736  13.359
58627W        W28442  27.042  27.026  13.842
58628W        W28443  26.083  13.233   2.769
58629W        W28444  17.268   6.759   4.768
58630W        W28445  14.668   6.875  12.842
58631W        W28446  40.799  42.507   3.283
58632W        W28447  11.743  16.719  13.451
58633W        W28448  41.819  32.396  10.562
58634W        W28449   5.352  28.504   1.216
58635W        W28450  26.686   8.304   2.184
58636W        W28451  29.654  33.534   9.932
58637W        W28452  37.075  38.545   3.720
58638W        W28453  24.531  32.944  14.851
58639W        W28454  14.215  21.545   2.225
58640W        W28455  25.617  42.289  12.054
58641W        W28456  27.166  38.541   0.886
58642W        W28457  38.073  21.041   2.300
58643W        W28458   8.659   0.371  13.882
58644W        W28459   4.730  26.048  12.865
58645W        W28460  43.349  40.427  13.848
58646W        W28461  18.240  10.218   1.863
58647W        W28462  36.946   4.724  13.395
58648W        W28463  14.115  32.019   4.219
58649W        W28464   3.335  42.393   0.771
58650W        W28465  14.159  31.087   3.854
58651W        W28466  36.027  40.504  12.940
58652W        W28467  32.552  33.464   2.701
58653W        W28468  25.043  35.382  10.916
58654W        W28469  44.868   9.149   0.860
58655W        W28470  43.371  13.250  13.994
58656W        W28471  27.646  39.549   2.416
58657W        W28472  25.085  19.125  13.452
58658W        W28473  27.115  20.051  13.374
58659W        W28474   0.486  19.634   2.406
58660W        W28475  30.520  37.925  14.323
58661W        W28476  44.347  32.940   2.328
58662W        W28477  24.182  16.317   2.868
58663W        W28478  26.106   6.834   1.309
58664W        W28479  35.036  29.444   2.320
58665W        W28480  41.852  43.861  11.381
58666W        W28481  30.492  29.111  12.857
58667W        W28482  23.633  44.984   2.348
58668W        W28483   5.807   1.288  13.802
58669W        W28484  20.213   9.364   3.338
58670W        W28485  16.244  37.874  13.900
58671W        W28486  36.382  25.093  11.906
58672W        W28487  35.385   8.327   1.721
58673W        W28488  40.523  31.096  12.036
58674W        W28489   6.790   5.781  10.590
58675W        W28490  39.848   1.868  10.994
58676W        W28491   3.729  42.476  11.399
58677W        W28492  27.069  35.891   4.802
58678W        W28493  34.875  19.534   3.819
58679W        W28494  19.039   4.370  13.047
58680W        W28495   8.694  29.145  14.478
58681W        W28496  26.027   8.220  11.513
58682W        W28497  13.846   7.304   1.783
58683W        W28498  32.049  29.616  12.926
58684W        W28499  30.940  15.328   3.171
58685W        W28500  37.843  20.626   4.213
58686W        W28501  12.232  36.897  10.587
58687W        W28502  43.431  11.755   1.863
58688W        W28503  28.178  22.170   4.658
58689W        W28504   1.786   5.366   1.264
58690W        W28505  20.171  18.658  11.575
58691W        W28506  39.914  42.883   1.420
58692W        W28507   9.255  25.563  14.835
58693W        W28508  37.552  28.971   1.836
58694W        W28509   7.857  17.700   1.794
58695W        W28510   7.342  16.679  12.420
58696W        W28511  25.554  43.458  14.003
58697W        W28512  42.937   9.845  13.855
58698W        W28513   4.355  38.925  13.420
58699W        W28514   4.898   4.238   0.295
58700W        W28515  14.228  13.248  13.322
58701W        W28516  41.939   3.455   0.480
58702W        W28517  44.295  11.195   0.252
58703W        W28518  43.839  14.238   4.623
58704W        W28519  21.017  11.854   1.743
58705W        W28520   0.891  19.186  12.572
58706W        W28521  44.271  16.773  10.554
58707W        W28522  35.854   1.794   4.197
58708W        W28523  18.170  35.095   0.338
58709W        W28524  22.732   5.687   2.669
58710W        W28525   1.453  14.705  11.997
58711W        W28526  36.398  23.629  12.499
58712W        W28527   4.821  27.986  13.051
58713W        W28528  34.885   4.263   4.170
58714W        W28529   2.316  30.556  10.412
58715W        W28530   2.728  14.159   4.767
58716W        W28531  14.634  12.783  12.076
58717W        W28532  44.395  15.689   5.249
58718W        W28533  25.691  34.591  12.985
58719W        W28534  17.772  28.522  10.636
58720W        W28535  42.989  37.051   1.384
58721W        W28536  26.702  40.029   4.637
58722W        W28537  21.639   5.868   2.385
58723W        W28538  35.447  31.927   3.355
58724W        W28539  17.177   5.278   3.295
58725W        W28540   5.795  23.125   0.730
58726W        W28541  18.634   5.249  10.938
58727W        W28542   3.242  24.480   3.810
58728W        W28543  44.411  18.734   3.267
58729W        W28544  17.199   3.346  13.494
58730W        W28545  21.223  21.138   2.742
58731W        W28546  18.109  30.138   4.701
58732W        W28547  20.573  25.671  12.953
58733W        W28548  28.059  12.211   5.583
58734W        W28549  17.305  38.910  10.510
58735W        W28550  10.200  37.830  12.974
58736W        W28551  28.604  18.265   2.225
58737W        W28552  27.686  39.896  14.861
58738W        W28553  31.920  13.831  12.900
58739W        W28554  17.671  20.618   3.172
58740W        W28555   7.221  18.276  14.961
58741W        W28556  42.008   3.934  10.631
58742W        W28557  28.611  44.390  12.990
58743W        W28558  23.106   0.841   2.354
58744W        W28559  32.586  42.479  11.480
58745W        W28560   9.648  39.407  10.993
58746W        W28561  40.527   5.303  13.312
58747W        W28562  24.156  27.483  11.857
58748W        W28563  16.176  30.496   3.707
58749W        W28564  22.566   5.346   3.803
58750W        W28565  19.546  39.057   4.748
58751W        W28566  33.883  41.528   4.744
58752W        W28567  31.558  37.861   3.819
58753W        W28568  37.476   4.820   3.239
58754W        W28569  24.118   3.901   0.864
58755W        W28570  34.018   1.826  10.913
58756W        W28571   0.807  26.072   2.291
58757W        W28572  25.598   1.968  13.918
58758W        W28573  20.574  36.576  11.493
58759W        W28574   0.462  25.473   1.231
58760W        W28575   4.433  17.632  11.390
58761W        W28576  19.103  33.923   1.923
58762W        W28577  27.976  14.181   3.645
58763W        W28578  18.152  11.854   0.460
58764W        W28579  41.926  40.486  14.401
58765W        W28580  30.636  11.368  14.988
58766W        W28581   8.781  14.693   4.672
58767W        W28582   8.672   5.918  14.899
58768W        W28583   3.839   3.417   2.224
58769W        W28584  30.123  36.352   2.208
58770W        W28585   7.752   2.931   4.819
58771W        W28586  29.002  23.183   4.690
58772W        W28587  39.341  25.099  10.574
58773W        W28588  38.430  19.261  14.311
58774W        W28589  14.665  26.649  11.403
58775W        W28590   8.165  42.830  11.089
58776W        W28591  34.490   5.901   2.873
58777W        W28592  36.010   4.834  10.439
58778W        W28593   8.274  25.969  13.931
58779W        W28594  25.125  10.812  12.093
58780W        W28595  14.178   1.963   0.873
58781W        W28596  17.246  38.976   5.159
58782W        W28597   5.293  15.165  12.455
58783W        W28598  26.617  26.993  10.457
58784W        W28599  40.362   4.205   0.774
58785W        W28600  20.760  20.699  12.386
58786W        W28601  36.385   8.771   1.844
58787W        W28602  31.112  15.795  14.453
58788W        W28603   1.274  27.541   1.257
58789W        W28604  42.373   9.263   3.794
58790W        W28605  31.455  36.522  10.524
58791W        W28606  22.599   6.718  11.455
58792W        W28607   3.729  30.149   3.781
58793W        W28608  15.758  27.966   2.760
58794W        W28609  44.753  41.977   4.625
58795W        W28610  38.326  24.620  11.870
58796W        W28611  44.931  16.572   2.739
58797W        W28612  33.124   1.452   1.234
58798W        W28613  37.432   6.898  12.051
58799W        W28614  30.574  43.912  13.440
58800W        W28615  40.412  11.255  10.529
58801W        W28616   3.786  28.116   1.234
58802W        W28617   7.833  39.985  14.003
58803W        W28618  43.002  35.522  11.047
58804W        W28619  42.820   1.366  10.964
58805W        W28620  10.149  14.257  13.964
58806W        W28621  31.555  39.063   2.373
58807W        W28622  12.211   9.392   1.912
58808W        W28623  34.044  40.962   3.378
58809W        W28624  44.434  28.939  12.542
58810W        W28625  22.238  22.132   1.891
58811W        W28626   7.358  18.608  10.428
58812W        W28627  28.031  40.365   1.384
58813W        W28628  19.600   7.175   3.371
58814W        W28629  33.416  11.683  13.416
58815W        W28630  21.596   5.831   4.831
58816W        W28631  26.678  26.034  14.281
58817W        W28632  15.155  19.175   1.214
58818W        W28633   1.812  40.993  11.877
58819W        W28634  17.584  26.590  14.859
58820W        W28635  30.633  16.623  13.979
58821W        W28636   1.768  22.119  14.290
58822W        W28637   1.391  18.695  12.059
58823W        W28638   7.773  25.548   3.205
58824W        W28639  18.169  14.267   2.704
58825W        W28640   0.401  38.941  13.895
58826W        W28641  25.499  16.738   0.402
58827W        W28642  38.492  24.226  14.025
58828W        W28643   1.876   6.714  14.873
58829W        W28644  22.738  12.826  12.082
58830W        W28645  17.572   0.846  12.879
58831W        W28646  24.099  30.103   0.902
58832W        W28647  22.222   4.794   1.362
58833W        W28648  31.437  30.559   1.912
58834W        W28649  12.269  13.622   4.702
58835W        W28650   8.386  20.165  10.591
58836W        W28651  14.786   5.257  11.506
58837W        W28652   2.888  28.959  10.938
58838W        W28653  17.293  22.574   3.774
58839W        W28654   4.233   0.785   4.678
58840W        W28655   5.798  10.200   3.301
58841W        W28656  23.612  17.254   5.236
58842W        W28657  38.471  25.990  12.982
58843W        W28658  12.634   1.933   2.290
58844W        W28659  34.494  41.508  13.938
58845W        W28660  28.568  42.955  11.927
58846W        W28661  39.913  19.253   4.161
58847W        W28662  15.795  30.048  10.527
58848W        W28663   8.742   3.440   3.294
58849W        W28664  20.547   4.724   3.695
58850W        W28665  26.099  30.425  14.497
58851W        W28666   0.863  25.643   4.739
58852W        W28667  29.031   0.968   2.716
58853W        W28668  30.007  44.766  12.926
58854W        W28669  16.804  27.174   2.384
58855W        W28670  40.046  38.876   0.475
58856W        W28671   0.363  11.175  14.385
58857W        W28672   5.257   5.784   4.332
58858W        W28673   0.794  28.975   5.237
58859W        W28674  23.573  34.396   2.742
58860W        W28675  18.264  10.760  12.342
58861W        W28676  17.239  28.584  14.481
58862W        W28677  28.070   7.400  14.957
58863W        W28678  23.505  12.650   3.677
58864W        W28679  10.708  19.575   1.809
58865W        W28680  20.079  37.449   4.644
58866W        W28681   5.377   9.394   0.791
58867W        W28682  16.283  26.516   0.965
58868W        W28683  15.219  10.182   4.762
58869W        W28684  41.402  30.447  11.078
58870W        W28685  39.036  27.986   9.992
58871W        W28686  23.101  25.661   3.770
58872W        W28687   9.873  43.962  11.872
58873W        W28688  38.370  44.457   3.199
58874W        W28689  39.500  20.562  12.036
58875W        W28690  17.265  18.640  10.135
58876W        W28691   7.681  15.622  12.069
58877W        W28692  10.742  34.393   0.398
58878W        W28693  28.536  10.292   2.888
58879W        W28694  43.810  27.993  11.913
58880W        W28695  15.317  38.854   3.712
58881W        W28696  36.086  10.734  13.918
58882W        W28697   6.338  23.046  10.519
58883W        W28698  37.860  25.150  14.892
58884W        W28699  27.101   7.232   3.168
58885W        W28700  18.732  24.142  12.388
58886W        W28701  10.836   1.974  12.432
58887W        W28702  42.933  35.982   1.306
58888W        W28703  43.513  11.284   3.838
58889W        W28704  37.831  31.143   0.895
58890W        W28705  40.860  44.942  13.538
58891W        W28706   1.796  23.595   3.249
58892W        W28707  40.992   8.318  11.090
58893W        W28708  41.810   6.215   2.693
58894W        W28709  28.651  35.440  14.363
58895W        W28710  22.034  11.738  12.445
58896W        W28711  33.601  33.898   3.735
58897W        W28712  23.080  17.597   2.827
58898W        W28713   9.702  36.937  14.759
58899W        W28714  42.318  29.933   3.646
58900W        W28715  16.131   1.467   4.778
58901W        W28716  37.835  24.221  11.500
58902W        W28717   9.845  14.656  12.428
58903W        W28718  23.027  14.707  14.418
58904W        W28719  24.571  38.511   2.355
58905W        W28720   3.413   5.928  14.975
58906W        W28721  33.583  18.750   5.191
58907W        W28722  43.468  29.548  11.856
58908W        W28723   2.752  24.517  14.331
58909W        W28724   8.379  31.592   4.285
58910W        W28725   7.279   0.454   3.673
58911W        W28726  26.604  33.016   3.303
58912W        W28727  23.160  18.645   1.900
58913W        W28728  36.552   2.804  12.434
58914W        W28729  13.661  17.166   3.691
58915W        W28730   6.715  42.452   0.741
58916W        W28731  44.861   5.375   4.250
58917W        W28732  29.967  19.623  13.473
58918W        W28733   4.906  13.258  11.896
58919W        W28734   6.732  21.712   2.242
58920W        W28735  40.047  15.324  14.783
58921W        W28736  17.271  34.075   4.599
58922W        W28737  15.806  36.001  13.007
58923W        W28738  40.437   7.347  13.531
58924W        W28739   6.705  41.792   3.781
58925W        W28740  34.055   3.452   1.715
58926W        W28741  26.658  20.600  13.446
58927W        W28742  11.633  39.909   3.646
58928W        W28743  25.188  14.314  12.888
58929W        W28744  36.394  17.250   4.671
58930W        W28745  20.263   5.746   1.271
58931W        W28746  12.359   1.967   4.237
58932W        W28747  14.751  11.247  10.521
58933W        W28748  15.597  12.687   3.334
58934W        W28749  29.101  29.490  10.927
58935W        W28750  27.948   8.285  12.953
58936W        W28751  19.661   6.758   1.797
58937W        W28752   1.317  19.608   0.749
58938W        W28753  35.454  18.105   3.705
58939W        W28754   5.909  34.945   2.864
58940W        W28755  14.806  12.650  13.796
58941W        W28756  22.567   0.793   3.358
58942W        W28757   6.419  44.269   5.230
58943W        W28758   7.328  18.130  10.551
58944W        W28759  10.228   1.765  11.098
58945W        W28760  36.869  20.571   2.220
58946W        W28761  21.523  38.361   3.198
58947W        W28762  24.542  37.389  11.964
58948W        W28763  29.968  12.221   1.889
58949W        W28764  43.978  15.761  11.968
58950W        W28765  39.971  44.008   2.828
58951W        W28766  18.777  37.339  12.957
58952W        W28767   8.760  10.283  14.840
58953W        W28768  35.990  18.625  13.936
58954W        W28769  13.294  43.985  13.981
58955W        W28770   9.733   7.315  13.859
58956W        W28771  35.987  36.943  12.359
58957W        W28772  43.857   2.739   0.841
58958W        W28773   7.860  23.655  13.057
58959W        W28774   1.842  22.720  13.911
58960W        W28775  33.501   8.696   4.161
58961W        W28776  19.119  40.802   1.236
58962W        W28777  35.482   7.716   3.753
58963W        W28778   1.254  44.379  11.986
58964W        W28779   5.792   5.727   1.366
58965W        W28780  28.122   0.975  10.562
58966W        W28781  39.451  11.355  11.919
58967W        W28782  44.990  22.177  11.876
58968W        W28783  18.289  24.063   1.740
58969W        W28784   8.789  24.503   3.286
58970W        W28785  26.463  23.042   0.311
58971W        W28786  23.196  23.023  13.449
58972W        W28787  36.571  22.563   3.859
58973W        W28788  44.441  26.460   3.329
58974W        W28789  17.570  26.488  12.954
58975W        W28790  28.941   7.835   3.685
58976W        W28791  27.950  32.925  11.602
58977W        W28792  39.980  12.662  13.363
58978W        W28793  33.490   5.709   2.871
58979W        W28794  14.658  21.690  11.123
58980W        W28795  15.122   8.315  11.582
58981W        W28796  17.070   1.472  12.577
58982W        W28797  29.510  25.686  13.323
58983W        W28798  33.987   6.683  11.977
58984W        W28799   8.804  28.998  11.050
58985W        W28800   6.734   3.376   5.178
58986W        W28801   1.303  39.854   2.799
58987W        W28802  20.071   5.196   2.698
58988W        W28803  22.613  39.453   2.365
58989W        W28804  29.146   0.423   3.734
58990W        W28805  39.958  39.316   0.428
58991W        W28806  19.579  42.387  14.869
58992W        W28807  36.865   1.890  13.436
58993W        W28808  25.098  17.708   3.323
58994W        W28809  15.204  35.021   2.197
58995W        W28810  44.474  38.925  11.019
58996W        W28811  34.521  15.268  12.040
58997W        W28812  23.670  32.952  13.012
58998W        W28813   8.226  11.664  14.436
58999W        W28814  32.006  30.054   0.473
59000W        W28815  42.422  24.642   0.354
59001W        W28816   2.874  11.223   4.618
59002W        W28817  39.541  26.084   0.938
59003W        W28818  29.498  28.975  12.483
59004W        W28819  28.551  32.513  10.580
59005W        W28820  22.233  34.419  13.844
59006W        W28821  28.139  33.430   0.892
59007W        W28822  17.144  11.320  13.524
59008W        W28823  42.487  30.073  12.007
59009W        W28824  11.717  19.725  13.799
59010W        W28825   7.854   4.877   4.678
59011W        W28826  36.847  25.662   2.292
59012W        W28827  13.704  36.031   0.916
59013W        W28828  29.423  28.474  14.313
59014W        W28829  37.038  37.982  14.413
59015W        W28830  43.406  11.261   4.335
59016W        W28831  42.850  19.110   3.810
59017W        W28832  25.201  26.036   3.280
59018W        W28833  36.040  26.587   3.329
59019W        W28834  38.361  12.341  11.496
59020W        W28835  15.091   4.777   4.606
59021W        W28836   2.823  23.043  10.446
59022W        W28837  29.602  12.722  12.905
59023W        W28838  24.133  28.525   2.304
59024W        W28839  39.328   5.845   2.178
59025W        W28840  44.344   0.474  12.366
59026W        W28841   1.917   9.812  12.832
59027W        W28842   8.763  34.948  13.498
59028W        W28843  29.653  11.367   1.819
59029W        W28844  36.558   2.774   3.634
59030W        W28845  23.584  28.124  12.516
59031W        W28846   7.338  41.335  12.948
59032W        W28847   5.342   6.709   0.245
59033W        W28848  10.771  31.466  13.429
59034W        W28849  20.214  15.721  11.385
59035W        W28850  41.947  22.683  10.094
59036W        W28851  22.999   9.667  11.977
59037W        W28852  31.056  10.875   2.334
59038W        W28853  19.087  38.965  10.520
59039W        W28854  42.502  22.014  12.088
59040W        W28855  20.713  19.166   4.627
59041W        W28856   1.855  29.938  12.458
59042W        W28857  17.254  19.192  13.866
59043W        W28858  27.083  17.750  10.484
59044W        W28859  35.602   2.803   4.336
59045W        W28860   5.426  37.941  13.472
59046W        W28861  30.135  43.769  11.885
59047W        W28862  34.034  37.060  10.481
59048W        W28863   3.875  27.459  10.551
59049W        W28864   0.776  30.929  14.021
59050W        W28865   4.748  13.714   1.840
59051W        W28866  37.070  32.582  12.923
59052W        W28867  28.510   6.208  11.982
59053W        W28868   1.764  17.281  11.395
59054W        W28869  23.645  15.234   1.284
59055W        W28870  40.999   3.796   2.687
59056W        W28871   5.708   2.362   0.316
59057W        W28872  43.416   4.915  10.128
59058W        W28873   6.767   2.234  10.557
59059W        W28874  43.413  16.174  11.932
59060W        W28875  42.376  37.943  13.927
59061W        W28876  14.629  26.630   4.636
59062W        W28877  18.589  44.420   1.395
59063W        W28878  24.030   9.336  10.517
59064W        W28879  27.649  38.325  11.517
59065W        W28880  43.482  32.916  11.564
59066W        W28881  39.934  37.940   3.229
59067W        W28882  36.005  32.932  13.986
59068W        W28883  42.919  19.081  13.969
59069W        W28884  33.613  27.461   0.405
59070W        W28885  13.166  39.542   4.786
59071W        W28886  17.129  44.502  14.466
59072W        W28887  15.240  13.676  14.294
59073W        W28888   7.674  26.548   1.298
59074W        W28889  39.553   5.716   2.682
59075W        W28890  15.300  25.094   0.744
59076W        W28891  23.698  32.630   2.814
59077W        W28892  32.469  33.440   3.211
59078W        W28893  35.378  30.656   4.810
59079W        W28894   6.383  12.648  12.901
59080W        W28895  14.291  10.694  12.576
59081W        W28896  44.828  23.181   0.380
59082W        W28897  44.477  34.897   3.182
59083W        W28898  19.186  24.530   2.847
59084W        W28899  12.196  12.768   1.823
59085W        W28900  44.366   3.247   3.222
59086W        W28901  29.427  25.083   1.323
59087W        W28902  14.252   9.167  13.885
59088W        W28903   6.293   1.892  14.457
59089W        W28904  36.522  33.533  12.030
59090W        W28905  16.176  25.612   1.233
59091W        W28906  31.984  12.635   3.767
59092W        W28907   6.921   3.724  12.372
59093W        W28908   6.685   0.296  14.014
59094W        W28909   4.253  20.684  12.446
59095W        W28910  26.581   6.360   2.310
59096W        W28911  35.983  32.592  14.469
59097W        W28912  13.809  12.311  11.484
59098W        W28913  36.915  43.872   3.730
59099W        W28914  43.327  35.868  11.468
59100W        W28915  12.713  44.967   3.793
59101W        W28916   4.316  18.230   0.841
59102W        W28917  20.114  22.116   2.864
59103W        W28918  19.698  14.157   1.705
59104W        W28919  43.771  24.153   4.646
59105W        W28920  33.562  40.854   4.213
59106W        W28921  16.720   3.837  11.111
59107W        W28922  12.736   6.192  11.427
59108W        W28923   7.897   7.405   5.179
59109W        W28924  24.058   4.871   2.357
59110W        W28925   3.340  22.710   5.108
59111W        W28926  23.226  41.849   1.232
59112W        W28927  27.657  39.921  13.898
59113W        W28928   7.365  23.617   4.730
59114W        W28929  36.962  34.001  11.518
59115W        W28930  22.515  34.369   3.303
59116W        W28931  16.231  20.189   4.614
59117W        W28932  44.337   3.239   0.483
59118W        W28933  40.336   2.444  13.339
59119W        W28934  17.653  23.648   4.135
59120W        W28935  15.282  13.780   4.334
59121W        W28936  37.901  36.403   1.348
59122W        W28937  34.466  36.508   1.327
59123W        W28938  37.039  27.635   3.725
59124W        W28939  27.951  28.166   1.329
59125W        W28940  27.511  30.638   2.309
59126W        W28941  36.583   8.404   3.740
59127W        W28942  19.169  27.675  13.874
59128W        W28943   4.297   4.906  14.341
59129W        W28944   0.401  39.065   2.290
59130W        W28945   2.381  44.793   3.174
59131W        W28946  15.280   1.757  14.999
59132W        W28947   3.910  35.108   0.408
59133W        W28948  18.244  25.490  13.455
59134W        W28949  14.768  37.844   0.363
59135W        W28950  25.575  25.097   0.962
59136W        W28951  21.199  42.842   0.894
59137W        W28952  37.904  25.571   0.334
59138W        W28953  41.330  44.352  11.529
59139W        W28954  10.289  11.640  10.514
59140W        W28955  17.134  18.577  13.540
59141W        W28956  11.808   0.906  10.092
59142W        W28957   9.178   2.851   2.674
59143W        W28958   5.252  30.963  11.562
59144W        W28959  39.407   6.715   4.304
59145W        W28960   0.782  31.039  10.915
59146W        W28961  22.016  21.599  10.518
59147W        W28962   5.870  35.491   1.419
59148W        W28963  31.908  32.057  13.806
59149W        W28964  30.101  30.430   1.272
59150W        W28965  22.583  29.918   3.813
59151W        W28966  39.364   3.407  10.119
59152W        W28967  35.494  13.230  12.360
59153W        W28968  42.807  34.010  10.456
59154W        W28969  38.469   8.825   2.345
59155W        W28970  28.533  37.060   3.787
59156W        W28971  10.694  39.407  14.005
59157W        W28972   1.740  34.948   1.893
59158W        W28973  40.529  16.180  14.936
59159W        W28974  33.130  42.874   3.292
59160W        W28975  38.426  35.439   0.246
59161W        W28976  40.946   0.779  12.397
59162W        W28977  15.628   0.940   4.163
59163W        W28978  21.030  34.932  14.303
59164W        W28979  43.306   9.226   0.841
59165W        W28980   7.867   1.829   3.658
59166W        W28981  39.811   3.351  10.523
59167W        W28982   2.720  43.925   3.282
59168W        W28983  14.164   4.914   1.716
59169W        W28984  21.059   4.212   4.710
59170W        W28985  15.691  22.590   4.624
59171W        W28986   6.203  43.354   2.818
59172W        W28987   7.414  14.743   3.336
59173W        W28988  33.079  32.103  13.338
59174W        W28989   4.803  16.217  11.981
59175W        W28990  41.855  24.088   4.206
59176W        W28991  15.739  23.536   0.343
59177W        W28992  23.645   5.854   3.843
59178W        W28993  14.795  22.170   3.656
59179W        W28994  36.482   8.799  12.409
59180W        W28995  31.565  41.915   1.256
59181W        W28996  25.050  40.016  13.055
59182W        W28997  17.137  26.550  14.768
59183W        W28998   1.379   7.325   1.215
59184W        W28999  16.696  16.096  14.846
59185W        W29000  15.793  43.907  10.578
59186W        W29001  20.184   9.317  13.469
59187W        W29002  40.038  14.641   0.475
59188W        W29003  19.554  18.776   3.276
59189W        W29004  25.203  22.594   1.849
59190W        W29005   3.824  24.143   3.780
59191W        W29006  19.115  29.994  11.886
59192W        W29007  40.882  13.300  13.912
59193W        W29008   4.727  10.665  14.283
59194W        W29009  25.618  41.996  14.470
59195W        W29010  31.614  21.662   1.331
59196W        W29011   6.716  41.377   5.690
59197W        W29012   1.838  27.063  13.803
59198W        W29013  34.916  19.742   3.340
59199W        W29014  28.659  15.231   3.834
59200W        W29015   3.443  36.522  12.495
59201W        W29016  35.600  22.624  14.820
59202W        W29017  42.898  43.777   2.693
59203W        W29018  42.339  40.015   1.826
59204W        W29019   3.357  23.566   0.440
59205W        W29020   1.255  35.006   2.233
59206W        W29021   1.784  11.167  10.450
59207W        W29022  15.792  27.631   3.781
59208W        W29023  22.086  10.268   2.377
59209W        W29024  14.771   3.337  14.825
59210W        W29025   4.405  27.060  14.901
59211W        W29026  23.571   2.404   2.735
59212W        W29027  41.412  17.200  12.918
59213W        W29028  38.329  11.827  14.316
59214W        W29029  14.201  22.143   4.317
59215W        W29030  40.348  43.512  12.454
59216W        W29031  29.975  42.893   3.353
59217W        W29032  16.142  31.070  11.029
59218W        W29033  32.429  44.389  13.436
59219W        W29034  43.985  25.646  14.472
59220W        W29035  24.635  33.559  12.856
59221W        W29036   2.782  41.421   4.825
59222W        W29037  26.458  30.420  14.379
59223W        W29038   1.828  34.046  13.316
59224W        W29039  18.687  34.954   2.859
59225W        W29040  10.802  23.159   0.772
59226W        W29041  17.166  23.142   3.631
59227W        W29042  17.564   3.345  12.943
59228W        W29043  20.127  22.500   4.665
59229W        W29044   1.461  27.140  10.630
59230W        W29045   3.950  35.412   4.682
59231W        W29046  14.267  27.990   3.707
59232W        W29047  28.463  44.289   1.386
59233W        W29048   8.331  11.355  12.372
59234W        W29049  28.590   6.797   3.858
59235W        W29050   8.889   7.193  14.327
59236W        W29051  21.254  23.558  14.784
59237W        W29052  22.246  29.595   2.289
59238W        W29053  37.890  44.947   3.737
59239W        W29054  15.710  20.228  10.437
59240W        W29055  31.997  34.565  13.496
59241W        W29056   0.442  30.596  14.800
59242W        W29057  19.627  29.106   1.309
59243W        W29058  43.855  32.049   1.252
59244W        W29059  29.968  18.668  14.283
59245W        W29060  22.607  38.860   1.215
59246W        W29061  15.784  13.106  14.990
59247W        W29062  32.575  26.972  12.988
59248W        W29063  37.429  29.466  11.865
59249W        W29064  22.656  35.538   3.176
59250W        W29065  28.018  13.778  10.520
59251W        W29066  10.165  33.045  12.546
59252W        W29067  19.074   1.754  10.529
59253W        W29068  33.483  33.530  12.912
59254W        W29069  35.021  10.795   0.961
59255W        W29070  27.027  22.501   1.708
59256W        W29071  11.811  34.006   0.452
59257W        W29072  22.644   9.296   0.385
59258W        W29073  23.022   5.892   3.685
59259W        W29074  14.758  22.664   3.679
59260W        W29075  14.670  29.114   2.796
59261W        W29076  17.636   9.693  11.997
59262W        W29077  38.396  30.532  14.921
59263W        W29078  44.378  17.292   0.926
59264W        W29079  14.744  32.042   1.213
59265W        W29080  31.133  21.643   0.302
59266W        W29081  16.569  28.594   1.273
59267W        W29082  39.502   8.787  10.083
59268W        W29083   2.875   9.266  13.538
59269W        W29084  27.582  17.635  14.487
59270W        W29085  24.714  40.477   4.157
59271W        W29086  16.638  44.861   3.666
59272W        W29087  10.686  34.926  14.834
59273W        W29088   5.743   6.261  11.530
59274W        W29089  10.653  38.060   3.370
59275W        W29090  44.390   7.223   3.361
59276W        W29091  43.997  27.446  13.796
59277W        W29092  40.024  43.823  13.322
59278W        W29093  14.748  15.676  11.575
59279W        W29094  32.039  24.173  13.510
59280W        W29095  26.069   2.837   4.230
59281W        W29096  25.049  17.089  14.871
59282W        W29097  27.188  36.371   0.272
59283W        W29098  10.716  43.784  11.542
59284W        W29099  17.672  24.595  14.900
59285W        W29100   8.250   4.234  11.065
59286W        W29101  21.258  20.092  11.420
59287W        W29102  21.575  41.989  13.045
59288W        W29103   9.667  14.624   0.783
59289W        W29104  40.909   7.809  10.019
59290W        W29105  15.750   8.762  13.813
59291W        W29106  28.025  11.145  13.994
59292W        W29107  14.807   0.476   3.327
59293W        W29108  35.042  29.138  10.093
59294W        W29109  40.359  40.876   0.798
59295W        W29110  30.090  28.107   3.865
59296W        W29111  44.802  40.051   4.600
59297W        W29112  12.307  30.514   1.834
59298W        W29113  20.262  16.638  13.330
59299W        W29114  43.795   0.353   2.741
59300W        W29115  43.880  36.522  14.489
59301W        W29116   7.704  43.270  12.082
59302W        W29117  39.321  31.968   4.352
59303W        W29118  12.810  14.749   1.336
59304W        W29119  21.181  28.139  13.054
59305W        W29120   5.781  34.893   3.186
59306W        W29121  32.069  15.149   1.394
59307W        W29122  19.179  23.150  13.820
59308W        W29123   2.799   5.305   2.240
59309W        W29124  17.296  29.121   9.933
59310W        W29125   3.718   5.814   1.290
59311W        W29126   5.781  35.519   4.794
59312W        W29127  29.990   8.746   3.762
59313W        W29128  32.503  25.505  12.374
59314W        W29129  36.076  43.792  12.424
59315W        W29130  11.352  16.139  13.518
59316W        W29131   4.773  28.949  11.435
59317W        W29132  26.105  24.487   3.808
59318W        W29133  14.166  42.393  12.873
59319W        W29134  14.242   8.299  11.105
59320W        W29135  18.787  11.183   1.816
59321W        W29136  25.533  34.871   4.695
59322W        W29137  35.481  36.354   0.441
59323W        W29138  14.761  42.480  14.502
59324W        W29139  31.444  33.582   4.607
59325W        W29140   8.723   9.231   2.340
59326W        W29141   9.842  19.191  10.608
59327W        W29142  10.819  31.077   1.855
59328W        W29143   7.207  44.009   4.132
59329W        W29144  26.483  14.814  10.898
59330W        W29145  31.407   4.383   0.465
59331W        W29146  16.101  16.748   2.295
59332W        W29147  14.168  11.291  11.054
59333W        W29148   4.405  22.741  14.325
59334W        W29149   8.266  23.091   2.250
59335W        W29150  11.728  22.036   0.774
59336W        W29151  16.214  40.459  14.893
59337W        W29152  26.529  33.474   3.700
59338W        W29153   4.231  21.529   2.236
59339W        W29154  36.588  21.164   2.338
59340W        W29155  44.474  26.625   2.257
59341W        W29156  28.126  33.989  10.155
59342W        W29157  27.099  32.594   3.346
59343W        W29158   7.743   9.319  12.563
59344W        W29159   8.724  32.029   1.884
59345W        W29160  21.730   0.858  13.034
59346W        W29161  20.054  32.435   0.784
59347W        W29162  16.682  22.161   3.330
59348W        W29163  44.908   2.442   4.622
59349W        W29164  13.781  15.666   3.682
59350W        W29165  40.350  44.820   2.367
59351W        W29166  36.941   3.945  11.866
59352W        W29167  31.505  23.142  12.919
59353W        W29168   3.903  34.964  11.484
59354W        W29169  37.430  17.230  14.915
59355W        W29170  33.098  19.595   0.324
59356W        W29171  34.068  34.471   0.465
59357W        W29172  20.645  37.994   0.316
59358W        W29173  19.599   4.317  11.517
59359W        W29174  12.610  18.702   0.841
59360W        W29175  13.760  15.731   1.328
59361W        W29176  23.046   0.424   2.331
59362W        W29177  13.301  25.526  13.322
59363W        W29178  11.190  27.134   2.389
59364W        W29179   1.790  28.177   1.890
59365W        W29180  16.156  30.649  11.046
59366W        W29181  10.335  42.869   3.380
59367W        W29182  40.833  10.743  14.770
59368W        W29183  33.502   8.898  10.586
59369W        W29184  33.912  25.106   3.230
59370W        W29185  34.997  19.188  14.969
59371W        W29186   7.746   1.424  14.314
59372W        W29187  29.125  12.216  12.577
59373W        W29188   5.413  24.065   1.446
59374W        W29189  28.668   9.798   4.791
59375W        W29190  25.701  35.557   2.399
59376W        W29191  40.541  23.162  11.382
59377W        W29192  42.468  24.587  11.569
59378W        W29193   9.273  18.255  12.964
59379W        W29194   9.328  29.120   4.789
59380W        W29195  14.229  15.808  11.467
59381W        W29196   4.372  11.317  13.053
59382W        W29197  19.689   4.879  13.998
59383W        W29198   5.347  22.510   4.177
59384W        W29199  26.579  44.784   3.683
59385W        W29200  44.896  21.080   1.359
59386W        W29201  32.440  11.640  10.617
59387W        W29202  17.145  34.941  14.358
59388W        W29203  37.357  17.208  10.555
59389W        W29204   3.777  10.149   9.995
59390W        W29205  15.264  23.655   2.674
59391W        W29206  28.554  28.076  12.828
59392W        W29207  34.953   2.878   4.716
59393W        W29208   1.793   7.386  12.855
59394W        W29209  20.651   0.472  13.497
59395W        W29210  43.817   3.239   4.137
59396W        W29211   4.871   0.802   2.280
59397W        W29212  13.642  39.029   0.353
59398W        W29213  12.619  15.578   4.346
59399W        W29214  10.736  29.461  11.371
59400W        W29215  35.085  34.612  13.040
59401W        W29216  23.687  30.942  14.887
59402W        W29217  10.794  12.674  12.990
59403W        W29218   6.403  14.116  13.495
59404W        W29219  35.384  43.001  13.050
59405W        W29220   8.680   9.783  13.347
59406W        W29221  37.033  32.495   2.732
59407W        W29222  26.979  16.254   0.860
59408W        W29223  21.193  11.314  13.815
59409W        W29224   5.785  25.064  12.934
59410W        W29225   6.300  17.631  12.511
59411W        W29226  18.632  12.352   1.332
59412W        W29227   6.710  41.450  11.434
59413W        W29228  31.426  15.097  10.433
59414W        W29229  34.580   9.767   2.256
59415W        W29230   9.878  28.680  10.558
59416W        W29231  14.617   1.475  14.287
59417W        W29232   4.278  17.107  14.903
59418W        W29233  23.149  44.319  12.019
59419W        W29234  29.579  30.133  14.289
59420W        W29235  16.296  26.975  12.949
59421W        W29236  20.030  24.213   2.212
59422W        W29237  14.662   2.919  11.425
59423W        W29238  37.536   0.421  12.442
59424W        W29239  41.368  16.772   4.764
59425W        W29240  20.564   7.240   1.841
59426W        W29241  26.115  20.525  13.804
59427W        W29242  42.919  23.525   4.115
59428W        W29243  34.957  36.545   2.298
59429W        W29244   2.252  25.498   3.652
59430W        W29245   1.846   3.745   2.307
59431W        W29246  30.585   5.230  13.409
59432W        W29247  30.646  43.992  12.473
59433W        W29248  39.374   9.318   9.542
59434W        W29249  36.360   0.968   0.788
59435W        W29250  12.838  10.813  14.891
59436W        W29251  27.593  37.878  12.474
59437W        W29252  44.470  22.034   1.365
59438W        W29253   8.866  12.351  14.914
59439W        W29254  38.508  21.228  12.909
59440W        W29255  17.753   6.385  12.369
59441W        W29256  31.034   8.275  14.843
59442W        W29257  14.229  38.400   4.721
59443W        W29258  38.529  20.712   1.383
59444W        W29259  23.127  38.526   3.151
59445W        W29260  19.244  31.138   4.156
59446W        W29261  19.207  40.999   0.274
59447W        W29262  38.008  13.235  11.386
59448W        W29263   5.406  29.426   4.633
59449W        W29264  20.700  39.936  13.844
59450W        W29265  17.193  44.867  13.928
59451W        W29266   8.326  35.523  13.545
59452W        W29267  29.963   1.817   1.843
59453W        W29268  22.171   1.323  14.991
59454W        W29269  17.224  30.541  10.560
59455W        W29270   9.847  31.910  12.056
59456W        W29271   8.382   2.791   1.382
59457W        W29272  44.863   8.385  13.801
59458W        W29273  30.614   5.776   4.747
59459W        W29274  13.326  23.129   2.731
59460W        W29275  30.617  32.948  14.509
59461W        W29276  25.511   0.810  13.316
59462W        W29277  19.767  14.789   1.812
59463W        W29278  23.207  27.685   4.699
59464W        W29279  10.275   2.467   5.284
59465W        W29280  34.121  18.622  12.343
59466W        W29281  36.357  30.976   2.679
59467W        W29282  32.075  25.070   2.725
59468W        W29283  11.792   8.208   0.856
59469W        W29284  41.805  21.719  13.852
59470W        W29285  17.710  14.135  13.931
59471W        W29286  40.989  42.497  14.769
59472W        W29287  10.138   1.305  13.924
59473W        W29288  14.681   0.323   0.401
59474W        W29289  30.056   0.430  12.039
59475W        W29290  32.135  20.757  12.428
59476W        W29291  16.314   2.771   0.737
59477W        W29292   4.377  26.015  11.510
59478W        W29293   1.286  41.022   3.858
59479W        W29294  13.300  20.556   1.813
59480W        W29295  24.666  44.906   3.648
59481W        W29296  34.044  31.501   2.884
59482W        W29297  22.627  12.627   0.914
59483W        W29298  26.673  31.035  11.470
59484W        W29299  29.583  23.107  12.986
59485W        W29300   6.193  10.350   2.190
59486W        W29301  16.126  39.544   4.331
59487W        W29302  20.620  27.666   1.902
59488W        W29303  35.905  22.163   4.146
59489W        W29304   5.254  38.432   4.342
59490W        W29305  14.720   8.248   0.389
59491W        W29306  18.079  10.187  14.842
59492W        W29307  39.884  35.993  13.041
59493W        W29308  27.132   6.190  14.894
59494W        W29309  16.604  28.166  11.559
59495W        W29310  36.861  16.569   3.858
59496W        W29311  20.716  32.973  11.521
59497W        W29312   2.353  41.882   0.361
59498W        W29313  29.969  42.819   1.799
59499W        W29314  23.664   6.860  13.028
59500W        W29315   5.933  40.534  14.001
59501W        W29316  26.198  32.140   3.725
59502W        W29317  38.003  26.627  12.991
59503W        W29318  38.403  12.285  13.421
59504W        W29319  40.421  36.975   1.365
59505W        W29320  18.603  32.942   4.736
59506W        W29321  32.942  11.641  13.848
59507W        W29322  32.626  13.749  12.005
59508W        W29323  19.063  43.770   5.746
59509W        W29324  10.752  36.956  13.983
59510W        W29325  30.659  10.318   0.955
59511W        W29326  14.811  27.158   0.305
59512W        W29327  31.599   1.440  13.834
59513W        W29328  11.156  31.530   0.960
59514W        W29329  26.961  43.849   4.274
59515W        W29330  10.221   2.793  11.375
59516W        W29331  10.743  43.373   1.875
59517W        W29332  28.001  30.628  11.575
59518W        W29333  37.005  17.161  14.324
59519W        W29334   9.844  43.328   1.448
59520W        W29335  28.002  33.536  13.363
59521W        W29336   5.820  35.509  10.557
59522W        W29337  11.165  27.613  12.025
59523W        W29338  27.974  22.069  14.377
59524W        W29339   8.243   8.814   0.427
59525W        W29340  17.160  27.142   1.751
59526W        W29341  23.061   2.258  12.864
59527W        W29342  21.208   8.376  13.976
59528W        W29343  25.219  25.614  13.001
59529W        W29344  31.531   1.476   3.871
59530W        W29345  33.397  15.323   4.249
59531W        W29346  16.117  15.741  13.821
59532W        W29347  24.077  37.407  11.377
59533W        W29348  35.458  21.681   3.726
59534W        W29349  24.479  23.711  13.060
59535W        W29350   1.344  10.280   3.654
59536W        W29351  11.679  16.634   5.662
59537W        W29352   3.376  32.560  14.471
59538W        W29353  22.514  29.566   2.282
59539W        W29354   3.926  37.532  12.497
59540W        W29355   9.331  14.630   2.774
59541W        W29356  42.464  19.106  14.815
59542W        W29357   1.247  15.143   1.878
59543W        W29358   7.328  19.673  13.896
59544W        W29359  28.438  18.103  14.429
59545W        W29360  14.100  19.107   2.378
59546W        W29361  23.586  41.941  13.062
59547W        W29362   1.947  14.325   4.336
59548W        W29363   3.820  44.803   0.472
59549W        W29364  17.608   1.969   2.363
59550W        W29365  24.626  22.226  13.473
59551W        W29366  25.090  29.540   2.729
59552W        W29367  43.356  10.772   3.198
59553W        W29368  24.216  36.046  13.948
59554W        W29369  13.722  44.334   2.722
59555W        W29370   9.269  10.289   4.803
59556W        W29371  18.149  39.448  13.046
59557W        W29372  43.460   9.694  12.394
59558W        W29373   9.308  21.208   1.802
59559W        W29374  20.266  38.920   0.445
59560W        W29375  17.154  25.706  12.514
59561W        W29376  25.668  23.208  13.333
59562W        W29377   3.428   0.306   3.245
59563W        W29378   8.284  26.077   3.758
59564W        W29379   0.786   3.807  10.899
59565W        W29380  28.491  29.050   2.216
59566W        W29381  34.903  35.085   1.749
59567W        W29382  10.836  31.408   4.776
59568W        W29383  41.021  22.513  11.500
59569W        W29384   5.289  31.433  12.389
59570W        W29385  37.443  11.666  11.481
59571W        W29386  24.017  18.635   3.191
59572W        W29387  36.589  35.915  11.891
59573W        W29388  34.074  26.963  12.398
59574W        W29389  29.482  25.193  10.634
59575W        W29390   2.454  12.219   4.809
59576W        W29391   0.362   2.956   3.630
59577W        W29392   9.368  19.256   1.799
59578W        W29393  15.191  36.048  13.456
59579W        W29394  29.977  16.594   2.245
59580W        W29395  23.023  32.965  11.966
59581W        W29396  26.507   2.317  14.492
59582W        W29397  28.557  33.972   1.238
59583W        W29398  35.874  21.661   4.767
59584W        W29399  37.011   8.675  12.831
59585W        W29400  27.613  36.583   4.308
59586W        W29401  44.007  41.388   4.297
59587W        W29402  33.396  29.648  13.539
59588W        W29403  27.544  27.061  11.109
59589W        W29404  11.187  15.150  11.031
59590W        W29405   5.887  43.415  12.897
59591W        W29406  21.707  26.035  11.064
59592W        W29407  22.544  35.963  14.804
59593W        W29408   9.760  31.485  11.120
59594W        W29409  10.240  23.078   4.275
59595W        W29410  10.639  11.814  11.562
59596W        W29411  32.584  30.511  14.801
59597W        W29412  32.951  29.459  12.008
59598W        W29413   9.388  20.256   0.953
59599W        W29414   1.941   9.822  11.606
59600W        W29415  19.626  18.204  14.793
59601W        W29416  33.572   2.764  13.444
59602W        W29417  30.069   5.255   2.293
59603W        W29418  28.158  22.028  12.087
59604W        W29419  39.460   0.346   1.875
59605W        W29420  15.687   2.316   3.377
59606W        W29421  37.451  39.558  13.848
59607W        W29422  41.375  44.889   3.699
59608W        W29423  26.200   8.663  11.431
59609W        W29424   9.719  31.033   0.362
59610W        W29425  15.282  33.941   0.384
59611W        W29426  17.627  27.032  14.320
59612W        W29427  39.396  14.722  12.362
59613W        W29428   1.740  14.735   2.320
59614W        W29429  23.590  40.401   0.309
59615W        W29430  43.299  18.182  10.582
59616W        W29431  33.466  42.439  13.843
59617W        W29432  29.172  25.582   1.821
59618W        W29433  37.834  26.533  10.919
59619W        W29434  18.149  35.016  13.499
59620W        W29435   1.944  18.120   3.179
59621W        W29436   3.802  13.787  12.390
59622W        W29437   3.299  17.162   3.160
59623W        W29438   5.406   8.802  11.517
59624W        W29439  36.347  40.355   2.411
59625W        W29440  16.598  25.201  14.307
59626W        W29441   1.768  11.361  14.333
59627W        W29442   0.265  13.127   0.410
59628W        W29443  30.936  38.981   0.794
59629W        W29444  20.657  36.937  11.993
59630W        W29445  42.817  37.435   0.894
59631W        W29446  37.487  30.549   2.828
59632W        W29447  14.274  33.965   3.791
59633W        W29448   8.297  17.080  13.431
59634W        W29449  30.028  18.294  14.321
59635W        W29450  22.724   3.387  11.077
59636W        W29451  39.415   3.328  11.537
59637W        W29452  22.606  28.620  14.806
59638W        W29453  11.275  43.514   3.195
59639W        W29454  24.630  26.492   1.339
59640W        W29455  16.306  36.421  11.417
59641W        W29456  21.722  32.574   2.340
59642W        W29457   4.286   8.320  10.556
59643W        W29458  16.168   3.285  11.445
59644W        W29459  32.107  36.923  11.418
59645W        W29460   2.932  44.308   0.396
59646W        W29461  23.542  12.669   4.656
59647W        W29462   7.722   4.340  13.423
59648W        W29463  36.034  30.090  14.992
59649W        W29464  22.995  30.534   2.357
59650W        W29465  43.275  41.883  14.935
59651W        W29466  35.476  41.972  11.510
59652W        W29467   8.791  11.623   1.882
59653W        W29468  19.570  40.826   0.775
59654W        W29469  13.633  41.021  14.815
59655W        W29470   2.384  40.474   0.834
59656W        W29471  17.112   4.222  14.788
59657W        W29472  35.022  40.020   2.829
59658W        W29473  10.334  22.607  14.459
59659W        W29474  37.337  23.231  13.309
59660W        W29475   1.813  42.397   1.341
59661W        W29476  37.961   8.243  14.984
59662W        W29477  20.168  11.356   0.948
59663W        W29478  30.093   9.874   3.249
59664W        W29479  10.180  10.669   2.738
59665W        W29480  30.592  38.419   3.698
59666W        W29481  12.847   0.962  14.316
59667W        W29482  17.566  40.369   4.314
59668W        W29483  34.924  11.808  10.615
59669W        W29484   2.832  43.968  11.918
59670W        W29485  31.064  10.335   1.853
59671W        W29486  30.543  17.106   3.840
59672W        W29487  11.826   2.762  13.018
59673W        W29488  32.459   0.819  11.545
59674W        W29489  24.043  34.463   4.785
59675W        W29490   9.267  35.910  13.452
59676W        W29491  15.298  35.936   4.830
59677W        W29492  17.598  39.340   1.930
59678W        W29493  24.696  39.827   3.262
59679W        W29494  34.911   9.836   1.819
59680W        W29495   6.332  39.031   0.475
59681W        W29496  41.500  28.678   3.319
59682W        W29497  25.714  30.059   1.770
59683W        W29498   2.320  18.283   0.737
59684W        W29499   0.364  43.471   4.789
59685W        W29500  16.137  37.959   1.706
59686W        W29501  42.970  21.728   0.773
59687W        W29502  18.146  11.846   3.844
59688W        W29503  18.785   0.488   4.768
59689W        W29504   0.322   4.744   2.225
59690W        W29505  44.761  19.049  13.958
59691W        W29506  33.448  23.659  11.587
59692W        W29507   4.729  30.029   1.223
59693W        W29508   0.320  27.563  14.770
59694W        W29509   8.350   9.278   3.652
59695W        W29510  30.989  16.775   0.870
59696W        W29511   3.723  43.941  11.973
59697W        W29512  40.913  27.965  12.847
59698W        W29513  36.992  13.838   4.706
59699W        W29514  28.143  23.220   3.162
59700W        W29515   9.390  15.147   4.326
59701W        W29516  23.646   6.287   3.318
59702W        W29517   9.761  33.086  14.365
59703W        W29518  31.620  35.918   3.780
59704W        W29519  36.049  19.736   3.771
59705W        W29520  31.417  39.474   4.322
59706W        W29521  12.196  36.940   0.881
59707W        W29522   1.780  22.504   2.297
59708W        W29523  24.492  39.035   1.870
59709W        W29524  22.026  44.382  10.038
59710W        W29525  34.108  36.067   2.308
59711W        W29526  14.740  17.777  10.437
59712W        W29527   0.984  23.164  12.859
59713W        W29528  15.739   8.885  14.905
59714W        W29529  13.845   2.827   1.438
59715W        W29530   0.856  33.563   9.985
59716W        W29531   4.349  22.712   3.818
59717W        W29532  22.610  15.592   0.331
59718W        W29533  31.111   0.937   1.424
59719W        W29534   7.207  37.034   2.338
59720W        W29535  26.968  39.849  13.323
59721W        W29536   0.421   7.803  13.541
59722W        W29537  13.213   5.712  13.444
59723W        W29538  13.212   8.201  12.851
59724W        W29539  20.138  38.977   2.340
59725W        W29540  41.935  13.184  14.339
59726W        W29541  28.573  34.083  10.498
59727W        W29542  29.602  10.276   4.640
59728W        W29543  34.925  29.034   3.700
59729W        W29544  11.252  13.814   4.625
59730W        W29545  42.307  18.063  14.996
59731W        W29546  13.201  15.721   4.720
59732W        W29547  28.571   7.871  10.546
59733W        W29548  31.991  11.707   1.341
59734W        W29549  29.052  25.190   1.902
59735W        W29550  10.718  29.081   0.924
59736W        W29551  16.685  10.347   0.460
59737W        W29552  17.126  21.246   3.764
59738W        W29553   4.272   0.984  11.466
59739W        W29554  27.508  15.761   0.802
59740W        W29555  36.406  14.262   1.309
59741W        W29556  38.403   7.666   0.438
59742W        W29557  13.352   3.939   0.890
59743W        W29558  14.680  19.237   2.891
59744W        W29559   6.748  38.032  12.995
59745W        W29560  20.194  13.645   4.216
59746W        W29561  23.100  20.208   4.704
59747W        W29562  23.628  16.802   2.348
59748W        W29563   2.225  44.890  14.306
59749W        W29564  22.565  14.242   3.324
59750W        W29565   1.739  33.407  14.293
59751W        W29566  33.960  19.223   2.287
59752W        W29567  19.168  32.006   3.175
59753W        W29568   9.863   9.370   2.418
59754W        W29569  11.691  33.610  13.001
59755W        W29570  43.819  16.127  11.571
59756W        W29571  33.953  42.988  10.890
59757W        W29572  24.020  35.028  11.982
59758W        W29573  12.840  27.179  11.515
59759W        W29574   7.875  43.382   4.700
59760W        W29575  20.062  22.140  10.621
59761W        W29576  23.673  39.364  12.051
59762W        W29577  16.797   6.250  12.492
59763W        W29578  34.885  17.067   5.105
59764W        W29579  16.271   0.758   2.378
59765W        W29580  36.095   1.931  13.473
59766W        W29581  40.833  11.624  13.419
59767W        W29582  31.988  24.178   5.175
59768W        W29583  38.994  33.596   2.705
59769W        W29584  32.549   8.817  12.567
59770W        W29585  18.083  30.011   2.690
59771W        W29586  41.995  31.044   1.258
59772W        W29587   5.377  37.575  13.335
59773W        W29588   8.840  29.143  10.604
59774W        W29589  38.904  12.116   2.193
59775W        W29590  30.476  23.667   4.822
59776W        W29591   7.277  24.619  13.935
59777W        W29592   3.916   9.391  11.492
59778W        W29593  35.017   8.196   0.849
59779W        W29594  27.491  16.708  14.322
59780W        W29595  39.043  21.135   0.445
59781W        W29596  24.639  42.314  14.346
59782W        W29597   4.731  24.691  12.377
59783W        W29598  25.678  35.457   1.240
59784W        W29599  12.762   2.829  11.496
59785W        W29600  31.108  17.592  12.420
59786W        W29601  38.471  35.370   2.899
59787W        W29602  36.476  33.088   0.856
59788W        W29603  30.572  44.976  10.438
59789W        W29604  39.974  10.814   4.652
59790W        W29605  28.470  11.844   2.395
59791W        W29606  42.497  23.054   4.343
59792W        W29607  12.333  35.044   0.457
59793W        W29608  22.541  11.210  12.580
59794W        W29609  43.958  26.119   1.287
59795W        W29610  39.532   0.928  11.875
59796W        W29611  44.423  32.567   1.835
59797W        W29612   1.418  39.881   1.934
59798W        W29613  43.480   9.289  10.925
59799W        W29614  19.584  18.684  10.440
59800W        W29615  24.979   8.263   4.290
59801W        W29616  16.317  15.803  14.480
59802W        W29617  29.977  24.054  10.492
59803W        W29618   4.233  15.300  12.955
59804W        W29619  32.489   5.406   2.697
59805W        W29620  27.014  26.962   0.905
59806W        W29621  19.121  19.775  14.492
59807W        W29622  22.140  29.073  12.996
59808W        W29623  44.303   8.848   4.803
59809W        W29624   0.317  24.636   2.301
59810W        W29625  22.252   0.307  12.868
59811W        W29626  39.328   5.786  10.569
59812W        W29627  15.154  10.860  12.965
59813W        W29628   3.360  22.709  14.031
59814W        W29629  18.296  34.402   3.725
59815W        W29630   2.960   4.294  13.917
59816W        W29631  35.003  27.068   4.787
59817W        W29632  21.143  32.511   1.740
59818W        W29633  24.052  42.351  14.920
59819W        W29634  37.436  40.039  14.467
59820W        W29635   7.363   6.914  11.997
59821W        W29636  15.280  32.030   5.158
59822W        W29637  22.635   8.298   2.668
59823W        W29638  35.887   4.704  11.124
59824W        W29639  24.483  38.069  10.976
59825W        W29640  41.509  29.175  13.926
59826W        W29641   4.828  14.198   3.150
59827W        W29642   9.846  10.773   1.357
59828W        W29643   4.261   1.735   4.746
59829W        W29644  15.306  40.305  11.946
59830W        W29645  38.820  23.114   3.298
59831W        W29646  19.097  34.882   2.784
59832W        W29647  10.201  12.314   2.329
59833W        W29648  16.666  24.035   4.304
59834W        W29649  21.186  27.653   3.692
59835W        W29650  27.128  22.241   2.331
59836W        W29651  17.740  29.658   0.430
59837W        W29652  17.601   4.325   0.743
59838W        W29653  31.568  32.943  11.611
59839W        W29654  34.955  44.377   2.798
59840W        W29655  42.851  42.287   0.893
59841W        W29656   7.890  23.638   1.823
59842W        W29657   7.897   7.759   3.835
59843W        W29658  36.841   7.285  13.891
59844W        W29659  25.678   1.935   4.303
59845W        W29660   1.419  44.313   2.732
59846W        W29661  42.373  26.561  14.358
59847W        W29662  17.586   7.290   4.275
59848W        W29663  42.854  17.561   3.298
59849W        W29664  21.183  13.224   1.737
59850W        W29665  16.697  36.426   4.686
59851W        W29666  43.952   2.456   1.781
59852W        W29667  39.816   5.337   3.675
59853W        W29668  33.102   1.774  14.837
59854W        W29669  19.596  37.936  10.915
59855W        W29670  33.484  42.501  11.986
59856W        W29671  14.195  27.544   2.838
59857W        W29672  10.219  38.997   4.283
59858W        W29673  25.676  38.036  11.957
59859W        W29674  44.400  20.747  10.066
59860W        W29675   9.728  13.292  11.912
59861W        W29676  31.613   8.304  11.520
59862W        W29677  12.851  20.632  11.612
59863W        W29678  16.735  30.634  11.450
59864W        W29679   1.762   0.392  13.319
59865W        W29680  15.591  21.158  12.002
59866W        W29681  42.937  19.599  12.576
59867W        W29682  15.258  39.897   4.136
59868W        W29683  17.240  39.326  11.570
59869W        W29684  17.292   2.911  14.848
59870W        W29685  29.561  10.143   4.286
59871W        W29686  19.151  21.570   0.476
59872W        W29687  40.998  24.619   4.785
59873W        W29688   2.814  34.083  11.014
59874W        W29689  33.539  32.425  11.857
59875W        W29690  32.001  33.067  11.009
59876W        W29691   4.767  39.370   2.708
59877W        W29692  16.251  40.517   3.346
59878W        W29693  16.804   5.701  10.922
59879W        W29694   6.385   2.461  13.965
59880W        W29695  41.370  44.448   1.755
59881W        W29696   7.275  20.204  14.902
59882W        W29697  42.881  41.940   1.240
59883W        W29698  15.784  37.060  14.872
59884W        W29699  22.061  42.891  11.406
59885W        W29700  14.326  23.539   1.359
59886W        W29701  14.148  38.427  14.952
59887W        W29702  20.034  12.754   2.317
59888W        W29703   9.225  29.048  11.611
59889W        W29704   3.402  44.304   0.848
59890W        W29705  41.292  39.037   0.262
59891W        W29706  13.680  34.077   0.308
59892W        W29707  39.005  36.844  10.490
59893W        W29708  22.140  42.972   4.795
59894W        W29709  16.191  31.475  14.433
59895W        W29710  23.674  22.204  10.986
59896W        W29711  42.309  26.563   1.317
59897W        W29712  21.121   5.692  12.873
59898W        W29713   6.333   3.381   1.873
59899W        W29714  34.410  23.729   1.387
59900W        W29715  25.612  11.693  11.006
59901W        W29716   5.930   3.778  12.066
59902W        W29717  26.679  10.352   3.201
59903W        W29718  25.555  40.395  14.763
59904W        W29719  26.555   7.260   3.859
59905W        W29720   4.405  33.624  13.015
59906W        W29721  10.845  27.118  13.473
59907W        W29722  18.231  32.046   4.272
59908W        W29723  36.374   9.266  10.568
59909W        W29724  10.284  15.601   0.428
59910W        W29725   0.298  13.134   4.300
59911W        W29726  37.886   2.388  12.492
59912W        W29727   7.704  44.340  11.380
59913W        W29728   9.366  28.618   4.778
59914W        W29729  26.608   0.927   4.816
59915W        W29730  12.276  26.494  13.327
59916W        W29731  11.206   5.299   3.356
59917W        W29732  18.636   2.439  14.341
59918W        W29733  18.210  20.208  14.998
59919W        W29734  43.821   0.328   0.755
59920W        W29735  25.668   0.926  14.837
59921W        W29736  41.384   9.370   0.458
59922W        W29737  29.667  38.502  10.952
59923W        W29738  13.150  13.235  10.537
59924W        W29739  33.626  37.405   3.811
59925W        W29740  30.114  20.647   1.810
59926W        W29741  36.558  31.539   9.657
59927W        W29742  12.355  11.652   2.798
59928W        W29743  39.508   1.281  10.469
59929W        W29744   1.427  27.593   3.203
59930W        W29745   0.478  27.973   4.190
59931W        W29746  39.837  16.791  11.948
59932W        W29747  28.062  40.473   4.749
59933W        W29748  34.988  18.086   2.238
59934W        W29749  39.517   3.713  10.472
59935W        W29750  33.476  40.309  10.442
59936W        W29751  16.073  35.091   3.347
59937W        W29752   0.793  37.499  14.991
59938W        W29753  11.863  40.822   2.247
59939W        W29754  29.950  21.186  13.877
59940W        W29755   9.300  36.469  10.912
59941W        W29756  38.530  14.113  12.875
59942W        W29757  19.118   6.183  11.876
59943W        W29758  10.219  29.482  10.594
59944W        W29759   9.348   2.959  13.450
59945W        W29760   0.886  38.438  10.546
59946W        W29761  42.408   0.428  11.601
59947W        W29762   3.355  35.884  10.519
59948W        W29763  16.630   9.276  11.541
59949W        W29764  30.962  21.227  10.525
59950W        W29765  35.602  15.226   0.458
59951W        W29766  38.907  17.216  13.006
59952W        W29767  40.452   6.799   0.959
59953W        W29768  20.589  37.849   2.766
59954W        W29769  29.098  10.217  14.286
59955W        W29770  38.016  10.782  14.397
59956W        W29771   8.762  28.520   0.345
59957W        W29772  12.259   2.896   0.356
59958W        W29773  22.049  17.298   2.872
59959W        W29774   0.432  13.239   2.315
59960W        W29775   7.251  24.544  12.859
59961W        W29776  28.967  40.032  13.318
59962W        W29777  10.826  24.673  13.059
59963W        W29778  18.722  10.350  12.446
59964W        W29779  29.015  42.795  12.019
59965W        W29780  20.760  12.711   2.792
59966W        W29781  37.404  23.681  13.816
59967W        W29782  20.176  17.737   3.361
59968W        W29783  21.573  41.509  13.951
59969W        W29784  26.180  31.014  11.404
59970W        W29785  25.967   9.867   3.699
59971W        W29786  25.005  22.123  14.765
59972W        W29787   0.334  31.987   1.704
59973W        W29788  39.425   6.799   0.890
59974W        W29789  38.836  31.459  14.409
59975W        W29790  27.569  38.875  10.921
59976W        W29791  44.295  27.124   2.255
59977W        W29792  25.548  33.420   3.683
59978W        W29793  37.379  13.801   1.439
59979W        W29794  32.446  44.331   0.793
59980W        W29795  26.134   4.404  12.492
59981W        W29796   2.396  31.563   2.876
59982W        W29797  12.229  12.176  13.849
59983W        W29798  13.712  37.412  10.087
59984W        W29799  25.614  25.570  11.060
59985W        W29800  12.259   3.328   4.838
59986W        W29801  14.097  18.728  13.365
59987W        W29802  31.007   3.821   4.802
59988W        W29803  32.910  21.038  12.862
59989W        W29804  16.214   6.693   0.423
59990W        W29805   1.422  23.151   4.350
59991W        W29806  12.143  38.066   2.808
59992W        W29807  32.476  32.142  13.447
59993W        W29808  27.021  36.350  11.886
59994W        W29809  43.427  28.462  11.479
59995W        W29810  20.591  13.177  13.452
59996W        W29811   4.311   2.909   1.306
59997W        W29812  44.929  29.161  12.414
59998W        W29813  35.109   2.398   2.791
59999W        W29814  21.175  32.083  11.023
60000W        W29815   2.914  28.540   1.908
60001W        W29816   9.767  18.699   9.619
60002W        W29817  34.027   7.329   3.846
60003W        W29818  29.443   4.760  13.486
60004W        W29819  43.968  19.722   2.409
60005W        W29820  35.550   6.757  14.962
60006W        W29821  22.600  32.006   0.460
60007W        W29822  12.719  16.699   0.943
60008W        W29823  10.147   2.424  14.969
60009W        W29824  15.255  21.109  11.883
60010W        W29825  15.146  22.606   4.802
60011W        W29826   1.829   7.774   4.658
60012W        W29827  15.133  39.939   1.834
60013W        W29828  38.867   8.274   4.263
60014W        W29829  18.161  35.977   3.284
60015W        W29830  22.008  17.083  13.901
60016W        W29831  25.494  39.986  11.435
60017W        W29832  17.556  11.751   4.831
60018W        W29833  31.985  23.553  10.069
60019W        W29834   1.970   3.328   1.410
60020W        W29835  40.869  28.985   1.411
60021W        W29836   3.355  15.647   4.633
60022W        W29837  27.541  31.975  11.478
60023W        W29838  21.055  29.053   3.153
60024W        W29839   6.821  18.786   4.691
60025W        W29840   9.711   9.649   0.352
60026W        W29841  11.327  32.122   4.182
60027W        W29842   3.444  33.007  13.385
60028W        W29843  41.947  39.315  13.310
60029W        W29844   6.396  23.562   9.968
60030W        W29845   6.803   6.412  12.374
60031W        W29846  40.932  31.961  12.561
60032W        W29847  21.570   3.312  11.092
60033W        W29848  27.038  44.797   4.838
60034W        W29849  16.132  31.133   2.737
60035W        W29850  37.888  35.901   1.745
60036W        W29851  42.017  22.253   4.117
60037W        W29852  38.032  22.707  10.998
60038W        W29853  27.525  24.155   0.479
60039W        W29854   2.441  43.428   2.722
60040W        W29855  36.374  30.062   3.277
60041W        W29856  30.115  10.776  12.015
60042W        W29857  27.649   1.409  12.509
60043W        W29858  20.578  44.774  13.024
60044W        W29859  36.880   0.975   1.869
60045W        W29860  24.567  27.672   2.807
60046W        W29861  21.073  20.557  12.056
60047W        W29862  17.297  17.695  14.873
60048W        W29863  26.684  14.694   2.902
60049W        W29864  21.590  19.199   4.333
60050W        W29865  11.134  43.500  11.082
60051W        W29866  21.020   4.372  10.970
60052W        W29867  33.999   9.890  13.062
60053W        W29868  10.207  20.651  11.092
60054W        W29869  42.503  14.604   0.357
60055W        W29870  42.520  43.326   3.652
60056W        W29871  12.181  11.303   3.764
60057W        W29872  16.252  32.947  13.985
60058W        W29873   4.435  28.058  11.120
60059W        W29874  12.809  34.399   4.806
60060W        W29875  22.092   7.271  12.527
60061W        W29876  30.919  28.665  14.287
60062W        W29877  20.544  18.741  11.420
60063W        W29878  10.813  12.727   1.839
60064W        W29879  26.525  43.334  12.423
60065W        W29880  17.585  13.304   2.673
60066W        W29881  34.472   6.238   3.347
60067W        W29882  39.872  40.036  11.054
60068W        W29883  21.239  29.035  11.491
60069W        W29884  41.852  44.355  11.000
60070W        W29885  42.434   6.782   3.305
60071W        W29886  29.617  22.665   0.873
60072W        W29887  16.256  41.787   3.247
60073W        W29888   7.349  17.198   2.707
60074W        W29889  31.009  27.582  11.897
60075W        W29890  30.600  37.559   2.283
60076W        W29891  32.074  34.444  11.416
60077W        W29892  21.606  30.127   0.902
60078W        W29893   2.783   2.231   2.674
60079W        W29894  17.166  38.531   0.398
60080W        W29895  14.733  26.457  11.921
60081W        W29896  12.215  44.998   0.856
60082W        W29897   6.331   6.920   3.781
60083W        W29898  30.641  19.562  13.328
60084W        W29899  23.176   8.729   0.830
60085W        W29900   0.384  32.456  10.469
60086W        W29901  39.337  13.644   4.702
60087W        W29902  28.614  23.181   0.309
60088W        W29903  35.097  10.238   0.470
60089W        W29904  16.796  35.856   2.696
60090W        W29905  18.747  10.234  13.464
60091W        W29906  29.594   9.351  11.872
60092W        W29907   5.836  40.442   1.248
60093W        W29908   1.331   0.280   2.780
60094W        W29909  25.060  24.217   0.246
60095W        W29910  15.191  24.532  14.879
60096W        W29911  31.437  25.651  13.981
60097W        W29912  30.648  31.958  11.024
60098W        W29913   0.819  14.334   1.317
60099W        W29914  40.896  37.450   2.809
60100W        W29915  30.029   8.375   3.638
60101W        W29916  26.497  14.226   1.927
60102W        W29917  13.238  39.933   1.825
60103W        W29918  41.323   4.386   0.313
60104W        W29919  20.183   6.760  14.448
60105W        W29920  12.355  34.013  12.852
60106W        W29921  32.566  12.817   3.172
60107W        W29922   4.272  42.838   4.618
60108W        W29923  33.417  23.631  14.009
60109W        W29924  28.963   7.233   2.775
60110W        W29925   4.804  38.038   1.710
60111W        W29926  39.443  19.730   3.210
60112W        W29927  24.584   2.746   1.215
60113W        W29928  29.632  17.107   2.759
60114W        W29929  27.544  30.583   1.363
60115W        W29930  14.749  17.184  14.350
60116W        W29931  12.829  29.568   4.280
60117W        W29932  41.978  35.937  13.453
60118W        W29933  40.876  20.052   0.786
60119W        W29934   0.312  42.003   1.775
60120W        W29935  42.949  38.512  10.440
60121W        W29936  41.334  23.095   3.650
60122W        W29937  31.564  29.965   0.446
60123W        W29938  34.086   4.392  11.944
60124W        W29939  26.116   8.169  11.933
60125W        W29940  33.051   0.352   2.711
60126W        W29941   4.270  36.494  13.524
60127W        W29942   0.776  42.005  13.978
60128W        W29943   2.897  10.258   0.468
60129W        W29944   5.931  14.113   3.384
60130W        W29945  29.646   1.477  13.311
60131W        W29946  20.175   4.318  11.864
60132W        W29947  24.141  28.490  12.441
60133W        W29948  39.858   5.304  10.420
60134W        W29949  39.425  39.038   1.828
60135W        W29950   8.821  40.496  14.000
60136W        W29951  27.631  29.031  12.983
60137W        W29952  21.119  19.757   4.248
60138W        W29953  26.599   4.879  12.859
60139W        W29954   3.239  38.355   2.790
60140W        W29955  23.128  29.527   4.242
60141W        W29956  26.997  19.158  13.964
60142W        W29957  30.006  40.837  13.397
60143W        W29958  15.259  36.054  12.357
60144W        W29959  37.427   1.899   9.981
60145W        W29960   3.433  17.139   1.844
60146W        W29961  16.807   4.845  12.496
60147W        W29962   7.213  20.091   2.197
60148W        W29963  22.664  31.439  12.858
60149W        W29964  22.090  21.534   3.771
60150W        W29965  37.030  28.060  14.454
60151W        W29966  11.652  27.617   2.337
60152W        W29967  41.847   6.280   1.878
60153W        W29968  33.519   7.255  12.564
60154W        W29969  27.157   5.834  12.530
60155W        W29970  30.940   0.886   0.300
60156W        W29971  16.116  39.323   1.227
60157W        W29972  30.616  13.228  12.503
60158W        W29973  32.615  40.308  10.591
60159W        W29974  25.502  38.855  14.838
60160W        W29975  19.544  12.638  11.860
60161W        W29976   9.220  33.444   3.302
60162W        W29977   2.371  31.977   5.087
60163W        W29978  15.593  13.335  10.620
60164W        W29979  34.105  30.993   3.207
60165W        W29980  22.685   4.827   4.826
60166W        W29981  23.689  30.154  11.582
60167W        W29982  26.016  30.594   3.378
60168W        W29983  32.446  14.788   3.307
60169W        W29984  16.153   8.379  12.012
60170W        W29985  12.759   5.802  12.845
60171W        W29986  33.096  38.071  14.908
60172W        W29987   1.892  19.571  12.552
60173W        W29988   8.833  11.648  14.451
60174W        W29989  19.201   2.319  13.911
60175W        W29990  14.263  19.227  13.954
60176W        W29991  17.226  30.123   4.116
60177W        W29992   3.828  36.966   0.373
60178W        W29993  30.114  18.633  11.036
60179W        W29994  35.014  24.513   1.442
60180W        W29995   7.744  18.580  10.487
60181W        W29996  16.140   8.380   1.740
60182W        W29997  44.495  14.779   3.327
60183W        W29998  10.246  31.941  11.963
60184W        W29999  21.521  32.084   1.358
60185W        W30000  36.507  44.005  10.960
60186W        W30001  19.537  32.080  10.966
60187W        W30002  24.990  44.357   4.224
60188W        W30003  25.050  11.258   3.306
60189W        W30004   9.813  31.990   3.702
60190W        W30005  30.514  39.532  12.827
60191W        W30006  32.980   9.155   4.818
60192W        W30007  15.236  28.037  10.620
60193W        W30008   4.216  40.930   4.286
60194W        W30009   4.401  30.148   0.482
60195W        W30010   8.375  35.878  11.583
60196W        W30011  15.646  12.790  13.513
60197W        W30012  10.733  19.075   3.364
60198W        W30013  44.936  38.033  12.342
60199W        W30014  25.989   7.229  14.837
60200W        W30015  32.091   9.845   4.243
60201W        W30016  36.381  30.512  12.957
60202W        W30017   9.883  34.371   2.397
60203W        W30018  10.303  43.016  14.324
60204W        W30019  39.476  25.976   1.858
60205W        W30020  41.482  40.463   2.720
60206W        W30021  31.991  41.934   4.641
60207W        W30022   9.321  29.460  12.480
60208W        W30023   6.728  21.194  11.542
60209W        W30024  30.131  23.082   0.481
60210W        W30025  16.191  31.547   0.451
60211W        W30026   5.194  21.100   4.739
60212W        W30027   5.329   8.871  12.394
60213W        W30028  30.623   6.410  14.947
60214W        W30029  30.964  29.614  13.408
60215W        W30030  40.355  30.944   3.348
60216W        W30031  38.527  12.671   0.480
60217W        W30032  43.320   9.726   4.831
60218W        W30033  35.575  26.460   1.308
60219W        W30034  16.181   5.261   1.446
60220W        W30035  39.926  19.167   3.667
60221W        W30036  42.907  41.338  12.400
60222W        W30037  44.289   2.743  11.080
60223W        W30038  39.976  39.053  12.549
60224W        W30039  14.672  20.658   0.399
60225W        W30040  36.353  19.705  12.472
60226W        W30041   2.891  37.356  12.845
60227W        W30042  38.333  41.887   2.395
60228W        W30043   3.369  19.226  13.395
60229W        W30044  40.541  34.530  14.892
60230W        W30045  19.059   7.751  14.998
60231W        W30046  23.602  12.185  13.314
60232W        W30047   7.371  27.050   0.860
60233W        W30048   1.949  15.322  12.012
60234W        W30049  36.435   8.856  14.349
60235W        W30050   1.787   6.847  11.583
60236W        W30051  21.672  26.591  14.449
60237W        W30052  37.879  38.980   0.284
60238W        W30053  14.689  20.178  13.920
60239W        W30054  22.721  16.758   0.296
60240W        W30055   7.290  18.769  10.940
60241W        W30056   4.836  27.105  11.372
60242W        W30057  30.918  31.491   0.877
60243W        W30058   6.395  16.591  13.420
60244W        W30059   6.713  30.562  14.505
60245W        W30060   0.934  28.554   1.223
60246W        W30061  17.716   7.856   4.620
60247W        W30062  38.998  10.230   2.898
60248W        W30063  41.799  30.041  14.459
60249W        W30064  25.599  10.293  12.566
60250W        W30065   3.738  32.426   3.661
60251W        W30066  27.132  13.156  14.940
60252W        W30067  22.045  20.570   0.952
60253W        W30068   2.226  39.364  10.909
60254W        W30069   8.223  32.033   2.846
60255W        W30070  22.118  34.108   3.746
60256W        W30071  10.167  21.109  12.992
60257W        W30072  35.390  11.758   3.780
60258W        W30073   2.472   1.972   2.721
60259W        W30074  43.894   2.905  12.071
60260W        W30075  15.702  32.408   1.445
60261W        W30076   2.762  13.288  14.852
60262W        W30077  32.560  12.723   4.793
60263W        W30078  36.988  37.489   3.867
60264W        W30079  34.982   0.360   4.617
60265W        W30080  31.104  29.969   4.209
60266W        W30081   7.716  37.487  14.280
60267W        W30082  28.472  14.720  10.410
60268W        W30083   0.360  20.713   1.274
60269W        W30084  32.069  15.714   3.378
60270W        W30085  31.019  23.215  13.466
60271W        W30086  26.011  21.068  12.838
60272W        W30087   8.664   7.876  13.357
60273W        W30088   2.347   4.240   3.336
60274W        W30089  35.931   7.894   1.757
60275W        W30090  17.713  35.092   4.297
60276W        W30091  25.094   7.354  14.377
60277W        W30092  11.144  16.313   2.780
60278W        W30093  26.008   1.815  14.418
60279W        W30094  13.632   3.319  11.897
60280W        W30095  16.762  22.625  12.482
60281W        W30096  17.229  40.934  11.474
60282W        W30097   7.707  23.023  11.485
60283W        W30098  27.628   5.738   3.147
60284W        W30099  33.626  35.452   3.294
60285W        W30100  11.666  38.464   3.340
60286W        W30101  22.621  20.632   1.386
60287W        W30102  22.074  12.247   0.810
60288W        W30103  33.877   0.918   2.807
60289W        W30104  31.918  22.514  13.824
60290W        W30105   2.296  15.753   3.752
60291W        W30106  12.350  39.992   2.759
60292W        W30107  24.975  11.803   2.227
60293W        W30108  32.917  25.057  13.849
60294W        W30109  30.569   0.824   4.813
60295W        W30110  21.690  18.772  11.900
60296W        W30111  21.720  41.916   3.273
60297W        W30112  10.373  13.677  11.419
60298W        W30113   5.786   8.737   9.923
60299W        W30114  13.262  14.644   0.274
60300W        W30115  20.121  11.778  12.425
60301W        W30116  28.003  25.133   1.214
60302W        W30117   7.719  36.348  12.367
60303W        W30118  23.677  36.020   1.866
60304W        W30119  11.149  39.497  14.469
60305W        W30120   9.265  13.779  13.934
60306W        W30121  17.218  36.041  12.864
60307W        W30122  15.102  13.319  12.548
60308W        W30123  31.912  42.494  10.538
60309W        W30124  15.244  32.482   4.169
60310W        W30125  11.160  37.415   1.863
60311W        W30126  10.140  44.909   1.380
60312W        W30127  31.552  40.400  12.571
60313W        W30128  17.791  16.287   3.167
60314W        W30129  12.709   1.367   1.231
60315W        W30130  19.589  44.274  14.031
60316W        W30131   6.422  38.518   3.333
60317W        W30132  36.435  24.065   3.717
60318W        W30133  24.722  37.869  13.313
60319W        W30134   3.425  37.936   4.795
60320W        W30135  39.957  40.808  11.419
60321W        W30136  33.555  12.214   4.612
60322W        W30137  12.650   9.727   1.800
60323W        W30138  28.962  39.314   1.837
60324W        W30139  12.200   1.945  11.927
60325W        W30140  16.624   8.220   3.165
60326W        W30141  37.497  40.452   2.291
60327W        W30142  31.114  44.288  12.391
60328W        W30143  17.212  31.618  10.405
60329W        W30144   1.364  33.908  11.581
60330W        W30145  13.640  38.015   1.307
60331W        W30146   5.246   3.922  13.015
60332W        W30147  22.224  28.062   2.235
60333W        W30148  27.085   5.866   4.132
60334W        W30149  22.056   8.770  12.477
60335W        W30150  33.487  38.421  10.988
60336W        W30151  18.235  24.480  14.470
60337W        W30152  41.911   9.867   4.721
60338W        W30153   6.293   5.702  11.442
60339W        W30154   0.962   7.881   1.877
60340W        W30155  37.527  29.526  12.549
60341W        W30156  36.418   5.771  11.493
60342W        W30157  19.062  24.688   1.902
60343W        W30158  36.068  33.947  11.118
60344W        W30159  15.318  34.385   4.606
60345W        W30160  38.938  10.762  12.830
60346W        W30161  38.375  44.364  11.385
60347W        W30162  29.971  36.073   3.265
60348W        W30163  30.115  39.449  14.793
60349W        W30164  21.531  35.509   3.234
60350W        W30165  17.137   0.413   0.896
60351W        W30166   8.389   3.428  11.507
60352W        W30167   7.855  12.166   0.338
60353W        W30168  13.599  27.623  11.868
60354W        W30169   6.188  11.741  14.928
60355W        W30170  35.080  21.688   0.292
60356W        W30171   8.374   0.266  14.955
60357W        W30172  10.649   1.855  13.973
60358W        W30173   7.894  34.444  12.851
60359W        W30174   7.670  39.487   5.612
60360W        W30175  15.114  29.989   3.729
60361W        W30176  25.573  23.564  11.437
60362W        W30177  10.308   8.887  10.146
60363W        W30178  15.655  19.089  11.511
60364W        W30179  12.220  25.999  10.526
60365W        W30180  14.225  21.512   3.789
60366W        W30181   0.768  11.749  14.958
60367W        W30182   9.390  30.514   1.226
60368W        W30183  27.988  13.182   2.214
60369W        W30184  17.284  44.866  10.978
60370W        W30185  35.578  24.537  13.415
60371W        W30186  39.944  14.096  12.383
60372W        W30187  43.018   6.262   0.374
60373W        W30188  20.566  11.193   0.760
60374W        W30189  17.234   4.282   0.246
60375W        W30190  13.208   1.838  14.367
60376W        W30191  39.485  30.444  14.337
60377W        W30192  10.641  13.210   1.810
60378W        W30193  15.590  15.604   2.193
60379W        W30194  22.040  11.291   4.157
60380W        W30195  28.025   4.810   2.326
60381W        W30196  14.614  18.260   0.894
60382W        W30197  44.950  42.800   0.754
60383W        W30198  28.093  36.089   4.642
60384W        W30199  35.477   7.237  12.009
60385W        W30200  26.630  28.636   3.159
60386W        W30201  39.002  28.678   0.268
60387W        W30202  36.582  41.030   4.750
60388W        W30203   4.249   5.397   4.716
60389W        W30204  33.969  23.202  11.052
60390W        W30205  23.723   9.794   0.285
60391W        W30206  16.759   5.857   4.114
60392W        W30207  39.366  11.723  11.116
60393W        W30208  16.311  31.980  11.932
60394W        W30209   1.277  17.769  14.980
60395W        W30210  13.796  24.094   4.674
60396W        W30211  25.105  35.412   3.812
60397W        W30212  42.371  21.584  10.913
60398W        W30213  25.642  32.445  11.921
60399W        W30214  17.569  27.163   0.389
60400W        W30215  15.736   5.259  14.956
60401W        W30216  28.546  12.134   4.184
60402W        W30217  23.657  21.543   0.264
60403W        W30218  41.328  16.291   9.994
60404W        W30219  21.031  13.697  10.434
60405W        W30220   1.267  10.193  10.523
60406W        W30221   6.386  40.428   4.267
60407W        W30222   4.425  42.003  10.910
60408W        W30223  12.841   7.911  13.489
60409W        W30224  19.198  34.019   3.292
60410W        W30225  17.659  13.683   4.725
60411W        W30226   9.252   0.887  13.500
60412W        W30227  38.492  15.689   2.768
60413W        W30228  32.918  29.026   1.349
60414W        W30229  34.447  28.164   4.808
60415W        W30230   1.424   9.169  13.403
60416W        W30231  22.619  29.642   1.309
60417W        W30232  42.288  22.617   3.730
60418W        W30233   6.908  10.264   1.337
60419W        W30234  26.612  42.404   5.110
60420W        W30235  41.497  10.766   1.422
60421W        W30236  11.141  39.031   3.246
60422W        W30237  26.157  30.658  13.401
60423W        W30238  43.765  20.760   3.221
60424W        W30239  40.525  27.072   2.844
60425W        W30240  14.108  43.310  14.501
60426W        W30241  10.322   3.445   2.261
60427W        W30242  15.083  30.980  11.996
60428W        W30243   5.410  16.591   2.333
60429W        W30244   7.250  15.719   3.337
60430W        W30245  37.975  13.186   0.320
60431W        W30246  22.074  18.599   2.349
60432W        W30247  35.920  31.464  14.466
60433W        W30248  20.721  20.194   4.654
60434W        W30249  41.324  34.543   4.312
60435W        W30250   5.369  25.496  13.914
60436W        W30251  37.423  41.795  11.044
60437W        W30252  26.126  13.294  10.601
60438W        W30253  15.124  25.193   0.411
60439W        W30254   9.277  25.151   1.774
60440W        W30255  18.092  25.141   3.289
60441W        W30256  35.943   7.310   2.676
60442W        W30257   3.226   8.749  11.509
60443W        W30258   2.730   8.744  14.281
60444W        W30259   7.377   4.449   0.865
60445W        W30260  32.109   0.492   0.440
60446W        W30261  19.757  19.224  10.502
60447W        W30262  12.284   9.752   3.776
60448W        W30263  34.927  42.425   2.232
60449W        W30264  44.377  23.709  10.596
60450W        W30265  26.598  16.294   3.229
60451W        W30266  26.539  12.332   5.317
60452W        W30267  22.592  17.682  12.069
60453W        W30268  37.855   3.935   2.357
60454W        W30269  16.262  19.128   4.232
60455W        W30270   6.188  16.214  13.981
60456W        W30271  42.364  25.056   0.963
60457W        W30272  31.634   9.664   1.305
60458W        W30273  16.725  30.579  14.891
60459W        W30274  29.993  12.762   4.676
60460W        W30275   0.380  31.553   3.216
60461W        W30276  12.838  42.946   4.230
60462W        W30277  17.283   9.830   1.878
60463W        W30278  42.526  34.513   0.443
60464W        W30279  33.053   0.378   4.173
60465W        W30280  33.448   2.923   2.854
60466W        W30281   6.799  34.432  13.848
60467W        W30282   7.726  22.051  14.336
60468W        W30283  25.492  35.533   1.700
60469W        W30284  36.931  31.567   2.843
60470W        W30285   1.754   9.824  11.860
60471W        W30286   3.714  43.785   0.375
60472W        W30287  23.235  25.059  11.464
60473W        W30288  14.615   9.749  11.858
60474W        W30289  43.890  23.497  12.539
60475W        W30290   7.386  20.028   4.124
60476W        W30291  44.860  22.588  14.345
60477W        W30292   7.766   7.212  10.050
60478W        W30293  21.170  25.975  13.517
60479W        W30294  34.034  23.215   0.929
60480W        W30295   1.301  13.830   0.288
60481W        W30296  14.832  18.128   5.289
60482W        W30297  41.314  41.862  11.462
60483W        W30298  12.847  18.754   5.577
60484W        W30299  39.895  31.464  13.414
60485W        W30300   8.354   3.751  14.352
60486W        W30301   3.823  26.560   2.867
60487W        W30302  36.430  37.350   2.338
60488W        W30303  21.131   4.699   4.151
60489W        W30304   3.300  25.031   0.804
60490W        W30305  36.040   4.354  10.504
60491W        W30306  34.591  16.789  11.023
60492W        W30307  23.985   4.349   3.766
60493W        W30308  11.280  19.647   0.848
60494W        W30309  35.941  26.171  10.983
60495W        W30310  27.518   5.698   1.308
60496W        W30311  44.343  39.441  10.137
60497W        W30312  30.105  32.513   3.848
60498W        W30313  42.422  41.360   4.150
60499W        W30314  32.593  34.600  12.829
60500W        W30315  41.852  38.911   2.766
60501W        W30316  36.038  35.422   3.249
60502W        W30317  22.637  33.909  12.490
60503W        W30318  13.266  28.120   0.306
60504W        W30319  23.493  23.061   3.183
60505W        W30320   9.715   9.853   4.286
60506W        W30321   6.421  16.150  12.478
60507W        W30322  23.533  18.052   0.929
60508W        W30323  14.338  33.438  11.440
60509W        W30324  21.626  27.514   0.967
60510W        W30325  23.997   3.275  12.035
60511W        W30326   9.289   0.358  12.004
60512W        W30327  41.449  38.392  11.922
60513W        W30328  41.413  26.635   4.248
60514W        W30329  27.155  21.176   0.475
60515W        W30330   7.391  12.224  10.562
60516W        W30331  36.421   5.226  11.084
60517W        W30332  34.968  21.619   3.288
60518W        W30333  24.177  33.063  13.896
60519W        W30334  22.662  26.191  10.464
60520W        W30335  19.071  37.480   0.281
60521W        W30336   4.309   7.239   4.142
60522W        W30337  28.658  41.401   3.855
60523W        W30338  15.087   7.721  10.957
60524W        W30339  43.982  17.121   4.251
60525W        W30340   1.815  38.986   4.770
60526W        W30341  34.454  38.075  11.937
60527W        W30342  10.273  17.774  10.030
60528W        W30343  16.236  25.516  12.933
60529W        W30344  24.520   1.793   2.373
60530W        W30345   9.833  35.057  10.993
60531W        W30346  35.888   0.467  11.549
60532W        W30347   0.894  43.464  14.347
60533W        W30348  26.072  12.349  11.514
60534W        W30349  26.618   4.249  12.037
60535W        W30350  38.528  20.529   4.814
60536W        W30351  25.622   6.686   3.790
60537W        W30352   6.338  15.645   0.414
60538W        W30353  19.069  34.516   4.253
60539W        W30354  42.298   6.373   2.353
60540W        W30355  43.918  27.025   1.381
60541W        W30356  42.796  27.979   4.201
60542W        W30357  25.034  17.767  11.106
60543W        W30358  19.188  19.584   1.232
60544W        W30359  28.558   2.822  12.058
60545W        W30360  19.692   2.768   2.860
60546W        W30361  30.580  15.179   0.328
60547W        W30362   1.284   6.256  11.491
60548W        W30363  43.459  35.470   4.234
60549W        W30364  18.267   3.331  14.411
60550W        W30365  21.052   4.395   1.836
60551W        W30366  27.098   8.746   0.907
60552W        W30367  15.323  11.164   3.793
60553W        W30368  24.077   0.391  14.373
60554W        W30369  43.823  41.849  14.960
60555W        W30370  13.262   2.255  11.545
60556W        W30371  31.592  26.591   2.823
60557W        W30372  37.060   7.369  11.501
60558W        W30373  44.431  30.956   1.911
60559W        W30374  22.041   6.860   4.598
60560W        W30375  13.109   4.302  12.490
60561W        W30376   8.205  44.832   0.307
60562W        W30377   1.861  13.111   3.271
60563W        W30378  42.315  31.153  13.450
60564W        W30379  40.498  26.640  12.400
60565W        W30380   5.837  31.508   2.276
60566W        W30381  34.390  15.180  11.487
60567W        W30382   3.806  28.531  12.485
60568W        W30383  13.286  19.568  12.400
60569W        W30384   9.348   2.934   3.173
60570W        W30385  17.301  35.048   0.470
60571W        W30386  42.011  29.589   2.729
60572W        W30387  16.093  11.292  12.916
60573W        W30388  37.006  21.559  11.499
60574W        W30389  30.577  27.094  11.978
60575W        W30390  11.812  23.185  14.883
60576W        W30391  39.896  21.726  12.396
60577W        W30392  17.774  42.015   0.921
60578W        W30393  16.756  43.914  10.903
60579W        W30394  41.970  22.125  10.958
60580W        W30395  36.579  19.053  11.521
60581W        W30396  43.909   3.829  10.529
60582W        W30397  33.943  34.097   2.226
60583W        W30398  19.580  32.396  13.403
60584W        W30399  41.796  20.074  11.972
60585W        W30400  32.023  17.762   1.212
60586W        W30401   0.855  18.137  10.964
60587W        W30402  41.466  32.461  11.516
60588W        W30403  32.626  27.575  14.770
60589W        W30404   1.858  17.218  13.320
60590W        W30405   0.846  44.299   1.416
60591W        W30406  19.148   8.858   4.290
60592W        W30407  35.997  14.769  12.480
60593W        W30408   0.262  23.568   2.804
60594W        W30409  11.274  23.012   4.805
60595W        W30410  20.111  22.230   4.776
60596W        W30411   4.727  22.184  12.091
60597W        W30412  42.973  33.440   5.185
60598W        W30413  34.031  17.278   4.309
60599W        W30414  43.964   6.758   0.830
60600W        W30415   2.265  14.179   4.306
60601W        W30416  27.026   7.792   4.747
60602W        W30417  19.590   8.700   0.325
60603W        W30418   4.901   9.156   3.268
60604W        W30419  22.122   8.367   4.166
60605W        W30420   6.413  29.653  10.549
60606W        W30421  21.738  40.811  13.958
60607W        W30422  39.843   7.693   0.346
60608W        W30423   3.769  35.580   4.199
60609W        W30424  21.063  37.537  10.435
60610W        W30425  34.389   8.772  11.029
60611W        W30426  33.564  42.010  12.424
60612W        W30427   4.813   4.720   2.743
60613W        W30428  20.270  41.909   3.631
60614W        W30429  15.770   0.367   2.222
60615W        W30430  25.996   9.657   3.251
60616W        W30431  29.061  41.409  13.800
60617W        W30432   5.828  33.611  14.000
60618W        W30433   9.359  22.584   5.118
60619W        W30434  32.398  32.098  10.434
60620W        W30435  16.652  30.431  11.976
60621W        W30436  43.401  19.285  13.939
60622W        W30437  31.516  20.710  12.832
60623W        W30438  44.939  35.418  10.531
60624W        W30439  12.293   1.937  14.824
60625W        W30440   0.745  17.765   1.817
60626W        W30441  39.874   7.698  14.828
60627W        W30442  16.232  32.028   5.259
60628W        W30443  36.408  33.083   0.282
60629W        W30444  31.515  32.469   3.179
60630W        W30445  34.554  12.251   2.883
60631W        W30446  25.612   1.467  12.954
60632W        W30447  19.721  38.512  14.407
60633W        W30448  10.681  32.142  10.460
60634W        W30449  34.385   0.859  10.494
60635W        W30450  40.537  42.960  14.514
60636W        W30451  31.126   1.432   2.853
60637W        W30452  35.387  15.682   1.244
60638W        W30453  37.078  23.990   2.274
60639W        W30454  40.874  10.194   4.728
60640W        W30455   0.384  28.983  10.497
60641W        W30456  28.620  14.721  14.888
60642W        W30457  17.711  31.918   1.764
60643W        W30458  23.049  10.808   3.171
60644W        W30459  37.568  20.194  12.005
60645W        W30460   6.369   5.274  11.429
60646W        W30461  36.987  41.469  12.386
60647W        W30462  35.373  33.102   4.349
60648W        W30463  34.093  26.518  13.426
60649W        W30464  24.709  24.481   0.343
60650W        W30465  23.717  14.244  11.012
60651W        W30466  30.583  15.259  12.412
60652W        W30467   8.170  35.873  13.884
60653W        W30468  44.792   4.327  11.073
60654W        W30469  32.490  20.077   1.258
60655W        W30470   3.305  16.192  13.012
60656W        W30471  44.437  29.104   3.312
60657W        W30472  32.505  43.299   2.262
60658W        W30473  40.841  31.077  11.534
60659W        W30474  28.635  32.463   4.651
60660W        W30475   5.760  37.336  13.492
60661W        W30476   2.926   0.359  14.760
60662W        W30477   4.256  23.701   2.274
60663W        W30478  40.028  42.425  10.626
60664W        W30479  12.350   5.826   0.797
60665W        W30480  25.562  40.476  10.622
60666W        W30481  17.578  42.799  14.968
60667W        W30482  44.280   0.976  10.425
60668W        W30483   8.321  35.447   1.818
60669W        W30484  21.173  27.462  13.842
60670W        W30485  33.946  22.570   2.393
60671W        W30486  44.865  40.375   0.356
60672W        W30487   2.322  25.501  12.482
60673W        W30488  33.459  38.962   4.295
60674W        W30489   8.263  44.909  14.031
60675W        W30490  25.613  43.339   3.753
60676W        W30491  22.667  35.057   1.264
60677W        W30492  17.767  33.560   0.333
60678W        W30493  23.066  30.074   1.424
60679W        W30494  10.650  39.821  11.114
60680W        W30495   5.784  21.642  12.579
60681W        W30496  31.065  14.622  13.832
60682W        W30497   6.854  28.672  11.055
60683W        W30498  42.982  22.516  12.515
60684W        W30499  38.933   4.723  14.384
60685W        W30500   0.771  21.758  14.012
60686W        W30501  23.644  38.509  10.141
60687W        W30502  18.744  16.288   1.930
60688W        W30503  43.271   4.225  10.965
60689W        W30504   2.225   4.736   3.296
60690W        W30505   5.344  21.567  14.892
60691W        W30506  17.281  39.421   2.284
60692W        W30507  22.080  42.439  11.049
60693W        W30508  43.789  33.412  12.021
60694W        W30509  40.355  31.537  11.588
60695W        W30510   9.373  11.229  14.812
60696W        W30511   3.260  27.977  14.288
60697W        W30512   4.220  29.086   4.168
60698W        W30513   3.241  32.129  11.925
60699W        W30514  19.740  42.027   0.284
60700W        W30515   8.758   5.730  10.084
60701W        W30516  30.006  19.177  13.390
60702W        W30517  37.485   8.302   5.098
60703W        W30518  13.236  34.565  12.580
60704W        W30519  38.028  30.011  14.835
60705W        W30520  23.629  34.405   4.227
60706W        W30521  30.610   7.232   2.222
60707W        W30522  28.076  18.730  11.398
60708W        W30523  22.643   1.813  10.443
60709W        W30524  22.566  16.290   0.727
60710W        W30525   6.374   1.360   2.315
60711W        W30526  19.759  44.860   2.325
60712W        W30527  35.603   2.320   2.840
60713W        W30528   0.748  20.029  14.892
60714W        W30529  40.989  41.501  11.434
60715W        W30530  37.982  41.402   2.254
60716W        W30531  10.825  11.239  12.437
60717W        W30532   5.256  43.360   4.235
60718W        W30533  43.976  12.329  11.093
60719W        W30534   1.442   1.788   1.284
60720W        W30535  25.084  40.919  12.931
60721W        W30536  15.612  21.113   3.799
60722W        W30537  28.605  32.098  12.872
60723W        W30538  25.705  35.878  14.779
60724W        W30539  18.080  23.162   2.418
60725W        W30540  35.996  38.342   1.414
60726W        W30541  19.230  19.764  11.395
60727W        W30542   7.797  30.916   0.833
60728W        W30543   3.782  19.734  14.960
60729W        W30544  11.822  36.346  11.864
60730W        W30545   1.350   0.771   2.835
60731W        W30546  11.634  42.321  13.040
60732W        W30547   4.845   3.400   3.695
60733W        W30548   8.194   0.815  13.040
60734W        W30549   8.737   4.798   2.801
60735W        W30550  19.590  22.516  14.405
60736W        W30551  42.891  28.565   2.754
60737W        W30552  12.344  12.217  14.935
60738W        W30553  41.373   6.681  14.018
60739W        W30554  36.917  38.001   4.677
60740W        W30555  35.943  32.415   3.815
60741W        W30556   9.794   8.896   0.298
60742W        W30557  40.802  13.285  11.481
60743W        W30558  36.904  21.571   1.804
60744W        W30559  44.383  41.438  10.113
60745W        W30560  10.677  38.861   2.843
60746W        W30561  24.124  13.820   2.272
60747W        W30562  23.563   1.813  12.995
60748W        W30563   2.348  17.613   1.294
60749W        W30564  33.594  16.699   0.834
60750W        W30565  15.664  29.167   4.664
60751W        W30566  32.112  41.452  14.794
60752W        W30567  31.635  29.503  11.600
60753W        W30568  22.679   5.689  11.606
60754W        W30569  25.660  28.039   2.836
60755W        W30570  12.201  33.530  12.863
60756W        W30571  21.622  23.188  11.593
60757W        W30572  15.658  33.934  11.101
60758W        W30573  32.018  34.374   3.172
60759W        W30574  29.996  22.148   3.385
60760W        W30575  36.860  35.911  14.323
60761W        W30576  43.358  24.088   3.176
60762W        W30577  17.107  35.980  10.984
60763W        W30578  19.695  35.521   0.266
60764W        W30579  25.007   3.748   4.196
60765W        W30580  33.029   7.293   0.461
60766W        W30581  38.909  43.308   4.152
60767W        W30582  11.664  24.145  11.954
60768W        W30583  38.357   6.841  14.434
60769W        W30584  15.583   3.460  13.507
60770W        W30585  15.143   9.178   4.689
60771W        W30586  32.894   7.221  11.912
60772W        W30587   7.335  18.746  12.393
60773W        W30588  20.031   5.320  11.512
60774W        W30589  29.461   3.877   4.672
60775W        W30590   0.454  34.931   0.467
60776W        W30591  14.665  39.004   3.248
60777W        W30592  27.668   3.372   0.372
60778W        W30593  26.587  22.244  14.912
60779W        W30594  20.209  18.601  10.530
60780W        W30595  39.360  27.660  10.900
60781W        W30596  20.693  32.576   4.354
60782W        W30597  37.522   1.300  12.907
60783W        W30598  40.394  17.303   0.322
60784W        W30599  23.116  14.767   4.762
60785W        W30600  28.949   5.310  13.903
60786W        W30601   7.888  28.672   1.750
60787W        W30602  41.817  14.708   1.226
60788W        W30603  34.089  18.651  12.060
60789W        W30604  12.206  19.054  11.424
60790W        W30605  43.905  25.183  13.014
60791W        W30606  11.789  36.939  10.088
60792W        W30607  24.621  38.054  10.487
60793W        W30608  35.567  15.595   0.901
60794W        W30609  39.061  29.557   0.810
60795W        W30610  14.121  10.370  14.007
60796W        W30611  24.608  23.211  14.361
60797W        W30612  31.099  14.170  10.158
60798W        W30613  30.074  29.097   3.385
60799W        W30614  14.278   2.957  12.899
60800W        W30615  41.315  37.485  14.772
60801W        W30616  12.224   1.787   0.767
60802W        W30617  43.303  34.044   4.621
60803W        W30618  18.172  34.953   4.656
60804W        W30619  18.080  17.136   0.249
60805W        W30620  33.113  32.606   3.708
60806W        W30621   0.907  33.916  10.456
60807W        W30622  36.583  10.341   2.368
60808W        W30623  27.461  42.806  10.961
60809W        W30624  22.015  31.546   1.904
60810W        W30625  34.587  35.018   2.325
60811W        W30626  13.339  32.486  10.448
60812W        W30627  11.678  31.485   4.823
60813W        W30628  24.030  24.651  12.496
60814W        W30629  26.555  44.391   2.748
60815W        W30630  34.418  32.394   4.219
60816W        W30631   8.286  22.026   3.162
60817W        W30632   4.210   9.805  10.503
60818W        W30633  40.869   6.761   5.106
60819W        W30634  22.067  29.492  11.079
60820W        W30635  39.390  39.488  13.333
60821W        W30636  12.703  13.298  14.807
60822W        W30637  15.712  38.064   2.682
60823W        W30638  42.941  15.170   3.783
60824W        W30639  13.738  43.979   2.670
60825W        W30640   7.375  23.145   1.350
60826W        W30641  41.880  36.081  11.504
60827W        W30642  29.006   4.379  10.889
60828W        W30643  26.066  34.079  10.527
60829W        W30644   3.737  22.221  12.065
60830W        W30645  44.371  27.503  14.836
60831W        W30646   1.400  14.800   3.286
60832W        W30647  10.855  20.037   4.633
60833W        W30648  30.474  36.898  10.637
60834W        W30649  39.417  41.411   3.776
60835W        W30650  38.481  18.790  11.476
60836W        W30651  38.975   3.313   5.123
60837W        W30652  12.167   1.747   4.718
60838W        W30653   9.229  28.633   0.389
60839W        W30654   3.764  38.913   2.267
60840W        W30655  33.910  38.335  11.923
60841W        W30656  15.748  32.622  13.055
60842W        W30657  16.687   1.430   2.821
60843W        W30658  28.065  37.869   1.932
60844W        W30659  13.602   0.386   2.894
60845W        W30660  22.607  34.606   0.807
60846W        W30661  20.563  23.597  14.364
60847W        W30662  42.474  12.820   4.625
60848W        W30663   1.303   1.837   0.939
60849W        W30664  19.064  42.400   0.812
60850W        W30665  19.667   9.170   0.785
60851W        W30666  14.819   1.351  13.010
60852W        W30667  31.446   0.769  13.840
60853W        W30668  11.278  22.072   0.255
60854W        W30669   3.323  43.346   2.337
60855W        W30670  22.088  24.687   4.672
60856W        W30671  33.498  28.185  13.362
60857W        W30672  21.553  28.560  12.027
60858W        W30673  14.313  25.067   2.240
60859W        W30674  33.396   3.255   0.729
60860W        W30675  18.176   7.849  11.062
60861W        W30676   0.859  22.573  10.120
60862W        W30677  15.306   4.737  14.468
60863W        W30678  40.837  18.149   1.296
60864W        W30679   8.860  29.452   1.889
60865W        W30680  11.862  24.640  13.322
60866W        W30681   6.237  17.695  14.807
60867W        W30682  26.955  26.036   2.699
60868W        W30683  13.193  43.276   3.766
60869W        W30684  43.947  21.693  14.495
60870W        W30685   2.372  17.753   4.751
60871W        W30686  19.557  12.731   3.642
60872W        W30687  43.384  18.607  14.358
60873W        W30688  38.037   4.736   4.337
60874W        W30689  33.936  27.998   1.844
60875W        W30690  14.296  13.162  11.546
60876W        W30691  30.105   6.249   0.734
60877W        W30692  32.980  22.592  12.039
60878W        W30693   8.810  11.820  14.983
60879W        W30694  20.080   4.749  10.055
60880W        W30695  34.558  21.593  13.537
60881W        W30696  44.336  26.457  13.393
60882W        W30697  22.690  28.520   2.752
60883W        W30698  43.828   7.682  14.369
60884W        W30699  16.081   6.385   1.725
60885W        W30700  29.047  19.061  12.053
60886W        W30701  10.360  37.873   1.436
60887W        W30702  39.037  25.517   3.349
60888W        W30703  36.852   2.358   4.355
60889W        W30704   1.480  31.627   3.664
60890W        W30705  35.463   3.831   4.169
60891W        W30706   4.766  36.357  10.912
60892W        W30707  14.230  12.222   1.841
60893W        W30708   4.790  44.438  13.881
60894W        W30709  26.124  12.351   2.419
60895W        W30710  11.229  36.888  14.960
60896W        W30711   3.441   9.379   0.317
60897W        W30712   4.845  28.118  11.860
60898W        W30713  14.775   8.264  13.443
60899W        W30714  15.272  40.806   3.801
60900W        W30715  13.734  12.697   1.380
60901W        W30716   7.695  39.008   2.241
60902W        W30717  25.545   7.280  10.414
60903W        W30718   4.832  44.961   4.792
60904W        W30719   2.840  24.985   4.630
60905W        W30720   3.728  39.023  13.540
60906W        W30721  15.581  35.052  14.448
60907W        W30722  22.165  23.233  11.055
60908W        W30723  25.999  42.512   1.725
60909W        W30724  27.017  25.201   4.633
60910W        W30725  40.535  38.396   4.219
60911W        W30726  36.020  34.106   5.221
60912W        W30727  37.063   2.450  13.460
60913W        W30728  19.276  35.928  10.631
60914W        W30729  28.453  14.109  12.831
60915W        W30730  42.821  30.447   1.300
60916W        W30731  21.542  24.109   0.794
60917W        W30732  32.005   6.326  10.470
60918W        W30733  35.092  26.571   0.380
60919W        W30734   9.724  34.520   1.741
60920W        W30735  32.916   7.693   1.387
60921W        W30736  22.725   1.731   2.201
60922W        W30737  24.716  20.600   1.275
60923W        W30738  41.876   1.287   0.857
60924W        W30739  37.494  32.409   1.698
60925W        W30740  32.412  33.079  13.001
60926W        W30741  27.990  27.626   3.180
60927W        W30742  43.959  38.398  14.830
60928W        W30743   6.823  25.580   0.347
60929W        W30744   1.252   5.367  14.361
60930W        W30745  38.874  22.592  10.986
60931W        W30746  27.183  31.955   1.299
60932W        W30747  27.518  22.512  11.922
60933W        W30748  11.302  20.683  12.485
60934W        W30749   4.943  40.803   4.175
60935W        W30750   0.770  19.620   2.860
60936W        W30751  19.567  20.231  14.835
60937W        W30752  37.999   7.232  13.545
60938W        W30753  23.057   7.182   3.780
60939W        W30754  22.707   8.318   3.753
60940W        W30755  20.048  43.481  10.975
60941W        W30756  17.292  37.394   5.268
60942W        W30757  34.451  14.213  12.831
60943W        W30758  25.062  42.901  13.808
60944W        W30759   7.204  23.026   0.478
60945W        W30760   5.217  40.039  14.329
60946W        W30761  25.670  37.400  10.987
60947W        W30762  30.444  19.285  11.099
60948W        W30763  14.315  23.058   0.759
60949W        W30764  25.013  18.655   4.263
60950W        W30765  31.040   6.691   1.918
60951W        W30766  41.390  21.626  14.347
60952W        W30767  21.719   9.230  14.828
60953W        W30768  39.046  40.363   0.399
60954W        W30769  29.664  43.275   3.704
60955W        W30770  28.124  23.091   0.367
60956W        W30771  33.117  25.114  11.126
60957W        W30772  30.046  32.502  14.834
60958W        W30773  21.044   0.845   9.609
60959W        W30774  13.799  26.600   4.231
60960W        W30775  43.388   6.787  14.785
60961W        W30776   9.795  21.751   2.787
60962W        W30777  27.516   0.884  14.380
60963W        W30778  34.543  41.353  13.515
60964W        W30779  26.130   3.370  12.470
60965W        W30780   5.889  32.915   4.348
60966W        W30781  29.097   5.704   2.327
60967W        W30782  26.165  33.626   2.326
60968W        W30783  20.661  26.206  13.896
60969W        W30784  41.372  41.402  11.375
60970W        W30785  14.195  14.288   0.458
60971W        W30786  24.682  43.342   1.913
60972W        W30787  18.554  38.356   0.889
60973W        W30788  41.884  37.413   5.142
60974W        W30789  14.812  24.512  12.542
60975W        W30790  42.915  27.453   1.888
60976W        W30791   1.271  32.929  13.395
60977W        W30792  38.925  24.656  11.924
60978W        W30793  21.656  39.853   1.273
60979W        W30794  43.884   4.796  10.461
60980W        W30795  38.832  22.544  12.555
60981W        W30796   3.220  36.067   1.311
60982W        W30797  19.669  35.060   3.178
60983W        W30798  30.609  28.495  12.412
60984W        W30799  29.955  20.175   1.841
60985W        W30800  43.447  40.033  13.421
60986W        W30801  12.228  32.017   5.268
60987W        W30802  24.105  32.523  11.951
60988W        W30803  39.447  14.133  13.313
60989W        W30804  27.042   5.299   1.918
60990W        W30805  14.328  36.895  14.996
60991W        W30806  26.522  26.987   1.289
60992W        W30807  11.186  42.370  12.020
60993W        W30808   7.813  33.059  13.990
60994W        W30809  22.575  12.670   4.712
60995W        W30810  26.062  11.170  11.427
60996W        W30811  14.182  18.221  12.358
60997W        W30812  35.400  39.831   4.174
60998W        W30813  23.113  35.567   2.812
60999W        W30814   0.421  13.316   1.790
61000W        W30815  34.413  34.908   2.846
61001W        W30816  32.418  26.564   4.219
61002W        W30817  36.899  19.190   0.412
61003W        W30818  11.243  41.397  14.029
61004W        W30819  23.640  34.027   0.368
61005W        W30820  30.578  12.698   1.233
61006W        W30821  32.091  24.195   3.339
61007W        W30822  40.951   8.657  11.025
61008W        W30823  10.790  33.000  14.765
61009W        W30824  16.590  29.164   4.682
61010W        W30825  16.606  36.923   0.428
61011W        W30826   7.903  35.891   2.718
61012W        W30827  28.058  36.039   2.356
61013W        W30828  19.082  20.704  14.921
61014W        W30829   9.165  23.158  12.970
61015W        W30830   6.751  31.006  11.945
61016W        W30831  29.002  38.426   2.765
61017W        W30832   9.386  34.421  11.592
61018W        W30833  19.756   7.173   0.939
61019W        W30834  17.682  17.677  12.557
61020W        W30835   4.825  21.742   2.799
61021W        W30836   9.327   3.869  10.999
61022W        W30837   3.765   4.238  13.035
61023W        W30838  36.909  23.729   4.813
61024W        W30839  38.515   4.702  10.990
61025W        W30840  19.724  32.482  12.015
61026W        W30841  22.102   6.796  13.496
61027W        W30842   4.431  14.281  10.537
61028W        W30843  31.922  29.462  13.989
61029W        W30844  21.180  16.764  13.900
61030W        W30845   2.836  30.002   3.357
61031W        W30846  39.553  18.228   0.759
61032W        W30847  10.275  41.527   2.385
61033W        W30848  33.929  39.551  14.360
61034W        W30849  19.634  29.051  11.855
61035W        W30850  34.438   1.767  12.919
61036W        W30851  38.357  17.724  12.835
61037W        W30852  27.573  20.719   1.318
61038W        W30853  25.528  25.681  13.907
61039W        W30854   2.229  29.176  12.061
61040W        W30855  16.307   4.735  13.421
61041W        W30856  27.969  37.861  11.096
61042W        W30857  30.160   8.663   3.364
61043W        W30858  17.166  42.404   3.683
61044W        W30859  31.897   5.433  10.585
61045W        W30860  28.539  27.613  14.804
61046W        W30861  11.331  36.867   0.932
61047W        W30862  26.702  19.217  12.974
61048W        W30863  43.793  25.580   4.826
61049W        W30864  27.014  16.261  10.590
61050W        W30865  33.425  20.601  14.877
61051W        W30866  40.415   8.741  13.472
61052W        W30867  22.577   7.714   1.222
61053W        W30868   7.806  36.025   1.314
61054W        W30869  39.000   9.224   3.147
61055W        W30870  27.473  33.394   3.327
61056W        W30871   0.327  38.924  14.972
61057W        W30872  31.482  12.299  11.061
61058W        W30873  42.919  37.982  12.427
61059W        W30874   1.314  39.415  12.845
61060W        W30875  13.228  23.717   4.315
61061W        W30876  31.577  19.568   0.363
61062W        W30877   0.252  27.639  11.863
61063W        W30878  26.020   5.812   4.225
61064W        W30879  21.186  24.485   3.215
61065W        W30880  42.778  30.938  13.887
61066W        W30881  31.542   0.971  10.451
61067W        W30882  34.576  40.959  10.936
61068W        W30883  10.228  43.409  12.559
61069W        W30884   8.205  33.520   1.920
61070W        W30885  11.637  31.598  14.327
61071W        W30886  35.039  16.134  14.355
61072W        W30887  44.370  29.946   4.124
61073W        W30888  20.240  42.293   1.740
61074W        W30889  19.062  17.716   2.767
61075W        W30890   9.209   7.883  13.507
61076W        W30891  27.133  31.988  10.101
61077W        W30892  35.086  28.676  11.404
61078W        W30893  10.382  29.030  11.931
61079W        W30894   4.228  32.509  13.336
61080W        W30895  24.111  20.681   2.333
61081W        W30896   9.758   0.913   2.236
61082W        W30897  44.381  39.555   0.374
61083W        W30898  31.506  15.324   0.242
61084W        W30899  32.585  40.866   0.901
61085W        W30900  42.495  26.647  13.978
61086W        W30901  33.403  30.427  13.823
61087W        W30902   0.901  11.237   3.831
61088W        W30903  36.842  24.183   0.398
61089W        W30904  25.519  31.968  11.988
61090W        W30905  20.704  41.024  10.913
61091W        W30906  12.276  41.007  10.983
61092W        W30907   9.830  27.528   2.402
61093W        W30908   4.295   3.877  11.425
61094W        W30909  39.380  23.043  11.869
61095W        W30910  17.698  34.492  14.899
61096W        W30911  36.094   6.386   5.196
61097W        W30912   8.807  12.328   3.294
61098W        W30913  31.944  33.102  10.605
61099W        W30914  20.209  40.466  14.351
61100W        W30915  11.801  39.388   1.702
61101W        W30916   5.691   1.822  11.121
61102W        W30917  42.429   9.153  11.580
61103W        W30918  18.116  40.470   3.831
61104W        W30919   9.885  18.206  13.962
61105W        W30920  19.616  44.764   9.920
61106W        W30921  20.573   5.410  10.517
61107W        W30922  38.518   5.802   5.085
61108W        W30923  11.730  42.944   2.313
61109W        W30924   8.238  40.016  12.975
61110W        W30925  21.581  12.216   1.342
61111W        W30926  21.541  31.595   0.930
61112W        W30927  21.685  24.525   1.744
61113W        W30928  13.698  11.811   4.645
61114W        W30929   6.288  37.348  14.318
61115W        W30930   5.220  30.637  11.512
61116W        W30931   7.343  30.567  13.946
61117W        W30932  37.509  24.508   3.641
61118W        W30933  41.517  26.580  13.830
61119W        W30934  17.219   7.752   3.642
61120W        W30935  37.364  39.462  12.355
61121W        W30936  27.966  12.689  10.554
61122W        W30937  42.497  32.515  14.503
61123W        W30938   7.807   4.347   0.777
61124W        W30939  11.363  17.118  12.492
61125W        W30940  25.114  22.118   3.325
61126W        W30941  18.650  30.535  12.999
61127W        W30942  14.628  19.111  11.031
61128W        W30943  30.570  30.463   3.180
61129W        W30944  15.161  33.405  11.861
61130W        W30945  21.622  33.905   3.640
61131W        W30946  37.534  20.664  12.461
61132W        W30947  22.546  27.969   0.250
61133W        W30948  38.000  27.579  13.809
61134W        W30949  38.490   0.319  14.326
61135W        W30950  22.124  42.911   0.372
61136W        W30951  36.536   7.739   4.610
61137W        W30952  43.922  31.918  10.581
61138W        W30953  11.769   9.391   0.959
61139W        W30954  18.568  21.737   4.336
61140W        W30955  32.069  44.943  11.401
61141W        W30956  43.897  26.482   4.717
61142W        W30957   8.751  27.967   4.790
61143W        W30958  31.604  29.550   2.383
61144W        W30959  23.078  27.006  10.950
61145W        W30960  11.278  30.973  13.400
61146W        W30961   1.444  22.112  12.547
61147W        W30962  40.802  21.214   3.664
61148W        W30963  23.150  28.443   0.759
61149W        W30964  30.627  15.204   4.298
61150W        W30965  43.488  38.555  14.873
61151W        W30966  15.638  10.377   3.859
61152W        W30967  39.496  23.727   4.157
61153W        W30968   3.750  12.808  12.413
61154W        W30969  40.457  21.555  10.596
61155W        W30970  44.363  24.532   3.726
61156W        W30971  22.057  26.687   1.427
61157W        W30972  16.754  18.649  10.991
61158W        W30973  31.567  32.132   4.772
61159W        W30974  21.632  39.454   3.377
61160W        W30975  36.868  14.136  13.825
61161W        W30976  37.890  42.786   1.339
61162W        W30977  29.040  32.112  10.149
61163W        W30978   1.888  28.063  12.404
61164W        W30979  34.541  19.675  13.934
61165W        W30980  22.599  30.157   2.259
61166W        W30981  32.084   8.274  13.490
61167W        W30982   6.726  34.576  12.896
61168W        W30983  37.437  24.062   2.670
61169W        W30984  14.770  20.576   4.198
61170W        W30985  18.256  23.523  11.017
61171W        W30986  44.855   9.833   3.659
61172W        W30987  20.712  16.737   4.240
61173W        W30988  40.397  34.919   1.826
61174W        W30989  36.043  17.229   2.862
61175W        W30990  18.554  28.164  14.512
61176W        W30991  21.519  33.055  14.000
61177W        W30992  28.172  22.535   3.838
61178W        W30993  37.384  41.354  11.991
61179W        W30994   5.736   1.265  12.054
61180W        W30995  35.022   1.360  11.050
61181W        W30996   5.933   8.312   1.716
61182W        W30997   2.323   0.264  13.496
61183W        W30998  44.360  32.082  14.362
61184W        W30999   0.787  28.550   2.869
61185W        W31000  39.555  10.294  14.396
61186W        W31001  17.560   6.875   1.367
61187W        W31002  41.828  19.252  14.314
61188W        W31003  22.667  34.448   2.786
61189W        W31004  40.948  27.986   2.223
61190W        W31005  43.978  25.706   1.390
61191W        W31006  14.709  11.311   4.668
61192W        W31007  20.719  22.180   2.701
61193W        W31008  18.152  31.462  13.818
61194W        W31009   7.237  16.230  12.945
61195W        W31010  43.317  30.993  13.846
61196W        W31011  37.452   8.192  14.330
61197W        W31012  10.202  29.653  12.397
61198W        W31013  16.082  25.540  12.085
61199W        W31014  37.041  37.416   1.887
61200W        W31015  31.073  30.915  14.925
61201W        W31016   4.730  10.267  13.869
61202W        W31017  14.809  11.848  12.467
61203W        W31018  20.660  30.530   0.750
61204W        W31019   6.698   4.311  12.483
61205W        W31020  33.897  22.546  12.992
61206W        W31021  15.699  12.234  13.544
61207W        W31022  42.315  12.131   4.184
61208W        W31023   7.903  23.127   0.907
61209W        W31024  38.866  18.607   3.761
61210W        W31025   9.731  36.042  14.804
61211W        W31026  17.563   7.293   4.746
61212W        W31027  12.334   6.888  14.343
61213W        W31028   1.785  34.612   4.354
61214W        W31029  18.180  42.782  14.323
61215W        W31030  34.995   5.703  11.537
61216W        W31031  11.236  24.625  14.960
61217W        W31032  11.772  44.893   0.329
61218W        W31033  41.363  17.714   0.377
61219W        W31034  30.485  17.752  13.018
61220W        W31035   9.683  35.439   2.319
61221W        W31036  21.239  30.526  14.364
61222W        W31037  32.551  27.667  12.900
61223W        W31038   3.308  35.493  14.923
61224W        W31039   0.254  12.178   3.164
61225W        W31040  33.991   2.947   4.204
61226W        W31041  42.475  11.163  10.461
61227W        W31042  13.298  33.408  11.414
61228W        W31043  19.576   8.656  11.515
61229W        W31044  42.021  26.179  13.522
61230W        W31045   0.377  22.558   1.920
61231W        W31046  29.569  14.129  13.454
61232W        W31047  24.007   8.297  14.368
61233W        W31048  34.609  19.612  11.043
61234W        W31049  13.188  22.532   0.926
61235W        W31050   5.708   3.457  11.964
61236W        W31051  39.022  32.498   2.860
61237W        W31052  10.200  25.629   0.247
61238W        W31053   2.831  40.499   0.276
61239W        W31054  18.292  32.119   3.189
61240W        W31055  37.378  32.082  14.410
61241W        W31056  10.754   3.408   1.441
61242W        W31057  21.211   3.860   4.695
61243W        W31058  16.567  25.152  13.363
61244W        W31059  31.556  26.676   0.394
61245W        W31060  14.207  29.158  10.956
61246W        W31061  29.593  37.425  12.545
61247W        W31062   2.786  10.339  11.945
61248W        W31063  20.699  40.303  12.936
61249W        W31064   4.883  15.087   3.323
61250W        W31065  29.989  26.108   3.290
61251W        W31066  19.119  11.198  11.087
61252W        W31067  24.498  36.531   2.389
61253W        W31068  38.028  35.550   0.407
61254W        W31069  11.291  30.626   0.306
61255W        W31070   4.904  41.923  13.871
61256W        W31071  37.508  31.930   1.934
61257W        W31072  35.386   4.320  13.434
61258W        W31073  26.186   7.361   1.899
61259W        W31074   1.336  26.996   3.166
61260W        W31075  26.600   7.211   2.304
61261W        W31076  24.661   3.287   1.877
61262W        W31077  18.762  11.305   3.843
61263W        W31078  18.214  36.447   3.719
61264W        W31079   8.339  36.459  10.603
61265W        W31080  29.928  18.282   1.339
61266W        W31081  26.568  11.248   2.903
61267W        W31082  37.986  39.860   0.825
61268W        W31083   7.856   9.741  12.402
61269W        W31084  37.087  27.187  11.026
61270W        W31085  39.889  27.453   2.304
61271W        W31086  36.060  39.385   2.352
61272W        W31087  43.323  23.133  13.030
61273W        W31088   4.935   7.182  12.393
61274W        W31089  28.097  18.787  13.923
61275W        W31090   0.983  11.149  11.872
61276W        W31091  41.464  23.538  11.870
61277W        W31092  15.801   0.851   5.193
61278W        W31093  24.091  12.639  10.096
61279W        W31094   0.461  37.915  14.288
61280W        W31095  42.892   8.315  11.096
61281W        W31096  15.308  32.522  12.385
61282W        W31097   5.749  22.095  14.479
61283W        W31098   8.718  11.130   0.810
61284W        W31099  17.118  29.101   4.645
61285W        W31100  23.723  29.478  13.869
61286W        W31101   1.756  13.213  13.371
61287W        W31102  27.649  44.776  10.537
61288W        W31103  25.981  18.214  13.986
61289W        W31104  17.761   0.481  13.386
61290W        W31105  26.657  38.905  11.596
61291W        W31106  44.286   7.836  10.536
61292W        W31107  22.624  11.186  11.457
61293W        W31108   6.910   0.287  11.562
61294W        W31109  35.955  38.831   4.814
61295W        W31110  15.608  26.476  10.938
61296W        W31111   0.958  36.489  11.934
61297W        W31112  39.987   4.330   2.257
61298W        W31113  29.069  18.599   1.737
61299W        W31114  10.766  35.954  14.014
61300W        W31115  40.469  25.025   1.846
61301W        W31116  37.055  12.193  14.024
61302W        W31117  40.916  25.646  14.031
61303W        W31118  37.403   2.297   2.260
61304W        W31119  33.469  38.456   1.335
61305W        W31120   3.387   8.334   1.875
61306W        W31121   8.784  42.515   1.261
61307W        W31122  24.590  23.635   1.379
61308W        W31123  28.171  10.271  14.001
61309W        W31124  27.034  27.613  11.493
61310W        W31125  23.057  14.192   1.791
61311W        W31126  26.023   9.348  11.516
61312W        W31127  20.665  20.165   0.330
61313W        W31128  32.041  14.646  12.907
61314W        W31129   1.308  42.427  10.968
61315W        W31130   5.865  43.933   1.900
61316W        W31131  34.109  14.120   2.807
61317W        W31132  29.493  18.128  12.095
61318W        W31133  15.124  30.968   3.854
61319W        W31134  27.542   2.391  13.471
61320W        W31135  15.781  39.516   4.718
61321W        W31136  22.659  38.897  11.910
61322W        W31137  14.304  41.974   1.833
61323W        W31138  27.024   7.209  10.939
61324W        W31139   6.367  26.618   1.696
61325W        W31140  42.809  26.603  10.898
61326W        W31141  11.220  34.428   2.735
61327W        W31142  23.532   8.850   3.246
61328W        W31143  42.907  20.056  14.869
61329W        W31144  30.602  19.185  11.377
61330W        W31145  37.029  14.823   4.688
61331W        W31146  33.480  36.428   4.250
61332W        W31147  25.504  31.110   3.245
61333W        W31148   9.766  14.620   4.290
61334W        W31149  27.043  13.128  12.359
61335W        W31150   2.766  39.043   1.820
61336W        W31151  10.303  35.930  14.492
61337W        W31152  35.006   4.791   2.194
61338W        W31153  22.027  28.052  10.956
61339W        W31154   6.218  14.132  11.405
61340W        W31155  40.480  12.362   3.791
61341W        W31156  17.211  11.839  13.397
61342W        W31157   1.799  31.427  12.458
61343W        W31158  41.452   1.288   0.848
61344W        W31159  12.817  25.136  10.474
61345W        W31160  34.891  29.956   3.864
61346W        W31161   2.430  35.512   1.285
61347W        W31162  32.898  36.992  14.789
61348W        W31163  32.417  29.059   2.190
61349W        W31164  14.254  19.679   4.169
61350W        W31165  20.584  39.514   3.679
61351W        W31166  42.390  44.274  14.780
61352W        W31167  31.152  21.216   5.120
61353W        W31168  17.163   8.745  14.852
61354W        W31169   0.924  26.034  14.306
61355W        W31170  30.085  25.200   0.322
61356W        W31171  25.603  41.350  14.855
61357W        W31172  21.592   9.158  13.023
61358W        W31173  37.482  42.527  10.598
61359W        W31174  16.579  32.499  13.793
61360W        W31175  26.167  44.825  10.530
61361W        W31176  20.145  16.106   1.753
61362W        W31177  19.282   8.810  10.595
61363W        W31178  19.075  43.780   1.428
61364W        W31179   3.227  42.284   4.715
61365W        W31180   3.319  25.972  13.900
61366W        W31181  20.172  35.388  10.474
61367W        W31182   5.273   7.371   1.233
61368W        W31183  34.381  12.344  10.979
61369W        W31184   3.888   6.416   2.223
61370W        W31185  34.062  11.313   2.400
61371W        W31186  16.264   3.295   0.945
61372W        W31187   1.786   6.219   2.314
61373W        W31188  37.950  21.532  10.549
61374W        W31189  16.176  21.625   4.598
61375W        W31190   4.336  28.594  11.604
61376W        W31191  41.538  30.917   2.308
61377W        W31192  24.207  11.747  13.964
61378W        W31193  25.059  44.754  14.285
61379W        W31194  18.673  34.602   2.338
61380W        W31195  18.554  12.234   0.818
61381W        W31196  11.639  20.663  14.513
61382W        W31197  39.019   1.268   1.802
61383W        W31198  20.622   5.422   3.809
61384W        W31199  40.343   1.912  12.086
61385W        W31200   2.453   6.830  14.946
61386W        W31201   4.294  13.133  12.398
61387W        W31202  19.238  21.017   4.768
61388W        W31203  27.690   4.389   4.777
61389W        W31204  31.154  44.931  13.544
61390W        W31205  37.961  11.850   4.697
61391W        W31206   2.227  36.461  14.919
61392W        W31207  22.104  34.898   2.388
61393W        W31208   9.203  37.523   3.179
61394W        W31209  23.092   9.288   1.218
61395W        W31210   4.235  30.655   3.782
61396W        W31211  30.627   6.207  10.984
61397W        W31212  35.396  25.096   4.199
61398W        W31213  26.470   2.300  10.509
61399W        W31214  31.462  27.506   0.885
61400W        W31215  21.224  43.002  10.066
61401W        W31216  25.565  34.400  11.529
61402W        W31217  23.986  11.657  12.886
61403W        W31218  27.151  32.921   1.400
61404W        W31219  37.926   9.773  14.497
61405W        W31220  26.670   5.341   1.706
61406W        W31221  44.011  35.927  14.997
61407W        W31222  32.486   8.822   0.781
61408W        W31223   6.824  28.973  13.460
61409W        W31224  16.266  30.635  13.004
61410W        W31225   3.817   5.901   4.286
61411W        W31226  30.975  32.956   3.160
61412W        W31227  40.311  39.429   1.267
61413W        W31228  34.418   2.778   0.335
61414W        W31229  19.676  33.033  12.384
61415W        W31230  22.039  35.088  14.777
61416W        W31231  40.337   6.844   5.225
61417W        W31232  19.656   6.759  14.967
61418W        W31233  12.179  29.635   3.324
61419W        W31234  30.495  17.778   1.847
61420W        W31235  29.944  44.895   2.335
61421W        W31236  35.910  23.060   4.271
61422W        W31237   2.419  13.758  13.973
61423W        W31238   1.367  18.574   2.218
61424W        W31239  11.299  18.174   4.292
61425W        W31240   1.259  37.067   2.679
61426W        W31241  37.065  22.068   0.342
61427W        W31242  14.645  20.162   1.875
61428W        W31243  14.649  31.018  10.427
61429W        W31244  36.097  43.806   4.761
61430W        W31245   4.392  30.594   3.253
61431W        W31246  44.904  32.605   0.349
61432W        W31247  44.357   7.820   0.875
61433W        W31248   7.350  40.362  11.380
61434W        W31249  25.030   8.833  11.948
61435W        W31250  37.068  30.527  13.366
61436W        W31251   5.385  32.978   0.822
61437W        W31252  19.235  17.270   3.755
61438W        W31253  19.254  21.105   2.676
61439W        W31254  12.847  42.886   1.856
61440W        W31255  25.614  25.509   0.753
61441W        W31256  23.006  43.481  14.491
61442W        W31257  25.015   4.813  10.605
61443W        W31258  13.817   2.231   1.732
61444W        W31259  39.986  41.960  13.430
61445W        W31260  12.178   3.868   1.898
61446W        W31261  29.985  27.594   2.753
61447W        W31262  18.617  44.288   0.352
61448W        W31263  16.231  29.478   3.195
61449W        W31264  44.853   4.774  13.492
61450W        W31265  37.424  10.272   3.858
61451W        W31266  38.337   2.359   4.708
61452W        W31267  37.467  18.265   4.167
61453W        W31268  30.433  24.656  13.799
61454W        W31269  29.668  31.998  14.401
61455W        W31270  25.137  19.645  14.993
61456W        W31271  35.007  20.110   2.691
61457W        W31272  37.478  38.943  12.906
61458W        W31273  23.567  24.975   3.676
61459W        W31274  19.707  33.049   4.775
61460W        W31275  14.723  26.645  13.970
61461W        W31276   0.789  26.493  11.439
61462W        W31277  44.382   9.272   9.999
61463W        W31278  30.129   4.902  11.492
61464W        W31279   8.294  42.302   5.272
61465W        W31280  13.767   3.751  13.020
61466W        W31281  32.009   3.355  14.345
61467W        W31282   2.739   7.264   4.205
61468W        W31283  44.313  33.903  13.807
61469W        W31284  29.634  39.004   4.633
61470W        W31285  12.756  28.138   0.862
61471W        W31286  42.014  34.568  14.292
61472W        W31287  31.058  41.917  12.427
61473W        W31288  22.222  20.599   3.776
61474W        W31289  22.704  28.117   4.837
61475W        W31290   5.851  17.109   2.198
61476W        W31291  22.214  42.290  14.889
61477W        W31292   5.319  17.668   2.209
61478W        W31293  16.582   4.272  13.530
61479W        W31294  35.968   7.786   5.273
61480W        W31295   2.425  35.092   1.269
61481W        W31296  24.081   1.271  14.884
61482W        W31297  35.989  15.166  14.862
61483W        W31298  39.542  30.601  13.388
61484W        W31299  10.270  16.697   5.194
61485W        W31300  28.676  20.091  13.016
61486W        W31301  16.117  38.029   0.273
61487W        W31302  43.869  44.401   4.341
61488W        W31303  24.693  11.146  12.082
61489W        W31304  20.659  29.656   3.371
61490W        W31305  15.821   0.405   1.406
61491W        W31306  29.428  37.492   2.308
61492W        W31307   6.292  22.007  11.443
61493W        W31308  10.317  22.169  12.988
61494W        W31309  40.549  12.818   3.242
61495W        W31310  19.082  22.028   3.371
61496W        W31311  14.651  34.916   4.770
61497W        W31312   9.339   0.921   3.828
61498W        W31313  12.801  36.401  12.447
61499W        W31314  22.090   5.277  12.911
61500W        W31315  34.540  13.243   0.902
61501W        W31316  22.703  12.644  11.004
61502W        W31317  43.797  13.202  14.285
61503W        W31318   5.848  34.528  11.991
61504W        W31319  25.490  26.468  13.830
61505W        W31320  11.801  17.085  14.440
61506W        W31321  17.572  43.008   3.302
61507W        W31322  26.595  23.189   0.795
61508W        W31323  33.089  23.686  11.869
61509W        W31324  41.802  35.989  13.905
61510W        W31325  22.648  38.482   1.426
61511W        W31326   4.856  35.084  13.359
61512W        W31327  43.927  30.933   1.379
61513W        W31328  17.079   9.203   4.785
61514W        W31329  42.783  16.251  14.377
61515W        W31330   7.853  30.570  12.350
61516W        W31331  29.476  26.463  14.317
61517W        W31332   0.405  26.198  11.597
61518W        W31333  36.044  28.651  12.068
61519W        W31334  27.614  18.292   1.814
61520W        W31335  25.075  18.590   3.656
61521W        W31336  24.229  40.329   5.187
61522W        W31337  38.490  31.638   4.796
61523W        W31338  32.409   4.448   4.354
61524W        W31339  17.246   5.242  14.446
61525W        W31340  11.344   8.292  10.426
61526W        W31341  35.539  23.218   2.829
61527W        W31342  18.289  17.794   2.186
61528W        W31343  38.509   6.789  12.404
61529W        W31344  14.724  36.433  13.954
61530W        W31345  26.535  16.600   0.371
61531W        W31346   6.758  23.524   0.777
61532W        W31347  34.500  15.734  12.342
61533W        W31348  22.555  11.850   3.190
61534W        W31349  22.078  18.103   1.824
61535W        W31350  37.868  35.892   3.750
61536W        W31351  18.706  16.720   2.682
61537W        W31352  33.091  34.479   1.786
61538W        W31353  32.483  35.032  12.891
61539W        W31354  23.496  25.637  13.385
61540W        W31355  13.137  24.495  10.950
61541W        W31356   2.341  36.075   3.146
61542W        W31357  43.868  42.834  12.424
61543W        W31358  20.713   3.273  10.941
61544W        W31359  33.555  33.892   2.739
61545W        W31360  16.570  43.863   4.700
61546W        W31361  39.031  20.182   1.794
61547W        W31362  34.962  14.250  13.507
61548W        W31363  40.018  25.033   3.355
61549W        W31364   9.718  39.879   2.864
61550W        W31365   6.393   2.337   3.287
61551W        W31366   9.812  29.079  14.009
61552W        W31367  36.425  26.659   3.801
61553W        W31368  33.902  38.028  13.487
61554W        W31369   4.230  40.400  14.877
61555W        W31370  41.966  13.144  13.980
61556W        W31371   0.844  30.430  10.077
61557W        W31372   8.772  38.560  14.765
61558W        W31373  19.283  19.082  11.578
61559W        W31374  33.053  39.507   3.170
61560W        W31375   5.791   9.852   1.697
61561W        W31376  35.083   2.301  11.394
61562W        W31377  39.552  38.402  14.834
61563W        W31378  18.226  23.645  14.766
61564W        W31379  27.103  18.660   4.160
61565W        W31380  11.633  23.213  12.853
61566W        W31381   7.695   4.825   3.385
61567W        W31382  13.157  40.833  13.809
61568W        W31383  16.310  11.319  10.479
61569W        W31384  21.616  17.251   0.334
61570W        W31385  34.543  17.303  11.128
61571W        W31386  14.654  34.399  13.890
61572W        W31387  29.091  38.830   2.352
61573W        W31388  30.077  36.475  12.899
61574W        W31389  13.736   7.689   3.702
61575W        W31390  44.454  10.770  12.078
61576W        W31391   1.870  38.417  14.867
61577W        W31392  16.764   7.367  11.128
61578W        W31393  34.461  40.308   2.901
61579W        W31394  30.141  35.089   0.790
61580W        W31395  42.430   4.337  11.113
61581W        W31396  17.207  14.616   2.367
61582W        W31397  11.233  15.245  13.350
61583W        W31398   1.396  17.118   2.292
61584W        W31399  12.328  36.918   1.877
61585W        W31400  33.929   0.786  12.933
61586W        W31401  18.153  34.907  13.878
61587W        W31402  37.050  13.745  12.407
61588W        W31403   9.727  16.610  10.442
61589W        W31404  24.674  30.947  12.552
61590W        W31405  20.195  17.713  12.999
61591W        W31406  43.974   6.754  14.760
61592W        W31407  21.715  18.556   0.408
61593W        W31408  30.077   9.249   4.697
61594W        W31409   9.700  41.907  11.933
61595W        W31410  32.419   5.921   3.720
61596W        W31411  23.171   9.719  13.322
61597W        W31412  32.466  20.575   4.651
61598W        W31413  20.227  40.524  10.089
61599W        W31414  13.205  35.595  12.441
61600W        W31415  40.446  33.413   4.647
61601W        W31416  31.513  12.244   1.731
61602W        W31417  26.080  20.155  14.475
61603W        W31418  23.209  32.899   4.315
61604W        W31419  28.956  15.239  13.056
61605W        W31420   8.808  33.110   2.755
61606W        W31421  24.101  12.187   4.652
61607W        W31422   1.850  23.011   1.707
61608W        W31423  27.483  28.499   1.221
61609W        W31424   3.744  30.534   2.310
61610W        W31425   5.708  41.329   4.642
61611W        W31426   8.246  34.052   2.852
61612W        W31427  30.617   3.724  11.447
61613W        W31428  39.468   8.891  10.413
61614W        W31429  34.595  16.104   3.642
61615W        W31430  11.335  43.308   4.355
61616W        W31431  25.554  31.097   2.197
61617W        W31432  21.132   0.425  12.048
61618W        W31433  19.725  32.925   1.220
61619W        W31434  13.107  14.702  11.612
61620W        W31435  26.980   1.335  11.424
61621W        W31436  42.304  16.183   0.380
61622W        W31437  41.018  12.852   4.724
61623W        W31438  36.908  21.042   2.769
61624W        W31439  10.149  36.462   1.745
61625W        W31440  13.843  27.564  12.442
61626W        W31441  41.906  44.495  14.491
61627W        W31442  36.037   3.331   1.346
61628W        W31443  44.443  14.626  11.045
61629W        W31444  26.960  39.442   2.364
61630W        W31445  33.518  29.924   0.275
61631W        W31446   2.289  34.592   3.158
61632W        W31447  44.888   7.392  12.420
61633W        W31448   2.756  19.185   2.789
61634W        W31449   1.418   4.415  13.525
61635W        W31450   5.222  14.719   4.218
61636W        W31451  35.069  29.147  10.542
61637W        W31452  11.303  15.172   3.281
61638W        W31453  26.683  12.249   9.944
61639W        W31454  19.680  36.404   3.362
61640W        W31455  39.917  29.048   2.320
61641W        W31456  15.618  39.916   2.341
61642W        W31457  25.620  17.717  10.516
61643W        W31458  39.374  41.304   0.902
61644W        W31459  25.695   7.388   0.272
61645W        W31460  37.471   8.353   4.199
61646W        W31461  21.567   3.729   2.294
61647W        W31462  25.982  21.152  12.547
61648W        W31463  30.435  36.046   1.928
61649W        W31464  30.647  22.606   1.322
61650W        W31465   6.275  31.103   4.830
61651W        W31466  25.116  21.212  13.420
61652W        W31467  14.241   8.711  13.493
61653W        W31468  19.597  24.518  13.336
61654W        W31469  17.637  32.414  14.287
61655W        W31470  14.647  11.727  11.934
61656W        W31471  19.731  13.628   0.902
61657W        W31472  10.824   7.308   0.379
61658W        W31473  36.542  24.053   0.451
61659W        W31474   2.367   8.244  11.429
61660W        W31475  31.083  33.967  10.955
61661W        W31476  34.981  33.389   4.320
61662W        W31477  28.622   6.414   0.338
61663W        W31478  34.970  17.793   2.385
61664W        W31479   9.816   4.770   0.434
61665W        W31480  26.056  28.009  10.983
61666W        W31481  44.273  43.814   3.812
61667W        W31482  31.042  14.211  13.341
61668W        W31483   1.410  27.487   3.731
61669W        W31484   7.844   7.684  11.594
61670W        W31485  15.732   6.685  14.961
61671W        W31486  33.431  39.460   3.865
61672W        W31487  41.501   5.740  13.856
61673W        W31488   0.965  32.028  12.086
61674W        W31489  15.249  14.136  14.895
61675W        W31490  13.348  43.884   2.383
61676W        W31491  30.540  38.327  12.536
61677W        W31492   1.909  18.133   1.760
61678W        W31493  26.498  28.169  12.502
61679W        W31494  30.135  29.991   4.287
61680W        W31495   4.325  25.053  11.406
61681W        W31496   4.877  39.357  10.533
61682W        W31497  22.210  38.483   0.299
61683W        W31498  40.483  22.675   3.844
61684W        W31499  29.431  33.420   1.355
61685W        W31500  17.795  25.982   2.192
61686W        W31501  31.633  18.200   3.173
61687W        W31502   5.322  39.046  10.645
61688W        W31503  24.499  44.895   1.784
61689W        W31504  14.741   3.885  10.428
61690W        W31505  10.800  21.024  14.896
61691W        W31506   8.322  28.443  11.449
61692W        W31507  39.342  34.567   0.813
61693W        W31508   9.219  28.050   4.803
61694W        W31509  28.664  22.180   1.246
61695W        W31510  27.021  27.129  14.471
61696W        W31511  36.919   8.752  10.543
61697W        W31512  28.946  32.067   3.285
61698W        W31513   6.715  25.626   4.746
61699W        W31514  24.208  36.910   1.849
61700W        W31515   1.387  13.834   0.962
61701W        W31516  35.478  11.228  13.942
61702W        W31517  12.157   2.342   2.335
61703W        W31518  40.833  32.635  14.961
61704W        W31519  36.504  23.624   5.294
61705W        W31520  34.112  14.822   2.733
61706W        W31521  42.007   6.812   2.218
61707W        W31522  14.114   9.809  12.842
61708W        W31523  27.025  39.843  13.893
61709W        W31524   7.767  40.331  11.905
61710W        W31525  22.049  34.989   3.844
61711W        W31526  16.612  13.143  10.925
61712W        W31527   7.676  38.948  11.059
61713W        W31528  42.435  30.928  10.986
61714W        W31529  14.111  33.455  13.419
61715W        W31530  11.724  11.219  10.145
61716W        W31531  30.620  19.142  14.429
61717W        W31532  25.550  40.538  11.535
61718W        W31533  13.297  38.971   2.851
61719W        W31534   8.324  26.489   4.314
61720W        W31535  12.346  20.715  13.995
61721W        W31536  28.088  32.390   2.837
61722W        W31537  22.998  35.427   3.863
61723W        W31538  31.587  36.492   1.814
61724W        W31539  19.235  23.181  10.525
61725W        W31540   8.388   9.860   2.313
61726W        W31541   7.895  16.706  11.016
61727W        W31542  12.835   0.816   2.246
61728W        W31543  36.394  11.677   4.145
61729W        W31544  15.713  21.203   2.389
61730W        W31545   8.210   8.365   4.803
61731W        W31546  13.139  18.617   0.954
61732W        W31547  25.999   1.794   3.185
61733W        W31548  26.584  20.711   0.316
61734W        W31549   7.785   7.829  11.891
61735W        W31550  33.484  38.008   1.695
61736W        W31551  28.473  10.637   0.926
61737W        W31552  38.834  23.697   3.677
61738W        W31553  20.544  12.843   2.184
61739W        W31554  34.921  23.994   4.773
61740W        W31555  19.068  20.103   3.725
61741W        W31556   7.204  11.252   4.180
61742W        W31557  39.034  15.685  14.770
61743W        W31558  35.974  30.971  13.413
61744W        W31559  28.620  44.293   4.715
61745W        W31560  29.163  17.671  13.336
61746W        W31561  34.969  41.921  12.467
61747W        W31562  23.203  37.536  10.983
61748W        W31563   2.775   5.289   1.323
61749W        W31564  15.588  41.519  10.065
61750W        W31565  27.147   1.396   2.866
61751W        W31566  13.666   6.909  12.838
61752W        W31567  32.625  32.438  13.026
61753W        W31568  42.318   6.266   3.181
61754W        W31569  24.595  15.781  10.600
61755W        W31570  12.273  39.837   0.280
61756W        W31571  20.093  29.129   1.313
61757W        W31572  16.801  28.030  13.357
61758W        W31573  36.406  40.451  11.016
61759W        W31574  16.590  38.893   2.336
61760W        W31575  44.906  15.188  10.429
61761W        W31576  11.249  35.460   1.713
61762W        W31577  27.622  17.622   1.369
61763W        W31578  21.714  16.086  12.423
61764W        W31579  31.540  39.837   2.751
61765W        W31580   2.278   8.803  11.435
61766W        W31581  19.215  13.207   4.295
61767W        W31582  17.154  26.094  12.348
61768W        W31583   5.798  19.536  13.974
61769W        W31584   0.922  20.723  10.635
61770W        W31585  21.633   4.292  11.895
61771W        W31586   3.261  31.993   0.327
61772W        W31587  33.029  39.374   4.748
61773W        W31588  32.556  41.010  13.942
61774W        W31589  38.904  36.021   0.415
61775W        W31590  29.071  18.143   4.244
61776W        W31591  32.478   5.861  11.484
61777W        W31592  13.315   9.358  13.810
61778W        W31593   2.289  42.382   4.771
61779W        W31594  22.723  42.307  14.275
61780W        W31595  43.777  27.611  12.428
61781W        W31596   3.359  11.717   2.708
61782W        W31597   4.848  36.492   1.880
61783W        W31598  43.901  26.138  14.410
61784W        W31599  34.879  32.621   1.225
61785W        W31600  22.145  16.299  12.852
61786W        W31601  19.208  25.604   1.822
61787W        W31602  29.613   3.373  13.536
61788W        W31603  10.323  28.023   0.951
61789W        W31604   8.383  28.070   4.346
61790W        W31605  18.092  20.737  11.988
61791W        W31606  10.687   2.805  12.872
61792W        W31607   8.351   4.304   2.295
61793W        W31608  40.413  18.581  11.439
61794W        W31609  17.091   1.330   0.259
61795W        W31610  35.032  32.582   4.713
61796W        W31611  11.352  18.177  14.896
61797W        W31612   8.281  38.861   1.694
61798W        W31613  18.157  40.898  12.016
61799W        W31614  30.607  33.456   2.311
61800W        W31615  31.124  35.856   1.441
61801W        W31616   1.789  37.029   1.276
61802W        W31617  36.574  24.577  12.506
61803W        W31618  38.025   6.759   3.711
61804W        W31619  30.581  16.730   4.216
61805W        W31620   8.285  23.117   0.330
61806W        W31621  32.425  24.725   0.260
61807W        W31622  28.546  20.688  12.096
61808W        W31623  20.525  25.017   2.665
61809W        W31624  40.968   7.378   9.959
61810W        W31625  27.667  24.715   2.664
61811W        W31626  30.470  17.080  11.520
61812W        W31627  39.052  44.922  12.524
61813W        W31628  25.605  30.114   1.429
61814W        W31629  44.771  43.401   0.892
61815W        W31630  31.107  43.358   1.916
61816W        W31631  42.842   2.391   4.118
61817W        W31632   8.897   3.924  13.892
61818W        W31633  39.909   0.493  13.465
61819W        W31634  25.529  12.334   0.782
61820W        W31635  18.253  33.473  11.532
61821W        W31636  42.518  25.156  14.342
61822W        W31637  10.716  37.854  12.930
61823W        W31638  37.927  38.472   0.319
61824W        W31639  13.107  15.235   1.419
61825W        W31640  32.527  34.606   0.337
61826W        W31641  17.643  14.636  12.950
61827W        W31642  44.263   9.231  14.471
61828W        W31643  25.576  23.044   4.719
61829W        W31644  34.105  29.165  10.889
61830W        W31645  27.552  18.265  14.803
61831W        W31646  31.020  25.154  12.517
61832W        W31647  33.975   4.404  13.511
61833W        W31648  11.146  19.644   3.742
61834W        W31649   0.838  23.010   0.890
61835W        W31650  42.343   3.908   3.662
61836W        W31651  18.275  18.255  11.427
61837W        W31652  11.657  17.074   2.282
61838W        W31653  43.838   8.764  11.489
61839W        W31654  17.259   4.375   2.297
61840W        W31655  13.657   6.690  11.595
61841W        W31656   9.646  38.446  14.797
61842W        W31657  20.573   2.432  13.383
61843W        W31658  20.757   4.774   4.650
61844W        W31659   5.816  42.902   0.935
61845W        W31660  16.769  42.884  11.903
61846W        W31661  40.814  43.415  11.901
61847W        W31662  30.130  44.929   0.266
61848W        W31663  30.034   8.789  13.055
61849W        W31664  34.584  17.137  14.433
61850W        W31665  40.856  28.617   3.870
61851W        W31666   5.331  32.011  12.443
61852W        W31667  33.380  36.573  12.873
61853W        W31668  17.710  28.507   2.879
61854W        W31669  44.004  42.016  14.464
61855W        W31670   1.476  29.575  13.899
61856W        W31671  22.167   7.905  14.922
61857W        W31672  15.148  27.178  12.941
61858W        W31673   1.830  13.741   4.678
61859W        W31674   9.383  21.536   4.627
61860W        W31675  34.892  40.803  11.938
61861W        W31676   7.182  39.934  11.492
61862W        W31677   9.304  31.640  11.043
61863W        W31678   2.828  34.065   3.709
61864W        W31679   0.953   0.330   4.146
61865W        W31680   1.387  28.466   0.855
61866W        W31681  40.421  31.503  11.974
61867W        W31682  39.437  18.717   4.168
61868W        W31683  20.533  38.967   4.677
61869W        W31684  11.854  15.797  12.364
61870W        W31685  41.483  24.010   5.206
61871W        W31686  20.035  17.072  10.639
61872W        W31687   3.901  10.380   4.623
61873W        W31688  40.451  38.891   2.406
61874W        W31689  36.533   6.357  10.622
61875W        W31690  30.451  32.554  11.371
61876W        W31691  27.951  25.034   0.741
61877W        W31692  41.484  27.667  13.995
61878W        W31693  24.089  37.839   1.253
61879W        W31694  14.246  16.275   3.353
61880W        W31695  44.463   5.772  12.091
61881W        W31696  24.713  21.042  10.937
61882W        W31697  13.339  29.024   3.259
61883W        W31698  36.970  42.911  11.912
61884W        W31699  40.010  10.810  13.035
61885W        W31700  37.830  13.341  13.392
61886W        W31701   3.828  14.104  11.566
61887W        W31702   2.284  23.213  14.840
61888W        W31703  21.036   0.418   4.236
61889W        W31704   7.891  16.308   1.370
61890W        W31705  43.504  10.780  13.323
61891W        W31706  33.124  11.628  10.495
61892W        W31707  39.409  20.618   2.739
61893W        W31708  29.130  12.828  11.402
61894W        W31709  42.869  11.196  13.819
61895W        W31710  27.139  27.468  12.018
61896W        W31711  29.056  12.620   2.736
61897W        W31712  38.378  40.381   0.882
61898W        W31713  39.535  42.432   1.828
61899W        W31714  14.753   9.884   1.444
61900W        W31715  15.175  39.040   1.815
61901W        W31716  25.118  28.168   4.288
61902W        W31717   8.297  43.783   4.804
61903W        W31718  38.954   7.707  14.940
61904W        W31719   7.759  35.553  12.358
61905W        W31720  33.547  19.112   0.474
61906W        W31721  32.925  42.477   1.226
61907W        W31722  26.615   1.779  14.932
61908W        W31723  21.689   8.887   1.243
61909W        W31724  41.409  12.137  12.888
61910W        W31725  16.795  37.367  13.854
61911W        W31726  22.500   8.862   0.398
61912W        W31727  31.077  14.739   4.751
61913W        W31728  42.484   4.279   0.782
61914W        W31729  38.387   6.183  14.945
61915W        W31730   8.736  22.036  11.857
61916W        W31731  37.001  16.302  14.410
61917W        W31732  31.451  42.990  11.439
61918W        W31733  10.844  14.254  12.961
61919W        W31734  39.028  36.965  11.377
61920W        W31735  18.227  32.947  10.941
61921W        W31736  13.282  12.730  12.369
61922W        W31737  17.153  38.432   3.817
61923W        W31738  23.632  36.942  11.005
61924W        W31739  44.400  27.458   1.268
61925W        W31740   8.265   3.954   2.259
61926W        W31741  21.171   2.863  10.040
61927W        W31742  29.119  30.053   0.847
61928W        W31743  25.067   0.324   4.741
61929W        W31744  36.979  29.992  14.325
61930W        W31745  35.068   1.288  12.924
61931W        W31746   3.937  41.891  10.478
61932W        W31747   2.466  21.590  13.397
61933W        W31748  30.423  41.343  14.821
61934W        W31749  31.033   8.343   2.845
61935W        W31750  34.487  44.786  11.007
61936W        W31751  35.083  37.425   0.780
61937W        W31752  35.872  39.829   3.670
61938W        W31753  38.029  39.024   3.148
61939W        W31754  41.387  29.962  11.105
61940W        W31755  27.457  21.554  11.376
61941W        W31756  38.016  24.980   0.733
61942W        W31757   5.911  20.191  14.420
61943W        W31758  12.708   7.846   3.275
61944W        W31759  32.998  29.640   3.369
61945W        W31760  42.362  26.466   4.324
61946W        W31761   2.315  16.717   3.814
61947W        W31762  41.967  12.829   3.658
61948W        W31763  21.238  27.056  14.962
61949W        W31764   3.807  13.605   1.887
61950W        W31765  20.608  15.625  14.328
61951W        W31766  22.550   5.341  14.029
61952W        W31767  25.082  12.118   0.788
61953W        W31768  43.498  22.133   2.774
61954W        W31769  21.124   6.782  10.562
61955W        W31770  42.457   7.297  12.962
61956W        W31771  31.033  20.232   2.233
61957W        W31772  38.464  34.038   1.848
61958W        W31773  27.194   6.683  11.481
61959W        W31774   1.850  10.261  10.610
61960W        W31775  21.645  28.547  13.351
61961W        W31776  13.246   7.326  14.983
61962W        W31777  28.674  19.762  11.376
61963W        W31778  26.032  44.774  14.993
61964W        W31779  40.548   9.768   2.869
61965W        W31780   8.813  39.065  12.530
61966W        W31781  15.735   0.384  14.840
61967W        W31782   4.372  16.803   0.362
61968W        W31783  33.547   8.769  14.474
61969W        W31784  41.852   9.771   1.933
61970W        W31785  16.294  22.531   4.829
61971W        W31786  25.484  17.193  13.327
61972W        W31787  17.151  24.060  14.514
61973W        W31788   6.266  19.749   0.329
61974W        W31789   4.318  22.651   1.288
61975W        W31790  15.199  10.316  14.393
61976W        W31791  28.172  19.759  10.547
61977W        W31792  17.636  26.194   1.387
61978W        W31793  21.648   9.678  12.050
61979W        W31794  37.858  22.052   2.308
61980W        W31795   3.747  40.958  13.987
61981W        W31796  43.865   1.815   1.211
61982W        W31797  42.023  26.531   2.205
61983W        W31798  44.819  20.631   3.293
61984W        W31799   5.192   3.872  12.554
61985W        W31800   3.387  20.188  11.386
61986W        W31801  16.692  25.207  12.360
61987W        W31802  40.329  43.928   3.164
61988W        W31803  18.638   5.815   4.206
61989W        W31804  19.195  18.679  13.435
61990W        W31805  10.640   8.298  13.527
61991W        W31806  14.313  39.838   0.381
61992W        W31807  36.452   1.333   0.334
61993W        W31808  10.362  25.570   0.903
61994W        W31809  37.560  16.746   1.848
61995W        W31810  44.830  29.006   1.248
61996W        W31811   9.267  41.359   4.113
61997W        W31812  37.343  20.687   0.247
61998W        W31813  35.091  13.620  13.371
61999W        W31814  20.153  23.149  10.945
62000W        W31815   3.901   6.750  12.431
62001W        W31816  38.330  30.055   1.437
62002W        W31817  23.226  40.336   2.859
62003W        W31818  18.775  41.354   2.358
62004W        W31819  37.053  33.040   1.900
62005W        W31820   1.929  44.289  10.461
62006W        W31821   2.381  32.424  12.866
62007W        W31822  15.693  24.149   1.376
62008W        W31823  40.949  40.806  13.945
62009W        W31824  39.992  40.324  13.358
62010W        W31825  33.916  20.267  10.956
62011W        W31826   6.742   7.670   4.224
62012W        W31827   6.379  12.240   3.821
62013W        W31828  20.674  35.990   3.370
62014W        W31829  44.263  11.816  14.288
62015W        W31830  22.622  33.089   3.697
62016W        W31831  14.136  23.573   3.675
62017W        W31832  25.973  40.341   5.132
62018W        W31833  19.576  23.649   4.176
62019W        W31834  37.443  28.009   2.281
62020W        W31835   0.481  37.376  11.394
62021W        W31836  39.453  14.330   0.259
62022W        W31837  25.623  44.759  13.939
62023W        W31838   5.335  29.006  11.906
62024W        W31839  21.224  33.111  11.100
62025W        W31840  43.834  25.980  12.360
62026W        W31841  31.135   1.352  12.555
62027W        W31842  28.579  14.673   0.309
62028W        W31843  31.072   6.212  14.959
62029W        W31844  43.000   6.885   1.834
62030W        W31845  11.656  14.829  10.117
62031W        W31846   9.260  28.640  14.964
62032W        W31847   2.965  20.611   1.391
62033W        W31848  13.180  44.827   1.234
62034W        W31849  17.736  41.918  11.128
62035W        W31850  25.996  37.561  11.451
62036W        W31851   6.822   6.690  14.497
62037W        W31852  14.318   9.349  13.426
62038W        W31853  24.687  20.178  11.997
62039W        W31854  37.349   2.873  13.872
62040W        W31855  30.029  28.114   3.258
62041W        W31856  28.184  16.681   3.632
62042W        W31857  20.557  14.160  12.004
62043W        W31858  34.901  26.018   4.609
62044W        W31859  37.436   3.802  11.500
62045W        W31860   2.908  20.171  12.340
62046W        W31861   7.743   8.876   5.251
62047W        W31862   2.400  10.355   2.195
62048W        W31863  13.179  14.182   2.365
62049W        W31864  29.099   8.296   0.310
62050W        W31865  25.660   7.844  10.578
62051W        W31866   1.463  34.551  11.583
62052W        W31867  18.775  16.115   1.415
62053W        W31868  13.631  15.212   4.260
62054W        W31869  34.546   5.323   4.735
62055W        W31870  29.091  12.267   2.712
62056W        W31871   4.322  23.572   0.790
62057W        W31872  19.212  29.608  13.397
62058W        W31873  35.527  39.900  13.929
62059W        W31874  39.331   1.242  10.943
62060W        W31875  10.274  24.541   3.176
62061W        W31876  32.469  14.650   2.834
62062W        W31877  23.673   0.461  11.401
62063W        W31878  26.026  34.890   2.852
62064W        W31879  39.476   8.366   1.306
62065W        W31880  32.390  32.991  12.421
62066W        W31881  13.624  25.628   3.760
62067W        W31882  13.742  12.643   2.271
62068W        W31883  34.421  15.134  14.958
62069W        W31884  17.255  34.458   2.345
62070W        W31885   0.289  13.705   2.225
62071W        W31886  41.312  41.440  13.819
62072W        W31887  24.124  33.023   0.862
62073W        W31888   4.439  18.288   1.765
62074W        W31889  21.148  42.494  14.302
62075W        W31890  21.159  14.145   5.254
62076W        W31891   2.873  39.808   4.782
62077W        W31892  31.587  28.041   3.325
62078W        W31893  44.439  14.214  13.383
62079W        W31894  18.296  27.590   2.847
62080W        W31895   1.841  21.064  13.949
62081W        W31896  14.096  11.710  10.410
62082W        W31897  38.428   5.343   3.214
62083W        W31898   0.284  37.420   3.789
62084W        W31899   8.372  28.094  11.469
62085W        W31900   3.838  27.565   3.759
62086W        W31901   7.669  25.106   4.705
62087W        W31902  21.654  34.387  13.869
62088W        W31903  40.989  15.775  10.060
62089W        W31904  43.925  16.130   4.742
62090W        W31905  12.721  16.716   1.414
62091W        W31906  29.949  43.014  10.500
62092W        W31907  36.976  41.346  10.602
62093W        W31908   1.351  43.513   1.885
62094W        W31909   5.723   1.345  13.412
62095W        W31910  26.482  18.750  12.044
62096W        W31911   5.381  12.254  11.914
62097W        W31912  42.289  14.104  10.430
62098W        W31913  17.178  19.618   0.842
62099W        W31914  29.992  28.624  10.486
62100W        W31915  33.429  21.119   4.661
62101W        W31916  34.502   4.392  12.561
62102W        W31917  14.688  35.537  11.589
62103W        W31918  10.801  24.589   2.847
62104W        W31919  21.078  40.512  12.914
62105W        W31920  11.761   1.439  12.485
62106W        W31921  15.630   9.372   2.717
62107W        W31922  29.007  11.643  14.788
62108W        W31923   4.821  39.064  13.059
62109W        W31924   0.434  10.222   4.718
62110W        W31925  28.970  40.446   4.226
62111W        W31926  29.985   0.765   3.267
62112W        W31927   0.273   3.865   3.294
62113W        W31928   1.483  24.603  13.920
62114W        W31929  20.212  11.799   1.880
62115W        W31930  26.997  10.291   5.087
62116W        W31931  14.329  38.854  10.996
62117W        W31932  43.389  43.983   3.367
62118W        W31933  20.227  33.892  14.514
62119W        W31934  26.636   7.769   4.615
62120W        W31935  38.870   1.242  14.308
62121W        W31936  19.140  43.294   4.345
62122W        W31937  21.120  15.800   5.107
62123W        W31938  41.040  17.238  14.371
62124W        W31939   2.368  10.779   1.753
62125W        W31940   2.338   1.476  13.364
62126W        W31941   8.698  40.431   3.810
62127W        W31942  23.672  29.012   0.316
62128W        W31943  27.516   1.383  12.947
62129W        W31944  41.950  31.601  12.380
62130W        W31945  36.859  24.041  12.095
62131W        W31946  42.442  25.016   2.802
62132W        W31947   7.833  33.577   4.266
62133W        W31948  10.771  18.099  11.106
62134W        W31949   4.254  20.576   1.906
62135W        W31950   0.813  34.113   4.247
62136W        W31951  18.744  13.749  14.947
62137W        W31952  15.115  14.150  11.873
62138W        W31953  12.249  40.313  13.967
62139W        W31954  40.817  35.018  13.441
62140W        W31955  15.188   7.182   1.716
62141W        W31956  17.576  42.806   2.239
62142W        W31957  34.954  23.077  10.586
62143W        W31958  21.729  17.306   2.235
62144W        W31959   4.848   3.750  10.441
62145W        W31960  40.814  39.942   0.962
62146W        W31961  29.606  37.078  11.395
62147W        W31962  30.010  14.717  11.018
62148W        W31963  27.085  37.460  14.459
62149W        W31964   8.845   9.266   0.802
62150W        W31965   7.693   7.194  13.449
62151W        W31966  36.055  27.595   3.248
62152W        W31967  10.326  37.526  12.076
62153W        W31968   5.229  12.641  13.419
62154W        W31969  27.586  37.072   1.307
62155W        W31970   2.941   9.279   0.347
62156W        W31971  12.629  13.649  10.485
62157W        W31972  19.050  24.207   4.722
62158W        W31973  40.894  36.896  10.433
62159W        W31974  30.907   5.273  13.794
62160W        W31975  14.624   6.218  11.095
62161W        W31976   0.336  27.183  12.410
62162W        W31977   4.274  12.691   4.275
62163W        W31978  44.808   7.381   1.358
62164W        W31979  29.131  23.206   1.331
62165W        W31980   5.229  20.634   0.731
62166W        W31981   2.400  24.574  13.391
62167W        W31982  31.986  18.183  10.924
62168W        W31983  40.983  13.824   9.483
62169W        W31984  32.558   4.352   3.195
62170W        W31985  36.931   1.446   4.830
62171W        W31986  18.604  26.645   1.757
62172W        W31987  28.170  36.517   1.913
62173W        W31988   1.339  23.689   3.763
62174W        W31989  34.010   0.327   2.768
62175W        W31990  31.407  22.079   2.254
62176W        W31991  40.422  44.438  13.946
62177W        W31992   2.460   9.810   1.708
62178W        W31993  12.258  15.620   1.811
62179W        W31994  10.837  19.219   0.364
62180W        W31995  20.120   1.251   3.858
62181W        W31996  21.676  35.876   0.917
62182W        W31997  42.464   8.270  14.992
62183W        W31998  22.654   2.470  11.373
62184W        W31999  23.131   7.891  13.890
62185W        W32000  11.261   3.728  10.415
62186W        W32001  40.533   5.795   0.820
62187W        W32002  27.686   1.767  12.948
62188W        W32003   9.861  31.976  11.564
62189W        W32004  15.087  23.159   0.858
62190W        W32005   7.203  31.971  12.097
62191W        W32006  29.433  14.160  12.016
62192W        W32007  16.657  26.062   4.334
62193W        W32008  34.423   7.895  11.903
62194W        W32009   9.742   0.459   4.121
62195W        W32010  26.178   2.465  13.392
62196W        W32011   7.895   1.758  10.921
62197W        W32012  33.066  25.480  11.118
62198W        W32013  10.219  31.464  12.543
62199W        W32014   9.249   8.677   1.332
62200W        W32015  44.011  31.056   2.388
62201W        W32016  36.438  19.127  11.065
62202W        W32017  35.065  22.020  12.905
62203W        W32018  15.762  35.405  13.008
62204W        W32019  39.336   4.889   0.342
62205W        W32020   8.795  34.093  11.870
62206W        W32021  20.607  36.450  13.507
62207W        W32022  15.145   2.794   0.937
62208W        W32023   8.788  40.545  11.440
62209W        W32024  25.530  28.087  12.376
62210W        W32025  10.689  14.241  10.546
62211W        W32026   6.300  44.773   2.883
62212W        W32027   5.860   8.395   3.361
62213W        W32028  16.616  40.018   4.257
62214W        W32029  25.477  19.748   4.700
62215W        W32030  14.099   5.880  11.383
62216W        W32031   3.355  32.901   1.883
62217W        W32032  10.284  15.287  12.381
62218W        W32033   7.721  19.583  13.879
62219W        W32034  18.648   8.749  12.959
62220W        W32035  38.343   1.445  13.881
62221W        W32036  21.200  38.832   3.678
62222W        W32037  19.192  12.216   2.411
62223W        W32038  39.010  22.147  12.994
62224W        W32039  23.703  12.690   4.312
62225W        W32040   4.429  25.051   4.635
62226W        W32041   2.236  16.690   4.681
62227W        W32042   0.287  19.147   3.341
62228W        W32043  16.787  37.369  11.084
62229W        W32044   7.892  19.720  12.823
62230W        W32045  10.867  26.089   3.735
62231W        W32046  21.233  34.449  14.299
62232W        W32047  40.906   8.811  13.480
62233W        W32048  44.480  23.518  13.500
62234W        W32049  29.034  36.441   2.378
62235W        W32050  34.031  16.110   0.846
62236W        W32051   3.375  36.979  12.906
62237W        W32052  12.283   7.760   1.240
62238W        W32053  38.870   2.880  11.612
62239W        W32054  37.938  32.113   2.781
62240W        W32055  14.761  41.400   1.351
62241W        W32056   4.249  38.859   3.145
62242W        W32057   3.807  43.369  12.891
62243W        W32058  22.695  20.651  12.986
62244W        W32059  23.734  36.384  10.437
62245W        W32060   9.302   0.459   5.122
62246W        W32061   3.384  39.395  13.480
62247W        W32062  18.216  28.653  13.878
62248W        W32063  25.632  28.451   3.304
62249W        W32064  43.341  22.023   1.390
62250W        W32065  39.914   8.199   5.796
62251W        W32066  30.034  43.895   1.805
62252W        W32067  31.064  15.262   4.226
62253W        W32068  39.814  12.808   2.695
62254W        W32069  37.543  18.273  12.508
62255W        W32070  23.618   2.812   1.790
62256W        W32071  40.528  30.041   0.389
62257W        W32072  44.822  27.974   4.774
62258W        W32073  28.547  24.179   2.227
62259W        W32074  31.457  26.684   2.231
62260W        W32075  42.414  40.528  14.808
62261W        W32076  12.353   9.798  12.478
62262W        W32077  18.724  32.032   1.817
62263W        W32078  21.133  12.781  11.988
62264W        W32079  40.419   0.285  14.333
62265W        W32080   1.479  20.030   0.844
62266W        W32081  38.445  20.696   2.871
62267W        W32082   2.344  44.284  10.091
62268W        W32083  13.214  26.478  10.898
62269W        W32084  33.971  25.044   0.313
62270W        W32085  27.543  42.334  10.461
62271W        W32086  21.742  32.993  11.522
62272W        W32087  16.284   0.946   0.304
62273W        W32088  35.858  38.545   0.304
62274W        W32089  33.545  23.174   4.293
62275W        W32090   0.369  42.979   3.308
62276W        W32091  34.117  32.885  14.415
62277W        W32092   5.793  20.036  13.371
62278W        W32093   3.884  38.064  14.428
62279W        W32094   9.784  43.352  11.377
62280W        W32095  37.072  14.716   0.358
62281W        W32096  10.868  15.726  12.345
62282W        W32097  30.542  21.631   1.846
62283W        W32098  41.537  39.497   4.712
62284W        W32099  29.161  29.433  12.950
62285W        W32100  15.682  23.107  12.341
62286W        W32101  18.275  35.090   2.252
62287W        W32102   4.699  20.606  14.781
62288W        W32103  42.295   4.388  14.932
62289W        W32104   5.701   8.166   4.785
62290W        W32105  13.624  33.972  12.569
62291W        W32106  25.968  16.286   3.350
62292W        W32107  26.569  12.228   3.381
62293W        W32108   9.301  37.391  14.455
62294W        W32109   5.193  14.164  12.365
62295W        W32110  44.400   6.233   0.901
62296W        W32111  22.208   9.327   0.449
62297W        W32112  14.680  37.910  11.579
62298W        W32113  44.834   1.341   1.232
62299W        W32114  36.099  17.686  11.556
62300W        W32115   2.954  37.896  14.812
62301W        W32116  33.048   6.209  14.393
62302W        W32117   8.355   3.223   3.200
62303W        W32118   6.780  16.104   2.276
62304W        W32119  34.990  20.623   1.219
62305W        W32120  26.123  44.976   0.803
62306W        W32121   6.850  14.183  12.858
62307W        W32122  32.138  35.068   4.144
62308W        W32123  42.379   5.397   1.225
62309W        W32124  30.137   5.874   4.784
62310W        W32125   6.823   2.816   2.337
62311W        W32126  16.607  44.949  12.341
62312W        W32127  40.404  24.108  11.064
62313W        W32128  25.127  12.741   0.279
62314W        W32129  19.272  38.339  12.083
62315W        W32130  44.941  15.126   4.766
62316W        W32131  39.821  37.013  11.936
62317W        W32132  40.321  40.969   1.275
62318W        W32133  10.145  29.516   0.260
62319W        W32134  33.472  26.618   3.208
62320W        W32135  17.202  16.671   4.155
62321W        W32136  34.481  17.592   1.901
62322W        W32137   0.843  22.239  13.059
62323W        W32138  44.336  25.965  12.458
62324W        W32139  18.135  40.341  13.454
62325W        W32140  18.651  34.913  11.021
62326W        W32141  22.186   2.307   2.330
62327W        W32142  32.077   2.794  13.431
62328W        W32143  40.022  36.925  10.413
62329W        W32144  26.532  28.674  11.593
62330W        W32145  13.239  22.623  12.515
62331W        W32146  41.850  29.443   5.246
62332W        W32147  28.054  40.380  11.417
62333W        W32148  37.916  17.266   2.890
62334W        W32149   5.845   4.863  14.450
62335W        W32150   2.257   3.910   2.834
62336W        W32151   5.297  15.596   3.172
62337W        W32152  31.997   2.447   2.882
62338W        W32153  28.485  14.709   0.967
62339W        W32154  33.531  14.670  13.523
62340W        W32155   3.392  42.304   1.875
62341W        W32156  35.522  19.606   4.810
62342W        W32157  18.096  34.065   0.790
62343W        W32158   9.716  33.995   4.121
62344W        W32159  15.814  10.235   1.299
62345W        W32160   8.365  13.176  13.944
62346W        W32161   4.912  15.740  11.044
62347W        W32162  23.502  38.371  11.923
62348W        W32163  10.735  33.578   1.696
62349W        W32164  19.212  13.618  14.800
62350W        W32165  32.905  23.666   4.318
62351W        W32166   7.278  25.603  12.057
62352W        W32167  38.538  34.514  12.895
62353W        W32168   4.722   1.408   4.286
62354W        W32169  31.498  44.955  11.867
62355W        W32170   1.478  31.617   0.852
62356W        W32171  44.484  21.600   2.326
62357W        W32172  43.827  43.382  12.013
62358W        W32173  14.805  28.185   9.965
62359W        W32174  31.970  12.248   3.670
62360W        W32175  13.145  42.825   5.147
62361W        W32176  44.857   0.262   4.824
62362W        W32177  15.752  16.661   2.770
62363W        W32178  17.065  39.860  14.284
62364W        W32179   1.271  38.985   2.686
62365W        W32180  34.479   5.372   1.404
62366W        W32181  35.876  27.513   1.404
62367W        W32182  23.088  12.228   3.785
62368W        W32183  18.614  16.163  10.496
62369W        W32184   2.433  30.064  14.409
62370W        W32185  39.980  16.655   0.781
62371W        W32186  13.732   5.392   2.874
62372W        W32187  16.690  22.075   4.188
62373W        W32188  14.270  38.425  12.341
62374W        W32189   8.846  24.024   2.258
62375W        W32190  39.821  14.788   5.317
62376W        W32191   6.295   4.747  12.995
62377W        W32192  16.170  32.517  12.892
62378W        W32193  38.938  34.503   2.697
62379W        W32194  19.778  37.508   4.624
62380W        W32195   4.743  20.665  12.926
62381W        W32196  17.063  41.833  11.085
62382W        W32197  29.022  40.825   4.264
62383W        W32198  19.114  17.086  14.028
62384W        W32199   8.892  40.054   0.735
62385W        W32200  31.071   7.729   1.849
62386W        W32201  30.113   2.938   1.292
62387W        W32202  38.400  34.959  13.823
62388W        W32203  11.838   3.921   4.676
62389W        W32204  39.878  17.628   2.357
62390W        W32205  15.266  27.106   0.399
62391W        W32206  22.209  16.197   0.837
62392W        W32207  21.539   7.674   1.805
62393W        W32208  21.114  21.596   3.686
62394W        W32209  18.544  15.182   3.633
62395W        W32210  24.554   4.385  12.357
62396W        W32211  18.593  38.826   0.907
62397W        W32212   5.202  13.615  14.963
62398W        W32213   1.756  19.718   2.289
62399W        W32214  15.754  12.752   3.805
62400W        W32215  39.888  29.606   0.257
62401W        W32216  36.055  18.728  10.643
62402W        W32217  18.189  21.576  12.029
62403W        W32218  10.239   4.823  11.946
62404W        W32219  13.214  38.384   1.927
62405W        W32220   5.692   0.422   0.247
62406W        W32221  39.486  43.402   3.260
62407W        W32222  44.500   1.789  13.401
62408W        W32223  42.911  25.480   0.950
62409W        W32224   8.683  32.973  14.854
62410W        W32225  28.084  10.776   2.808
62411W        W32226   4.425   9.663  13.030
62412W        W32227  37.926  20.048   3.271
62413W        W32228  25.965   7.862   0.443
62414W        W32229  41.508  18.251   3.357
62415W        W32230   0.432  36.575  11.524
62416W        W32231  27.447  12.353  12.960
62417W        W32232  15.579  31.583  13.061
62418W        W32233  39.401  17.115  12.043
62419W        W32234   7.297  44.960   4.143
62420W        W32235  33.072  10.146   3.188
62421W        W32236  34.374  14.626   0.432
62422W        W32237  14.659  11.741  14.318
62423W        W32238  36.429  44.817   1.345
62424W        W32239   8.161  41.921   2.314
62425W        W32240  25.499  23.049   1.212
62426W        W32241   7.271  12.264   3.170
62427W        W32242  22.086  29.424  14.952
62428W        W32243  11.799  13.282  13.372
62429W        W32244   3.333  19.564   0.872
62430W        W32245   5.860  17.667  13.467
62431W        W32246  27.449   4.263  14.498
62432W        W32247  20.594  34.876  10.435
62433W        W32248  11.366  38.372   4.663
62434W        W32249   2.310  27.173   2.292
62435W        W32250  22.563  34.502   1.845
62436W        W32251  22.612  10.227  10.007
62437W        W32252   2.742  43.411  14.876
62438W        W32253  15.696  44.349   9.988
62439W        W32254   1.791  25.498   0.459
62440W        W32255   2.360  19.184   2.297
62441W        W32256  34.570  18.734   3.821
62442W        W32257  21.590  18.115   3.327
62443W        W32258  43.288  21.165   4.267
62444W        W32259  42.901   6.210   4.686
62445W        W32260  23.041  24.160   1.907
62446W        W32261  13.700  39.416  14.885
62447W        W32262  28.509  21.027  12.449
62448W        W32263  19.143   3.446  14.834
62449W        W32264  41.793   1.916   0.266
62450W        W32265   2.251  41.790  11.892
62451W        W32266   7.712   9.878  13.378
62452W        W32267  21.230  16.592   3.334
62453W        W32268  44.488   3.787   2.402
62454W        W32269  13.185  23.497   3.233
62455W        W32270  42.377  19.101  12.875
62456W        W32271  44.765  28.179   2.670
62457W        W32272  17.199  13.626  12.533
62458W        W32273  30.466   8.777   1.407
62459W        W32274  16.087  23.535   1.724
62460W        W32275  25.475   7.323  11.128
62461W        W32276  18.676  37.941   0.864
62462W        W32277   8.367  44.469   2.892
62463W        W32278   8.663  20.672  10.431
62464W        W32279  20.144  21.604  11.379
62465W        W32280  29.963   9.302  14.445
62466W        W32281   7.358  21.618  12.481
62467W        W32282   5.760  15.740  14.468
62468W        W32283  43.299  13.694  10.553
62469W        W32284  12.772  43.847   4.776
62470W        W32285  25.057  36.971  12.874
62471W        W32286  43.889  38.326  13.911
62472W        W32287   9.152  31.087   3.271
62473W        W32288  34.566   8.864  13.888
62474W        W32289  43.900   9.350   4.676
62475W        W32290   5.342  20.547  11.878
62476W        W32291  10.244  28.673  11.915
62477W        W32292   9.671  12.634  14.007
62478W        W32293  32.594  30.659  11.557
62479W        W32294  25.046  36.045  11.435
62480W        W32295  38.876  23.993  12.864
62481W        W32296  26.096  26.647   2.390
62482W        W32297  41.797  23.686   4.186
62483W        W32298  26.015   5.832  14.805
62484W        W32299   9.839  22.703   2.188
62485W        W32300   9.819   7.803  13.008
62486W        W32301  17.232   9.219   4.226
62487W        W32302  35.078  42.009  14.875
62488W        W32303  33.014   0.927  12.493
62489W        W32304  10.308  20.051   0.467
62490W        W32305  22.077  26.195  14.405
62491W        W32306  37.495  28.181  14.924
62492W        W32307   4.875  33.487   5.126
62493W        W32308  41.356   5.756  10.905
62494W        W32309  44.407  34.942   4.340
62495W        W32310  36.420  33.605   4.705
62496W        W32311   7.339  18.106   4.187
62497W        W32312  20.764  43.423  11.484
62498W        W32313  41.016  29.953   2.319
62499W        W32314   3.390   8.800  10.051
62500W        W32315  30.091  29.426   4.667
62501W        W32316  25.978  34.415   3.192
62502W        W32317   9.745  40.996   1.875
62503W        W32318  28.980  12.357  14.760
62504W        W32319  13.631  13.789   3.745
62505W        W32320  31.482   2.765  14.814
62506W        W32321  17.267   8.279   4.688
62507W        W32322  34.894  19.717  11.905
62508W        W32323  30.020  29.017   3.810
62509W        W32324  34.874  28.144   4.827
62510W        W32325   0.333  25.535   2.864
62511W        W32326  28.119  37.850   4.799
62512W        W32327  36.917  32.599   1.834
62513W        W32328   5.290  25.563  13.479
62514W        W32329   3.783  18.151  10.079
62515W        W32330   0.442  41.787  13.003
62516W        W32331  20.258  20.751  12.858
62517W        W32332   6.742   2.246  14.032
62518W        W32333   6.700  23.734  13.885
62519W        W32334  16.269  38.402   1.713
62520W        W32335  22.017   9.308   4.158
62521W        W32336  35.518   5.295  12.853
62522W        W32337  29.990   8.888  14.026
62523W        W32338   9.840  40.305  14.455
62524W        W32339  44.264  14.190   5.167
62525W        W32340  38.987  38.049   4.723
62526W        W32341  14.111  24.581   1.832
62527W        W32342  12.234  30.041  13.399
62528W        W32343  17.228  25.018   0.906
62529W        W32344  28.056  12.133  13.388
62530W        W32345  38.922  41.964  13.959
62531W        W32346   0.884  17.184   5.082
62532W        W32347   2.888  43.009  12.571
62533W        W32348  21.556  29.102  13.903
62534W        W32349  19.646  33.894   2.780
62535W        W32350  39.407   3.314  14.863
62536W        W32351  12.268  25.633  14.923
62537W        W32352  20.212  16.118  13.048
62538W        W32353  24.135  25.106  10.607
62539W        W32354  35.529  42.776  12.474
62540W        W32355  29.153  41.825  13.037
62541W        W32356  39.895   0.321   0.909
62542W        W32357  18.644  29.117   3.777
62543W        W32358  11.764  22.069  10.893
62544W        W32359  31.583  41.981   2.377
62545W        W32360  35.504  42.410  12.012
62546W        W32361  35.472   6.737   4.709
62547W        W32362  12.165  31.492  13.961
62548W        W32363   6.320  38.444   1.292
62549W        W32364  23.717   0.288  14.301
62550W        W32365  36.009  32.142  14.001
62551W        W32366   2.386   2.879   1.374
62552W        W32367  17.144  42.825   1.702
62553W        W32368  12.160  26.092   4.178
62554W        W32369   1.834   4.943   0.294
62555W        W32370  43.446  13.135   4.791
62556W        W32371  27.462  12.744   4.612
62557W        W32372  10.205  20.181  11.872
62558W        W32373  27.606  11.694  12.408
62559W        W32374   3.295  36.348  13.371
62560W        W32375  26.506  22.166   1.831
62561W        W32376  32.019  42.775  14.021
62562W        W32377   0.746  23.200   4.691
62563W        W32378  15.700  11.741  11.598
62564W        W32379  16.657   0.464   0.767
62565W        W32380  14.124   1.820   1.768
62566W        W32381  10.185  15.276   2.192
62567W        W32382  21.141  44.433  12.393
62568W        W32383  43.867  44.818   2.872
62569W        W32384  44.504  25.542  14.764
62570W        W32385   3.321  23.060   3.690
62571W        W32386  28.617  23.028  11.090
62572W        W32387  23.146  37.434   5.137
62573W        W32388  13.645  35.922   0.404
62574W        W32389   1.793  43.924  11.044
62575W        W32390  24.690  42.504   2.401
62576W        W32391   4.394   7.734  12.852
62577W        W32392   4.726   1.886   2.837
62578W        W32393  41.841  11.136   2.818
62579W        W32394  33.986  44.755  14.973
62580W        W32395   5.705  43.005  13.920
62581W        W32396  35.061   5.920   4.157
62582W        W32397   0.899  19.283  10.586
62583W        W32398  39.000  28.034   2.297
62584W        W32399  20.723  10.691   0.902
62585W        W32400  22.245   2.341  15.000
62586W        W32401  31.081  12.174   4.353
62587W        W32402  17.580  36.429  12.053
62588W        W32403   7.900  18.053  13.532
62589W        W32404  35.087  16.204   1.327
62590W        W32405  13.778  26.093   1.266
62591W        W32406   5.703  24.999   2.701
62592W        W32407  30.563  33.557  14.830
62593W        W32408   6.701  39.526  12.487
62594W        W32409  22.204  28.437  10.986
62595W        W32410  36.470  37.034   1.845
62596W        W32411  43.453  44.271   3.764
62597W        W32412  30.437   6.269   1.298
62598W        W32413  16.296  29.534   4.630
62599W        W32414  38.903  30.522  11.453
62600W        W32415  16.623  25.606   1.919
62601W        W32416  14.146  26.100   1.248
62602W        W32417  11.280  44.876   3.867
62603W        W32418  20.128   7.906   1.859
62604W        W32419  33.952   9.734  14.435
62605W        W32420  23.683  38.444  10.966
62606W        W32421  13.316  31.606   4.830
62607W        W32422   8.783  32.069  13.330
62608W        W32423  14.333  20.034   1.739
62609W        W32424  33.020  28.646   1.343
62610W        W32425  44.331  27.112  11.604
62611W        W32426  43.015  31.145   4.739
62612W        W32427  26.504  28.094  11.037
62613W        W32428   6.684  36.857   1.446
62614W        W32429   2.939  13.130  10.500
62615W        W32430  37.862  24.721   3.667
62616W        W32431   1.416  34.528   3.322
62617W        W32432  18.752  16.101  14.424
62618W        W32433  30.476  39.952   3.723
62619W        W32434   5.724  39.037  10.107
62620W        W32435   5.338  37.049   2.183
62621W        W32436  28.575   7.264   4.283
62622W        W32437  33.111  22.585  12.839
62623W        W32438  40.531  29.004  12.551
62624W        W32439  40.326   9.209  11.001
62625W        W32440   9.203  19.147  13.972
62626W        W32441  31.073   6.386  10.133
62627W        W32442  33.117  12.348   2.677
62628W        W32443  40.397  12.184   1.704
62629W        W32444  29.063  28.604   2.353
62630W        W32445  37.427  40.532  11.871
62631W        W32446   2.851  28.492   2.835
62632W        W32447  34.527  14.785  11.911
62633W        W32448  19.271  16.786   1.261
62634W        W32449   6.246  20.126  13.534
62635W        W32450  32.101  11.226  11.044
62636W        W32451  39.827  24.171  13.042
62637W        W32452  39.419  12.661  14.419
62638W        W32453  10.257   2.366  11.991
62639W        W32454  28.525   2.944   2.843
62640W        W32455  13.197   5.399   0.942
62641W        W32456  37.908  21.253  10.601
62642W        W32457  44.327  37.367  13.465
62643W        W32458  38.403  44.302   3.656
62644W        W32459  43.914  11.831  10.514
62645W        W32460   5.345  33.918  14.297
62646W        W32461  26.698  20.523  14.442
62647W        W32462  36.853   1.335  10.427
62648W        W32463   4.812  18.059   0.433
62649W        W32464  23.731  30.040  13.050
62650W        W32465  42.936  15.190  10.636
62651W        W32466  43.357  38.356   3.151
62652W        W32467  13.243  41.384  14.856
62653W        W32468   6.246  35.994  14.453
62654W        W32469  22.087  23.062  13.970
62655W        W32470  43.986  12.259  14.501
62656W        W32471  31.473  40.451   4.307
62657W        W32472  25.198   9.327  10.484
62658W        W32473  14.820  15.311  13.820
62659W        W32474  10.369  22.027   1.813
62660W        W32475  29.593  17.277  13.474
62661W        W32476   8.706  37.086  11.109
62662W        W32477  41.946  11.745   3.175
62663W        W32478  22.068  25.596   1.279
62664W        W32479  15.240  31.614  13.848
62665W        W32480   9.784  35.404   3.219
62666W        W32481  27.984  16.226  13.798
62667W        W32482  31.151  29.555   4.670
62668W        W32483  17.230  35.514   2.335
62669W        W32484   9.647  15.128   1.918
62670W        W32485   3.888  14.791  13.440
62671W        W32486  13.769  15.647  13.467
62672W        W32487  21.744   0.982   1.795
62673W        W32488  38.968  30.975   1.251
62674W        W32489  33.109  34.007   3.321
62675W        W32490  13.844  10.220   3.673
62676W        W32491  26.012  13.809   3.188
62677W        W32492  28.103  31.639   0.909
62678W        W32493  40.799   7.832  13.537
62679W        W32494   7.412   2.776   0.953
62680W        W32495  39.445   1.458   2.883
62681W        W32496   3.897  43.463   4.321
62682W        W32497  26.118   1.351   3.652
62683W        W32498  37.902  43.327   3.779
62684W        W32499  18.205  24.205   0.273
62685W        W32500  25.541  18.742   1.382
62686W        W32501  28.475  14.811   3.312
62687W        W32502  18.658  36.904   4.178
62688W        W32503  37.477  34.371  13.454
62689W        W32504  16.138  21.734  11.069
62690W        W32505  18.101  12.286   2.353
62691W        W32506   2.283   8.837  13.971
62692W        W32507  22.507  20.652  14.849
62693W        W32508  42.492  44.835  11.912
62694W        W32509  31.908  40.526   3.760
62695W        W32510  36.956  40.941   4.641
62696W        W32511  21.514  44.272  11.942
62697W        W32512  34.085   5.344  11.860
62698W        W32513  10.780  21.714  12.063
62699W        W32514  37.518   9.335  14.966
62700W        W32515  39.551  42.845   4.610
62701W        W32516  13.135   9.216   0.441
62702W        W32517  16.615  43.479   0.847
62703W        W32518  39.952  12.123  12.953
62704W        W32519  34.515  10.339  12.478
62705W        W32520  23.050  13.679   0.844
62706W        W32521  39.031  11.828  12.049
62707W        W32522   4.857  27.583   0.900
62708W        W32523   3.442  44.981   4.207
62709W        W32524  39.423  40.823   4.759
62710W        W32525  27.996  19.678   4.693
62711W        W32526  18.261  10.825   3.661
62712W        W32527  21.043   2.296  14.349
62713W        W32528  13.831  23.127   3.667
62714W        W32529   5.773  41.399   1.249
62715W        W32530  10.676  12.163  11.459
62716W        W32531  40.509  38.325   2.399
62717W        W32532   9.770  10.762   3.225
62718W        W32533  28.569  24.698  12.346
62719W        W32534  39.483   2.837  13.429
62720W        W32535  10.344  28.972  11.487
62721W        W32536  21.262  19.581   2.400
62722W        W32537  24.554  18.671   5.281
62723W        W32538  43.377  23.692   3.362
62724W        W32539  30.976  23.704  12.047
62725W        W32540  15.189  13.139   1.821
62726W        W32541   6.283  29.038  12.447
62727W        W32542   3.712  41.918  12.347
62728W        W32543  27.628  11.256  14.402
62729W        W32544  42.887  43.815   1.777
62730W        W32545  43.022   9.349   0.327
62731W        W32546  23.722  36.062   2.767
62732W        W32547  34.390   9.298   4.657
62733W        W32548  38.559   5.819  11.532
62734W        W32549  43.986  23.091   3.358
62735W        W32550   5.722  33.049  10.982
62736W        W32551  10.739  42.882   2.833
62737W        W32552  20.589  31.639  11.426
62738W        W32553  10.328   7.807  11.379
62739W        W32554   2.728  38.023   4.633
62740W        W32555  34.979  15.706   0.346
62741W        W32556  37.399  16.778  11.419
62742W        W32557  25.119   1.806   4.151
62743W        W32558  22.107  42.482   0.751
62744W        W32559  33.570  33.524   3.156
62745W        W32560  31.604  13.127   4.313
62746W        W32561  44.980   0.850   1.295
62747W        W32562  12.777  18.780   2.701
62748W        W32563  43.984  12.659   4.642
62749W        W32564  39.537  14.828   0.806
62750W        W32565  23.096   4.899   0.925
62751W        W32566  22.571  18.681   5.160
62752W        W32567   1.829  36.093  11.028
62753W        W32568   7.853  29.438   4.669
62754W        W32569  36.442  21.694   4.828
62755W        W32570   8.738  13.633   2.362
62756W        W32571  41.956  17.295   3.191
62757W        W32572   4.444  44.956   4.803
62758W        W32573  17.590  22.557  13.516
62759W        W32574   5.843  38.351  14.341
62760W        W32575  43.869  42.345  11.988
62761W        W32576   3.387   1.335  13.913
62762W        W32577   1.823  23.081   0.422
62763W        W32578  26.665  11.814  12.825
62764W        W32579   3.860  21.641  12.510
62765W        W32580  24.082  10.816  13.361
62766W        W32581  21.524  24.525  11.073
62767W        W32582  42.920  25.171   0.398
62768W        W32583  34.552   1.340   0.946
62769W        W32584   2.384  36.086   0.397
62770W        W32585  11.188  39.981   3.330
62771W        W32586  34.433  36.522  11.088
62772W        W32587  14.605  11.795   4.761
62773W        W32588  20.221  20.266  12.368
62774W        W32589  12.339  16.267  11.048
62775W        W32590   6.888   5.735   0.380
62776W        W32591   0.744  38.516  12.854
62777W        W32592  15.692  35.102   5.091
62778W        W32593  38.035  14.659  13.840
62779W        W32594  33.408   3.461   1.765
62780W        W32595  10.695  15.310   0.336
62781W        W32596   0.408  42.838   4.757
62782W        W32597  36.554   2.313  11.490
62783W        W32598  27.632  32.505   1.753
62784W        W32599  26.083  34.409   0.809
62785W        W32600   2.731   2.905  12.038
62786W        W32601  30.114  40.888  14.829
62787W        W32602  26.042  30.542   3.759
62788W        W32603  39.521  30.151  10.634
62789W        W32604  19.149   5.373  14.306
62790W        W32605  12.649  42.496   2.276
62791W        W32606  19.633  25.129   4.737
62792W        W32607  20.199  43.823   3.734
62793W        W32608  24.569  16.785  14.413
62794W        W32609  27.487  37.926  14.021
62795W        W32610  27.949  15.603  14.979
62796W        W32611  27.554  27.057  12.418
62797W        W32612  38.895  15.636  10.136
62798W        W32613  44.968  17.195  13.969
62799W        W32614  39.364  27.638  14.883
62800W        W32615  30.948  40.457  12.091
62801W        W32616   1.322  24.102  12.923
62802W        W32617  15.262  13.282   1.279
62803W        W32618  27.074  18.190  13.315
62804W        W32619   9.865  40.026   2.368
62805W        W32620  10.641  42.489   1.250
62806W        W32621  16.810  27.077   0.745
62807W        W32622  27.566  30.554  12.965
62808W        W32623  13.769   6.354   1.806
62809W        W32624  33.499  19.143  11.991
62810W        W32625  27.096  32.523   0.476
62811W        W32626  23.011  12.213  11.488
62812W        W32627  28.998   6.747   0.753
62813W        W32628  14.334   1.848   4.669
62814W        W32629  20.154  19.558  14.791
62815W        W32630   5.355  18.642  12.944
62816W        W32631  10.784  30.158   0.251
62817W        W32632  39.476  18.062   5.284
62818W        W32633   6.866   9.810   4.303
62819W        W32634  13.694  41.941   3.723
62820W        W32635  42.910   8.341  11.874
62821W        W32636  17.641  14.744  13.346
62822W        W32637  14.730  18.142   1.769
62823W        W32638  31.504  32.495  10.996
62824W        W32639  22.532  37.920  14.406
62825W        W32640  24.724  16.153   0.965
62826W        W32641  20.727  16.240  10.985
62827W        W32642  20.232   6.777   4.729
62828W        W32643  34.610  44.412  11.582
62829W        W32644  19.201  15.749  13.831
62830W        W32645  21.569   8.397   0.862
62831W        W32646  39.002  10.813   3.650
62832W        W32647  23.002  12.723  12.439
62833W        W32648  22.179  44.776  13.054
62834W        W32649  28.003   8.837  12.080
62835W        W32650   7.276  29.597   4.239
62836W        W32651  26.026  24.646  10.620
62837W        W32652  20.561  37.399  14.376
62838W        W32653  17.176  29.612   2.857
62839W        W32654  30.943  38.384  11.863
62840W        W32655  21.541  42.971  14.359
62841W        W32656  27.550  10.348   2.199
62842W        W32657  14.701  37.379  11.059
62843W        W32658  32.973  41.980  10.574
62844W        W32659  22.575  16.303   1.263
62845W        W32660  30.064  27.082  10.583
62846W        W32661   4.306  19.163  14.899
62847W        W32662  29.167  33.485  14.504
62848W        W32663  20.640   4.923  12.545
62849W        W32664  20.152  35.012  12.503
62850W        W32665  24.183  16.265  10.902
62851W        W32666  17.162  43.860   4.661
62852W        W32667  44.967  30.137  10.464
62853W        W32668  12.838   1.340  13.364
62854W        W32669  30.568  41.524   3.273
62855W        W32670  30.993  41.364   1.239
62856W        W32671  15.621  32.924   0.460
62857W        W32672  17.285   7.196   4.344
62858W        W32673  15.745  29.639   3.181
62859W        W32674   1.825  12.146  11.511
62860W        W32675  35.017  22.553   5.128
62861W        W32676   0.368  10.675  10.625
62862W        W32677  22.064  11.765   1.279
62863W        W32678   9.173  38.524  12.340
62864W        W32679  36.410  23.732   1.233
62865W        W32680  20.112  34.083  11.966
62866W        W32681  26.046  20.647   2.182
62867W        W32682  10.687  27.957  14.828
62868W        W32683  35.524  44.871  11.563
62869W        W32684  44.498   5.313   2.225
62870W        W32685   9.218  27.002   1.717
62871W        W32686  25.105  17.240   2.803
62872W        W32687  16.643  43.451  12.924
62873W        W32688   1.887   2.899  12.864
62874W        W32689  42.999  23.629  13.432
62875W        W32690   5.769   9.816  13.790
62876W        W32691  12.362  21.114   0.913
62877W        W32692  34.487  34.064   3.224
62878W        W32693  30.088  12.140   4.153
62879W        W32694  23.733  42.897  14.857
62880W        W32695   6.682   4.220  14.312
62881W        W32696  37.495  27.127  10.929
62882W        W32697   6.223  26.549  11.518
62883W        W32698  35.452   8.808   4.233
62884W        W32699   7.846  33.964  12.460
62885W        W32700   6.245  22.525   0.727
62886W        W32701  38.956   9.303   4.666
62887W        W32702  42.516  10.669   4.638
62888W        W32703  33.434  20.263   4.702
62889W        W32704  13.647  36.353   1.342
62890W        W32705  25.158   7.895   1.367
62891W        W32706   1.783  29.577   0.903
62892W        W32707  21.132  26.650  14.497
62893W        W32708  42.973  20.133   3.304
62894W        W32709   6.269  27.141   2.334
62895W        W32710  29.010  42.838   3.369
62896W        W32711  24.092  27.162   3.210
62897W        W32712  39.317  29.995  12.995
62898W        W32713   8.272  18.249  12.457
62899W        W32714  23.557  25.990   4.250
62900W        W32715  24.040  22.549   1.292
62901W        W32716   6.729  33.463  12.971
62902W        W32717  10.878   7.695  13.808
62903W        W32718  24.626  23.576  12.346
62904W        W32719  28.666   7.679  14.478
62905W        W32720  16.633  14.304  10.585
62906W        W32721  38.848  38.965  11.023
62907W        W32722  44.797  32.426   2.339
62908W        W32723   2.374  14.175  14.792
62909W        W32724  24.977   6.221  14.398
62910W        W32725  10.312  34.382   1.868
62911W        W32726  31.645   7.854   2.416
62912W        W32727  36.901   2.792   4.631
62913W        W32728  19.546  33.495   3.677
62914W        W32729  16.318  23.160   2.406
62915W        W32730   3.900  16.235   2.301
62916W        W32731  24.717  30.946  11.471
62917W        W32732  43.288  12.294   4.605
62918W        W32733  37.360   6.682   3.690
62919W        W32734   1.976   2.824   4.339
62920W        W32735  39.020  13.168   1.433
62921W        W32736  15.684  26.064   3.718
62922W        W32737  14.228  24.510   1.339
62923W        W32738  36.509  12.139   3.774
62924W        W32739  33.422  22.572   1.869
62925W        W32740  10.198  12.840  13.382
62926W        W32741  42.951  42.488  14.308
62927W        W32742  12.119  13.216  12.919
62928W        W32743  21.168  36.525   4.145
62929W        W32744  13.221  23.215   1.732
62930W        W32745   4.276   8.196  11.883
62931W        W32746  12.730  12.304  14.888
62932W        W32747   6.842  29.585  13.904
62933W        W32748   6.859  25.481  14.869
62934W        W32749   9.369  37.348  12.005
62935W        W32750  38.883  13.305  11.029
62936W        W32751  16.758  42.828   0.929
62937W        W32752   0.453  16.699  12.432
62938W        W32753  26.631  28.477   0.459
62939W        W32754  16.722  42.414  13.322
62940W        W32755   7.866  10.820   1.719
62941W        W32756  37.466   0.961   0.878
62942W        W32757  19.225  27.600  12.017
62943W        W32758  12.845   1.379  12.355
62944W        W32759  37.944  28.942  12.951
62945W        W32760  38.930  40.531  13.414
62946W        W32761   7.343  41.424  11.468
62947W        W32762  26.148  21.249   1.794
62948W        W32763  23.533  18.060   4.248
62949W        W32764  26.682  34.935   3.357
62950W        W32765   5.383   1.843  11.884
62951W        W32766  40.979  12.660  14.887
62952W        W32767  33.972  18.743  11.396
62953W        W32768  35.895  22.221   0.343
62954W        W32769  33.521   4.741  14.334
62955W        W32770  43.296  12.186  11.538
62956W        W32771   9.361   1.471  11.486
62957W        W32772  42.821  12.616  14.304
62958W        W32773   4.244  22.576  12.002
62959W        W32774  27.003  23.054   0.330
62960W        W32775  44.799  16.795   4.830
62961W        W32776  24.008  32.901   3.385
62962W        W32777   9.861  42.783  13.004
62963W        W32778  36.352  38.970   0.793
62964W        W32779  28.669  44.884  13.959
62965W        W32780  30.130  33.381   2.279
62966W        W32781  15.250  34.952   1.321
62967W        W32782  10.362  32.602   0.735
62968W        W32783  21.189  29.507  10.451
62969W        W32784  23.190  22.520  13.021
62970W        W32785  17.192   6.317   0.367
62971W        W32786   5.834   2.306   4.700
62972W        W32787  14.303  40.848  12.920
62973W        W32788  43.508  16.614   0.455
62974W        W32789  12.272  18.568   1.384
62975W        W32790  17.775  19.738  14.964
62976W        W32791  12.148  37.862   2.279
62977W        W32792   9.797  38.931   4.835
62978W        W32793  30.146  38.565   3.812
62979W        W32794  29.595   9.161  14.438
62980W        W32795  20.616   2.279  11.495
62981W        W32796  32.093  35.537  13.973
62982W        W32797   1.905  42.018  11.015
62983W        W32798  40.410  41.472   2.705
62984W        W32799  11.822  19.109   3.240
62985W        W32800  39.497   3.304   4.300
62986W        W32801   4.774  22.246  13.057
62987W        W32802  41.464   1.329   1.869
62988W        W32803  24.125  10.220   5.121
62989W        W32804  13.700  37.880   4.763
62990W        W32805  44.427   3.324  11.081
62991W        W32806  22.118  43.930   9.925
62992W        W32807  33.475  16.283   0.942
62993W        W32808  15.294   0.411   1.695
62994W        W32809  20.049  42.491  13.379
62995W        W32810   7.342  44.764   2.869
62996W        W32811  32.442  40.465  12.542
62997W        W32812   3.871  28.478  10.613
62998W        W32813  42.370  24.725  14.788
62999W        W32814  26.640  35.403  10.600
63000W        W32815  19.257  43.842   9.649
63001W        W32816   1.849  31.996   2.264
63002W        W32817  41.337   2.236  14.996
63003W        W32818  19.136  36.086  12.556
63004W        W32819   6.694  20.227   3.651
63005W        W32820  27.591   2.944   1.753
63006W        W32821  26.963   3.427  11.450
63007W        W32822  42.941  34.897  14.012
63008W        W32823  20.248   7.359   0.273
63009W        W32824  43.771  36.447  13.536
63010W        W32825  19.588  26.617  13.891
63011W        W32826  29.502  28.131  11.557
63012W        W32827  41.515   1.877   3.825
63013W        W32828  38.468  10.188   3.274
63014W        W32829  30.430  30.002   3.672
63015W        W32830   2.819   5.783   2.809
63016W        W32831  26.152  39.452  14.386
63017W        W32832  38.048  31.900   5.629
63018W        W32833  39.411  24.597  13.037
63019W        W32834  22.560   4.934   1.775
63020W        W32835  33.439   8.838  10.959
63021W        W32836  31.970  21.076   4.259
63022W        W32837  23.151   6.714   1.860
63023W        W32838  38.518  17.653  13.824
63024W        W32839   2.295  29.947   3.375
63025W        W32840   2.748  26.470   4.168
63026W        W32841   2.288  14.159  11.386
63027W        W32842  37.013   1.383   3.775
63028W        W32843  14.246  40.344  13.455
63029W        W32844  21.723  24.209   2.282
63030W        W32845   7.777  26.701  10.566
63031W        W32846  30.441   1.450  10.423
63032W        W32847   2.372  44.885  14.839
63033W        W32848   4.755  31.490  13.801
63034W        W32849  33.504  28.087  14.028
63035W        W32850  37.529  18.090   0.468
63036W        W32851  19.551  21.666  14.907
63037W        W32852  31.967  35.876   4.615
63038W        W32853  36.019  19.727   4.598
63039W        W32854  17.686  44.986   3.306
63040W        W32855  18.196  11.818   3.230
63041W        W32856  21.258  10.286   2.245
63042W        W32857   0.981  24.216  10.933
63043W        W32858  35.074  10.859   3.764
63044W        W32859  11.812  25.096   5.127
63045W        W32860   0.782   2.869   1.296
63046W        W32861   7.797  38.889  12.018
63047W        W32862  18.204  15.236  13.858
63048W        W32863  35.460   3.735   0.914
63049W        W32864  18.141   1.248   3.200
63050W        W32865  28.024  31.938   2.416
63051W        W32866  33.557  35.080   1.233
63052W        W32867   7.875  40.810   4.611
63053W        W32868   1.844  31.436  11.979
63054W        W32869  42.006  44.913   2.663
63055W        W32870  15.198  40.326  10.572
63056W        W32871  24.973  25.534   1.759
63057W        W32872  41.036  20.551   4.284
63058W        W32873  36.005  12.305  10.505
63059W        W32874  11.632  22.110   0.299
63060W        W32875  41.334   7.239  11.067
63061W        W32876  21.119   7.733   0.420
63062W        W32877   6.254  26.457   2.406
63063W        W32878   4.435  10.761  11.574
63064W        W32879  39.973   7.336  13.807
63065W        W32880   3.429  18.131  11.388
63066W        W32881  21.191  17.697   3.718
63067W        W32882  25.708  18.597   4.675
63068W        W32883  42.287  22.050  14.453
63069W        W32884  26.054  17.635  12.572
63070W        W32885  39.472  27.550   3.375
63071W        W32886   6.786  17.723   2.729
63072W        W32887  22.514  43.295  13.515
63073W        W32888  10.875  31.008   1.357
63074W        W32889  27.126  37.015  14.485
63075W        W32890  13.745  27.945   1.373
63076W        W32891  11.161  43.911   1.759
63077W        W32892  10.255   0.274  10.960
63078W        W32893  15.184  33.082  12.927
63079W        W32894  24.210  24.094   1.401
63080W        W32895   3.771  26.001   2.842
63081W        W32896  12.132  33.456   2.723
63082W        W32897  28.680  31.071   3.329
63083W        W32898  10.356   7.872  14.803
63084W        W32899   5.872  21.511   0.894
63085W        W32900   4.752   5.243   4.626
63086W        W32901   7.332  25.657   4.723
63087W        W32902  31.935  13.256  13.444
63088W        W32903   2.256  39.981   4.123
63089W        W32904   7.871  26.094  11.026
63090W        W32905  24.505  44.810  13.818
63091W        W32906  26.687  29.642  12.910
63092W        W32907  38.050  34.487  13.951
63093W        W32908  29.159  20.568  10.949
63094W        W32909  27.557  23.149  10.444
63095W        W32910   7.837   6.414  10.409
63096W        W32911  12.714  38.864  14.495
63097W        W32912  40.049   9.173   1.889
63098W        W32913  32.567  25.066  14.282
63099W        W32914  41.378  38.996   2.293
63100W        W32915  27.085  40.508  14.975
63101W        W32916   4.241  36.445   4.134
63102W        W32917  25.674  39.428  11.041
63103W        W32918  18.132  44.467  11.967
63104W        W32919  35.463   0.424  12.887
63105W        W32920  35.528  41.439  12.051
63106W        W32921  34.515   0.336  10.580
63107W        W32922  26.098  14.123   3.211
63108W        W32923  28.174   0.355   2.288
63109W        W32924  23.526  14.792   2.696
63110W        W32925  20.169  40.966   4.287
63111W        W32926  40.413   6.185  13.915
63112W        W32927  33.929  37.452   2.330
63113W        W32928  13.120  44.496   4.214
63114W        W32929   3.317  41.425   0.349
63115W        W32930   2.916   0.786   4.203
63116W        W32931  41.974  10.647  14.803
63117W        W32932  36.065  30.517  14.769
63118W        W32933  21.098   6.313  11.009
63119W        W32934  23.574  27.112  11.006
63120W        W32935  44.293  18.217  10.159
63121W        W32936  35.017  44.934   2.852
63122W        W32937  14.709  40.844   4.729
63123W        W32938  31.036   3.458  13.528
63124W        W32939  27.030  35.564  11.598
63125W        W32940  15.695  28.671  12.950
63126W        W32941  38.002  44.872   4.226
63127W        W32942  19.111   8.303   3.759
63128W        W32943  31.142  15.094  13.942
63129W        W32944   0.402  20.610  13.909
63130W        W32945  39.553  41.006  11.884
63131W        W32946  41.967  42.521   3.193
63132W        W32947  37.354  15.636  11.501
63133W        W32948  37.833  23.608   0.461
63134W        W32949   4.375  10.842  10.456
63135W        W32950  39.969  13.106   2.848
63136W        W32951   9.296  37.515   9.971
63137W        W32952  30.528  23.609  10.426
63138W        W32953  13.107  20.765  10.613
63139W        W32954  28.954  23.032   2.380
63140W        W32955  19.573  22.197   4.784
63141W        W32956   8.768  42.324  14.436
63142W        W32957  25.562   3.434  12.083
63143W        W32958   6.693   0.760  14.471
63144W        W32959   1.455  17.668  12.026
63145W        W32960   5.229  24.633  13.860
63146W        W32961  40.819  31.435  11.074
63147W        W32962  17.629  30.149   3.808
63148W        W32963  24.704  11.706  11.949
63149W        W32964  31.049   6.335  11.935
63150W        W32965  36.516  38.387  12.422
63151W        W32966  41.926  26.136   4.237
63152W        W32967  23.697  44.770  13.020
63153W        W32968  40.426  14.339  11.551
63154W        W32969  21.119  32.519   2.377
63155W        W32970  31.566  25.154  13.503
63156W        W32971  33.392  10.832   2.816
63157W        W32972   4.369  30.093   1.761
63158W        W32973  14.210   5.727   4.316
63159W        W32974  19.735  38.532  12.875
63160W        W32975   9.846  15.663   4.663
63161W        W32976  12.817  39.526  14.910
63162W        W32977  11.339  35.011  14.334
63163W        W32978   0.445  44.978  10.964
63164W        W32979  38.552  17.728   4.155
63165W        W32980  11.330  41.366  11.869
63166W        W32981  18.782  12.154  11.909
63167W        W32982  38.992  20.741  12.577
63168W        W32983  27.495  27.463  13.367
63169W        W32984  34.530  37.059  14.024
63170W        W32985  36.499  30.462   4.147
63171W        W32986  38.410  38.005  12.857
63172W        W32987  37.537  25.983   0.895
63173W        W32988   5.781  22.656  12.007
63174W        W32989  29.591  18.123  12.555
63175W        W32990  31.927  39.037   4.133
63176W        W32991   8.294  35.921   4.699
63177W        W32992   0.392  37.504  14.888
63178W        W32993  18.267  41.433  14.866
63179W        W32994  17.267  32.626   0.331
63180W        W32995  15.770  16.752   2.409
63181W        W32996   7.794  15.822  10.144
63182W        W32997  11.349  19.267  12.018
63183W        W32998  39.419  38.841   3.217
63184W        W32999   0.916  41.006  13.403
63185W        W33000  19.742   0.405   2.300
63186W        W33001  23.153  21.151   2.790
63187W        W33002  16.201  31.082  11.933
63188W        W33003  27.131  35.988  14.393
63189W        W33004  32.428  19.250   0.838
63190W        W33005   5.199  29.511  13.472
63191W        W33006   6.288  37.338   0.333
63192W        W33007  44.844  15.201   3.738
63193W        W33008  41.535  16.580  12.375
63194W        W33009   8.749  10.288  12.901
63195W        W33010  42.778  13.818  13.478
63196W        W33011  30.104  38.869  13.900
63197W        W33012  27.495   1.770   0.750
63198W        W33013  42.825  22.042   3.843
63199W        W33014  22.630  19.613   4.676
63200W        W33015  29.945  42.436   0.823
63201W        W33016  14.252   1.745  11.947
63202W        W33017  28.113  15.757   4.347
63203W        W33018  26.203  39.871   0.387
63204W        W33019  12.684   2.229   2.816
63205W        W33020  11.279  38.044  10.611
63206W        W33021  37.896  14.309   5.269
63207W        W33022   8.756  31.108   2.793
63208W        W33023  26.009  23.199   0.347
63209W        W33024  34.103   6.204   2.816
63210W        W33025   2.932  41.839   3.841
63211W        W33026  21.597   8.189   2.252
63212W        W33027  37.842  38.884  14.840
63213W        W33028  31.435  33.379  11.068
63214W        W33029  37.030  31.504  12.377
63215W        W33030  28.641   0.950   1.856
63216W        W33031  42.959  35.490   3.756
63217W        W33032  33.939   1.302  11.513
63218W        W33033  31.413   6.263   3.312
63219W        W33034  16.107  16.316  12.892
63220W        W33035  24.005  12.252   2.902
63221W        W33036  18.549   2.451  11.923
63222W        W33037  43.885  40.528   4.837
63223W        W33038  23.706  11.145   2.822
63224W        W33039  33.523   4.381  11.554
63225W        W33040  13.194  10.707   3.278
63226W        W33041  26.618  36.361   0.326
63227W        W33042   5.300  12.834  14.821
63228W        W33043  27.104  19.677  12.554
63229W        W33044  39.983  44.322  13.351
63230W        W33045  12.617  44.829  13.041
63231W        W33046  13.113  20.164   3.321
63232W        W33047  26.649   1.370   0.881
63233W        W33048  40.918   4.429  14.355
63234W        W33049  10.849  17.115  12.522
63235W        W33050  13.146  38.543  12.558
63236W        W33051  10.751  26.581   2.351
63237W        W33052   0.317   7.853  13.854
63238W        W33053  42.799  38.342   4.674
63239W        W33054  31.061  13.277  10.964
63240W        W33055  39.551  27.044   1.329
63241W        W33056   9.311  19.096  11.111
63242W        W33057  21.071  42.910   3.307
63243W        W33058  25.101  38.536   3.630
63244W        W33059  21.237  41.813   1.854
63245W        W33060  34.948  31.148  12.906
63246W        W33061  28.002  39.353   3.850
63247W        W33062  17.201  37.510   2.882
63248W        W33063  24.020  14.613  11.028
63249W        W33064  15.708   1.731   0.856
63250W        W33065  27.494  37.443  13.353
63251W        W33066  44.337  25.576   0.890
63252W        W33067  19.264  21.536   3.217
63253W        W33068   7.354  41.006   5.138
63254W        W33069  44.385  26.656  11.883
63255W        W33070  10.305  37.947  11.093
63256W        W33071  40.390  40.456   1.329
63257W        W33072  15.770  22.169   3.781
63258W        W33073   2.773  14.186   0.773
63259W        W33074  19.736  25.077   1.288
63260W        W33075   5.856  43.926   2.808
63261W        W33076   7.321  39.462   2.866
63262W        W33077   8.697  29.444  13.884
63263W        W33078  13.148  39.388   2.292
63264W        W33079  18.565   0.909  12.090
63265W        W33080  32.132  34.569  13.821
63266W        W33081  13.742  15.258  12.364
63267W        W33082  28.186  44.852   0.927
63268W        W33083  32.045  43.873  11.592
63269W        W33084   9.693  24.206  10.999
63270W        W33085  39.393  15.184  11.545
63271W        W33086  19.226   8.795  14.842
63272W        W33087  13.234  15.793   1.758
63273W        W33088  42.828  23.509  12.518
63274W        W33089  31.896  44.941   3.714
63275W        W33090  32.050  32.106   5.258
63276W        W33091  42.306  16.626  13.959
63277W        W33092   9.799  22.704  14.992
63278W        W33093  34.503  34.912  10.940
63279W        W33094  27.464  12.627  11.385
63280W        W33095  13.666  31.057  14.303
63281W        W33096   5.903  14.603   0.775
63282W        W33097  33.890  43.013  14.311
63283W        W33098  30.578   8.240  14.436
63284W        W33099  34.969   7.744   3.212
63285W        W33100  27.615   4.439  10.506
63286W        W33101   1.304  41.950  14.301
63287W        W33102   2.466  34.370   1.380
63288W        W33103  18.658   5.209   3.684
63289W        W33104  26.987  20.604  14.017
63290W        W33105   5.719  32.134   0.290
63291W        W33106  37.565  25.070   2.344
63292W        W33107  31.070  26.166   2.254
63293W        W33108  37.579   4.879  11.415
63294W        W33109   9.314  10.863  14.280
63295W        W33110  13.725   2.947   3.288
63296W        W33111  24.581  44.892   2.212
63297W        W33112  37.570  19.589   0.287
63298W        W33113  16.670   5.854   0.368
63299W        W33114   3.717  23.661   1.747
63300W        W33115  36.078   6.219  12.969
63301W        W33116   3.362  17.117   2.701
63302W        W33117  37.985  42.870  10.011
63303W        W33118  26.109  23.188  12.546
63304W        W33119   4.835  33.572  13.505
63305W        W33120  28.499  21.713  11.910
63306W        W33121  11.750  19.565  12.900
63307W        W33122  33.412   0.834   4.611
63308W        W33123  35.418  32.012  13.024
63309W        W33124  28.487  43.496  12.504
63310W        W33125  24.209  41.346  12.865
63311W        W33126  20.559   7.415  11.592
63312W        W33127  30.092  16.244  13.370
63313W        W33128  33.503  41.522  10.085
63314W        W33129  27.186  43.368  11.017
63315W        W33130   0.859  17.207  12.464
63316W        W33131  22.527  24.094  12.841
63317W        W33132  20.139  15.600   2.791
63318W        W33133  15.196  16.642   0.861
63319W        W33134   8.705  25.633   1.917
63320W        W33135   6.909  11.345   3.638
63321W        W33136  42.021  16.753   1.381
63322W        W33137  19.662   9.788  14.873
63323W        W33138  32.953  16.168  11.610
63324W        W33139  37.433  33.996  13.894
63325W        W33140   0.258  41.791   3.292
63326W        W33141  32.451  12.818   3.870
63327W        W33142   1.899  37.377   0.878
63328W        W33143  14.698   6.800  10.531
63329W        W33144   2.770  18.194   0.915
63330W        W33145  37.572  28.954  14.916
63331W        W33146  12.787   4.931  12.095
63332W        W33147   1.890  36.555  14.491
63333W        W33148   5.389   5.237   4.284
63334W        W33149  15.761   7.378  11.899
63335W        W33150  14.703  33.465   1.839
63336W        W33151  29.079  12.160  11.976
63337W        W33152  23.728  35.520  13.318
63338W        W33153   1.891  42.982   1.414
63339W        W33154   2.314  31.976  14.372
63340W        W33155   9.278  31.957  14.315
63341W        W33156  35.037  41.833   3.213
63342W        W33157  21.516   4.848  11.492
63343W        W33158  14.247  37.969  12.950
63344W        W33159  18.137  35.857   4.679
63345W        W33160   0.841  36.895   1.420
63346W        W33161  12.617  12.292  10.953
63347W        W33162  26.627  11.657  10.945
63348W        W33163   6.287  27.535   1.758
63349W        W33164  31.132  31.571  14.476
63350W        W33165  15.695  42.950   0.924
63351W        W33166   5.312  25.156  13.903
63352W        W33167  16.287  32.566  12.061
63353W        W33168  19.571   2.782   3.647
63354W        W33169  33.988   2.938   0.450
63355W        W33170  31.097   8.702  10.126
63356W        W33171  23.720  15.303  14.418
63357W        W33172  40.848   8.282   5.711
63358W        W33173  26.008  33.499  13.515
63359W        W33174   1.836   6.867   1.249
63360W        W33175  27.647  33.380  10.573
63361W        W33176   3.371  14.708   4.194
63362W        W33177  29.569  22.579   5.276
63363W        W33178  43.841  41.970  11.442
63364W        W33179   4.823  26.639  10.990
63365W        W33180  18.157  13.804  13.011
63366W        W33181  44.847  17.063   2.778
63367W        W33182  12.279  29.666  13.805
63368W        W33183  35.091  23.586   3.700
63369W        W33184  22.199  34.093   2.369
63370W        W33185  30.128  10.240   0.787
63371W        W33186   3.833  26.982   4.161
63372W        W33187  34.395  21.125  14.456
63373W        W33188  18.767   8.806  12.393
63374W        W33189  21.024  39.470   4.693
63375W        W33190  35.917  17.668   2.886
63376W        W33191  30.924  16.591  14.298
63377W        W33192  27.628  30.984  10.429
63378W        W33193   5.345   3.359   2.748
63379W        W33194  23.571   9.192  14.930
63380W        W33195   8.746  21.550   4.135
63381W        W33196  17.642  36.351  11.018
63382W        W33197  41.903  33.423  14.971
63383W        W33198   9.285  28.141   1.388
63384W        W33199  41.799  15.799   4.128
63385W        W33200   2.862  39.037   2.869
63386W        W33201   2.794  34.577  13.012
63387W        W33202  36.911  25.031   2.231
63388W        W33203   5.377  38.861   3.666
63389W        W33204  26.531  19.141  12.005
63390W        W33205  13.694  10.224  13.969
63391W        W33206   7.769  18.295  10.549
63392W        W33207   6.394  34.610  13.480
63393W        W33208   0.473   1.860  11.901
63394W        W33209  23.119  37.396   0.896
63395W        W33210  40.459  23.673  10.458
63396W        W33211  40.002  18.147   2.301
63397W        W33212  16.780  12.126  12.439
63398W        W33213  39.487  17.672   2.419
63399W        W33214  31.977  12.246   2.419
63400W        W33215  42.868   7.897  11.469
63401W        W33216   7.224  15.694  10.930
63402W        W33217  26.964  29.079  10.479
63403W        W33218  40.505   7.695   4.834
63404W        W33219  26.655  10.349   5.638
63405W        W33220  10.797  38.454  11.956
63406W        W33221  29.135  30.069   3.188
63407W        W33222  13.836   6.719   2.825
63408W        W33223  25.509   4.937  14.280
63409W        W33224  15.700  42.913  13.509
63410W        W33225  19.042  16.683   2.889
63411W        W33226  40.451  13.320   2.843
63412W        W33227  41.459  18.252  12.362
63413W        W33228  11.721  42.455   2.195
63414W        W33229  22.518  18.752   1.766
63415W        W33230  29.427  15.244  13.060
63416W        W33231  16.735  38.439  14.411
63417W        W33232   8.835  24.175  11.917
63418W        W33233  41.889  13.217   4.769
63419W        W33234  17.282  11.373   4.281
63420W        W33235  33.435  31.630  12.563
63421W        W33236  21.567  25.528  14.924
63422W        W33237   6.704  25.084  12.958
63423W        W33238   6.402   4.760  11.101
63424W        W33239   8.160  42.859  13.796
63425W        W33240  44.894  39.331   2.900
63426W        W33241  38.508  10.146  13.455
63427W        W33242  10.690  25.116  12.028
63428W        W33243   0.837  12.692   3.340
63429W        W33244  38.867  35.858  13.011
63430W        W33245  33.058   0.359  14.511
63431W        W33246   3.445  28.128   1.418
63432W        W33247  19.179  37.008  12.410
63433W        W33248  26.469   3.723  12.541
63434W        W33249  17.619  36.993   0.307
63435W        W33250  34.409  16.196   0.801
63436W        W33251   1.250   2.850  11.015
63437W        W33252   0.299  29.451   3.259
63438W        W33253  24.630  22.218   4.188
63439W        W33254  29.427  42.355  12.512
63440W        W33255  36.494  19.088   3.291
63441W        W33256  16.597  35.454  11.065
63442W        W33257  32.527  38.943  10.079
63443W        W33258  33.564  36.889  12.562
63444W        W33259  20.208  24.079  12.372
63445W        W33260  25.099  22.073   4.193
63446W        W33261  23.021  13.760  13.882
63447W        W33262   5.309  19.714  12.350
63448W        W33263  40.873  22.213   1.718
63449W        W33264  28.177   6.241   5.295
63450W        W33265   8.274   5.434   1.891
63451W        W33266  34.086  27.010   3.339
63452W        W33267  31.441  19.733   2.668
63453W        W33268   5.853  26.465   3.714
63454W        W33269  12.643  10.654  13.499
63455W        W33270  11.281  23.059  10.989
63456W        W33271  11.678  12.833   5.267
63457W        W33272  41.031  10.264   1.771
63458W        W33273  23.222   9.667  12.870
63459W        W33274   6.721  35.603  10.451
63460W        W33275  37.537  27.990   0.422
63461W        W33276  40.008   2.765   2.267
63462W        W33277  10.642  32.472  10.996
63463W        W33278  23.034  33.402   3.311
63464W        W33279  17.211  11.718  12.556
63465W        W33280  24.587  34.045  12.852
63466W        W33281  34.086  19.054   1.785
63467W        W33282  42.790  18.200   4.664
63468W        W33283  13.777  43.373  13.341
63469W        W33284  10.363  37.458   5.183
63470W        W33285  12.133   9.792  14.963
63471W        W33286  34.527   9.837  10.534
63472W        W33287  40.539   5.348   3.330
63473W        W33288  18.755   0.789   2.746
63474W        W33289  32.046   2.262   1.925
63475W        W33290  30.447  41.811   3.724
63476W        W33291  20.580   0.430   1.425
63477W        W33292  32.102  24.227  14.292
63478W        W33293  38.507  19.683  10.898
63479W        W33294  20.169  24.650  10.585
63480W        W33295  29.634  23.990   2.407
63481W        W33296   5.917   4.312   3.285
63482W        W33297  40.346   6.342   2.721
63483W        W33298  10.183  37.343  11.552
63484W        W33299  16.257  22.136   1.730
63485W        W33300  11.799  18.084   0.834
63486W        W33301  18.723   2.437  13.804
63487W        W33302   1.472  15.231   0.275
63488W        W33303  39.988  18.568   3.694
63489W        W33304  17.592  20.076   0.356
63490W        W33305  30.160  44.367   0.857
63491W        W33306   9.222  44.754  14.398
63492W        W33307   6.698  42.421  13.003
63493W        W33308  17.726   1.874  10.479
63494W        W33309  34.037  16.628   1.844
63495W        W33310  41.400  28.960   2.268
63496W        W33311  11.792  12.331  11.376
63497W        W33312  20.220  42.937   0.751
63498W        W33313  18.776   3.224   1.265
63499W        W33314  39.494  31.104   3.287
63500W        W33315  22.204  28.668  11.856
63501W        W33316  31.040  17.144  13.439
63502W        W33317  28.004   2.355  11.592
63503W        W33318  36.890   2.724  11.921
63504W        W33319  26.164  41.384  12.882
63505W        W33320  31.458  21.092   4.715
63506W        W33321  28.116  20.139  13.879
63507W        W33322  29.022  23.239  14.819
63508W        W33323  39.540   7.337   3.849
63509W        W33324   8.169  26.489  10.594
63510W        W33325  28.499  39.065  12.367
63511W        W33326   3.460  36.393   1.223
63512W        W33327  15.090  31.510   1.233
63513W        W33328  37.467  38.423  12.394
63514W        W33329  28.119  34.563  12.837
63515W        W33330  21.087  28.124  13.317
63516W        W33331  16.141  18.158  12.077
63517W        W33332  28.162  34.870  11.415
63518W        W33333  12.825   6.871  13.050
63519W        W33334  16.763  17.611   3.355
63520W        W33335  39.058  16.217   9.999
63521W        W33336  44.852  26.073  13.381
63522W        W33337  23.082  43.964   2.392
63523W        W33338  17.235  36.455   0.399
63524W        W33339  24.646  32.541  10.920
63525W        W33340  36.402  41.797   3.811
63526W        W33341  32.509  23.090  11.427
63527W        W33342   4.799  33.419   0.952
63528W        W33343  20.267  13.118   1.398
63529W        W33344  14.793   5.247  10.545
63530W        W33345  40.879  20.664   4.679
63531W        W33346  11.158   2.950  13.808
63532W        W33347  12.836  15.119   0.330
63533W        W33348   5.800   3.249  11.109
63534W        W33349  20.700   9.353   4.837
63535W        W33350  27.970   9.856   5.286
63536W        W33351   8.779  30.021  10.642
63537W        W33352   7.799  35.959  11.545
63538W        W33353  39.908  19.597  10.918
63539W        W33354   5.394  38.912  12.903
63540W        W33355  17.075  13.295   2.332
63541W        W33356  32.435   3.768   4.335
63542W        W33357  25.504   5.218  13.800
63543W        W33358  35.950  33.432  12.403
63544W        W33359   1.785  19.065   1.427
63545W        W33360   2.809  23.224   1.355
63546W        W33361  31.094  39.404   3.234
63547W        W33362  23.045  22.693   0.429
63548W        W33363   8.853  43.393  11.474
63549W        W33364   5.430  30.951   3.295
63550W        W33365  18.687   7.795   1.228
63551W        W33366   8.171  22.571  14.841
63552W        W33367  44.504  18.198   3.292
63553W        W33368  14.253  24.222   1.702
63554W        W33369  37.398  41.312   1.730
63555W        W33370  21.600  28.996  11.458
63556W        W33371   2.801  36.027   2.861
63557W        W33372   3.891  37.514   1.414
63558W        W33373  29.651  38.373   1.921
63559W        W33374  25.099  38.359   0.436
63560W        W33375  32.072  16.686   2.301
63561W        W33376  37.481   6.815   3.329
63562W        W33377   8.720  19.090   3.857
63563W        W33378  14.305  42.391   2.317
63564W        W33379  14.134  17.085   5.292
63565W        W33380  32.948  41.999   2.199
63566W        W33381   9.181  16.102   1.869
63567W        W33382   6.357  11.851  13.373
63568W        W33383   8.765  44.462   0.369
63569W        W33384   9.754   7.671  10.610
63570W        W33385  33.415  19.735  10.547
63571W        W33386  24.543  15.173  14.322
63572W        W33387   9.845  16.315   0.769
63573W        W33388  31.049   5.317   1.805
63574W        W33389  25.185   6.730   3.312
63575W        W33390  34.911  38.534  12.091
63576W        W33391  20.253  38.915   4.623
63577W        W33392   7.171  37.084  12.479
63578W        W33393  44.374  27.130  11.123
63579W        W33394   4.437  33.467   0.286
63580W        W33395   9.768   9.879  12.383
63581W        W33396  40.950  26.629   0.284
63582W        W33397   0.794  40.340   3.790
63583W        W33398  38.522  28.451   3.790
63584W        W33399  42.862  44.900   1.696
63585W        W33400   2.910   8.189  11.586
63586W        W33401  40.319  31.600   0.866
63587W        W33402   1.447   1.247   4.791
63588W        W33403   7.252   0.977   0.341
63589W        W33404  22.218  19.215   4.633
63590W        W33405  36.454   4.289  10.947
63591W        W33406  25.989   5.400  14.480
63592W        W33407   4.850   1.929   0.459
63593W        W33408  21.685  27.003  11.372
63594W        W33409  17.300  19.092   1.408
63595W        W33410   1.401  34.598  13.475
63596W        W33411   0.841  27.031   0.431
63597W        W33412  39.449  35.924   2.266
63598W        W33413  26.614   7.349   2.807
63599W        W33414  15.132   5.253  12.420
63600W        W33415  39.430  27.661  10.527
63601W        W33416   2.796   0.333   3.293
63602W        W33417  14.224  16.583   3.630
63603W        W33418   1.389  11.173   1.389
63604W        W33419  10.283  18.093  10.522
63605W        W33420  24.164  34.419   3.782
63606W        W33421  26.522  39.435  13.465
63607W        W33422  14.592  31.412  14.422
63608W        W33423  15.757  31.404  14.391
63609W        W33424   2.951  18.651   0.449
63610W        W33425  24.146  23.995   3.308
63611W        W33426  42.840  30.956  13.443
63612W        W33427  12.307  26.700  12.964
63613W        W33428   4.773  39.410  14.968
63614W        W33429  23.727  28.123  11.607
63615W        W33430  38.998  24.543   0.882
63616W        W33431  37.001   1.430   1.839
63617W        W33432   9.325  24.129  14.475
63618W        W33433  31.526  27.500  13.874
63619W        W33434  37.433  27.079  11.388
63620W        W33435  25.171   4.844  12.895
63621W        W33436  13.166   3.732  14.859
63622W        W33437  11.246  16.090   9.938
63623W        W33438  27.116   2.397   2.902
63624W        W33439  43.932  30.590   2.274
63625W        W33440  17.071   6.756   0.739
63626W        W33441   5.788  28.136  11.547
63627W        W33442  30.607  21.066  10.578
63628W        W33443  24.532  19.159   5.085
63629W        W33444  15.158  36.956  13.012
63630W        W33445   5.262  14.226   1.265
63631W        W33446  27.120  13.256   3.196
63632W        W33447  30.982  14.229   0.466
63633W        W33448   4.858   3.343   3.359
63634W        W33449   8.332  11.265  14.879
63635W        W33450  17.195  19.186   2.232
63636W        W33451  12.828  22.219   0.860
63637W        W33452  13.844  13.124  14.987
63638W        W33453  15.273  36.453  14.804
63639W        W33454  28.476  31.463  10.623
63640W        W33455  34.398   6.707  10.436
63641W        W33456  20.617  33.051   0.807
63642W        W33457   7.180  31.630   3.718
63643W        W33458  26.601  39.953   3.303
63644W        W33459  43.271  32.090   0.939
63645W        W33460  18.577  34.898  13.894
63646W        W33461  43.936  18.550  14.478
63647W        W33462  44.301  14.226  10.011
63648W        W33463  33.495   6.351   0.830
63649W        W33464  18.701  15.156  11.902
63650W        W33465  21.037  27.629   2.784
63651W        W33466  17.671   6.916   1.830
63652W        W33467  36.533  27.585  10.484
63653W        W33468  16.628   4.446   0.758
63654W        W33469  18.204  25.982   0.398
63655W        W33470  31.405  16.188   4.706
63656W        W33471  13.787  17.127  11.993
63657W        W33472  44.874   2.228   1.330
63658W        W33473  10.152   4.226   3.665
63659W        W33474  40.470  34.607   4.600
63660W        W33475  40.362   2.353   4.698
63661W        W33476   5.705  22.220  11.859
63662W        W33477  18.664  10.219  14.828
63663W        W33478  21.727  14.240   1.317
63664W        W33479  22.123  39.514   1.325
63665W        W33480   8.269   5.813  14.881
63666W        W33481  37.408  20.676  11.004
63667W        W33482  15.122   5.806  13.064
63668W        W33483  40.405  23.613   4.671
63669W        W33484   4.399  31.438  13.357
63670W        W33485  34.964   9.239  12.968
63671W        W33486   8.689  44.958   0.275
63672W        W33487  34.464   1.890   0.473
63673W        W33488   8.357  40.893   5.196
63674W        W33489   2.905  43.472  12.877
63675W        W33490  21.074  30.515   5.172
63676W        W33491   7.797  33.612  11.076
63677W        W33492  28.125  12.811   4.706
63678W        W33493   1.283  39.453  14.297
63679W        W33494  12.720  25.579  11.422
63680W        W33495  39.385  16.257  13.486
63681W        W33496   4.405  32.547   2.256
63682W        W33497  20.723  21.715   4.773
63683W        W33498  12.697  32.130   2.261
63684W        W33499  29.438  16.695   2.384
63685W        W33500  37.016   4.744   2.703
63686W        W33501  25.656  13.246  10.456
63687W        W33502  16.787  14.723  11.418
63688W        W33503  31.553   5.303  13.544
63689W        W33504  27.553  36.500  12.406
63690W        W33505  31.976   1.425   3.258
63691W        W33506  29.049  18.058  11.969
63692W        W33507  25.103  42.997   2.792
63693W        W33508  31.609  30.004   1.395
63694W        W33509  16.726  19.123   0.782
63695W        W33510  41.377   8.724   0.858
63696W        W33511  37.921  14.257   2.864
63697W        W33512  36.388  14.107   2.724
63698W        W33513  10.782   5.221  11.603
63699W        W33514  20.258  33.119   4.836
63700W        W33515  40.891   6.326   4.339
63701W        W33516  39.547  41.538   4.662
63702W        W33517  11.309  21.556  12.579
63703W        W33518  13.131   4.940  11.996
63704W        W33519  43.889  25.714  13.020
63705W        W33520  26.667  13.116  10.596
63706W        W33521  44.842   9.293   2.286
63707W        W33522  28.530   4.742   2.288
63708W        W33523  14.728  40.876   3.796
63709W        W33524   7.312  13.260   3.855
63710W        W33525  37.513  21.549   4.682
63711W        W33526  35.082  38.490   3.270
63712W        W33527  32.516  11.138  12.352
63713W        W33528  21.679  25.007   4.759
63714W        W33529  37.556  39.858  10.497
63715W        W33530  23.724  40.927  10.504
63716W        W33531  44.808  41.396   3.740
63717W        W33532  19.223  43.491   4.680
63718W        W33533  13.316  14.743  12.957
63719W        W33534  35.444  17.646   0.466
63720W        W33535   2.827   7.291  11.454
63721W        W33536   1.464  33.027  14.837
63722W        W33537  10.204  27.148  14.839
63723W        W33538  44.401  14.168   2.717
63724W        W33539  14.652  16.294  14.780
63725W        W33540  32.123   4.414   1.430
63726W        W33541  29.526   8.811  11.016
63727W        W33542  40.052  39.933  10.568
63728W        W33543  16.656   0.250  13.938
63729W        W33544  26.673  34.602  12.873
63730W        W33545   6.730  43.358  13.518
63731W        W33546  43.422  41.400  14.474
63732W        W33547  16.143  16.265   2.674
63733W        W33548  22.166  22.030   0.791
63734W        W33549  20.680  27.689   4.244
63735W        W33550  34.063  25.568  12.041
63736W        W33551  33.474  44.327  11.047
63737W        W33552  13.666  22.126   2.297
63738W        W33553  29.666  28.532  11.546
63739W        W33554  41.299  18.725  13.011
63740W        W33555  22.524  13.777  11.882
63741W        W33556  31.103  11.373  14.984
63742W        W33557  39.934   4.919  11.037
63743W        W33558   3.728  34.092   3.236
63744W        W33559   1.421  29.934   4.723
63745W        W33560  18.051   4.368   3.720
63746W        W33561   5.905  11.280   3.730
63747W        W33562  40.799   3.295  13.527
63748W        W33563   0.430  43.441  10.994
63749W        W33564   9.887  35.573   1.235
63750W        W33565  44.973  29.613   0.790
63751W        W33566  44.767  18.771   0.423
63752W        W33567  32.530  36.385   3.729
63753W        W33568  37.579  35.357  12.379
63754W        W33569  19.746  11.775  10.929
63755W        W33570  43.306  23.594  11.010
63756W        W33571  37.915  24.102  10.939
63757W        W33572  12.316  28.579   2.682
63758W        W33573   1.266  22.681   0.821
63759W        W33574  44.303   8.373  12.988
63760W        W33575  38.844   8.309   5.737
63761W        W33576  23.062   3.263   0.430
63762W        W33577  27.535  23.569   2.666
63763W        W33578  39.315  21.677   2.263
63764W        W33579  13.143  36.437   0.806
63765W        W33580  36.871  33.557  13.521
63766W        W33581  39.430  17.222  10.985
63767W        W33582   5.425  23.682  12.008
63768W        W33583   6.409  17.746  11.416
63769W        W33584  13.690  14.824   1.913
63770W        W33585   7.690   5.305   1.934
63771W        W33586  39.527  18.114   3.264
63772W        W33587   3.788  37.081   1.246
63773W        W33588  31.025  10.377   1.388
63774W        W33589   0.388  11.817  11.421
63775W        W33590   9.268  36.505  10.430
63776W        W33591  10.726  26.076  12.943
63777W        W33592  20.266  40.942   1.810
63778W        W33593  40.797  24.230   2.716
63779W        W33594   6.861   9.275  12.096
63780W        W33595   9.208   8.209  10.541
63781W        W33596  22.021   5.345  13.792
63782W        W33597  20.641  12.652  12.978
63783W        W33598  14.277  13.811  14.914
63784W        W33599  15.133  32.913   2.762
63785W        W33600   4.274  38.474   2.687
63786W        W33601  33.515  39.417  13.813
63787W        W33602  43.818  11.315   4.623
63788W        W33603   8.283  26.593   0.919
63789W        W33604   2.442  25.002  11.523
63790W        W33605   5.428  36.926   1.369
63791W        W33606   2.231  15.776  10.109
63792W        W33607  39.463  11.721  12.450
63793W        W33608  31.982  22.219  14.798
63794W        W33609  18.747   2.296   0.901
63795W        W33610  13.692  37.459   0.294
63796W        W33611  39.908   1.468   3.235
63797W        W33612  35.071  39.381   1.740
63798W        W33613   1.906  18.788   2.756
63799W        W33614  28.127  24.486   1.268
63800W        W33615  16.095   9.281  12.393
63801W        W33616   4.914  19.590  14.814
63802W        W33617  34.008  14.281   4.306
63803W        W33618  13.174  33.914   0.885
63804W        W33619  37.521  42.421  13.013
63805W        W33620  27.169  27.984   1.864
63806W        W33621   9.865  11.255  14.967
63807W        W33622  22.576  22.006  11.070
63808W        W33623  11.285  29.134  11.016
63809W        W33624  42.293   9.839   4.598
63810W        W33625   4.276  41.825   2.185
63811W        W33626   1.877   8.737   3.791
63812W        W33627  21.255  29.155  13.531
63813W        W33628  16.791  32.529  10.927
63814W        W33629  10.680  35.035   3.848
63815W        W33630  35.556  16.130   0.343
63816W        W33631  23.709  35.378  14.354
63817W        W33632  16.304  27.984  13.040
63818W        W33633  43.862  33.953   0.746
63819W        W33634   8.719  17.234   1.860
63820W        W33635   9.711  38.468   3.774
63821W        W33636  33.040  18.784  11.583
63822W        W33637  17.610   1.731  12.054
63823W        W33638   1.288  25.134   3.357
63824W        W33639  29.443  43.774  12.406
63825W        W33640  23.669   4.777  10.606
63826W        W33641   7.881  20.257   3.233
63827W        W33642  18.091   6.795  14.961
63828W        W33643  25.154  33.032  12.897
63829W        W33644  41.883  35.986   1.852
63830W        W33645   7.225  34.584  14.402
63831W        W33646  17.654  38.998  14.945
63832W        W33647  15.810  32.921   3.738
63833W        W33648  13.764  32.077  14.878
63834W        W33649  17.789   2.456   0.958
63835W        W33650  16.141  25.219  11.458
63836W        W33651  21.054  40.949   3.742
63837W        W33652  40.483   3.333   4.141
63838W        W33653  13.627  29.473  11.051
63839W        W33654  32.890  43.391   0.885
63840W        W33655  24.585  14.235  13.807
63841W        W33656  10.731  20.723   4.666
63842W        W33657  44.931  12.692   1.377
63843W        W33658   7.186  38.563   1.722
63844W        W33659   8.339  36.553   4.713
63845W        W33660  41.488  11.728   3.763
63846W        W33661  43.293  20.149  12.945
63847W        W33662   1.438   0.365  12.008
63848W        W33663   0.405   7.879   0.945
63849W        W33664  28.664  26.148  14.973
63850W        W33665  24.526  21.529   2.381
63851W        W33666  16.141   2.852   1.313
63852W        W33667  18.766  24.157  13.824
63853W        W33668  41.877  31.001  11.866
63854W        W33669  31.048  36.860   0.262
63855W        W33670  36.845  27.197   3.706
63856W        W33671  34.495  29.070   4.149
63857W        W33672  43.418  21.711   3.688
63858W        W33673  24.519  17.791   4.770
63859W        W33674  32.628  24.087  14.304
63860W        W33675  41.805   8.314  13.462
63861W        W33676  34.411  20.538   4.169
63862W        W33677   0.383  27.187  10.974
63863W        W33678  26.547  16.759  12.868
63864W        W33679  40.429  15.171   2.764
63865W        W33680  33.930  15.110   2.889
63866W        W33681   9.191  34.536  13.477
63867W        W33682   3.908  30.469   1.904
63868W        W33683  22.574  25.209  14.902
63869W        W33684  32.936  39.985  11.101
63870W        W33685  33.108  11.214   3.776
63871W        W33686  14.152  17.763  10.450
63872W        W33687   4.420  16.125  12.007
63873W        W33688  14.330  34.946   4.790
63874W        W33689  21.158  16.760   3.640
63875W        W33690   0.313  24.115   0.426
63876W        W33691  18.696  30.028   0.779
63877W        W33692  24.976  12.293  13.058
63878W        W33693  29.968  23.216   4.698
63879W        W33694   3.363  29.622   4.255
63880W        W33695  37.873  21.539  13.405
63881W        W33696   0.267  31.526  14.976
63882W        W33697   0.804  14.829   0.933
63883W        W33698  40.011  21.239  10.507
63884W        W33699  34.919  40.540   1.708
63885W        W33700  30.578  20.201   0.259
63886W        W33701  30.935  31.049  12.343
63887W        W33702  40.541  27.528   1.850
63888W        W33703  16.589  12.730   0.836
63889W        W33704  38.848  44.369   2.883
63890W        W33705  30.002   3.278  13.527
63891W        W33706   4.261  33.455   3.823
63892W        W33707  26.675  29.633  13.528
63893W        W33708  10.312  40.847  11.570
63894W        W33709   6.348   3.758  12.411
63895W        W33710  39.884  19.184  13.971
63896W        W33711  24.122  27.014   4.616
63897W        W33712  10.309  27.656  13.970
63898W        W33713   6.840   6.219   0.268
63899W        W33714   9.276  28.067  14.940
63900W        W33715  41.425  16.687  13.516
63901W        W33716   6.404  14.829  11.578
63902W        W33717  44.806   7.372  11.868
63903W        W33718  41.496  32.079  13.986
63904W        W33719   3.725  29.019  14.438
63905W        W33720  20.583   6.391  12.371
63906W        W33721  36.425  12.653   2.226
63907W        W33722  33.961  44.965  14.507
63908W        W33723  20.742  20.767  13.959
63909W        W33724  22.647  32.468  11.128
63910W        W33725  30.928   6.677   0.406
63911W        W33726  43.978  35.934   3.197
63912W        W33727  25.977  35.465   4.119
63913W        W33728  26.479  24.600  10.560
63914W        W33729   1.425  25.581  12.828
63915W        W33730  18.593   6.269  14.891
63916W        W33731   4.742  10.381  11.101
63917W        W33732  38.447  40.987  10.989
63918W        W33733  27.147  39.527   4.284
63919W        W33734  23.042  38.869  11.947
63920W        W33735  17.585  17.298   4.250
63921W        W33736   7.248  13.639  10.624
63922W        W33737  17.733  40.326  10.495
63923W        W33738  18.227  28.071  12.062
63924W        W33739  30.592  25.512   0.345
63925W        W33740  23.590  33.609  11.400
63926W        W33741  30.005  12.624   1.730
63927W        W33742   0.915  37.952  11.055
63928W        W33743  34.998  42.480  13.943
63929W        W33744  26.107  33.076   2.386
63930W        W33745  17.737   3.267   3.789
63931W        W33746  39.038  23.711   4.345
63932W        W33747  37.084   5.694   4.620
63933W        W33748   7.215  39.889   4.217
63934W        W33749  22.030  30.045   1.756
63935W        W33750  17.186   1.413   2.297
63936W        W33751  32.121  28.440   4.651
63937W        W33752  38.464  42.835  11.385
63938W        W33753   8.348  31.060   0.945
63939W        W33754  38.914  33.490   4.138
63940W        W33755  15.094  36.561  11.513
63941W        W33756  25.655   8.262   4.129
63942W        W33757  12.323  41.826  14.404
63943W        W33758  42.023   6.912  12.516
63944W        W33759  18.730   0.297  12.829
63945W        W33760  23.092  30.628   4.677
63946W        W33761  32.036  43.515   1.361
63947W        W33762  40.987  14.167   0.252
63948W        W33763  18.216  13.782  14.880
63949W        W33764  26.606  19.257   3.347
63950W        W33765   4.420   9.204  14.796
63951W        W33766  21.694  37.401  12.866
63952W        W33767   0.966  26.976   3.192
63953W        W33768  15.320   8.774   2.679
63954W        W33769  28.181  26.671   4.695
63955W        W33770  22.167  23.499   3.343
63956W        W33771  25.057  13.166  12.493
63957W        W33772  21.137   8.250  11.098
63958W        W33773  12.677  28.622   4.661
63959W        W33774   2.808  40.468   4.712
63960W        W33775  13.742   5.903   4.258
63961W        W33776  22.634  40.805   3.303
63962W        W33777  38.435  37.982  11.951
63963W        W33778  25.114  18.223   1.400
63964W        W33779  17.098  14.782   4.680
63965W        W33780  33.880  16.231   3.166
63966W        W33781   7.827  32.585   3.263
63967W        W33782  12.728  20.529   0.439
63968W        W33783  23.083  39.874  14.977
63969W        W33784  31.626  25.104   0.270
63970W        W33785  41.333  17.620   0.772
63971W        W33786  39.463  43.856  11.417
63972W        W33787  40.918  33.569   4.609
63973W        W33788  10.705   3.758  12.058
63974W        W33789  43.824  44.488   3.360
63975W        W33790  30.988  25.142   1.763
63976W        W33791  23.623  30.551  11.040
63977W        W33792   0.774  21.569   4.634
63978W        W33793  34.452  43.924  13.877
63979W        W33794  43.901   2.281  14.466
63980W        W33795  17.204  32.141  14.501
63981W        W33796  43.347  23.130  12.386
63982W        W33797   7.721   5.267   3.691
63983W        W33798  18.242  14.747  11.559
63984W        W33799  40.430  24.218   1.353
63985W        W33800   5.885  20.120   3.156
63986W        W33801  43.439  15.221   1.405
63987W        W33802  38.031  39.927  14.807
63988W        W33803   5.293  33.413  13.343
63989W        W33804  18.684  26.637  11.926
63990W        W33805  41.981  25.045   2.806
63991W        W33806  15.245  27.157   0.895
63992W        W33807  38.876  35.379   2.239
63993W        W33808  42.935  13.329  12.397
63994W        W33809  32.122   0.298  13.495
63995W        W33810  42.347  10.153  14.476
63996W        W33811  26.197   0.336   0.763
63997W        W33812  42.883  35.561   2.225
63998W        W33813  13.171  26.204   4.780
63999W        W33814  39.923  13.206   3.707
64000W        W33815  21.719  41.954   1.387
64001W        W33816  35.981   9.834  10.589
64002W        W33817  22.509  43.399   3.755
64003W        W33818  24.481  43.866   4.613
64004W        W33819  42.348  39.888   3.310
64005W        W33820  30.143   1.333  11.064
64006W        W33821  34.539   0.387  14.887
64007W        W33822   2.738  35.026  10.990
64008W        W33823  39.485  31.540   0.305
64009W        W33824  42.526  20.125   1.345
64010W        W33825   1.454  36.051   0.764
64011W        W33826  31.925   4.427  12.851
64012W        W33827   3.299  15.596   0.400
64013W        W33828  30.043  24.680  11.004
64014W        W33829  14.315  11.262  14.953
64015W        W33830  10.655   3.843  14.396
64016W        W33831   7.410  21.537  13.348
64017W        W33832  29.045   8.700   0.906
64018W        W33833  16.114   1.779  10.546
64019W        W33834   7.296   8.758   9.951
64020W        W33835  13.252   6.856  14.952
64021W        W33836   9.364  40.400  11.413
64022W        W33837  35.470  13.818   0.841
64023W        W33838  32.537  30.154  13.822
64024W        W33839  44.317  13.113   4.334
64025W        W33840  16.676  31.920   3.754
64026W        W33841  44.381  14.632   3.753
64027W        W33842   6.387   4.323   1.215
64028W        W33843  25.011  31.131   2.672
64029W        W33844  16.761  34.476   1.320
64030W        W33845  38.933  18.294   2.315
64031W        W33846   5.365  41.873  11.568
64032W        W33847   2.316  28.156  12.983
64033W        W33848  37.832  34.908   1.913
64034W        W33849  16.136   3.410   2.359
64035W        W33850  13.749  26.467  12.033
64036W        W33851  34.057  12.360  10.431
64037W        W33852   7.686  17.154  14.439
64038W        W33853  10.167  34.932   0.272
64039W        W33854  33.912  38.400   2.193
64040W        W33855  10.215  43.454  14.983
64041W        W33856  18.081  22.627   1.293
64042W        W33857  31.544   3.408  12.943
64043W        W33858  33.470  32.923  12.476
64044W        W33859  38.839  36.857  14.505
64045W        W33860   2.845  35.369   0.910
64046W        W33861   3.327  42.994  14.507
64047W        W33862   1.836  41.331  13.464
64048W        W33863  19.677   0.371   2.768
64049W        W33864  37.891   0.875   4.663
64050W        W33865   9.365  44.818   1.896
64051W        W33866   9.285  22.618   4.198
64052W        W33867   2.847   6.405  13.947
64053W        W33868  41.862  31.450  11.110
64054W        W33869  23.186  23.579  14.866
64055W        W33870  42.381  19.265  11.966
64056W        W33871  36.424  44.498  10.092
64057W        W33872  24.023  20.653   3.272
64058W        W33873  42.996  25.675  10.482
64059W        W33874  25.529  30.997   2.837
64060W        W33875  17.129  40.945   2.781
64061W        W33876  35.573  23.237  14.925
64062W        W33877  21.552   0.987  11.894
64063W        W33878   4.858  38.021   2.217
64064W        W33879  39.382  21.082  11.000
64065W        W33880  23.556   9.806  13.538
64066W        W33881  44.501  25.973   2.833
64067W        W33882  28.461  38.961   0.373
64068W        W33883  41.427  22.538  14.876
64069W        W33884   7.192  21.577  11.445
64070W        W33885   5.370  11.239   3.216
64071W        W33886  11.345  38.355  10.922
64072W        W33887   1.749  38.377   3.321
64073W        W33888  17.705   9.754  14.857
64074W        W33889  28.001  16.188  13.327
64075W        W33890  14.300  32.087   3.190
64076W        W33891  31.137  19.717   4.255
64077W        W33892   3.948   4.854   4.755
64078W        W33893   0.271  19.660   3.303
64079W        W33894  12.183   6.392  11.061
64080W        W33895  10.714   7.392  11.535
64081W        W33896  26.199  19.220   4.833
64082W        W33897  35.877  10.848  14.302
64083W        W33898  29.512   1.975   3.829
64084W        W33899  17.140  13.204  13.415
64085W        W33900  21.195  38.420  10.939
64086W        W33901  21.197  30.023  13.967
64087W        W33902   7.883  20.747   2.185
64088W        W33903  22.027  22.550  10.645
64089W        W33904  30.538   9.753   0.931
64090W        W33905  24.643  36.041  13.396
64091W        W33906  10.238  27.117   0.948
64092W        W33907  12.307  12.631   0.884
64093W        W33908  30.110   0.958  10.497
64094W        W33909  25.010   0.257  12.996
64095W        W33910  18.601  34.036   0.927
64096W        W33911  39.814  35.576  13.424
64097W        W33912  40.308  28.176  14.292
64098W        W33913  41.295  44.900  14.485
64099W        W33914  15.133   7.372  11.573
64100W        W33915  21.037  19.066   0.856
64101W        W33916  27.951  10.283   4.353
64102W        W33917  25.656  44.437   3.731
64103W        W33918  21.026  30.038  14.422
64104W        W33919  21.182  35.571   4.649
64105W        W33920  17.240   4.944  11.438
64106W        W33921   6.754  38.489  12.382
64107W        W33922  30.427  24.533   2.683
64108W        W33923  32.502  32.478  10.404
64109W        W33924  31.481   1.241   2.306
64110W        W33925  23.577  39.927   3.798
64111W        W33926  10.236  29.563  14.850
64112W        W33927  41.792  41.422   2.762
64113W        W33928  44.926  35.914  13.513
64114W        W33929  38.407  37.992  12.513
64115W        W33930  36.958  12.613   1.907
64116W        W33931  32.938  17.171   2.754
64117W        W33932   3.393  11.688  13.475
64118W        W33933  35.523  17.262   0.259
64119W        W33934  37.441   4.846   2.688
64120W        W33935  32.608   0.841  10.643
64121W        W33936  18.059  21.566  14.431
64122W        W33937  33.109   2.467   2.358
64123W        W33938   0.372  27.665   3.367
64124W        W33939  43.445  42.996  13.897
64125W        W33940  11.718  15.702   0.873
64126W        W33941  42.451  18.605  10.617
64127W        W33942   1.445  10.354   2.243
64128W        W33943  12.822  38.039  10.989
64129W        W33944  37.499  15.105   3.246
64130W        W33945  12.251  25.042   3.337
64131W        W33946  22.694  32.135  13.839
64132W        W33947  12.138  36.566  12.446
64133W        W33948   2.274   3.349   9.986
64134W        W33949  13.801  38.501   1.323
64135W        W33950  40.859  39.371  14.440
64136W        W33951   6.741  14.198  13.338
64137W        W33952  14.621  35.056  14.311
64138W        W33953  12.208  22.112   1.311
64139W        W33954  33.501  42.778   3.378
64140W        W33955  41.833  17.764   3.177
64141W        W33956  34.906  19.733  14.821
64142W        W33957  27.963  16.568  13.484
64143W        W33958   5.318   4.208  14.327
64144W        W33959  35.074  20.670  12.840
64145W        W33960  17.126  41.822   0.309
64146W        W33961  34.402   8.829  12.457
64147W        W33962  14.806  12.824   3.854
64148W        W33963  21.702  28.641  12.946
64149W        W33964  38.497  23.046  11.918
64150W        W33965  27.536   6.182   3.165
64151W        W33966  29.080   4.309   1.739
64152W        W33967  25.498   9.300  14.403
64153W        W33968  14.324  21.555   0.267
64154W        W33969  18.273  27.449   1.718
64155W        W33970  10.294   5.348  14.868
64156W        W33971   1.374  25.053   1.417
64157W        W33972  19.090   6.812   1.852
64158W        W33973   5.769   1.268   1.785
64159W        W33974  44.332  22.699   5.100
64160W        W33975   8.307  19.057   2.284
64161W        W33976  44.475  17.693   1.743
64162W        W33977  24.226  14.334  11.984
64163W        W33978  43.929  41.384  12.436
64164W        W33979   0.432  39.912   1.424
64165W        W33980  38.445  21.058  11.008
64166W        W33981  41.472  34.465   3.851
64167W        W33982  12.678  19.087  10.942
64168W        W33983  24.538  10.371   2.336
64169W        W33984  30.086  30.916   3.299
64170W        W33985   8.283  28.489  14.285
64171W        W33986  30.574   6.921   1.292
64172W        W33987  36.973  43.368  13.827
64173W        W33988  23.585   1.251  13.932
64174W        W33989  11.825  31.508  11.013
64175W        W33990  29.591  16.751  13.027
64176W        W33991  21.699  24.574  13.340
64177W        W33992  28.487  27.692  13.418
64178W        W33993   0.375   8.279  10.912
64179W        W33994  18.629   6.761  10.545
64180W        W33995   0.414  27.654  12.549
64181W        W33996   3.379  19.099   3.704
64182W        W33997   0.473  31.578   0.366
64183W        W33998  28.985   6.820  12.524
64184W        W33999  39.913  12.291  11.896
64185W        W34000  26.615  26.999   4.220
64186W        W34001  37.368   0.769  14.972
64187W        W34002  14.718  22.015   4.732
64188W        W34003  21.633  25.159  12.076
64189W        W34004  43.410   8.660   2.326
64190W        W34005  40.440  19.195   4.270
64191W        W34006  35.874  27.595   1.829
64192W        W34007  42.380  38.991  12.962
64193W        W34008   8.317  26.520   0.391
64194W        W34009  11.191  26.077   1.871
64195W        W34010  29.928  33.031  13.961
64196W        W34011  26.661  11.258  13.417
64197W        W34012  13.190  32.399  13.001
64198W        W34013  17.277  10.170   4.184
64199W        W34014   9.703  42.932   2.849
64200W        W34015   4.709  19.227  13.872
64201W        W34016  28.100  22.724  10.553
64202W        W34017  12.790  38.470  11.113
64203W        W34018  21.649  37.378   2.224
64204W        W34019  19.657  39.393   1.935
64205W        W34020  22.175  41.042   1.909
64206W        W34021  30.655   7.390  10.596
64207W        W34022  24.206  41.391   2.220
64208W        W34023   8.310  14.805  11.877
64209W        W34024  11.682  16.097   0.406
64210W        W34025  26.058  16.646   4.295
64211W        W34026  28.116  27.516   0.801
64212W        W34027  24.504  19.683  14.386
64213W        W34028  14.690  19.743   1.823
64214W        W34029  20.182  35.532   3.803
64215W        W34030  12.807  16.718  13.055
64216W        W34031  39.523  41.427   1.250
64217W        W34032  33.065  23.659   1.773
64218W        W34033  29.427  42.986  14.946
64219W        W34034  18.595  40.469  12.050
64220W        W34035  33.626  13.683   2.192
64221W        W34036   5.880  36.003  14.492
64222W        W34037  15.305  16.747  12.513
64223W        W34038  29.108  18.771  13.960
64224W        W34039  30.583  22.227   3.263
64225W        W34040   8.703   6.750  11.955
64226W        W34041   2.273  22.189   4.741
64227W        W34042  40.499  25.190  12.384
64228W        W34043   2.766  43.809   0.361
64229W        W34044  39.880  19.148  13.485
64230W        W34045   9.697  29.448   2.283
64231W        W34046  31.625   6.281  10.994
64232W        W34047  15.627   6.811  12.872
64233W        W34048  31.912  16.244  14.939
64234W        W34049  42.320  30.524   0.462
64235W        W34050   4.898  16.798   4.342
64236W        W34051   1.803   0.756   1.411
64237W        W34052  22.684  36.893   1.923
64238W        W34053   1.413  31.610   4.675
64239W        W34054   8.346   7.730   4.795
64240W        W34055  37.392  16.759   0.327
64241W        W34056  30.087  10.853  11.425
64242W        W34057   2.939   2.280  14.873
64243W        W34058  12.129  27.088  11.595
64244W        W34059  24.065   6.694   4.205
64245W        W34060   4.804  25.469   2.355
64246W        W34061  37.512  38.843   2.392
64247W        W34062  14.154   8.792  12.946
64248W        W34063  22.527  19.043  13.992
64249W        W34064  17.174  39.901   2.732
64250W        W34065  21.150  30.996   2.343
64251W        W34066  17.605  18.095   0.295
64252W        W34067   6.217  44.464  14.443
64253W        W34068  30.549  32.022  11.392
64254W        W34069   4.699  13.755  14.890
64255W        W34070   7.741  36.545   1.424
64256W        W34071  39.396  17.576  12.006
64257W        W34072  33.585  23.222  12.843
64258W        W34073   1.416   1.354   3.737
64259W        W34074  16.811  44.318   4.118
64260W        W34075  18.154   4.873  11.528
64261W        W34076  21.131  38.407   2.345
64262W        W34077   5.320  32.111   3.634
64263W        W34078  31.415  12.335  14.849
64264W        W34079   5.235  24.025   0.374
64265W        W34080  40.810  35.506  13.879
64266W        W34081  41.879  39.382   2.261
64267W        W34082  39.357   5.828  12.358
64268W        W34083   6.795  24.119   3.212
64269W        W34084  25.667  12.628  13.529
64270W        W34085  34.548  21.260  14.962
64271W        W34086   7.790   8.810  10.432
64272W        W34087  19.202  39.035   4.192
64273W        W34088  11.201   3.308   3.757
64274W        W34089   3.933   6.803  14.032
64275W        W34090  27.137  17.298  13.037
64276W        W34091  19.617  27.625  12.882
64277W        W34092  34.499  37.022   0.411
64278W        W34093  32.454  35.378   1.443
64279W        W34094   5.691  18.067   2.793
64280W        W34095   3.735  29.570   2.394
64281W        W34096  16.671  12.290  10.968
64282W        W34097   3.352  17.176  12.413
64283W        W34098  22.017   1.427   3.347
64284W        W34099  12.298   2.730  14.014
64285W        W34100  43.505  39.444  12.875
64286W        W34101  41.312   7.864  14.450
64287W        W34102  37.014  16.153  11.376
64288W        W34103   8.857  30.012   3.282
64289W        W34104  16.736  44.809  14.024
64290W        W34105  32.139   0.386   3.676
64291W        W34106  42.929   3.423  11.107
64292W        W34107   0.268  16.220  12.932
64293W        W34108  27.148  38.055  14.422
64294W        W34109  10.235  40.517   0.273
64295W        W34110   0.407  24.700   3.210
64296W        W34111  15.593   6.249   3.352
64297W        W34112   6.898   7.881  11.882
64298W        W34113  29.926  30.452   3.356
64299W        W34114  22.209   8.306   1.419
64300W        W34115  25.057  39.810   0.348
64301W        W34116  38.361  16.774  14.807
64302W        W34117  27.133  11.157  10.429
64303W        W34118   6.268  38.061  14.381
64304W        W34119  42.482  38.894   2.250
64305W        W34120  44.445  33.967  12.360
64306W        W34121  38.008  18.227   3.341
64307W        W34122  10.200  15.243   3.191
64308W        W34123  14.176  38.925   1.753
64309W        W34124  33.941  20.228  10.608
64310W        W34125   2.732  27.009   4.331
64311W        W34126  29.035  36.584  13.874
64312W        W34127  26.580  15.686  10.468
64313W        W34128  23.106  16.187  14.779
64314W        W34129   4.804  14.723   1.337
64315W        W34130  32.968  38.866  12.047
64316W        W34131  36.416   7.841  12.004
64317W        W34132  29.161   6.874   0.365
64318W        W34133  11.799   8.899   9.955
64319W        W34134  17.201  23.678  12.869
64320W        W34135  40.431   9.354   3.305
64321W        W34136  41.346   2.956   4.795
64322W        W34137  14.697   1.849  10.634
64323W        W34138  18.104   0.266  12.998
64324W        W34139  29.506  16.272   1.722
64325W        W34140  22.076  41.332  12.546
64326W        W34141  22.201  40.358   4.740
64327W        W34142  16.612  10.638  14.360
64328W        W34143  44.432  44.891   1.725
64329W        W34144   8.224  16.633   3.292
64330W        W34145  19.086  20.552   2.326
64331W        W34146  12.250  11.203  14.339
64332W        W34147  25.065   0.311   0.860
64333W        W34148  17.164  35.095   3.385
64334W        W34149   2.819  35.110   4.646
64335W        W34150   8.698  36.851   3.213
64336W        W34151  31.454  17.631  12.493
64337W        W34152  43.491   7.721   0.727
64338W        W34153  37.430  30.503   0.475
64339W        W34154  38.549  15.650   4.696
64340W        W34155  40.549  21.044  10.137
64341W        W34156   7.310  23.069  11.099
64342W        W34157  43.832  29.997   4.603
64343W        W34158  10.755   2.356  11.106
64344W        W34159  19.184   8.826  13.347
64345W        W34160  22.100  15.661  11.550
64346W        W34161  16.139  10.199  12.528
64347W        W34162  29.969  26.166  12.378
64348W        W34163   4.934  34.097  14.453
64349W        W34164  32.891  23.160  12.054
64350W        W34165   6.313  41.390  11.115
64351W        W34166  25.103  28.120  11.105
64352W        W34167  14.297  14.640  10.462
64353W        W34168  31.550  15.732   3.197
64354W        W34169  21.022  21.529  13.411
64355W        W34170  42.926  29.173   4.792
64356W        W34171   6.703  11.148   2.394
64357W        W34172   2.416  21.213   1.412
64358W        W34173  44.901  21.247  10.912
64359W        W34174  36.850  11.637   3.341
64360W        W34175  41.419  16.085  14.978
64361W        W34176  35.374  26.021   3.672
64362W        W34177  19.750  23.005   4.739
64363W        W34178  44.456  28.019  11.527
64364W        W34179  13.682  30.142   4.252
64365W        W34180  42.784   2.876  13.793
64366W        W34181  18.272  24.530  15.000
64367W        W34182  24.036   7.821   1.854
64368W        W34183  28.046  34.580   3.792
64369W        W34184  20.603  31.403   3.213
64370W        W34185   1.749  24.155  12.830
64371W        W34186   8.171   1.372   0.324
64372W        W34187  40.302  22.007  14.449
64373W        W34188  38.534  14.733   0.778
64374W        W34189   3.755  20.734   0.285
64375W        W34190  11.646  33.609   1.404
64376W        W34191  26.614   8.202  14.950
64377W        W34192   3.373  24.188   5.238
64378W        W34193  20.190   4.836   3.182
64379W        W34194  36.863  27.017  14.275
64380W        W34195  42.006  26.577   5.291
64381W        W34196  11.846  27.194   4.612
64382W        W34197  11.128  20.059   4.623
64383W        W34198  10.786  37.337  14.893
64384W        W34199  38.379  12.117   3.845
64385W        W34200   9.734   9.257   0.771
64386W        W34201  23.595  32.508   4.133
64387W        W34202   3.374   1.349   1.406
64388W        W34203  16.257   0.881   4.808
64389W        W34204  31.073   3.450   5.264
64390W        W34205  33.459  39.910   4.179
64391W        W34206  25.128  20.759  12.922
64392W        W34207  43.000   6.405   2.754
64393W        W34208  15.144  18.548  11.981
64394W        W34209   3.390  35.018   2.381
64395W        W34210   4.372  37.400  13.818
64396W        W34211  18.662  42.449  11.371
64397W        W34212  35.866   3.236   2.366
64398W        W34213  20.213  25.654   3.740
64399W        W34214  42.347   8.279   1.361
64400W        W34215  21.123  37.934  10.464
64401W        W34216   8.837  34.958   4.218
64402W        W34217  16.268   0.486  13.414
64403W        W34218  19.119  35.596   3.674
64404W        W34219  32.575   6.355  10.054
64405W        W34220   1.840  40.480  10.406
64406W        W34221  33.991  40.340   2.354
64407W        W34222   2.762  24.128  14.323
64408W        W34223   3.376  17.208   0.359
64409W        W34224  17.728   1.474  11.090
64410W        W34225  27.191  31.640   4.812
64411W        W34226  37.028  21.740   4.791
64412W        W34227  23.611  15.308  13.001
64413W        W34228  27.613   2.897  10.618
64414W        W34229   7.674  24.693   0.863
64415W        W34230   1.441  24.167  13.503
64416W        W34231  39.905  37.066   3.262
64417W        W34232  11.748  35.557   2.788
64418W        W34233  39.844   3.854   0.286
64419W        W34234  37.046  44.810  10.627
64420W        W34235   9.152  21.112   3.232
64421W        W34236  38.431   7.758  13.972
64422W        W34237  29.099  18.598  11.379
64423W        W34238  33.506  24.683  12.031
64424W        W34239  11.745   6.791   1.710
64425W        W34240  23.199   9.767   1.724
64426W        W34241  11.786  27.010   0.321
64427W        W34242   2.807  24.080   4.675
64428W        W34243   0.796   6.689  13.371
64429W        W34244  17.575  44.944   4.263
64430W        W34245  34.451  29.436  11.124
64431W        W34246  21.709   1.868   4.634
64432W        W34247   0.963   7.698  10.891
64433W        W34248   3.311  40.965   0.911
64434W        W34249  39.504   4.374   1.409
64435W        W34250  23.674  34.490  11.093
64436W        W34251   6.315  35.491  14.763
64437W        W34252   2.335  30.623  14.019
64438W        W34253  11.299  35.024  14.942
64439W        W34254  27.135  37.061  11.419
64440W        W34255  38.435   2.767   3.780
64441W        W34256  19.687   3.411   2.388
64442W        W34257  24.134  16.117  13.447
64443W        W34258  38.517   5.363  12.846
64444W        W34259  42.295   2.810   0.466
64445W        W34260  35.441  25.002   4.607
64446W        W34261   8.247   4.387  14.511
64447W        W34262  23.205  24.542  12.999
64448W        W34263  43.442   2.762   3.784
64449W        W34264   5.215  11.332  12.001
64450W        W34265  27.085  37.929   3.655
64451W        W34266  30.031  26.021  14.349
64452W        W34267  38.369   4.289  11.955
64453W        W34268  26.482   4.271   4.148
64454W        W34269  40.441  35.894   3.699
64455W        W34270  14.131  42.008  13.980
64456W        W34271  35.092  19.059  12.907
64457W        W34272  26.569  29.921  13.431
64458W        W34273  18.242  28.460  12.535
64459W        W34274  26.037  20.272   4.701
64460W        W34275  44.812  31.142  12.379
64461W        W34276  24.533  37.551  10.480
64462W        W34277  34.914  22.541  10.154
64463W        W34278   3.393   6.426  14.020
64464W        W34279  34.513  22.069   1.424
64465W        W34280  43.273  36.359  10.994
64466W        W34281  23.567  39.522  13.369
64467W        W34282  26.691  23.716  10.038
64468W        W34283  37.857  38.938  11.996
64469W        W34284   0.770  13.229  12.953
64470W        W34285  17.078  31.069  13.382
64471W        W34286  29.588  38.907   5.122
64472W        W34287  40.953  32.008  12.046
64473W        W34288  34.496  33.589   4.788
64474W        W34289  16.147  14.726  13.436
64475W        W34290  14.334   2.903  10.414
64476W        W34291  42.497   4.855   1.720
64477W        W34292  41.355  44.763   4.755
64478W        W34293  15.691   6.191  10.480
64479W        W34294  22.530  37.975   1.917
64480W        W34295  30.539  36.028   0.957
64481W        W34296  20.099   6.277   3.180
64482W        W34297  20.041   6.852   2.720
64483W        W34298  15.175  15.116   4.307
64484W        W34299  22.735  39.431  14.501
64485W        W34300  34.008  42.012   3.268
64486W        W34301   4.885  34.936  11.452
64487W        W34302  31.108  38.016  11.388
64488W        W34303  23.073   3.296   4.192
64489W        W34304  38.002  44.298   2.713
64490W        W34305  20.214   1.257  11.939
64491W        W34306   8.694  42.976   1.440
64492W        W34307  21.208  18.138   1.932
64493W        W34308  23.570   6.744  12.391
64494W        W34309   6.191   6.280   1.273
64495W        W34310   5.750  27.174  10.639
64496W        W34311  25.592   3.421  13.450
64497W        W34312   6.250  43.502  11.968
64498W        W34313  33.599   1.302   1.848
64499W        W34314   2.789  21.158   2.274
64500W        W34315  20.113   6.739   2.273
64501W        W34316  21.717   4.723  12.841
64502W        W34317  38.913  44.401   0.796
64503W        W34318  34.399   3.258  11.018
64504W        W34319  44.967   6.329   9.974
64505W        W34320  42.848  14.195   0.766
64506W        W34321  43.373  32.133  12.047
64507W        W34322   1.778   3.217   2.341
64508W        W34323  28.072   9.784  14.008
64509W        W34324   3.301  43.516  14.867
64510W        W34325   8.391  35.967  12.896
64511W        W34326  36.034  23.238  11.055
64512W        W34327  23.235   9.361   4.158
64513W        W34328  10.218  30.983  14.847
64514W        W34329  25.473   6.779   1.703
64515W        W34330   4.302  43.000  14.342
64516W        W34331  18.064  17.638  12.980
64517W        W34332  14.812  22.671   1.747
64518W        W34333  38.551  20.239  10.512
64519W        W34334  11.136  42.983  13.936
64520W        W34335   0.905  13.691  13.406
64521W        W34336  27.670  19.206  14.934
64522W        W34337  28.599  26.091  13.435
64523W        W34338  11.708  12.280  10.902
64524W        W34339   1.735  16.120   1.361
64525W        W34340   3.715  31.578   2.336
64526W        W34341  21.159  16.297   5.310
64527W        W34342  11.333  38.938   0.949
64528W        W34343  13.227  44.413   1.341
64529W        W34344   7.902  43.785   3.710
64530W        W34345  37.878  38.530  11.018
64531W        W34346  32.566   9.720  13.954
64532W        W34347   8.248   8.313   4.252
64533W        W34348  40.930  16.199   0.378
64534W        W34349   9.694  26.182  11.385
64535W        W34350  12.671  27.506  11.517
64536W        W34351  34.970  15.198  11.032
64537W        W34352  15.604  13.174   2.189
64538W        W34353   5.693  36.590  11.488
64539W        W34354  27.989  26.616   5.314
64540W        W34355  24.031   0.436  11.413
64541W        W34356  24.195  37.502   0.965
64542W        W34357  31.620  14.290  10.950
64543W        W34358   8.893  26.124   0.837
64544W        W34359  40.546  31.008  13.798
64545W        W34360  27.582  25.099  12.564
64546W        W34361  24.701  33.488  13.448
64547W        W34362  14.692  24.599  14.401
64548W        W34363  23.537  22.142   1.359
64549W        W34364  32.125  33.458   0.938
64550W        W34365  16.280  18.091   0.816
64551W        W34366  16.596   7.759   3.186
64552W        W34367  34.509   3.286  11.886
64553W        W34368   2.783  18.287   3.655
64554W        W34369  26.165  22.222  10.422
64555W        W34370  18.609  33.130   2.733
64556W        W34371  44.807  43.502  12.831
64557W        W34372  22.094  17.560   5.303
64558W        W34373  35.367   3.228  14.938
64559W        W34374  25.703   5.824   0.262
64560W        W34375  34.593  34.882  13.038
64561W        W34376  21.222  26.674   3.344
64562W        W34377  31.001  22.020  14.415
64563W        W34378  37.539  16.753   4.290
64564W        W34379  10.665   2.788  13.358
64565W        W34380  20.154   7.811   4.345
64566W        W34381  16.168   2.358   1.908
64567W        W34382  20.602  21.641   0.264
64568W        W34383  40.384  23.016  12.483
64569W        W34384   2.753  24.047   1.912
64570W        W34385  19.770  21.162  10.491
64571W        W34386   3.374  31.583   0.912
64572W        W34387  13.754  16.595   2.878
64573W        W34388  38.530  29.150   2.315
64574W        W34389  21.655  30.144  13.421
64575W        W34390  16.260  15.642  11.953
64576W        W34391  11.169  32.492   1.803
64577W        W34392  36.494  44.913   1.890
64578W        W34393   1.334  31.968   0.334
64579W        W34394   2.268  26.998   1.301
64580W        W34395  18.593   0.358  10.947
64581W        W34396  31.039   0.317   0.260
64582W        W34397   7.267  36.938   1.433
64583W        W34398   4.712  15.602   3.780
64584W        W34399  20.609  33.073   3.146
64585W        W34400  35.395  35.004  12.884
64586W        W34401  19.065  32.525   4.116
64587W        W34402  27.993  33.467  10.158
64588W        W34403  42.363  20.653  13.333
64589W        W34404  27.484   9.761   1.867
64590W        W34405  31.131  22.180  11.465
64591W        W34406  18.666   7.294  13.382
64592W        W34407  22.694  34.012   3.367
64593W        W34408  28.448  24.720  13.900
64594W        W34409  26.097  13.314  12.059
64595W        W34410  18.741  38.444  11.392
64596W        W34411  39.896  15.229   5.130
64597W        W34412  30.523  22.576  10.903
64598W        W34413  31.598  17.185   4.668
64599W        W34414  16.585   6.800   4.165
64600W        W34415  10.693  18.117   3.824
64601W        W34416  20.234  11.859  12.836
64602W        W34417   0.824  31.622   4.724
64603W        W34418   4.345  37.373   3.262
64604W        W34419  33.476  11.653  11.060
64605W        W34420  18.211  42.872   3.763
64606W        W34421   7.379  21.745   4.191
64607W        W34422  34.908  12.763  12.469
64608W        W34423  26.546  35.452   2.721
64609W        W34424   5.345  12.831   0.437
64610W        W34425   8.661   1.436  12.540
64611W        W34426  38.345  21.670  13.989
64612W        W34427  36.876  44.451  14.368
64613W        W34428  28.592  19.190  12.845
64614W        W34429   8.828   3.232  13.969
64615W        W34430  18.637  38.432  11.037
64616W        W34431  13.619  35.916  14.308
64617W        W34432  25.002  27.526  10.419
64618W        W34433  30.067   1.780   3.785
64619W        W34434  42.885  17.120   4.296
64620W        W34435  25.205  16.745  12.056
64621W        W34436   9.652  28.507   2.684
64622W        W34437  44.789  23.206   0.919
64623W        W34438  24.577  33.448   2.259
64624W        W34439  23.001  31.057  12.340
64625W        W34440  23.230  29.071  12.342
64626W        W34441   2.906  17.148  12.909
64627W        W34442  30.648  19.697   4.641
64628W        W34443  18.740  15.198  14.817
64629W        W34444   9.286  39.558   1.830
64630W        W34445  34.892  11.235   1.240
64631W        W34446  29.479   5.363  14.899
64632W        W34447  26.491  19.574   4.649
64633W        W34448  31.962  35.958   3.228
64634W        W34449  41.880  13.163   3.653
64635W        W34450  33.950  12.255  11.510
64636W        W34451  15.303  31.598   0.949
64637W        W34452  11.351  44.930   4.200
64638W        W34453  11.650  31.441  11.379
64639W        W34454  29.426  42.446   1.389
64640W        W34455  32.911  41.426   0.334
64641W        W34456  15.313  23.513  13.426
64642W        W34457  21.628  37.401   2.663
64643W        W34458  24.165  32.983  14.328
64644W        W34459  19.701  38.446  10.468
64645W        W34460  24.634  38.919   2.782
64646W        W34461  34.898  33.482   3.351
64647W        W34462  18.090  33.998   2.248
64648W        W34463  32.041  23.494  11.566
64649W        W34464  44.446  43.342  13.821
64650W        W34465   0.491  23.054   4.313
64651W        W34466   9.725   9.691  11.015
64652W        W34467  37.879  41.462  14.416
64653W        W34468   6.891  36.854   3.716
64654W        W34469  23.230  26.982   3.172
64655W        W34470  32.415  15.749  10.520
64656W        W34471  21.725  22.077  14.361
64657W        W34472  41.519  44.326   4.761
64658W        W34473  30.418   0.265  11.065
64659W        W34474  38.335   8.195  13.850
64660W        W34475  29.587  16.587  12.354
64661W        W34476  22.676   1.241  14.907
64662W        W34477  12.646   8.207   3.302
64663W        W34478  10.846  21.245   4.260
64664W        W34479   9.373  27.571   4.819
64665W        W34480  14.682  41.882   2.677
64666W        W34481  38.558  21.705  11.913
64667W        W34482  36.934  16.279   4.645
64668W        W34483  13.293  15.587  13.871
64669W        W34484  26.066  12.797  10.482
64670W        W34485  28.669  12.278   2.282
64671W        W34486  11.684  20.210   4.803
64672W        W34487  27.457  40.337  14.010
64673W        W34488  33.585   5.739   4.654
64674W        W34489  32.977  20.174   2.780
64675W        W34490  41.913  24.143  11.419
64676W        W34491  24.589  41.428  12.942
64677W        W34492  15.816  14.268   0.336
64678W        W34493  14.620  32.111  14.464
64679W        W34494  25.557   1.287   1.741
64680W        W34495  23.163  32.003  12.519
64681W        W34496  20.139  42.460   3.340
64682W        W34497  21.019  26.969   4.644
64683W        W34498  29.986  40.888   1.254
64684W        W34499  37.565   9.391   2.357
64685W        W34500  25.520  25.007   3.153
64686W        W34501  17.255  44.499   5.104
64687W        W34502  39.906  30.495   0.462
64688W        W34503   7.827  21.748   4.699
64689W        W34504  33.029   7.771  11.001
64690W        W34505  32.457   8.703   3.332
64691W        W34506  36.582  35.081   0.948
64692W        W34507  27.072  42.897   0.848
64693W        W34508   3.734  30.018  10.620
64694W        W34509   4.900  41.428  12.848
64695W        W34510  17.289  15.213   3.240
64696W        W34511  21.062  20.153  14.331
64697W        W34512  39.359  37.580   2.896
64698W        W34513  37.919   7.275   3.732
64699W        W34514  43.500  25.042  10.501
64700W        W34515   1.804  26.204   0.810
64701W        W34516  16.723   8.395  12.374
64702W        W34517  11.697  17.264   0.953
64703W        W34518  41.461  18.715   4.692
64704W        W34519  37.878  23.613   1.340
64705W        W34520  17.700  31.975  14.775
64706W        W34521  42.336   7.731   4.338
64707W        W34522  17.576  14.691  14.801
64708W        W34523  35.563  16.773  10.624
64709W        W34524  29.029  18.221   2.399
64710W        W34525  19.752  36.852   2.353
64711W        W34526  12.636  27.944  13.831
64712W        W34527   4.284  17.666   4.289
64713W        W34528  34.055  22.107   0.787
64714W        W34529  25.137  21.104  14.338
64715W        W34530  18.761  28.603   3.340
64716W        W34531  19.052  24.071   0.385
64717W        W34532  11.735  27.523  11.095
64718W        W34533  23.679  14.106  10.451
64719W        W34534   2.854   7.841   1.302
64720W        W34535  12.331  13.714  13.907
64721W        W34536  26.596  39.941  12.497
64722W        W34537  14.335  12.178  12.026
64723W        W34538  22.581  43.976  10.610
64724W        W34539   6.384  43.327   0.403
64725W        W34540  21.075  20.572  12.501
64726W        W34541  10.339  16.783   3.253
64727W        W34542  30.153   7.322  14.360
64728W        W34543  44.311  21.236  11.606
64729W        W34544  17.206   4.827  14.427
64730W        W34545  12.666  38.943   3.664
64731W        W34546  30.644  28.077  12.362
64732W        W34547   0.888  10.868  13.882
64733W        W34548  30.079   2.928   0.900
64734W        W34549   2.360  35.874   0.830
64735W        W34550  27.534  42.319   3.650
64736W        W34551  25.637   4.221  14.297
64737W        W34552  32.407  38.385  14.441
64738W        W34553  26.538  41.836   1.376
64739W        W34554  24.101   8.334  11.947
64740W        W34555  10.373  24.034   3.282
64741W        W34556  41.024  20.205  12.019
64742W        W34557  26.953  30.026  12.857
64743W        W34558   5.430   9.295   1.401
64744W        W34559  29.644  33.878   1.755
64745W        W34560  37.069  33.092   2.839
64746W        W34561   7.358  42.349   2.228
64747W        W34562  30.570  33.606   0.802
64748W        W34563  40.321  42.309   0.428
64749W        W34564  42.414   2.847  12.928
64750W        W34565  38.054  37.421   0.887
64751W        W34566   3.387  15.618  11.505
64752W        W34567  17.279  20.071   3.213
64753W        W34568  37.977  34.953  11.049
64754W        W34569  26.519  26.008   3.174
64755W        W34570  42.451  29.968   1.828
64756W        W34571  19.748  20.112   2.878
64757W        W34572  44.796  14.668   3.664
64758W        W34573  25.975  35.481   4.763
64759W        W34574  35.423  24.162   2.300
64760W        W34575  28.185   6.714  10.455
64761W        W34576  44.830  35.073   4.185
64762W        W34577  39.493  24.194  12.909
64763W        W34578   7.283  16.599  11.952
64764W        W34579  29.926   7.227   3.181
64765W        W34580  27.011   9.170  13.409
64766W        W34581   6.186  35.879   1.338
64767W        W34582  37.364  39.062  10.433
64768W        W34583  22.602  31.597   1.808
64769W        W34584  43.470  26.015  10.971
64770W        W34585   6.863   7.902  12.402
64771W        W34586  44.788  25.042  14.345
64772W        W34587   6.875  40.393   1.292
64773W        W34588  40.516  24.565  11.585
64774W        W34589  14.158  28.531  14.389
64775W        W34590  39.819  35.466   4.223
64776W        W34591  26.029  29.162   2.179
64777W        W34592  14.159  19.233  13.356
64778W        W34593  44.969  16.238  12.448
64779W        W34594  10.337   2.416   1.697
64780W        W34595  17.154   4.301  11.093
64781W        W34596  24.570  37.502  13.963
64782W        W34597  15.194   3.843   3.636
64783W        W34598  20.660  16.755  12.501
64784W        W34599  42.502  17.591   0.887
64785W        W34600  10.243   0.387   4.286
64786W        W34601  27.687  39.422  13.502
64787W        W34602  39.063  40.530  11.967
64788W        W34603  17.290  17.602  13.309
64789W        W34604  37.433   3.765  11.894
64790W        W34605  39.813  27.637   1.765
64791W        W34606  40.304   4.226  13.896
64792W        W34607   9.868  29.175   0.942
64793W        W34608   1.742  40.976   0.355
64794W        W34609   4.787  19.540   4.194
64795W        W34610  23.593   6.831   0.927
64796W        W34611  44.473  21.711  11.971
64797W        W34612  43.794  28.611  12.057
64798W        W34613  27.648   3.418   2.325
64799W        W34614  14.759  31.598   3.832
64800W        W34615  14.276  43.355   2.394
64801W        W34616   6.843  13.328  12.849
64802W        W34617  14.278  22.620  12.836
64803W        W34618  14.783  21.625   4.339
64804W        W34619  33.548   5.702  12.915
64805W        W34620   0.356  44.392  12.043
64806W        W34621  41.423   3.406   4.647
64807W        W34622  25.219  20.550   0.331
64808W        W34623  25.054  19.740   1.327
64809W        W34624  32.533   2.426  13.384
64810W        W34625   6.395   2.389  14.397
64811W        W34626  22.617  31.120  13.308
64812W        W34627  39.810  10.716   2.675
64813W        W34628  13.279  10.260  14.957
64814W        W34629   3.354   7.216  11.451
64815W        W34630  35.893   9.795  13.855
64816W        W34631  18.591  16.790   2.243
64817W        W34632  43.308   5.689  12.344
64818W        W34633   8.668  25.174   1.394
64819W        W34634  44.963  24.021   0.381
64820W        W34635  41.473  27.174  14.453
64821W        W34636   0.411  34.403  10.988
64822W        W34637  21.727  17.643  10.469
64823W        W34638  28.089  20.714   2.347
64824W        W34639  36.072  10.142   4.713
64825W        W34640  23.672   7.877   0.835
64826W        W34641  30.935  37.423   2.369
64827W        W34642  40.510  10.835  11.586
64828W        W34643   9.676  19.656  10.484
64829W        W34644   5.264   8.694  14.900
64830W        W34645   7.708  13.747  12.555
64831W        W34646  15.756  12.835  10.561
64832W        W34647   2.426  10.334   4.245
64833W        W34648  38.493  34.418   3.649
64834W        W34649  23.625   0.767  12.447
64835W        W34650  44.966  27.540  11.408
64836W        W34651  39.045  28.635   1.432
64837W        W34652  28.645  21.051  11.062
64838W        W34653  28.520  40.804  12.414
64839W        W34654  13.777  15.210  14.479
64840W        W34655  30.470  23.562  14.970
64841W        W34656  17.138  26.165  13.405
64842W        W34657  14.785  28.501  13.531
64843W        W34658  37.963  16.220  10.608
64844W        W34659  42.409   3.266  10.459
64845W        W34660  33.518  17.256  14.849
64846W        W34661  10.141   1.431   1.886
64847W        W34662   9.152   5.909  14.763
64848W        W34663  21.230  39.985  11.582
64849W        W34664  42.852  21.653  11.876
64850W        W34665  13.305  26.627  12.015
64851W        W34666   7.316  25.524   0.389
64852W        W34667   4.811   4.374   0.816
64853W        W34668   0.327  28.564  11.056
64854W        W34669  43.508  34.480  13.861
64855W        W34670  18.065  15.710  11.868
64856W        W34671  27.982  39.929  11.012
64857W        W34672  35.056  38.016  10.563
64858W        W34673  20.232   5.754  12.044
64859W        W34674  12.704  42.781   3.293
64860W        W34675  42.336  39.520   2.806
64861W        W34676  13.631  44.439   0.401
64862W        W34677  22.252  19.051  12.924
64863W        W34678  36.096  17.093  12.504
64864W        W34679  33.387  40.873  13.791
64865W        W34680  39.420  41.036  11.112
64866W        W34681  29.985  15.776   2.270
64867W        W34682  15.249  29.531   0.310
64868W        W34683  21.551  36.050   1.311
64869W        W34684  12.734  25.635   3.263
64870W        W34685  17.801   6.868   3.645
64871W        W34686  21.599  28.932   3.761
64872W        W34687   3.348   8.694  14.009
64873W        W34688   4.753  23.031  14.952
64874W        W34689  23.725  21.564  14.311
64875W        W34690   3.396  26.109   0.377
64876W        W34691   3.854  23.725  14.960
64877W        W34692  22.739  28.012   2.730
64878W        W34693  25.562  43.339   4.744
64879W        W34694  38.948  16.571  12.907
64880W        W34695  28.994   4.891  11.003
64881W        W34696  35.468  10.202  11.995
64882W        W34697  19.652   8.372  13.318
64883W        W34698  28.595   0.892  10.592
64884W        W34699  22.544   9.716   4.312
64885W        W34700  37.416  18.622   5.097
64886W        W34701  26.661  29.628   0.762
64887W        W34702   2.902  10.285   1.742
64888W        W34703  27.617   2.908  14.431
64889W        W34704  10.296  29.521  11.094
64890W        W34705   4.932   9.385  12.031
64891W        W34706  40.480  28.468   3.228
64892W        W34707  30.539   8.197   4.224
64893W        W34708  38.914  42.291   2.852
64894W        W34709   3.897  10.199  10.634
64895W        W34710   6.426  31.150   2.856
64896W        W34711  29.651   9.332   1.315
64897W        W34712  25.052  26.052  13.801
64898W        W34713  12.779  31.914  11.451
64899W        W34714  14.813  37.020  10.559
64900W        W34715  29.140  20.256  14.281
64901W        W34716  10.827   8.169  13.828
64902W        W34717  24.015  25.996   2.894
64903W        W34718  31.995  34.400  12.034
64904W        W34719  22.548  44.888  10.036
64905W        W34720  30.530  14.238  12.352
64906W        W34721  10.146  12.662   2.257
64907W        W34722   0.923  26.090   3.193
64908W        W34723  40.018  31.961  11.471
64909W        W34724  37.074  21.520   1.384
64910W        W34725  27.577   4.903   1.214
64911W        W34726  32.484   2.889   1.210
64912W        W34727  32.928   5.801  12.897
64913W        W34728   4.241  13.129   2.183
64914W        W34729  39.996  18.583   2.763
64915W        W34730  43.942  40.540  10.431
64916W        W34731  35.952  38.830  14.504
64917W        W34732  39.461  13.738  12.881
64918W        W34733   5.867  42.348  14.491
64919W        W34734  37.956  25.626  13.476
64920W        W34735   0.313  23.998   2.700
64921W        W34736   5.410  39.390  14.394
64922W        W34737  43.311  11.158   0.818
64923W        W34738   7.832  42.848   1.849
64924W        W34739  24.023  43.951   4.179
64925W        W34740  30.108  38.843  12.830
64926W        W34741  11.665  33.503  10.529
64927W        W34742  13.633   0.318   1.796
64928W        W34743  10.306   4.771   4.725
64929W        W34744   0.254  36.983  13.004
64930W        W34745  35.488  19.610   1.270
64931W        W34746  31.126  15.281  14.950
64932W        W34747  38.885   2.787  10.945
64933W        W34748  15.595  37.566   2.677
64934W        W34749  33.094   1.267  10.573
64935W        W34750   6.357  29.992  11.007
64936W        W34751  16.076  35.981   5.127
64937W        W34752  12.661  37.920   1.248
64938W        W34753   6.353  41.889   1.386
64939W        W34754  28.965  15.739  12.574
64940W        W34755  10.797  19.193  12.926
64941W        W34756   6.187  34.001  12.868
64942W        W34757  33.998  39.506   4.321
64943W        W34758  20.082  34.079   4.272
64944W        W34759  40.329  34.074   0.425
64945W        W34760  26.560  17.194   5.141
64946W        W34761   9.245  27.957   2.831
64947W        W34762  39.378   3.737   0.468
64948W        W34763  15.656   9.683   3.745
64949W        W34764  29.526  25.138   4.828
64950W        W34765  17.609  40.311  12.927
64951W        W34766  24.607  23.736   2.783
64952W        W34767  40.356   9.296   4.767
64953W        W34768  10.286   1.764  10.600
64954W        W34769  27.144  30.468   0.459
64955W        W34770  29.065  44.501   1.283
64956W        W34771  31.963  38.375  14.463
64957W        W34772  40.482  37.906  10.966
64958W        W34773   1.796  32.016   0.732
64959W        W34774  16.200  23.174   4.607
64960W        W34775  26.588  40.038  14.289
64961W        W34776   8.273  32.064  12.882
64962W        W34777  11.180   8.234  13.489
64963W        W34778  35.940  21.179  14.960
64964W        W34779   9.840  24.144   3.365
64965W        W34780  28.001  33.001  13.940
64966W        W34781  35.473  24.482  13.004
64967W        W34782  13.760  37.405  10.632
64968W        W34783  23.005  37.492   1.429
64969W        W34784  15.667  13.815  12.076
64970W        W34785  15.153  12.193  14.402
64971W        W34786   8.728   3.781   0.892
64972W        W34787  18.124   2.781   0.910
64973W        W34788  26.105  42.904  10.470
64974W        W34789  13.123  31.511  12.927
64975W        W34790  14.116  10.707   4.184
64976W        W34791  34.870  34.045  13.834
64977W        W34792  30.578   2.741   3.146
64978W        W34793  17.709  14.132  11.530
64979W        W34794  33.104  22.011  14.295
64980W        W34795   5.880   6.316   2.803
64981W        W34796  15.275  24.031  12.561
64982W        W34797  27.628  34.593  14.903
64983W        W34798   5.863   6.910  14.310
64984W        W34799   6.202  23.600  14.435
64985W        W34800   1.273  43.962   4.216
64986W        W34801  26.144   1.839   4.837
64987W        W34802  19.167  31.557   0.883
64988W        W34803  24.546   5.812   1.824
64989W        W34804   4.271  31.461  13.939
64990W        W34805  25.620  29.027  12.450
64991W        W34806  18.267  27.098   1.709
64992W        W34807  16.692  38.037   2.851
64993W        W34808   2.863  24.575   4.772
64994W        W34809  13.286  41.309  11.860
64995W        W34810   0.966   8.896   2.377
64996W        W34811  36.084  23.140  12.357
64997W        W34812  36.877  43.849  13.447
64998W        W34813  18.679  36.512   0.304
64999W        W34814   3.336  10.845   0.808
65000W        W34815  36.493  15.273   1.217
65001W        W34816   5.265  39.938   0.423
65002W        W34817  38.384  42.414  14.317
65003W        W34818   4.828  15.129  12.892
65004W        W34819  42.015  29.547  14.509
65005W        W34820   1.458  27.606   1.883
65006W        W34821  37.440  11.787  12.960
65007W        W34822  21.712   7.705  13.952
65008W        W34823  41.489  36.012   2.726
65009W        W34824  23.188  13.270   0.313
65010W        W34825   3.379  41.036  12.425
65011W        W34826  13.736  21.608  10.514
65012W        W34827  24.540  12.187   4.261
65013W        W34828   5.878  30.432   0.332
65014W        W34829   4.437  18.209  11.569
65015W        W34830   6.188  24.001  12.945
65016W        W34831  20.186  28.941  11.954
65017W        W34832  14.289  41.461  11.542
65018W        W34833  15.304  19.695   2.666
65019W        W34834  24.545  44.850   0.311
65020W        W34835  35.108   7.172   9.958
65021W        W34836  21.513  11.317  14.509
65022W        W34837  13.197   6.273   4.661
65023W        W34838   3.956  21.635   3.186
65024W        W34839  36.845  39.438  12.844
65025W        W34840   6.282  32.116   1.798
65026W        W34841  29.632  34.882   0.785
65027W        W34842  34.116  20.088   4.601
65028W        W34843  24.689  32.012   4.676
65029W        W34844  38.458  16.811   3.195
65030W        W34845  43.351  35.101  14.827
65031W        W34846  13.761   9.223   2.352
65032W        W34847  32.992  10.812  14.394
65033W        W34848   3.917  32.515  13.460
65034W        W34849  26.975  44.424  10.575
65035W        W34850   1.480   8.205   3.742
65036W        W34851  21.017  37.951  12.424
65037W        W34852  24.187   2.400  14.323
65038W        W34853   8.785  36.576   3.200
65039W        W34854  22.642  29.591   3.201
65040W        W34855  14.778  33.090   4.787
65041W        W34856  18.628  27.629  10.617
65042W        W34857  28.509  16.230   3.732
65043W        W34858  28.606  27.528  14.441
65044W        W34859  26.691  38.070  12.574
65045W        W34860  15.291  35.450  14.918
65046W        W34861  33.053   7.886  13.522
65047W        W34862  32.535  17.075   4.229
65048W        W34863  38.363  17.078  13.319
65049W        W34864  18.208  14.611  10.503
65050W        W34865  14.285  13.740   0.336
65051W        W34866  35.054  24.634   2.225
65052W        W34867   3.883  38.845   2.717
65053W        W34868   3.950  18.127   1.793
65054W        W34869  18.569  28.064   5.086
65055W        W34870  43.966  34.026  13.889
65056W        W34871  10.648  16.675  12.344
65057W        W34872  43.797  43.421   0.965
65058W        W34873   8.243  33.385   3.724
65059W        W34874  37.463  35.562   3.779
65060W        W34875  13.683  17.596  14.843
65061W        W34876  11.674  22.616   0.908
65062W        W34877  40.320  12.732  11.372
65063W        W34878  11.791   7.866   3.342
65064W        W34879  39.354  13.141   4.133
65065W        W34880   7.757  19.178  11.034
65066W        W34881  10.647  16.127  12.371
65067W        W34882   7.696  27.185  10.589
65068W        W34883  20.766  10.155   2.329
65069W        W34884  23.492  34.451   3.739
65070W        W34885  11.810  17.137   1.432
65071W        W34886  20.656  40.997  11.882
65072W        W34887  30.466   4.789   3.166
65073W        W34888  33.611  35.905   4.815
65074W        W34889   0.451  19.153   2.327
65075W        W34890  21.067  43.464   0.280
65076W        W34891  17.753  12.322   3.247
65077W        W34892  10.645  23.035   2.298
65078W        W34893  44.827  22.192   2.692
65079W        W34894  18.680  15.599   5.299
65080W        W34895  15.596  42.513   1.695
65081W        W34896  24.636   5.779  14.962
65082W        W34897  25.624  26.179  12.487
65083W        W34898   1.966  36.355  13.002
65084W        W34899  43.837  34.879   0.863
65085W        W34900  39.473  36.417   2.325
65086W        W34901  35.106  40.505  12.943
65087W        W34902  23.678   5.884   4.620
65088W        W34903  41.326  42.825   1.858
65089W        W34904  14.617  36.419  12.968
65090W        W34905  16.802   6.237  14.935
65091W        W34906  21.548   4.339  12.385
65092W        W34907   3.357  23.036  14.786
65093W        W34908   9.687  41.349  14.998
65094W        W34909  36.956  33.981  11.065
65095W        W34910  26.079  25.029   4.326
65096W        W34911   5.904  40.872   1.702
65097W        W34912  12.147  21.055   3.836
65098W        W34913  14.188  10.692  12.014
65099W        W34914  10.252   1.941  14.974
65100W        W34915  37.512  10.811   0.737
65101W        W34916  31.999  18.194   3.821
65102W        W34917  35.957   1.963   3.839
65103W        W34918  25.183  44.420  10.511
65104W        W34919  22.211  35.588   0.853
65105W        W34920  42.469  37.841  10.527
65106W        W34921   3.924  23.662   5.308
65107W        W34922  14.642  37.418  12.923
65108W        W34923  27.478  40.343  13.314
65109W        W34924  13.262  28.945   4.177
65110W        W34925  13.122  23.019  13.988
65111W        W34926  19.536  32.139  11.971
65112W        W34927  44.869   5.810  13.337
65113W        W34928  22.137   0.798  14.427
65114W        W34929   0.429  43.939   3.294
65115W        W34930  13.771  24.988  11.918
65116W        W34931  19.073  36.910   2.870
65117W        W34932  26.690   2.720   1.798
65118W        W34933  31.538  28.131   2.889
65119W        W34934  39.975   4.332   1.222
65120W        W34935   5.234  38.373   2.766
65121W        W34936  36.898   7.345   3.167
65122W        W34937  26.158   6.806  13.867
65123W        W34938   3.940  19.569   0.875
65124W        W34939  37.478  43.788   4.159
65125W        W34940  17.126  10.142   3.199
65126W        W34941  10.174  31.963  14.356
65127W        W34942   0.767   7.251  10.069
65128W        W34943  35.550  15.133  12.464
65129W        W34944  16.633  37.508   0.257
65130W        W34945  23.004  43.923  11.575
65131W        W34946  44.806  43.381  14.484
65132W        W34947  28.941   3.318  14.395
65133W        W34948  21.664  24.576  12.883
65134W        W34949   4.887  21.648   1.373
65135W        W34950  20.058  16.666   2.389
65136W        W34951  34.008  21.742   3.753
65137W        W34952  32.026  12.711  12.092
65138W        W34953  36.414  22.006   2.800
65139W        W34954  16.687  10.772   4.615
65140W        W34955  10.721  41.343  13.412
65141W        W34956  32.395  10.863   0.866
65142W        W34957  17.159  14.599   0.311
65143W        W34958   2.916  44.325   1.233
65144W        W34959  37.368   9.712   2.404
65145W        W34960  29.642  19.640   5.085
65146W        W34961  29.101   5.330   0.251
65147W        W34962  31.967  42.350   0.451
65148W        W34963  39.868  39.931   1.866
65149W        W34964  20.097  26.002  12.365
65150W        W34965  35.969  44.266   1.333
65151W        W34966   6.373  39.476   4.754
65152W        W34967  23.576  26.141   2.193
65153W        W34968  36.406  30.507  11.470
65154W        W34969  23.178  13.626   2.768
65155W        W34970  34.973  37.940  14.488
65156W        W34971  38.879  11.736  14.024
65157W        W34972  37.076  36.878  12.917
65158W        W34973  22.715  19.170   9.972
65159W        W34974  20.593   4.387  14.887
65160W        W34975  16.591  35.923  13.322
65161W        W34976  17.724  31.101  12.365
65162W        W34977  13.663  20.573   2.389
65163W        W34978  32.118  14.834   0.781
65164W        W34979   3.941  37.418  12.071
65165W        W34980   0.823  26.143  12.380
65166W        W34981  32.907  39.811   3.652
65167W        W34982   9.872  16.699  14.924
65168W        W34983  14.218  28.463  13.027
65169W        W34984  18.294  19.759   2.213
65170W        W34985  21.203   9.861  13.912
65171W        W34986  17.759  36.036   0.756
65172W        W34987  19.203  18.729  14.362
65173W        W34988  31.899  19.283   2.723
65174W        W34989  39.896  43.846   4.130
65175W        W34990  39.837  10.250   2.329
65176W        W34991  38.954  16.628   2.825
65177W        W34992  27.009  16.165   2.317
65178W        W34993  33.567  42.862  14.815
65179W        W34994  34.931   7.341  11.070
65180W        W34995   5.878  18.548   4.600
65181W        W34996  15.220  42.935   1.321
65182W        W34997  25.966  12.736   0.916
65183W        W34998  25.996  38.538   1.334
65184W        W34999  10.167   9.713   3.208
65185W        W35000   4.238  36.997   3.341
65186W        W35001  44.918   7.362   4.651
65187W        W35002  36.049  13.624   0.345
65188W        W35003  35.949  25.551   4.731
65189W        W35004   5.283   8.822  10.623
65190W        W35005  26.654   4.882   1.851
65191W        W35006  21.208  33.098  11.933
65192W        W35007  34.421   2.836  10.959
65193W        W35008  11.804  30.529  12.842
65194W        W35009  22.167   0.803  10.416
65195W        W35010   7.864  41.794  11.586
65196W        W35011  28.658   8.177   0.309
65197W        W35012  27.169  28.140   3.350
65198W        W35013  29.061  18.763   2.309
65199W        W35014  13.793  34.980  13.942
65200W        W35015  32.535  26.982   0.869
65201W        W35016  14.684   8.712   2.228
65202W        W35017  10.181  34.004   4.161
65203W        W35018  12.304  25.485   1.286
65204W        W35019  15.327  19.162  11.537
65205W        W35020  34.495   2.822   1.355
65206W        W35021  27.647   2.414   4.657
65207W        W35022  11.675   7.826   0.773
65208W        W35023  34.959  25.126   3.800
65209W        W35024  13.830  43.404  14.338
65210W        W35025  34.061  41.485  10.492
65211W        W35026  18.126  42.477   0.476
65212W        W35027  36.908  38.464  13.876
65213W        W35028   0.421  10.679   4.710
65214W        W35029  32.900  34.919   3.686
65215W        W35030  34.513  23.522  11.063
65216W        W35031  13.725  41.988  14.440
65217W        W35032  18.172  25.513  11.549
65218W        W35033   2.863  44.260  12.427
65219W        W35034  25.528  14.293   9.942
65220W        W35035  31.537   4.900  12.954
65221W        W35036  34.918   0.961  10.108
65222W        W35037  15.612  10.235  14.827
65223W        W35038  14.807  36.580   1.260
65224W        W35039  33.030  29.568   1.874
65225W        W35040  20.179  37.986   4.801
65226W        W35041  31.912   6.756  10.417
65227W        W35042  23.698  38.951  10.641
65228W        W35043  44.835   4.218  12.037
65229W        W35044  44.871   4.375  12.876
65230W        W35045  24.984  10.296   4.323
65231W        W35046  27.559  28.057  12.445
65232W        W35047  17.588  44.474  10.440
65233W        W35048  33.005  40.019  13.474
65234W        W35049  23.672  38.953   4.727
65235W        W35050   2.254  22.685   4.666
65236W        W35051  15.318  24.197   1.282
65237W        W35052  39.515  21.086  13.448
65238W        W35053  38.862  23.651  10.131
65239W        W35054  15.662  39.814  13.969
65240W        W35055  39.897  23.996   3.319
65241W        W35056  33.891  36.907  14.007
65242W        W35057  10.871   6.308  12.492
65243W        W35058  17.715  11.253   4.314
65244W        W35059  33.527  14.818   1.871
65245W        W35060  30.543  14.223  11.428
65246W        W35061  26.130  16.580  14.770
65247W        W35062  34.009  10.308  13.029
65248W        W35063  14.738  23.607  12.446
65249W        W35064  20.259  17.248   4.755
65250W        W35065  12.125  23.694   4.805
65251W        W35066  28.991  42.029  13.941
65252W        W35067  35.886  42.415   3.224
65253W        W35068   3.413  11.801  13.029
65254W        W35069  20.153  35.591   4.631
65255W        W35070  36.881  43.484   4.325
65256W        W35071  28.460  14.780  12.883
65257W        W35072   2.445  44.329  12.545
65258W        W35073  14.318  23.156   3.678
65259W        W35074  43.866   7.316   1.752
65260W        W35075  40.809  36.034  12.981
65261W        W35076   8.228  44.986   2.212
65262W        W35077  41.932  44.320  11.435
65263W        W35078  23.011  42.354   2.751
65264W        W35079   3.782  23.111   0.265
65265W        W35080  20.531  29.925  11.871
65266W        W35081  27.940  19.735   4.140
65267W        W35082   2.783  11.835  10.494
65268W        W35083   0.880  27.653  12.012
65269W        W35084  22.683  44.832  12.940
65270W        W35085   1.377  31.976   0.788
65271W        W35086  13.800  38.047  11.950
65272W        W35087  32.038  23.218  10.521
65273W        W35088  25.134  39.036   2.810
65274W        W35089  10.686  43.406   0.843
65275W        W35090  10.181   6.240   2.376
65276W        W35091  38.420  33.107  12.437
65277W        W35092  39.985  26.562  13.934
65278W        W35093   8.401  15.191  12.875
65279W        W35094  32.452  25.659  10.489
65280W        W35095  41.851  30.495  12.918
65281W        W35096  24.223  29.527  10.612
65282W        W35097   9.810  27.988  10.449
65283W        W35098  19.710  24.518  11.990
65284W        W35099  29.941  16.813   3.227
65285W        W35100  26.639  34.543  14.289
65286W        W35101   2.723  12.660   1.406
65287W        W35102   0.968   9.766  12.029
65288W        W35103  18.186   6.325  10.499
65289W        W35104  33.011  14.169  14.289
65290W        W35105  13.815   0.956  14.026
65291W        W35106  18.576  39.814   3.724
65292W        W35107   7.399  16.119  13.434
65293W        W35108  39.995   5.418   0.252
65294W        W35109  18.726  22.044  12.924
65295W        W35110  30.964  29.075   4.810
65296W        W35111  25.194  20.101   2.393
65297W        W35112  40.913   6.324   5.776
65298W        W35113  12.197   0.305  12.512
65299W        W35114  33.612  38.871  12.918
65300W        W35115  37.438   8.333  13.896
65301W        W35116  31.919  16.309   0.773
65302W        W35117  26.597  26.652   4.120
65303W        W35118  36.967  41.791  11.378
65304W        W35119  23.112  20.746   4.796
65305W        W35120   1.315  32.548   0.306
65306W        W35121  21.145  20.569   2.829
65307W        W35122  28.624  41.374   0.895
65308W        W35123  33.991  41.941  11.071
65309W        W35124  44.411  20.577  12.926
65310W        W35125  11.306   4.756   2.202
65311W        W35126  39.385  30.481   1.324
65312W        W35127  12.734  24.493  10.622
65313W        W35128   5.204  27.189   1.440
65314W        W35129  19.101  42.890  11.481
65315W        W35130   7.889  19.114   0.372
65316W        W35131  38.863  24.666  10.410
65317W        W35132  43.332  44.943   3.669
65318W        W35133  18.712  23.092   2.809
65319W        W35134  15.694  16.087   3.781
65320W        W35135   9.702   6.356  13.493
65321W        W35136  12.820   3.298  14.788
65322W        W35137   9.289  17.781   0.422
65323W        W35138  14.268  38.462   3.743
65324W        W35139  35.411  33.940   4.740
65325W        W35140  31.589  17.186  12.877
65326W        W35141   4.449  17.075  11.891
65327W        W35142   5.308  27.988  13.018
65328W        W35143   6.720  21.640  11.497
65329W        W35144  35.888   6.866  11.038
65330W        W35145  15.187  44.380  13.324
65331W        W35146  24.129   5.313   4.280
65332W        W35147   8.778  21.076   0.433
65333W        W35148   2.433   2.452   3.372
65334W        W35149  26.543  23.074   2.358
65335W        W35150  13.202  15.655  10.421
65336W        W35151   4.776  24.631   2.293
65337W        W35152  41.801  40.953  14.287
65338W        W35153  10.662  32.401   0.344
65339W        W35154  21.515   6.864   4.608
65340W        W35155  18.630  38.959   2.861
65341W        W35156  26.952  24.015   4.785
65342W        W35157  40.398   2.812  14.810
65343W        W35158  12.237   1.307  13.054
65344W        W35159  42.497  15.645   5.268
65345W        W35160  26.035  10.329  12.478
65346W        W35161  11.282  43.887  12.431
65347W        W35162  35.916  22.081   1.823
65348W        W35163   6.197  10.280   3.631
65349W        W35164   7.690  10.833  14.801
65350W        W35165  17.765   9.656   0.940
65351W        W35166  20.535  34.982  12.494
65352W        W35167   5.885  20.534  14.000
65353W        W35168  15.794  20.725   0.322
65354W        W35169  13.302  23.028  12.554
65355W        W35170   9.768  16.678   5.217
65356W        W35171   2.932  11.753  14.778
65357W        W35172  32.419  23.156  11.970
65358W        W35173  21.156  19.732  14.880
65359W        W35174  34.408  16.581  14.943
65360W        W35175  35.561  22.098  10.453
65361W        W35176  32.055   5.416  12.409
65362W        W35177  34.989  14.284  14.488
65363W        W35178  42.853  13.206   1.403
65364W        W35179  42.419  19.104  13.824
65365W        W35180  23.537  21.698   2.290
65366W        W35181  22.615   5.780   4.725
65367W        W35182  30.595  22.627   4.175
65368W        W35183  37.541  30.415   0.763
65369W        W35184  18.162  23.645  12.371
65370W        W35185  18.589  41.856  11.013
65371W        W35186  25.667  20.692  10.906
65372W        W35187  16.697  20.061   2.749
65373W        W35188  18.208   9.853   3.167
65374W        W35189  19.257  13.741   2.415
65375W        W35190  40.042  38.523   4.183
65376W        W35191   1.479  25.617   3.219
65377W        W35192  29.546  12.293  13.847
65378W        W35193  22.143  15.160   2.253
65379W        W35194  29.654   3.391   1.782
65380W        W35195  30.048  40.489  11.412
65381W        W35196  10.333  34.586   4.228
65382W        W35197   3.309  44.000  12.445
65383W        W35198  16.137  20.171   1.279
65384W        W35199  42.313  14.129  12.505
65385W        W35200  35.432  43.357  13.893
65386W        W35201  17.066  30.040   3.820
65387W        W35202   3.930   1.265   2.256
65388W        W35203   7.732  20.523  10.446
65389W        W35204   0.262  42.470   1.888
65390W        W35205   6.819  41.921  12.392
65391W        W35206  15.281   0.418   4.319
65392W        W35207  31.026  35.883   0.929
65393W        W35208  32.047  22.564   0.902
65394W        W35209  33.085  32.101  14.416
65395W        W35210  34.453  27.467   1.935
65396W        W35211  14.824   0.956   2.360
65397W        W35212  22.563  15.654  10.444
65398W        W35213  13.718  14.298   3.678
65399W        W35214  41.419  12.336  11.942
65400W        W35215  12.333  35.391   1.863
65401W        W35216   3.258  44.956  13.906
65402W        W35217   8.837  43.327  11.974
65403W        W35218   7.849   1.895  14.498
65404W        W35219   0.447  44.850   0.933
65405W        W35220  16.310  34.555  13.443
65406W        W35221  31.066   9.716   4.338
65407W        W35222  43.398  11.817   4.617
65408W        W35223  29.963  21.048   4.640
65409W        W35224  43.791  37.924  13.538
65410W        W35225  36.004   6.187   3.684
65411W        W35226   4.227   2.763  13.052
65412W        W35227  42.450  16.567  14.410
65413W        W35228  34.044  10.713   3.781
65414W        W35229  43.345  31.947  10.565
65415W        W35230   1.468   7.716   0.829
65416W        W35231  38.445  26.688  12.458
65417W        W35232  34.595   7.290  11.398
65418W        W35233  24.533   6.275   3.859
65419W        W35234  25.182  41.292  10.913
65420W        W35235  13.819   6.261  14.284
65421W        W35236  17.707  35.414   1.335
65422W        W35237  34.952   5.217   3.703
65423W        W35238  13.656  43.508   1.244
65424W        W35239  37.957  35.438   1.219
65425W        W35240  42.983  12.148  11.892
65426W        W35241   3.816  42.794   2.336
65427W        W35242  44.963  17.711   4.218
65428W        W35243  14.259  19.153  11.088
65429W        W35244   0.951  22.006   0.335
65430W        W35245  41.394   7.207   2.261
65431W        W35246   2.836   6.890   1.228
65432W        W35247  14.731   7.289   0.455
65433W        W35248   9.332  42.454  12.556
65434W        W35249  19.193  40.333   4.762
65435W        W35250   5.200  15.607   0.294
65436W        W35251  27.076  40.385   2.720
65437W        W35252  31.590  35.010  12.932
65438W        W35253  35.893  21.020   0.851
65439W        W35254  40.028  22.534  12.513
65440W        W35255   6.286  35.858  11.005
65441W        W35256   3.381  13.608   0.372
65442W        W35257  13.680   1.738  14.005
65443W        W35258  10.144  39.438  13.368
65444W        W35259  24.700  11.210  14.922
65445W        W35260  42.343  25.685  13.403
65446W        W35261  37.901   8.300  12.524
65447W        W35262   1.266  44.823  11.051
65448W        W35263  16.228   1.832   2.859
65449W        W35264  34.995   9.722  11.878
65450W        W35265  15.779   3.735  10.549
65451W        W35266  12.192  28.943  14.977
65452W        W35267  32.421  18.735   0.729
65453W        W35268   3.247   0.949   2.414
65454W        W35269   8.711  26.691   5.120
65455W        W35270  16.098  35.053   4.626
65456W        W35271  32.532  12.214  14.936
65457W        W35272  41.495  44.488   3.796
65458W        W35273  32.402  28.139  13.446
65459W        W35274  11.826  10.218  11.558
65460W        W35275  17.232  19.671  13.363
65461W        W35276  42.862  42.387  11.019
65462W        W35277  31.600  43.006  11.129
65463W        W35278  15.281  43.904  11.035
65464W        W35279  39.054  31.909  10.951
65465W        W35280  23.096   4.244   1.284
65466W        W35281  11.355   3.883  11.527
65467W        W35282  32.450  10.267   4.763
65468W        W35283  43.987  40.532  11.415
65469W        W35284  14.819  41.934   0.855
65470W        W35285  31.030   9.785   0.257
65471W        W35286  44.969  16.212   1.770
65472W        W35287   4.857  13.260   3.853
65473W        W35288  37.890  23.080   3.267
65474W        W35289  23.036  24.530  12.577
65475W        W35290  37.362  17.582   2.879
65476W        W35291   3.238  23.695   0.942
65477W        W35292   0.381  40.317   3.765
65478W        W35293  15.823  15.822  10.507
65479W        W35294   0.893   1.944  12.984
65480W        W35295   3.898  33.492  11.452
65481W        W35296  35.893  43.502   4.759
65482W        W35297   2.873   1.363   3.652
65483W        W35298  11.847   2.456  14.339
65484W        W35299  31.576  34.593  12.953
65485W        W35300  15.677  24.201   2.261
65486W        W35301  10.807   5.236   0.911
65487W        W35302  40.441  22.207   2.229
65488W        W35303   3.356   7.374   1.215
65489W        W35304  37.533  42.359   3.192
65490W        W35305  11.214  27.667   2.320
65491W        W35306  15.153   3.904  14.936
65492W        W35307  25.215  31.080   3.762
65493W        W35308  27.545  43.776   4.662
65494W        W35309   6.787  41.373  13.025
65495W        W35310   2.851  20.174  11.384
65496W        W35311  39.995   7.823  10.467
65497W        W35312  30.988  38.942   3.791
65498W        W35313  10.826   7.316  13.307
65499W        W35314   9.860  33.449  13.440
65500W        W35315   6.757   7.733  10.566
65501W        W35316  30.070  37.454  10.450
65502W        W35317  17.771  41.924  13.423
65503W        W35318   0.808  44.819   3.829
65504W        W35319  18.699  27.621   3.639
65505W        W35320  16.803  12.662  12.448
65506W        W35321  15.246  35.406  12.859
65507W        W35322  35.966  44.780   1.392
65508W        W35323   4.332  42.960   0.324
65509W        W35324  38.006  16.286   0.883
65510W        W35325  28.107  16.809   4.153
65511W        W35326  13.122  26.086  12.894
65512W        W35327  19.142  34.863  14.903
65513W        W35328  18.211   4.404   1.934
65514W        W35329  42.326  36.890  14.440
65515W        W35330  12.184  19.130   4.605
65516W        W35331  23.996  23.714  11.586
65517W        W35332  17.098  38.366  14.465
65518W        W35333  10.844  31.496  11.087
65519W        W35334  42.468  36.956  10.563
65520W        W35335  14.679  38.562   0.256
65521W        W35336   4.255  24.173  13.537
65522W        W35337  22.594  33.485   5.197
65523W        W35338  31.944  44.305  12.565
65524W        W35339  42.390  10.142  13.415
65525W        W35340  37.996  30.998  10.640
65526W        W35341  35.441  21.167   4.686
65527W        W35342   6.373  10.755  13.853
65528W        W35343  10.383  17.070   4.214
65529W        W35344  42.779  41.358  14.946
65530W        W35345  34.044  30.495  10.574
65531W        W35346  27.617  33.009   4.821
65532W        W35347  27.472  25.056   2.829
65533W        W35348   0.385  33.618   3.173
65534W        W35349  25.203  24.991   2.226
65535W        W35350   1.328  31.052   2.746
65536W        W35351  43.959  37.434  12.412
65537W        W35352  23.170  19.056   4.734
65538W        W35353  26.579  11.213  14.960
65539W        W35354  24.632   9.710   1.278
65540W        W35355  35.372  22.191   2.738
65541W        W35356  30.016  16.178   2.829
65542W        W35357  31.926  27.007   1.711
65543W        W35358  34.536  29.513  10.582
65544W        W35359  33.097   7.710   4.232
65545W        W35360  39.044  14.676   0.325
65546W        W35361  44.850  16.189  13.488
65547W        W35362  38.071   2.402  12.909
65548W        W35363  12.829  15.215   4.745
65549W        W35364  10.632  35.037   0.291
65550W        W35365   9.667  29.533  12.385
65551W        W35366   1.412  43.438  10.632
65552W        W35367   5.408  12.683  13.958
65553W        W35368  16.796  13.264  11.898
65554W        W35369  21.113  23.195   4.648
65555W        W35370  13.321   4.423   1.387
65556W        W35371  30.566  34.947   1.864
65557W        W35372  33.128   9.192   1.347
65558W        W35373  23.566  39.537  14.875
65559W        W35374  40.356  25.160   0.310
65560W        W35375  32.503  14.206   0.383
65561W        W35376  27.629  30.998   2.901
65562W        W35377  18.249  40.003  12.525
65563W        W35378  29.996  37.864   0.759
65564W        W35379  28.143  37.539   4.617
65565W        W35380  10.372  28.043   0.449
65566W        W35381  16.111   2.363   2.793
65567W        W35382  44.452  39.969  11.475
65568W        W35383  12.703  11.779   2.858
65569W        W35384  11.706  20.637  12.490
65570W        W35385  21.217   6.297   4.722
65571W        W35386  43.461  18.095   3.868
65572W        W35387  43.305  41.987   3.764
65573W        W35388  31.048  41.020   4.183
65574W        W35389   5.367  21.219  14.790
65575W        W35390   1.474  41.495  12.451
65576W        W35391  15.696   5.706  11.490
65577W        W35392  38.066  17.089   4.273
65578W        W35393  18.665  44.455  14.279
65579W        W35394  16.678  23.595  11.529
65580W        W35395  10.146  21.610   1.878
65581W        W35396  22.027  14.296   1.265
65582W        W35397  36.938  21.203   3.864
65583W        W35398   7.899  22.704   0.811
65584W        W35399  12.688  23.688  10.966
65585W        W35400  29.985  33.384  11.556
65586W        W35401   6.705  27.157   0.440
65587W        W35402  44.382  39.318  11.887
65588W        W35403  28.083  19.146  11.092
65589W        W35404  39.916   2.317  11.586
65590W        W35405   8.377  13.124   0.344
65591W        W35406   5.250  17.264  12.356
65592W        W35407  21.116   2.898  12.021
65593W        W35408  41.930  25.555   1.403
65594W        W35409  38.362   3.333  12.062
65595W        W35410  18.548  12.632  10.019
65596W        W35411  19.714  33.052  11.371
65597W        W35412  23.679  32.939  14.508
65598W        W35413  17.629   5.322   4.672
65599W        W35414  15.155  27.564  12.466
65600W        W35415  21.025  24.112   0.343
65601W        W35416  22.641  29.094   2.263
65602W        W35417  28.182  30.087  12.083
65603W        W35418  15.782  33.452   2.411
65604W        W35419  30.461  19.097  13.431
65605W        W35420  42.383  12.221   3.808
65606W        W35421  33.511  33.027   1.717
65607W        W35422   7.836  18.673   4.821
65608W        W35423   4.843   7.277  12.838
65609W        W35424  17.143  41.879   4.135
65610W        W35425   5.373   3.244   0.462
65611W        W35426  10.158   9.249   0.372
65612W        W35427   3.285  11.769  11.911
65613W        W35428  41.916  36.370  13.358
65614W        W35429  13.672   7.754  10.918
65615W        W35430  36.080   2.465   4.309
65616W        W35431   9.857   9.182   4.696
65617W        W35432  15.165  40.473  13.976
65618W        W35433  10.718  11.164  12.913
65619W        W35434  33.979  36.912   3.194
65620W        W35435  16.085  13.724  12.051
65621W        W35436  34.472  14.830   1.366
65622W        W35437  41.002  11.691   1.856
65623W        W35438  37.336  16.672  11.977
65624W        W35439  44.008  13.234  13.907
65625W        W35440   3.848   1.909   2.832
65626W        W35441  44.320  39.931  13.019
65627W        W35442   7.669  20.257  13.896
65628W        W35443  20.234   6.231  14.426
65629W        W35444  27.027  32.103   3.382
65630W        W35445  44.274  26.556  10.143
65631W        W35446  43.894  14.319  13.426
65632W        W35447  34.033   8.749  12.890
65633W        W35448  21.231  25.502   2.373
65634W        W35449  31.903  32.979  11.469
65635W        W35450  19.227  19.150   3.755
65636W        W35451  18.625   1.434  10.614
65637W        W35452   9.207  41.315   2.370
65638W        W35453  33.573  39.557   4.220
65639W        W35454  25.220  22.519  14.417
65640W        W35455  20.028   4.846  12.047
65641W        W35456  10.724  22.162   2.741
65642W        W35457   2.254   4.822  10.971
65643W        W35458  19.689  14.824  11.901
65644W        W35459   0.839   1.901  12.345
65645W        W35460  40.442  23.680  14.898
65646W        W35461  32.538  15.679   1.317
65647W        W35462  10.652  17.644   4.781
65648W        W35463  44.446  26.565   1.223
65649W        W35464   4.385  35.478   4.147
65650W        W35465  17.069  29.586  13.829
65651W        W35466  41.016  27.042  13.027
65652W        W35467  29.069  11.831  14.478
65653W        W35468   9.746  31.001  12.388
65654W        W35469  20.175  30.100   1.795
65655W        W35470  29.498  29.015  10.522
65656W        W35471  22.709  25.676   4.139
65657W        W35472   0.935  15.282   0.931
65658W        W35473   5.383  33.080   3.729
65659W        W35474   0.366  15.151  11.939
65660W        W35475  43.324   5.742   3.186
65661W        W35476  32.951   4.379  13.340
65662W        W35477  41.529   8.249  12.890
65663W        W35478  40.799  19.194  11.012
65664W        W35479   0.409  27.511  10.583
65665W        W35480  16.738   9.200  11.051
65666W        W35481  15.086  29.529   3.254
65667W        W35482  43.408  15.289   1.915
65668W        W35483  28.545  23.635   4.305
65669W        W35484  20.123  26.171  14.898
65670W        W35485  30.427   2.798  13.328
65671W        W35486  14.225  23.145  14.945
65672W        W35487  13.298  24.522  12.444
65673W        W35488  39.951  31.034   1.440
65674W        W35489   3.332  33.466   2.407
65675W        W35490   9.286   9.291  12.539
65676W        W35491  43.016  13.756   0.785
65677W        W35492  19.638  14.648  12.896
65678W        W35493  16.106  44.282  14.941
65679W        W35494  22.133  42.316   3.660
65680W        W35495  32.398  39.456   3.645
65681W        W35496  36.485  17.228   0.423
65682W        W35497  39.841  43.895  10.494
65683W        W35498   3.387  15.590   4.143
65684W        W35499  15.131  24.089   4.134
65685W        W35500   8.283  17.795  10.924
65686W        W35501  23.523  35.381  13.963
65687W        W35502  37.015  40.830   0.816
65688W        W35503  22.611  42.796   0.957
65689W        W35504  38.839  25.614   4.346
65690W        W35505   8.245  14.603  14.867
65691W        W35506  29.094   9.861   3.866
65692W        W35507  44.314  35.545   4.670
65693W        W35508  29.161  10.844   0.746
65694W        W35509  21.630  41.034  14.346
65695W        W35510   9.725   0.369   1.362
65696W        W35511   9.163   9.345   2.849
65697W        W35512   4.901  12.288  12.030
65698W        W35513  29.669   1.442   2.853
65699W        W35514  25.151  16.709  12.363
65700W        W35515  17.646  38.869  14.020
65701W        W35516  44.306  21.229  13.338
65702W        W35517   4.831  44.959   4.234
65703W        W35518  18.261  42.995   0.950
65704W        W35519  40.995  33.923   1.920
65705W        W35520  44.916  24.595  10.589
65706W        W35521  37.498  17.207   3.668
65707W        W35522  20.682  40.380  10.423
65708W        W35523  28.991  43.413  12.483
65709W        W35524  27.640  41.511  14.846
65710W        W35525   2.742  13.788   1.436
65711W        W35526  13.140   6.822  14.292
65712W        W35527   0.899  41.863   0.288
65713W        W35528  22.649   7.313   0.955
65714W        W35529  35.497  36.070   3.820
65715W        W35530  43.846  16.264   0.932
65716W        W35531   5.215  27.502  14.350
65717W        W35532  11.315   8.893  12.081
65718W        W35533  30.085  42.008   2.360
65719W        W35534   3.818  38.472  13.927
65720W        W35535  24.548  28.990   4.192
65721W        W35536   0.925  38.373   1.746
65722W        W35537  28.504  39.334   0.942
65723W        W35538  29.633   3.383   0.789
65724W        W35539  16.267  24.165  12.486
65725W        W35540   1.410   8.190  13.381
65726W        W35541  20.145  14.725   1.261
65727W        W35542  21.084  15.734   2.268
65728W        W35543  23.177  42.926  12.042
65729W        W35544  42.900  21.210   2.774
65730W        W35545  13.305  29.621  10.491
65731W        W35546  14.306  13.769   2.877
65732W        W35547  40.852  21.561  14.377
65733W        W35548   6.228  37.505   2.335
65734W        W35549   1.926  40.928   1.810
65735W        W35550  41.443   8.184   1.929
65736W        W35551  42.474  40.000   0.946
65737W        W35552  21.037  32.939   4.329
65738W        W35553  37.551   1.411  10.491
65739W        W35554   5.357  21.667  14.448
65740W        W35555  15.096   1.479   1.733
65741W        W35556  29.651   4.432   3.807
65742W        W35557  26.629  20.106  10.963
65743W        W35558  31.561  43.508  11.953
65744W        W35559  14.257  41.499  13.888
65745W        W35560   9.162  17.762   3.836
65746W        W35561  31.490  40.501  14.873
65747W        W35562   5.437  39.983   4.296
65748W        W35563  18.765  26.107   4.347
65749W        W35564  19.253  35.476  14.807
65750W        W35565  34.021  22.546  10.632
65751W        W35566  25.203  42.809   0.940
65752W        W35567  28.170   8.829   2.839
65753W        W35568  21.051  36.382   2.894
65754W        W35569   0.307  19.246  11.505
65755W        W35570  38.440  21.041  11.933
65756W        W35571  20.235   3.864  12.450
65757W        W35572  20.586  14.689   2.206
65758W        W35573  42.786  30.506  13.451
65759W        W35574  38.429  21.733  11.586
65760W        W35575   0.487  14.131  11.608
65761W        W35576  26.029   2.292   1.373
65762W        W35577  31.561  25.050  10.986
65763W        W35578   4.940  34.485   4.730
65764W        W35579  20.267  31.016  11.427
65765W        W35580  26.174  13.789   0.830
65766W        W35581  14.722  42.909   1.914
65767W        W35582  10.769  38.899   3.800
65768W        W35583  21.721  33.050   3.172
65769W        W35584  36.448  29.591   9.959
65770W        W35585  23.990  28.039  13.840
65771W        W35586  30.613  41.385  11.468
65772W        W35587  29.173   6.399  11.969
65773W        W35588  38.040  23.206   1.340
65774W        W35589  24.586  30.006  13.894
65775W        W35590  24.150  19.626   9.663
65776W        W35591   1.816  20.689   1.863
65777W        W35592  42.439  28.109   1.314
65778W        W35593  30.010  33.114   3.302
65779W        W35594  23.037  30.598   3.213
65780W        W35595  28.971  15.169  14.012
65781W        W35596   5.725  17.726   2.801
65782W        W35597  30.620  38.852   2.707
65783W        W35598   9.190   0.298   2.199
65784W        W35599  37.009   4.825   0.253
65785W        W35600  20.148  32.405  10.539
65786W        W35601  27.984  40.861  11.914
65787W        W35602  40.410  34.572  11.971
65788W        W35603  15.174  17.602   1.323
65789W        W35604  10.780  41.408  14.773
65790W        W35605  10.379  43.278  11.049
65791W        W35606  39.493  25.486   1.356
65792W        W35607  21.522  16.198  14.947
65793W        W35608  21.627   8.836  13.975
65794W        W35609  40.412  30.146  14.397
65795W        W35610  22.240   0.289  10.917
65796W        W35611  42.318  35.585   2.784
65797W        W35612  21.686   0.344  14.796
65798W        W35613   4.268  23.169  13.874
65799W        W35614  26.531   3.792   5.268
65800W        W35615  18.092  32.919   1.444
65801W        W35616  43.496   1.304  14.878
65802W        W35617  36.391  17.258   1.862
65803W        W35618  39.913  18.551   1.913
65804W        W35619  19.698  12.132   1.387
65805W        W35620  13.757  14.272   1.774
65806W        W35621  11.847   6.284   4.171
65807W        W35622  29.045  39.058   4.704
65808W        W35623  36.474   9.790   2.763
65809W        W35624  40.546   8.268  11.390
65810W        W35625  16.214  42.996  11.509
65811W        W35626  14.144  31.555  12.442
65812W        W35627  11.724   3.826   2.369
65813W        W35628   6.249  39.371   3.326
65814W        W35629  20.238  14.607  12.525
65815W        W35630  29.172   3.229  12.074
65816W        W35631  17.196   6.762  14.476
65817W        W35632   5.258  35.100  12.426
65818W        W35633   2.901  14.213   1.449
65819W        W35634   9.703  20.614   2.218
65820W        W35635  24.554  14.624   1.869
65821W        W35636  13.631  12.246  11.998
65822W        W35637  21.640  27.502  11.371
65823W        W35638  41.376   5.869   3.753
65824W        W35639  41.988  19.647   4.145
65825W        W35640  11.735  39.896  13.444
65826W        W35641  41.434  31.436   3.865
65827W        W35642  19.266   3.807   1.736
65828W        W35643  11.360  43.498  13.410
65829W        W35644  27.070  12.644  13.817
65830W        W35645   6.324  33.040   4.198
65831W        W35646  42.435  28.627   2.366
65832W        W35647   7.268  34.453   4.336
65833W        W35648   4.809  28.463   4.329
65834W        W35649   9.371  42.860   3.351
65835W        W35650  27.453  42.988   2.715
65836W        W35651   4.224  20.053   1.929
65837W        W35652   2.276  34.082  13.511
65838W        W35653   9.164   3.862   0.948
65839W        W35654  33.008  43.356  12.387
65840W        W35655   1.423   0.985   1.818
65841W        W35656  17.576  30.947   3.266
65842W        W35657  23.035  41.449  12.503
65843W        W35658  28.066  15.706  11.445
65844W        W35659  33.131  33.397  12.874
65845W        W35660  16.753  24.639   2.801
65846W        W35661  39.451  22.142   0.825
65847W        W35662  22.582  15.818  11.515
65848W        W35663  19.173  34.451   4.605
65849W        W35664  38.401   5.910  13.480
65850W        W35665  14.709  27.042   4.797
65851W        W35666  26.995  13.279   5.268
65852W        W35667   7.362   6.327   2.797
65853W        W35668  20.098  19.069  10.889
65854W        W35669  10.832  27.076   4.825
65855W        W35670  10.352  38.534  13.534
65856W        W35671  18.082  13.279   3.770
65857W        W35672  10.757  29.941  13.495
65858W        W35673  18.174  44.900   1.761
65859W        W35674  38.346  33.588  13.846
65860W        W35675  35.009  19.197  12.470
65861W        W35676  43.440  13.134  14.428
65862W        W35677   2.840  22.689   1.816
65863W        W35678  37.421  15.193   1.839
65864W        W35679  16.585   8.746  10.431
65865W        W35680   8.404  31.998  14.964
65866W        W35681  21.205  22.097   0.808
65867W        W35682  27.050  32.113  14.861
65868W        W35683  24.004  18.776  12.018
65869W        W35684  18.717  23.554  12.065
65870W        W35685   8.214  44.872   1.789
65871W        W35686  11.635  32.419   3.372
65872W        W35687  21.147  21.562  14.772
65873W        W35688   5.312  24.093  12.077
65874W        W35689   1.895  18.686   0.962
65875W        W35690   9.866  25.043  11.558
65876W        W35691  21.194   2.857  13.325
65877W        W35692  26.524   6.850  13.517
65878W        W35693  40.335  21.587  11.078
65879W        W35694  21.252  15.119  11.895
65880W        W35695  43.841   1.280  11.081
65881W        W35696  22.058   0.290   5.566
65882W        W35697   3.267   8.244  12.832
65883W        W35698  28.136  16.770  12.507
65884W        W35699  39.966  12.746  14.468
65885W        W35700   1.842   2.343  13.884
65886W        W35701   3.855  22.631   0.828
65887W        W35702   4.945   7.215   2.314
65888W        W35703  16.226  13.707   4.219
65889W        W35704  30.122   1.869   4.277
65890W        W35705  27.105  12.630   1.436
65891W        W35706  43.334  22.168   2.225
65892W        W35707   3.833  19.045  13.818
65893W        W35708  29.507  30.908   2.198
65894W        W35709  24.591   1.283   0.850
65895W        W35710  27.461  33.429   1.241
65896W        W35711  39.808  20.218   2.744
65897W        W35712   4.384   4.821  11.460
65898W        W35713   4.334  34.371  12.986
65899W        W35714  10.302  14.693  11.058
65900W        W35715  18.644   6.856  12.469
65901W        W35716  17.707  42.512  14.429
65902W        W35717   5.810   4.774  11.966
65903W        W35718  22.011  24.133  11.983
65904W        W35719  16.789  17.267  14.772
65905W        W35720  44.900  42.489  11.048
65906W        W35721   5.732   2.403  13.905
65907W        W35722  39.524  12.640  10.597
65908W        W35723  41.443   4.832  13.449
65909W        W35724  16.237   6.372  10.109
65910W        W35725  16.095  38.934   0.750
65911W        W35726   2.899  31.484  14.029
65912W        W35727   5.801  35.065   4.809
65913W        W35728  36.400  31.406  11.471
65914W        W35729  30.496  22.044   0.856
65915W        W35730   2.743   3.270   4.835
65916W        W35731   5.205  26.114  10.959
65917W        W35732  42.006  33.599   0.265
65918W        W35733  28.490  39.975   2.666
65919W        W35734  21.260  35.860   1.313
65920W        W35735  28.092  40.870  12.874
65921W        W35736  38.951  17.733   0.331
65922W        W35737  43.883   5.698  13.506
65923W        W35738  26.587  43.926  14.298
65924W        W35739  39.848  10.704  11.432
65925W        W35740   7.761   3.825   4.343
65926W        W35741   3.404  14.695   3.751
65927W        W35742   8.821   0.412  14.388
65928W        W35743  27.144  40.401  11.543
65929W        W35744  36.547  42.834   2.877
65930W        W35745  19.211  34.419   3.804
65931W        W35746  35.536  32.141   1.744
65932W        W35747  23.003  16.788  13.862
65933W        W35748  10.693  17.139   1.723
65934W        W35749  33.037  14.216  10.889
65935W        W35750  14.203  34.042  11.539
65936W        W35751  43.779   5.374   1.711
65937W        W35752  32.453  12.136  11.883
65938W        W35753   9.247   1.754  11.558
65939W        W35754  42.942  17.081   0.763
65940W        W35755  31.039  22.612   2.213
65941W        W35756  28.125  39.394   1.239
65942W        W35757  11.369  43.917   4.147
65943W        W35758  41.787   5.749   0.801
65944W        W35759  43.944  32.914  10.966
65945W        W35760  12.820  27.479   3.642
65946W        W35761  17.747  32.605   3.821
65947W        W35762   9.161  19.645  11.426
65948W        W35763  14.686  24.556   2.250
65949W        W35764  23.186  33.494  11.862
65950W        W35765  23.240  27.962   2.779
65951W        W35766  38.864  19.717   4.812
65952W        W35767  10.332  26.141  13.012
65953W        W35768  30.605  42.482   2.709
65954W        W35769   4.772  12.722   4.213
65955W        W35770  35.960  15.648  13.517
65956W        W35771  35.080  27.997   2.332
65957W        W35772  41.904  24.555   0.424
65958W        W35773  42.877  37.959  12.010
65959W        W35774  16.605  20.116  10.521
65960W        W35775   0.767   8.268  14.387
65961W        W35776   2.790  21.668   0.302
65962W        W35777  14.639   1.814   9.925
65963W        W35778   5.925  32.394  14.495
65964W        W35779  37.053   1.741  13.838
65965W        W35780  35.964  35.449   0.811
65966W        W35781  29.567   9.773  14.986
65967W        W35782  42.473  12.173  12.489
65968W        W35783  11.364  40.831   0.777
65969W        W35784  29.441  31.414   3.293
65970W        W35785   0.827  44.403  10.945
65971W        W35786  32.597   8.775   1.359
65972W        W35787  22.529  43.436   2.305
65973W        W35788  26.118   8.801   3.688
65974W        W35789  12.285  44.339  14.009
65975W        W35790  16.218   7.812  14.807
65976W        W35791  36.990  35.105  12.411
65977W        W35792  26.539   5.878   4.694
65978W        W35793   3.834  32.449  13.957
65979W        W35794  30.614   6.351   4.306
65980W        W35795  13.128   9.668   3.277
65981W        W35796  30.654  39.554   1.243
65982W        W35797  27.959  24.624  12.454
65983W        W35798  14.331  18.094  14.916
65984W        W35799   0.407  26.513  11.570
65985W        W35800   2.464  14.191   5.125
65986W        W35801  28.591  19.610  14.480
65987W        W35802  12.842  19.578   1.719
65988W        W35803  34.946  25.641  12.359
65989W        W35804  34.963  10.296  12.375
65990W        W35805  23.054  22.697  14.467
65991W        W35806   7.267  44.990   2.406
65992W        W35807   1.950  33.985  11.495
65993W        W35808  22.059  30.616  14.484
65994W        W35809   5.823  36.916  12.026
65995W        W35810  31.414   2.748  11.098
65996W        W35811  44.789   6.797   0.939
65997W        W35812   6.764  13.737   1.332
65998W        W35813   1.294  26.124  13.348
65999W        W35814  35.875  15.248   3.673
66000W        W35815  44.332  29.640   0.366
66001W        W35816  12.186   9.230   2.898
66002W        W35817  11.134   8.361   3.787
66003W        W35818   2.952  42.913   1.353
66004W        W35819  40.981  39.321  12.061
66005W        W35820  14.818  39.955   4.817
66006W        W35821  22.102  44.294   1.303
66007W        W35822   5.358   1.782   0.738
66008W        W35823  38.488  21.657  13.032
66009W        W35824  40.817  33.577  11.404
66010W        W35825  21.527  17.794   4.811
66011W        W35826   5.259  34.076   4.227
66012W        W35827  28.090   9.242  12.090
66013W        W35828  18.099  28.487   3.804
66014W        W35829   6.783  32.534  13.515
66015W        W35830  27.598   8.285  13.923
66016W        W35831  15.281  26.987   1.424
66017W        W35832  23.555  27.561   2.192
66018W        W35833  24.676  42.860   2.883
66019W        W35834   3.387  10.222  10.494
66020W        W35835  10.331  31.067  11.012
66021W        W35836  35.578  39.918  12.007
66022W        W35837  33.055  19.691   0.827
66023W        W35838   6.364  43.499  11.537
66024W        W35839  23.091   4.911   3.699
66025W        W35840   7.782  18.287  10.104
66026W        W35841  36.899  41.820  13.874
66027W        W35842   5.278   2.372  12.451
66028W        W35843  10.162  22.166  10.529
66029W        W35844  33.129   3.744   1.327
66030W        W35845   0.838  19.584   1.290
66031W        W35846  18.155   7.785   3.178
66032W        W35847  12.231  16.227  14.375
66033W        W35848   0.834   0.421   9.925
66034W        W35849  42.954  20.112  13.519
66035W        W35850  36.047  12.225   3.640
66036W        W35851  42.349  12.242  13.879
66037W        W35852  26.542  33.559  11.008
66038W        W35853  26.589  36.570  10.577
66039W        W35854  35.022  21.109   3.222
66040W        W35855  16.604  24.111  10.938
66041W        W35856  35.482  21.512   1.844
66042W        W35857  19.201  12.650   1.374
66043W        W35858  44.354   9.821   3.216
66044W        W35859  15.137  40.303   4.292
66045W        W35860   2.881  10.359   1.251
66046W        W35861  40.851  38.484   1.315
66047W        W35862  25.693  26.124  14.913
66048W        W35863  39.816  35.921  11.479
66049W        W35864   8.777   2.957   4.191
66050W        W35865  41.832   7.192   3.233
66051W        W35866  11.257  15.764   1.247
66052W        W35867   6.727   1.798  14.285
66053W        W35868  27.967  19.637  14.409
66054W        W35869   0.329  23.705   3.824
66055W        W35870  40.481  18.598   4.293
66056W        W35871  17.785   4.698  12.387
66057W        W35872  31.916  39.394  14.469
66058W        W35873  43.476  42.416   1.906
66059W        W35874   1.800   0.261   4.610
66060W        W35875  13.614  41.291   1.439
66061W        W35876  30.476  17.151   4.137
66062W        W35877   8.335  27.965   3.157
66063W        W35878  43.004  13.133   5.261
66064W        W35879   5.274   7.769   3.223
66065W        W35880  12.840  17.664  10.540
66066W        W35881   3.907  39.335  13.402
66067W        W35882  14.146   7.324  13.456
66068W        W35883  38.530   0.481   3.663
66069W        W35884  29.645  23.532   2.869
66070W        W35885  11.752  25.565  12.869
66071W        W35886  36.468  20.627  12.418
66072W        W35887  10.295  15.630   0.912
66073W        W35888   1.752  10.326   3.722
66074W        W35889  32.406   5.304  14.864
66075W        W35890   3.835  32.424   3.292
66076W        W35891   6.224   3.413   1.256
66077W        W35892  35.953  13.297  13.009
66078W        W35893  13.671  30.511  14.383
66079W        W35894  19.204   2.742   4.250
66080W        W35895  17.066  28.657   2.895
66081W        W35896   3.904   2.387  11.988
66082W        W35897  35.567  30.993  10.982
66083W        W35898  15.643   8.311  13.977
66084W        W35899  28.521   4.230   2.405
66085W        W35900  29.172  11.324   0.926
66086W        W35901   3.871  34.571   0.872
66087W        W35902  26.600  30.611   1.785
66088W        W35903  36.062   1.449  13.926
66089W        W35904  24.136  32.475  13.924
66090W        W35905  35.469  20.660   4.263
66091W        W35906  13.142   9.324   0.759
66092W        W35907   8.899  31.041  13.829
66093W        W35908  24.624   0.744  12.440
66094W        W35909  16.756  24.000   2.369
66095W        W35910  32.916  31.580   2.198
66096W        W35911   9.172   5.835   3.190
66097W        W35912  11.184  34.065   4.173
66098W        W35913   1.285   5.693  12.094
66099W        W35914  39.012  25.542   2.280
66100W        W35915  22.218  34.047  13.917
66101W        W35916  42.392  39.007  12.022
66102W        W35917  41.341  13.648   1.918
66103W        W35918  28.603  39.494  12.445
66104W        W35919  26.112  40.366   3.866
66105W        W35920  17.759  36.001  11.496
66106W        W35921  41.928   8.229  12.412
66107W        W35922  36.538  26.520  14.300
66108W        W35923  40.547   1.797   3.306
66109W        W35924  35.066   6.833   4.173
66110W        W35925  41.502  33.486  13.339
66111W        W35926   8.175  20.633  10.899
66112W        W35927   0.742  26.192   0.299
66113W        W35928   8.757  39.374   4.719
66114W        W35929  24.206  40.368   3.842
66115W        W35930  11.188   6.242  14.761
66116W        W35931  20.620  18.766   1.803
66117W        W35932  11.305   8.802  10.464
66118W        W35933   0.842  18.695   4.689
66119W        W35934  13.766  18.194   2.827
66120W        W35935  40.997   0.265  11.955
66121W        W35936  26.504  23.126   3.165
66122W        W35937  21.106   7.738   1.755
66123W        W35938  11.216  40.021   3.847
66124W        W35939  11.693  25.057   2.343
66125W        W35940  12.167   9.679   2.742
66126W        W35941  44.848  42.431  10.563
66127W        W35942  23.132   7.742  11.575
66128W        W35943  25.610  18.632   1.792
66129W        W35944  24.122  33.563   1.773
66130W        W35945   7.187  42.947   1.773
66131W        W35946  11.810   0.951  13.490
66132W        W35947  34.087  27.660  14.349
66133W        W35948  30.564   5.906  14.389
66134W        W35949  41.456  32.020   3.821
66135W        W35950  39.885  17.655  12.969
66136W        W35951  17.799  29.984  12.961
66137W        W35952  16.310  44.785   2.219
66138W        W35953  42.435  22.034   4.768
66139W        W35954  22.069  24.030   3.700
66140W        W35955  40.916  23.147  10.533
66141W        W35956  26.535  21.072  12.376
66142W        W35957  24.582  17.226   4.158
66143W        W35958  13.783  43.383  13.831
66144W        W35959  22.736   1.889  12.446
66145W        W35960   1.407  41.950   1.816
66146W        W35961   7.235  22.149  14.499
66147W        W35962  24.078  41.998   1.368
66148W        W35963  25.675  21.161  14.307
66149W        W35964  17.741   4.911   1.289
66150W        W35965  22.051  40.929   2.776
66151W        W35966  30.507  30.129  13.964
66152W        W35967   5.357  37.037   3.354
66153W        W35968  26.070  16.137  12.474
66154W        W35969  32.070  39.367  12.073
66155W        W35970   1.782  37.028   0.274
66156W        W35971  36.068  19.677   2.300
66157W        W35972  11.152  16.791   5.659
66158W        W35973  37.933  11.685  11.039
66159W        W35974   9.790  12.638  13.524
66160W        W35975   8.311  15.300  14.477
66161W        W35976  35.383  38.033  13.467
66162W        W35977   1.865  20.585   0.324
66163W        W35978  26.140  15.267  12.039
66164W        W35979  12.140  26.529  13.928
66165W        W35980  17.643  32.907  11.912
66166W        W35981  39.002  35.872  10.479
66167W        W35982  44.903  31.988  12.361
66168W        W35983  16.767  13.805  10.458
66169W        W35984  11.684  17.619  12.046
66170W        W35985   1.736  44.404   1.215
66171W        W35986  43.306   6.703   3.641
66172W        W35987  40.915  13.818   9.989
66173W        W35988  36.574  42.443  14.279
66174W        W35989  36.887  30.481  13.901
66175W        W35990  33.617  34.542  13.943
66176W        W35991  13.656   4.812  14.471
66177W        W35992  24.218   0.357  11.957
66178W        W35993   7.904   7.834  13.931
66179W        W35994  36.555   4.823   4.192
66180W        W35995  37.339  43.274   4.125
66181W        W35996   0.801  22.221  13.841
66182W        W35997  20.532  32.567  12.409
66183W        W35998  35.992   8.694   1.249
66184W        W35999  31.517  26.654   1.911
66185W        W36000  25.492  26.013  11.911
66186W        W36001   1.323  14.718   4.194
66187W        W36002  44.278  20.754  14.845
66188W        W36003  42.843  33.583  10.553
66189W        W36004   1.773  37.423  11.016
66190W        W36005   4.872   0.783   5.304
66191W        W36006  27.988  29.601   1.257
66192W        W36007   7.322   9.787  10.966
66193W        W36008  36.524   8.260   2.327
66194W        W36009  15.187  32.507   0.915
66195W        W36010  25.532  26.534  12.077
66196W        W36011  43.764  39.382  12.987
66197W        W36012   1.874   7.762   2.189
66198W        W36013  39.988   4.390   4.717
66199W        W36014  33.114   0.845  13.383
66200W        W36015  20.531  18.106   2.698
66201W        W36016  28.474  25.686   4.715
66202W        W36017   7.768   5.841  12.492
66203W        W36018  28.173  27.117   0.429
66204W        W36019  36.390  14.659  14.843
66205W        W36020  15.596  40.840  11.878
66206W        W36021  18.202  32.917   3.857
66207W        W36022  41.299  34.491  13.347
66208W        W36023  10.340  15.584   2.207
66209W        W36024  30.501  31.619  13.529
66210W        W36025  24.587  39.833   4.149
66211W        W36026  37.969  20.609   4.694
66212W        W36027   8.654  10.772  11.418
66213W        W36028   3.717   8.868  13.929
66214W        W36029  36.469   5.405   3.383
66215W        W36030  26.683  44.852  12.417
66216W        W36031  38.408  38.491   0.846
66217W        W36032  28.665  18.073   1.701
66218W        W36033  44.490  27.088  12.866
66219W        W36034  39.032  15.627  12.838
66220W        W36035   9.659  36.094   2.873
66221W        W36036  18.749   3.814  12.567
66222W        W36037  26.119  21.656  12.341
66223W        W36038  16.584  37.360   2.789
66224W        W36039  32.445  39.337   0.310
66225W        W36040  38.071   6.695   0.483
66226W        W36041  29.556  17.221   5.128
66227W        W36042  44.426  10.694  11.025
66228W        W36043  33.597   7.787  12.947
66229W        W36044  15.189  43.840   4.173
66230W        W36045  34.416  24.599   0.444
66231W        W36046  16.784  17.575   4.721
66232W        W36047  20.112   2.296   3.375
66233W        W36048  27.178  32.410   0.863
66234W        W36049  17.670  13.659  13.840
66235W        W36050  26.475   0.262   3.275
66236W        W36051  14.793  34.059   4.632
66237W        W36052  44.351  40.801   1.381
66238W        W36053   2.381  36.997  14.410
66239W        W36054  43.312   5.258  13.025
66240W        W36055  41.848  21.056   1.407
66241W        W36056  37.569   3.874  13.036
66242W        W36057  25.176   2.799  12.082
66243W        W36058  44.963  21.080   0.776
66244W        W36059  27.168   6.239   1.842
66245W        W36060  24.216  27.194  13.919
66246W        W36061  16.728  10.851  11.410
66247W        W36062  40.339  25.607  12.381
66248W        W36063  38.528  28.139   0.262
66249W        W36064   1.881  25.181   3.353
66250W        W36065  21.161  17.612  11.009
66251W        W36066  14.654  42.526  13.024
66252W        W36067  34.901  22.655  14.327
66253W        W36068  31.594  44.464  12.831
66254W        W36069  41.869  44.295   4.785
66255W        W36070  16.811  29.592   0.440
66256W        W36071  41.424  15.754  12.940
66257W        W36072  25.622  37.947   0.347
66258W        W36073  33.957  26.084   4.730
66259W        W36074  32.019   1.436  12.004
66260W        W36075  36.883  25.181   4.723
66261W        W36076  32.400   7.871   3.211
66262W        W36077  40.327  38.553  13.875
66263W        W36078  11.281  39.918  12.859
66264W        W36079  41.915   1.338  11.035
66265W        W36080  21.577  33.404   2.778
66266W        W36081  20.722  19.231   2.671
66267W        W36082  39.023  41.967  12.553
66268W        W36083  28.621  27.627   4.273
66269W        W36084  37.076  36.381  14.485
66270W        W36085  44.370  21.643  10.594
66271W        W36086  29.928  40.304  14.974
66272W        W36087   1.371  12.285  13.901
66273W        W36088  32.961  23.076  10.622
66274W        W36089   2.858   2.966  12.869
66275W        W36090  18.256   5.344  11.114
66276W        W36091  28.082   3.280  10.606
66277W        W36092   7.704   4.369  12.538
66278W        W36093  20.666   1.301   3.213
66279W        W36094  43.965  28.622  13.518
66280W        W36095   9.199  30.938   2.254
66281W        W36096  30.049   9.278  12.459
66282W        W36097  35.989  27.668   0.355
66283W        W36098  35.043   0.337   2.680
66284W        W36099  30.523  37.416  10.887
66285W        W36100  44.854   3.324   3.684
66286W        W36101  33.422  41.369   2.793
66287W        W36102  24.026  37.079  14.766
66288W        W36103  37.431  13.783  10.523
66289W        W36104   6.918  40.955  10.042
66290W        W36105   3.431   3.234   0.359
66291W        W36106   7.241   7.903   0.398
66292W        W36107  20.664  31.441   1.803
66293W        W36108  15.263  21.097  14.792
66294W        W36109   1.364  39.336   4.212
66295W        W36110  34.892  22.060  10.525
66296W        W36111  11.367  17.297   0.248
66297W        W36112  26.029   3.267  13.023
66298W        W36113  36.524  26.578  13.446
66299W        W36114   3.267  29.035  13.420
66300W        W36115  12.621  44.896   0.460
66301W        W36116   6.293   7.370   4.162
66302W        W36117  44.488   1.299   2.780
66303W        W36118  15.791  16.572   3.211
66304W        W36119  32.994   1.285  11.928
66305W        W36120  22.642  39.041   3.789
66306W        W36121  16.259  43.419   1.405
66307W        W36122  32.614  44.003  14.880
66308W        W36123  31.640  24.061   2.229
66309W        W36124  43.432  27.629   3.687
66310W        W36125  12.315   3.421   2.203
66311W        W36126   0.957   5.754  13.047
66312W        W36127  15.770  42.805   3.315
66313W        W36128  42.324  18.155  13.008
66314W        W36129   1.838  24.514   0.442
66315W        W36130   1.430  29.921   3.384
66316W        W36131   9.740   0.482  12.340
66317W        W36132  33.058   2.302  14.805
66318W        W36133  39.507  32.564  14.339
66319W        W36134  10.823  27.151   3.224
66320W        W36135  43.339  19.149   2.188
66321W        W36136   4.861  29.556   3.799
66322W        W36137   5.895  41.898  11.892
66323W        W36138  13.309   7.778   2.682
66324W        W36139  21.525  26.557  11.595
66325W        W36140   6.395   6.903  14.341
66326W        W36141  36.899   3.269   0.927
66327W        W36142  28.464  36.593   3.742
66328W        W36143  19.047  23.099   4.770
66329W        W36144  40.474  24.112  13.057
66330W        W36145   7.854   2.796  13.913
66331W        W36146  41.988  16.254   5.800
66332W        W36147  11.367  18.560  12.366
66333W        W36148  13.329  18.756   1.910
66334W        W36149  44.456  19.173  11.520
66335W        W36150   6.237  24.985   9.940
66336W        W36151  37.861   1.353   0.877
66337W        W36152  44.946  26.999  10.492
66338W        W36153  14.606   1.242   3.196
66339W        W36154  31.970   3.742  10.591
66340W        W36155   7.311  28.625  12.530
66341W        W36156  39.315  15.106   2.392
66342W        W36157   1.901   5.733   3.360
66343W        W36158  18.084  44.472  12.867
66344W        W36159  19.633  39.529  12.390
66345W        W36160  16.652  22.021   3.844
66346W        W36161  20.036  17.709   2.759
66347W        W36162  23.733  40.810  11.567
66348W        W36163  11.166  37.053   4.810
66349W        W36164  16.611  26.093  12.845
66350W        W36165  44.876   1.366   4.283
66351W        W36166  38.457  30.922   0.473
66352W        W36167   5.895  21.619  14.407
66353W        W36168  14.178  41.949  11.018
66354W        W36169   0.301  42.437   0.913
66355W        W36170  31.620  27.634  10.503
66356W        W36171  40.483  17.697  11.026
66357W        W36172  22.592  30.590  10.983
66358W        W36173  26.499   5.689  13.830
66359W        W36174   4.441   0.780   2.347
66360W        W36175  43.808  36.586  12.470
66361W        W36176  20.693   4.342   0.444
66362W        W36177  14.139  16.293   2.777
66363W        W36178  27.621   3.431  14.379
66364W        W36179  42.427  30.076  10.410
66365W        W36180  14.183  18.095  10.499
66366W        W36181  25.173  36.457   3.830
66367W        W36182  17.755  13.780  12.554
66368W        W36183  40.436  30.018  10.425
66369W        W36184  18.570  18.071  14.312
66370W        W36185  21.693   5.369  11.530
66371W        W36186  31.432  15.144   1.857
66372W        W36187  11.229  26.070  13.401
66373W        W36188  39.818  38.346  14.908
66374W        W36189  10.374  28.131  10.983
66375W        W36190  13.600  36.098  11.423
66376W        W36191   3.715  26.659  13.843
66377W        W36192  25.981   9.849   2.276
66378W        W36193  43.840  33.942   2.779
66379W        W36194   0.314  36.891  10.456
66380W        W36195  21.178  44.376   2.818
66381W        W36196   2.942  27.988  11.583
66382W        W36197  16.189   7.413   0.760
66383W        W36198  26.682  38.499  12.453
66384W        W36199  42.885  35.589  13.520
66385W        W36200  37.545  11.229  13.387
66386W        W36201   6.292  14.668  12.985
66387W        W36202  44.423   9.822   0.773
66388W        W36203  23.497  39.448  12.931
66389W        W36204   1.779  43.999   1.720
66390W        W36205  41.976   3.925   1.706
66391W        W36206  18.244   6.903   0.935
66392W        W36207  13.827  21.653   2.220
66393W        W36208  37.345   8.255   1.810
66394W        W36209  18.253  37.004  12.450
66395W        W36210  18.192   7.188  11.477
66396W        W36211  34.105   3.932   1.435
66397W        W36212  21.696   4.396   4.288
66398W        W36213   8.663  16.791  11.457
66399W        W36214  13.674   7.846   1.866
66400W        W36215  26.556  26.108   3.676
66401W        W36216  31.620  15.265  12.411
66402W        W36217  35.067  35.496   3.786
66403W        W36218  28.176   6.827  12.024
66404W        W36219  19.741  21.720   2.757
66405W        W36220  10.723  43.903  12.954
66406W        W36221  24.131  15.226  14.348
66407W        W36222  23.562  44.904   0.797
66408W        W36223  11.735  18.667   4.823
66409W        W36224  40.386  23.711  13.486
66410W        W36225  16.576  23.708   4.216
66411W        W36226  29.461  14.137  14.982
66412W        W36227   1.848  23.155   2.201
66413W        W36228  29.056  28.035   4.832
66414W        W36229   6.246  39.378  14.436
66415W        W36230  20.744  33.931  10.560
66416W        W36231  10.331  10.383  13.421
66417W        W36232   9.212  22.598   2.206
66418W        W36233  26.004  41.454   3.209
66419W        W36234  11.760  36.465   4.717
66420W        W36235  14.814  20.180  12.880
66421W        W36236   1.795   0.268  12.015
66422W        W36237  37.518  19.728  11.947
66423W        W36238  25.613   0.328   1.708
66424W        W36239  20.156  14.173   3.240
66425W        W36240  26.003  27.061   2.213
66426W        W36241  35.523  25.588  12.965
66427W        W36242  26.524  34.423   1.299
66428W        W36243  11.363  20.145   2.324
66429W        W36244  38.903  11.246  11.490
66430W        W36245   5.742  42.981  11.573
66431W        W36246  29.095  31.503  14.390
66432W        W36247   0.770  21.625   0.902
66433W        W36248  14.272  25.552   2.305
66434W        W36249  22.517  13.695  10.561
66435W        W36250   6.885  42.889   1.920
66436W        W36251  27.195  12.179  13.374
66437W        W36252  12.825  18.213  10.924
66438W        W36253  19.717  38.850   0.819
66439W        W36254  43.388  24.543  10.631
66440W        W36255  14.747  42.874   0.833
66441W        W36256  29.091  37.950   2.786
66442W        W36257  44.778   2.412  10.521
66443W        W36258  41.527   9.842  14.893
66444W        W36259  24.596  35.037  11.055
66445W        W36260  41.837  18.686  14.829
66446W        W36261   0.972  35.881   1.216
66447W        W36262  20.674   5.787   3.271
66448W        W36263  19.254   7.257  14.400
66449W        W36264  19.671  25.055   2.373
66450W        W36265  39.918   8.262   9.989
66451W        W36266   1.396  10.844   0.858
66452W        W36267  10.755  27.633  14.421
66453W        W36268  25.531  18.188  10.577
66454W        W36269  10.738   5.271  14.904
66455W        W36270   1.361  31.081   3.738
66456W        W36271   4.434  12.287  14.395
66457W        W36272  24.657  26.504  14.392
66458W        W36273   5.788  34.959  12.571
66459W        W36274   9.296  26.513  13.049
66460W        W36275  10.710  27.644  10.437
66461W        W36276  33.473  32.941  11.406
66462W        W36277  20.523  44.336  13.904
66463W        W36278  18.211  30.582   4.631
66464W        W36279  21.652  30.481  14.956
66465W        W36280  18.181  26.509   2.284
66466W        W36281  22.552  38.040   2.306
66467W        W36282   1.972  41.934  12.503
66468W        W36283  43.821  16.654   2.882
66469W        W36284   8.252  21.543  10.968
66470W        W36285   7.843  35.403  12.932
66471W        W36286  25.172   1.431  11.037
66472W        W36287   7.184  42.418   2.885
66473W        W36288  44.451  21.666   3.336
66474W        W36289  20.224  28.575  11.032
66475W        W36290  36.903  40.501  11.927
66476W        W36291  27.584  40.963  13.804
66477W        W36292  42.968  27.652  12.428
66478W        W36293  41.535  36.431  10.587
66479W        W36294  15.604  26.693   3.331
66480W        W36295  18.704  29.552   3.259
66481W        W36296   8.366  41.330   4.138
66482W        W36297   4.803   8.737  13.045
66483W        W36298  27.065  12.836  14.998
66484W        W36299  43.835  42.850   1.348
66485W        W36300  32.100  38.429   0.418
66486W        W36301  19.570  39.048   1.748
66487W        W36302  44.458  22.536   2.389
66488W        W36303  21.053   4.827  12.873
66489W        W36304  23.093  37.953   2.277
66490W        W36305  43.916   8.384   0.467
66491W        W36306  33.130   5.247  12.978
66492W        W36307  13.349  30.148   4.823
66493W        W36308  20.224  10.854   1.845
66494W        W36309  26.603  12.671  12.364
66495W        W36310  21.069  27.679   4.130
66496W        W36311   6.221  10.323   5.274
66497W        W36312   0.885  17.693  11.916
66498W        W36313   9.362  10.300   1.370
66499W        W36314  30.946  26.177  12.876
66500W        W36315   9.676  10.636   2.742
66501W        W36316   6.299   9.847   1.421
66502W        W36317  17.731  24.485   2.812
66503W        W36318  12.801  37.570  14.997
66504W        W36319  22.157  40.518   0.286
66505W        W36320  42.402  44.944   2.328
66506W        W36321  30.037  42.348   4.114
66507W        W36322  16.788  17.158  12.368
66508W        W36323  41.938  10.283   0.305
66509W        W36324   4.356  29.068  13.999
66510W        W36325  25.179  22.246  10.436
66511W        W36326  29.475  26.631   4.796
66512W        W36327  23.631  28.594  13.516
66513W        W36328  32.426   8.750  10.439
66514W        W36329  44.467   4.260   0.938
66515W        W36330  36.072   0.316  12.999
66516W        W36331  16.642  11.809   1.767
66517W        W36332   5.752  32.614  12.895
66518W        W36333   5.709   1.862   4.734
66519W        W36334  44.986  24.150   0.896
66520W        W36335  25.561   2.276   4.267
66521W        W36336  35.866  36.895   2.699
66522W        W36337  44.263  42.794  11.039
66523W        W36338   3.287  44.360   1.421
66524W        W36339  33.409  43.344   3.374
66525W        W36340  33.898   6.283   0.348
66526W        W36341  33.516  20.227   4.169
66527W        W36342  10.154   4.441  11.028
66528W        W36343  27.179  30.035   1.309
66529W        W36344   0.360  33.070   4.616
66530W        W36345  26.020  35.073   3.853
66531W        W36346  32.430  37.912   1.716
66532W        W36347  31.119   5.791  13.888
66533W        W36348  37.075   9.783   1.876
66534W        W36349  21.738  41.889  14.305
66535W        W36350   2.875  43.891   4.257
66536W        W36351  40.036  39.357   1.412
66537W        W36352   4.753  25.470  14.789
66538W        W36353  29.007  19.072   4.822
66539W        W36354  43.444  43.907   0.407
66540W        W36355   7.714  36.922  11.008
66541W        W36356  18.649  14.823   1.814
66542W        W36357  35.065  13.314  13.545
66543W        W36358  29.569   1.244   1.933
66544W        W36359  33.488   1.353  11.374
66545W        W36360  27.999  18.773   5.206
66546W        W36361  40.382   3.255  12.984
66547W        W36362  14.697  18.290  11.903
66548W        W36363  21.228  26.173   0.757
66549W        W36364  12.278  14.821   0.783
66550W        W36365  35.529  19.100   1.869
66551W        W36366  23.538   8.368  12.412
66552W        W36367  40.968  12.179  11.591
66553W        W36368  26.635  37.559   3.662
66554W        W36369  19.150  24.710  11.890
66555W        W36370   2.905  42.387   2.761
66556W        W36371  15.274  30.071   2.789
66557W        W36372  18.633  10.372  10.492
66558W        W36373  26.978  23.669   0.802
66559W        W36374   6.911  40.810   4.311
66560W        W36375  11.718  36.486   0.459
66561W        W36376  19.558  27.124   3.749
66562W        W36377  19.248  21.108   0.965
66563W        W36378  37.432  15.650   5.195
66564W        W36379  44.835  31.974  14.956
66565W        W36380   3.933  24.103   0.960
66566W        W36381   2.468   1.820   2.315
66567W        W36382  19.544  20.052   1.270
66568W        W36383  42.368  42.369  14.503
66569W        W36384  44.760  32.624  14.812
66570W        W36385  42.459  33.397   3.191
66571W        W36386   6.686  16.304   4.698
66572W        W36387  18.729  42.485   4.133
66573W        W36388  21.175  26.700  12.528
66574W        W36389   3.811  44.400  11.571
66575W        W36390   8.714   8.698   4.768
66576W        W36391  27.114  16.204   1.432
66577W        W36392  10.734  42.006   4.825
66578W        W36393  34.611   2.866  14.926
66579W        W36394   8.682  40.964   2.354
66580W        W36395  19.090  15.632  12.049
66581W        W36396  38.942  32.454   1.743
66582W        W36397   8.272   3.932   0.315
66583W        W36398  34.439  29.076  14.508
66584W        W36399  12.674  41.025  10.638
66585W        W36400  17.790  36.492   3.697
66586W        W36401  34.101   0.940  13.424
66587W        W36402  37.572  19.673   1.360
66588W        W36403  33.564  15.757  11.073
66589W        W36404  36.031  18.270  11.576
66590W        W36405  27.675  40.524   2.307
66591W        W36406   7.671   5.803   4.770
66592W        W36407   1.373  28.970  13.992
66593W        W36408  21.511  12.756  13.959
66594W        W36409  33.537   3.360  11.591
66595W        W36410  26.514   1.864   3.265
66596W        W36411  30.534  20.665   1.271
66597W        W36412  19.743  42.832  14.864
66598W        W36413  21.233   5.377   0.374
66599W        W36414  15.600  12.291  14.467
66600W        W36415  21.229  21.157  10.532
66601W        W36416  16.748  22.124   0.866
66602W        W36417  35.048  11.138  11.468
66603W        W36418  26.684  10.790  11.006
66604W        W36419  28.024  37.926   4.207
66605W        W36420  24.556   4.236   1.429
66606W        W36421  14.618  12.703   1.813
66607W        W36422   9.240  30.977  13.822
66608W        W36423  37.381  10.362  12.527
66609W        W36424  27.190   5.295   3.255
66610W        W36425   7.713  31.530  11.568
66611W        W36426  21.523  21.539   0.962
66612W        W36427   2.458  16.706   2.848
66613W        W36428  21.224   2.387   2.747
66614W        W36429  23.043  19.555   4.716
66615W        W36430   8.344   7.300  12.052
66616W        W36431  35.099  36.588  14.020
66617W        W36432  22.695  24.141   0.446
66618W        W36433  20.166  30.136  14.800
66619W        W36434  23.555  36.942   4.649
66620W        W36435  31.948  26.665   2.327
66621W        W36436  43.772  17.231   2.767
66622W        W36437  23.237   2.753  10.412
66623W        W36438  10.161  40.817   1.790
66624W        W36439  29.629  26.645   0.955
66625W        W36440  17.172  10.352   0.956
66626W        W36441  28.622  43.415   3.194
66627W        W36442   0.779  34.569   2.865
66628W        W36443  13.831   9.755  11.489
66629W        W36444  43.297  25.970  13.826
66630W        W36445   5.894   3.418   2.371
66631W        W36446  39.485  19.043   1.884
66632W        W36447  21.051   2.235   3.273
66633W        W36448  40.917  21.138   1.779
66634W        W36449   4.273  43.309  11.514
66635W        W36450   3.759  20.050   0.779
66636W        W36451   8.329  33.099  14.769
66637W        W36452   3.765   0.467  14.398
66638W        W36453  16.736   2.816   3.711
66639W        W36454   2.794   1.475   1.863
66640W        W36455  31.514  43.848  12.546
66641W        W36456  11.742  13.178   0.417
66642W        W36457  21.692   6.875  12.823
66643W        W36458  17.285  42.338  14.438
66644W        W36459  21.694  33.011  14.398
66645W        W36460  13.634  30.146  14.353
66646W        W36461   2.339  32.972  10.436
66647W        W36462  23.701   1.267  11.124
66648W        W36463  16.611  22.239  13.876
66649W        W36464   4.749  18.259  12.091
66650W        W36465  14.149   2.407   4.320
66651W        W36466  30.417   2.344   2.259
66652W        W36467  34.921  20.134   0.728
66653W        W36468   6.705  13.144   4.811
66654W        W36469  17.248   1.867  12.579
66655W        W36470   9.890  38.463  14.282
66656W        W36471  41.358  18.588   2.415
66657W        W36472  26.097  25.497   1.880
66658W        W36473  44.337  18.746   4.646
66659W        W36474  11.638  34.580   3.234
66660W        W36475  27.049   5.702   3.706
66661W        W36476  13.817   4.285   2.373
66662W        W36477  38.036  20.259  14.431
66663W        W36478  16.134  24.038   4.197
66664W        W36479   6.261  15.661  12.876
66665W        W36480  16.720   5.790  12.029
66666W        W36481  35.923  11.186  14.407
66667W        W36482   6.187   6.754   0.964
66668W        W36483   3.358  41.836   3.179
66669W        W36484  35.101  31.583  13.975
66670W        W36485  39.921  16.747   1.799
66671W        W36486  19.050  37.581   1.433
66672W        W36487  11.156   1.310   1.719
66673W        W36488  36.403  38.531   3.359
66674W        W36489  34.977  24.720   0.740
66675W        W36490  39.995  38.464   3.824
66676W        W36491  38.486  26.511  11.602
66677W        W36492   2.275   7.762  10.626
66678W        W36493  19.049  23.018   3.261
66679W        W36494   0.375  36.029   4.666
66680W        W36495  12.779   7.254   1.342
66681W        W36496  31.536   7.272   1.910
66682W        W36497  38.839  16.140   1.911
66683W        W36498   4.740  21.117   0.853
66684W        W36499  16.316   9.752  10.536
66685W        W36500  11.699   4.884  11.526
66686W        W36501  10.639  44.994   2.377
66687W        W36502  10.142  24.708  10.467
66688W        W36503  36.964  13.814   3.160
66689W        W36504  20.271  10.657   2.686
66690W        W36505  35.083  17.648   0.294
66691W        W36506  17.213  10.157  14.955
66692W        W36507   2.816  33.897  13.382
66693W        W36508   7.394   8.886   0.392
66694W        W36509   9.172   7.240  11.378
66695W        W36510  26.061   0.294   2.214
66696W        W36511   4.239  10.707  12.918
66697W        W36512  41.827   4.371   2.323
66698W        W36513  40.826   7.720   3.311
66699W        W36514  43.013  14.759  13.012
66700W        W36515  34.014  12.340   0.266
66701W        W36516  34.883  15.743  10.053
66702W        W36517  14.137   9.326  11.982
66703W        W36518  17.270  19.755   3.688
66704W        W36519  23.621  21.155   0.859
66705W        W36520  26.185  21.519   4.710
66706W        W36521  22.663  41.360   2.702
66707W        W36522   2.844  23.027   2.699
66708W        W36523   4.359   8.271   3.372
66709W        W36524  31.099  43.459  14.424
66710W        W36525   6.385  27.670   3.346
66711W        W36526  37.864  34.595   0.317
66712W        W36527  29.624  30.510  11.016
66713W        W36528  32.598  18.235  11.981
66714W        W36529  22.243  12.133  13.499
66715W        W36530   5.916   9.753   0.934
66716W        W36531   1.331   5.380  13.918
66717W        W36532  44.409   8.848  10.037
66718W        W36533   9.677   7.401   0.839
66719W        W36534  12.148  37.965  12.013
66720W        W36535  15.763   3.410  10.533
66721W        W36536  16.208  34.946   0.791
66722W        W36537   9.706  10.712  14.900
66723W        W36538   5.829  18.758  13.528
66724W        W36539   4.865   8.236   0.475
66725W        W36540  44.938  14.193  12.871
66726W        W36541   3.419  18.776   3.230
66727W        W36542  26.583  24.072  10.913
66728W        W36543  36.420  27.492  13.804
66729W        W36544  16.104  41.971  12.902
66730W        W36545  34.076  16.644  12.008
66731W        W36546  19.570  38.027  11.915
66732W        W36547  42.914  25.696  14.411
66733W        W36548  28.160  30.042   4.311
66734W        W36549   5.728  11.646   4.212
66735W        W36550   3.262  28.449   4.304
66736W        W36551   5.836  24.543   4.640
66737W        W36552  44.007  18.572   4.281
66738W        W36553  15.098   2.938   2.835
66739W        W36554  32.965  11.623   4.641
66740W        W36555   1.748   8.302  12.885
66741W        W36556  41.800  26.011   2.194
66742W        W36557   4.792  24.181   9.919
66743W        W36558  44.790   7.274  12.972
66744W        W36559  33.930  13.276  13.919
66745W        W36560  10.331  24.029   2.697
66746W        W36561  22.514  21.035   4.266
66747W        W36562   8.879   0.312  11.865
66748W        W36563   3.237  22.675   2.302
66749W        W36564   6.377  17.642   3.737
66750W        W36565  35.358  17.644  12.360
66751W        W36566  14.673  25.200  10.583
66752W        W36567   0.277  35.583   0.785
66753W        W36568  30.565  24.163   0.819
66754W        W36569  15.102  31.436  12.534
66755W        W36570   8.393  22.556  11.122
66756W        W36571   1.846   9.877   1.741
66757W        W36572  26.573  27.058  12.980
66758W        W36573  10.820   1.964   3.636
66759W        W36574  24.567  36.557  13.462
66760W        W36575  12.281  21.176   3.148
66761W        W36576  21.176  40.318   2.257
66762W        W36577  41.023  36.464  13.876
66763W        W36578  29.072  13.660   0.326
66764W        W36579  21.243  12.807  10.949
66765W        W36580  43.332  13.776   4.139
66766W        W36581  44.463  35.051   2.184
66767W        W36582  13.681  15.214  13.534
66768W        W36583  37.855  23.115  10.925
66769W        W36584  29.976  32.552   2.695
66770W        W36585  31.076  36.540  11.455
66771W        W36586  15.161  44.810   0.255
66772W        W36587  13.136   2.399  10.492
66773W        W36588  17.307   9.885  13.045
66774W        W36589  24.503   2.811  10.544
66775W        W36590  42.329  16.100  14.500
66776W        W36591   5.806  29.949   4.288
66777W        W36592  10.753  16.077   0.341
66778W        W36593  43.313  22.164  14.411
66779W        W36594  18.078  34.923  10.405
66780W        W36595  25.671  24.573  12.494
66781W        W36596  41.321  43.004   0.467
66782W        W36597  10.680  44.289  10.427
66783W        W36598  17.606  25.681  12.879
66784W        W36599   2.902   0.818   1.263
66785W        W36600  29.510   2.272   4.277
66786W        W36601  12.722  31.037  12.459
66787W        W36602  27.032  22.103  13.914
66788W        W36603  25.062  37.909  13.873
66789W        W36604  27.595  34.390  11.005
66790W        W36605  39.557   0.875   3.718
66791W        W36606  24.045  38.378  12.415
66792W        W36607  28.437  31.562  14.421
66793W        W36608  44.433   8.261   3.827
66794W        W36609  36.541  20.164   2.834
66795W        W36610  35.055   2.356   4.761
66796W        W36611  22.136  14.603   3.720
66797W        W36612  32.584  24.567   4.775
66798W        W36613  15.762  37.871   0.360
66799W        W36614  44.268  14.595  14.471
66800W        W36615  14.298  11.331   3.297
66801W        W36616  15.638  34.594   2.338
66802W        W36617   2.355  17.287  10.606
66803W        W36618  12.143  36.584   2.269
66804W        W36619   2.932   3.447   4.312
66805W        W36620  17.212   6.224   1.824
66806W        W36621  14.170  15.654  12.844
66807W        W36622   5.266  10.757  11.543
66808W        W36623  16.587  35.358   4.289
66809W        W36624   5.914   5.209  11.406
66810W        W36625  38.992  35.989  10.956
66811W        W36626  27.158   8.176  13.501
66812W        W36627  20.031  28.047  14.511
66813W        W36628  10.207   7.313  10.057
66814W        W36629  34.601  38.403   3.649
66815W        W36630  36.901  38.936  12.006
66816W        W36631  38.407   7.268  10.102
66817W        W36632  34.595  13.195   2.845
66818W        W36633  26.619  25.129   2.359
66819W        W36634  23.145  37.352   0.340
66820W        W36635  40.932  38.992  10.930
66821W        W36636  22.621  44.463   4.807
66822W        W36637   8.235  25.485   3.730
66823W        W36638  40.942  12.209   2.411
66824W        W36639  42.429  27.532  12.554
66825W        W36640   8.821  37.894  12.484
66826W        W36641  25.196  10.318   0.924
66827W        W36642   3.334   5.898   3.301
66828W        W36643   0.767  37.066  10.639
66829W        W36644   5.905  38.561   4.797
66830W        W36645  20.028  21.251  10.607
66831W        W36646  27.078  39.477  13.859
66832W        W36647   2.837  23.671  14.799
66833W        W36648  24.078  25.155   4.345
66834W        W36649  23.729  30.473  12.039
66835W        W36650  44.909  32.541  12.449
66836W        W36651   7.755   0.284   1.253
66837W        W36652   6.295  31.610  10.422
66838W        W36653  31.466  25.693   1.817
66839W        W36654  33.960   1.341   2.241
66840W        W36655  31.418  17.066   0.771
66841W        W36656  12.719  23.045  13.378
66842W        W36657  34.046  34.006   1.926
66843W        W36658   2.416  41.967  13.466
66844W        W36659  43.833   2.784  13.406
66845W        W36660  29.540  21.646  11.495
66846W        W36661  23.153  28.630   1.279
66847W        W36662   1.752   7.733  12.519
66848W        W36663   8.230  13.769  10.567
66849W        W36664  23.626  19.775  14.989
66850W        W36665  19.656   7.321  11.587
66851W        W36666  35.432  13.298  14.825
66852W        W36667   2.924  10.275  10.473
66853W        W36668  23.208  19.181   0.852
66854W        W36669  13.686  32.936  10.484
66855W        W36670   3.750  11.763  14.840
66856W        W36671  11.832  23.501   4.722
66857W        W36672   3.853  37.350   0.362
66858W        W36673  19.676   1.855  14.807
66859W        W36674   6.783  17.213  11.890
66860W        W36675  40.955  10.166   2.208
66861W        W36676  20.109  35.014  13.020
66862W        W36677  14.622  15.627   4.759
66863W        W36678   6.886   8.360   0.951
66864W        W36679  19.102  36.869  10.566
66865W        W36680  44.454  11.783   2.240
66866W        W36681   6.427  21.257  11.068
66867W        W36682  43.917  44.885  10.964
66868W        W36683  10.861  10.300  11.010
66869W        W36684  36.424  21.204   3.215
66870W        W36685  21.567   3.345  11.522
66871W        W36686  41.952   0.814  11.573
66872W        W36687  19.593  13.791  11.473
66873W        W36688   9.262  38.490   0.473
66874W        W36689  13.297  24.192  13.853
66875W        W36690  27.121  18.281  10.629
66876W        W36691  30.605  16.089   1.742
66877W        W36692   8.333  15.134   2.261
66878W        W36693  33.905  37.876  14.304
66879W        W36694  30.658  33.088  12.893
66880W        W36695  30.570  44.382  13.867
66881W        W36696  20.118  37.048  13.000
66882W        W36697   7.721  27.133   2.310
66883W        W36698   5.242  31.051   3.750
66884W        W36699  41.846   8.231  13.930
66885W        W36700  11.197  41.848  11.953
66886W        W36701  32.940  12.209   1.425
66887W        W36702  11.763  25.093  12.043
66888W        W36703  26.557   3.333   2.789
66889W        W36704  44.268  24.570  13.058
66890W        W36705  33.405  25.625  10.596
66891W        W36706  19.571  35.901   3.789
66892W        W36707  12.196  39.398   0.372
66893W        W36708  40.813   0.456   5.215
66894W        W36709  23.588  10.863   2.289
66895W        W36710  38.499  38.024   4.786
66896W        W36711   5.352   5.206   4.612
66897W        W36712  20.189   0.774   2.778
66898W        W36713  17.579  38.397   1.816
66899W        W36714  42.295  26.512  10.461
66900W        W36715  36.413   4.263  11.975
66901W        W36716  22.622  17.230   0.350
66902W        W36717  18.619  34.897   1.698
66903W        W36718   4.326  31.402  11.126
66904W        W36719  32.888   1.427   0.821
66905W        W36720   8.703  36.484  14.761
66906W        W36721   8.335  30.566  11.111
66907W        W36722   4.725  37.843   4.327
66908W        W36723   3.338   6.265  10.980
66909W        W36724  33.942  11.670  10.643
66910W        W36725   3.877  30.500  13.044
66911W        W36726  23.513  12.703  12.889
66912W        W36727  42.486  37.418   0.467
66913W        W36728   9.685  41.405   9.567
66914W        W36729  42.482  22.680   0.469
66915W        W36730  27.184   7.685   3.234
66916W        W36731   4.382   9.331   3.288
66917W        W36732  32.513  12.272  14.507
66918W        W36733  15.643  33.974  12.527
66919W        W36734  39.925  37.455  12.518
66920W        W36735   4.823  17.780  12.067
66921W        W36736   6.195  34.563  11.062
66922W        W36737   6.183  33.492   2.748
66923W        W36738   6.777  17.567   4.672
66924W        W36739   6.290  15.648   0.953
66925W        W36740  44.966  19.647  10.509
66926W        W36741   6.894  31.046   3.737
66927W        W36742  40.844  34.039   1.358
66928W        W36743  25.678  22.133  12.014
66929W        W36744  29.584  29.949   2.775
66930W        W36745  13.339  22.241  14.790
66931W        W36746  13.294  27.032  14.814
66932W        W36747  37.903  41.946   0.252
66933W        W36748   3.251   0.311  10.026
66934W        W36749  25.566  39.478   1.231
66935W        W36750  41.990  35.907   4.283
66936W        W36751  30.150  37.926   3.739
66937W        W36752  10.195   3.948  13.841
66938W        W36753  42.856  28.461   0.412
66939W        W36754  40.427  13.785  11.498
66940W        W36755  38.047  16.152   4.139
66941W        W36756  37.343   2.929  14.506
66942W        W36757  25.625  43.948   1.903
66943W        W36758  22.552  11.790   5.172
66944W        W36759  29.053  43.906  14.021
66945W        W36760   8.830   5.342   4.664
66946W        W36761   6.379  29.035   0.294
66947W        W36762   6.757  14.623  10.448
66948W        W36763  27.644  38.534  14.405
66949W        W36764  42.941  38.369   3.201
66950W        W36765   6.733  29.028  12.898
66951W        W36766  42.280  10.296   4.124
66952W        W36767  11.147   9.297  11.450
66953W        W36768  24.504  19.634   3.783
66954W        W36769  17.563  23.038   1.899
66955W        W36770   4.911  25.079   5.277
66956W        W36771  24.666   3.916  14.008
66957W        W36772  29.592  13.180  13.864
66958W        W36773  42.983  33.601  14.413
66959W        W36774   0.347   6.799  14.944
66960W        W36775  21.738  36.549  14.983
66961W        W36776  12.721  20.548  12.425
66962W        W36777  13.334  35.363  10.638
66963W        W36778  27.984  42.472   2.304
66964W        W36779   1.914  34.972   4.732
66965W        W36780  34.578  11.702  13.406
66966W        W36781   5.765  31.647   2.678
66967W        W36782   4.864  27.624  13.335
66968W        W36783  38.040   0.334   0.350
66969W        W36784   8.354   2.743  14.900
66970W        W36785   6.884   4.349  11.077
66971W        W36786  33.060   3.215   2.811
66972W        W36787  10.846  40.305  14.800
66973W        W36788   2.768  30.445  11.409
66974W        W36789  17.681  35.912   1.330
66975W        W36790  16.162  33.120   3.640
66976W        W36791  25.693  17.282   2.410
66977W        W36792  22.747  17.623   2.221
66978W        W36793  34.894  26.481  13.345
66979W        W36794  38.900  25.965  13.857
66980W        W36795   7.203  36.908  12.958
66981W        W36796  13.785  43.990  10.608
66982W        W36797  25.495  30.549  10.579
66983W        W36798  28.141  25.133  11.390
66984W        W36799  24.581   7.267   3.219
66985W        W36800   3.329  14.138  10.640
66986W        W36801  42.894  23.039   1.927
66987W        W36802   7.274  30.553   3.340
66988W        W36803  19.616  27.539   0.772
66989W        W36804  36.061  25.578   4.164
66990W        W36805   4.784  32.888   3.251
66991W        W36806   9.652  42.341   0.889
66992W        W36807   3.825  37.848   4.636
66993W        W36808   6.235  25.510   0.938
66994W        W36809  41.365   1.453  10.483
66995W        W36810  27.172  13.798  14.425
66996W        W36811  18.668  11.740   0.778
66997W        W36812  27.020  20.692   3.674
66998W        W36813  44.275  15.782   2.780
66999W        W36814   3.871  21.655   1.361
67000W        W36815   2.465  35.557   4.819
67001W        W36816  24.580  42.472  14.887
67002W        W36817  34.402  10.787  11.524
67003W        W36818  27.551  24.537  11.590
67004W        W36819  18.289   7.833   0.938
67005W        W36820  18.565  30.622   0.315
67006W        W36821  14.316  14.257   3.850
67007W        W36822   5.416  10.749   0.906
67008W        W36823  12.813  27.527  10.429
67009W        W36824  24.485  14.101   2.373
67010W        W36825  11.164  18.110  14.413
67011W        W36826  15.665  10.344  10.615
67012W        W36827  34.993  12.339   0.404
67013W        W36828  39.384  44.312  12.477
67014W        W36829  14.816  32.006   0.756
67015W        W36830  17.616  12.726   0.256
67016W        W36831  40.306  28.949   0.462
67017W        W36832  26.522  34.989  12.548
67018W        W36833  42.446  40.885  13.382
67019W        W36834   0.439  14.811  12.486
67020W        W36835  21.195  18.675   4.291
67021W        W36836  30.486   2.461  14.787
67022W        W36837   1.771  17.617  11.976
67023W        W36838  21.512   4.329   4.679
67024W        W36839   3.923  13.346   4.711
67025W        W36840  27.999   2.298  11.076
67026W        W36841   9.225  32.516  12.561
67027W        W36842  12.802  11.210   2.824
67028W        W36843  23.233  11.356   3.707
67029W        W36844  17.146   1.265  14.962
67030W        W36845  19.741  19.568   0.454
67031W        W36846  26.985   6.353   1.440
67032W        W36847  31.073  10.659   3.338
67033W        W36848  20.097  35.988   5.286
67034W        W36849  29.539   4.707  11.935
67035W        W36850  37.501  35.604  13.338
67036W        W36851   5.896  30.484  14.470
67037W        W36852   0.802  17.208   1.432
67038W        W36853  13.289  31.941   4.662
67039W        W36854  19.692  39.352  10.492
67040W        W36855  35.385   1.388   4.600
67041W        W36856  31.481  11.329   3.359
67042W        W36857  15.149  31.047  12.483
67043W        W36858   0.918  14.774  12.929
67044W        W36859  40.903  34.568  10.952
67045W        W36860  21.531   2.725  14.341
67046W        W36861  24.505  36.903   3.164
67047W        W36862  39.894  32.124   3.812
67048W        W36863  37.549  34.506  11.092
67049W        W36864   9.321  44.502  13.337
67050W        W36865  16.675  40.984  14.940
67051W        W36866  16.191  37.073   4.259
67052W        W36867  23.102  29.086  14.331
67053W        W36868   8.824   1.775   0.917
67054W        W36869  42.865   9.220  11.072
67055W        W36870  15.659  36.462   2.352
67056W        W36871  31.043  27.664  14.814
67057W        W36872   8.878   6.836   1.344
67058W        W36873  35.537   2.272   2.291
67059W        W36874   3.873  39.552   0.434
67060W        W36875  11.229   2.737   3.211
67061W        W36876  32.996  42.810  10.900
67062W        W36877  37.489  24.988   0.860
67063W        W36878   0.251  41.477  13.468
67064W        W36879  16.673  38.403  11.078
67065W        W36880  36.046  28.054  11.938
67066W        W36881  13.617  15.688   1.752
67067W        W36882   5.229  12.124  12.981
67068W        W36883  35.416  28.486  13.372
67069W        W36884  13.824  34.595  12.061
67070W        W36885  18.546  29.648   2.813
67071W        W36886  39.895  14.709  14.469
67072W        W36887  25.555  28.581   1.354
67073W        W36888   9.757  38.398  11.909
67074W        W36889  39.837  22.101  14.863
67075W        W36890  35.408  15.770  11.501
67076W        W36891  27.122  40.957  11.597
67077W        W36892  31.104  15.131  12.095
67078W        W36893  35.030  35.937  11.879
67079W        W36894  31.937   1.968  10.050
67080W        W36895  41.950  10.359   5.091
67081W        W36896  11.725   2.942  13.843
67082W        W36897   0.806  14.225  10.125
67083W        W36898  21.121  42.946  12.578
67084W        W36899  29.430  41.392   0.740
67085W        W36900  22.997  30.482   2.776
67086W        W36901  20.697  27.525  14.503
67087W        W36902  20.678  39.436  13.458
67088W        W36903   1.316  30.055   2.310
67089W        W36904  10.778  38.829   0.256
67090W        W36905  26.616   5.417  13.030
67091W        W36906  33.624  36.354   1.371
67092W        W36907   6.321   0.832  14.311
67093W        W36908  15.656   7.310  14.389
67094W        W36909   5.690  43.279  12.368
67095W        W36910  31.450  44.350   1.912
67096W        W36911  39.424  11.681   0.852
67097W        W36912  18.789  28.988  12.887
67098W        W36913  16.670  37.512  13.030
67099W        W36914   7.272  20.166   0.473
67100W        W36915  21.235  30.003  12.895
67101W        W36916  17.715   6.712   2.778
67102W        W36917  42.906   0.782   0.752
67103W        W36918  30.924  17.729   3.685
67104W        W36919  22.097  40.989  10.522
67105W        W36920  42.934   4.730  12.486
67106W        W36921  26.973  36.517  13.469
67107W        W36922  44.468  23.596  14.774
67108W        W36923  31.908  20.043   1.815
67109W        W36924  18.772  23.685   0.407
67110W        W36925  28.142  29.929   1.908
67111W        W36926  41.407   1.361  13.979
67112W        W36927  28.640  42.848  12.441
67113W        W36928   8.387   7.669  13.981
67114W        W36929   9.654  31.915  14.768
67115W        W36930   9.725   3.867   1.710
67116W        W36931   5.835  16.704   2.260
67117W        W36932  23.170   0.324   3.651
67118W        W36933  23.587  12.286   2.344
67119W        W36934  42.812  33.442  13.526
67120W        W36935  14.590   1.307  13.900
67121W        W36936   4.823  22.603   1.755
67122W        W36937  15.217  22.698   3.678
67123W        W36938  35.926  14.720   1.700
67124W        W36939  12.219  36.567  14.025
67125W        W36940  30.581   9.874  14.879
67126W        W36941  27.480  41.829  11.976
67127W        W36942  14.239   7.176  10.898
67128W        W36943   2.301  36.906  10.456
67129W        W36944  30.464  25.970  13.401
67130W        W36945   4.917  44.904  14.514
67131W        W36946  32.020   8.341   3.267
67132W        W36947  16.164   7.206  10.592
67133W        W36948  29.495   4.299  14.994
67134W        W36949  23.647  41.333  11.889
67135W        W36950   6.916  27.966   0.434
67136W        W36951  14.704   7.362  12.552
67137W        W36952  18.786  18.607  12.885
67138W        W36953  43.945  15.264  12.049
67139W        W36954  41.531   3.442  12.480
67140W        W36955  13.236  21.597   0.355
67141W        W36956  10.311  32.936   1.287
67142W        W36957  27.030  44.897   1.764
67143W        W36958  15.137  29.082  14.382
67144W        W36959   0.445  11.217   3.696
67145W        W36960  15.730  20.245  12.041
67146W        W36961  21.708  44.334   1.890
67147W        W36962  23.103  16.680  12.066
67148W        W36963   8.343   1.782   2.353
67149W        W36964  18.134  41.908  12.985
67150W        W36965   5.708  42.367   0.900
67151W        W36966  38.882  18.058  10.426
67152W        W36967  34.994  24.517  12.014
67153W        W36968  16.187  22.612   3.658
67154W        W36969  24.092  23.192  14.413
67155W        W36970  42.462  34.434  10.632
67156W        W36971  30.014  42.473  12.867
67157W        W36972  33.114   8.385   2.330
67158W        W36973   3.419   2.944  13.522
67159W        W36974  12.143   4.750  10.531
67160W        W36975  35.586  33.464   0.930
67161W        W36976  17.202  43.322   0.919
67162W        W36977  35.448  35.888   1.723
67163W        W36978  37.840   1.930  13.388
67164W        W36979  28.636  26.951   0.393
67165W        W36980  32.993  22.058   1.283
67166W        W36981  37.881   8.307   0.286
67167W        W36982  20.201   1.788   4.324
67168W        W36983  18.054   1.789  14.964
67169W        W36984  35.999  31.596   0.266
67170W        W36985  12.654   6.776  11.499
67171W        W36986   1.336   8.890  12.975
67172W        W36987   7.808  16.762  11.904
67173W        W36988  37.480   3.838   1.310
67174W        W36989  19.575  32.094  12.942
67175W        W36990  21.662  28.030   4.147
67176W        W36991  10.156   2.345   2.854
67177W        W36992  43.788  25.526  13.404
67178W        W36993  11.667  42.829   4.777
67179W        W36994  38.846   1.745  14.836
67180W        W36995  44.471  25.677  13.833
67181W        W36996  21.677  25.478  12.016
67182W        W36997  32.594  10.263  14.321
67183W        W36998  19.682  36.527   5.085
67184W        W36999  13.704  40.348   2.702
67185W        W37000  23.523  17.682   2.745
67186W        W37001  33.092  44.304   2.355
67187W        W37002  20.108   5.421   4.282
67188W        W37003   3.918  32.558   0.336
67189W        W37004  21.059  22.064  14.874
67190W        W37005  43.960  15.770  14.917
67191W        W37006  14.633  10.778   3.636
67192W        W37007  26.493  22.739   5.158
67193W        W37008  32.626  28.494   3.693
67194W        W37009  44.840  43.974   3.759
67195W        W37010  29.165  30.466   3.169
67196W        W37011   5.345  32.572   1.801
67197W        W37012  28.042  31.565   2.746
67198W        W37013  12.831   9.177  14.510
67199W        W37014  33.582  43.494  13.356
67200W        W37015  19.773  43.387   3.654
67201W        W37016  34.452  16.131  14.923
67202W        W37017  41.430  20.592  10.597
67203W        W37018  25.553   6.916   0.849
67204W        W37019  28.497  41.979   1.788
67205W        W37020  36.540  29.591   4.804
67206W        W37021   0.384  43.321   3.295
67207W        W37022  30.494  23.122  11.116
67208W        W37023  28.164  26.001  11.920
67209W        W37024   2.299  40.969  11.477
67210W        W37025  11.255  16.201   5.640
67211W        W37026   4.774   4.852   3.324
67212W        W37027  43.857   7.759  10.545
67213W        W37028  10.183   2.230   0.866
67214W        W37029  28.660  25.174  14.487
67215W        W37030   4.762   7.748   0.302
67216W        W37031  38.436   8.207   9.455
67217W        W37032   6.230  34.915  14.452
67218W        W37033   0.353  12.816  11.931
67219W        W37034  39.877  10.286  14.412
67220W        W37035  20.523   5.902  10.891
67221W        W37036   5.854  30.584   4.345
67222W        W37037  38.495  31.110  14.866
67223W        W37038  35.978   2.836   3.216
67224W        W37039  43.397   4.278  12.417
67225W        W37040  16.248  13.784  14.833
67226W        W37041  20.146   5.841   2.722
67227W        W37042   7.248  17.562  12.540
67228W        W37043   9.195  26.197  13.847
67229W        W37044  42.367  29.064  13.956
67230W        W37045  28.629  28.984   2.846
67231W        W37046  29.017   2.776   3.743
67232W        W37047  37.871  42.971  10.923
67233W        W37048  36.429  24.126   4.637
67234W        W37049   0.747  44.001  12.081
67235W        W37050   5.808  34.606   3.278
67236W        W37051  43.325  29.648   0.399
67237W        W37052  36.564  32.106   1.359
67238W        W37053  16.291  41.949   4.150
67239W        W37054  25.626   2.886   3.718
67240W        W37055  12.134  17.676   0.482
67241W        W37056  43.813  13.161   4.734
67242W        W37057   0.304  17.284  13.028
67243W        W37058   1.795  24.532  14.314
67244W        W37059  17.705  29.610  14.291
67245W        W37060  38.911   3.241  12.867
67246W        W37061  22.167   5.825   4.299
67247W        W37062  41.507  42.961   1.407
67248W        W37063  15.657  25.202  14.495
67249W        W37064  11.733  32.041  14.311
67250W        W37065  17.193  13.187  10.501
67251W        W37066  38.984  32.611   1.448
67252W        W37067  13.170  23.113   3.837
67253W        W37068   9.291  34.957  12.894
67254W        W37069  31.094  26.028   2.852
67255W        W37070  26.521  28.584  12.342
67256W        W37071  25.569   6.385  13.532
67257W        W37072  14.200   0.857   3.657
67258W        W37073   4.253   0.484  13.339
67259W        W37074  19.166  14.156  12.371
67260W        W37075  29.552   5.370   4.223
67261W        W37076  14.330  44.996  14.416
67262W        W37077  25.176  37.927   1.340
67263W        W37078  30.558  29.612   2.269
67264W        W37079   4.885  42.438  13.001
67265W        W37080  27.069  37.905  14.997
67266W        W37081  20.744   1.816   0.316
67267W        W37082  41.299   5.402   0.768
67268W        W37083  14.712  17.776   3.635
67269W        W37084  44.864   1.472  13.547
67270W        W37085  36.974   0.889   1.418
67271W        W37086   0.446  23.154   2.716
67272W        W37087  43.955   2.303   2.734
67273W        W37088  40.803  31.483   4.725
67274W        W37089  23.129   0.368  14.829
67275W        W37090   8.240   1.877   4.318
67276W        W37091  13.325  36.489  13.845
67277W        W37092  22.170   6.821   3.273
67278W        W37093  26.144  30.024  10.427
67279W        W37094  11.719   4.438  13.003
67280W        W37095  23.129  39.975   4.711
67281W        W37096  10.838  30.919  12.014
67282W        W37097  42.927  32.990   1.265
67283W        W37098  30.145  23.666  14.821
67284W        W37099  21.101  12.234  11.497
67285W        W37100  35.034  10.205   4.176
67286W        W37101   2.830   3.742   3.301
67287W        W37102   6.335  10.378   4.613
67288W        W37103  30.465   2.334   0.777
67289W        W37104  26.515  24.229  14.401
67290W        W37105   5.376  14.315  14.951
67291W        W37106  31.524  23.188  13.534
67292W        W37107  28.553   6.230  11.446
67293W        W37108   9.725  43.457   4.642
67294W        W37109   0.492  17.160  14.279
67295W        W37110   1.734  42.908  14.927
67296W        W37111  11.359  33.888   0.376
67297W        W37112  35.571  25.038  12.898
67298W        W37113  43.325   7.245  12.452
67299W        W37114  27.531  37.493   2.193
67300W        W37115  21.252  34.592  10.619
67301W        W37116  31.535  44.806  12.354
67302W        W37117   2.894  44.891  11.046
67303W        W37118  18.192  39.362   2.351
67304W        W37119  42.320  19.542  14.873
67305W        W37120  41.466  20.158   3.713
67306W        W37121   5.707   1.875  11.914
67307W        W37122   3.752  22.240  11.545
67308W        W37123   5.752  25.994   4.752
67309W        W37124  16.146  14.301   0.800
67310W        W37125   9.751  20.205   3.754
67311W        W37126   2.384  19.616  11.924
67312W        W37127  36.952   8.886   1.430
67313W        W37128  13.336  17.174   1.233
67314W        W37129   3.439  27.580  13.332
67315W        W37130  17.588  41.025   4.278
67316W        W37131  24.637   3.903  14.475
67317W        W37132  28.982  15.733   4.761
67318W        W37133  28.977  14.197  14.443
67319W        W37134  39.832  40.305  14.362
67320W        W37135  20.118  12.801  12.523
67321W        W37136  18.157  15.799   3.195
67322W        W37137  17.682  40.995  14.338
67323W        W37138  29.116  25.967   4.714
67324W        W37139  21.237  39.412   3.381
67325W        W37140   5.898  31.417   0.962
67326W        W37141  30.156  10.181   0.468
67327W        W37142  42.488  40.471  13.966
67328W        W37143  40.318  29.056   3.147
67329W        W37144  33.046  15.192   3.803
67330W        W37145  41.930   1.885   2.824
67331W        W37146   3.219  31.990  14.402
67332W        W37147  21.197  17.230  10.957
67333W        W37148  37.945  11.243  10.536
67334W        W37149  17.710  27.146   3.374
67335W        W37150  31.042  32.615  12.992
67336W        W37151  38.893   9.644   1.281
67337W        W37152  20.103  43.925  12.449
67338W        W37153  33.009  20.251  12.950
67339W        W37154  11.269  29.538  14.811
67340W        W37155  12.146  18.718  13.930
67341W        W37156  31.508  20.266  13.907
67342W        W37157  17.142  23.095   0.928
67343W        W37158  24.163   1.896  14.957
67344W        W37159  36.372  21.030   4.735
67345W        W37160  14.659   0.447   4.824
67346W        W37161  26.491  43.477   4.145
67347W        W37162  42.519  33.446   2.253
67348W        W37163  26.649  26.146  12.527
67349W        W37164  31.938   1.425   3.754
67350W        W37165  24.553  26.461   4.714
67351W        W37166  12.122  12.226   2.185
67352W        W37167  31.019  35.918   3.727
67353W        W37168  19.129  33.960  14.029
67354W        W37169  39.480   5.749   5.205
67355W        W37170  21.726   4.764  10.043
67356W        W37171  32.545   1.822   3.375
67357W        W37172  43.282  16.728  12.073
67358W        W37173  32.566   4.797  14.778
67359W        W37174  31.558  40.010   3.651
67360W        W37175  30.995  25.606  12.965
67361W        W37176  25.132  11.241  11.887
67362W        W37177  10.875  25.705  13.492
67363W        W37178  42.968  33.027   2.679
67364W        W37179   4.414  40.019   4.142
67365W        W37180  24.485  43.482   3.653
67366W        W37181  23.155  14.288  10.946
67367W        W37182  44.004  43.468  13.909
67368W        W37183  18.708   9.305   4.174
67369W        W37184  24.228  40.805  14.431
67370W        W37185   3.459  43.910   2.415
67371W        W37186  20.097   6.288   4.598
67372W        W37187  41.900  28.112   4.679
67373W        W37188   7.274  18.183  13.400
67374W        W37189  44.874  20.673   3.787
67375W        W37190   7.769   3.395   3.656
67376W        W37191  12.836  18.240   4.243
67377W        W37192  35.404  29.669   2.788
67378W        W37193   8.740  38.500   1.228
67379W        W37194  18.627  32.573  13.807
67380W        W37195  29.434  37.378  14.306
67381W        W37196  42.851  44.896   2.242
67382W        W37197   6.680  10.636   4.652
67383W        W37198  27.100  23.990   2.289
67384W        W37199  18.585  33.942   3.255
67385W        W37200  23.590  43.384   0.786
67386W        W37201  38.841   8.191  11.933
67387W        W37202   1.795  15.581   3.731
67388W        W37203   3.256  37.344  13.835
67389W        W37204   6.816  30.609   3.232
67390W        W37205   7.228  23.555   3.314
67391W        W37206  21.748  34.567   4.640
67392W        W37207  30.557  38.475  11.043
67393W        W37208  42.957  43.510   1.786
67394W        W37209   9.864   9.750  14.407
67395W        W37210  27.540  37.489   3.286
67396W        W37211  29.497   4.425   2.214
67397W        W37212  21.105  19.046   2.782
67398W        W37213  16.079  11.752  12.446
67399W        W37214  44.286  15.108  12.490
67400W        W37215   8.312  39.884  14.398
67401W        W37216  33.589  29.072   3.690
67402W        W37217   0.788  13.123   0.774
67403W        W37218   7.302   2.235  12.360
67404W        W37219  33.042  44.312  12.970
67405W        W37220  20.595  21.593   3.687
67406W        W37221  12.783  29.167  14.287
67407W        W37222  22.532  28.516   2.335
67408W        W37223  32.577   3.272  10.543
67409W        W37224  26.630  37.974   2.668
67410W        W37225  11.191   0.407  11.918
67411W        W37226  43.827  17.128   0.936
67412W        W37227  35.031  33.551   0.960
67413W        W37228   0.891   7.299   0.389
67414W        W37229  24.122   1.249   0.855
67415W        W37230  27.515  16.800  12.986
67416W        W37231  22.106  36.943   3.775
67417W        W37232  25.154  37.966  12.342
67418W        W37233  20.645  43.816   0.357
67419W        W37234  17.655  25.172   2.241
67420W        W37235  36.076   2.392   5.197
67421W        W37236  31.507  40.361  13.824
67422W        W37237  23.198  30.995   0.351
67423W        W37238  20.115  19.756   0.855
67424W        W37239  25.511  30.935   4.597
67425W        W37240   6.770  35.537   4.268
67426W        W37241  36.047  29.464  14.775
67427W        W37242  18.153  32.004  14.359
67428W        W37243  28.016  27.012  12.411
67429W        W37244   5.359  16.076  12.957
67430W        W37245  24.018  42.408   0.802
67431W        W37246  25.649  14.642   0.919
67432W        W37247  12.131  38.031  12.947
67433W        W37248   4.238   9.169  14.390
67434W        W37249  41.836  25.699  13.820
67435W        W37250  26.592   7.710  13.838
67436W        W37251  14.323   6.710   1.844
67437W        W37252   3.951  40.872  10.576
67438W        W37253  38.026  20.576  12.855
67439W        W37254  10.373   0.423  13.515
67440W        W37255  29.136   5.412   3.699
67441W        W37256   5.906  12.618  14.778
67442W        W37257  43.445  43.391   3.835
67443W        W37258  37.443   0.877  10.470
67444W        W37259  14.300   2.335   2.668
67445W        W37260  25.100  35.545   4.795
67446W        W37261  33.449  31.921  10.032
67447W        W37262  35.931  12.161   4.645
67448W        W37263  20.644  28.102  13.014
67449W        W37264  39.999  29.982   0.354
67450W        W37265   9.750  41.400  11.927
67451W        W37266   5.197  17.130   4.657
67452W        W37267   3.733  19.163   4.781
67453W        W37268   9.696  40.865   4.147
67454W        W37269  15.739  14.686  11.564
67455W        W37270  26.977  42.805  10.994
67456W        W37271  31.549  19.552  13.313
67457W        W37272  15.173  34.884  10.492
67458W        W37273  14.659   9.185   3.644
67459W        W37274  42.821   2.253  14.514
67460W        W37275  37.487  35.540  12.961
67461W        W37276  37.524  41.038  11.115
67462W        W37277  41.307   6.776   1.361
67463W        W37278  22.185  26.010  11.396
67464W        W37279   5.873  20.173  11.424
67465W        W37280  26.194  24.113  13.308
67466W        W37281  31.069  12.122   0.400
67467W        W37282  15.232  18.553   1.290
67468W        W37283  24.621   3.233   1.375
67469W        W37284  31.984  26.093  13.969
67470W        W37285  27.135  44.927   0.267
67471W        W37286   3.862  33.554   2.784
67472W        W37287  40.358  42.025  14.918
67473W        W37288   6.698   2.456   0.931
67474W        W37289  44.314  43.986   2.666
67475W        W37290  32.598  29.083  11.127
67476W        W37291  15.767  35.944   1.359
67477W        W37292  16.077  21.106  11.500
67478W        W37293  33.004   7.893  12.903
67479W        W37294   2.957  20.537   0.882
67480W        W37295  11.193   1.372  11.502
67481W        W37296  10.701  18.095   0.264
67482W        W37297  19.093  39.034  10.079
67483W        W37298  43.456  41.478  11.976
67484W        W37299  21.677  13.123  13.920
67485W        W37300  31.642   8.711   5.313
67486W        W37301  24.549  29.945   4.610
67487W        W37302  10.155  40.023   3.782
67488W        W37303  38.821  31.938  11.936
67489W        W37304   0.440  34.574   0.852
67490W        W37305   7.670  39.331   2.795
67491W        W37306  27.123   7.697  13.317
67492W        W37307  15.200  36.976  11.402
67493W        W37308  27.055  23.085   4.688
67494W        W37309   4.889  32.081   0.244
67495W        W37310  16.209  36.457  13.402
67496W        W37311  31.064  34.606   0.420
67497W        W37312   0.879   0.356  13.488
67498W        W37313   4.416  32.559  13.053
67499W        W37314  10.871  27.602   1.896
67500W        W37315  35.509  44.842  13.821
67501W        W37316  10.752  22.204  13.467
67502W        W37317  38.333  34.526   0.302
67503W        W37318  10.264  16.738  12.840
67504W        W37319  24.101  38.022  13.830
67505W        W37320  11.820  44.795  12.058
67506W        W37321  25.507  27.110   0.243
67507W        W37322  44.478  15.264  12.013
67508W        W37323  16.569  34.502   0.273
67509W        W37324  24.994  32.459   4.726
67510W        W37325  11.150  10.350   4.238
67511W        W37326  29.094  40.889   2.412
67512W        W37327  34.557  33.880  14.488
67513W        W37328  28.556  35.083  12.481
67514W        W37329  21.639  16.569   2.780
67515W        W37330  15.606  38.886  12.039
67516W        W37331   6.713  27.057   2.361
67517W        W37332  22.555  28.097   3.862
67518W        W37333  34.492  13.194   4.132
67519W        W37334  26.531  29.481   4.653
67520W        W37335  16.712   3.759  12.856
67521W        W37336  24.638  17.184  12.525
67522W        W37337   7.749   0.742   2.232
67523W        W37338  37.441   5.268   0.322
67524W        W37339  42.851   0.396  12.071
67525W        W37340  38.505   9.278   1.738
67526W        W37341  28.491  34.584  14.408
67527W        W37342  21.189  19.221   3.233
67528W        W37343   3.338   0.349  11.421
67529W        W37344  32.416  13.343   3.258
67530W        W37345  26.037  41.379  14.797
67531W        W37346  11.666  13.346  12.370
67532W        W37347  28.164  18.582  11.025
67533W        W37348  43.999  13.756   1.694
67534W        W37349  42.831   3.817  12.436
67535W        W37350  12.822  28.634  13.801
67536W        W37351  30.555  42.847  14.799
67537W        W37352  44.403   3.415   5.312
67538W        W37353  32.024  38.345   1.253
67539W        W37354  27.489  34.905   3.320
67540W        W37355  32.010  30.124  14.318
67541W        W37356  42.474  21.164  14.326
67542W        W37357  17.120  34.967   1.397
67543W        W37358  14.690   5.241  13.807
67544W        W37359   9.171   3.360   4.197
67545W        W37360  17.307   7.898   1.378
67546W        W37361  22.727  35.956  10.052
67547W        W37362  40.421  24.023  10.557
67548W        W37363  14.649  36.415   3.833
67549W        W37364  17.624  31.455  13.828
67550W        W37365  23.632   3.793  11.035
67551W        W37366  24.650  30.118  14.434
67552W        W37367  26.464   3.944   3.329
67553W        W37368  18.566  35.476   0.330
67554W        W37369  17.726  27.070  10.504
67555W        W37370  36.504  16.143  11.076
67556W        W37371  27.114  17.212   4.754
67557W        W37372  14.223  26.624  14.835
67558W        W37373  40.875  14.771   2.751
67559W        W37374  21.687   3.416  11.912
67560W        W37375  42.828  26.186  12.372
67561W        W37376  11.695  38.983  13.865
67562W        W37377  31.913  23.200  11.476
67563W        W37378  34.914   7.785   4.265
67564W        W37379   8.667  41.536   3.169
67565W        W37380  37.404  12.678   4.666
67566W        W37381  25.009  36.350   0.394
67567W        W37382  23.033  13.632   1.436
67568W        W37383  26.139  36.091  12.935
67569W        W37384  26.574  27.067   4.605
67570W        W37385  37.367   4.841   0.258
67571W        W37386  19.740  43.489   9.980
67572W        W37387  41.985  43.878   3.794
67573W        W37388   5.855   1.852   2.282
67574W        W37389  40.850  17.652   0.345
67575W        W37390  13.791  10.666   4.831
67576W        W37391  31.552   7.733  11.951
67577W        W37392  21.098   5.866   4.138
67578W        W37393   7.288  37.552   2.896
67579W        W37394  34.889  34.467  10.464
67580W        W37395  33.531  17.190   0.274
67581W        W37396  37.914  18.188   2.296
67582W        W37397  44.988  28.037   0.285
67583W        W37398   9.257  26.669   0.857
67584W        W37399   6.425  35.064  12.572
67585W        W37400   0.492  28.479   2.890
67586W        W37401  44.327  10.358  11.506
67587W        W37402  17.681  18.135  12.035
67588W        W37403  20.758  34.065  14.309
67589W        W37404  44.902  39.465  10.592
67590W        W37405  39.931  12.633   1.445
67591W        W37406   7.794   7.227  11.105
67592W        W37407  30.072   2.360  14.330
67593W        W37408   7.342  22.545  14.914
67594W        W37409  38.071   5.916  14.970
67595W        W37410  40.000   2.244  13.867
67596W        W37411  17.282  29.559  11.567
67597W        W37412  10.820  13.611   1.893
67598W        W37413  43.471  20.671  10.908
67599W        W37414  41.422  22.137   2.846
67600W        W37415   6.410   3.330   3.761
67601W        W37416   1.893  20.532  11.066
67602W        W37417   9.761  40.924  10.139
67603W        W37418  35.958  14.332   4.663
67604W        W37419  38.329  42.958  12.989
67605W        W37420  43.385  16.231  12.961
67606W        W37421  39.355  36.394  12.490
67607W        W37422  22.674  18.060  13.828
67608W        W37423  40.305  28.646  10.624
67609W        W37424  13.260  26.116   2.776
67610W        W37425  42.944  35.018  11.607
67611W        W37426  35.589  38.416   4.163
67612W        W37427  12.286  30.545   2.851
67613W        W37428  12.673  28.466  13.523
67614W        W37429  24.189  16.234   3.735
67615W        W37430  43.454  32.894   1.760
67616W        W37431  13.181  13.302   1.413
67617W        W37432  11.141  40.836   4.668
67618W        W37433   5.369   3.764   4.128
67619W        W37434  19.126  33.891   4.289
67620W        W37435  32.012   5.377   4.774
67621W        W37436  39.837  36.482   3.367
67622W        W37437  18.070  22.098  12.945
67623W        W37438  34.457   3.351   4.335
67624W        W37439  43.336   0.387  11.095
67625W        W37440   3.755  42.953  13.315
67626W        W37441  15.597   9.268  14.402
67627W        W37442  17.182  13.791  10.949
67628W        W37443  43.780  20.139  12.952
67629W        W37444  13.650  42.505   2.848
67630W        W37445  30.611  28.035   4.658
67631W        W37446  10.260  20.648  13.347
67632W        W37447   9.756  44.271  12.899
67633W        W37448   3.388  27.116   2.311
67634W        W37449  35.368  14.730  12.344
67635W        W37450   6.829  42.900  13.466
67636W        W37451  34.576  39.030   1.742
67637W        W37452  10.262  20.708  10.605
67638W        W37453  27.486  32.986   0.326
67639W        W37454  28.493  42.932  13.864
67640W        W37455   4.916  33.902   4.756
67641W        W37456  15.192  34.555   3.720
67642W        W37457  15.088  42.353  11.411
67643W        W37458  35.508  27.037   3.793
67644W        W37459  23.053  27.688   2.344
67645W        W37460  32.980  33.549   1.414
67646W        W37461  25.622  40.043   3.160
67647W        W37462   9.765   7.185   4.836
67648W        W37463  38.458   5.389   0.823
67649W        W37464  33.473   7.373   3.744
67650W        W37465  39.890   5.255  13.479
67651W        W37466   8.704  32.909  12.867
67652W        W37467  24.498  16.616   3.792
67653W        W37468  29.109  18.719  13.359
67654W        W37469  16.165   9.324   1.254
67655W        W37470  10.200   5.881   2.188
67656W        W37471  43.325  27.562  10.628
67657W        W37472   2.964  40.821  10.532
67658W        W37473  20.077  17.794  13.496
67659W        W37474  42.863  21.102  13.458
67660W        W37475  29.614  44.975   4.834
67661W        W37476   5.413  16.676   4.262
67662W        W37477  27.998  43.873   4.323
67663W        W37478  26.153  37.571   0.879
67664W        W37479  23.520  41.332   0.852
67665W        W37480   2.428  20.055   0.450
67666W        W37481  34.000  35.391   0.274
67667W        W37482  24.134   8.378   1.835
67668W        W37483  18.167  44.834  12.354
67669W        W37484  36.538  19.702  14.934
67670W        W37485  19.593   3.260  13.867
67671W        W37486   7.243  23.707  12.445
67672W        W37487  41.363  35.068   1.245
67673W        W37488  39.448  20.133   0.885
67674W        W37489  43.459   8.168  13.480
67675W        W37490  33.071  25.550   3.661
67676W        W37491   3.843   6.328   0.884
67677W        W37492  25.016  14.633   4.669
67678W        W37493  15.601  28.159   4.631
67679W        W37494  28.178  37.369   0.942
67680W        W37495  43.773  39.945   4.791
67681W        W37496  14.238  17.172   0.273
67682W        W37497  13.760  43.910  13.546
67683W        W37498  34.496   1.471  12.914
67684W        W37499  35.014  41.906  10.441
67685W        W37500  36.460  32.574   4.707
67686W        W37501  10.678  34.914  14.332
67687W        W37502  38.006   1.286   4.621
67688W        W37503   3.731  11.824  13.840
67689W        W37504   0.392   7.306   0.358
67690W        W37505   7.175  33.485  12.942
67691W        W37506  21.221  25.563   1.722
67692W        W37507  28.038  42.866   2.339
67693W        W37508  34.953  39.038  13.810
67694W        W37509   2.944  26.596  11.492
67695W        W37510  40.503   4.426  10.537
67696W        W37511   8.744  25.608   1.407
67697W        W37512  27.131  26.114   1.222
67698W        W37513   9.723  26.122  12.448
67699W        W37514   3.924  34.541   0.307
67700W        W37515  25.991  13.784  11.954
67701W        W37516  44.427  18.572  14.319
67702W        W37517  25.087  31.521  13.932
67703W        W37518  27.020  11.794  11.403
67704W        W37519  23.666   3.727  12.884
67705W        W37520   1.308  16.791   0.445
67706W        W37521  14.097   2.238  12.371
67707W        W37522  14.121  13.749   1.898
67708W        W37523   7.375  35.500   3.177
67709W        W37524   2.260  27.110   4.346
67710W        W37525  28.652  44.896   1.438
67711W        W37526  10.783   8.757   3.794
67712W        W37527  10.146  19.160  11.033
67713W        W37528  14.333   2.732  11.595
67714W        W37529  33.025  16.603  11.494
67715W        W37530   9.368  31.437   0.361
67716W        W37531  14.662  30.468   5.261
67717W        W37532  37.875  14.141   4.125
67718W        W37533  37.870  16.585   0.246
67719W        W37534  13.840  14.333   2.884
67720W        W37535  32.556  43.358  12.502
67721W        W37536   0.964  16.110  14.934
67722W        W37537  25.963  28.645   3.334
67723W        W37538  15.684  15.213  12.906
67724W        W37539  23.230   5.786   1.750
67725W        W37540   9.719   2.253   4.814
67726W        W37541  42.890   0.304   3.291
67727W        W37542  23.984   6.243   1.866
67728W        W37543  40.336  23.075  13.996
67729W        W37544  14.774  29.053  12.568
67730W        W37545  14.290  21.733  13.458
67731W        W37546  10.162  21.627   3.164
67732W        W37547  29.633  19.133   0.272
67733W        W37548  30.040   5.288  10.445
67734W        W37549  14.805  20.731   4.732
67735W        W37550   8.822  26.102  11.125
67736W        W37551  38.881  11.672  13.033
67737W        W37552  44.361  11.246  14.456
67738W        W37553  32.432   1.975  11.884
67739W        W37554  11.728  34.570  14.876
67740W        W37555   3.375  39.885  11.463
67741W        W37556  11.689  20.191  11.567
67742W        W37557  10.644  40.458   2.324
67743W        W37558   2.800  34.481  10.625
67744W        W37559  10.343  15.767  10.502
67745W        W37560  12.631  38.934  12.918
67746W        W37561  16.767  12.362  14.287
67747W        W37562  20.768   2.900  12.996
67748W        W37563  18.737  25.020  14.512
67749W        W37564  17.678   0.493  12.558
67750W        W37565  23.088  19.547   2.280
67751W        W37566  24.686  42.804   3.198
67752W        W37567  28.528  33.483  12.937
67753W        W37568  36.443  40.384   4.604
67754W        W37569  44.296  31.472   2.208
67755W        W37570  10.724  30.640  12.409
67756W        W37571  11.275  23.724  13.439
67757W        W37572  29.449   0.838  13.494
67758W        W37573  14.672   3.232  11.032
67759W        W37574  20.101  20.719  10.964
67760W        W37575  12.258   6.723   3.298
67761W        W37576  11.746   6.234  14.962
67762W        W37577  22.241  33.966  14.948
67763W        W37578   3.399   7.687  14.401
67764W        W37579  42.872  22.212  11.980
67765W        W37580  13.165  33.416  11.988
67766W        W37581  23.028   8.278   1.448
67767W        W37582  43.772   2.376  11.918
67768W        W37583   6.400  38.411   0.314
67769W        W37584  24.659   3.825   3.729
67770W        W37585  12.758   9.373  14.786
67771W        W37586  25.705  34.925  13.826
67772W        W37587  17.078  43.334   1.236
67773W        W37588  44.348  17.569  13.347
67774W        W37589  28.632   7.200  13.382
67775W        W37590   5.317  10.865   4.621
67776W        W37591  10.797  18.620   4.693
67777W        W37592  17.566  43.974  11.932
67778W        W37593   7.897  44.947   3.232
67779W        W37594  20.588  14.200  14.422
67780W        W37595  20.635  20.124  13.307
67781W        W37596  19.540  12.234  13.945
67782W        W37597  17.679  43.839  11.068
67783W        W37598  35.012   5.213   4.281
67784W        W37599  13.200  17.249   2.356
67785W        W37600  40.371  39.475  11.082
67786W        W37601   5.844  34.042   0.432
67787W        W37602  20.714  18.605  13.530
67788W        W37603   2.315  41.325   4.259
67789W        W37604  42.802  26.126  13.529
67790W        W37605  16.660   9.178   4.313
67791W        W37606  28.490  32.988  14.892
67792W        W37607  16.108  26.082   0.917
67793W        W37608  34.919   7.889  11.427
67794W        W37609  12.291  40.423   0.836
67795W        W37610  14.174  35.523  14.466
67796W        W37611  24.538  28.481  12.828
67797W        W37612  28.971  34.474  14.825
67798W        W37613  20.758  16.086  11.988
67799W        W37614  12.349  15.326   4.225
67800W        W37615   3.805  21.227  14.890
67801W        W37616  28.599  21.653   3.810
67802W        W37617  27.054  30.423   3.384
67803W        W37618  35.523   2.356   4.787
67804W        W37619  44.992  36.938  13.374
67805W        W37620  36.552  35.017   1.350
67806W        W37621  41.518   3.729  14.453
67807W        W37622   4.930  29.080  10.478
67808W        W37623  23.133  31.484  12.964
67809W        W37624  29.141  21.529   0.910
67810W        W37625  29.089  33.924  12.380
67811W        W37626  34.909  35.541  12.953
67812W        W37627   8.744   0.374  14.950
67813W        W37628  19.260  17.113  14.805
67814W        W37629   9.727  25.066   0.733
67815W        W37630   2.336  40.367   3.190
67816W        W37631  11.799   9.691   1.314
67817W        W37632   3.389  35.108  11.582
67818W        W37633   3.255  36.011  12.963
67819W        W37634  26.186   2.945  11.561
67820W        W37635  42.008   8.312  11.531
67821W        W37636   7.299   6.330   1.245
67822W        W37637   9.762  11.276   1.381
67823W        W37638  13.306  35.458   4.657
67824W        W37639  30.043  37.575   3.865
67825W        W37640   3.408  37.955   4.207
67826W        W37641   7.890  39.491   3.380
67827W        W37642  16.809  35.384  10.627
67828W        W37643  26.086  24.214   3.808
67829W        W37644  18.196  16.739   3.284
67830W        W37645  40.001  29.614  13.392
67831W        W37646  36.486  33.102  14.865
67832W        W37647   1.298  13.221   4.181
67833W        W37648  26.048  30.106   4.151
67834W        W37649  30.091  11.215   1.224
67835W        W37650   9.233  39.973   5.311
67836W        W37651  30.649  28.973   2.838
67837W        W37652  10.366  18.287   4.715
67838W        W37653  24.657  28.589   0.917
67839W        W37654  29.647  34.982   2.673
67840W        W37655  30.950   0.306  11.960
67841W        W37656   7.790   4.745  12.367
67842W        W37657  34.956   6.289   5.210
67843W        W37658  34.449  40.973   2.241
67844W        W37659  35.918  24.628   1.379
67845W        W37660   9.735  41.834  11.553
67846W        W37661  23.212  39.540  14.433
67847W        W37662   7.716  25.035   3.796
67848W        W37663  33.011   8.205  12.339
67849W        W37664  24.216  13.296  10.426
67850W        W37665  38.350  27.526  11.573
67851W        W37666  35.579  21.202  11.967
67852W        W37667  13.841  12.612   3.712
67853W        W37668  15.225  15.322   1.908
67854W        W37669  23.070  30.039  10.951
67855W        W37670   2.404  10.764  14.507
67856W        W37671  40.367  18.549  13.390
67857W        W37672  26.460  10.644   2.831
67858W        W37673  13.288  23.552   0.775
67859W        W37674   9.349  37.408   3.632
67860W        W37675  36.966  26.981  10.595
67861W        W37676  17.141  24.522   0.286
67862W        W37677  33.605  23.681   0.264
67863W        W37678  10.687  26.511   4.630
67864W        W37679  18.749  14.112   0.854
67865W        W37680   8.399  19.188  12.865
67866W        W37681  27.979   6.677   3.351
67867W        W37682   8.869  39.344   9.988
67868W        W37683  41.466  19.758  10.641
67869W        W37684   4.258  15.603  11.436
67870W        W37685  13.115   2.821   3.296
67871W        W37686  22.696  22.010   2.692
67872W        W37687  21.739  41.427  14.276
67873W        W37688   5.882   7.774   1.875
67874W        W37689  20.740  19.754  14.291
67875W        W37690  16.785   3.771   0.729
67876W        W37691  19.681  24.052   4.272
67877W        W37692  11.191  37.511  14.303
67878W        W37693  27.992  28.578   2.185
67879W        W37694  14.695  13.228   3.703
67880W        W37695  23.530   3.373  13.835
67881W        W37696  24.994   8.839   1.266
67882W        W37697   5.810  22.173   3.202
67883W        W37698  20.186  30.930  14.420
67884W        W37699   6.261   6.829   4.212
67885W        W37700  15.808  28.946  11.881
67886W        W37701  28.449  37.459   4.308
67887W        W37702  15.599  17.664  10.588
67888W        W37703  31.424  15.645   2.364
67889W        W37704  15.720  22.601  14.805
67890W        W37705   9.862  16.770  12.481
67891W        W37706  38.038  18.083   1.218
67892W        W37707   8.711  28.577  13.844
67893W        W37708  37.465  26.583   1.782
67894W        W37709  15.655  12.793   0.746
67895W        W37710  28.680  19.684  10.523
67896W        W37711  22.533  35.874  13.328
67897W        W37712  35.450   0.354  11.055
67898W        W37713  36.847   6.824  12.902
67899W        W37714  27.157  18.716   1.309
67900W        W37715   4.865   7.393   0.329
67901W        W37716  28.606  31.538  11.057
67902W        W37717   5.703  35.915   1.797
67903W        W37718  22.520  33.959   2.395
67904W        W37719  32.033  18.553  12.350
67905W        W37720  33.943  37.520  13.020
67906W        W37721  31.567  15.137   3.658
67907W        W37722  41.982  35.093   3.256
67908W        W37723  21.581  34.370   2.817
67909W        W37724  18.744  37.831  11.392
67910W        W37725  36.023  37.523   1.348
67911W        W37726   8.223  40.428   2.817
67912W        W37727  11.327   7.714  13.396
67913W        W37728  24.580  18.757  13.397
67914W        W37729  41.440  25.120  10.531
67915W        W37730   1.837  15.731   0.939
67916W        W37731  43.887  19.245  13.406
67917W        W37732  16.138  33.538  10.098
67918W        W37733  42.007  42.485   3.795
67919W        W37734  39.519   9.661  12.005
67920W        W37735  27.641  29.094   1.781
67921W        W37736  41.955  33.511  12.984
67922W        W37737  36.014  19.226  13.795
67923W        W37738  10.700  12.269  14.946
67924W        W37739  30.540  13.769  13.999
67925W        W37740  13.157  34.931  12.398
67926W        W37741  25.587  37.563   0.731
67927W        W37742  26.464  10.282  14.851
67928W        W37743  39.392  28.044   3.691
67929W        W37744  36.439  43.395   1.930
67930W        W37745  27.566   9.701  12.846
67931W        W37746  29.496  24.647   3.639
67932W        W37747  17.621  43.389   3.803
67933W        W37748  34.010  13.844   0.453
67934W        W37749  26.519  18.103  13.331
67935W        W37750  14.184  32.432   4.776
67936W        W37751  14.177  43.458   0.750
67937W        W37752  21.599  44.949  10.556
67938W        W37753   6.839  34.052   2.778
67939W        W37754  22.591  24.505   0.795
67940W        W37755  20.566  32.065  12.523
67941W        W37756  15.106   1.940  11.476
67942W        W37757  41.501  32.610   4.815
67943W        W37758  33.495  39.808   3.675
67944W        W37759  21.120   2.919   2.891
67945W        W37760  12.690  25.676  14.380
67946W        W37761  12.709  15.275   4.347
67947W        W37762  30.646  42.414  12.032
67948W        W37763   4.905  42.992   3.226
67949W        W37764  14.795   1.298   0.324
67950W        W37765   9.383  26.190   3.198
67951W        W37766  11.152   0.485  12.457
67952W        W37767   4.218  17.600  12.496
67953W        W37768  43.917  10.365  11.076
67954W        W37769  42.920  36.571  10.928
67955W        W37770  19.567  33.075   2.711
67956W        W37771  33.949  13.633  10.422
67957W        W37772   2.897  11.164  14.322
67958W        W37773   0.801  23.657   4.690
67959W        W37774  39.374  10.209  11.453
67960W        W37775   0.760  30.051   1.777
67961W        W37776  26.562  38.036  10.477
67962W        W37777   7.821  13.242  14.888
67963W        W37778  44.981  24.183   1.767
67964W        W37779  37.378  30.084   0.395
67965W        W37780   3.296  37.944  10.545
67966W        W37781  41.520  38.539   4.242
67967W        W37782  13.723  23.668   1.409
67968W        W37783  33.971   5.258   3.336
67969W        W37784  11.781  15.815   5.317
67970W        W37785  12.684  22.614   4.130
67971W        W37786  43.433   0.302   0.385
67972W        W37787   1.430  14.212  14.892
67973W        W37788  28.121  26.618   0.334
67974W        W37789  26.988  42.796   5.197
67975W        W37790  25.686  44.350  13.932
67976W        W37791  22.525  33.059  14.917
67977W        W37792  38.545   8.889  11.893
67978W        W37793   9.195   4.888   3.641
67979W        W37794  13.734  26.985   2.690
67980W        W37795  33.014  12.825   0.873
67981W        W37796  42.023   2.297  12.067
67982W        W37797  15.249  28.505  11.019
67983W        W37798  10.709  15.232  14.779
67984W        W37799  34.090  31.982   4.132
67985W        W37800   5.892  31.966  13.329
67986W        W37801   0.880  19.208  11.594
67987W        W37802  36.413  22.622   9.990
67988W        W37803   6.771  11.261   1.734
67989W        W37804  41.898  33.946  11.080
67990W        W37805  34.965  14.669   2.274
67991W        W37806  11.839  17.182   1.843
67992W        W37807  28.102  23.707  14.914
67993W        W37808  34.426  24.622  12.535
67994W        W37809  39.469   7.844   0.853
67995W        W37810  29.118  25.998  12.844
67996W        W37811  29.095  25.968  14.998
67997W        W37812   3.716  20.064  14.492
67998W        W37813   5.769  18.220   0.796
67999W        W37814  36.034  42.964   3.750
68000W        W37815  22.101   9.305  11.128
68001W        W37816   0.897  30.937   2.291
68002W        W37817  17.146  29.098  11.522
68003W        W37818   0.876  25.113   3.202
68004W        W37819  20.759   4.869   4.311
68005W        W37820  22.182   0.304  10.410
68006W        W37821  41.338  16.169   9.590
68007W        W37822  44.989  39.532  11.860
68008W        W37823  30.656  42.021   1.288
68009W        W37824  27.168  23.642  12.379
68010W        W37825  39.540  44.391   3.679
68011W        W37826  22.161   7.780  10.419
68012W        W37827  32.081  21.247   1.443
68013W        W37828  31.110  30.145   3.683
68014W        W37829  23.999  35.107  13.513
68015W        W37830  18.561  11.220  11.938
68016W        W37831   8.402  23.683   0.859
68017W        W37832  39.390  35.046  14.845
68018W        W37833  35.412  24.091  13.816
68019W        W37834  15.586  23.153   1.935
68020W        W37835  38.332  10.332   2.679
68021W        W37836   7.752   4.450   2.811
68022W        W37837  22.682  13.614   0.756
68023W        W37838  41.341  29.482  13.974
68024W        W37839   6.258  26.123  11.062
68025W        W37840  44.365  11.810   4.323
68026W        W37841  28.455  28.512  11.003
68027W        W37842   3.767   0.423   4.607
68028W        W37843  40.528  40.331  14.007
68029W        W37844   9.153  13.198   4.203
68030W        W37845  25.514  14.730   2.857
68031W        W37846   6.766  37.420  11.103
68032W        W37847   3.716   5.238  11.064
68033W        W37848  21.125  19.775   1.856
68034W        W37849  12.809  20.726  11.965
68035W        W37850  32.453  39.548   4.122
68036W        W37851   6.304  31.560   0.373
68037W        W37852   8.750  31.581  14.863
68038W        W37853  28.957  29.519   0.459
68039W        W37854  32.526  18.568  14.400
68040W        W37855  26.636   2.894   0.469
68041W        W37856  14.745  40.323  12.449
68042W        W37857  39.035  25.116  14.868
68043W        W37858  22.512  30.130  12.518
68044W        W37859   2.303  30.417   1.276
68045W        W37860   0.261  20.539   0.858
68046W        W37861   1.320  23.214  13.896
68047W        W37862  28.638   4.272   4.753
68048W        W37863  28.103   9.782  13.338
68049W        W37864   9.385  11.677   0.463
68050W        W37865  43.325  44.270   1.269
68051W        W37866  40.432  21.119  14.775
68052W        W37867  14.239   5.419  10.405
68053W        W37868  31.603   6.881  10.441
68054W        W37869   2.806  28.561  13.491
68055W        W37870  13.297   1.466  10.927
68056W        W37871  13.792  33.010   3.344
68057W        W37872  32.443  17.162  10.150
68058W        W37873  31.997  37.401  11.034
68059W        W37874  13.109  11.779   2.735
68060W        W37875  27.630   9.301   1.363
68061W        W37876   0.816   3.720   0.408
68062W        W37877   8.207  26.005   4.825
68063W        W37878  19.153  23.702   0.863
68064W        W37879  38.015  26.500   1.861
68065W        W37880   2.328   7.262  14.882
68066W        W37881   6.751  26.011  12.356
68067W        W37882  42.890  41.466   1.718
68068W        W37883  24.153   7.676  13.061
68069W        W37884  24.142  19.061   4.807
68070W        W37885  38.419   3.332  12.410
68071W        W37886  32.095   6.218   2.368
68072W        W37887  11.622  12.352   3.761
68073W        W37888  34.469   3.809  14.503
68074W        W37889   2.774  10.771  13.372
68075W        W37890  26.518  27.576  10.490
68076W        W37891  13.667   1.395   3.179
68077W        W37892  22.144  36.962  14.446
68078W        W37893   2.807   0.805  11.479
68079W        W37894  29.473  26.164  11.402
68080W        W37895  28.958  33.054   1.309
68081W        W37896  40.997  10.659  14.338
68082W        W37897   1.356  37.062  14.345
68083W        W37898  28.131  18.779  10.154
68084W        W37899  37.580   6.859  14.957
68085W        W37900  17.178  24.098   4.780
68086W        W37901  18.687   7.177  11.060
68087W        W37902  36.451  42.896   0.815
68088W        W37903  28.520   1.897   2.801
68089W        W37904  40.899  34.950   3.257
68090W        W37905  29.468   4.361   3.367
68091W        W37906  37.394  34.513   4.310
68092W        W37907  32.452  22.148   1.310
68093W        W37908  33.438  37.997   1.268
68094W        W37909  17.616  10.849   2.250
68095W        W37910  29.615  25.674  14.840
68096W        W37911  30.042  39.923  11.562
68097W        W37912  13.743  17.242  10.474
68098W        W37913   6.752  41.519   1.742
68099W        W37914  10.184  15.253  14.815
68100W        W37915  29.117  37.361  11.915
68101W        W37916  39.334   0.442  11.876
68102W        W37917   8.180   9.877  14.978
68103W        W37918   0.783  21.071  13.957
68104W        W37919  20.213  26.059  12.928
68105W        W37920  40.517   4.339  14.837
68106W        W37921   6.815  17.125  13.355
68107W        W37922  28.112  13.298  14.327
68108W        W37923  38.017  24.487  11.567
68109W        W37924  22.549  16.292  10.917
68110W        W37925  26.584  29.077  12.540
68111W        W37926  12.640   8.684   2.392
68112W        W37927   3.218  13.622   1.339
68113W        W37928  27.515  22.233  14.888
68114W        W37929   8.885   1.870  10.568
68115W        W37930  35.469   3.754   2.805
68116W        W37931  24.501  18.628   3.663
68117W        W37932  41.880  24.704  12.035
68118W        W37933  37.836  15.598  10.106
68119W        W37934  44.300  25.480   2.739
68120W        W37935  32.954   4.797   1.731
68121W        W37936  14.826  44.977   2.324
68122W        W37937  21.620   3.232  10.441
68123W        W37938  26.527  42.981  12.545
68124W        W37939   1.788  39.350   4.738
68125W        W37940   0.919  35.064  12.491
68126W        W37941  15.172  20.141  12.566
68127W        W37942  44.272  17.634  14.861
68128W        W37943  15.237  38.418   4.820
68129W        W37944  32.130  25.543   0.915
68130W        W37945  38.920  29.990   2.807
68131W        W37946  44.354  25.711   1.777
68132W        W37947  13.160   2.740  10.903
68133W        W37948  32.580  12.246   4.179
68134W        W37949  10.259  38.483  12.925
68135W        W37950  18.785  17.212  12.968
68136W        W37951  30.161   4.926  14.774
68137W        W37952   0.829  11.621   1.340
68138W        W37953  17.110   3.401   1.831
68139W        W37954   2.361  44.895   4.832
68140W        W37955  15.117  30.049  10.522
68141W        W37956  14.617  23.157   2.247
68142W        W37957  15.694  40.981  14.445
68143W        W37958   1.781  29.428  12.977
68144W        W37959  19.185  37.567   2.753
68145W        W37960  23.650  15.581  13.483
68146W        W37961  44.375  29.080   1.738
68147W        W37962  10.767  16.755   9.517
68148W        W37963  44.002  27.533  10.493
68149W        W37964  13.663  40.385  10.615
68150W        W37965  24.506   4.437   4.683
68151W        W37966  27.691  16.162   1.793
68152W        W37967   3.826  13.164   2.347
68153W        W37968  23.166   5.707  12.494
68154W        W37969  42.029  38.546   0.298
68155W        W37970  11.227   3.390  12.904
68156W        W37971  19.159  15.144   1.793
68157W        W37972   4.328  11.798   3.758
68158W        W37973  33.387  24.713   2.311
68159W        W37974  27.158  23.115  12.899
68160W        W37975  30.032   7.846   3.217
68161W        W37976  37.518  36.850  12.087
68162W        W37977  23.169  12.176  14.296
68163W        W37978  10.323  44.973  11.980
68164W        W37979  12.807   1.907   0.877
68165W        W37980  21.749   0.963  14.385
68166W        W37981  36.929  36.413   3.199
68167W        W37982   2.819  37.062   2.763
68168W        W37983  18.772  24.478  14.858
68169W        W37984  15.310  29.602  12.478
68170W        W37985  34.030  32.621   2.887
68171W        W37986   3.254  21.579   3.196
68172W        W37987   1.238   9.242  12.489
68173W        W37988  34.382   8.401   0.779
68174W        W37989  12.727  35.982   0.393
68175W        W37990   0.275  21.153  11.948
68176W        W37991   6.861  18.617  11.598
68177W        W37992  23.651  18.678   1.775
68178W        W37993  11.146  32.046  13.041
68179W        W37994  43.852  31.548  13.014
68180W        W37995  35.398  30.955   4.608
68181W        W37996  13.150  31.055   4.301
68182W        W37997  18.615  26.463  11.505
68183W        W37998  38.496  28.603   4.805
68184W        W37999  28.151  10.718  11.976
68185W        W38000  42.870  18.722  13.909
68186W        W38001  16.256  26.562  11.001
68187W        W38002  23.735   2.884  14.985
68188W        W38003   7.836  31.504  11.037
68189W        W38004  26.628  24.546   1.241
68190W        W38005  29.616  15.729  11.442
68191W        W38006  20.259   3.898   1.905
68192W        W38007  24.185   0.418   2.713
68193W        W38008  27.578  36.057  12.493
68194W        W38009  29.018  14.795   4.265
68195W        W38010  43.899  40.968   2.893
68196W        W38011   7.905   1.317  12.921
68197W        W38012  12.345  35.592  14.889
68198W        W38013  17.089  41.492  12.520
68199W        W38014  40.344  30.109   1.411
68200W        W38015   7.373  22.142  11.585
68201W        W38016  12.222  38.412   1.402
68202W        W38017  20.051  36.073   4.652
68203W        W38018  22.533  25.604  13.794
68204W        W38019  41.308  22.140  12.343
68205W        W38020  38.529  39.549  11.531
68206W        W38021   1.804   4.249  10.962
68207W        W38022  20.221   0.363  12.417
68208W        W38023  42.829  14.279   1.223
68209W        W38024  43.516  33.609  10.133
68210W        W38025   5.852  12.348  12.373
68211W        W38026   7.852   4.788   5.123
68212W        W38027  18.581  36.443  10.501
68213W        W38028  40.807  31.554  10.523
68214W        W38029   3.730  22.526   3.232
68215W        W38030  28.583   8.295   3.378
68216W        W38031  38.557   5.782  12.841
68217W        W38032   8.225   3.859   0.920
68218W        W38033  26.463  25.034   4.767
68219W        W38034   1.336  27.510   2.853
68220W        W38035  25.994  12.340   0.321
68221W        W38036  13.181  42.798   0.875
68222W        W38037   6.425   7.247  13.871
68223W        W38038  32.493  23.208   2.317
68224W        W38039  14.254   9.214   1.800
68225W        W38040  33.538  41.322  12.002
68226W        W38041  44.481   4.819  14.967
68227W        W38042  33.444  15.672  14.368
68228W        W38043  12.276  17.563  11.602
68229W        W38044   5.238  33.937  13.884
68230W        W38045   2.262  44.802  10.961
68231W        W38046  14.624  28.582  11.576
68232W        W38047  40.811   2.312   0.401
68233W        W38048  26.208  37.023   0.823
68234W        W38049  11.144  43.284   2.211
68235W        W38050  36.501  18.064  11.591
68236W        W38051   0.829  30.486   1.710
68237W        W38052   4.215  44.378   4.703
68238W        W38053   0.447  38.552  10.522
68239W        W38054  18.235  40.875  14.846
68240W        W38055   3.912  25.094   3.175
68241W        W38056  44.981  35.877  11.071
68242W        W38057   6.381  35.903   3.156
68243W        W38058  29.961  38.965   9.967
68244W        W38059  43.795  21.675   1.400
68245W        W38060  26.074  11.326   1.232
68246W        W38061  10.738  19.200  11.993
68247W        W38062   5.750   7.853  14.930
68248W        W38063  23.019   5.215  12.072
68249W        W38064   7.221  27.045  11.017
68250W        W38065  25.684  12.751   0.838
68251W        W38066   7.261  14.781  11.508
68252W        W38067   8.244  30.939  12.017
68253W        W38068  11.624   5.226  11.884
68254W        W38069  10.803  16.782  13.332
68255W        W38070  35.460  24.215   0.796
68256W        W38071  12.707  39.393  12.867
68257W        W38072  40.548  28.010   2.342
68258W        W38073  39.917  16.118   5.277
68259W        W38074  31.081  39.499  11.948
68260W        W38075   5.741  12.182   1.283
68261W        W38076  24.654  42.007   3.211
68262W        W38077   4.826   7.882  12.571
68263W        W38078   0.933  18.185   5.216
68264W        W38079  34.935  29.535   0.270
68265W        W38080  25.120   8.260  11.861
68266W        W38081  36.374   6.796   3.290
68267W        W38082  44.998   5.772  13.962
68268W        W38083  25.155  37.029  13.468
68269W        W38084   1.275  26.117   0.374
68270W        W38085  15.749   7.848   2.286
68271W        W38086   6.288   2.830   2.200
68272W        W38087  18.689  19.196   1.415
68273W        W38088  21.067  30.945  13.481
68274W        W38089   0.255  34.004  13.459
68275W        W38090  19.593  28.679   4.346
68276W        W38091  20.762   2.861  10.963
68277W        W38092  38.472  15.105  12.462
68278W        W38093  28.048  14.224   0.863
68279W        W38094  12.828   5.926   2.801
68280W        W38095  23.502  13.180  11.499
68281W        W38096  17.140   7.359  14.865
68282W        W38097  11.672   9.226  11.598
68283W        W38098  35.017  19.735   1.699
68284W        W38099  19.757  29.923  14.028
68285W        W38100  23.202   0.801   3.167
68286W        W38101  34.495  33.009   4.620
68287W        W38102  28.035  17.211   0.941
68288W        W38103   9.164  12.263   1.872
68289W        W38104  25.971  38.513  10.474
68290W        W38105  37.937  33.045  12.579
68291W        W38106  42.788   3.775  14.818
68292W        W38107  32.635  36.963  10.521
68293W        W38108  44.866  15.146   0.481
68294W        W38109   4.394   3.741   0.940
68295W        W38110  35.933  26.981   3.708
68296W        W38111   0.441  26.963   1.768
68297W        W38112  13.602  22.530   4.833
68298W        W38113  40.385  28.581   2.676
68299W        W38114  39.956  16.306   3.641
68300W        W38115  36.578  19.711   0.852
68301W        W38116  32.103  30.542   9.951
68302W        W38117  39.411  27.140  12.526
68303W        W38118  31.418  32.494   1.912
68304W        W38119  31.560   0.253   1.335
68305W        W38120   7.731  13.740  14.804
68306W        W38121  42.856  14.598   0.924
68307W        W38122  30.523   4.859   1.423
68308W        W38123  12.236  18.261  14.985
68309W        W38124  43.831   0.786  14.284
68310W        W38125  38.426  10.758   3.379
68311W        W38126  32.972   3.935   1.784
68312W        W38127  20.624  17.615   1.810
68313W        W38128  34.906  10.207   1.728
68314W        W38129  18.672   4.739   5.298
68315W        W38130  15.118  26.458  14.439
68316W        W38131  40.512  19.542  13.338
68317W        W38132  25.058  23.216  10.940
68318W        W38133  37.045  39.412  12.526
68319W        W38134  16.738   3.402   2.311
68320W        W38135  18.704  14.131   1.403
68321W        W38136   9.729  18.581  10.917
68322W        W38137  39.381  19.746   2.294
68323W        W38138  35.450  23.630  14.833
68324W        W38139  17.578  27.651  11.379
68325W        W38140  40.413  10.761   1.212
68326W        W38141  37.469  36.517   1.811
68327W        W38142  26.084  28.153  14.307
68328W        W38143   6.818   9.816  10.473
68329W        W38144   1.282  19.634   2.890
68330W        W38145  23.540  27.518  12.091
68331W        W38146  26.631  34.943   0.745
68332W        W38147  25.038   5.895   3.711
68333W        W38148  33.936  36.954   4.683
68334W        W38149   2.336  18.573  13.337
68335W        W38150  31.608   9.820   2.885
68336W        W38151  13.339  20.191  14.772
68337W        W38152  24.026  32.591  11.060
68338W        W38153  29.577   4.829   5.117
68339W        W38154   0.960   4.444   2.337
68340W        W38155  19.688  27.959  12.577
68341W        W38156  16.296  11.234   3.256
68342W        W38157   1.423  32.107   2.852
68343W        W38158  28.129  14.783   1.394
68344W        W38159  32.075  17.129  12.417
68345W        W38160  41.428  10.181   2.227
68346W        W38161  35.108   7.179  12.073
68347W        W38162   0.492  38.350  14.845
68348W        W38163  25.685  19.600  13.955
68349W        W38164  25.033  30.061  12.826
68350W        W38165   0.900  18.639   1.888
68351W        W38166   0.981  37.022  13.825
68352W        W38167  34.491  26.604  14.475
68353W        W38168   0.898  16.690  13.926
68354W        W38169  39.012  16.286  12.350
68355W        W38170  17.721  44.862  12.341
68356W        W38171  15.202  18.071  11.466
68357W        W38172  35.529  34.017   5.099
68358W        W38173  21.141   8.828   0.389
68359W        W38174  19.596  33.465   3.243
68360W        W38175  43.882  19.707   4.197
68361W        W38176  14.148  35.067  14.773
68362W        W38177  44.282  34.424  13.022
68363W        W38178  15.619  29.553   4.160
68364W        W38179   8.732  11.212   2.311
68365W        W38180  18.700   2.886   3.247
68366W        W38181  20.726   6.390   2.240
68367W        W38182  13.240  29.446  11.050
68368W        W38183  38.953   4.448  12.577
68369W        W38184  34.912  15.621  14.371
68370W        W38185   2.458  28.575  11.554
68371W        W38186  40.958  14.656   4.702
68372W        W38187  21.142  27.965   4.264
68373W        W38188   2.438  33.525  12.969
68374W        W38189  26.030  40.475   2.190
68375W        W38190  26.201   8.326  14.422
68376W        W38191  38.958  40.966  10.890
68377W        W38192  34.961  44.488   2.365
68378W        W38193  15.114  12.848   1.812
68379W        W38194  19.593  35.965  14.316
68380W        W38195  42.888  15.794  10.972
68381W        W38196  12.162   3.428   2.747
68382W        W38197  23.687   4.213   4.704
68383W        W38198  18.788  32.966  10.922
68384W        W38199   3.444   0.864  14.857
68385W        W38200  28.562   1.885  10.934
68386W        W38201  35.372   1.895   2.211
68387W        W38202  14.120  34.052  10.560
68388W        W38203   0.283   0.848  14.849
68389W        W38204  19.564  29.059  13.906
68390W        W38205  13.646  33.938  10.458
68391W        W38206  32.937  32.902  12.579
68392W        W38207  35.379  23.197   0.958
68393W        W38208  21.174  33.947  12.470
68394W        W38209  15.193  25.527  12.488
68395W        W38210  31.085  34.085  14.359
68396W        W38211  22.668   8.723  12.909
68397W        W38212  10.855  42.812  13.363
68398W        W38213  20.746  17.732  11.001
68399W        W38214  33.941  24.184  12.577
68400W        W38215  28.490   8.878  10.501
68401W        W38216   5.914   8.226  13.477
68402W        W38217  35.391  19.073  11.543
68403W        W38218  29.563  40.913  14.773
68404W        W38219  34.594  41.535  12.085
68405W        W38220  21.519   7.262  12.410
68406W        W38221  10.859  44.452   2.845
68407W        W38222  42.317   5.249   2.862
68408W        W38223   5.828  27.123   0.900
68409W        W38224  27.022   0.412  14.937
68410W        W38225  25.468  25.126  10.637
68411W        W38226  29.460   0.272  10.545
68412W        W38227   7.265  27.588  14.463
68413W        W38228  26.491  14.142   3.198
68414W        W38229  33.380  12.267  13.955
68415W        W38230  19.182   0.904  11.105
68416W        W38231   4.938  18.788  10.934
68417W        W38232  33.526   5.751   0.903
68418W        W38233  41.918   1.476   0.419
68419W        W38234   7.372  38.051   4.625
68420W        W38235  15.102  36.383   2.718
68421W        W38236   6.812  11.737  13.028
68422W        W38237   6.705  35.870  11.458
68423W        W38238   7.264  31.508  10.951
68424W        W38239   7.402  33.478  11.090
68425W        W38240  32.940  43.019  12.399
68426W        W38241  17.237  34.955  14.948
68427W        W38242   8.835  20.223   1.304
68428W        W38243  32.965  29.993   1.354
68429W        W38244  41.878   2.305   0.888
68430W        W38245   7.700  30.593   3.243
68431W        W38246  19.103   2.228   1.371
68432W        W38247  33.549  44.288   5.245
68433W        W38248  24.492  19.169  13.352
68434W        W38249  13.753  33.412   3.267
68435W        W38250  27.098  26.096   1.776
68436W        W38251  20.626  37.043  11.539
68437W        W38252  30.919  25.168  10.988
68438W        W38253  11.651   9.236  14.440
68439W        W38254  43.311  27.990   2.350
68440W        W38255   7.780  21.173  14.029
68441W        W38256  19.590  31.597   3.261
68442W        W38257   7.881  24.605  14.964
68443W        W38258  33.587  44.302   2.756
68444W        W38259  18.659   8.888   5.149
68445W        W38260   9.149  16.136   2.869
68446W        W38261  12.315  37.350  13.363
68447W        W38262   2.732  44.395   3.856
68448W        W38263  19.572   9.786   0.411
68449W        W38264  40.420  12.286  13.376
68450W        W38265   0.272  30.096  13.038
68451W        W38266   3.401  39.057   2.242
68452W        W38267   1.472  42.310   1.768
68453W        W38268  10.322  31.407   4.699
68454W        W38269  25.101  37.417   5.642
68455W        W38270   8.815  26.079   3.213
68456W        W38271  41.872  33.024   0.351
68457W        W38272  38.882   9.160  12.420
68458W        W38273  25.677   1.834  10.032
68459W        W38274  35.551   3.352  11.105
68460W        W38275  17.234  18.081   0.411
68461W        W38276   1.852   2.945  11.486
68462W        W38277   8.277  41.931  12.992
68463W        W38278   5.362  37.545  14.852
68464W        W38279  27.985  35.498  11.008
68465W        W38280  36.501   3.732   0.252
68466W        W38281  38.449  43.905  10.596
68467W        W38282  12.153   4.931  14.906
68468W        W38283  20.264   2.234  14.935
68469W        W38284  34.923  10.302  13.038
68470W        W38285  15.230   8.661   4.227
68471W        W38286  11.660   7.881  13.384
68472W        W38287  28.023  28.539  14.952
68473W        W38288  14.823  30.046   3.847
68474W        W38289  35.544  39.939  12.396
68475W        W38290   4.256  39.990  14.801
68476W        W38291  20.078   2.229  12.516
68477W        W38292  39.885   1.390   3.807
68478W        W38293  40.855  35.592   3.810
68479W        W38294   0.414  32.451  14.006
68480W        W38295  34.453  20.247  11.400
68481W        W38296  13.651  26.651   0.431
68482W        W38297  42.924  39.844   2.830
68483W        W38298   3.411  13.220  12.470
68484W        W38299  31.569  33.501  10.480
68485W        W38300   2.837  44.797   2.284
68486W        W38301  36.989  39.491   1.299
68487W        W38302  28.120   3.788  14.821
68488W        W38303  16.767   3.866   4.685
68489W        W38304  11.327  30.537   3.742
68490W        W38305  12.619  19.562   4.138
68491W        W38306  10.266  30.114  13.877
68492W        W38307  11.266  22.020   2.684
68493W        W38308   1.827   4.234   4.280
68494W        W38309  22.612  40.843  13.443
68495W        W38310  39.479  43.304   1.739
68496W        W38311   9.784  44.754  15.000
68497W        W38312  23.205   0.820  12.073
68498W        W38313  35.028   2.308   1.715
68499W        W38314  23.116  29.521  12.998
68500W        W38315   8.405  39.551   5.678
68501W        W38316  31.537   4.912  12.082
68502W        W38317   3.303  11.214  10.594
68503W        W38318   0.263  18.227  11.459
68504W        W38319  37.459  23.099   3.175
68505W        W38320  42.807  20.657  10.942
68506W        W38321  24.577   9.295   2.892
68507W        W38322  24.591  33.932  11.457
68508W        W38323  20.195  40.447   2.721
68509W        W38324  40.346   3.256   3.358
68510W        W38325   3.354   9.368   3.164
68511W        W38326  13.681  10.273   1.733
68512W        W38327  42.862  24.132   3.230
68513W        W38328  23.209  27.497   0.878
68514W        W38329  10.334  42.946  11.021
68515W        W38330   9.759  32.065  10.422
68516W        W38331  29.622  29.536  10.893
68517W        W38332  32.032  29.965   1.342
68518W        W38333  37.905   4.372  12.457
68519W        W38334  28.014  15.782   0.954
68520W        W38335   1.365  25.676   4.654
68521W        W38336   9.844   3.823  11.444
68522W        W38337  11.250   8.346  12.962
68523W        W38338  28.492  11.358   3.261
68524W        W38339  39.484   8.862  12.864
68525W        W38340  16.310  26.589  11.951
68526W        W38341   2.914  24.601   3.304
68527W        W38342   8.719  42.302   1.756
68528W        W38343   9.741  34.919  12.060
68529W        W38344  23.696  16.266  14.492
68530W        W38345  27.018  15.270  14.879
68531W        W38346  23.052  32.476   3.191
68532W        W38347   3.268  18.246  11.127
68533W        W38348  36.360  24.106  10.984
68534W        W38349  35.488   6.775  11.603
68535W        W38350  44.869   5.931  11.001
68536W        W38351  27.564  17.276  14.287
68537W        W38352  12.794  17.641   0.243
68538W        W38353   6.401  38.451  14.787
68539W        W38354  19.129  36.449  13.421
68540W        W38355  24.483  11.253   3.294
68541W        W38356  19.636  30.617  10.912
68542W        W38357  22.154  25.980   3.810
68543W        W38358  35.036   8.404  10.888
68544W        W38359  11.286  13.728  14.816
68545W        W38360  24.204  20.691   1.319
68546W        W38361  26.648  39.052  14.461
68547W        W38362  20.592   6.342  10.404
68548W        W38363  16.210   0.371  11.392
68549W        W38364  33.102  10.753  10.592
68550W        W38365  32.933   3.332  13.415
68551W        W38366  40.330  27.978  13.860
68552W        W38367  29.069  21.586   0.335
68553W        W38368  24.214   6.423  10.061
68554W        W38369   5.786   6.283   1.323
68555W        W38370  36.349  25.166   2.768
68556W        W38371  30.996  21.528   2.692
68557W        W38372  10.234  34.586   0.916
68558W        W38373  24.112  20.035  13.397
68559W        W38374  21.712  10.316   3.311
68560W        W38375  20.633  10.306  14.929
68561W        W38376  22.705  18.285   0.373
68562W        W38377  11.847  32.024  12.858
68563W        W38378   4.450  32.562  14.347
68564W        W38379  13.213  41.353  13.060
68565W        W38380  40.496  23.021   0.323
68566W        W38381  26.489  43.976  12.960
68567W        W38382  40.449   0.313   2.298
68568W        W38383   5.385  18.733  14.769
68569W        W38384  26.145   2.335  13.031
68570W        W38385  27.972  44.266  11.043
68571W        W38386  11.234  14.614   4.224
68572W        W38387   5.215  42.890   4.811
68573W        W38388  11.622  23.986  10.914
68574W        W38389  35.549   6.298   2.339
68575W        W38390   8.659  31.418  11.499
68576W        W38391  17.298  25.996   4.221
68577W        W38392  44.934  26.491   4.802
68578W        W38393  35.995   0.485  10.459
68579W        W38394  20.690  18.747  12.357
68580W        W38395  19.769  10.334   2.300
68581W        W38396   0.966  41.820  14.323
68582W        W38397  27.608  12.194  14.768
68583W        W38398  40.904  31.450  14.842
68584W        W38399  32.432  16.757  10.557
68585W        W38400  27.126   7.844   2.184
68586W        W38401  26.134   4.353  13.352
68587W        W38402  39.376  35.971  11.516
68588W        W38403   7.765  39.821  14.387
68589W        W38404   1.250  30.955  13.477
68590W        W38405  18.241  16.798  13.491
68591W        W38406   8.349  19.176  14.300
68592W        W38407  30.053  13.243   0.371
68593W        W38408  10.668  13.793  11.557
68594W        W38409   5.847  17.160  11.551
68595W        W38410  39.050  33.480   4.711
68596W        W38411  32.500  32.952   1.343
68597W        W38412   5.316  25.503   2.836
68598W        W38413  14.289  28.180   1.318
68599W        W38414  19.277  21.578  14.397
68600W        W38415   7.199  11.322  11.942
68601W        W38416   5.384   3.809  13.939
68602W        W38417   7.321  11.691   0.850
68603W        W38418  10.373  34.948  14.470
68604W        W38419   7.758   8.333  14.499
68605W        W38420  24.999  41.788  14.414
68606W        W38421  43.858  27.589   2.832
68607W        W38422  36.943  10.232  12.942
68608W        W38423  43.503  36.508  13.413
68609W        W38424   2.945  14.325  11.108
68610W        W38425  43.991   6.425  11.886
68611W        W38426   7.309  12.689   0.422
68612W        W38427  19.133  26.126  14.326
68613W        W38428  11.268   7.396   1.872
68614W        W38429  28.523   5.717  11.106
68615W        W38430  15.588   1.853  13.020
68616W        W38431  24.695  15.717   0.873
68617W        W38432  18.595  38.386  10.504
68618W        W38433  18.140  25.665   3.817
68619W        W38434  10.652  10.322   1.283
68620W        W38435  27.197  40.825   1.224
68621W        W38436   5.419  23.551  11.441
68622W        W38437  43.852  18.654   3.655
68623W        W38438  11.134  12.809  12.517
68624W        W38439  10.310  40.006  12.432
68625W        W38440  35.090  15.740  14.007
68626W        W38441   0.957  27.611  14.993
68627W        W38442  39.548  36.957   0.792
68628W        W38443  25.011  13.215  11.475
68629W        W38444  35.959  23.506   3.816
68630W        W38445  20.183  33.537  12.955
68631W        W38446  23.070   0.485  13.830
68632W        W38447  40.050  37.988  14.311
68633W        W38448   2.414  18.148  14.825
68634W        W38449  38.872  41.514  12.395
68635W        W38450  20.582  26.137  12.846
68636W        W38451  19.683  35.584   4.647
68637W        W38452  24.051  11.710   5.237
68638W        W38453  28.084  30.101  12.564
68639W        W38454  33.561  37.521   3.387
68640W        W38455  20.136  10.663   3.363
68641W        W38456  21.075  29.564   9.931
68642W        W38457  19.617  30.043  10.967
68643W        W38458   8.270   6.678   4.170
68644W        W38459  34.577  44.986   0.741
68645W        W38460  15.102   5.893  11.446
68646W        W38461  15.109   7.411  12.416
68647W        W38462  15.184  17.588  11.090
68648W        W38463  40.535  10.164   2.246
68649W        W38464  21.035  21.022  12.451
68650W        W38465  14.310  29.549   2.672
68651W        W38466  13.164  39.460  11.061
68652W        W38467  22.017  31.586   0.863
68653W        W38468  16.168  35.881   3.818
68654W        W38469  13.616  22.220   0.414
68655W        W38470   3.306   8.773   3.691
68656W        W38471  38.066  41.849  12.433
68657W        W38472  23.727  33.520   0.749
68658W        W38473  36.508  42.929   3.730
68659W        W38474  13.334  38.003   1.450
68660W        W38475  10.729  16.693  12.056
68661W        W38476   9.153  43.915   3.861
68662W        W38477  12.718   6.793   0.929
68663W        W38478  42.281  40.798  14.380
68664W        W38479  42.861  39.354  13.511
68665W        W38480  27.996  18.742  12.977
68666W        W38481  28.645  17.261  13.397
68667W        W38482  22.712   8.721   3.667
68668W        W38483  32.057   4.433  13.871
68669W        W38484  24.541   5.277   1.817
68670W        W38485  43.866  15.102   3.337
68671W        W38486   9.794  24.025   0.469
68672W        W38487  18.762  10.863   0.400
68673W        W38488  38.367  39.974   1.347
68674W        W38489  14.763  26.637  14.437
68675W        W38490  10.235  27.145   1.904
68676W        W38491  25.189   6.279   4.633
68677W        W38492  22.054  25.474   2.831
68678W        W38493  16.237  36.921  11.126
68679W        W38494  31.433  39.861  12.990
68680W        W38495   2.933  31.001  13.522
68681W        W38496   0.830   0.355   0.839
68682W        W38497  39.455  12.237  13.435
68683W        W38498  34.019  27.066  14.985
68684W        W38499  31.129   9.353   4.188
68685W        W38500  16.754  33.090   2.419
68686W        W38501  34.598  20.526  12.444
68687W        W38502  35.103  37.912  11.935
68688W        W38503  24.691  11.345   2.723
68689W        W38504  41.401  33.445   0.787
68690W        W38505  24.532  32.042  11.097
68691W        W38506  13.271  18.050   2.828
68692W        W38507   5.276  35.896   0.960
68693W        W38508  19.745  25.167   3.795
68694W        W38509  31.007  14.708  14.512
68695W        W38510  42.370  24.175   1.713
68696W        W38511  25.160  29.550  14.396
68697W        W38512  13.601  41.403  11.865
68698W        W38513  14.302   4.842   1.244
68699W        W38514  16.297  39.043  14.432
68700W        W38515   5.211  43.878  14.292
68701W        W38516  27.017  10.160   2.245
68702W        W38517   9.774  22.122   1.294
68703W        W38518  29.950  22.199   1.855
68704W        W38519   9.817  39.059  10.566
68705W        W38520  20.196  19.579   3.220
68706W        W38521   3.388  33.897   2.747
68707W        W38522  17.616  27.125  12.092
68708W        W38523  43.966  38.426   2.788
68709W        W38524  22.673  24.553   1.803
68710W        W38525  39.889   4.317   3.862
68711W        W38526  33.532  35.485   4.115
68712W        W38527  15.213  38.867  11.026
68713W        W38528  12.147  29.596   0.817
68714W        W38529  21.572  38.497   1.772
68715W        W38530  26.543  29.433   1.239
68716W        W38531  35.412  22.744   0.811
68717W        W38532   1.395   7.714   1.399
68718W        W38533   4.824  20.175   0.386
68719W        W38534   4.264  32.595  12.493
68720W        W38535   6.905  31.431  14.957
68721W        W38536   9.739   1.456   0.817
68722W        W38537  16.732  31.123  12.956
68723W        W38538  18.051  31.504   1.281
68724W        W38539   9.225  25.498  10.898
68725W        W38540  26.672   9.706  14.984
68726W        W38541  35.887  24.533   3.231
68727W        W38542  20.606   8.796   2.898
68728W        W38543  44.831   8.283   4.778
68729W        W38544  19.278  39.392  11.064
68730W        W38545   6.273  24.050   3.181
68731W        W38546  27.092   7.289  13.882
68732W        W38547  32.932  35.584  11.071
68733W        W38548   7.803  32.989   3.673
68734W        W38549   8.293   2.436  11.970
68735W        W38550   8.859  32.446  14.475
68736W        W38551  19.759  13.652  11.093
68737W        W38552  23.227  38.441  13.892
68738W        W38553  15.638  41.451   3.638
68739W        W38554  35.922  17.712   4.316
68740W        W38555  13.126  28.509  12.013
68741W        W38556  11.747  33.442  13.508
68742W        W38557   6.734  23.045   2.755
68743W        W38558  38.885  34.603  11.056
68744W        W38559  18.264   9.647  13.404
68745W        W38560  19.274   2.852  13.039
68746W        W38561   6.859   8.249  14.864
68747W        W38562  17.245  28.666   1.304
68748W        W38563  12.120  21.595   3.210
68749W        W38564  12.822  10.866  10.972
68750W        W38565  34.536   0.945   3.724
68751W        W38566  19.614  34.985  13.478
68752W        W38567  19.075  24.565  12.356
68753W        W38568  24.589  26.489   0.429
68754W        W38569  30.972  21.554  12.546
68755W        W38570  16.763  25.545  13.934
68756W        W38571  10.218  26.674  10.415
68757W        W38572   5.299  34.375   3.633
68758W        W38573  23.211   7.198   4.124
68759W        W38574  34.917  21.247   5.283
68760W        W38575  17.653  34.017  12.419
68761W        W38576  25.103  12.637   3.312
68762W        W38577   0.861   1.320  10.948
68763W        W38578  28.650  16.597   1.446
68764W        W38579  40.033  17.263  10.456
68765W        W38580  30.493  15.101   2.257
68766W        W38581   6.272  14.155   1.359
68767W        W38582  18.223  34.564   4.779
68768W        W38583  34.053   7.717   4.350
68769W        W38584   7.857  24.694  13.940
68770W        W38585  34.376  17.069  12.356
68771W        W38586   3.347   2.384  11.538
68772W        W38587  13.327  37.882  13.928
68773W        W38588  28.995  17.177  11.126
68774W        W38589  16.124  21.144   4.800
68775W        W38590  27.498  29.041   0.282
68776W        W38591  10.637  34.395  12.838
68777W        W38592  34.469  28.494   4.783
68778W        W38593  18.251  34.893  11.084
68779W        W38594   3.446  28.938   1.280
68780W        W38595  41.963  11.358  13.974
68781W        W38596  42.858   8.892   0.461
68782W        W38597  37.013  17.184  11.451
68783W        W38598   8.700   6.332   4.663
68784W        W38599   5.792  31.502   4.824
68785W        W38600  31.459  17.685  11.018
68786W        W38601  44.953   2.958   1.889
68787W        W38602  22.027  24.673  12.924
68788W        W38603  39.944  43.271  13.338
68789W        W38604  30.569   3.929   0.919
68790W        W38605  12.226   1.959  12.366
68791W        W38606  33.986  11.717  12.539
68792W        W38607  27.624  19.678  11.596
68793W        W38608  29.989  34.558   0.386
68794W        W38609  40.940  35.402  13.013
68795W        W38610  28.620  21.228  13.318
68796W        W38611  14.717   2.462   1.853
68797W        W38612  24.543  31.557  11.512
68798W        W38613  26.517  28.946   1.407
68799W        W38614   9.360  25.118   5.218
68800W        W38615   0.780  35.881  14.768
68801W        W38616  14.250   7.416  12.553
68802W        W38617  16.269  36.008   4.835
68803W        W38618  40.546  37.341  13.017
68804W        W38619  32.958  29.127   2.373
68805W        W38620  29.529  36.517  13.467
68806W        W38621   7.676   3.718   2.822
68807W        W38622   7.911  15.808   0.386
68808W        W38623  25.566  44.400  10.405
68809W        W38624  17.097  18.108   3.851
68810W        W38625  12.188   7.892  11.486
68811W        W38626  10.155  24.707   1.931
68812W        W38627  38.324  34.052  13.489
68813W        W38628  35.522  26.678  11.916
68814W        W38629  14.096  33.917   2.298
68815W        W38630  23.166  33.556   2.212
68816W        W38631  14.758   3.812  12.824
68817W        W38632  12.628  27.644   4.120
68818W        W38633  16.632  27.083  13.376
68819W        W38634  40.327  41.809   1.298
68820W        W38635  10.851  14.105  11.971
68821W        W38636  15.774  11.632   2.360
68822W        W38637  31.528  28.611  10.406
68823W        W38638  16.809   1.335  11.399
68824W        W38639  15.205  13.211  13.024
68825W        W38640   5.843   0.977  14.948
68826W        W38641  40.542   9.829  11.922
68827W        W38642   3.714  23.625  14.469
68828W        W38643  29.030  40.850   0.399
68829W        W38644  28.128   0.259  14.368
68830W        W38645  14.218  12.197  11.426
68831W        W38646  19.600  21.717   2.201
68832W        W38647  21.181  32.086   5.186
68833W        W38648  39.870   5.211   0.730
68834W        W38649  23.052   1.251  13.440
68835W        W38650  14.126   0.347  14.383
68836W        W38651  31.635  10.642  14.807
68837W        W38652  44.281  14.169   1.819
68838W        W38653   1.914  28.165  14.376
68839W        W38654  20.161  43.308   5.303
68840W        W38655  44.863   8.743  13.444
68841W        W38656  36.857   7.801   1.837
68842W        W38657  20.734  25.699  11.598
68843W        W38658  23.144  26.521  12.533
68844W        W38659  34.465  14.591  12.868
68845W        W38660  31.020  19.269   4.660
68846W        W38661  26.567  22.109  11.399
68847W        W38662   9.342  38.496   1.258
68848W        W38663  42.885   1.367   3.148
68849W        W38664   8.839  22.112  10.512
68850W        W38665   0.266  25.697  11.000
68851W        W38666  26.505   6.420  12.899
68852W        W38667  31.538  29.557   4.711
68853W        W38668  18.686   7.906   3.870
68854W        W38669  35.475  17.102  11.431
68855W        W38670  30.576   4.340   4.821
68856W        W38671  23.004   0.423   5.221
68857W        W38672  10.692  18.238  14.904
68858W        W38673  19.169  28.072   0.273
68859W        W38674  35.944   4.413  14.825
68860W        W38675  24.978   8.690  12.510
68861W        W38676   0.364   6.406  12.884
68862W        W38677  21.693   2.821   1.258
68863W        W38678  10.732  43.300   3.174
68864W        W38679  11.833  32.507   2.729
68865W        W38680  36.494  37.878   2.203
68866W        W38681  29.484  43.455   4.718
68867W        W38682   0.264   4.873  14.018
68868W        W38683  24.486  19.263  12.038
68869W        W38684   1.920  42.940   2.720
68870W        W38685  13.817  36.846   4.210
68871W        W38686  36.423  22.221  12.079
68872W        W38687  31.531  25.498   1.334
68873W        W38688  17.609  43.979  10.420
68874W        W38689   0.381  39.825   3.793
68875W        W38690  42.332   3.849  11.028
68876W        W38691  16.295  42.917   0.437
68877W        W38692  25.633   0.427  13.458
68878W        W38693  18.722  13.703   1.359
68879W        W38694  34.067  28.146   0.444
68880W        W38695  40.806  20.643   3.274
68881W        W38696   5.896   9.716  14.440
68882W        W38697  43.841  19.165  12.046
68883W        W38698  11.785  23.035  10.989
68884W        W38699  36.068  15.662  12.003
68885W        W38700  17.595  12.192   0.824
68886W        W38701   7.863   5.225   2.326
68887W        W38702  14.117  41.477  12.340
68888W        W38703  37.573  20.717  13.335
68889W        W38704   3.726  18.752  12.426
68890W        W38705  14.756  21.656   1.395
68891W        W38706   7.235  42.963  15.000
68892W        W38707  19.275  40.417   3.671
68893W        W38708  28.576  34.997   3.696
68894W        W38709  23.711  33.410   3.173
68895W        W38710   6.217   8.224  14.445
68896W        W38711  10.253  29.112   2.198
68897W        W38712  40.363  17.780  10.416
68898W        W38713   4.264   2.306  12.352
68899W        W38714  33.558  43.882  12.998
68900W        W38715  40.521  22.678  12.846
68901W        W38716  22.033   0.394   0.401
68902W        W38717  15.156   5.708   1.300
68903W        W38718   3.924   9.784  12.970
68904W        W38719   7.229  24.164   0.884
68905W        W38720  20.190  19.597  14.392
68906W        W38721   7.354   2.860  10.557
68907W        W38722  36.552   1.367   3.704
68908W        W38723  34.076  33.602  10.065
68909W        W38724  33.481  32.425  12.919
68910W        W38725   7.388   8.192   3.307
68911W        W38726  35.377  15.577   2.840
68912W        W38727  27.021  34.427  10.628
68913W        W38728  22.054   1.336  12.048
68914W        W38729  13.236  44.769  11.470
68915W        W38730  30.052  29.644   1.341
68916W        W38731  38.924  39.966   1.217
68917W        W38732  32.988   1.859  11.478
68918W        W38733  30.976   2.815   0.850
68919W        W38734  13.119   6.784  13.471
68920W        W38735  37.568  17.138  13.987
68921W        W38736   3.424  15.089  11.866
68922W        W38737  20.054  19.243  13.015
68923W        W38738   4.443  38.056  13.528
68924W        W38739  31.997  13.776  13.536
68925W        W38740  33.422  34.380   3.320
68926W        W38741   4.792  36.033   4.296
68927W        W38742   9.668   9.247   0.249
68928W        W38743  12.314   1.452   4.603
68929W        W38744   6.836  42.408  13.972
68930W        W38745  30.127   4.282   2.234
68931W        W38746   1.461   1.894  11.478
68932W        W38747  29.668  38.892   2.301
68933W        W38748  25.703  26.097   2.848
68934W        W38749  10.657   4.811  11.479
68935W        W38750  19.111  18.157  12.920
68936W        W38751  19.537   7.321   1.401
68937W        W38752  23.121  32.576   4.180
68938W        W38753  35.086  42.845  12.875
68939W        W38754  16.143  19.225   2.838
68940W        W38755  29.544  22.114  12.061
68941W        W38756  17.759  10.844   0.399
68942W        W38757   6.306  11.128  12.399
68943W        W38758  35.957  43.980   0.436
68944W        W38759  19.632  25.073  12.578
68945W        W38760   8.875  20.578  11.558
68946W        W38761  24.591  22.526   0.821
68947W        W38762  27.018  31.128  13.435
68948W        W38763  37.961  24.128   0.857
68949W        W38764   1.959  43.818  10.609
68950W        W38765  24.108  24.998  14.377
68951W        W38766  13.186  27.562   0.448
68952W        W38767  24.561  28.004   0.861
68953W        W38768  18.064  33.036   2.255
68954W        W38769   3.366  38.378   3.851
68955W        W38770  26.655  13.212   2.361
68956W        W38771   0.287  21.571  12.884
68957W        W38772  20.660  36.983   0.443
68958W        W38773   7.357  37.872   3.786
68959W        W38774  42.870  24.595  14.922
68960W        W38775  11.743  16.708  14.918
68961W        W38776  30.642  34.895   4.760
68962W        W38777  23.087   5.426  14.973
68963W        W38778  29.614  38.056   1.270
68964W        W38779  36.010   4.751   2.778
68965W        W38780   3.874  31.965  10.938
68966W        W38781   3.375  36.016   3.775
68967W        W38782   7.811  39.937   4.175
68968W        W38783  33.915  16.597   2.741
68969W        W38784  20.173  18.282   2.337
68970W        W38785  22.735  39.854   4.157
68971W        W38786  37.021  30.907  14.367
68972W        W38787  16.143  40.015   3.205
68973W        W38788   1.847  24.984  14.804
68974W        W38789  31.143  29.439  11.022
68975W        W38790   6.273   3.322   2.782
68976W        W38791  30.658  25.557   2.838
68977W        W38792   4.839   6.353   0.885
68978W        W38793  32.014  44.463   1.365
68979W        W38794  26.625  22.688  13.974
68980W        W38795  17.708  16.174  12.987
68981W        W38796  17.753  32.051  13.478
68982W        W38797  10.872  38.561  10.950
68983W        W38798   1.389  25.623  11.601
68984W        W38799  36.913  28.105   0.916
68985W        W38800  25.202  10.244   1.333
68986W        W38801  19.718  42.285   3.324
68987W        W38802  10.720   4.884  13.353
68988W        W38803   4.252  40.028  12.034
68989W        W38804  36.067  21.629  13.856
68990W        W38805  28.991  34.513  12.380
68991W        W38806   6.913  20.687  14.778
68992W        W38807  40.411  34.951  14.813
68993W        W38808  35.437  17.640  10.636
68994W        W38809  25.047  32.411   3.683
68995W        W38810  21.239   1.354   5.768
68996W        W38811  31.479  42.875   3.863
68997W        W38812  37.429  26.090  14.837
68998W        W38813  19.117  44.300   0.346
68999W        W38814  33.937  39.473   0.890
69000W        W38815   3.893  16.619  11.088
69001W        W38816  35.019  12.765   1.428
69002W        W38817  11.245  16.643   4.193
69003W        W38818  14.619  22.172  11.604
69004W        W38819  23.107  34.874   3.297
69005W        W38820   1.471  38.959   0.783
69006W        W38821  21.638  28.059  11.910
69007W        W38822  24.986  39.540   4.760
69008W        W38823  16.618   9.189   4.749
69009W        W38824  32.136  29.116   4.269
69010W        W38825  14.275  18.757   3.667
69011W        W38826   4.779  29.515  12.342
69012W        W38827  13.619  39.526  13.860
69013W        W38828  12.714  21.636  14.465
69014W        W38829  18.766  29.530  11.574
69015W        W38830  23.175  29.026  12.035
69016W        W38831   7.733   1.264   3.360
69017W        W38832  32.463  39.021   4.116
69018W        W38833  34.402  18.654  14.455
69019W        W38834  32.499  11.831   2.767
69020W        W38835  11.293  20.270   0.750
69021W        W38836  19.550  40.455  12.914
69022W        W38837  23.227  37.920  12.394
69023W        W38838  39.466  29.000  12.896
69024W        W38839   8.309  27.029   0.271
69025W        W38840  17.153   7.781  12.427
69026W        W38841  24.216  39.888   4.243
69027W        W38842  39.458  37.441  14.933
69028W        W38843  18.685  21.631  12.041
69029W        W38844  25.017  16.669   0.905
69030W        W38845  44.399  21.046  11.943
69031W        W38846  41.887  26.186   1.767
69032W        W38847  28.458   2.323  14.798
69033W        W38848   9.860   0.488  10.934
69034W        W38849  14.168   2.331   2.330
69035W        W38850  14.705  13.634  14.300
69036W        W38851  41.510  36.920   2.317
69037W        W38852  15.629  30.447  12.497
69038W        W38853  34.924   5.729  14.344
69039W        W38854   2.963  34.908  13.056
69040W        W38855  28.492  13.718  13.855
69041W        W38856  28.138  35.023  12.933
69042W        W38857  15.676  17.672   2.308
69043W        W38858  11.826   3.897   3.254
69044W        W38859   1.880   0.744   5.091
69045W        W38860  27.505  13.680   3.327
69046W        W38861   4.418  38.953   2.711
69047W        W38862  31.506  36.962   3.351
69048W        W38863   3.806   1.907  10.136
69049W        W38864  36.397  15.312  12.517
69050W        W38865   9.884  43.406  14.400
69051W        W38866  33.970  28.617   3.230
69052W        W38867  13.846  30.617   0.401
69053W        W38868  12.198  16.753  13.911
69054W        W38869  16.202   4.306   4.344
69055W        W38870  27.975  44.944  11.540
69056W        W38871  15.291  43.404   1.219
69057W        W38872  25.212  39.039  14.362
69058W        W38873  31.960  43.479  13.004
69059W        W38874  21.682   9.339   0.818
69060W        W38875   3.415  12.817  10.425
69061W        W38876  15.759  23.692  10.935
69062W        W38877   3.304  15.619  14.462
69063W        W38878   3.780  18.615   4.130
69064W        W38879  28.080  35.549  13.481
69065W        W38880  16.151  37.873  11.046
69066W        W38881   5.290  28.655  13.943
69067W        W38882  11.804   8.803   4.780
69068W        W38883  26.611  30.444  14.809
69069W        W38884  16.173  44.966  13.477
69070W        W38885   0.834  15.626  14.321
69071W        W38886  40.534  19.212   3.176
69072W        W38887  30.593  15.759  14.012
69073W        W38888  33.977  23.628   2.897
69074W        W38889  29.551  28.513   2.405
69075W        W38890  10.677  41.453   1.834
69076W        W38891  32.046  29.562   0.414
69077W        W38892  32.563  42.845  14.863
69078W        W38893  28.038  21.720  11.865
69079W        W38894  28.026  17.741  12.994
69080W        W38895  43.432  25.097  12.977
69081W        W38896  40.855  28.955  10.450
69082W        W38897  40.464  42.467   3.146
69083W        W38898   1.936  30.088  14.886
69084W        W38899   7.314   1.250   4.317
69085W        W38900  44.485  43.409   4.616
69086W        W38901  30.982   2.435   3.302
69087W        W38902  29.945   4.234   1.876
69088W        W38903  25.689  31.048  13.792
69089W        W38904  28.158  39.345   2.348
69090W        W38905   4.931  39.999  13.979
69091W        W38906  13.663   1.758   0.280
69092W        W38907   9.236  36.879   3.698
69093W        W38908  24.502  41.796  12.363
69094W        W38909  20.680  27.000  12.031
69095W        W38910  28.067  34.614   5.198
69096W        W38911  12.169  24.683   4.699
69097W        W38912  18.552  40.385   2.766
69098W        W38913  22.647  18.727  10.416
69099W        W38914  35.045  30.610   2.195
69100W        W38915  32.549  36.912   1.443
69101W        W38916  30.457  32.118   1.719
69102W        W38917  11.733  17.165   3.741
69103W        W38918  30.603   0.962  13.055
69104W        W38919  11.843  21.613  14.457
69105W        W38920  25.121  24.043  14.011
69106W        W38921  26.175  21.031   2.775
69107W        W38922  25.011  32.023  13.866
69108W        W38923  17.722  17.718   2.667
69109W        W38924  32.093  42.847   2.695
69110W        W38925  43.790  10.305  10.545
69111W        W38926  38.535  33.399  14.480
69112W        W38927  31.139   7.896  11.063
69113W        W38928  33.575  15.145   0.832
69114W        W38929   5.723  41.804   4.740
69115W        W38930  29.626  16.078  13.383
69116W        W38931  17.303  35.471  12.437
69117W        W38932  37.512  40.304   4.613
69118W        W38933   2.795  16.105  12.423
69119W        W38934  38.389  12.351  12.036
69120W        W38935   6.801   4.327   4.172
69121W        W38936   1.907  28.067  11.565
69122W        W38937  23.128  11.667   1.430
69123W        W38938  24.517  37.556  10.926
69124W        W38939  40.530  18.642   3.345
69125W        W38940  25.489  39.417  10.508
69126W        W38941  19.072  12.673   0.763
69127W        W38942  13.649  28.477   2.668
69128W        W38943  15.622  21.045  13.548
69129W        W38944  34.074  44.261  13.820
69130W        W38945   4.253  19.545   3.155
69131W        W38946   4.879  27.180   3.174
69132W        W38947  19.129  15.799  11.560
69133W        W38948  29.622   5.429   0.286
69134W        W38949  10.351  30.503  14.335
69135W        W38950   3.459   5.701  12.991
69136W        W38951   7.759  35.891   3.155
69137W        W38952  35.928  14.758  14.475
69138W        W38953  26.198   2.791   4.613
69139W        W38954   0.349  36.917  14.354
69140W        W38955  40.380  11.868   0.453
69141W        W38956  14.691  12.279   4.711
69142W        W38957  31.573  38.021   0.941
69143W        W38958  32.966   5.396   4.668
69144W        W38959  25.108  17.611  14.767
69145W        W38960  23.031  38.544  14.351
69146W        W38961  22.528  13.293  12.088
69147W        W38962  36.545   8.701  14.993
69148W        W38963   9.254  36.874  14.785
69149W        W38964   1.840  12.357   1.302
69150W        W38965  13.153   5.230  12.343
69151W        W38966  38.005  44.783   2.286
69152W        W38967   5.695  32.983   1.281
69153W        W38968  27.051  23.672  14.509
69154W        W38969  29.124  29.022  12.361
69155W        W38970  11.180  17.132  10.051
69156W        W38971  13.639  32.529  14.276
69157W        W38972  34.087  37.383   0.311
69158W        W38973  32.891   9.183   3.694
69159W        W38974   3.737   2.825   0.323
69160W        W38975  33.048  12.180  13.941
69161W        W38976  42.394  26.527   1.717
69162W        W38977   0.746   4.727   0.866
69163W        W38978   3.332   0.274   3.855
69164W        W38979  24.184  11.753  13.402
69165W        W38980  27.049  41.403   0.465
69166W        W38981  29.581   8.815   5.312
69167W        W38982  21.754  17.751   1.288
69168W        W38983  12.842  26.544  10.005
69169W        W38984  40.054  39.546   4.290
69170W        W38985  25.046  31.941   0.455
69171W        W38986  38.950  14.656   2.732
69172W        W38987  33.427  10.196  13.021
69173W        W38988  21.541  18.261   1.840
69174W        W38989  37.362  18.706  10.919
69175W        W38990  22.681  29.618   2.903
69176W        W38991  19.739   7.757  12.443
69177W        W38992  37.874  33.401   4.248
69178W        W38993  11.347  25.561  11.073
69179W        W38994  31.077  26.658   0.307
69180W        W38995  21.714  37.400  11.548
69181W        W38996  11.851   9.341  12.055
69182W        W38997   2.778  24.594   2.833
69183W        W38998  32.430  36.865  14.883
69184W        W38999   6.295  24.023   4.731
69185W        W39000  28.935  19.128  11.386
69186W        W39001  19.765  19.761   3.827
69187W        W39002  18.679  23.513   1.341
69188W        W39003  42.493  42.312  12.859
69189W        W39004  27.524   9.791   1.429
69190W        W39005   8.696   4.393   1.421
69191W        W39006  20.094  36.403  10.465
69192W        W39007  34.105  37.885  12.400
69193W        W39008  43.019  42.510   4.692
69194W        W39009  21.527  34.425   1.230
69195W        W39010   0.928   4.779  14.410
69196W        W39011  21.758   0.756   2.329
69197W        W39012  42.428  12.618   0.449
69198W        W39013  43.308  28.656   3.659
69199W        W39014   2.374   3.797  13.989
69200W        W39015  33.922  13.811   4.687
69201W        W39016  26.547  39.013   1.796
69202W        W39017   1.421  27.966  10.968
69203W        W39018  36.919  19.041  11.053
69204W        W39019  31.493   5.796   2.892
69205W        W39020  22.658  42.871  10.125
69206W        W39021  20.690  33.557   2.199
69207W        W39022  13.755   7.852  12.352
69208W        W39023  36.507  28.559  10.446
69209W        W39024   1.381  26.584   2.866
69210W        W39025  26.627  36.348   2.732
69211W        W39026  28.439   5.708   4.176
69212W        W39027  43.846  32.998   3.264
69213W        W39028  13.283  20.085   4.237
69214W        W39029  17.131  39.913   0.867
69215W        W39030  40.042  24.054  13.854
69216W        W39031  20.053  41.506   9.996
69217W        W39032   6.246  19.553  12.897
69218W        W39033   7.911   9.177   4.750
69219W        W39034  23.219  10.673   4.788
69220W        W39035  30.654  26.149   0.440
69221W        W39036  36.876  18.068  13.839
69222W        W39037  34.037  29.174   3.342
69223W        W39038  36.869  15.257  14.312
69224W        W39039  16.085  11.797  13.970
69225W        W39040  17.600  18.620   3.638
69226W        W39041  34.605  14.201   1.379
69227W        W39042  36.931  26.559  14.777
69228W        W39043  42.906  27.560   4.831
69229W        W39044  42.803   3.304   4.220
69230W        W39045  33.410  25.159   2.847
69231W        W39046  33.495  40.969  12.398
69232W        W39047   4.387  17.257   1.425
69233W        W39048   2.871   6.789  14.481
69234W        W39049  41.002  44.331  10.537
69235W        W39050  25.636   1.413  11.476
69236W        W39051   9.738  18.157   2.702
69237W        W39052  28.182  28.092  14.874
69238W        W39053  39.874  38.548  11.917
69239W        W39054  36.510  35.433  13.472
69240W        W39055  21.647  17.799  11.070
69241W        W39056  14.816  42.298   3.714
69242W        W39057  10.695   1.423   1.695
69243W        W39058  27.546   1.357   2.758
69244W        W39059  13.173  24.987  11.445
69245W        W39060  25.675  41.341  14.289
69246W        W39061  27.553  18.190  12.928
69247W        W39062  44.757  10.331   2.817
69248W        W39063  41.858  21.681   0.253
69249W        W39064  15.803  33.531   3.200
69250W        W39065   2.925  28.467   1.261
69251W        W39066  12.238  19.174   1.430
69252W        W39067  14.263   1.292  10.490
69253W        W39068  30.027  15.118   2.685
69254W        W39069  10.794   0.835   4.746
69255W        W39070   5.886  21.203   0.790
69256W        W39071  37.453  39.012   5.102
69257W        W39072   6.732  22.111   2.873
69258W        W39073  30.538  13.245   5.262
69259W        W39074  20.725   6.756  13.035
69260W        W39075   9.819   1.924  11.055
69261W        W39076   8.881  39.559   1.900
69262W        W39077   5.903  38.011   1.357
69263W        W39078  11.168  34.465  10.645
69264W        W39079  34.881   7.799   5.270
69265W        W39080  33.546  17.206   1.883
69266W        W39081  11.795  41.859  11.003
69267W        W39082  33.440  31.995   0.387
69268W        W39083   0.988  32.896  12.529
69269W        W39084  23.518  20.111   0.365
69270W        W39085  35.006  26.166   1.294
69271W        W39086  31.577  31.647   2.344
69272W        W39087   3.891  34.573  10.620
69273W        W39088   7.700  39.909  14.820
69274W        W39089  30.481  42.352  10.930
69275W        W39090  40.303  32.006  13.537
69276W        W39091   2.918  14.610   3.274
69277W        W39092  30.433  19.668   1.935
69278W        W39093  38.884  40.979  11.929
69279W        W39094   0.799  38.036   1.217
69280W        W39095   7.759  44.991   2.801
69281W        W39096   6.293  17.784   4.617
69282W        W39097  35.382  34.541  10.529
69283W        W39098  25.681  18.645  11.442
69284W        W39099  14.724  31.965  12.053
69285W        W39100  20.165   2.830  12.527
69286W        W39101   4.432  13.748   1.813
69287W        W39102  30.155   4.748   1.768
69288W        W39103  10.236  12.694  13.821
69289W        W39104   7.224  29.494  12.030
69290W        W39105  32.570  10.822   0.304
69291W        W39106   6.912  15.604  11.900
69292W        W39107  18.740   3.303  11.127
69293W        W39108  20.210  28.156   2.178
69294W        W39109  31.120  13.797   2.274
69295W        W39110  38.911  21.200   2.226
69296W        W39111  16.614  26.567  14.444
69297W        W39112   9.834   7.221  10.946
69298W        W39113  20.739   3.765  10.603
69299W        W39114  20.048   1.829   9.963
69300W        W39115  21.085  33.062   0.283
69301W        W39116  15.664   3.827   0.826
69302W        W39117   4.832  42.983  12.459
69303W        W39118   8.755  35.424  13.051
69304W        W39119  12.248  32.498  14.341
69305W        W39120  32.132  10.248   2.357
69306W        W39121  24.600  39.359   1.411
69307W        W39122  40.546  21.200  13.012
69308W        W39123   2.770  42.402   2.304
69309W        W39124  12.835  13.126  11.372
69310W        W39125   3.920  19.257   2.381
69311W        W39126  40.528   8.327  14.835
69312W        W39127  35.858  15.667   0.758
69313W        W39128  18.207  31.068  14.822
69314W        W39129  25.155   4.759   5.259
69315W        W39130  36.591  23.680  10.518
69316W        W39131  12.807   7.832  11.561
69317W        W39132  17.570  29.464   4.207
69318W        W39133  24.514  35.886  11.427
69319W        W39134  36.975  44.813   2.404
69320W        W39135  33.414  34.039   4.773
69321W        W39136   2.436  36.379   4.296
69322W        W39137   6.420  23.026  14.342
69323W        W39138  19.775  23.591   2.328
69324W        W39139  42.400  13.626  11.935
69325W        W39140  43.786  10.717  12.374
69326W        W39141  44.434   0.479   0.355
69327W        W39142  25.471  33.586   4.312
69328W        W39143  11.269   8.844   1.798
69329W        W39144   3.455  38.024  11.957
69330W        W39145  36.029  22.615  14.962
69331W        W39146  25.060  12.744  11.901
69332W        W39147  44.820   4.850   3.729
69333W        W39148  27.511  42.955   1.751
69334W        W39149   9.198  32.919  11.477
69335W        W39150   2.349  26.147  10.645
69336W        W39151  38.387  15.133   1.224
69337W        W39152  27.621  43.020   4.675
69338W        W39153   9.853  35.946   3.293
69339W        W39154  11.200  43.441  12.401
69340W        W39155  36.557  33.082  10.989
69341W        W39156  36.424   4.941  10.083
69342W        W39157  20.751  33.615  13.024
69343W        W39158  26.183  36.416   4.176
69344W        W39159   8.265   9.367  11.877
69345W        W39160   2.291  19.089   0.734
69346W        W39161  23.091  17.274   4.810
69347W        W39162  25.981  31.453  12.877
69348W        W39163  34.000   2.740  11.059
69349W        W39164  34.065  13.645   0.903
69350W        W39165  12.332  38.539  13.064
69351W        W39166   5.229   2.271   4.736
69352W        W39167   9.672   8.330   4.253
69353W        W39168  17.715  22.599   3.730
69354W        W39169  38.059   4.879   1.804
69355W        W39170  25.655  22.629   4.780
69356W        W39171   5.916  37.869   3.273
69357W        W39172  26.169  19.721  11.405
69358W        W39173  37.453  33.615   3.224
69359W        W39174  38.415  19.188  10.434
69360W        W39175   3.871   9.336   3.348
69361W        W39176  11.803  32.413  10.913
69362W        W39177  26.521  27.155   2.822
69363W        W39178  10.876   7.724   4.220
69364W        W39179  15.296  39.964   2.399
69365W        W39180  13.656   1.290  11.536
69366W        W39181  34.059  42.821   2.300
69367W        W39182  41.823  18.243  10.137
69368W        W39183  32.106  27.501   2.291
69369W        W39184  37.477  17.748  13.453
69370W        W39185  37.852  42.389  13.387
69371W        W39186   3.771  18.772  10.623
69372W        W39187  22.080   6.710   1.698
69373W        W39188   5.862  34.568   0.918
69374W        W39189  15.787  44.947  12.522
69375W        W39190  19.606  15.159   2.386
69376W        W39191  40.964   0.445   0.911
69377W        W39192   2.816  22.204   0.478
69378W        W39193  26.995  19.694   3.289
69379W        W39194  14.231  16.190   1.346
69380W        W39195  19.761  14.159   2.362
69381W        W39196  39.852  12.724   4.734
69382W        W39197   3.445  35.530  14.459
69383W        W39198  19.690  41.467   0.895
69384W        W39199  22.016   2.339  10.916
69385W        W39200  21.117  13.662  11.112
69386W        W39201  29.489  27.004   2.278
69387W        W39202  31.427   2.278   2.267
69388W        W39203   9.193   9.354   4.244
69389W        W39204  21.645  19.162   3.339
69390W        W39205  27.604  35.955   4.349
69391W        W39206  43.950  37.460  13.811
69392W        W39207  13.627  37.563  13.456
69393W        W39208  27.136   9.836  10.080
69394W        W39209  24.228  36.438  12.516
69395W        W39210  42.388  40.321  14.336
69396W        W39211  37.854  19.168   3.195
69397W        W39212  22.719  33.089   1.236
69398W        W39213  30.613   5.348  14.338
69399W        W39214  35.480  30.471  11.606
69400W        W39215   5.839  31.122   4.122
69401W        W39216  22.159   8.299   0.378
69402W        W39217  13.244  12.700  11.041
69403W        W39218   4.257  42.489  14.284
69404W        W39219  26.007  32.107  11.568
69405W        W39220  22.205  41.909   4.293
69406W        W39221  37.978  19.077  10.602
69407W        W39222  23.059  30.126   3.738
69408W        W39223  27.685   4.264   0.880
69409W        W39224  15.801  22.631   2.844
69410W        W39225  14.248   4.896   4.297
69411W        W39226  40.836   9.309  12.901
69412W        W39227  16.701  13.295  14.965
69413W        W39228  12.742  17.674   2.807
69414W        W39229  19.564  31.959   1.864
69415W        W39230   9.766   6.802  11.570
69416W        W39231  10.202  28.675  10.476
69417W        W39232   5.321  33.889  14.962
69418W        W39233   7.333  25.628  12.983
69419W        W39234  29.086   1.447  12.829
69420W        W39235   6.348  19.143   1.408
69421W        W39236   7.403  29.561  10.516
69422W        W39237  36.593  11.725  11.558
69423W        W39238  43.812  33.122  12.905
69424W        W39239  19.125   6.744  12.533
69425W        W39240  26.649  37.411   0.454
69426W        W39241  18.589  20.708   0.900
69427W        W39242  20.240  15.618   3.714
69428W        W39243  42.843  44.387  14.822
69429W        W39244  38.052  21.550  11.087
69430W        W39245  30.522   3.441   2.310
69431W        W39246  38.416  12.838  11.870
69432W        W39247  14.216  18.195   3.365
69433W        W39248  14.709  17.775  12.944
69434W        W39249   0.408  28.114  11.527
69435W        W39250   3.371  17.233  14.813
69436W        W39251  34.094  38.954  10.492
69437W        W39252  20.151  20.172   2.390
69438W        W39253   8.189   0.954  12.426
69439W        W39254  25.005   4.425  11.122
69440W        W39255  21.689  24.226  11.088
69441W        W39256   5.255  30.069   0.799
69442W        W39257  14.677  44.344  13.348
69443W        W39258   9.203   1.974  10.421
69444W        W39259  41.485   3.838  12.868
69445W        W39260  14.719  21.044   3.210
69446W        W39261   2.824  18.597  12.857
69447W        W39262  15.742   8.178   0.892
69448W        W39263  35.431  23.158  12.476
69449W        W39264  26.516  24.079  11.380
69450W        W39265   2.339   0.926   4.653
69451W        W39266  38.472  16.225   3.696
69452W        W39267  33.095  14.168  13.955
69453W        W39268   9.225  36.517   3.799
69454W        W39269  43.396  19.737  12.431
69455W        W39270   3.442  16.100   1.408
69456W        W39271  26.008  10.219  10.460
69457W        W39272  15.118  41.390  11.873
69458W        W39273   6.342   8.896   1.784
69459W        W39274  38.405  29.494  13.924
69460W        W39275  15.300  24.505  10.454
69461W        W39276   4.904  13.217  12.915
69462W        W39277  37.926  29.170   1.837
69463W        W39278  12.635  24.527   2.398
69464W        W39279  23.193  30.657  12.442
69465W        W39280  24.710  42.003  14.368
69466W        W39281  22.049  41.399  13.917
69467W        W39282  12.831  43.454   2.330
69468W        W39283  39.828   3.277  13.006
69469W        W39284  33.072   6.369  10.928
69470W        W39285  35.878  29.642   5.168
69471W        W39286  35.981  20.764  11.928
69472W        W39287  21.593  31.080   2.824
69473W        W39288  39.411   1.367  12.831
69474W        W39289  42.775  14.620   4.201
69475W        W39290   8.215  27.192   1.365
69476W        W39291  16.575   1.801   0.480
69477W        W39292  37.439  34.039   0.870
69478W        W39293   9.679  11.308  10.608
69479W        W39294  18.565   5.359   2.760
69480W        W39295  20.257  23.069  14.804
69481W        W39296   5.791  44.877   2.760
69482W        W39297   8.166  23.203   1.774
69483W        W39298  13.179   6.310  11.544
69484W        W39299  19.780  40.909  10.596
69485W        W39300   0.883  25.549  11.931
69486W        W39301  27.479   8.669  13.367
69487W        W39302  10.348  34.564  10.096
69488W        W39303  17.683   9.796   1.768
69489W        W39304  36.961  13.844   0.940
69490W        W39305  37.891  15.180  14.429
69491W        W39306  22.518  43.004   0.473
69492W        W39307   0.394  30.148   1.856
69493W        W39308   6.835  23.158  12.411
69494W        W39309   1.740  21.110   0.415
69495W        W39310  38.886  37.033  11.093
69496W        W39311  41.293  15.304   4.801
69497W        W39312  24.701  27.596   1.449
69498W        W39313   5.380  38.912  11.115
69499W        W39314   6.773  38.459   2.732
69500W        W39315  40.984  16.727  12.922
69501W        W39316  14.634  20.745  13.329
69502W        W39317  29.079  28.137  14.000
69503W        W39318   0.415  36.450  11.932
69504W        W39319  42.027   3.815   0.958
69505W        W39320  20.241  15.285  11.068
69506W        W39321  33.479  10.732  14.402
69507W        W39322  30.533  37.550   0.459
69508W        W39323   6.341   4.266   0.828
69509W        W39324  16.228  31.080   3.648
69510W        W39325   6.829   2.270  13.388
69511W        W39326  19.719  23.494  14.947
69512W        W39327   4.874  37.841   1.417
69513W        W39328  21.558  24.036   1.819
69514W        W39329  20.168  40.825  13.991
69515W        W39330  40.357  17.081   3.250
69516W        W39331  29.136  28.165   2.393
69517W        W39332  35.464  14.178  10.521
69518W        W39333  21.599   2.733  14.970
69519W        W39334  28.953   0.351   2.729
69520W        W39335   4.750   0.357   0.264
69521W        W39336   7.678  26.141   3.697
69522W        W39337  16.618  26.163   3.682
69523W        W39338  22.720  15.664  13.839
69524W        W39339  13.844  22.241  12.397
69525W        W39340  15.704  28.526  11.063
69526W        W39341  43.433  25.596   4.226
69527W        W39342   2.234  33.972  13.026
69528W        W39343  26.079  12.853   2.189
69529W        W39344  29.647  33.955  10.932
69530W        W39345   5.810  17.615  12.985
69531W        W39346  19.273  22.719   2.329
69532W        W39347  17.593  14.661  13.936
69533W        W39348   3.907  19.107   1.850
69534W        W39349  10.178  16.603   4.618
69535W        W39350   6.782  40.357  13.307
69536W        W39351   8.250  34.408  12.886
69537W        W39352  33.122  43.510  13.868
69538W        W39353   4.878  22.733   1.286
69539W        W39354  17.066  33.908   1.397
69540W        W39355  43.316  31.027   4.242
69541W        W39356   3.452  20.190   1.403
69542W        W39357  10.789   8.676  11.991
69543W        W39358  15.689  44.485   4.184
69544W        W39359  29.140   1.798   2.790
69545W        W39360  31.058  29.920   0.416
69546W        W39361  28.622  22.111   4.760
69547W        W39362   6.683  18.711  14.895
69548W        W39363  11.718   3.248  10.157
69549W        W39364  44.956  29.998   2.679
69550W        W39365  42.022  27.581   2.223
69551W        W39366  30.098   9.206   3.812
69552W        W39367  10.329  14.677  13.365
69553W        W39368  39.902  20.555   4.248
69554W        W39369   7.683  11.744  10.014
69555W        W39370  39.005  38.497   4.756
69556W        W39371  16.744  22.543  11.889
69557W        W39372  20.584  28.668  13.378
69558W        W39373  25.703  39.839   2.366
69559W        W39374  21.608  23.164  13.527
69560W        W39375  34.867  37.899   1.856
69561W        W39376  18.652  21.262   4.629
69562W        W39377   0.343  44.364  13.023
69563W        W39378  33.077  28.479   0.900
69564W        W39379  12.157  16.236  11.408
69565W        W39380  22.120   1.819   4.236
69566W        W39381  23.036  21.069   0.890
69567W        W39382  34.027  33.500  12.366
69568W        W39383  41.395  14.763  13.431
69569W        W39384  22.703  19.642  11.494
69570W        W39385   2.910  14.638  11.904
69571W        W39386  36.061   0.744   0.275
69572W        W39387  23.156  38.399   0.868
69573W        W39388  40.945  17.593  13.965
69574W        W39389  26.484  13.179   0.318
69575W        W39390  24.656  20.142   2.309
69576W        W39391  38.857  11.301   0.847
69577W        W39392  12.791  28.518   2.264
69578W        W39393  35.086  41.949   0.332
69579W        W39394   0.447   8.401  14.499
69580W        W39395  34.953  33.015   0.328
69581W        W39396  44.491  31.633   0.425
69582W        W39397   8.707  39.946  13.982
69583W        W39398  25.490  15.703  11.866
69584W        W39399  38.955  39.005   4.335
69585W        W39400  34.462  42.480   1.443
69586W        W39401  27.505  27.481  11.001
69587W        W39402  27.534  26.102   2.725
69588W        W39403  43.837  15.638   0.778
69589W        W39404  11.181  12.709  10.543
69590W        W39405  32.437  15.110   4.791
69591W        W39406  14.623  33.558  10.417
69592W        W39407  37.021  20.189  14.308
69593W        W39408  10.184   3.334  13.414
69594W        W39409  37.903  23.697   2.858
69595W        W39410   7.396  42.814   4.604
69596W        W39411  15.605  20.562   2.719
69597W        W39412  11.132  18.274   2.697
69598W        W39413   7.417   8.375  10.518
69599W        W39414   0.459  21.700   3.776
69600W        W39415  43.982  19.708  12.440
69601W        W39416  33.571  21.614   3.686
69602W        W39417  43.932   9.756   1.335
69603W        W39418  39.047  20.755   2.261
69604W        W39419  12.230  41.967   1.216
69605W        W39420  31.420   7.203  14.017
69606W        W39421  23.096  39.542   4.332
69607W        W39422  23.232  42.451  14.479
69608W        W39423  36.852  18.626   3.773
69609W        W39424  39.552  15.768   0.964
69610W        W39425  10.144   6.819   2.828
69611W        W39426  22.553   3.412   2.858
69612W        W39427   1.804  11.859  12.545
69613W        W39428  35.025  25.965  13.388
69614W        W39429  15.289  19.073  14.022
69615W        W39430   0.816  12.830  11.090
69616W        W39431   4.889   0.369  12.952
69617W        W39432   6.758  36.927  12.469
69618W        W39433  32.449  13.796   1.324
69619W        W39434  33.596   3.368  13.848
69620W        W39435  26.486   4.819   5.259
69621W        W39436  23.713  38.893  14.812
69622W        W39437  16.582  29.662   2.670
69623W        W39438   3.743  29.633  12.479
69624W        W39439  18.634  39.842   2.800
69625W        W39440  19.560   1.457   0.384
69626W        W39441   2.772  32.133   3.855
69627W        W39442  10.209  12.237  12.579
69628W        W39443  29.472  36.066   2.712
69629W        W39444  14.663  21.661  14.312
69630W        W39445  28.436   2.302  12.384
69631W        W39446  38.389  22.114  11.102
69632W        W39447  23.708  33.507   3.748
69633W        W39448  18.679  36.953  10.473
69634W        W39449   6.767   2.304  12.007
69635W        W39450  12.358   9.188  13.420
69636W        W39451  13.619  15.764   0.373
69637W        W39452  10.207  20.746  12.936
69638W        W39453   3.750   7.725   0.390
69639W        W39454  17.625  16.757  13.465
69640W        W39455  14.217  41.861  12.040
69641W        W39456  34.947  39.542   4.350
69642W        W39457   0.456   1.917   0.893
69643W        W39458  18.188  43.303  14.928
69644W        W39459  35.373  26.169   3.155
69645W        W39460  39.384  33.115  12.523
69646W        W39461  18.701   3.433   4.807
69647W        W39462  31.103  28.024   1.865
69648W        W39463   0.374  24.979   1.228
69649W        W39464  12.142  22.552   1.824
69650W        W39465  16.105  36.441  10.975
69651W        W39466  44.466   5.799  10.028
69652W        W39467   1.767  10.871  12.579
69653W        W39468  17.655  38.885   3.793
69654W        W39469  42.830  15.730   3.318
69655W        W39470  41.021  38.557  13.861
69656W        W39471  13.234  18.223   0.257
69657W        W39472   0.868  19.271   1.230
69658W        W39473  26.191  24.617  11.982
69659W        W39474  32.922   1.249   4.276
69660W        W39475   5.818  13.132   1.312
69661W        W39476   4.888  15.811  13.404
69662W        W39477  34.490   9.735   0.940
69663W        W39478   4.859   4.805  11.532
69664W        W39479  26.068   5.265  10.538
69665W        W39480  23.530  32.583  12.554
69666W        W39481  21.555  19.088  13.990
69667W        W39482  22.235  34.028   3.339
69668W        W39483  29.557  37.373  14.796
69669W        W39484   0.300  19.639  14.979
69670W        W39485  11.845  15.726  11.612
69671W        W39486  38.072   3.220   4.354
69672W        W39487   8.306  10.692   4.740
69673W        W39488  32.943  30.941   3.202
69674W        W39489  34.065   0.756   3.252
69675W        W39490   6.187   1.330  10.570
69676W        W39491  31.451   6.307  12.543
69677W        W39492  44.283  30.599  10.609
69678W        W39493   5.431  35.970  14.910
69679W        W39494   0.884  32.989   4.320
69680W        W39495  32.950  17.628   4.720
69681W        W39496  24.716   8.823   2.723
69682W        W39497  33.604  26.066   4.779
69683W        W39498  43.879  34.997  12.960
69684W        W39499  14.165  12.149  14.825
69685W        W39500  14.694  41.954  14.513
69686W        W39501  15.729  25.687  12.058
69687W        W39502   2.941  27.462   1.767
69688W        W39503  15.190  42.348  14.817
69689W        W39504   1.482  15.714   2.334
69690W        W39505  16.162  41.973  13.350
69691W        W39506  19.208   7.344  13.878
69692W        W39507  42.031  18.627  12.536
69693W        W39508  23.559  25.139  12.475
69694W        W39509  24.040   5.241   3.371
69695W        W39510   3.395  33.625   1.840
69696W        W39511  28.037  34.886  11.880
69697W        W39512  17.068   1.731   2.344
69698W        W39513  41.420  36.870   4.724
69699W        W39514  39.501  40.369  11.994
69700W        W39515  40.513   1.415  10.935
69701W        W39516  27.168   1.834  11.481
69702W        W39517   8.368  25.613  13.872
69703W        W39518  31.021   2.453  13.516
69704W        W39519  35.046  30.017   3.259
69705W        W39520  35.580   8.208  11.563
69706W        W39521   8.707  20.223   4.146
69707W        W39522  30.521   0.961   3.681
69708W        W39523  19.119  37.340   3.151
69709W        W39524   5.911  38.994   0.898
69710W        W39525   2.939  24.214   3.191
69711W        W39526  26.024  42.315   2.257
69712W        W39527  12.122  20.613   0.797
69713W        W39528  33.892  39.034  11.532
69714W        W39529  40.917  23.012   1.882
69715W        W39530  43.775  20.762   1.825
69716W        W39531   3.347  33.453   3.353
69717W        W39532   3.303  13.846   1.753
69718W        W39533  41.450  21.107   3.221
69719W        W39534  43.944   8.885  14.929
69720W        W39535  16.079   4.944  10.582
69721W        W39536  20.625   1.782  14.940
69722W        W39537  35.578  40.479   2.826
69723W        W39538  35.522   8.199   2.229
69724W        W39539  10.332   2.930   3.380
69725W        W39540  29.633   4.821   1.234
69726W        W39541  19.271  44.852  11.509
69727W        W39542  23.696  44.849  14.454
69728W        W39543  33.025  12.279   1.760
69729W        W39544  32.006   8.833  13.441
69730W        W39545  33.458   9.833   4.264
69731W        W39546  41.400  16.254   5.720
69732W        W39547  30.977   4.423  14.296
69733W        W39548  35.080  37.500  13.368
69734W        W39549   5.392   0.823  11.613
69735W        W39550   0.914   7.270  11.100
69736W        W39551  30.497  27.946   0.897
69737W        W39552  11.285  25.530   2.212
69738W        W39553  33.430   9.184   4.821
69739W        W39554  11.753   0.316   1.368
69740W        W39555  31.624  37.852  13.489
69741W        W39556   2.349  10.790  14.774
69742W        W39557  23.692  28.006  13.996
69743W        W39558   5.317   9.835  14.910
69744W        W39559   6.212  41.507  10.487
69745W        W39560   0.907   6.375   2.765
69746W        W39561   1.272  23.052  14.509
69747W        W39562   7.877  44.437  10.472
69748W        W39563  40.914  32.400   0.283
69749W        W39564  34.021  27.617   2.417
69750W        W39565  37.892   5.748  14.032
69751W        W39566  12.234   4.249  14.919
69752W        W39567  35.529   3.739   1.842
69753W        W39568  19.130  11.800   1.930
69754W        W39569  41.908  21.083  13.460
69755W        W39570   6.336  17.149  10.607
69756W        W39571  24.483  41.940  14.887
69757W        W39572  19.270  37.949   0.754
69758W        W39573  21.018  22.521   1.403
69759W        W39574   0.437  27.008  10.536
69760W        W39575  20.644  28.175  11.958
69761W        W39576  19.610  15.776   0.962
69762W        W39577  18.232  23.139   1.703
69763W        W39578  26.033  29.574   4.694
69764W        W39579  20.117  14.166  10.440
69765W        W39580  42.473  32.994  14.016
69766W        W39581  27.947  30.569  12.478
69767W        W39582  10.167  33.580   0.337
69768W        W39583   9.658  24.608  11.071
69769W        W39584  34.958  27.984  12.557
69770W        W39585  22.632  43.491   0.965
69771W        W39586  18.107  11.737   1.806
69772W        W39587   2.735  14.612   1.219
69773W        W39588  44.390   0.442  14.415
69774W        W39589  29.517   9.176  11.601
69775W        W39590   9.321  28.660   2.767
69776W        W39591  35.994   9.849   4.305
69777W        W39592  41.370  18.548  11.943
69778W        W39593  21.675  19.749   4.167
69779W        W39594   8.401  37.899   3.315
69780W        W39595  25.179  28.047  12.395
69781W        W39596  20.581   6.809  11.585
69782W        W39597   8.385   8.873  12.516
69783W        W39598  15.594  11.675   1.792
69784W        W39599   9.751  31.636   3.375
69785W        W39600  44.329  30.979   0.315
69786W        W39601  14.784   9.683   2.677
69787W        W39602  11.808  26.045   2.261
69788W        W39603  36.464  24.583  10.440
69789W        W39604  16.274  34.517   4.350
69790W        W39605   2.947  22.607  13.000
69791W        W39606   1.396   7.401   1.912
69792W        W39607  35.363  21.130   0.310
69793W        W39608   4.736  33.892   0.881
69794W        W39609   1.337  29.503  12.465
69795W        W39610  41.029  13.665   1.357
69796W        W39611   6.753  26.097  10.463
69797W        W39612  21.560  26.120   1.296
69798W        W39613  28.626  15.209  11.076
69799W        W39614  35.945  16.572   0.874
69800W        W39615  25.061  16.609   1.271
69801W        W39616  37.411  25.617  11.113
69802W        W39617  13.324  31.139   4.659
69803W        W39618  17.584   9.772  12.441
69804W        W39619  26.173  25.688  13.498
69805W        W39620   6.880  36.948   4.221
69806W        W39621   4.384  11.219  11.509
69807W        W39622  27.049  10.224  14.838
69808W        W39623  35.943  44.432  10.577
69809W        W39624   8.834   0.962  13.485
69810W        W39625  26.479  14.283  11.387
69811W        W39626  28.946   9.244  11.933
69812W        W39627   2.899  34.002   4.272
69813W        W39628  10.694   4.450  11.060
69814W        W39629  37.895  23.601   1.897
69815W        W39630  24.682  38.049   2.870
69816W        W39631  29.668  39.347  14.290
69817W        W39632  27.506   6.230   3.710
69818W        W39633  19.087  42.835  10.889
69819W        W39634  34.572  40.899   0.775
69820W        W39635   4.720  25.056   2.697
69821W        W39636  30.592   8.693   3.863
69822W        W39637  23.024  32.012  11.999
69823W        W39638  26.558   5.907  12.433
69824W        W39639   6.187  13.200  12.547
69825W        W39640  28.620  41.409   4.723
69826W        W39641  14.610   4.363   3.267
69827W        W39642  41.381  36.470   0.885
69828W        W39643  28.954  18.282  12.568
69829W        W39644  34.507   6.396   2.217
69830W        W39645  36.477  22.512  12.960
69831W        W39646  20.210  10.236   4.659
69832W        W39647   0.259  22.053   2.233
69833W        W39648  34.437  11.745   4.158
69834W        W39649  27.983   6.760  12.903
69835W        W39650  35.928  33.590   0.410
69836W        W39651  27.960   1.877   5.228
69837W        W39652  13.140  28.130  11.128
69838W        W39653  28.626  29.922  14.414
69839W        W39654  36.038   7.779   2.702
69840W        W39655  19.708   4.915   1.853
69841W        W39656  14.269  19.065  12.874
69842W        W39657   9.362   7.821  13.794
69843W        W39658   3.237  18.708   4.745
69844W        W39659   4.355   9.777  10.960
69845W        W39660  38.555  44.757   5.173
69846W        W39661   1.809  36.469   2.880
69847W        W39662  40.998  25.002   1.859
69848W        W39663  24.490   7.881  11.580
69849W        W39664  12.698  13.273   1.313
69850W        W39665  40.347  21.104  13.445
69851W        W39666  29.465  26.971  13.390
69852W        W39667  36.575  40.848  11.399
69853W        W39668  43.903  12.178  10.559
69854W        W39669  39.478  16.294   1.832
69855W        W39670   9.316  30.117   0.951
69856W        W39671  26.137   7.239   0.817
69857W        W39672  17.588   8.755   0.840
69858W        W39673   9.695  36.384  14.908
69859W        W39674  14.642  42.510  10.580
69860W        W39675  15.602   2.871   0.349
69861W        W39676  10.666  14.717   3.649
69862W        W39677  39.005  37.491  12.397
69863W        W39678  43.484   5.282   1.919
69864W        W39679  43.364  44.002  11.525
69865W        W39680   1.811   7.240  14.450
69866W        W39681  18.787  22.185   0.276
69867W        W39682  34.558  15.613  11.126
69868W        W39683   7.831  27.066  11.555
69869W        W39684  30.053  36.030  14.898
69870W        W39685  40.035  17.637  10.945
69871W        W39686  33.422  40.320  13.939
69872W        W39687  34.590  21.612   0.324
69873W        W39688  41.974  25.041   4.264
69874W        W39689  32.054  17.212   1.880
69875W        W39690   5.339  34.931  14.832
69876W        W39691  31.022  16.812   4.773
69877W        W39692  32.997  41.864   2.764
69878W        W39693   2.956  15.294   1.890
69879W        W39694   5.729   4.277  12.408
69880W        W39695   1.794   1.933   3.842
69881W        W39696  42.985  22.503   0.441
69882W        W39697  16.648  39.031   4.310
69883W        W39698   0.449  21.513   2.724
69884W        W39699  39.330  41.010  10.539
69885W        W39700  20.126  13.656  11.469
69886W        W39701  20.059  31.577  14.945
69887W        W39702  19.544   0.369   4.733
69888W        W39703  34.608   6.895  10.957
69889W        W39704  31.923  21.571   0.809
69890W        W39705  23.024   1.861   2.283
69891W        W39706  32.932  44.996   1.729
69892W        W39707  26.660  16.294  14.287
69893W        W39708  31.052  18.780   1.919
69894W        W39709  42.492  41.835  12.078
69895W        W39710  20.211   5.429  10.461
69896W        W39711  44.979  20.094  13.892
69897W        W39712  16.612   1.739  10.577
69898W        W39713  14.694  44.468   4.264
69899W        W39714   5.417  33.482  10.428
69900W        W39715  26.494   3.381  13.873
69901W        W39716  23.553   5.694  13.315
69902W        W39717   8.296  39.411  13.051
69903W        W39718   5.824  37.047   2.228
69904W        W39719  22.667   3.363  11.539
69905W        W39720  36.592  16.634   1.880
69906W        W39721  39.514  43.980  14.332
69907W        W39722  12.670  37.068   2.740
69908W        W39723  38.465  26.134  11.379
69909W        W39724  38.426   9.718  14.009
69910W        W39725  39.990  25.489   3.655
69911W        W39726  13.165   4.849   2.360
69912W        W39727  13.261   0.804  13.824
69913W        W39728  37.011  36.433  14.818
69914W        W39729  22.209   8.672   4.303
69915W        W39730  35.907  20.143  12.087
69916W        W39731  18.283   3.358   1.741
69917W        W39732   3.451  36.885   4.145
69918W        W39733  32.008  43.870   4.818
69919W        W39734  37.374  25.023  14.769
69920W        W39735   5.761  39.957   4.762
69921W        W39736  27.575  41.315   4.298
69922W        W39737   1.368   9.672   4.811
69923W        W39738   1.243  27.125   3.768
69924W        W39739  22.116   2.874  10.543
69925W        W39740  24.626  32.603  14.833
69926W        W39741  43.795  34.391   2.868
69927W        W39742  10.706  11.370   0.371
69928W        W39743  19.564  40.847  13.934
69929W        W39744   0.319  14.337  13.041
69930W        W39745  13.674   4.761   3.195
69931W        W39746  32.483   9.189  11.454
69932W        W39747  30.971  37.070  14.867
69933W        W39748  38.920  23.551   1.280
69934W        W39749  27.544  28.496   0.328
69935W        W39750  24.062  33.622  12.894
69936W        W39751   5.315  27.014   1.886
69937W        W39752   4.883  30.920   0.378
69938W        W39753  38.451  16.589   4.730
69939W        W39754   2.270  27.957   0.948
69940W        W39755  13.693   3.767  14.871
69941W        W39756  29.016  16.203  14.986
69942W        W39757  36.872  43.949   2.895
69943W        W39758  27.151  35.442   3.851
69944W        W39759  20.091  34.892   2.373
69945W        W39760   5.720  38.831  14.785
69946W        W39761  44.357  14.245  11.481
69947W        W39762  42.338  27.165  14.767
69948W        W39763  34.019  38.484  12.848
69949W        W39764  25.018   1.785   2.661
69950W        W39765   0.281  19.144   3.694
69951W        W39766  24.990  24.011  13.542
69952W        W39767  33.469  12.772  14.907
69953W        W39768  19.583   4.865   9.936
69954W        W39769  13.210  19.731  14.450
69955W        W39770  30.027  31.981  12.365
69956W        W39771  35.529  43.301  11.596
69957W        W39772  33.389  42.402   1.304
69958W        W39773  24.007  23.601   1.755
69959W        W39774  13.618  16.239   2.303
69960W        W39775  23.615   9.705  11.059
69961W        W39776  33.520  40.808  13.338
69962W        W39777   4.717  18.779  13.515
69963W        W39778   1.334  15.257  13.515
69964W        W39779  26.464  13.714   2.270
69965W        W39780  44.434  14.622  11.459
69966W        W39781  35.876  44.981   4.709
69967W        W39782  28.455  39.926   3.321
69968W        W39783  22.572  23.538   1.781
69969W        W39784   1.948  18.274   2.244
69970W        W39785  41.521  19.283  13.332
69971W        W39786   0.411   6.373  14.474
69972W        W39787   4.760  36.083  11.383
69973W        W39788  12.237  19.720   3.773
69974W        W39789   8.332   7.251  10.484
69975W        W39790  23.670  15.664   4.737
69976W        W39791   0.306  36.071  10.942
69977W        W39792  16.622   4.367  13.008
69978W        W39793  42.442  11.763  11.121
69979W        W39794   5.827   9.292  14.926
69980W        W39795  18.615  33.392   4.755
69981W        W39796  30.422   4.806  13.880
69982W        W39797  26.126   2.456   3.216
69983W        W39798  11.186  30.090   3.222
69984W        W39799  40.935  14.823  14.853
69985W        W39800   5.329  23.029   1.901
69986W        W39801  39.374  29.510   3.252
69987W        W39802  27.994  21.535  14.816
69988W        W39803  35.433  19.204   4.166
69989W        W39804  14.655  30.563  13.916
69990W        W39805  18.157  14.646   1.437
69991W        W39806  18.675   7.764  11.476
69992W        W39807  15.245  28.536  10.431
69993W        W39808  16.145  43.885   1.245
69994W        W39809  15.161  33.471  10.547
69995W        W39810   1.929  35.558  11.933
69996W        W39811  33.573  41.380   2.408
69997W        W39812  12.160  25.473   3.775
69998W        W39813  12.185  30.983   3.307
69999W        W39814  17.109  36.374   1.798
70000W        W39815  26.126  33.977   0.388
70001W        W39816  20.099  20.270   3.213
70002W        W39817   6.867  24.644   3.673
70003W        W39818   8.669  18.136  14.958
70004W        W39819  11.335  38.909   2.358
70005W        W39820  17.082  16.643  13.948
70006W        W39821  39.446  31.557   4.685
70007W        W39822   3.444  41.957  11.523
70008W        W39823  15.174  37.868  12.942
70009W        W39824   8.161  35.366   1.215
70010W        W39825  43.501  29.036   1.419
70011W        W39826   7.260  22.661  10.407
70012W        W39827  42.830  41.877   3.712
70013W        W39828   1.920  31.967  10.963
70014W        W39829   7.720   5.904  10.462
70015W        W39830  31.036  36.404   3.675
70016W        W39831   3.738  41.885  12.087
70017W        W39832  28.642  23.067   2.894
70018W        W39833   8.873   1.869  13.811
70019W        W39834  12.211   5.294   0.872
70020W        W39835  18.545   0.821  11.128
70021W        W39836  17.789   2.421   2.284
70022W        W39837  40.982  42.391   2.188
70023W        W39838   6.334  16.652  12.945
70024W        W39839   8.317   5.343   4.701
70025W        W39840   1.744  40.370   4.128
70026W        W39841  34.419  36.843   2.195
70027W        W39842  28.959  37.573   2.844
70028W        W39843  19.551  28.673  11.508
70029W        W39844  40.489  19.183  10.568
70030W        W39845  19.084  21.078  14.515
70031W        W39846  34.519  12.833   0.915
70032W        W39847  18.684  25.992   3.329
70033W        W39848   3.785   4.324   4.263
70034W        W39849  34.952  21.096   1.787
70035W        W39850  32.457  31.969  11.543
70036W        W39851  28.477  38.453   3.818
70037W        W39852  35.511   8.760  14.802
70038W        W39853  14.826  19.762  10.977
70039W        W39854  32.994  36.411   1.250
70040W        W39855  20.665  30.014   1.791
70041W        W39856  25.471   2.959  10.483
70042W        W39857  12.681   0.274   1.244
70043W        W39858   1.903  20.226  12.523
70044W        W39859  30.533  38.873   0.881
70045W        W39860   1.437  41.494   4.231
70046W        W39861  38.558  19.215  12.986
70047W        W39862  37.034  35.444  13.319
70048W        W39863  22.715  30.935   2.325
70049W        W39864  16.789  10.344  14.924
70050W        W39865  40.895  16.278   4.774
70051W        W39866  13.290  16.807   2.710
70052W        W39867   6.732  39.490   0.372
70053W        W39868   4.368  35.070   2.391
70054W        W39869  23.127  40.949  11.962
70055W        W39870   2.865  15.295   0.379
70056W        W39871   1.971   1.909   0.250
70057W        W39872   3.879   9.710  12.482
70058W        W39873  11.776  31.915  10.547
70059W        W39874  40.032  41.869   3.739
70060W        W39875  43.819  24.724   2.842
70061W        W39876  35.489  33.621  14.981
70062W        W39877   3.367  36.007   2.224
70063W        W39878  36.963  16.246   0.873
70064W        W39879  29.544   3.364  12.996
70065W        W39880  13.316   2.726  13.009
70066W        W39881   1.285  40.310  10.968
70067W        W39882  26.548  34.425  10.155
70068W        W39883  23.514  23.578  11.129
70069W        W39884  44.276  35.551  11.475
70070W        W39885  20.697  33.578  13.496
70071W        W39886   7.305  41.801  10.079
70072W        W39887   5.741  27.052   4.738
70073W        W39888  23.506  31.498  14.339
70074W        W39889  13.646  14.234   4.260
70075W        W39890  14.714  37.876   1.754
70076W        W39891   5.338  13.195   4.212
70077W        W39892  14.231  33.456  13.026
70078W        W39893  23.539   0.940  13.888
70079W        W39894  38.446  31.084  12.352
70080W        W39895  12.212  14.613   1.704
70081W        W39896  42.306  29.483  14.937
70082W        W39897  13.747   5.779  12.357
70083W        W39898  40.332   7.179  12.868
70084W        W39899  39.537  27.118  11.506
70085W        W39900  37.834  21.136  14.436
70086W        W39901  22.035  39.961   4.276
70087W        W39902  18.647  18.242  12.404
70088W        W39903  35.064  38.465  10.439
70089W        W39904  26.171  38.391   2.727
70090W        W39905  37.851  20.126   3.806
70091W        W39906   5.894  10.788   2.303
70092W        W39907  35.587   5.295  12.422
70093W        W39908  25.045  24.703  11.868
70094W        W39909  16.292  27.558   1.426
70095W        W39910  31.095  44.263  14.293
70096W        W39911  41.908  12.690  13.864
70097W        W39912  30.941   4.727   0.305
70098W        W39913  25.171  32.613   4.349
70099W        W39914  27.194   9.729   1.909
70100W        W39915  44.377   7.350   0.945
70101W        W39916  38.902  33.423  13.382
70102W        W39917  18.083  35.106   2.863
70103W        W39918  24.076  20.168  12.007
70104W        W39919  30.498  10.815   4.153
70105W        W39920  11.814  17.778   0.252
70106W        W39921   2.250  32.033  14.005
70107W        W39922  42.033   1.289   2.846
70108W        W39923  15.816  19.619   0.860
70109W        W39924  20.170  10.205   0.840
70110W        W39925  29.061  26.460   3.226
70111W        W39926   6.269  36.045   0.764
70112W        W39927   8.749   5.744  13.799
70113W        W39928  14.757  23.105  13.928
70114W        W39929  22.627  37.360   3.791
70115W        W39930  18.760   2.771  13.320
70116W        W39931  38.546  36.899  12.574
70117W        W39932  11.831  23.236  12.465
70118W        W39933  35.028  26.972  14.400
70119W        W39934   1.969  17.743   1.759
70120W        W39935  14.330  11.256   1.740
70121W        W39936  28.041   1.425  13.858
70122W        W39937  28.112  35.388   1.932
70123W        W39938  33.913  17.283  11.535
70124W        W39939  29.152   8.261   4.718
70125W        W39940   8.203   9.282  14.843
70126W        W39941  26.583  33.993   4.126
70127W        W39942   6.246  36.900  13.470
70128W        W39943  16.246  43.419  11.372
70129W        W39944  10.675  30.566  11.565
70130W        W39945  40.006  41.425   3.322
70131W        W39946   1.275  36.947   1.298
70132W        W39947   2.901  30.060   1.841
70133W        W39948   2.317  36.486   1.857
70134W        W39949   2.363   2.334   0.831
70135W        W39950  24.172  12.658   2.706
70136W        W39951  22.527  33.391   2.822
70137W        W39952   0.746  31.112  14.452
70138W        W39953  22.043  11.828   4.240
70139W        W39954  16.809  17.256  14.370
70140W        W39955  44.348  21.592   0.247
70141W        W39956  40.931  15.796   3.676
70142W        W39957  12.652  22.199   3.197
70143W        W39958  44.485   1.416   4.836
70144W        W39959  12.147   5.749  14.947
70145W        W39960  12.123  16.571   4.665
70146W        W39961   5.247  12.356  12.367
70147W        W39962  30.155  33.911  13.491
70148W        W39963  14.241  31.556  11.073
70149W        W39964  18.120  18.213  14.997
70150W        W39965  39.526   1.452   5.784
70151W        W39966  16.161  44.302   3.719
70152W        W39967  12.337   5.439   3.343
70153W        W39968  14.791  41.299   0.356
70154W        W39969  35.475  12.154   4.299
70155W        W39970  37.830  15.184   4.208
70156W        W39971  23.062  14.803   3.822
70157W        W39972  29.632   8.193   0.409
70158W        W39973  21.115  34.403   2.866
70159W        W39974   6.831  39.013   1.392
70160W        W39975  23.687  12.285  14.515
70161W        W39976   3.221  30.909   1.380
70162W        W39977  14.218  18.190   4.655
70163W        W39978   9.215  36.856  10.943
70164W        W39979  12.612  20.181   3.189
70165W        W39980  35.102  39.404   4.651
70166W        W39981  34.013  38.049  11.960
70167W        W39982   1.759  37.075  13.503
70168W        W39983  41.817   2.238  14.483
70169W        W39984  30.075  24.050  14.760
70170W        W39985   4.865  14.764  12.457
70171W        W39986  35.587   9.158   4.810
70172W        W39987   7.381   0.425  12.386
70173W        W39988  35.953  42.813   4.733
70174W        W39989  35.423   1.408  13.030
70175W        W39990  34.988  27.640  14.904
70176W        W39991  34.956  20.149  10.987
70177W        W39992  36.906  13.292  11.573
70178W        W39993   2.440  39.906   0.939
70179W        W39994  16.665  15.740   5.214
70180W        W39995  13.196  31.497   1.365
70181W        W39996  22.505  12.189  14.448
70182W        W39997  25.062  14.678  11.586
70183W        W39998  15.122  21.635  13.807
70184W        W39999  24.095  42.867  12.573
70185W        W40000  13.265  19.585   4.227
70186W        W40001  44.440  21.724  11.466
70187W        W40002  14.297  21.681   3.267
70188W        W40003  19.040  41.919   0.474
70189W        W40004  10.808  18.626   0.298
70190W        W40005   0.759  15.321  13.333
70191W        W40006  33.965  21.741   4.744
70192W        W40007   2.891   3.224  11.932
70193W        W40008  38.855  27.453  11.088
70194W        W40009  19.614   3.925  14.430
70195W        W40010  44.905  16.076  14.384
70196W        W40011  10.251  24.073  14.807
70197W        W40012  12.346   7.304   4.134
70198W        W40013  10.665  38.833   1.262
70199W        W40014  18.752  22.117  12.573
70200W        W40015  39.849  17.067  11.445
70201W        W40016  38.552  26.538   4.788
70202W        W40017   2.428  38.934  10.546
70203W        W40018   8.813   2.892   2.252
70204W        W40019  38.554  40.412   2.196
70205W        W40020  12.147  18.059   2.264
70206W        W40021  11.731  23.703  10.930
70207W        W40022   8.673  29.981   2.225
70208W        W40023  44.470  33.418   2.334
70209W        W40024  39.938  44.839   1.383
70210W        W40025  20.662  33.886  13.866
70211W        W40026  30.137  18.154  11.942
70212W        W40027  30.053   9.886  10.996
70213W        W40028  33.449  16.785   3.214
70214W        W40029  38.957   3.222   4.260
70215W        W40030   1.877  35.093   0.829
70216W        W40031  24.661   5.789  10.972
70217W        W40032  24.085  10.266   4.619
70218W        W40033  42.986   7.834   1.313
70219W        W40034  32.122  37.875  11.430
70220W        W40035  17.776   8.188  10.627
70221W        W40036  11.279   0.775  13.006
70222W        W40037   8.737  37.002  10.000
70223W        W40038  33.479  39.939  12.861
70224W        W40039  30.060   6.826   4.271
70225W        W40040  20.186  31.531   4.600
70226W        W40041  24.160  23.232   4.153
70227W        W40042  33.618  11.860   2.350
70228W        W40043  22.038  39.441  12.512
70229W        W40044  28.035  35.600  14.917
70230W        W40045   8.733  16.668   0.764
70231W        W40046   4.265  28.085   3.817
70232W        W40047  31.619  35.880  12.008
70233W        W40048   7.403   4.225  11.015
70234W        W40049  17.265  13.813   2.865
70235W        W40050  19.136  41.970  11.453
70236W        W40051  14.693  35.505   1.402
70237W        W40052  35.902  17.636  12.350
70238W        W40053   0.268  12.117   2.716
70239W        W40054  37.004  37.877  14.881
70240W        W40055  20.533  10.785   2.816
70241W        W40056  36.088   2.893  12.006
70242W        W40057   2.872  32.981   1.829
70243W        W40058   8.271  10.703   0.804
70244W        W40059  14.652  25.032  14.480
70245W        W40060   1.800  19.150  13.033
70246W        W40061   0.935  38.893   3.659
70247W        W40062  20.191   0.777   2.201
70248W        W40063  19.057  26.672   1.308
70249W        W40064  44.407  33.454  12.862
70250W        W40065   4.206  16.172   3.237
70251W        W40066  11.706  10.746  14.469
70252W        W40067  36.434  20.097  11.598
70253W        W40068   3.262  29.617  10.418
70254W        W40069  38.546  14.698   1.749
70255W        W40070  11.621  17.567  14.882
70256W        W40071  17.183  13.616  10.445
70257W        W40072   4.265  20.650  13.843
70258W        W40073   5.198  22.200   4.223
70259W        W40074  26.508  17.129  13.492
70260W        W40075  26.045  39.412  11.982
70261W        W40076  29.155  18.134  14.344
70262W        W40077  41.349  24.704  13.035
70263W        W40078  22.199   0.401  14.975
70264W        W40079  19.207  44.490  12.494
70265W        W40080   7.417  18.692   0.891
70266W        W40081  19.627  24.022  10.523
70267W        W40082  14.199   3.938   2.836
70268W        W40083  23.699   3.435   2.300
70269W        W40084  43.007  10.259   4.753
70270W        W40085  43.366  37.416   4.113
70271W        W40086  16.660  41.367   2.773
70272W        W40087  43.832  38.060   0.897
70273W        W40088  39.066  32.124  14.285
70274W        W40089  15.803  31.922   1.225
70275W        W40090  22.094   4.750   2.184
70276W        W40091   4.307  27.520   4.798
70277W        W40092  24.140  24.606   0.371
70278W        W40093   3.357  16.099   0.753
70279W        W40094  36.015  19.138  10.510
70280W        W40095  22.177  11.212  13.521
70281W        W40096   6.188  39.914  10.918
70282W        W40097  11.253  34.108  10.605
70283W        W40098   2.862  18.104   2.751
70284W        W40099  18.553   2.279  14.933
70285W        W40100  22.068   2.332  14.003
70286W        W40101  20.211  35.582   3.275
70287W        W40102  20.042  10.286  10.611
70288W        W40103   0.308  32.519  12.913
70289W        W40104  36.962  28.971  10.473
70290W        W40105   4.377  17.679   0.279
70291W        W40106  23.590  19.174   0.299
70292W        W40107  44.407  31.491   0.756
70293W        W40108  12.735  42.340  12.531
70294W        W40109  14.269  31.547  11.893
70295W        W40110   4.904  14.279   0.927
70296W        W40111  32.106  34.864   3.294
70297W        W40112  30.122  27.192   4.219
70298W        W40113  36.910  44.891  13.037
70299W        W40114   1.910  22.014   3.362
70300W        W40115  22.204  19.171  13.520
70301W        W40116  28.681  26.044   1.817
70302W        W40117  30.644   3.397  13.851
70303W        W40118  13.768   2.739   2.359
70304W        W40119  20.759  26.132   2.746
70305W        W40120  36.498  36.979   0.306
70306W        W40121   7.837  42.864   4.264
70307W        W40122   8.164  12.288  12.563
70308W        W40123  38.850   0.853  14.920
70309W        W40124  28.165  21.157   0.966
70310W        W40125  27.516  24.719   2.281
70311W        W40126  29.603  22.175  14.403
70312W        W40127  32.025  39.423   1.788
70313W        W40128  38.456  35.873  14.968
70314W        W40129  23.495  25.496   1.733
70315W        W40130  15.662  28.563  11.862
70316W        W40131  31.527  29.133   1.386
70317W        W40132  14.691  37.404  13.980
70318W        W40133  33.521   1.351   2.296
70319W        W40134  18.227   5.214  14.400
70320W        W40135  43.880  30.540   3.829
70321W        W40136   0.873  38.983   0.829
70322W        W40137  23.639  25.651   2.766
70323W        W40138   7.412   1.843  14.372
70324W        W40139  41.881  11.831   4.654
70325W        W40140  42.979   6.816  10.543
70326W        W40141  36.576  28.437   0.812
70327W        W40142  38.028  26.025  12.904
70328W        W40143  40.855  43.987  12.500
70329W        W40144  26.519  38.560  11.486
70330W        W40145   1.885  33.582   3.299
70331W        W40146  27.107   1.265  13.464
70332W        W40147  23.044   9.813   0.402
70333W        W40148  30.588  42.364   3.662
70334W        W40149  32.089   4.861  12.343
70335W        W40150  37.549  40.046  11.105
70336W        W40151  19.558  29.071   2.376
70337W        W40152  40.807  33.473  12.960
70338W        W40153  26.141   1.341  11.573
70339W        W40154  23.527  40.347   3.722
70340W        W40155  28.955  27.660   4.752
70341W        W40156  35.595  18.688   2.209
70342W        W40157  21.093   9.197   1.782
70343W        W40158   7.298   1.765   3.302
70344W        W40159   6.852  34.436  14.364
70345W        W40160  44.351  33.031  11.125
70346W        W40161   6.678   4.374   2.222
70347W        W40162  10.780  19.113   2.707
70348W        W40163  44.481  40.805  12.950
70349W        W40164  23.615  42.362   4.639
70350W        W40165  20.225  44.948  14.916
70351W        W40166  30.570  24.497  13.401
70352W        W40167  32.895  37.406  13.529
70353W        W40168  34.457  31.029  14.487
70354W        W40169  31.926  11.765   2.752
70355W        W40170  22.091  24.554  11.862
70356W        W40171  21.739   6.885   3.844
70357W        W40172  12.843   2.724  14.511
70358W        W40173   0.825  33.617  12.051
70359W        W40174   1.274   8.749   3.828
70360W        W40175  13.207  37.963   1.776
70361W        W40176  18.588  11.205  13.977
70362W        W40177   4.878  29.520   4.151
70363W        W40178  36.379   3.741  12.962
70364W        W40179  16.139  27.536  13.990
70365W        W40180  22.236   2.906   2.868
70366W        W40181  32.952  17.216   1.377
70367W        W40182  33.462  42.977   0.755
70368W        W40183   8.193  10.333   3.251
70369W        W40184   3.719  23.675   0.845
70370W        W40185  39.896  15.190  14.461
70371W        W40186  14.823  40.896   0.889
70372W        W40187  10.146   3.401  14.920
70373W        W40188  40.053   3.914   4.328
70374W        W40189  30.603  38.068  10.616
70375W        W40190  29.154  43.380   4.640
70376W        W40191   3.222  25.170  12.879
70377W        W40192  43.394   1.323   3.187
70378W        W40193  28.635  25.104  12.009
70379W        W40194  32.937   3.353   0.956
70380W        W40195  10.638  30.563  14.278
70381W        W40196   3.421  28.183   1.698
70382W        W40197  25.187   4.425  14.406
70383W        W40198   1.332  24.206   3.249
70384W        W40199  44.007  37.864  12.935
70385W        W40200  17.255  25.637  10.997
70386W        W40201  15.230  44.493  14.332
70387W        W40202  23.093  16.592   0.419
70388W        W40203  33.539  36.930   3.266
70389W        W40204  36.514  23.171   1.437
70390W        W40205   8.891  24.586   2.334
70391W        W40206  33.445  38.516  11.504
70392W        W40207  25.559  13.270  12.856
70393W        W40208  43.984   4.928   1.702
70394W        W40209  19.048  27.466   4.245
70395W        W40210  35.444  21.138  13.006
70396W        W40211  20.127  34.532  11.060
70397W        W40212  38.835  23.993   0.790
70398W        W40213  37.452  28.642   1.223
70399W        W40214   9.197   2.744  10.534
70400W        W40215  20.108  38.059  11.902
70401W        W40216  32.995  21.155  11.499
70402W        W40217   7.239  18.678  14.349
70403W        W40218  29.535  12.134  14.282
70404W        W40219   2.254  24.060   2.892
70405W        W40220  25.558  31.612   0.302
70406W        W40221  36.443  34.513   1.799
70407W        W40222  19.099   2.785   0.323
70408W        W40223  15.639  10.754   4.335
70409W        W40224  10.686  31.555  10.445
70410W        W40225  31.616  31.530  13.396
70411W        W40226  12.736  26.574  13.491
70412W        W40227   3.950   8.344   1.865
70413W        W40228  16.132  23.231   1.878
70414W        W40229  10.814  27.661  14.925
70415W        W40230  15.774  34.068   0.318
70416W        W40231  35.454  41.977  12.008
70417W        W40232  31.493  27.532   1.740
70418W        W40233  38.521  18.650   4.249
70419W        W40234  29.532  11.314   4.656
70420W        W40235  27.510  39.033  10.633
70421W        W40236  31.472  32.982   1.305
70422W        W40237  21.120  12.119   0.923
70423W        W40238  35.390  15.699   3.834
70424W        W40239  16.115  29.990   0.733
70425W        W40240  10.673  33.042   0.772
70426W        W40241  23.540  39.950  10.622
70427W        W40242  16.726  21.610   4.309
70428W        W40243  23.644   7.898  14.369
70429W        W40244  11.252  35.945  13.061
70430W        W40245  10.382  43.327  13.881
70431W        W40246  37.985  16.779  10.413
70432W        W40247   4.906  30.542  14.346
70433W        W40248  21.715  33.083   4.182
70434W        W40249   6.716  35.007  11.945
70435W        W40250  25.705  13.332   0.454
70436W        W40251  32.990  12.270   0.745
70437W        W40252   4.232   3.740  12.030
70438W        W40253   3.315  16.680  13.990
70439W        W40254  33.435  27.122   3.867
70440W        W40255  33.385  24.566   1.291
70441W        W40256  12.258   2.856   0.859
70442W        W40257  26.661  36.378  12.558
70443W        W40258  39.498   9.829  13.465
70444W        W40259  25.656  40.993   4.722
70445W        W40260  29.443  23.215   2.382
70446W        W40261  11.227   2.856  12.055
70447W        W40262  41.007  22.141   0.965
70448W        W40263  36.481  14.817   1.701
70449W        W40264   1.435   8.241  13.884
70450W        W40265   0.461  29.048   0.370
70451W        W40266   3.418   4.890   0.263
70452W        W40267  36.969  37.557   3.380
70453W        W40268   7.741  22.174   2.400
70454W        W40269   4.770  19.248  14.851
70455W        W40270   2.360  14.674   1.903
70456W        W40271  23.197  33.481   2.664
70457W        W40272  41.519  25.133  12.963
70458W        W40273   6.188  35.508   3.152
70459W        W40274   9.721  32.559  14.497
70460W        W40275   9.386  39.358   0.358
70461W        W40276  36.945  34.443   0.451
70462W        W40277  14.798   6.677  12.069
70463W        W40278  37.874   2.724   1.331
70464W        W40279  27.520  33.913  13.900
70465W        W40280  35.965  26.507  11.915
70466W        W40281  43.330  21.732   2.884
70467W        W40282   5.195  32.411   4.706
70468W        W40283  16.709   4.876  13.963
70469W        W40284  39.462  39.341   3.211
70470W        W40285  33.615  12.299  10.011
70471W        W40286  18.102  34.578   3.379
70472W        W40287  33.877  37.993   4.326
70473W        W40288  44.346  36.048  11.864
70474W        W40289  25.146  36.591  14.971
70475W        W40290  31.598  39.978  13.855
70476W        W40291   6.791  28.531  12.968
70477W        W40292  14.340  28.449   1.288
70478W        W40293   3.221  39.457   4.278
70479W        W40294   7.249  26.165   0.820
70480W        W40295   7.383  35.957   0.408
70481W        W40296  22.118  12.828   1.332
70482W        W40297  36.902  26.174  12.907
70483W        W40298  32.987  30.542  13.914
70484W        W40299  11.270  20.638  11.933
70485W        W40300  20.199  32.039  10.888
70486W        W40301  44.316  15.248  13.933
70487W        W40302  18.672  43.867  11.049
70488W        W40303  16.752  19.682  11.030
70489W        W40304  21.736  44.319  14.508
70490W        W40305  41.904  23.611   2.227
70491W        W40306   7.352  26.625   2.711
70492W        W40307  27.588   4.871  13.864
70493W        W40308  23.072  16.780  13.056
70494W        W40309  18.269  36.561   3.320
70495W        W40310  24.566  17.755  12.360
70496W        W40311  35.508   1.420   0.456
70497W        W40312   7.323  14.730  11.088
70498W        W40313  11.354  21.586  13.858
70499W        W40314  25.207  23.645  10.433
70500W        W40315  21.169  31.563   0.367
70501W        W40316  25.646  14.605  11.420
70502W        W40317   6.207   4.711   2.278
70503W        W40318  39.971  20.632   0.783
70504W        W40319  21.609  12.850   0.776
70505W        W40320  27.172   0.360  13.512
70506W        W40321  35.502  13.350   4.704
70507W        W40322   4.246  37.029  14.895
70508W        W40323  33.030   2.252   4.781
70509W        W40324   5.859  33.920  11.455
70510W        W40325   5.848  41.375  11.602
70511W        W40326  11.770  16.145  11.460
70512W        W40327  17.274  10.699   4.133
70513W        W40328   4.413  38.539   4.768
70514W        W40329  18.698  30.110  10.953
70515W        W40330   7.815  35.000   2.682
70516W        W40331   0.756  34.904   3.827
70517W        W40332  38.004  43.423   3.225
70518W        W40333  21.562  40.876  11.855
70519W        W40334  35.108  37.830  11.106
70520W        W40335   3.854  16.174  12.394
70521W        W40336   8.880  30.617   4.271
70522W        W40337  27.089  43.802  11.399
70523W        W40338  13.144   8.275   4.663
70524W        W40339  22.697  26.101   1.828
70525W        W40340   1.480  29.949   2.757
70526W        W40341   5.235  29.000   1.923
70527W        W40342  40.032   5.194   2.703
70528W        W40343  17.189  12.823   2.673
70529W        W40344  30.158   0.329   4.771
70530W        W40345   6.374  42.875  10.091
70531W        W40346  13.270  39.997  14.935
70532W        W40347  11.195  15.728  13.339
70533W        W40348  32.921   2.320  11.377
70534W        W40349  32.011  21.080  11.473
70535W        W40350  30.655   7.177   1.821
70536W        W40351   1.347  20.179  12.953
70537W        W40352  17.765  14.238   2.820
70538W        W40353  43.272   5.719   1.815
70539W        W40354  10.180  11.195   2.727
70540W        W40355  40.349  11.193  13.485
70541W        W40356  10.151   6.221   0.279
70542W        W40357   3.921  30.483   4.134
70543W        W40358   2.954  28.619   0.434
70544W        W40359  35.587  38.461  11.561
70545W        W40360   3.385  34.018   0.284
70546W        W40361  21.106  21.677  10.966
70547W        W40362   8.872  19.158  14.856
70548W        W40363  37.412   1.435   3.795
70549W        W40364  41.906  40.020  12.909
70550W        W40365   6.359  25.604  14.403
70551W        W40366  25.997  36.511  11.551
70552W        W40367  35.903  20.273   2.879
70553W        W40368  16.764   5.343  13.832
70554W        W40369  17.200   8.658   3.223
70555W        W40370  43.438  22.007   3.811
70556W        W40371   8.226  24.592  12.544
70557W        W40372  11.662  37.451  14.830
70558W        W40373  18.695   0.342  13.357
70559W        W40374  20.624  11.327  11.095
70560W        W40375  37.581   7.230  12.539
70561W        W40376  21.619   4.266   0.955
70562W        W40377  32.575  42.390   4.667
70563W        W40378  21.575  25.060   1.832
70564W        W40379  33.397  36.853   0.735
70565W        W40380  42.481  21.226   0.394
70566W        W40381  36.415  17.674   2.285
70567W        W40382  40.521  38.000  13.369
70568W        W40383  32.636  24.705  12.479
70569W        W40384   0.293  11.851   4.126
70570W        W40385  42.992  34.878   5.301
70571W        W40386  16.798  37.984  10.587
70572W        W40387  14.123   9.154   4.804
70573W        W40388  14.819   0.973  11.937
70574W        W40389  36.535  15.171   4.113
70575W        W40390   6.741  16.757  11.126
70576W        W40391  44.502  21.031   3.231
70577W        W40392  41.970   4.859   2.717
70578W        W40393   1.438   3.397  10.939
70579W        W40394  19.043   8.828  11.087
70580W        W40395   3.902  43.298  10.470
70581W        W40396  33.536   3.308  13.021
70582W        W40397  43.449  27.990   4.123
70583W        W40398  32.570  31.643  14.345
70584W        W40399  40.859  42.797   5.309
70585W        W40400  31.449  24.638   1.357
70586W        W40401   4.907  12.621  12.576
70587W        W40402  40.452  21.642   3.353
70588W        W40403   6.283  28.528   0.318
70589W        W40404  12.161  18.771   3.258
70590W        W40405  41.402   7.362   0.455
70591W        W40406   2.744  15.322   4.821
70592W        W40407  39.379   2.964   0.930
70593W        W40408  39.486  40.050   3.274
70594W        W40409   2.733  24.501  12.932
70595W        W40410  13.149  31.514   1.920
70596W        W40411  37.559   2.454   2.889
70597W        W40412  29.967  17.640   2.802
70598W        W40413  23.052  12.259  14.958
70599W        W40414  28.124   1.761  11.560
70600W        W40415  30.587  15.695  12.431
70601W        W40416  18.278  20.689  11.454
70602W        W40417  43.322   4.227   0.949
70603W        W40418  31.905  12.344   1.231
70604W        W40419  12.778   5.274  14.843
70605W        W40420   2.282   5.320  13.897
70606W        W40421  18.767  42.810   3.360
70607W        W40422  43.432  16.623  11.009
70608W        W40423  36.490  35.900   0.747
70609W        W40424  33.970   4.851  14.434
70610W        W40425   1.846  37.931  13.475
70611W        W40426   9.757  39.539   0.416
70612W        W40427  23.051   9.361   4.795
70613W        W40428   6.303  21.654  12.528
70614W        W40429  22.527  36.568  13.922
70615W        W40430  30.579  17.576   0.830
70616W        W40431  34.526  41.308  11.498
70617W        W40432  44.995  38.932   3.189
70618W        W40433  36.932  12.847   4.712
70619W        W40434  35.449  35.062   2.799
70620W        W40435   6.723  24.633  11.007
70621W        W40436  38.532  18.120  12.366
70622W        W40437  44.416  38.003  11.375
70623W        W40438  37.502  33.532  10.941
70624W        W40439  34.011  18.090  11.471
70625W        W40440  30.583  34.387   3.153
70626W        W40441   2.319  26.191  11.945
70627W        W40442  14.789  29.453   0.315
70628W        W40443  34.101  39.963   2.370
70629W        W40444  16.263   7.893   0.773
70630W        W40445  27.575  23.606  13.463
70631W        W40446  28.606   9.305  14.460
70632W        W40447   0.257   2.836  13.516
70633W        W40448   5.910  37.950  12.457
70634W        W40449   3.226  15.121  12.880
70635W        W40450   1.978  40.302  11.382
70636W        W40451   9.163   7.731  10.460
70637W        W40452   9.796  43.968  11.438
70638W        W40453  43.482  43.860  14.447
70639W        W40454  21.744  38.948   2.865
70640W        W40455  11.264  20.059  10.440
70641W        W40456  25.185  30.138  14.454
70642W        W40457   9.784  34.375  14.327
70643W        W40458  28.083  22.611   5.167
70644W        W40459   7.693  10.172  12.977
70645W        W40460  41.881  35.393   2.742
70646W        W40461  26.161  17.098   4.769
70647W        W40462   6.401   5.235   4.198
70648W        W40463  32.489  34.974   0.437
70649W        W40464  39.874   2.842  13.962
70650W        W40465  35.422  42.345   4.277
70651W        W40466  30.967  38.857  12.060
70652W        W40467  21.689   9.330  10.430
70653W        W40468  36.913   8.203  14.327
70654W        W40469  13.709   3.837   1.374
70655W        W40470  33.575   4.893   1.232
70656W        W40471  17.225  10.791   2.901
70657W        W40472   8.707  42.493   0.310
70658W        W40473  38.528  34.948  10.437
70659W        W40474   0.930  24.165  12.527
70660W        W40475  26.473  31.584  13.921
70661W        W40476  31.611  43.997   1.366
70662W        W40477  13.617  29.162   4.785
70663W        W40478  32.400   3.437  12.508
70664W        W40479  18.689  13.843  11.075
70665W        W40480  27.583  18.633   3.758
70666W        W40481  27.520   5.783   3.667
70667W        W40482  41.924  21.659  12.843
70668W        W40483  33.543  31.024  13.023
70669W        W40484  20.757  11.843  11.452
70670W        W40485  17.647  27.025   1.249
70671W        W40486   9.238   6.882  12.835
70672W        W40487  23.635  32.584   3.640
70673W        W40488  23.210   8.703  12.389
70674W        W40489  44.306  32.122   0.947
70675W        W40490  24.227  28.591   1.414
70676W        W40491  30.472   3.722  14.380
70677W        W40492   2.395   0.312   1.751
70678W        W40493   6.688  18.139  12.852
70679W        W40494  22.591  18.647   3.629
70680W        W40495  37.849   7.891  10.981
70681W        W40496  36.357  38.411  10.545
70682W        W40497  18.765   8.387  11.495
70683W        W40498  14.111   9.840   1.767
70684W        W40499  32.981  13.334  14.968
70685W        W40500  35.899  18.142   1.899
70686W        W40501  43.804   3.341  12.040
70687W        W40502   7.391  35.954   4.169
70688W        W40503  28.489   2.965  13.041
70689W        W40504  10.769  22.624   4.714
70690W        W40505  37.432  28.463  13.883
70691W        W40506  37.855  30.065   4.118
70692W        W40507  32.070  16.737   4.710
70693W        W40508   7.307  39.380  11.586
70694W        W40509  25.575   1.891   0.466
70695W        W40510  12.640  21.630  14.854
70696W        W40511   6.810  31.495  12.056
70697W        W40512   9.375  13.176   0.827
70698W        W40513  28.977  26.137  10.590
70699W        W40514  18.621  28.142   1.434
70700W        W40515  24.492  24.103  14.890
70701W        W40516  34.921  41.838  11.523
70702W        W40517  27.035  25.094  14.978
70703W        W40518   9.735  19.669  11.888
70704W        W40519  25.980  18.772  13.343
70705W        W40520  17.295   4.921   3.268
70706W        W40521   6.341   9.320   4.228
70707W        W40522  16.107  34.961   0.415
70708W        W40523  21.036  17.151  11.890
70709W        W40524  15.759   5.715  12.466
70710W        W40525  25.185  40.848  13.420
70711W        W40526  38.472  23.499  14.900
70712W        W40527  37.873   7.744   4.648
70713W        W40528  41.807  42.920   4.824
70714W        W40529  19.132   6.215   2.394
70715W        W40530  25.213  41.979   4.169
70716W        W40531  16.785  27.059  10.598
70717W        W40532   6.353  44.343  12.848
70718W        W40533  27.637   8.220  12.837
70719W        W40534  12.197  14.205  12.022
70720W        W40535  35.925  39.356  14.466
70721W        W40536  19.182  39.979   4.661
70722W        W40537  32.463   0.751   0.871
70723W        W40538   9.163  11.792   4.767
70724W        W40539  17.780  18.648  11.044
70725W        W40540   5.277   6.714  10.433
70726W        W40541  31.931  37.503  14.809
70727W        W40542   1.877  27.576   3.760
70728W        W40543  28.539  27.638   1.748
70729W        W40544  43.295   2.349   1.698
70730W        W40545  13.829  36.865  11.524
70731W        W40546  38.852   3.807  11.612
70732W        W40547  27.028  43.462   1.336
70733W        W40548  43.018   3.336  14.850
70734W        W40549  44.986  39.364   1.836
70735W        W40550   4.846  38.011  14.277
70736W        W40551   7.302  39.411  13.902
70737W        W40552  32.444   1.927   0.384
70738W        W40553  28.992  12.204   3.312
70739W        W40554  33.453  10.858   0.956
70740W        W40555   5.929  29.574  14.017
70741W        W40556  16.157  13.169  11.509
70742W        W40557  36.037  20.588   2.715
70743W        W40558  43.963  41.483   0.437
70744W        W40559  29.509  11.624   4.656
70745W        W40560   1.920   8.182   2.185
70746W        W40561  40.367  41.888  14.007
70747W        W40562   1.929   2.756   3.255
70748W        W40563  28.998  22.245   2.307
70749W        W40564   3.446  18.130   0.412
70750W        W40565  29.932  21.661   1.934
70751W        W40566  23.080   8.172  11.603
70752W        W40567  22.208  29.450   4.167
70753W        W40568  41.835  25.570  10.928
70754W        W40569   5.335   6.832   4.713
70755W        W40570  19.680  28.044  14.018
70756W        W40571  19.655  43.308  10.425
70757W        W40572   6.709  21.169   0.955
70758W        W40573   1.753  43.001  11.547
70759W        W40574  34.089  31.606  12.890
70760W        W40575   3.276   7.741  11.915
70761W        W40576  41.444   3.922   5.094
70762W        W40577  35.056   8.391   1.787
70763W        W40578  44.406  27.575   4.315
70764W        W40579  25.610  31.469   4.669
70765W        W40580   4.729  38.342  12.901
70766W        W40581  37.863  33.961   1.236
70767W        W40582  36.009  34.045   1.245
70768W        W40583  20.615  24.641   1.792
70769W        W40584   5.812  27.495   2.791
70770W        W40585  12.671  33.096   4.763
70771W        W40586  22.520  17.611  10.123
70772W        W40587  25.039  39.426  12.516
70773W        W40588  11.818  42.485   1.903
70774W        W40589  28.574  24.486  14.459
70775W        W40590  39.400  28.142  11.574
70776W        W40591   5.215  31.602   4.826
70777W        W40592  26.642  25.983   2.415
70778W        W40593  32.626  23.988  13.855
70779W        W40594  23.527  16.805   4.705
70780W        W40595  20.704  13.284  12.932
70781W        W40596   8.827  38.425  10.509
70782W        W40597  40.361  21.035   4.347
70783W        W40598  19.242  33.529   3.275
70784W        W40599  40.442  33.552  14.980
70785W        W40600  34.095  30.499   1.864
70786W        W40601  13.208   2.434   2.306
70787W        W40602  23.228   7.689   4.716
70788W        W40603  28.063  23.020  13.893
70789W        W40604  27.127  13.279   4.321
70790W        W40605   5.883  31.579   3.170
70791W        W40606  34.454  16.802   2.800
70792W        W40607  36.380   2.315  14.495
70793W        W40608   2.377  27.959  10.508
70794W        W40609  14.301  27.069  12.898
70795W        W40610  28.652   0.784   2.776
70796W        W40611  10.358  30.454  14.865
70797W        W40612   7.211  41.404  14.397
70798W        W40613  28.538  35.500   3.206
70799W        W40614  34.993  27.549  10.536
70800W        W40615  41.504  28.629  12.077
70801W        W40616  11.252  35.595   3.198
70802W        W40617  13.179  41.841  11.105
70803W        W40618   9.381  17.734  12.070
70804W        W40619  36.523   5.700   3.765
70805W        W40620   3.376  23.200   1.917
70806W        W40621  11.700  38.867   2.411
70807W        W40622   5.221  13.333   3.240
70808W        W40623   8.186  22.553   4.822
70809W        W40624  22.158  19.633   4.705
70810W        W40625   1.483  30.643   1.346
70811W        W40626   0.277  11.350   1.782
70812W        W40627   4.797  41.371  12.419
70813W        W40628  44.950  36.931   1.789
70814W        W40629  23.076   0.265   0.897
70815W        W40630  41.923   7.743   3.280
70816W        W40631  20.183   3.357  11.457
70817W        W40632  16.583  41.841   0.304
70818W        W40633  22.068  41.873   0.434
70819W        W40634   1.326   4.301  10.633
70820W        W40635  43.462  31.471  12.077
70821W        W40636  21.231  11.756   4.332
70822W        W40637   1.974   1.871  13.388
70823W        W40638  34.938  35.969   4.201
70824W        W40639  43.909   6.310  10.946
70825W        W40640  12.275  36.541   3.641
70826W        W40641  38.376   0.291   0.480
70827W        W40642  10.142  20.690   0.332
70828W        W40643   0.987   2.413  11.407
70829W        W40644  21.194  37.538  11.955
70830W        W40645  12.624   2.843   0.249
70831W        W40646  23.661  37.529   2.835
70832W        W40647  31.911  20.146  10.981
70833W        W40648  37.872  36.406  14.823
70834W        W40649   6.869  31.500   2.294
70835W        W40650  42.016  44.920  14.373
70836W        W40651  20.252  25.039   1.317
70837W        W40652   2.851  19.264   4.803
70838W        W40653   0.895  30.013  14.402
70839W        W40654  27.956   1.426  10.564
70840W        W40655  19.097  17.278   4.229
70841W        W40656  19.721  34.532   0.376
70842W        W40657  10.210  27.105   1.343
70843W        W40658  42.292  23.699   3.796
70844W        W40659  12.742  40.984  10.955
70845W        W40660  36.995  25.987   3.222
70846W        W40661   2.312  36.510  13.021
70847W        W40662   2.421  28.585   2.769
70848W        W40663  21.092  32.627  10.460
70849W        W40664   3.449  43.954   0.301
70850W        W40665   1.432   8.189  10.570
70851W        W40666  29.960   3.744  13.970
70852W        W40667   4.399  37.892  12.400
70853W        W40668  39.453   1.770   1.431
70854W        W40669   7.308  44.835  13.364
70855W        W40670  39.026  33.550   1.411
70856W        W40671   2.909  24.978   0.847
70857W        W40672  43.494  42.332   0.371
70858W        W40673   4.855   3.774  12.048
70859W        W40674  21.235  43.394   4.236
70860W        W40675   4.400  43.781  12.360
70861W        W40676  42.435  39.475   4.683
70862W        W40677   6.239  11.169   0.936
70863W        W40678  14.271   1.404   3.384
70864W        W40679  20.602  40.371   0.271
70865W        W40680  36.890  12.657  11.540
70866W        W40681   5.931  17.615   4.742
70867W        W40682  29.969  44.975  12.022
70868W        W40683  29.957   0.354  12.939
70869W        W40684  12.148  19.111  10.051
70870W        W40685  28.615  22.021   3.659
70871W        W40686  28.104  44.778  10.606
70872W        W40687   1.775   4.755  13.035
70873W        W40688  40.964  15.703  14.504
70874W        W40689  15.129  11.858  12.554
70875W        W40690  34.111   4.241  13.805
70876W        W40691  31.995  35.909  10.434
70877W        W40692  42.920   9.846  12.827
70878W        W40693  38.046  21.079  14.883
70879W        W40694  41.448   4.230  13.797
70880W        W40695  18.193  29.940  12.938
70881W        W40696  35.018  31.908   0.309
70882W        W40697  12.655  42.022   3.176
70883W        W40698  11.727  11.266   0.449
70884W        W40699  18.092  19.590  13.871
70885W        W40700  16.662  43.870   0.252
70886W        W40701  43.273  11.658  11.575
70887W        W40702   9.166   9.733  12.841
70888W        W40703   5.900  27.543  13.327
70889W        W40704  42.798  21.753  14.312
70890W        W40705  17.261   8.786  10.444
70891W        W40706  28.132  19.079   2.708
70892W        W40707  36.025  25.665  12.512
70893W        W40708  43.494  13.294  12.457
70894W        W40709  17.073  15.810   5.259
70895W        W40710  44.465  13.713   2.378
70896W        W40711   2.846  34.493   0.339
70897W        W40712  18.669  31.933   0.937
70898W        W40713  36.044  25.210  11.597
70899W        W40714  27.078   3.757  13.045
70900W        W40715  24.085  42.969   0.787
70901W        W40716  39.927  37.939   0.300
70902W        W40717  13.649  38.442   1.830
70903W        W40718  11.787  41.311  14.925
70904W        W40719  26.139  12.147  10.462
70905W        W40720  38.526   1.379   3.759
70906W        W40721  24.017  35.534  10.416
70907W        W40722  20.256  43.868   2.766
70908W        W40723  28.169  11.303   3.838
70909W        W40724  15.308  38.023  11.863
70910W        W40725   4.876  30.947   4.758
70911W        W40726  18.094  42.931  13.856
70912W        W40727  40.405   4.293   1.401
70913W        W40728  41.366   2.284   4.764
70914W        W40729  34.118   6.764   2.859
70915W        W40730  40.443  32.636   0.477
70916W        W40731  43.966   0.280   3.154
70917W        W40732  19.541  13.735  10.630
70918W        W40733  35.031   0.960   4.293
70919W        W40734  40.892   5.702   2.829
70920W        W40735  12.745   3.291   4.705
70921W        W40736   4.421  22.203  14.506
70922W        W40737  30.924   4.901  14.470
70923W        W40738   6.812  37.934   4.248
70924W        W40739   0.826   1.249   0.271
70925W        W40740  15.295  36.350  12.359
70926W        W40741   1.339   3.783   3.332
70927W        W40742  11.668  43.814   4.209
70928W        W40743   8.293  34.886  12.001
70929W        W40744  21.056  39.852  10.458
70930W        W40745   1.354  35.920  13.842
70931W        W40746  33.046  30.045  11.393
70932W        W40747   1.272  28.443   3.782
70933W        W40748  11.205   0.398   3.867
70934W        W40749  12.155  39.841  14.026
70935W        W40750  37.877  13.251  14.379
70936W        W40751  17.801  34.929  10.499
70937W        W40752  31.016  16.575   0.404
70938W        W40753  20.167  33.057  12.533
70939W        W40754   5.387  10.656   4.291
70940W        W40755   2.781  24.625  11.608
70941W        W40756  19.218   8.890   3.737
70942W        W40757   7.729  35.004   5.224
70943W        W40758  27.994  10.729  14.363
70944W        W40759  15.610  28.040   3.177
70945W        W40760  28.160  21.575  13.542
70946W        W40761  11.188   8.685  12.505
70947W        W40762  34.515   2.835  13.027
70948W        W40763   6.885  23.226  14.003
70949W        W40764  31.045  17.287   0.853
70950W        W40765  44.505  35.030  11.080
70951W        W40766  23.077  39.816  12.847
70952W        W40767  33.534  28.610   2.207
70953W        W40768  14.216  30.527   1.385
70954W        W40769  23.216  24.641  14.982
70955W        W40770  39.864  14.821  10.154
70956W        W40771  13.340  42.883   3.288
70957W        W40772  24.582   9.279  14.398
70958W        W40773  29.481  36.024   0.775
70959W        W40774  12.279  34.042  11.900
70960W        W40775  44.448   2.891  11.381
70961W        W40776  11.176  32.637   4.127
70962W        W40777  15.821   4.391   1.379
70963W        W40778  15.104  29.623  14.378
70964W        W40779   4.225  43.485  14.405
70965W        W40780  40.532   6.873  11.400
70966W        W40781   7.209   2.875   0.322
70967W        W40782  36.448  30.998  13.350
70968W        W40783   8.868  40.327   0.414
70969W        W40784  11.704   1.350   4.682
70970W        W40785  35.881  36.541  12.350
70971W        W40786  39.342  18.580   0.806
70972W        W40787   9.184  36.882  13.351
70973W        W40788  27.522  37.834   3.697
70974W        W40789   2.880  43.510  11.914
70975W        W40790  33.579  28.942  12.412
70976W        W40791  18.112  18.160   4.732
70977W        W40792  40.855  19.150  14.490
70978W        W40793  44.312  24.212   5.260
70979W        W40794   5.880  23.735  14.792
70980W        W40795   3.861  41.462  12.549
70981W        W40796  36.394  37.378  12.566
70982W        W40797   5.739   6.780  13.820
70983W        W40798  32.136  28.438  11.488
70984W        W40799  14.771  27.686  13.396
70985W        W40800  24.162  24.974  12.887
70986W        W40801  15.723  11.738   0.357
70987W        W40802  34.404  14.716   3.732
70988W        W40803  16.137  32.897   1.914
70989W        W40804  27.986  15.216   4.234
70990W        W40805  14.164   5.222   0.825
70991W        W40806  19.649  37.546   3.323
70992W        W40807  31.586  26.153   2.799
70993W        W40808   7.740  18.786   1.783
70994W        W40809   8.820  32.581  13.035
70995W        W40810   5.902  22.230   1.407
70996W        W40811  22.035  10.383   1.436
70997W        W40812  42.795   2.244  13.949
70998W        W40813  26.183  30.510  13.918
70999W        W40814  19.099  26.128  14.997
71000W        W40815  35.106  30.950  13.870
71001W        W40816  41.804  16.788  13.437
71002W        W40817  19.575   8.871   1.774
71003W        W40818  22.624  37.006  10.434
71004W        W40819  40.044  15.125  11.446
71005W        W40820  38.948   8.368  12.407
71006W        W40821  10.844  27.055  14.467
71007W        W40822   1.755   9.380   4.332
71008W        W40823  26.092  42.927   0.431
71009W        W40824   7.891  26.113  14.891
71010W        W40825  28.999  33.391  10.614
71011W        W40826   0.457  41.907   0.900
71012W        W40827  25.963  35.032   0.831
71013W        W40828  26.122  41.936  14.359
71014W        W40829  39.354   4.707   2.319
71015W        W40830   6.857  31.021   4.662
71016W        W40831  40.402  40.401  10.625
71017W        W40832  23.735  35.958  14.852
71018W        W40833  13.197  30.467   2.759
71019W        W40834  13.122  29.132  11.879
71020W        W40835  28.947  31.427  13.392
71021W        W40836  18.251  24.526   4.117
71022W        W40837  16.771  28.169  11.102
71023W        W40838  34.452  18.100  11.590
71024W        W40839  14.624   3.833   0.929
71025W        W40840   9.183  43.425   3.786
71026W        W40841  19.681  26.677  12.464
71027W        W40842   0.456  12.234   4.319
71028W        W40843   3.858  33.621   0.922
71029W        W40844  26.695  29.944  14.481
71030W        W40845   9.654  14.812  14.321
71031W        W40846  23.560  22.066  13.323
71032W        W40847  33.892  36.932   1.928
71033W        W40848  36.931   8.691  14.349
71034W        W40849  16.669  13.718  14.968
71035W        W40850  21.101  35.912   1.822
71036W        W40851  39.478  41.504  11.067
71037W        W40852   3.391  34.371  12.957
71038W        W40853   3.942  43.922  10.622
71039W        W40854   6.306  26.571   3.178
71040W        W40855   2.896  13.220   2.257
71041W        W40856  42.825  36.994   1.787
71042W        W40857  21.112  29.534   3.785
71043W        W40858  11.293   0.838  13.831
71044W        W40859  12.708  39.929  13.440
71045W        W40860  14.303  10.213   0.431
71046W        W40861  36.903  22.508  14.285
71047W        W40862  31.046   3.290  12.940
71048W        W40863   1.259  37.464  11.453
71049W        W40864  11.764  13.176  14.801
71050W        W40865  42.492   6.800  13.425
71051W        W40866  44.278   9.814  11.895
71052W        W40867  20.744   8.660   5.165
71053W        W40868  23.077  38.831   2.178
71054W        W40869  17.567  10.770  12.982
71055W        W40870  37.456   6.800   0.369
71056W        W40871  16.217   5.359  10.891
71057W        W40872  33.901  43.911  11.080
71058W        W40873  18.730   3.947   4.819
71059W        W40874  23.673  10.284   4.639
71060W        W40875  26.161   9.873   0.902
71061W        W40876  27.535   2.740   4.598
71062W        W40877  11.162   9.335  11.057
71063W        W40878  34.537   1.904  14.428
71064W        W40879  12.292  15.224  13.455
71065W        W40880  36.433   4.447   3.207
71066W        W40881  11.772  29.454   3.682
71067W        W40882  32.620  41.483  14.421
71068W        W40883   1.773  22.070  11.476
71069W        W40884  30.935  11.821   3.800
71070W        W40885   5.877  37.870  14.977
71071W        W40886   8.833  12.690  13.995
71072W        W40887  29.432  28.007  12.412
71073W        W40888  15.098   5.220   4.172
71074W        W40889   8.731   4.940   0.467
71075W        W40890  17.068  34.086  12.566
71076W        W40891  28.096  32.026   0.250
71077W        W40892  17.595  24.580  13.452
71078W        W40893  43.384  37.956  13.328
71079W        W40894  15.115   5.266   3.688
71080W        W40895   8.261   6.782   3.721
71081W        W40896  20.274   4.363   0.885
71082W        W40897  43.452  10.314   0.373
71083W        W40898  39.876  32.089  12.490
71084W        W40899  41.998  34.974  14.875
71085W        W40900  17.170  19.762   9.942
71086W        W40901   0.760   2.724  11.571
71087W        W40902  10.703  31.065   2.263
71088W        W40903  27.157  24.139  10.570
71089W        W40904  25.639  43.807   1.243
71090W        W40905   0.935  23.616   1.850
71091W        W40906  32.542  12.695  14.451
71092W        W40907   6.777  25.525  10.508
71093W        W40908   5.930  29.453   3.217
71094W        W40909  15.119   2.406   1.811
71095W        W40910  20.188  18.756   0.380
71096W        W40911   5.434  16.582  14.769
71097W        W40912  34.976  27.192  12.430
71098W        W40913  18.681  43.404  14.363
71099W        W40914  41.965  18.131   2.835
71100W        W40915  43.385  35.951   4.670
71101W        W40916  36.464  43.921   4.774
71102W        W40917  26.114  15.584  14.015
71103W        W40918  23.704   0.260   1.314
71104W        W40919  42.843  14.196  12.009
71105W        W40920  30.955  15.662   2.373
71106W        W40921  15.596  12.811   1.876
71107W        W40922  37.075  16.740   2.302
71108W        W40923  30.508  16.719  11.418
71109W        W40924  29.015  22.689   1.241
71110W        W40925  44.924  33.129   4.817
71111W        W40926  22.024   8.835  13.499
71112W        W40927  42.958   9.205   3.659
71113W        W40928   6.297  15.689  13.935
71114W        W40929   5.819  22.163  13.345
71115W        W40930  40.877  41.907   0.278
71116W        W40931  14.739  14.802  14.338
71117W        W40932  25.624   9.253   4.696
71118W        W40933  42.514   3.231   5.188
71119W        W40934  26.666  29.104   4.769
71120W        W40935  37.969  22.680  10.492
71121W        W40936  27.614  10.185  14.797
71122W        W40937  27.579  24.497   1.919
71123W        W40938  33.077  40.345  13.974
71124W        W40939  30.071  13.142   4.169
71125W        W40940  18.141   0.954   1.892
71126W        W40941  36.383  10.720   4.772
71127W        W40942  32.902  31.502   1.382
71128W        W40943  19.230  43.995   4.156
71129W        W40944  42.331  20.224  14.387
71130W        W40945  25.610  14.153   2.228
71131W        W40946   9.781  10.757   4.136
71132W        W40947   8.777  36.847   3.650
71133W        W40948  43.292  19.695  14.936
71134W        W40949  12.707  37.058  12.862
71135W        W40950   7.885   8.337  14.868
71136W        W40951  33.399   6.264  12.492
71137W        W40952  35.513  37.923  12.026
71138W        W40953  39.995  29.514  10.644
71139W        W40954   1.297  23.496   1.812
71140W        W40955  18.760  33.562  10.418
71141W        W40956  33.413  32.455   2.688
71142W        W40957  25.709  26.981  14.463
71143W        W40958  35.867  44.467  14.841
71144W        W40959  43.433  16.135   4.721
71145W        W40960  31.428  23.232  13.831
71146W        W40961   3.238  31.409   1.807
71147W        W40962  17.694  31.599  14.290
71148W        W40963  14.325  20.534  11.377
71149W        W40964   3.876  24.548   4.354
71150W        W40965  34.918  14.335  10.479
71151W        W40966  19.737  30.551   3.860
71152W        W40967  33.083   3.281   3.838
71153W        W40968   9.876   6.365   2.380
71154W        W40969  30.108  22.660  11.965
71155W        W40970  39.346  16.637   4.776
71156W        W40971  32.023  19.729   3.189
71157W        W40972   1.417  38.975  10.132
71158W        W40973   9.833  22.094   2.814
71159W        W40974  30.604  33.043   3.851
71160W        W40975  15.793   6.302   0.849
71161W        W40976  29.987  40.340   1.813
71162W        W40977   5.270  41.338  12.400
71163W        W40978   4.398   8.386   1.282
71164W        W40979  10.658   4.363  12.916
71165W        W40980  40.337  20.093   1.259
71166W        W40981  42.913  32.519   3.669
71167W        W40982  36.983  15.798  12.493
71168W        W40983  28.667  19.724  10.956
71169W        W40984  12.148  30.642   3.164
71170W        W40985  18.607  35.923  11.962
71171W        W40986  34.608  30.468  11.496
71172W        W40987  26.666  15.147   0.311
71173W        W40988  21.530  11.140   1.394
71174W        W40989  38.565  28.059  13.888
71175W        W40990  43.328  31.101  13.064
71176W        W40991  19.232  19.622  13.926
71177W        W40992  19.556  32.065   3.318
71178W        W40993  22.237  38.888  10.464
71179W        W40994   6.409  19.723   5.228
71180W        W40995   4.888  11.245   3.829
71181W        W40996  21.123   5.259  11.079
71182W        W40997  26.072  12.348   4.288
71183W        W40998  16.662   5.213  11.536
71184W        W40999  41.848   2.248   3.148
71185W        W41000  11.148  27.507   1.425
71186W        W41001  26.961   5.807   3.328
71187W        W41002  38.379  20.221  11.102
71188W        W41003   6.676  24.697  10.429
71189W        W41004  43.404  10.220  13.898
71190W        W41005   3.242  30.939   1.853
71191W        W41006  42.896   2.882   2.301
71192W        W41007  26.990  44.435  12.950
71193W        W41008   5.847  16.585   1.425
71194W        W41009  35.858  44.935   1.736
71195W        W41010  37.042  35.461   0.952
71196W        W41011  42.821  30.619   4.619
71197W        W41012  36.940  19.199  12.499
71198W        W41013  22.711  41.421  11.579
71199W        W41014  33.120  35.864   2.234
71200W        W41015  30.645  33.875  12.533
71201W        W41016  12.352   1.812   1.920
71202W        W41017   6.809   7.894   2.782
71203W        W41018  31.473  43.808   3.146
71204W        W41019  36.094  25.628  13.874
71205W        W41020  30.542  31.528   0.439
71206W        W41021  24.632   4.431   0.919
71207W        W41022  43.281   2.748  11.006
71208W        W41023  37.016  36.047  14.955
71209W        W41024  24.095   4.213   3.312
71210W        W41025  29.477  17.217  14.476
71211W        W41026  11.368  30.088   0.366
71212W        W41027  26.605  24.200   4.829
71213W        W41028  28.620  10.780   5.156
71214W        W41029   6.684  20.208   3.317
71215W        W41030  23.006   6.187   3.782
71216W        W41031  14.751   9.659  10.973
71217W        W41032  43.866  34.504  10.544
71218W        W41033  25.126  22.669   4.654
71219W        W41034   4.720  29.982  10.407
71220W        W41035  28.565  27.150  12.905
71221W        W41036   6.814  34.986  12.929
71222W        W41037  25.138  12.771  10.982
71223W        W41038  25.983   4.439   0.410
71224W        W41039  21.063  26.686  11.986
71225W        W41040  44.892   1.395   4.767
71226W        W41041  20.659  28.477  10.933
71227W        W41042  27.948  10.742   3.305
71228W        W41043  30.600  32.559   1.310
71229W        W41044  31.494  13.124  11.543
71230W        W41045  22.680  12.232   1.749
71231W        W41046  29.964   9.272   3.378
71232W        W41047  38.543  36.876   4.286
71233W        W41048  30.943   2.309   4.322
71234W        W41049  34.426  34.898  12.419
71235W        W41050  20.589  30.453   4.179
71236W        W41051  10.784  17.713  11.115
71237W        W41052  19.598  19.247  14.791
71238W        W41053   5.929   8.735   0.740
71239W        W41054   4.436   1.264   0.842
71240W        W41055  18.773  38.928  11.056
71241W        W41056  22.228  10.284  14.943
71242W        W41057  26.111  14.237  12.000
71243W        W41058  44.005  37.023  10.486
71244W        W41059   1.838  39.320   2.182
71245W        W41060  18.715  36.448  13.422
71246W        W41061  27.974   0.436  13.876
71247W        W41062  25.135  19.167   0.849
71248W        W41063  29.015  28.081   4.204
71249W        W41064  22.108   6.700  10.529
71250W        W41065  42.985   1.878   0.893
71251W        W41066  18.217  25.646   0.813
71252W        W41067   2.903  37.032  10.976
71253W        W41068  34.078  44.993   3.854
71254W        W41069  34.950  12.181  10.412
71255W        W41070  20.613   9.818  10.517
71256W        W41071  30.656  14.136   2.344
71257W        W41072  17.214  19.727   2.683
71258W        W41073  28.636  38.372  14.857
71259W        W41074  13.186  27.063  11.553
71260W        W41075  12.287  42.845   3.179
71261W        W41076  10.665  17.605   3.718
71262W        W41077  21.566  11.640  10.444
71263W        W41078  30.989  24.136  11.095
71264W        W41079   2.311  23.556   3.855
71265W        W41080  31.152   3.749   3.163
71266W        W41081   2.893   2.940   0.904
71267W        W41082  15.612  27.658   4.195
71268W        W41083  11.137   5.710   4.148
71269W        W41084  21.514   8.745   4.824
71270W        W41085  25.562  21.198   4.160
71271W        W41086  12.811   0.340  12.072
71272W        W41087  44.360  35.494  10.439
71273W        W41088  33.998  30.643  13.826
71274W        W41089  36.463  42.401  12.884
71275W        W41090  25.074  22.044  13.835
71276W        W41091   4.320  13.766  11.118
71277W        W41092   6.246   2.249  12.424
71278W        W41093   8.399  30.146  14.335
71279W        W41094  22.094  35.508   2.847
71280W        W41095  19.609  25.652  13.906
71281W        W41096  15.231   9.829   3.237
71282W        W41097  36.040  37.945   4.228
71283W        W41098  15.668  26.469  11.498
71284W        W41099   6.228  12.236   1.878
71285W        W41100  21.640   2.298  13.792
71286W        W41101  17.614  31.078   4.165
71287W        W41102  20.241  30.610  10.433
71288W        W41103  29.167   7.713   3.154
71289W        W41104  15.617  27.187  13.461
71290W        W41105   3.899   7.687   1.308
71291W        W41106  21.037   8.245   4.774
71292W        W41107   9.763  31.439  14.421
71293W        W41108   0.750  16.808   0.282
71294W        W41109  31.589  40.848  12.983
71295W        W41110   0.444   2.240   0.371
71296W        W41111  10.685  24.489  13.831
71297W        W41112  37.360  38.369  11.532
71298W        W41113  24.096   3.434   2.322
71299W        W41114  24.205  16.234  13.810
71300W        W41115  39.984  34.096  12.400
71301W        W41116  21.113  31.979   4.338
71302W        W41117  24.148  11.858   3.340
71303W        W41118  15.819  31.101  14.949
71304W        W41119  30.064  24.488   2.756
71305W        W41120   9.293  18.771  11.383
71306W        W41121  37.512  43.297  13.525
71307W        W41122  41.823   9.344  11.409
71308W        W41123  43.467  22.661   3.201
71309W        W41124  34.985  32.944   0.915
71310W        W41125   8.239  24.065   0.259
71311W        W41126  25.176   1.935  11.436
71312W        W41127   4.448  41.925   3.289
71313W        W41128  14.339  14.785  12.417
71314W        W41129  29.062   0.928   3.708
71315W        W41130  19.570  25.586   1.891
71316W        W41131   0.792  15.591   4.712
71317W        W41132  44.438   6.720  11.558
71318W        W41133  25.971  33.608  14.943
71319W        W41134  33.402   3.906  14.411
71320W        W41135  12.142  10.661   0.779
71321W        W41136   8.664  32.105  10.892
71322W        W41137  35.087  44.293   5.174
71323W        W41138   6.703  19.614   2.845
71324W        W41139  30.004  37.365  13.328
71325W        W41140   3.777  38.965   4.169
71326W        W41141  27.486  31.521  14.342
71327W        W41142  23.124  16.749   1.834
71328W        W41143  43.996  26.470  14.947
71329W        W41144   9.167   5.320   2.362
71330W        W41145  37.403  36.864   4.336
71331W        W41146  37.927  34.019   2.764
71332W        W41147  30.578  44.967  13.481
71333W        W41148  18.639  22.179   3.860
71334W        W41149  11.306  41.920  13.338
71335W        W41150  41.451   9.165  14.855
71336W        W41151  18.214   6.728   1.724
71337W        W41152   2.760   9.186  12.405
71338W        W41153  28.475  31.643   2.698
71339W        W41154   2.325  10.662   1.285
71340W        W41155  20.709  21.155  13.367
71341W        W41156  34.473  26.599   0.817
71342W        W41157  19.631  23.496   4.799
71343W        W41158  42.282  24.614   3.339
71344W        W41159  26.144  11.285  12.927
71345W        W41160  30.967  12.620  13.836
71346W        W41161  28.981  35.601   2.401
71347W        W41162  28.564  39.981  11.577
71348W        W41163   9.221  29.060  12.480
71349W        W41164  10.727  20.256   1.440
71350W        W41165  17.645   3.725   1.286
71351W        W41166  24.483   3.731   1.239
71352W        W41167   9.673  28.078   1.816
71353W        W41168  43.363  10.308  10.459
71354W        W41169  17.174  42.810   3.732
71355W        W41170  27.678   2.300  13.860
71356W        W41171  28.014  21.708  13.863
71357W        W41172  33.909  31.535  13.340
71358W        W41173  17.634  36.582  12.446
71359W        W41174  34.064  29.021   0.794
71360W        W41175  33.580   3.427  12.062
71361W        W41176  10.176   4.810   3.230
71362W        W41177  16.703  33.927  10.642
71363W        W41178  19.086   4.309   2.188
71364W        W41179  41.500  21.691  10.994
71365W        W41180  36.508  43.883   4.134
71366W        W41181  41.843  19.202   0.792
71367W        W41182  24.106  35.396   4.673
71368W        W41183  25.968   0.969  10.528
71369W        W41184  24.178  15.147  13.388
71370W        W41185  43.770  41.411   1.431
71371W        W41186  44.968   5.202  14.468
71372W        W41187  40.433  18.202  10.622
71373W        W41188   2.238  12.203   3.367
71374W        W41189   5.762  23.999  13.486
71375W        W41190  32.887  13.118  13.058
71376W        W41191   2.805   3.347   2.783
71377W        W41192   7.908  10.848  13.864
71378W        W41193   1.458  18.238  12.396
71379W        W41194  26.052  28.075   1.930
71380W        W41195  22.615   0.870  13.488
71381W        W41196  11.765   6.188  13.809
71382W        W41197  12.343  23.615  13.975
71383W        W41198  17.099  39.916  14.836
71384W        W41199   9.859  21.548   0.392
71385W        W41200  18.758  37.380   3.176
71386W        W41201  37.993  31.082   1.382
71387W        W41202  25.215  25.503  11.394
71388W        W41203  38.055  35.452  14.508
71389W        W41204  37.490  44.910  14.879
71390W        W41205  25.706  35.962   4.314
71391W        W41206   1.455  23.165  13.384
71392W        W41207  30.071  17.247   3.207
71393W        W41208  13.716  42.968  14.442
71394W        W41209  25.693  15.120   1.772
71395W        W41210  30.959  39.423  10.571
71396W        W41211  17.611   3.422   1.846
71397W        W41212  44.460  19.685   0.921
71398W        W41213  32.616  10.188  12.010
71399W        W41214  27.959  21.155   2.403
71400W        W41215   2.470  29.946  13.375
71401W        W41216  40.995   4.253   1.699
71402W        W41217   6.856  40.967   5.178
71403W        W41218  37.046  31.523  11.974
71404W        W41219  34.404  14.191   4.227
71405W        W41220  26.029  34.531   0.322
71406W        W41221  28.514   4.335   1.276
71407W        W41222  19.274  24.145  12.914
71408W        W41223  36.877  34.870   2.233
71409W        W41224  43.493   6.771  14.391
71410W        W41225  28.102  12.342  10.562
71411W        W41226  12.708  17.307   0.746
71412W        W41227  20.591  15.690  14.972
71413W        W41228  39.816  30.465  12.930
71414W        W41229   7.179  31.594   0.461
71415W        W41230  20.212  42.798  11.003
71416W        W41231  19.257  19.184  11.028
71417W        W41232  37.077  41.449  13.798
71418W        W41233  29.018   9.825  13.978
71419W        W41234  15.766   8.267  11.390
71420W        W41235  14.590   5.270   0.335
71421W        W41236  13.256  27.552  10.535
71422W        W41237   0.263   6.863   2.722
71423W        W41238  43.842  24.684  13.832
71424W        W41239   1.826  36.408   4.191
71425W        W41240  30.090  11.741  13.859
71426W        W41241   6.214  17.671   1.807
71427W        W41242  37.901  36.539   2.724
71428W        W41243  36.412  13.209   0.835
71429W        W41244  10.168  23.611  10.506
71430W        W41245  11.182  36.388  14.777
71431W        W41246  23.087  15.787  10.431
71432W        W41247  23.049  22.125  11.943
71433W        W41248  18.741   2.416   2.785
71434W        W41249  26.113  18.717  14.439
71435W        W41250  32.091  23.081  13.816
71436W        W41251  37.483   5.771   2.882
71437W        W41252  36.372  12.312  14.921
71438W        W41253  15.159  37.539   2.343
71439W        W41254  15.184  27.625   1.857
71440W        W41255  35.542  18.126   0.881
71441W        W41256  23.112  14.804   0.727
71442W        W41257  36.072  24.615   2.699
71443W        W41258  30.412  27.448  13.822
71444W        W41259  25.524   3.340  14.852
71445W        W41260  26.059  25.004  13.883
71446W        W41261  17.077  33.388   5.220
71447W        W41262   9.292  40.007   2.219
71448W        W41263  14.179  42.006   0.356
71449W        W41264  32.524  32.092   2.675
71450W        W41265  14.659  14.303  11.988
71451W        W41266  22.576  20.165  10.987
71452W        W41267  37.508  24.712   4.668
71453W        W41268  25.673  25.605  11.467
71454W        W41269  40.856  23.703   2.296
71455W        W41270   4.413  32.422   4.256
71456W        W41271  24.656  24.974   1.898
71457W        W41272   2.286  10.830  11.561
71458W        W41273  32.961  39.862   4.715
71459W        W41274  38.438  44.992  10.050
71460W        W41275  33.032  30.135  14.829
71461W        W41276   0.795   9.242  11.465
71462W        W41277   9.362  44.331  11.102
71463W        W41278  12.191   0.748  14.030
71464W        W41279   2.859  29.166  10.486
71465W        W41280  11.829  39.436  11.004
71466W        W41281  35.959  32.097  11.124
71467W        W41282  41.997   0.253   4.259
71468W        W41283   1.311  14.295  12.975
71469W        W41284   9.693   9.385  11.123
71470W        W41285  20.040  39.989   0.265
71471W        W41286   3.396   8.660  10.888
71472W        W41287  13.116  36.896   1.919
71473W        W41288  44.287  27.569  10.617
71474W        W41289   2.837  44.857   2.723
71475W        W41290  21.756  14.314  14.298
71476W        W41291  16.726  39.938   2.190
71477W        W41292  10.712   2.852  14.283
71478W        W41293  43.772  13.207   1.769
71479W        W41294   3.439  19.151  10.956
71480W        W41295  32.632  10.327  11.000
71481W        W41296   0.439  18.215  10.629
71482W        W41297   9.876  37.515   1.397
71483W        W41298  17.734   0.833  12.036
71484W        W41299  29.633  14.265  14.450
71485W        W41300   0.422   0.901   2.701
71486W        W41301   5.740  44.362  12.518
71487W        W41302  36.916  28.513  11.961
71488W        W41303  35.534  16.171  12.947
71489W        W41304  11.668  42.966   1.342
71490W        W41305  19.639  16.318  11.036
71491W        W41306  24.594  26.983   3.679
71492W        W41307  16.640  23.194  11.384
71493W        W41308  43.273  33.447   3.297
71494W        W41309   9.151  35.993  11.490
71495W        W41310  19.200   9.169  11.538
71496W        W41311  10.167  31.968   1.290
71497W        W41312   9.656   5.307  11.474
71498W        W41313  36.439  35.973  10.628
71499W        W41314  12.781  19.632   1.236
71500W        W41315  40.958   1.462   2.418
71501W        W41316  39.536  29.165  11.865
71502W        W41317  13.600  42.890  10.609
71503W        W41318  20.254   0.791   1.261
71504W        W41319  42.012  27.560  10.497
71505W        W41320   8.827  35.969   4.652
71506W        W41321  43.836  30.423  10.514
71507W        W41322  33.880   8.886  14.866
71508W        W41323  29.628  27.012  13.998
71509W        W41324  32.409  35.374  10.416
71510W        W41325   0.843  40.997  14.915
71511W        W41326   7.696  40.812   1.259
71512W        W41327   7.715  39.008   4.273
71513W        W41328  23.064  34.058   0.775
71514W        W41329  29.933  34.547  10.604
71515W        W41330   0.276  11.221   1.343
71516W        W41331  42.917  21.223   4.660
71517W        W41332  35.870  23.690   2.379
71518W        W41333  21.556  24.536   0.331
71519W        W41334  18.743  34.897   3.189
71520W        W41335  11.318  42.028   1.318
71521W        W41336  18.788  14.184  12.505
71522W        W41337  26.648  39.414   1.216
71523W        W41338  11.286  24.579   0.942
71524W        W41339  44.784  34.918  13.938
71525W        W41340  30.908   7.406  12.893
71526W        W41341   1.277  22.033   4.626
71527W        W41342  20.747  23.083  14.477
71528W        W41343  31.014   2.461   0.737
71529W        W41344  18.258  14.264   4.253
71530W        W41345  18.275  22.045  14.962
71531W        W41346  28.510   2.328  13.938
71532W        W41347  11.224  21.616  10.585
71533W        W41348  15.322  42.965  13.435
71534W        W41349  13.835  20.033  11.407
71535W        W41350   7.789  23.013  10.433
71536W        W41351   8.776  26.965  12.519
71537W        W41352  39.983   1.237  12.920
71538W        W41353  36.481  26.016   1.260
71539W        W41354  30.107  15.239   2.272
71540W        W41355  35.542  28.021   2.693
71541W        W41356  18.273  32.893   4.642
71542W        W41357  21.019  41.936  14.494
71543W        W41358  19.105  20.710   0.450
71544W        W41359  20.694  30.022   2.752
71545W        W41360  29.470  42.367   4.622
71546W        W41361   6.702  40.035  14.026
71547W        W41362  32.117  16.181  14.368
71548W        W41363  11.756  29.483   2.224
71549W        W41364  30.473   1.965  14.366
71550W        W41365   6.194   6.881   3.191
71551W        W41366  11.657  28.960  10.946
71552W        W41367   6.333   4.368  10.420
71553W        W41368  15.206  31.935   0.757
71554W        W41369  34.893  29.123   3.316
71555W        W41370  12.667   3.713  10.548
71556W        W41371  38.941  22.141   2.246
71557W        W41372   4.825  19.709  11.602
71558W        W41373  34.020  33.016   2.853
71559W        W41374  32.959  30.486  14.945
71560W        W41375  42.843  21.041   3.653
71561W        W41376  35.942   2.377   2.383
71562W        W41377  29.965  43.808   3.222
71563W        W41378  43.273  22.243  11.961
71564W        W41379  36.846   6.241  11.957
71565W        W41380  37.864  27.142   0.727
71566W        W41381  36.866  36.584   0.387
71567W        W41382  16.661   6.196   3.235
71568W        W41383  35.427  30.919  14.412
71569W        W41384  24.032   6.373  12.963
71570W        W41385   2.914  22.676  14.850
71571W        W41386   4.748  25.154   3.826
71572W        W41387  25.131  22.739  10.943
71573W        W41388  11.173  22.632   1.874
71574W        W41389  43.411  24.997   0.830
71575W        W41390  24.036  36.374  10.447
71576W        W41391  15.773  19.756  10.969
71577W        W41392  35.459  12.809  14.354
71578W        W41393  19.078  38.003   3.202
71579W        W41394  17.632  25.004  12.083
71580W        W41395   1.798   7.185  14.813
71581W        W41396  15.815  24.588   0.278
71582W        W41397  42.858  15.689  10.119
71583W        W41398   4.414  21.571  11.942
71584W        W41399  36.861  35.878  12.946
71585W        W41400  34.117  28.985   1.719
71586W        W41401  12.145  25.011  13.358
71587W        W41402  40.813   6.854   4.310
71588W        W41403   2.472  18.252   3.790
71589W        W41404  28.481  15.708   1.702
71590W        W41405  27.579  29.583   1.839
71591W        W41406  37.907  18.054   3.861
71592W        W41407   5.411  15.160   3.192
71593W        W41408  22.679  32.025  13.437
71594W        W41409  37.923   8.367   1.924
71595W        W41410  40.510  26.671   4.724
71596W        W41411  38.386   7.293   0.817
71597W        W41412  44.966  39.973   4.154
71598W        W41413   0.432  16.288   0.924
71599W        W41414  22.592   8.663   0.945
71600W        W41415  13.650  15.114   0.766
71601W        W41416   7.219  33.610  13.796
71602W        W41417  34.097   6.188   4.140
71603W        W41418  23.519  25.649   3.812
71604W        W41419   8.817  17.693  14.782
71605W        W41420   2.287  12.769   2.676
71606W        W41421   2.252  30.045  13.004
71607W        W41422  43.949  17.176  11.025
71608W        W41423  21.700  12.725  12.545
71609W        W41424  38.833   3.827   2.262
71610W        W41425  13.346   0.317  12.009
71611W        W41426  26.201  10.646   1.258
71612W        W41427  44.288   4.926   3.729
71613W        W41428   6.372  30.159  12.069
71614W        W41429  18.187  34.602  14.891
71615W        W41430   6.713   8.777   0.893
71616W        W41431   6.323   3.722  10.516
71617W        W41432   3.730  44.385   2.755
71618W        W41433  23.623  32.548  14.862
71619W        W41434   6.748  44.996  11.114
71620W        W41435   9.744  23.682   4.274
71621W        W41436  42.457  12.152  14.457
71622W        W41437  16.278  19.708  10.893
71623W        W41438   7.801   4.210  13.943
71624W        W41439  30.952  31.081   2.408
71625W        W41440  41.840  30.495  14.281
71626W        W41441  28.481  12.740  10.634
71627W        W41442  23.635  20.229  14.837
71628W        W41443  11.778   9.647   0.910
71629W        W41444  21.726  28.600  10.449
71630W        W41445  17.218   1.887  11.910
71631W        W41446  37.525  30.091   3.834
71632W        W41447  39.841  12.687  11.374
71633W        W41448   5.916  18.197   0.242
71634W        W41449  29.043  21.749   1.352
71635W        W41450  10.677  37.934   1.358
71636W        W41451  21.101  27.664  10.441
71637W        W41452   7.183   2.450  11.015
71638W        W41453  29.540  34.530  11.905
71639W        W41454  43.333   5.767   0.811
71640W        W41455  38.928  12.133  14.446
71641W        W41456  44.975  37.027   4.249
71642W        W41457  33.427  34.911   4.741
71643W        W41458  16.307  32.399   2.754
71644W        W41459  33.571  35.910  13.514
71645W        W41460  23.205  35.038  12.380
71646W        W41461   2.261  11.309  12.063
71647W        W41462  29.553  43.380   0.737
71648W        W41463  28.039  28.585   3.866
71649W        W41464  15.293  39.051  13.949
71650W        W41465  23.149   2.337   3.671
71651W        W41466  19.717  40.468   1.421
71652W        W41467  35.059  29.430   4.684
71653W        W41468  34.411  36.446  11.381
71654W        W41469  17.134   5.375  12.867
71655W        W41470  26.049  30.060   0.731
71656W        W41471  12.641  16.204   1.320
71657W        W41472  37.014   0.980  13.996
71658W        W41473  27.544  30.620   0.440
71659W        W41474  11.727  29.423   1.216
71660W        W41475  11.238  20.072  12.085
71661W        W41476   4.916  20.623   1.447
71662W        W41477  14.317  21.077   4.825
71663W        W41478  12.643  27.152  12.982
71664W        W41479  15.719  26.555   0.887
71665W        W41480   0.895  42.983   9.969
71666W        W41481  18.280  44.310   3.661
71667W        W41482  18.291   2.828   0.362
71668W        W41483  32.590  43.440   3.633
71669W        W41484  30.472  35.603   2.779
71670W        W41485  29.651  13.775   1.261
71671W        W41486  34.524  34.063   4.643
71672W        W41487  28.551   7.686   4.690
71673W        W41488  16.143  30.982   3.379
71674W        W41489   9.287  39.329  11.565
71675W        W41490  22.242  29.929   3.867
71676W        W41491   7.825   4.742  14.410
71677W        W41492   9.175  14.305  10.900
71678W        W41493  13.636   7.819  14.010
71679W        W41494  25.072  29.589   3.375
71680W        W41495  17.673   4.711   1.760
71681W        W41496  19.209  12.820   0.425
71682W        W41497  34.917   8.780  12.827
71683W        W41498   9.365  38.492   4.187
71684W        W41499  15.231  31.032   4.293
71685W        W41500  13.737  41.950  10.497
71686W        W41501  26.540  30.962  10.494
71687W        W41502   2.876  29.664   0.826
71688W        W41503  23.559   3.758  10.559
71689W        W41504  28.517  39.809   4.636
71690W        W41505  23.490  31.466  12.542
71691W        W41506  17.741   0.484   2.363
71692W        W41507  16.138   0.751  10.438
71693W        W41508   0.770  37.511  12.981
71694W        W41509  29.999  44.929   0.896
71695W        W41510   6.282  18.225  10.030
71696W        W41511  37.566   7.883   1.302
71697W        W41512  39.369  22.526   3.673
71698W        W41513  13.768  10.309  14.451
71699W        W41514  28.032  35.051  10.420
71700W        W41515  32.908   8.814   2.181
71701W        W41516  40.844  40.811   2.377
71702W        W41517  37.035   2.871   3.853
71703W        W41518  15.090  43.302  14.378
71704W        W41519  24.489  28.186   3.151
71705W        W41520  12.143  21.512   2.868
71706W        W41521   2.344  15.086   3.353
71707W        W41522   9.722  44.455   0.463
71708W        W41523  12.124   1.911   3.207
71709W        W41524   4.801  28.104   4.175
71710W        W41525   8.190  27.498  11.124
71711W        W41526   7.807  20.549   0.762
71712W        W41527  32.550  39.888   1.357
71713W        W41528  15.214   1.269  12.380
71714W        W41529  19.587  32.434   3.689
71715W        W41530  42.912  44.499  13.468
71716W        W41531  28.051   7.171  12.486
71717W        W41532  31.954  20.043  14.788
71718W        W41533  12.144  21.719   4.178
71719W        W41534  17.676  27.190   2.368
71720W        W41535  44.958  42.288   3.746
71721W        W41536  10.835  42.496   2.410
71722W        W41537   0.895   6.332   3.851
71723W        W41538  13.154  25.503  12.872
71724W        W41539   6.255  14.694  10.435
71725W        W41540  37.928  33.545  12.912
71726W        W41541  34.991   9.742  13.522
71727W        W41542  42.886  25.574  12.420
71728W        W41543  14.721   7.417   3.867
71729W        W41544  13.266  38.820  11.013
71730W        W41545  22.572  33.919   4.700
71731W        W41546  40.890  21.730  13.333
71732W        W41547  31.973  12.631  12.944
71733W        W41548   8.304  39.945  11.479
71734W        W41549  16.261  34.614   1.916
71735W        W41550  39.834  19.693  12.823
71736W        W41551  23.699  18.193  13.439
71737W        W41552  19.721  15.637  11.597
71738W        W41553  14.271  20.171  11.929
71739W        W41554   3.777  34.939  11.089
71740W        W41555  16.108  34.914   1.731
71741W        W41556  31.941  22.678   4.826
71742W        W41557  20.196  12.742  10.962
71743W        W41558  39.854  23.507   0.771
71744W        W41559  40.989  33.580   1.287
71745W        W41560  11.346  15.718   0.373
71746W        W41561  41.024  28.539   0.479
71747W        W41562  43.381  10.279   2.681
71748W        W41563   8.704  11.126   1.245
71749W        W41564  30.515  26.586  11.451
71750W        W41565   1.736  17.130   2.356
71751W        W41566  28.100   7.736  14.445
71752W        W41567  40.847  30.472  14.922
71753W        W41568   2.906  18.227   2.362
71754W        W41569  13.189  33.491  11.036
71755W        W41570  35.898  42.350  12.958
71756W        W41571  34.902  22.567   1.700
71757W        W41572  23.631  26.032   4.629
71758W        W41573  29.016   1.280  10.545
71759W        W41574  10.706  24.480   1.901
71760W        W41575  21.185   7.855  11.070
71761W        W41576  18.642  25.197  12.011
71762W        W41577   8.280  11.169   1.892
71763W        W41578  16.609  20.665  11.962
71764W        W41579   6.763  19.618   0.766
71765W        W41580  19.092   0.847   4.165
71766W        W41581  31.935  38.045  12.915
71767W        W41582  12.323  20.687  11.604
71768W        W41583  42.491  18.561  12.365
71769W        W41584  26.175  12.308   3.814
71770W        W41585   5.286  23.144  12.995
71771W        W41586   7.416  39.529   4.769
71772W        W41587  30.421  16.629  12.027
71773W        W41588  25.203  29.163  14.403
71774W        W41589  29.534  44.420   1.711
71775W        W41590  33.874  22.099  11.516
71776W        W41591  12.832  13.203   0.814
71777W        W41592  40.019  21.534  10.565
71778W        W41593  22.141   4.930   4.801
71779W        W41594  11.769  34.438  14.425
71780W        W41595  13.743  43.772   3.700
71781W        W41596  21.525  33.883   3.154
71782W        W41597   3.360  12.131  10.919
71783W        W41598   9.717  33.920   2.400
71784W        W41599  24.683   1.734  14.913
71785W        W41600  23.204   8.215   0.428
71786W        W41601  19.732  26.018  14.797
71787W        W41602  24.030  43.297  10.927
71788W        W41603  44.903  17.192   3.183
71789W        W41604  20.093  34.535  10.428
71790W        W41605  17.096   1.455   1.854
71791W        W41606  27.958   1.903  14.410
71792W        W41607   8.289  33.893   3.360
71793W        W41608  35.557  24.686   0.756
71794W        W41609  31.122   2.401  12.560
71795W        W41610  28.176  35.440  11.987
71796W        W41611  18.684  12.711  14.926
71797W        W41612  23.630  43.922  13.039
71798W        W41613   0.986  41.805  13.539
71799W        W41614  18.672  13.153  13.402
71800W        W41615   7.709  16.295  10.530
71801W        W41616  29.615  16.124  12.980
71802W        W41617  25.558  14.195  10.553
71803W        W41618   4.901  38.033   4.754
71804W        W41619  41.301   7.303  13.038
71805W        W41620  32.115  15.272   0.476
71806W        W41621  18.671  30.508   1.728
71807W        W41622   1.366  22.567   1.888
71808W        W41623  39.349  14.649   1.930
71809W        W41624   4.293  42.453  13.836
71810W        W41625   5.420  27.540   1.333
71811W        W41626  12.642  40.537  12.459
71812W        W41627   0.870  10.383   4.297
71813W        W41628  22.534  35.438  13.461
71814W        W41629  44.326   9.294   0.424
71815W        W41630  34.996  36.990   0.764
71816W        W41631   7.755   9.242   2.836
71817W        W41632  42.501   1.445   3.360
71818W        W41633  30.537   7.747  14.818
71819W        W41634  35.451   0.869  13.986
71820W        W41635   8.229   1.374   0.935
71821W        W41636   9.799  12.294   4.634
71822W        W41637   8.364  36.584  11.516
71823W        W41638  22.123  24.534   0.292
71824W        W41639  35.096   2.849   1.326
71825W        W41640  35.498  28.612   1.279
71826W        W41641   1.441  43.788   1.411
71827W        W41642  16.756  31.462   4.822
71828W        W41643  31.989  41.473   1.227
71829W        W41644   5.830  42.400   1.367
71830W        W41645  44.997  20.730  10.461
71831W        W41646  37.538  37.926   1.710
71832W        W41647  35.883  16.177   0.441
71833W        W41648  40.397   5.802  14.397
71834W        W41649  38.489  32.397  13.938
71835W        W41650  25.661  20.628   2.401
71836W        W41651  40.825  43.988  14.782
71837W        W41652   8.179   4.449   1.393
71838W        W41653  27.491   8.792   1.808
71839W        W41654  29.136  41.983   3.182
71840W        W41655   6.860   9.714   3.357
71841W        W41656   1.332  35.969  13.030
71842W        W41657  41.322  37.972  13.977
71843W        W41658  42.950  37.467  14.819
71844W        W41659  41.896  12.695  11.042
71845W        W41660  23.193  40.833  10.894
71846W        W41661  24.700  16.289   1.717
71847W        W41662  28.145  35.417   4.151
71848W        W41663  30.965  32.977   4.770
71849W        W41664  28.930  42.441  12.505
71850W        W41665  21.249   3.858  12.837
71851W        W41666  21.574  16.132  13.454
71852W        W41667  20.743   7.211  13.915
71853W        W41668  43.820  31.019  14.322
71854W        W41669  40.032   5.814   2.394
71855W        W41670  10.872  11.767   3.635
71856W        W41671  13.115  34.064   4.809
71857W        W41672   5.397  11.783   3.690
71858W        W41673  16.117  11.626  10.459
71859W        W41674  10.250  25.990   4.784
71860W        W41675  13.677  23.998  13.979
71861W        W41676  29.125  39.881   3.868
71862W        W41677   7.333  27.011   1.776
71863W        W41678   8.176  25.692  11.598
71864W        W41679  18.689   6.377  12.565
71865W        W41680  33.987  23.171  12.383
71866W        W41681  32.067  28.573   4.269
71867W        W41682  16.656  29.962  12.439
71868W        W41683  12.326   9.268   4.321
71869W        W41684  23.599  26.965  14.357
71870W        W41685  22.112  36.406   4.772
71871W        W41686   8.379  10.871   3.337
71872W        W41687  37.033  43.825  10.435
71873W        W41688  19.727   0.811  10.043
71874W        W41689   3.390  10.643  14.475
71875W        W41690  35.388  25.177  10.472
71876W        W41691  20.233  40.337   3.703
71877W        W41692  20.057  44.960   4.820
71878W        W41693   9.866  16.229  12.546
71879W        W41694  35.548   6.795   2.212
71880W        W41695  28.954   9.818   0.476
71881W        W41696  25.976  36.995   0.378
71882W        W41697  12.196  14.297   3.799
71883W        W41698   2.231  11.702   1.388
71884W        W41699  26.110  27.180  14.998
71885W        W41700  11.352   4.847  11.889
71886W        W41701   9.842  31.123   2.215
71887W        W41702  41.293  22.217  13.338
71888W        W41703   6.860  35.899  12.392
71889W        W41704  16.221  38.005  14.783
71890W        W41705  20.214  23.122  12.938
71891W        W41706  32.600  12.212  13.507
71892W        W41707  38.075  23.992   3.776
71893W        W41708  27.658   8.379   2.756
71894W        W41709  42.435  17.224  10.966
71895W        W41710  11.355  36.354   2.306
71896W        W41711  43.954  31.431  11.532
71897W        W41712  20.726  40.897  10.543
71898W        W41713  31.506  16.678   1.756
71899W        W41714  30.048  28.164   4.728
71900W        W41715  23.169  44.824  12.510
71901W        W41716  25.644  11.680   4.163
71902W        W41717  23.005  28.569   3.733
71903W        W41718  43.965  36.888   3.364
71904W        W41719  42.320  34.475  10.974
71905W        W41720  31.604   2.430   3.300
71906W        W41721  15.235   8.760  10.621
71907W        W41722  24.042  15.638  14.410
71908W        W41723   6.344   7.912   4.224
71909W        W41724  29.935  42.356   0.460
71910W        W41725   2.721  16.154  12.963
71911W        W41726  15.270  20.687   3.754
71912W        W41727  41.994  16.624   2.230
71913W        W41728   4.411  42.845   2.377
71914W        W41729  43.777  27.528  14.412
71915W        W41730  44.419  28.945  14.996
71916W        W41731   6.781   4.905  14.403
71917W        W41732  20.060  27.448  11.588
71918W        W41733  21.163  33.023  12.827
71919W        W41734  42.993  37.457  11.022
71920W        W41735  37.480  34.886  10.630
71921W        W41736  36.512  42.882  13.947
71922W        W41737  36.413  21.197  10.976
71923W        W41738   5.336  40.805  14.365
71924W        W41739  16.282   1.768  13.032
71925W        W41740  28.137  15.763   9.965
71926W        W41741  21.654  32.465  11.023
71927W        W41742  32.536  22.562  10.541
71928W        W41743  40.355  22.034   2.781
71929W        W41744  10.838  36.935  12.001
71930W        W41745  30.467  26.668  11.122
71931W        W41746   1.874  30.551   2.901
71932W        W41747  36.521  20.622  13.916
71933W        W41748  11.642  30.471   1.699
71934W        W41749  40.518  30.557  13.357
71935W        W41750  11.856  16.201  14.491
71936W        W41751  34.521  34.964   4.114
71937W        W41752  20.047  17.643  14.388
71938W        W41753  22.512  34.497   2.218
71939W        W41754  27.001  43.415   0.947
71940W        W41755  22.548  29.028   4.192
71941W        W41756  38.537  17.649  14.490
71942W        W41757  35.441   8.205  12.452
71943W        W41758   2.282  19.540  14.952
71944W        W41759  10.183  14.784   3.310
71945W        W41760  23.510  42.978  13.027
71946W        W41761  17.556   0.969   3.814
71947W        W41762  27.627  18.250   3.645
71948W        W41763   2.314  44.977   0.394
71949W        W41764  39.317  11.673   3.172
71950W        W41765  23.012  17.653   0.351
71951W        W41766  40.420  44.776   3.372
71952W        W41767  16.631  13.199  11.605
71953W        W41768   1.352  20.253  14.879
71954W        W41769  25.164   8.672   4.808
71955W        W41770  25.476   5.783   4.128
71956W        W41771   1.314   4.786  13.007
71957W        W41772  26.656  27.163   2.270
71958W        W41773  36.896  44.490   2.215
71959W        W41774  38.057  42.989  13.922
71960W        W41775  31.999   8.684   1.802
71961W        W41776  27.017   7.839  12.418
71962W        W41777  34.871  36.024  11.604
71963W        W41778  16.283  41.033  12.346
71964W        W41779  32.421  26.510   4.631
71965W        W41780  43.961  34.888   3.151
71966W        W41781  28.501  32.409  11.126
71967W        W41782   4.913  35.565   0.417
71968W        W41783  43.956  18.236  13.436
71969W        W41784  30.635  41.477   0.770
71970W        W41785  42.328  30.066  13.927
71971W        W41786   9.788  33.615  14.289
71972W        W41787  14.329  25.215  10.139
71973W        W41788  25.574  32.623   2.352
71974W        W41789  33.899  19.060   4.288
71975W        W41790  32.033   9.871  10.948
71976W        W41791  42.515  21.633   2.746
71977W        W41792  35.396  24.033  12.374
71978W        W41793  24.072  10.270   4.122
71979W        W41794  21.527  29.589  12.356
71980W        W41795  16.090  36.096   3.188
71981W        W41796  17.569  44.393  13.393
71982W        W41797  15.709  17.165  14.879
71983W        W41798  43.322  21.245  12.388
71984W        W41799  20.718  23.087  11.378
71985W        W41800  44.944  10.653   2.390
71986W        W41801  28.113  28.443  12.013
71987W        W41802  36.972  20.243  11.502
71988W        W41803  10.204   6.702  11.875
71989W        W41804  22.013  30.471   2.871
71990W        W41805  33.100  33.575  10.538
71991W        W41806  40.304   6.254  11.932
71992W        W41807  13.253  11.154   3.149
71993W        W41808  37.362  41.815  12.920
71994W        W41809  43.868  33.439   1.777
71995W        W41810  34.944   2.762  11.544
71996W        W41811   8.403  44.438   2.313
71997W        W41812  12.245  14.828  10.932
71998W        W41813  23.153  18.219   4.211
71999W        W41814   1.802  30.003   4.278
72000W        W41815   3.753  21.246   1.878
72001W        W41816  20.158  18.085   2.803
72002W        W41817  29.104  35.855   1.908
72003W        W41818   4.747  23.183   4.198
72004W        W41819  31.607   1.845  10.638
72005W        W41820  21.555  19.603  14.994
72006W        W41821  22.118   2.881  11.001
72007W        W41822  38.400  15.795  11.427
72008W        W41823  15.772  41.425  11.572
72009W        W41824  30.130  27.684   3.242
72010W        W41825  10.665   9.171  14.898
72011W        W41826  17.192   4.787   2.804
72012W        W41827  35.097  34.951   2.393
72013W        W41828   1.862  22.718   3.787
72014W        W41829  25.485   7.834   3.825
72015W        W41830  23.643  20.539  13.893
72016W        W41831   5.741  14.330   0.453
72017W        W41832  32.431  24.697   4.355
72018W        W41833  29.457   1.392  12.044
72019W        W41834  42.920  27.072  11.413
72020W        W41835  33.070  28.479  13.965
72021W        W41836  17.583  31.488   4.265
72022W        W41837  14.706   7.250  11.439
72023W        W41838  37.016   2.406  11.490
72024W        W41839   9.854  38.534  10.414
72025W        W41840  24.693  26.531   2.701
72026W        W41841  42.011  19.548   0.812
72027W        W41842  10.748  26.660  11.959
72028W        W41843  21.561  29.509  13.440
72029W        W41844  29.132  27.500   2.853
72030W        W41845  27.163  15.784  11.397
72031W        W41846  20.263  30.491  12.476
72032W        W41847  20.642  44.965  12.070
72033W        W41848  12.193  34.033  13.415
72034W        W41849   7.307  11.652  14.515
72035W        W41850  10.355  35.596  11.013
72036W        W41851  19.664   8.763  13.005
72037W        W41852  31.012  22.157  12.065
72038W        W41853  11.679  37.961   2.365
72039W        W41854   4.240  43.282  13.426
72040W        W41855  15.289   0.977  14.009
72041W        W41856  20.539  39.061  13.837
72042W        W41857  42.507  44.767  11.438
72043W        W41858   2.918  39.064  13.064
72044W        W41859  28.509  38.883  10.454
72045W        W41860  32.129   0.468   2.227
72046W        W41861   9.799  30.057   2.807
72047W        W41862  24.537  28.668   3.213
72048W        W41863  24.161  31.149   3.263
72049W        W41864  43.460  35.895  12.445
72050W        W41865  40.392  28.989   1.396
72051W        W41866  27.040  37.984   2.763
72052W        W41867  19.610  16.739   1.749
72053W        W41868  29.166   3.300  12.890
72054W        W41869  31.596  42.892   4.306
72055W        W41870  23.087   4.831   0.314
72056W        W41871  23.226  12.801   0.317
72057W        W41872  42.527   6.187  10.569
72058W        W41873  22.089  25.628   0.332
72059W        W41874   4.370  18.548   3.368
72060W        W41875  43.773  36.036  11.047
72061W        W41876  35.039  31.910   4.772
72062W        W41877   9.780  15.123  14.927
72063W        W41878  12.755   1.915   4.223
72064W        W41879  35.973  30.501   3.280
72065W        W41880  23.681  26.610   0.938
72066W        W41881   4.806  13.318  11.598
72067W        W41882  16.157  17.738   2.319
72068W        W41883  40.935   5.824  14.421
72069W        W41884   8.843  28.937  12.891
72070W        W41885  21.557  22.040   1.396
72071W        W41886   7.319  39.477   5.738
72072W        W41887  43.883  18.160   3.221
72073W        W41888  27.689  19.705   3.291
72074W        W41889   4.842  43.318   2.286
72075W        W41890  13.297  36.451   1.883
72076W        W41891  31.062  34.507  13.808
72077W        W41892  14.715  32.554   0.473
72078W        W41893  30.629   9.335   2.889
72079W        W41894  28.124  44.843  12.510
72080W        W41895  12.829  33.430   1.248
72081W        W41896  13.256  10.227  10.633
72082W        W41897   5.320   4.405   3.325
72083W        W41898  18.083  21.691   3.150
72084W        W41899  33.009  24.095  13.390
72085W        W41900  13.747   9.848   2.386
72086W        W41901  27.049  43.880   3.157
72087W        W41902  35.957  22.099   2.848
72088W        W41903  41.943  21.734  11.985
72089W        W41904   8.268  28.547  12.366
72090W        W41905  35.109  27.946  11.985
72091W        W41906   7.720  44.482   4.761
72092W        W41907  41.792  14.250   4.708
72093W        W41908  11.234   1.437  10.987
72094W        W41909   5.758  24.515   1.842
72095W        W41910  37.910  20.740  10.508
72096W        W41911  41.482  21.040   0.477
72097W        W41912  41.297  10.632   1.884
72098W        W41913  41.525  42.380  12.038
72099W        W41914  21.189   9.661  11.007
72100W        W41915   2.415  25.215  10.464
72101W        W41916  22.690   6.690   3.857
72102W        W41917  35.402  32.393  11.534
72103W        W41918  33.495  36.382   3.720
72104W        W41919  32.489  25.103   2.227
72105W        W41920  41.987  29.526  13.035
72106W        W41921  37.065  31.578   5.216
72107W        W41922  12.336  21.124  12.442
72108W        W41923  21.133  43.480  11.981
72109W        W41924  17.090  43.424   1.903
72110W        W41925   2.320  38.492   1.791
72111W        W41926  42.338  16.712  13.538
72112W        W41927   7.383  24.089  13.457
72113W        W41928  24.034  30.000  11.589
72114W        W41929  12.815  39.483  11.987
72115W        W41930  24.072  36.063   4.168
72116W        W41931   1.356  27.637  12.871
72117W        W41932  15.255   7.772   2.200
72118W        W41933   7.906   5.306   4.720
72119W        W41934  25.073  27.132  13.058
72120W        W41935   0.327  27.607  11.515
72121W        W41936   1.856  14.129   1.750
72122W        W41937  31.595  34.487   3.816
72123W        W41938  24.226  39.973  11.117
72124W        W41939  12.679  19.193  10.464
72125W        W41940  41.374  20.096  12.823
72126W        W41941  26.952  31.617  12.059
72127W        W41942  12.730   6.331   0.372
72128W        W41943   8.292   5.800   4.767
72129W        W41944  38.887   3.860  13.465
72130W        W41945  12.328   1.463  14.855
72131W        W41946  31.033  29.473  11.577
72132W        W41947  34.392  43.997   0.934
72133W        W41948  36.424  20.585   3.836
72134W        W41949  26.184  21.049   4.766
72135W        W41950  28.656   6.403   0.822
72136W        W41951   2.930  42.331  14.316
72137W        W41952   2.419  28.932   2.871
72138W        W41953  10.818  13.836  13.489
72139W        W41954  37.941  20.082  10.572
72140W        W41955  29.161  41.326  11.866
72141W        W41956   8.754   3.920   3.303
72142W        W41957   1.400  43.997   0.399
72143W        W41958  32.135  17.104  14.484
72144W        W41959   4.371  17.143   2.185
72145W        W41960  44.436  10.811   4.629
72146W        W41961   1.253   5.696  11.088
72147W        W41962  38.028   2.943   3.280
72148W        W41963  22.725   0.408   5.587
72149W        W41964  42.822   5.256   0.778
72150W        W41965  20.086  43.286   3.731
72151W        W41966  22.528  13.283  10.947
72152W        W41967  33.091  27.478   3.795
72153W        W41968   5.215  41.417  10.579
72154W        W41969  33.553   7.340   4.606
72155W        W41970  38.855  35.885  12.519
72156W        W41971  28.461  36.972  13.908
72157W        W41972   3.737   6.823   2.331
72158W        W41973  27.123  32.891   1.921
72159W        W41974  35.087  39.819  14.864
72160W        W41975   4.728  39.409   4.279
72161W        W41976  35.014  17.721  13.453
72162W        W41977  26.675  40.982  13.536
72163W        W41978   8.375  25.581   2.829
72164W        W41979  17.254  32.564   4.302
72165W        W41980  21.119  17.793   0.430
72166W        W41981  12.357   8.184   0.761
72167W        W41982  32.985   7.824   1.853
72168W        W41983   8.658  32.983   4.272
72169W        W41984  16.105  12.706   2.851
72170W        W41985  24.159  24.536  14.853
72171W        W41986  28.153   6.235   1.320
72172W        W41987  29.615  25.643  11.465
72173W        W41988  11.174  10.683   3.352
72174W        W41989  21.517  23.150   3.188
72175W        W41990  31.131  11.741   0.800
72176W        W41991  38.410  36.538  10.943
72177W        W41992  38.360  30.011   2.680
72178W        W41993  39.326  13.226  11.606
72179W        W41994  26.605   9.267  11.408
72180W        W41995  22.622  19.097   4.778
72181W        W41996  35.439  42.873   0.755
72182W        W41997  21.229  28.131   0.479
72183W        W41998  35.883  29.108  11.081
72184W        W41999   3.367  32.435   4.821
72185W        W42000  10.851  38.861   1.826
72186W        W42001  19.257  14.593   0.317
72187W        W42002  19.624   3.216   4.173
72188W        W42003  42.439  19.272  10.535
72189W        W42004  37.534  22.664  10.960
72190W        W42005  42.385  23.120   2.795
72191W        W42006  14.784  28.969   4.158
72192W        W42007  21.649  43.282   4.696
72193W        W42008  11.218  14.224   1.271
72194W        W42009  24.700  20.751  10.432
72195W        W42010  31.550  22.090  12.574
72196W        W42011  24.699  16.084  13.347
72197W        W42012  37.458   8.825   2.413
72198W        W42013   2.940  15.756  10.585
72199W        W42014  41.906  26.183  14.381
72200W        W42015   3.351  26.101   1.354
72201W        W42016  41.981  20.094  11.551
72202W        W42017  25.165  14.105   4.254
72203W        W42018  23.031  13.643  12.561
72204W        W42019  15.754  15.275   2.206
72205W        W42020  32.464  37.341   4.114
72206W        W42021  27.686  16.093   2.842
72207W        W42022  14.642  32.928   1.712
72208W        W42023  31.516  15.692   1.784
72209W        W42024  23.626  32.902   1.311
72210W        W42025  25.593  23.242  14.825
72211W        W42026  12.661  19.592  10.548
72212W        W42027  31.967  18.108   1.901
72213W        W42028  23.217  28.570  10.990
72214W        W42029  10.736  24.537  14.760
72215W        W42030  35.362  10.870  12.924
72216W        W42031   6.184  27.119   1.888
72217W        W42032   5.890  35.410   0.946
72218W        W42033  26.626  35.070  13.945
72219W        W42034   1.894   6.331  12.875
72220W        W42035   5.819   8.836   1.742
72221W        W42036  15.666  27.493  14.860
72222W        W42037  43.820  24.192   2.802
72223W        W42038  42.369  18.719   1.406
72224W        W42039  11.623  30.566  14.018
72225W        W42040  40.844  19.111   0.434
72226W        W42041  44.953  10.245  14.996
72227W        W42042  37.413  35.962   4.826
72228W        W42043   0.309   2.838  11.108
72229W        W42044  41.937  17.302   4.736
72230W        W42045  13.614   6.770  12.345
72231W        W42046  18.636  14.678  12.940
72232W        W42047  16.099  34.077   1.408
72233W        W42048  26.510  21.032   3.327
72234W        W42049  12.680   6.692  14.909
72235W        W42050  27.535  36.590  13.375
72236W        W42051   0.414   0.434   0.794
72237W        W42052  25.625  39.910   9.587
72238W        W42053  22.096   5.332  12.423
72239W        W42054  40.431   3.764  11.551
72240W        W42055  39.022   0.256   3.835
72241W        W42056  17.711  32.518   0.473
72242W        W42057   1.444  35.079   0.886
72243W        W42058   7.836  11.188  14.284
72244W        W42059  30.491   1.871  10.503
72245W        W42060  28.670  12.179   0.280
72246W        W42061  39.029  40.045   0.409
72247W        W42062  20.081  20.687   0.746
72248W        W42063  33.125  20.088   3.383
72249W        W42064  38.851  12.705   1.724
72250W        W42065  40.923  21.591   0.308
72251W        W42066  29.452  40.014   1.223
72252W        W42067  41.434  40.809   2.743
72253W        W42068  12.734  34.079   4.282
72254W        W42069  28.679  17.575  13.542
72255W        W42070   9.163   9.764  11.398
72256W        W42071  43.483  39.382  13.935
72257W        W42072   6.848  26.503  13.033
72258W        W42073  12.149  25.155  14.991
72259W        W42074  14.621  12.619  10.932
72260W        W42075  38.504  21.019  10.412
72261W        W42076  32.616   6.379  12.869
72262W        W42077   5.421  35.912  14.442
72263W        W42078  43.464  19.584  10.446
72264W        W42079  32.036   2.312  11.584
72265W        W42080  11.304   7.886  11.411
72266W        W42081   1.441   5.876  11.452
72267W        W42082  24.104  42.419  11.118
72268W        W42083  39.365  11.160   0.933
72269W        W42084  21.091  13.781  13.499
72270W        W42085  11.784  10.699   0.254
72271W        W42086  27.488  36.434  11.558
72272W        W42087  14.276   0.352   4.623
72273W        W42088  36.867   9.874  12.045
72274W        W42089  43.905  31.576  11.064
72275W        W42090  33.892  19.274   3.729
72276W        W42091  26.697   2.462  12.063
72277W        W42092  19.605  40.046   2.272
72278W        W42093  23.608  38.359   9.515
72279W        W42094  27.966  36.373  10.531
72280W        W42095   3.332  10.788  13.445
72281W        W42096   9.756  22.548   0.781
72282W        W42097  42.389  43.974   3.353
72283W        W42098   4.916  41.020   0.923
72284W        W42099   0.863  19.584  11.545
72285W        W42100   9.702  37.542  13.926
72286W        W42101  44.438   8.196  13.538
72287W        W42102  38.009  29.565   4.299
72288W        W42103   9.660  40.870  14.893
72289W        W42104  30.144   8.354   3.160
72290W        W42105  20.572  39.348   1.363
72291W        W42106  41.962  39.329  12.890
72292W        W42107  11.661  39.516   3.267
72293W        W42108  44.452  22.170   5.262
72294W        W42109  20.744  21.573  12.039
72295W        W42110   5.825  12.753  11.605
72296W        W42111  29.438  11.362  13.402
72297W        W42112  28.080  39.994   3.820
72298W        W42113  34.466  19.546   2.383
72299W        W42114   8.346  29.511   4.835
72300W        W42115   6.724  30.077  11.990
72301W        W42116  12.723  11.638   4.248
72302W        W42117  28.960  25.056   1.326
72303W        W42118  11.285  19.752   1.442
72304W        W42119   6.216   1.956   2.215
72305W        W42120  10.734  16.582  11.516
72306W        W42121  28.013  24.984   3.186
72307W        W42122  12.124  17.594  13.411
72308W        W42123   9.160  14.236   3.688
72309W        W42124  17.117  25.642   4.288
72310W        W42125  24.111   5.202  12.073
72311W        W42126  30.426  28.519  14.823
72312W        W42127   5.323   0.443   1.762
72313W        W42128  15.784  41.401   4.776
72314W        W42129   2.232  44.790  13.519
72315W        W42130  40.840  40.487  14.345
72316W        W42131  30.956  35.886   1.865
72317W        W42132   2.324  36.563   3.870
72318W        W42133  11.163   7.742   2.388
72319W        W42134  29.992   4.892  13.462
72320W        W42135   1.479  35.081   0.283
72321W        W42136  16.188  41.305  12.474
72322W        W42137  11.830   7.802  12.010
72323W        W42138   8.790   0.392  12.495
72324W        W42139  33.042   6.256   1.276
72325W        W42140  33.083  22.162  14.901
72326W        W42141  13.822   1.432   0.929
72327W        W42142  35.965   8.736   0.380
72328W        W42143  10.306  30.932   1.934
72329W        W42144  12.825  28.057   1.865
72330W        W42145   8.801  25.963  10.639
72331W        W42146   6.384  29.937   3.366
72332W        W42147  34.998   0.890   3.750
72333W        W42148  19.246  41.996   3.847
72334W        W42149  28.095   8.187  14.782
72335W        W42150  18.545  42.380  10.509
72336W        W42151  22.716  29.128  13.444
72337W        W42152  29.469  18.122  10.546
72338W        W42153  26.609  28.465   1.887
72339W        W42154   3.940  24.657   3.758
72340W        W42155  33.421  36.934  13.915
72341W        W42156   1.824   7.252   1.929
72342W        W42157  25.678   7.279   3.382
72343W        W42158  29.526   2.745   4.829
72344W        W42159  22.120  44.939  10.574
72345W        W42160  25.985  13.840   2.340
72346W        W42161  27.460  40.865  12.081
72347W        W42162  26.505  12.765   3.661
72348W        W42163   3.884  33.512   4.143
72349W        W42164  41.005  12.361  12.935
72350W        W42165  36.023  10.247   4.200
72351W        W42166  18.165  32.049   0.305
72352W        W42167  16.591  12.312  11.558
72353W        W42168  38.385  34.544   0.843
72354W        W42169   9.278  36.961   2.711
72355W        W42170  22.588   1.903  11.528
72356W        W42171  12.847  39.333   1.309
72357W        W42172  34.375  13.725  12.550
72358W        W42173  39.437  35.983  13.377
72359W        W42174  31.917   4.891   5.158
72360W        W42175  30.930  17.210   3.167
72361W        W42176  35.554  37.064   0.765
72362W        W42177  26.513   3.235  14.964
72363W        W42178   8.780  35.485   1.908
72364W        W42179   6.310  29.436  14.313
72365W        W42180  14.193  21.665  11.521
72366W        W42181  44.875   5.438  12.933
72367W        W42182  10.705  44.260  11.989
72368W        W42183  15.291  23.229  12.876
72369W        W42184  41.996  22.717  13.348
72370W        W42185  32.508   7.409   0.248
72371W        W42186   0.904  21.702   2.253
72372W        W42187   1.475   2.802   1.421
72373W        W42188  15.191  27.082   2.291
72374W        W42189   5.715  44.406   4.310
72375W        W42190  40.437  28.097   4.801
72376W        W42191  39.445  32.083   2.235
72377W        W42192  14.225   2.793  14.837
72378W        W42193   7.745  42.833   3.679
72379W        W42194  25.013  27.062  12.465
72380W        W42195  39.844   0.791  13.992
72381W        W42196   2.394  11.739   0.484
72382W        W42197   5.354  18.188  13.372
72383W        W42198  16.651  10.188  14.459
72384W        W42199  27.509  36.565   1.739
72385W        W42200  24.997  26.666  10.936
72386W        W42201  38.911  18.707  14.925
72387W        W42202  14.213  26.538   5.214
72388W        W42203  38.505   1.467   5.199
72389W        W42204  26.053  35.964  13.854
72390W        W42205  16.190   1.423  13.353
72391W        W42206   1.923  34.906  11.078
72392W        W42207  17.215   3.441   5.106
72393W        W42208  32.025  30.436   3.270
72394W        W42209  19.275  17.595  11.856
72395W        W42210  30.955  44.427   0.871
72396W        W42211  22.226  22.241  13.894
72397W        W42212   3.917  14.762  11.059
72398W        W42213  32.555  20.157   4.726
72399W        W42214  40.945   9.208   1.409
72400W        W42215  25.008   8.183   3.160
72401W        W42216  30.516  42.893  11.460
72402W        W42217   6.379  23.073   4.773
72403W        W42218   9.384  27.645   1.816
72404W        W42219  40.542  31.995  14.998
72405W        W42220  13.706  38.840  10.443
72406W        W42221  43.435  24.134  11.396
72407W        W42222  15.190  30.015  11.973
72408W        W42223  44.954  31.042   0.840
72409W        W42224  25.093  24.479   3.745
72410W        W42225  12.707  38.056  13.308
72411W        W42226  25.049  27.636  13.425
72412W        W42227   7.688  29.600  11.033
72413W        W42228  27.511  17.667  12.895
72414W        W42229  43.807  15.252  11.035
72415W        W42230  24.541   8.818   4.182
72416W        W42231  40.422  35.581   0.298
72417W        W42232  31.910  22.129   2.348
72418W        W42233  44.461  20.259  11.005
72419W        W42234  44.996  27.021  12.399
72420W        W42235  31.488  16.798   0.334
72421W        W42236   2.937  11.731   0.775
72422W        W42237  38.515   9.788   3.236
72423W        W42238  26.177  11.318   2.831
72424W        W42239  35.046  11.134   1.851
72425W        W42240  27.067  17.743   3.713
72426W        W42241   8.828  21.138  14.983
72427W        W42242  29.052  18.611  14.465
72428W        W42243  24.226   6.273   0.390
72429W        W42244  12.624  17.131   3.180
72430W        W42245  23.197  22.208   0.872
72431W        W42246  16.080  34.460   3.178
72432W        W42247  33.042  43.379  11.552
72433W        W42248  44.463  32.907  11.906
72434W        W42249  15.616  35.444   2.235
72435W        W42250  24.585  21.593   3.710
72436W        W42251  41.901  34.464  11.423
72437W        W42252   9.394   5.695  12.919
72438W        W42253  34.097  32.961   1.903
72439W        W42254  14.130  39.030  10.606
72440W        W42255  19.248  31.958  14.442
72441W        W42256  26.585  16.309  14.788
72442W        W42257  33.528  25.126  11.590
72443W        W42258  39.425  21.520   4.648
72444W        W42259  32.967  28.952  13.316
72445W        W42260   6.682  27.032  10.611
72446W        W42261  44.807  32.981   0.817
72447W        W42262  40.027  10.211   1.412
72448W        W42263  24.088   7.886  14.893
72449W        W42264   6.809  13.169   3.322
72450W        W42265  19.678  35.983  12.009
72451W        W42266  11.294  23.176  13.989
72452W        W42267  29.141  26.520   4.282
72453W        W42268  27.951  29.581  14.796
72454W        W42269  27.962  16.714   3.310
72455W        W42270  29.161  12.643   2.194
72456W        W42271  22.201  38.425   0.938
72457W        W42272  28.436  34.879  13.003
72458W        W42273  38.340  10.653   1.231
72459W        W42274  11.166   9.305  14.322
72460W        W42275  25.566  41.313  11.546
72461W        W42276   8.694  41.494  13.517
72462W        W42277  42.946  18.159   3.320
72463W        W42278  42.913  35.521  14.290
72464W        W42279  23.661  35.385  12.459
72465W        W42280  25.043  41.449  11.468
72466W        W42281   6.778  14.765  11.079
72467W        W42282  39.048  31.535  10.961
72468W        W42283  36.406  33.933   3.198
72469W        W42284  38.870   9.311   3.819
72470W        W42285  25.150  35.484  13.036
72471W        W42286  40.988  14.826   5.160
72472W        W42287  17.246  21.220  12.990
72473W        W42288   2.275  41.416  14.443
72474W        W42289   6.348  16.670   4.287
72475W        W42290  32.031   9.298   2.798
72476W        W42291  12.319  35.501  13.053
72477W        W42292  37.033  41.303   1.256
72478W        W42293  41.915  35.526  14.846
72479W        W42294  34.572   1.816  12.079
72480W        W42295   7.264  15.133   2.688
72481W        W42296  24.718  10.660  11.009
72482W        W42297  25.700  24.038   1.771
72483W        W42298  40.476   6.756   1.279
72484W        W42299  35.010  20.697   4.222
72485W        W42300  42.425  39.358  10.926
72486W        W42301  33.961  40.834   0.298
72487W        W42302   7.216  29.974  13.410
72488W        W42303  28.936  21.666  14.952
72489W        W42304  14.786  41.865   4.332
72490W        W42305  33.443  35.538   1.284
72491W        W42306  22.157  34.506  13.382
72492W        W42307  37.460  23.136  11.607
72493W        W42308   1.463  12.695   3.649
72494W        W42309   2.337  41.979  11.111
72495W        W42310  42.344   6.223   0.939
72496W        W42311  34.468  28.969  10.931
72497W        W42312  11.150  32.065  13.820
72498W        W42313  12.354   3.279   1.794
72499W        W42314  44.987  12.762   0.746
72500W        W42315  24.638  40.395  13.449
72501W        W42316   0.391  39.417   1.813
72502W        W42317  38.417  10.784  14.000
72503W        W42318  41.889  20.234  10.974
72504W        W42319  25.066  14.773  12.892
72505W        W42320  34.868   8.388   1.221
72506W        W42321  29.031  40.950  10.917
72507W        W42322   8.292  32.120  14.463
72508W        W42323   5.273  41.492  12.948
72509W        W42324   8.839   2.721  11.459
72510W        W42325   1.381   7.750   4.310
72511W        W42326  33.952   7.324  14.923
72512W        W42327  31.573  42.006  12.036
72513W        W42328  24.562  20.110   3.690
72514W        W42329  39.867  15.582  14.905
72515W        W42330  44.887  23.028   4.647
72516W        W42331  28.680  37.469  13.548
72517W        W42332  38.373   1.963  13.522
72518W        W42333  28.043  44.375  12.545
72519W        W42334  41.430   3.830   0.438
72520W        W42335  30.055  31.626  11.079
72521W        W42336  25.493  18.660  14.332
72522W        W42337   5.216  43.873   3.713
72523W        W42338   8.844  21.204   2.683
72524W        W42339  24.150  13.290   4.325
72525W        W42340  40.050  13.229  14.279
72526W        W42341  15.764  41.320  12.564
72527W        W42342  39.368  40.307  10.127
72528W        W42343  15.297   2.430  14.381
72529W        W42344  35.997  34.607   2.874
72530W        W42345   1.353   4.338   1.288
72531W        W42346  14.096  44.325  13.912
72532W        W42347  30.939  42.383   4.744
72533W        W42348   8.822  17.078  11.534
72534W        W42349  13.745  14.669   2.772
72535W        W42350  24.481  39.337  12.932
72536W        W42351  16.623  16.132   2.800
72537W        W42352  15.113   4.786  12.890
72538W        W42353  25.033  38.494  10.612
72539W        W42354  39.340  21.523  14.309
72540W        W42355  39.963   9.790  12.579
72541W        W42356  25.561  34.434  11.921
72542W        W42357  43.345  23.131  14.491
72543W        W42358  18.128   0.476  14.851
72544W        W42359  44.801  10.256   4.732
72545W        W42360  26.076   0.974  11.080
72546W        W42361  27.006  23.183  10.418
72547W        W42362   9.731  40.978  14.319
72548W        W42363  24.226   3.221   5.204
72549W        W42364  26.108  29.162  12.474
72550W        W42365  30.968  12.837  11.494
72551W        W42366  10.142  37.034  14.878
72552W        W42367  26.564   6.266  12.546
72553W        W42368  28.940   3.288   4.343
72554W        W42369   8.867  29.620  11.038
72555W        W42370  27.033  14.294   3.820
72556W        W42371  22.599  23.570  10.498
72557W        W42372  20.099   4.385  11.380
72558W        W42373  40.323  41.373   1.326
72559W        W42374  10.300  19.591  11.481
72560W        W42375  35.012   1.437   0.426
72561W        W42376  38.570  18.743  14.783
72562W        W42377  30.483  40.382   0.339
72563W        W42378  40.947  13.615   3.378
72564W        W42379  12.675  35.046   2.212
72565W        W42380   5.238   7.887   0.887
72566W        W42381  17.179   3.803   4.156
72567W        W42382  38.947  39.984  10.027
72568W        W42383  12.130  41.828   3.195
72569W        W42384  40.808  12.758  12.531
72570W        W42385  31.151  41.858  11.115
72571W        W42386   7.728  24.098   4.119
72572W        W42387  28.009   8.354   1.272
72573W        W42388  27.017  37.376  10.990
72574W        W42389  18.715  28.072  12.931
72575W        W42390  18.684  12.738  10.893
72576W        W42391  44.886  16.627   3.731
72577W        W42392  27.133  41.424  14.335
72578W        W42393  41.409  32.544   0.958
72579W        W42394  32.476  39.961   4.303
72580W        W42395  15.704   9.745   2.783
72581W        W42396  34.594  10.765   3.747
72582W        W42397  32.931   4.411  12.414
72583W        W42398   4.401  32.124  10.954
72584W        W42399   4.891  20.651  12.506
72585W        W42400  40.983  35.435   1.390
72586W        W42401  15.121  31.437  11.562
72587W        W42402  28.518  38.375  11.874
72588W        W42403   5.356  34.591   4.167
72589W        W42404  34.488  41.827  11.096
72590W        W42405   9.782   7.175   4.121
72591W        W42406  35.460  19.260   4.727
72592W        W42407   3.948  26.497   0.827
72593W        W42408   5.406  35.987  13.859
72594W        W42409  23.997  22.184   2.835
72595W        W42410  13.219  31.440  11.502
72596W        W42411  21.034  34.968   2.302
72597W        W42412   2.919  16.766  11.091
72598W        W42413  38.547  39.043  14.516
72599W        W42414  19.150  37.488   3.729
72600W        W42415  44.756  37.896  13.533
72601W        W42416   0.819  14.781   2.756
72602W        W42417  40.409  20.190   3.253
72603W        W42418  43.408  37.463  12.915
72604W        W42419   4.829  11.740   4.182
72605W        W42420  32.989  10.296   4.636
72606W        W42421  23.015  36.029  13.376
72607W        W42422   0.311  25.517  14.487
72608W        W42423  44.274  28.055   5.103
72609W        W42424  35.439  41.821   3.258
72610W        W42425  41.302  40.863  10.963
72611W        W42426  27.057  36.488  12.480
72612W        W42427  14.782  34.508   1.838
72613W        W42428  24.544  20.764  11.528
72614W        W42429  14.716  18.184   0.403
72615W        W42430  34.864  16.089  10.529
72616W        W42431  33.617  14.095   0.263
72617W        W42432  39.506  19.198   3.156
72618W        W42433   3.808  11.267   4.746
72619W        W42434  33.082  23.130  12.837
72620W        W42435  44.292   2.855  14.301
72621W        W42436  18.636   6.684   1.760
72622W        W42437  31.939   2.934  11.939
72623W        W42438  25.547  38.413  12.484
72624W        W42439  28.656  44.349   3.817
72625W        W42440  10.758  14.593  10.632
72626W        W42441  35.500   7.417   4.773
72627W        W42442   3.387  41.017  14.997
72628W        W42443  23.535   2.862   2.670
72629W        W42444  20.602  24.019  11.535
72630W        W42445  21.643  36.468  12.934
72631W        W42446  38.936  43.413   1.818
72632W        W42447  28.534  28.623  12.896
72633W        W42448   4.351   2.865   2.694
72634W        W42449  38.837  40.443  11.583
72635W        W42450  18.118   7.346   3.340
72636W        W42451  27.479  44.295   0.733
72637W        W42452  31.511  34.503   3.282
72638W        W42453  22.593  30.954  10.901
72639W        W42454  28.474  39.056  14.021
72640W        W42455  29.147  44.271   2.324
72641W        W42456  17.278  32.999   0.950
72642W        W42457  19.691  42.028   3.207
72643W        W42458  36.996  10.862  12.078
72644W        W42459  10.737   7.260   3.668
72645W        W42460  41.484  19.613  11.096
72646W        W42461  22.515  19.229   4.176
72647W        W42462   9.878  27.173   2.396
72648W        W42463  42.972  23.116  12.879
72649W        W42464  37.015  28.482   1.860
72650W        W42465  12.197  15.099   3.724
72651W        W42466   8.200  33.533  13.925
72652W        W42467  24.561  36.503   4.251
72653W        W42468  18.147  30.941  14.456
72654W        W42469  35.424  12.288   1.903
72655W        W42470   3.425  26.079   3.692
72656W        W42471  38.063   6.266   3.804
72657W        W42472  27.507  35.083   3.813
72658W        W42473  34.586  11.295  11.083
72659W        W42474   9.729  10.840   2.329
72660W        W42475  43.345  32.072   3.294
72661W        W42476   9.163   2.423  11.890
72662W        W42477  35.074  25.628   1.928
72663W        W42478  24.987  17.161   1.339
72664W        W42479  19.273  40.996   3.749
72665W        W42480  43.825  29.961  13.815
72666W        W42481  23.612  27.039  13.826
72667W        W42482  27.683  37.993   1.364
72668W        W42483  15.706  43.334  13.047
72669W        W42484  11.859  44.319  11.374
72670W        W42485   4.769   1.871  14.807
72671W        W42486  14.296  10.263   5.166
72672W        W42487  37.908  29.015  14.920
72673W        W42488  26.555   8.695  10.533
72674W        W42489  15.168  33.956  13.513
72675W        W42490  18.271   5.439   3.823
72676W        W42491  27.511  15.672  10.891
72677W        W42492  14.641  19.245  10.565
72678W        W42493  31.632  24.616   3.150
72679W        W42494   3.329   8.847   3.277
72680W        W42495  32.460  27.479   0.864
72681W        W42496  15.149  10.160   0.286
72682W        W42497  11.315  43.825   3.824
72683W        W42498  10.796  21.196   4.668
72684W        W42499  11.240   3.311   2.293
72685W        W42500   1.978  29.969   2.694
72686W        W42501  10.279  39.970   3.277
72687W        W42502   3.890   1.316  12.046
72688W        W42503  29.515  12.770   4.755
72689W        W42504  18.136  10.827   3.192
72690W        W42505  43.463   6.903   1.210
72691W        W42506  20.537   4.326   1.706
72692W        W42507  38.435   2.746  10.570
72693W        W42508  43.949  15.327   1.385
72694W        W42509  18.772   2.275  11.086
72695W        W42510  17.087  43.016  14.917
72696W        W42511  17.206   5.703  12.490
72697W        W42512  22.151  35.589   1.845
72698W        W42513  37.481  17.222  11.896
72699W        W42514  12.309  43.359  14.487
72700W        W42515   8.328  42.891   1.916
72701W        W42516  34.468   9.884   0.310
72702W        W42517   0.934   2.966   3.337
72703W        W42518  17.733  42.960   4.766
72704W        W42519  22.560  14.618  12.382
72705W        W42520  39.024  44.899  10.987
72706W        W42521  11.637  10.327  11.068
72707W        W42522  15.809   4.807   2.320
72708W        W42523  25.083  38.374  12.894
72709W        W42524  17.127   9.747  10.545
72710W        W42525  41.506  39.406   3.660
72711W        W42526  44.479  12.662   0.391
72712W        W42527  15.085  23.669  10.527
72713W        W42528  29.986  33.919   0.338
72714W        W42529  30.582   2.322  10.522
72715W        W42530  28.563  11.288  14.783
72716W        W42531  11.153   5.855  14.357
72717W        W42532  21.026  36.507   0.306
72718W        W42533   4.781  39.413   1.259
72719W        W42534  44.325  39.028  14.360
72720W        W42535  15.679   4.341  11.593
72721W        W42536  16.609  15.722   3.738
72722W        W42537  21.251  28.588   0.475
72723W        W42538   0.812  14.757  10.590
72724W        W42539  15.292  15.798   3.637
72725W        W42540   7.409  37.546   1.220
72726W        W42541   7.797   8.213  11.947
72727W        W42542  44.501  28.621   4.346
72728W        W42543  20.245  42.031  14.831
72729W        W42544  15.769  26.963   3.667
72730W        W42545  43.948   2.849  12.930
72731W        W42546  31.111  14.273   3.829
72732W        W42547  34.892  36.382  13.394
72733W        W42548  11.176  34.946   2.781
72734W        W42549  41.807  29.960   0.291
72735W        W42550  27.019  25.058   5.134
72736W        W42551  26.040   5.916   2.664
72737W        W42552  28.455  21.166   2.241
72738W        W42553  37.955  43.354  13.307
72739W        W42554  30.022   8.754   4.749
72740W        W42555  20.039  26.703  14.990
72741W        W42556  20.631  44.002   2.326
72742W        W42557  32.018   6.905   3.176
72743W        W42558  18.707   0.304  12.487
72744W        W42559  20.270  12.162   1.839
72745W        W42560   1.734   6.369  11.096
72746W        W42561  38.941  23.561  14.954
72747W        W42562  31.942   2.904  10.501
72748W        W42563  42.337  18.249   0.479
72749W        W42564  35.006  14.276   3.732
72750W        W42565  32.534  36.398  12.007
72751W        W42566  22.609  16.273  11.914
72752W        W42567  28.046  20.616  12.469
72753W        W42568  20.558  15.086  13.968
72754W        W42569  42.858   2.343  12.488
72755W        W42570  39.809  36.066   3.634
72756W        W42571  31.151  27.992   4.609
72757W        W42572  32.886  34.434   2.680
72758W        W42573  40.847  22.692   4.330
72759W        W42574  37.579  16.663  10.485
72760W        W42575   6.364  23.604   3.836
72761W        W42576  21.568  20.108  13.029
72762W        W42577   9.382  22.506  12.932
72763W        W42578   7.842  32.503   2.699
72764W        W42579  38.364   4.827  12.398
72765W        W42580  43.986  26.061  10.457
72766W        W42581  33.588   4.273   4.351
72767W        W42582   6.287  35.947  10.030
72768W        W42583   1.923  22.139  10.958
72769W        W42584  27.160  34.079  11.868
72770W        W42585  12.237   3.309   3.318
72771W        W42586  29.640  12.146   1.791
72772W        W42587  20.544  28.645  14.315
72773W        W42588  34.441  23.153   4.182
72774W        W42589  41.829  10.144  14.786
72775W        W42590  32.458  39.540  14.435
72776W        W42591  18.244  25.174   0.414
72777W        W42592  37.555  20.590   4.674
72778W        W42593  35.602   0.340   3.709
72779W        W42594  20.708  40.043  14.768
72780W        W42595   7.219  19.724  11.380
72781W        W42596  35.401   1.822   1.393
72782W        W42597   1.766  27.181  11.948
72783W        W42598  17.754  28.586  12.056
72784W        W42599  44.873   8.702  14.478
72785W        W42600  40.444  13.346  11.584
72786W        W42601  37.959  24.164  10.513
72787W        W42602  12.276  31.484   1.864
72788W        W42603  26.606  26.515  13.863
72789W        W42604  24.524  41.942  13.412
72790W        W42605  26.584  21.569   4.251
72791W        W42606  11.194   1.757   4.753
72792W        W42607  21.073  28.511   3.861
72793W        W42608  19.584  37.030  14.766
72794W        W42609  15.677  42.834   3.819
72795W        W42610  17.755  37.010  11.513
72796W        W42611  36.918   0.309   4.321
72797W        W42612  21.657   0.422   4.207
72798W        W42613  28.651  10.280  14.506
72799W        W42614  43.903  25.468  12.369
72800W        W42615   5.732  30.487  12.561
72801W        W42616  12.299  39.352  11.391
72802W        W42617  21.722  25.516  13.817
72803W        W42618  26.996  26.508  12.482
72804W        W42619   0.434   1.269   0.742
72805W        W42620   9.767  28.939  11.480
72806W        W42621   4.290  13.326  12.029
72807W        W42622  16.278  13.771   4.692
72808W        W42623  20.263  14.099   2.851
72809W        W42624   8.405  40.054   1.817
72810W        W42625   3.260  43.282   4.138
72811W        W42626  29.067   7.283   1.332
72812W        W42627  25.206  40.379   3.849
72813W        W42628  17.573   7.191   2.721
72814W        W42629  39.433  43.833  12.487
72815W        W42630  23.576  29.090  14.408
72816W        W42631  33.425  26.158  13.958
72817W        W42632  37.526  31.632   2.298
72818W        W42633  42.905  26.619   4.297
72819W        W42634  44.764  11.280  11.602
72820W        W42635  10.663  22.690  10.426
72821W        W42636   3.273  31.644  12.997
72822W        W42637  12.230  37.016  12.093
72823W        W42638   3.456  38.498  12.867
72824W        W42639  35.974  20.081  13.370
72825W        W42640   7.680  43.499   1.239
72826W        W42641  10.300  38.491   3.359
72827W        W42642  32.552  34.098   2.741
72828W        W42643  20.592  30.947   0.393
72829W        W42644  34.098  40.946   4.269
72830W        W42645  23.034  15.213  14.828
72831W        W42646  18.104  26.984   3.263
72832W        W42647  34.431  40.855   4.653
72833W        W42648  14.653  33.611  11.543
72834W        W42649  31.122  27.149  11.601
72835W        W42650   1.797   6.394   2.787
72836W        W42651   2.435  22.573  14.443
72837W        W42652   0.477   7.726   3.689
72838W        W42653   6.400  23.633   1.244
72839W        W42654  18.680  25.558  12.019
72840W        W42655  42.311  34.057  10.484
72841W        W42656  24.037   4.763   0.874
72842W        W42657  14.251   1.838  10.940
72843W        W42658   1.433  12.619   4.139
72844W        W42659  23.996   7.178   3.629
72845W        W42660  31.603  28.943  11.482
72846W        W42661   6.688  34.933  14.371
72847W        W42662  38.562  11.164  14.427
72848W        W42663  23.609   1.428  12.839
72849W        W42664  35.947  28.134  12.958
72850W        W42665   1.473  20.606  13.853
72851W        W42666  30.470  35.011  13.001
72852W        W42667  23.501  35.067  12.431
72853W        W42668  25.022  24.186  12.438
72854W        W42669  14.603   8.190   1.336
72855W        W42670  19.743  42.318  10.610
72856W        W42671  28.983  30.562   3.744
72857W        W42672   4.257  26.538   3.647
72858W        W42673  37.916   1.482   3.248
72859W        W42674  28.435   1.444  14.923
72860W        W42675  44.450  33.925  11.495
72861W        W42676  21.233   9.244  11.430
72862W        W42677  21.659  41.922   2.894
72863W        W42678  21.235  18.610  14.769
72864W        W42679  43.854   1.265  13.839
72865W        W42680  29.014  12.275  11.389
72866W        W42681  15.224  11.815  11.117
72867W        W42682  20.664  39.513   4.259
72868W        W42683  38.394  35.952  11.456
72869W        W42684   5.774  15.788  11.032
72870W        W42685   8.810   4.338  12.852
72871W        W42686   1.914  43.443  10.589
72872W        W42687  33.999  41.505   4.171
72873W        W42688   4.251   0.986   0.774
72874W        W42689  39.502   8.240   1.744
72875W        W42690   4.800  25.039  10.926
72876W        W42691  34.575   6.765   2.890
72877W        W42692  15.208   7.306   3.633
72878W        W42693   0.297   3.729   0.932
72879W        W42694  25.558  23.593   1.407
72880W        W42695  34.477  29.452  11.433
72881W        W42696  20.656  32.936  12.428
72882W        W42697  36.971  44.905   0.281
72883W        W42698  33.002   5.279  13.921
72884W        W42699  20.191  13.760   2.868
72885W        W42700  11.707  32.003  13.972
72886W        W42701  33.388  20.042   2.320
72887W        W42702   4.330  11.709   4.653
72888W        W42703  21.731  10.140   2.369
72889W        W42704  14.228  34.111   1.927
72890W        W42705  38.452   5.700  12.058
72891W        W42706  41.299  32.436  10.581
72892W        W42707   5.712  28.152   0.809
72893W        W42708  37.076  41.974   1.378
72894W        W42709   2.790  32.458  11.999
72895W        W42710   7.709  29.461  12.467
72896W        W42711  42.510  36.534  14.446
72897W        W42712  36.457  27.974   4.258
72898W        W42713  30.991  13.699  12.548
72899W        W42714  30.999  12.220   0.743
72900W        W42715   8.885  39.834   1.904
72901W        W42716  37.065   2.460  11.971
72902W        W42717  19.657  42.440   4.288
72903W        W42718  24.564  26.104  14.907
72904W        W42719  26.537  12.278  13.452
72905W        W42720  17.715  33.989  13.856
72906W        W42721  20.249   6.894  14.774
72907W        W42722  26.463  10.327  13.314
72908W        W42723  17.751  37.840  11.029
72909W        W42724  10.731  28.119   0.292
72910W        W42725  28.614   1.395  13.465
72911W        W42726  32.938  30.922  11.378
72912W        W42727  40.387  20.648  14.507
72913W        W42728  36.396  14.607  11.379
72914W        W42729  27.197   8.311  13.963
72915W        W42730  25.022  26.701   0.303
72916W        W42731  14.656  15.109  14.898
72917W        W42732  26.542   4.903   0.382
72918W        W42733   3.929  22.515   4.733
72919W        W42734  28.672  41.819  10.593
72920W        W42735  16.138  13.296   1.217
72921W        W42736  20.674   5.240   1.250
72922W        W42737   7.864  31.624   4.124
72923W        W42738   5.356   0.339  13.423
72924W        W42739  32.041   1.445   2.355
72925W        W42740   6.253   4.319  14.019
72926W        W42741  11.697   8.896   0.851
72927W        W42742   8.183  38.387  14.032
72928W        W42743   2.352  10.334   1.378
72929W        W42744   9.850  19.224   1.729
72930W        W42745  10.688   4.917   4.814
72931W        W42746  10.705  11.707   4.627
72932W        W42747  11.229  35.971   2.341
72933W        W42748   5.319  25.588  11.550
72934W        W42749   9.238  32.960   0.245
72935W        W42750  17.168  12.144   3.317
72936W        W42751   1.763  18.567   1.256
72937W        W42752   9.833  41.450   2.881
72938W        W42753  17.647  25.973  11.504
72939W        W42754  29.589  44.502   3.802
72940W        W42755  32.500  40.395   3.739
72941W        W42756   3.834  17.794   4.239
72942W        W42757   0.873  31.646  10.485
72943W        W42758  32.943   8.167   2.770
72944W        W42759  27.525  42.467  10.967
72945W        W42760   6.684   8.788   4.663
72946W        W42761  11.131  15.298  14.786
72947W        W42762  39.961  32.552   4.196
72948W        W42763  42.468  20.163  10.554
72949W        W42764   4.929   4.352  12.855
72950W        W42765  17.721  35.041  13.321
72951W        W42766  21.152   2.427  12.553
72952W        W42767  25.502  43.795  12.033
72953W        W42768  19.187  40.808  12.825
72954W        W42769  33.485   7.902  13.472
72955W        W42770  34.052  43.327  10.417
72956W        W42771  30.481  20.243   0.968
72957W        W42772  38.071  25.476  10.908
72958W        W42773  18.551  43.503  12.358
72959W        W42774  19.721  16.584  10.457
72960W        W42775  31.452  39.005   3.300
72961W        W42776   5.746  32.089   5.221
72962W        W42777  33.901   6.818  14.951
72963W        W42778  11.146  34.111   0.744
72964W        W42779  31.134  32.536   1.837
72965W        W42780  39.979  28.562   2.355
72966W        W42781  18.119  21.572  12.950
72967W        W42782  26.193  14.297   4.217
72968W        W42783  19.539  36.430  11.498
72969W        W42784   8.338  44.834  11.105
72970W        W42785  32.892   5.789   0.298
72971W        W42786   3.809   6.921   0.453
72972W        W42787  20.095  28.566   4.255
72973W        W42788  40.002  11.144   4.290
72974W        W42789  37.077  15.731  14.304
72975W        W42790   8.869   1.778   4.743
72976W        W42791  36.075  35.472  13.024
72977W        W42792  43.823   3.343   3.371
72978W        W42793   9.822   1.440   0.299
72979W        W42794   5.403  10.808   3.798
72980W        W42795   9.356  22.209   0.964
72981W        W42796  34.538  32.105   2.742
72982W        W42797  14.291   7.346   0.777
72983W        W42798  14.222   2.893  13.329
72984W        W42799  41.509   9.697   2.244
72985W        W42800  41.351  44.455   1.321
72986W        W42801  16.103  39.471  13.893
72987W        W42802   8.162  39.927  13.833
72988W        W42803   7.351  19.162  12.405
72989W        W42804  26.984  21.514   3.676
72990W        W42805  42.971  12.130   4.745
72991W        W42806  11.332  14.174   4.189
72992W        W42807   1.311  30.443   3.660
72993W        W42808  20.530   5.438   4.755
72994W        W42809  31.013  32.979   3.726
72995W        W42810   5.846  11.866   1.929
72996W        W42811  32.904  17.705   2.203
72997W        W42812  25.037  21.699  12.040
72998W        W42813  12.163  20.106  13.965
72999W        W42814  40.484  16.707  11.063
73000W        W42815  10.315  28.156   5.162
73001W        W42816   2.256  24.142  14.759
73002W        W42817  18.554  44.803   3.230
73003W        W42818  32.405   8.727  13.990
73004W        W42819  20.562  40.050   2.840
73005W        W42820  29.156   7.822  12.831
73006W        W42821  17.760  25.055  13.416
73007W        W42822  42.517   4.741  12.554
73008W        W42823   3.864  21.534  14.407
73009W        W42824  13.164  17.304  11.070
73010W        W42825  15.186  23.004   2.391
73011W        W42826  33.426  38.507  10.420
73012W        W42827  29.935   4.945   3.333
73013W        W42828  42.004  35.515  10.427
73014W        W42829  16.810  35.073   4.138
73015W        W42830  15.296   9.240  13.941
73016W        W42831  26.555  40.466  13.790
73017W        W42832  37.369  33.398  13.372
73018W        W42833  33.980  22.637   1.234
73019W        W42834   6.774  27.037   4.693
73020W        W42835  44.343  29.973  11.497
73021W        W42836  21.213  30.945   4.765
73022W        W42837  37.985  26.465   4.703
73023W        W42838   3.311  18.738   0.856
73024W        W42839  14.830  19.656  10.489
73025W        W42840   1.275  27.153  11.469
73026W        W42841  44.368  27.467   3.302
73027W        W42842  43.478   1.753   4.814
73028W        W42843  40.353  39.435   0.828
73029W        W42844  33.612  28.061   1.879
73030W        W42845  32.133  30.944  11.535
73031W        W42846  36.482  36.043   2.697
73032W        W42847  28.150  40.911  14.885
73033W        W42848   8.802  44.363   0.962
73034W        W42849  24.164  31.972  13.997
73035W        W42850  17.110   1.287  11.945
73036W        W42851  21.207  19.620   0.265
73037W        W42852  35.877  43.476  12.507
73038W        W42853   0.419   9.203   2.795
73039W        W42854  44.965  41.305  10.539
73040W        W42855  34.541   5.820   3.744
73041W        W42856  26.182  27.492  10.427
73042W        W42857  44.807   8.335   3.705
73043W        W42858  21.617  23.710   1.430
73044W        W42859  26.659  12.746   1.384
73045W        W42860  10.226  37.946   3.320
73046W        W42861  21.520  18.247  11.453
73047W        W42862  20.528  24.116   2.184
73048W        W42863  38.415  38.333  13.466
73049W        W42864  34.024  27.005   3.729
73050W        W42865  28.452  43.362  11.051
73051W        W42866   7.321   1.334   0.909
73052W        W42867  25.467  14.751  12.458
73053W        W42868  26.536   8.193  14.510
73054W        W42869  29.975  38.388   4.259
73055W        W42870  23.604  33.116  10.962
73056W        W42871  36.432   1.374   1.932
73057W        W42872  11.335   0.444   0.384
73058W        W42873  44.359   8.204   0.927
73059W        W42874  33.916  14.215   0.278
73060W        W42875  18.587   9.828   2.749
73061W        W42876  20.117  36.884   4.783
73062W        W42877  42.864  20.149   2.874
73063W        W42878   8.380  25.174   0.840
73064W        W42879  19.163  32.032  13.494
73065W        W42880  16.232  14.152   3.869
73066W        W42881  20.161  35.957  13.339
73067W        W42882  37.854   4.735   1.421
73068W        W42883  14.314   6.413   0.246
73069W        W42884  23.734  30.571   0.835
73070W        W42885  42.411  38.902  12.515
73071W        W42886  43.435  18.678   1.781
73072W        W42887  24.000   0.883   0.410
73073W        W42888  38.513  34.412  11.957
73074W        W42889  16.297  25.662   0.730
73075W        W42890  26.554   1.753   4.344
73076W        W42891  22.716  43.962   1.324
73077W        W42892   2.936   8.390  14.345
73078W        W42893  44.474  40.539  11.099
73079W        W42894  35.022  16.218   0.369
73080W        W42895  27.592   2.780   4.248
73081W        W42896   3.340  20.108  12.384
73082W        W42897  14.663  24.080  12.417
73083W        W42898  24.994  17.216  14.392
73084W        W42899  12.190  17.752  10.541
73085W        W42900  18.629  10.743   3.796
73086W        W42901  21.529  37.363  11.907
73087W        W42902   3.252  35.867  10.109
73088W        W42903  34.613   2.386  12.476
73089W        W42904  16.167  37.048   3.230
73090W        W42905  35.003  44.372   3.323
73091W        W42906  37.482  24.649  14.452
73092W        W42907  33.117  31.568   3.146
73093W        W42908  34.449  33.083  13.315
73094W        W42909  38.874  41.828  12.072
73095W        W42910  20.584   3.391  13.002
73096W        W42911   4.731  25.174  11.461
73097W        W42912  32.940   7.685   0.821
73098W        W42913  35.374  25.495  10.513
73099W        W42914  44.821  20.656   4.647
73100W        W42915  41.830  20.222  12.928
73101W        W42916  34.409  21.220  13.383
73102W        W42917  36.950  34.471  12.013
73103W        W42918  18.253   5.703   4.206
73104W        W42919  10.324   6.243  14.912
73105W        W42920  33.947  30.043   1.844
73106W        W42921  31.517  25.546  12.435
73107W        W42922  21.731  22.157  11.969
73108W        W42923  35.108  25.496   4.699
73109W        W42924  18.752   2.912   2.273
73110W        W42925  40.870  20.713   1.710
73111W        W42926  21.708  21.615  12.847
73112W        W42927  37.988  27.594   2.688
73113W        W42928   2.421  14.661  10.632
73114W        W42929   1.857  33.445   1.741
73115W        W42930   1.339  24.546   1.928
73116W        W42931  37.909  39.491   3.852
73117W        W42932  44.388   7.742  13.512
73118W        W42933  13.762  34.011   4.716
73119W        W42934   8.229  18.058   1.333
73120W        W42935   2.730  36.494  12.907
73121W        W42936  39.458   4.727  10.976
73122W        W42937  22.553  34.930   3.322
73123W        W42938  25.574   6.400   4.155
73124W        W42939  41.011   6.678   1.337
73125W        W42940  31.550   1.839   2.211
73126W        W42941   0.974  30.434   0.440
73127W        W42942  36.896  19.764   3.656
73128W        W42943  23.208  20.249  14.496
73129W        W42944  32.562   5.238  11.000
73130W        W42945  36.097  33.466   4.294
73131W        W42946   9.343  35.564   0.292
73132W        W42947  33.903  12.163   2.880
73133W        W42948  24.599   7.368   3.825
73134W        W42949  38.559   5.275  12.045
73135W        W42950  37.490  23.707  14.903
73136W        W42951   3.401  11.253  14.456
73137W        W42952  25.012   3.427   0.396
73138W        W42953  32.514  31.140  14.333
73139W        W42954  15.177  40.422   1.214
73140W        W42955  29.619  36.094   1.437
73141W        W42956   1.468  42.419   2.248
73142W        W42957  20.142  25.168   1.719
73143W        W42958   5.760  35.966   3.349
73144W        W42959  19.138  11.366   2.315
73145W        W42960  25.477  29.644   4.824
73146W        W42961  39.471  19.652   2.844
73147W        W42962  15.097  19.602  10.521
73148W        W42963  12.728  23.604   1.228
73149W        W42964   8.820  31.961   3.742
73150W        W42965  30.483  24.480  12.837
73151W        W42966  18.578  34.493  13.967
73152W        W42967  27.168  36.963   0.288
73153W        W42968  18.283  41.916   2.408
73154W        W42969  29.928  42.441   3.698
73155W        W42970  39.336  36.008   3.799
73156W        W42971  18.235  38.068  13.042
73157W        W42972  16.126   7.798   2.884
73158W        W42973  10.827  34.110   2.673
73159W        W42974  24.638  41.957   3.860
73160W        W42975  33.095  38.857   3.672
73161W        W42976   5.222  15.640  12.412
73162W        W42977  11.632  34.408  11.467
73163W        W42978  42.402  26.657  12.893
73164W        W42979  41.803  41.876   4.717
73165W        W42980  22.624  11.315   1.894
73166W        W42981  22.671  33.527  12.433
73167W        W42982  39.550   8.246  13.035
73168W        W42983  33.572  29.030  12.025
73169W        W42984  28.012  31.954  13.524
73170W        W42985   2.325   5.874   4.829
73171W        W42986  10.142  40.851  10.568
73172W        W42987  27.563  22.600  13.541
73173W        W42988  16.298  31.441   2.779
73174W        W42989  26.576   1.735   2.263
73175W        W42990   1.903  32.608   3.161
73176W        W42991  25.536  35.600   4.330
73177W        W42992  32.568  13.659   3.200
73178W        W42993   0.881  17.187   4.798
73179W        W42994  14.189   8.677  10.644
73180W        W42995  26.105  32.929  11.398
73181W        W42996  40.308  44.864  10.548
73182W        W42997  25.033  21.240   2.282
73183W        W42998  43.457  24.645   3.369
73184W        W42999  35.929  12.204  12.379
73185W        W43000  38.536  43.333   2.206
73186W        W43001  12.220  26.006   1.412
73187W        W43002   1.937  27.053   1.701
73188W        W43003  24.687  39.979   1.843
73189W        W43004  23.139   1.802  14.453
73190W        W43005  30.511   1.338   3.849
73191W        W43006  25.998  13.722  10.551
73192W        W43007  10.161   1.763  13.546
73193W        W43008  21.670  34.949   1.778
73194W        W43009  32.002  20.129  14.277
73195W        W43010  39.949   1.302   2.258
73196W        W43011   4.210  12.715   3.387
73197W        W43012  15.203  43.333   4.348
73198W        W43013   7.312  35.516  13.489
73199W        W43014  19.651   8.255   2.805
73200W        W43015  44.504   6.780  14.466
73201W        W43016  42.526  15.330   0.768
73202W        W43017  14.806  30.038  10.891
73203W        W43018   9.303   5.740   4.756
73204W        W43019  40.841  44.848  10.506
73205W        W43020  41.362   5.401  14.489
73206W        W43021  17.133  28.642  10.597
73207W        W43022  29.433  28.980   1.933
73208W        W43023  40.943   8.246  11.926
73209W        W43024  13.661  41.528   2.693
73210W        W43025   4.809  27.024  10.930
73211W        W43026  30.073  19.164  12.919
73212W        W43027  41.480  40.360   0.382
73213W        W43028  25.159  10.306  13.484
73214W        W43029  25.538  20.754  13.798
73215W        W43030  14.744  39.008  14.464
73216W        W43031   1.445  15.146  14.381
73217W        W43032  34.450  36.013   0.943
73218W        W43033   0.807  31.090   0.879
73219W        W43034  33.403  26.032  11.447
73220W        W43035  11.666  12.263   2.837
73221W        W43036   1.283   3.763  10.558
73222W        W43037  35.951   3.368   4.324
73223W        W43038   5.396  38.963   1.357
73224W        W43039  38.399  10.201  10.146
73225W        W43040  26.613  24.613   1.787
73226W        W43041  37.511  25.059   3.270
73227W        W43042  17.795  33.623   0.814
73228W        W43043   3.864  35.866  13.429
73229W        W43044   5.220  10.168   1.300
73230W        W43045  44.476  15.099  11.121
73231W        W43046  40.320  27.451   0.340
73232W        W43047   8.892   3.746  13.341
73233W        W43048   3.263  31.555   1.218
73234W        W43049  32.637  28.574  13.986
73235W        W43050  42.308  44.971  14.390
73236W        W43051  20.240   3.813   0.409
73237W        W43052  33.053  25.068   1.318
73238W        W43053   9.280  13.207   4.825
73239W        W43054  15.159   7.698  11.866
73240W        W43055  24.224  32.525   0.355
73241W        W43056  34.931  12.807  11.446
73242W        W43057  15.142  26.035   2.415
73243W        W43058  41.994  33.892   0.885
73244W        W43059  43.879  38.980   4.699
73245W        W43060  40.814  35.388   2.196
73246W        W43061  39.331  42.019   1.789
73247W        W43062   2.797   7.905  11.907
73248W        W43063   4.321  39.957  11.476
73249W        W43064   1.966  16.635   1.753
73250W        W43065  39.880  32.930   0.352
73251W        W43066  43.955   3.278  12.574
73252W        W43067   7.259  32.046  14.836
73253W        W43068   5.775  29.507  10.407
73254W        W43069  17.619  36.443   1.726
73255W        W43070   1.978  15.801  13.370
73256W        W43071  39.855  38.914   1.342
73257W        W43072   0.382  29.090  11.559
73258W        W43073   5.241   3.350   3.181
73259W        W43074  27.625  29.009  11.969
73260W        W43075  15.129   5.854   3.361
73261W        W43076  42.451   3.453   0.345
73262W        W43077   0.311  13.158  14.329
73263W        W43078  23.087  39.324   4.641
73264W        W43079  15.725   3.374   4.765
73265W        W43080  44.877  28.465   0.840
73266W        W43081  12.319  39.018   3.684
73267W        W43082   5.716  36.015  12.511
73268W        W43083   5.427  16.102  11.051
73269W        W43084  13.234  44.893   4.278
73270W        W43085  26.114  20.136  13.823
73271W        W43086  13.292   0.376  13.897
73272W        W43087   5.933   2.389  14.959
73273W        W43088  32.894  12.681  13.958
73274W        W43089   0.294  40.523  11.128
73275W        W43090  11.686  19.719  11.952
73276W        W43091  19.711  44.762   0.272
73277W        W43092  36.935  22.713   2.726
73278W        W43093   6.883  24.166  10.971
73279W        W43094  24.564  33.503   2.843
73280W        W43095  30.095   3.407  10.931
73281W        W43096   2.361  29.072  11.008
73282W        W43097  13.143  28.641  11.521
73283W        W43098  33.484  25.018   9.978
73284W        W43099  31.121  33.980  11.592
73285W        W43100  39.904  13.638   2.825
73286W        W43101  35.871   1.949   3.293
73287W        W43102   8.175  25.170  11.084
73288W        W43103  17.660  33.410   3.765
73289W        W43104   5.906  17.702   3.218
73290W        W43105  28.574   1.820  12.373
73291W        W43106   8.893  16.743  14.772
73292W        W43107   9.837  40.956  13.511
73293W        W43108  43.767  27.012   2.812
73294W        W43109  28.120  41.365   9.951
73295W        W43110  34.594  41.459   4.338
73296W        W43111   8.758  16.634  13.357
73297W        W43112  23.189  15.125   4.341
73298W        W43113  26.658  18.257  10.573
73299W        W43114   3.418  35.013  12.365
73300W        W43115  30.604  13.221   3.274
73301W        W43116  31.547  16.714  11.446
73302W        W43117  17.088  11.339  11.870
73303W        W43118  25.509   6.185  14.293
73304W        W43119   8.840   6.782   1.756
73305W        W43120  23.562  34.576  13.881
73306W        W43121   5.844   2.904  11.448
73307W        W43122  18.604  27.068   0.428
73308W        W43123   7.346  44.426  14.428
73309W        W43124   7.213  28.144   1.755
73310W        W43125  34.610  30.949  10.979
73311W        W43126  26.644  13.736   1.380
73312W        W43127   4.709  43.293  11.056
73313W        W43128  16.077  43.333   4.637
73314W        W43129  20.155  20.034   4.187
73315W        W43130   7.761   9.260  11.989
73316W        W43131  24.564  12.844  13.540
73317W        W43132   2.962  16.317   2.738
73318W        W43133   1.296   4.337   0.261
73319W        W43134  31.404  12.240  13.845
73320W        W43135   3.359   6.802  10.899
73321W        W43136  22.131  36.355  12.018
73322W        W43137  27.037  21.190   1.379
73323W        W43138   2.720   7.394  10.894
73324W        W43139  37.853   3.735   4.207
73325W        W43140  12.292  10.766  12.879
73326W        W43141  34.478  37.892  12.396
73327W        W43142  44.369   8.858   2.724
73328W        W43143  36.906  33.121   4.806
73329W        W43144  35.436  38.391   2.719
73330W        W43145  21.131   8.867   1.243
73331W        W43146   5.382  25.967  14.332
73332W        W43147   0.765  40.512  11.579
73333W        W43148   7.780   0.318   2.757
73334W        W43149  42.819   3.924  13.927
73335W        W43150  13.636  37.380   0.944
73336W        W43151  22.540   7.738  11.498
73337W        W43152  10.651   5.314   0.347
73338W        W43153   1.262   3.326  11.393
73339W        W43154   1.348  33.083  11.391
73340W        W43155  31.014  30.034  12.012
73341W        W43156   5.234  36.438   2.325
73342W        W43157   8.704  11.226  11.529
73343W        W43158  30.513   9.781  14.318
73344W        W43159   8.675  22.604   2.764
73345W        W43160  25.584  37.361  12.938
73346W        W43161   6.191  41.941  11.555
73347W        W43162   3.878  30.008  12.506
73348W        W43163   5.861  34.962   1.860
73349W        W43164   6.834  44.469   1.246
73350W        W43165   5.862  15.736  14.954
73351W        W43166  13.196  38.434  14.505
73352W        W43167  14.313  37.519  12.483
73353W        W43168  10.368  22.091   3.308
73354W        W43169  17.636  25.697  10.597
73355W        W43170  18.617  38.899  12.477
73356W        W43171  14.270  10.794  14.505
73357W        W43172  24.989  30.063   4.705
73358W        W43173  18.210  25.114   2.372
73359W        W43174  23.112  28.547  14.472
73360W        W43175  44.417   9.704   0.372
73361W        W43176   2.758   6.787   4.286
73362W        W43177  25.004  35.107  12.519
73363W        W43178  17.214  42.511   1.391
73364W        W43179  29.117   1.482   4.317
73365W        W43180  37.046   7.787  13.909
73366W        W43181  28.547   6.721  13.381
73367W        W43182  38.926   6.407   1.830
73368W        W43183  12.646  16.775  11.574
73369W        W43184  37.895  10.637   2.354
73370W        W43185   2.739  14.802  12.352
73371W        W43186  29.559  16.631  10.552
73372W        W43187  41.348   4.319   2.306
73373W        W43188  17.180  40.470  14.973
73374W        W43189   8.837   8.877  11.114
73375W        W43190  10.648   5.760  10.523
73376W        W43191  38.469   7.346  11.967
73377W        W43192   5.733  36.914  12.378
73378W        W43193  35.932   5.379  13.341
73379W        W43194  24.081  31.938   4.303
73380W        W43195  38.473  34.371  10.540
73381W        W43196  27.546  36.854  11.867
73382W        W43197  11.776   1.418  13.838
73383W        W43198  33.512  33.072  14.405
73384W        W43199   2.306  35.476  12.023
73385W        W43200   3.796  20.168   0.334
73386W        W43201   4.243   7.231   3.305
73387W        W43202  14.233   0.755  13.889
73388W        W43203  44.474  38.976   0.333
73389W        W43204   4.246  44.968  14.976
73390W        W43205  34.400  19.689  13.365
73391W        W43206  44.479  35.963  11.004
73392W        W43207  29.140  18.224   1.211
73393W        W43208  16.300   8.876  11.396
73394W        W43209   0.892   3.220   0.823
73395W        W43210  12.222  19.606   4.813
73396W        W43211  41.849  22.646  13.947
73397W        W43212  42.954  28.574  11.947
73398W        W43213  10.169   4.851  13.475
73399W        W43214  20.237  25.053   4.233
73400W        W43215  29.093  16.631   4.777
73401W        W43216  22.083  26.502  13.906
73402W        W43217  32.413   7.409   0.797
73403W        W43218  37.408   2.300  10.494
73404W        W43219  28.479   7.416  11.081
73405W        W43220  14.639  18.568  11.526
73406W        W43221  32.436   5.406   4.303
73407W        W43222  26.485  24.498  11.482
73408W        W43223  32.981  33.990  12.903
73409W        W43224  43.466  34.009   3.684
73410W        W43225  43.417  37.916   2.229
73411W        W43226  44.981   1.866   0.410
73412W        W43227   2.308  35.368   3.229
73413W        W43228   8.314  41.378   3.835
73414W        W43229   2.296  37.558   1.337
73415W        W43230  10.809  11.626  12.922
73416W        W43231  42.968  22.561   5.220
73417W        W43232  29.057   7.331  12.537
73418W        W43233  19.581  26.998  12.451
73419W        W43234   9.152  35.876   3.273
73420W        W43235  18.109  34.000  12.051
73421W        W43236  40.892   2.261   3.869
73422W        W43237  26.180  28.002   3.203
73423W        W43238   8.287   3.840  14.792
73424W        W43239  21.223  35.512  14.964
73425W        W43240   5.831  26.679   4.175
73426W        W43241  42.793  24.013   3.805
73427W        W43242  22.119  38.529  10.997
73428W        W43243  24.516  34.940   3.217
73429W        W43244  40.924  34.492   4.677
73430W        W43245  34.989   2.429   2.319
73431W        W43246  15.202   2.913   3.290
73432W        W43247  36.953  30.130   1.259
73433W        W43248  26.976   8.704  13.330
73434W        W43249  20.637  22.649   2.732
73435W        W43250  41.495  42.910   2.399
73436W        W43251   2.269  36.000   4.226
73437W        W43252  28.529  24.106  12.870
73438W        W43253  35.444  20.063  14.899
73439W        W43254  44.307  27.125   0.396
73440W        W43255  10.384  22.248   2.264
73441W        W43256  35.055  22.713  10.919
73442W        W43257  41.028  43.465  14.904
73443W        W43258  27.522  32.988  13.895
73444W        W43259  43.274   4.822  10.470
73445W        W43260  14.767  34.374   4.828
73446W        W43261  34.462  39.392   4.769
73447W        W43262  21.747  13.210  12.460
73448W        W43263  39.351  29.947  14.470
73449W        W43264   6.881  28.081   0.804
73450W        W43265  26.519  36.414  11.568
73451W        W43266   6.862   7.769  13.337
73452W        W43267   5.251  35.547   0.911
73453W        W43268  31.416  44.904  12.902
73454W        W43269  34.013   1.418   1.758
73455W        W43270  11.300  30.053  13.957
73456W        W43271  28.586   5.779  13.313
73457W        W43272  22.687  28.002   3.236
73458W        W43273  12.215  41.469  11.416
73459W        W43274  22.557  22.135  12.941
73460W        W43275  26.111  43.278  11.082
73461W        W43276   4.210  33.106  13.474
73462W        W43277  43.963  19.237   2.678
73463W        W43278   2.878   3.773   2.305
73464W        W43279  22.020  28.123  10.525
73465W        W43280  38.479  26.500  13.026
73466W        W43281  20.565  25.678  10.931
73467W        W43282  41.894   8.679  10.136
73468W        W43283  34.109  36.346   2.794
73469W        W43284  19.586  20.050   3.300
73470W        W43285  42.465  24.008  14.425
73471W        W43286   1.740  29.468  10.979
73472W        W43287   9.260  17.649  12.396
73473W        W43288  44.915   0.867   2.332
73474W        W43289   5.439  19.219   4.672
73475W        W43290   7.286  10.362   1.814
73476W        W43291  24.694   7.376  13.832
73477W        W43292  26.004  36.405  14.428
73478W        W43293  16.121   5.838   0.921
73479W        W43294  30.523  44.914  14.328
73480W        W43295  15.142  24.599  11.038
73481W        W43296  41.406  25.633   3.747
73482W        W43297  41.411   1.749   4.790
73483W        W43298   2.937  24.039   0.260
73484W        W43299  31.990  34.039  10.422
73485W        W43300  41.347  42.020   0.892
73486W        W43301  18.774  27.975  12.436
73487W        W43302  37.080   3.312   0.299
73488W        W43303  25.020  21.731  10.963
73489W        W43304  38.432  31.459   3.156
73490W        W43305  13.314  11.131   2.338
73491W        W43306   5.309   4.817   0.763
73492W        W43307  13.196  22.171  11.918
73493W        W43308  11.851  20.572  12.036
73494W        W43309  33.034  11.326  11.057
73495W        W43310  25.630   8.215  14.494
73496W        W43311  32.899  21.049   0.938
73497W        W43312  33.486  32.136   1.330
73498W        W43313  14.216  18.740  12.477
73499W        W43314   7.770   2.346   2.304
73500W        W43315  19.668  21.041   2.360
73501W        W43316  20.243  17.577   1.300
73502W        W43317  31.964  20.625  14.443
73503W        W43318  30.073   1.878   4.690
73504W        W43319   4.765  34.515  12.042
73505W        W43320  26.163  18.133  14.794
73506W        W43321  24.097   1.890   4.716
73507W        W43322  21.022  22.025  11.507
73508W        W43323  29.607  29.945   4.258
73509W        W43324   1.388  24.656  12.490
73510W        W43325  29.126  36.982   0.280
73511W        W43326   0.338  28.026   2.200
73512W        W43327  17.236  21.607   2.323
73513W        W43328  17.658  34.034  12.039
73514W        W43329  44.433   8.369  10.915
73515W        W43330  21.606  14.223  12.467
73516W        W43331  27.074  22.182  12.510
73517W        W43332   0.743   6.301   1.764
73518W        W43333  41.328  26.588  10.609
73519W        W43334  37.556  25.079  12.085
73520W        W43335  40.864  25.066   1.415
73521W        W43336   3.247  44.795   4.794
73522W        W43337   6.773  29.018   4.278
73523W        W43338  44.883  32.957   2.662
73524W        W43339  38.957  17.657   2.888
73525W        W43340  21.116  30.538  10.019
73526W        W43341   4.882  14.194   3.694
73527W        W43342  16.745  31.529   0.858
73528W        W43343  43.409  33.953  14.891
73529W        W43344  21.587  22.032   2.794
73530W        W43345  37.420   1.906   1.270
73531W        W43346  43.009  11.196  13.436
73532W        W43347  42.998  38.443   1.923
73533W        W43348  37.881  11.706  10.445
73534W        W43349  20.699   3.323   2.773
73535W        W43350  20.649  23.052  12.884
73536W        W43351  42.400  11.655  13.985
73537W        W43352   0.335  34.453   1.403
73538W        W43353  25.066  21.118  12.392
73539W        W43354  36.063  39.316  13.484
73540W        W43355  13.294  18.209   3.302
73541W        W43356  23.155  25.035   0.883
73542W        W43357   9.815   4.250  13.507
73543W        W43358   7.779   7.183  11.911
73544W        W43359  25.048  30.973   0.735
73545W        W43360  12.258  25.097   4.759
73546W        W43361  21.673  15.618  12.912
73547W        W43362  35.413  38.546  10.965
73548W        W43363  25.201  24.175  10.580
73549W        W43364   8.275  23.206  13.999
73550W        W43365  35.018  13.673   4.125
73551W        W43366  27.191  20.075  11.926
73552W        W43367  31.638   3.441  10.927
73553W        W43368   5.272   7.892   1.429
73554W        W43369   6.279  28.506  13.310
73555W        W43370  31.582   4.334  13.810
73556W        W43371  10.756   4.218  13.934
73557W        W43372  21.065   9.671   0.920
73558W        W43373  35.907  38.528  10.443
73559W        W43374  23.710   8.324   4.674
73560W        W43375   7.861  33.118  14.923
73561W        W43376  15.707  15.180   2.871
73562W        W43377   6.729  17.642  14.987
73563W        W43378  33.478   3.426  10.527
73564W        W43379  31.493   4.403   1.904
73565W        W43380  38.474  25.525   2.378
73566W        W43381  15.628  40.386  11.427
73567W        W43382   9.822  30.535  10.976
73568W        W43383  21.047  24.625   1.815
73569W        W43384  22.042  26.654  12.026
73570W        W43385  24.072  24.981   2.274
73571W        W43386  32.131   0.900  10.609
73572W        W43387  30.597  28.948   3.367
73573W        W43388  15.637   2.227   1.240
73574W        W43389  39.859  15.146   2.396
73575W        W43390  30.529  27.951  13.852
73576W        W43391  11.147  34.433   2.182
73577W        W43392  44.919  18.274   2.418
73578W        W43393  18.721  11.805  11.101
73579W        W43394  29.949  33.559   2.879
73580W        W43395  39.928  33.097   1.420
73581W        W43396   9.669   0.957   2.817
73582W        W43397  26.170  40.860  13.497
73583W        W43398  34.523  26.458  10.456
73584W        W43399  21.166  23.569  12.024
73585W        W43400  31.031  13.348   1.801
73586W        W43401   5.880  43.852  13.470
73587W        W43402  39.536  17.563  14.478
73588W        W43403  13.229  35.048  11.522
73589W        W43404  28.043  18.560   3.281
73590W        W43405  37.963  44.005   4.328
73591W        W43406  16.734  19.608   0.414
73592W        W43407  10.207  15.750   5.248
73593W        W43408  21.605  38.409   3.783
73594W        W43409  23.511  11.708   0.789
73595W        W43410  15.315   9.716  14.771
73596W        W43411  22.581  14.606   3.367
73597W        W43412  15.784   2.327   1.883
73598W        W43413  39.065   3.730   2.663
73599W        W43414   4.766   8.659  14.324
73600W        W43415   5.312  14.618  13.957
73601W        W43416  35.918  37.474   3.197
73602W        W43417  26.692  14.305  12.880
73603W        W43418   3.899  20.209   3.754
73604W        W43419   9.688  10.209   2.257
73605W        W43420  11.181  38.873  13.398
73606W        W43421  12.747   8.813   2.715
73607W        W43422   9.837  27.505   3.160
73608W        W43423  16.165  26.000  13.033
73609W        W43424  34.566  19.730   5.305
73610W        W43425  17.092  44.924  12.062
73611W        W43426  14.303  30.134   2.299
73612W        W43427   2.774  23.553  14.376
73613W        W43428  34.994  18.145   4.268
73614W        W43429  13.321   9.691  13.530
73615W        W43430  42.831  34.114   4.832
73616W        W43431  12.199  29.664   2.678
73617W        W43432  13.110  15.589   4.326
73618W        W43433  22.632  22.187   0.270
73619W        W43434  34.045  11.713  11.121
73620W        W43435   4.440   3.246   1.283
73621W        W43436  37.997  40.442   2.885
73622W        W43437  12.625  11.850  13.870
73623W        W43438  25.148  18.285  10.466
73624W        W43439  28.439  22.585   1.704
73625W        W43440  18.147  43.348   1.445
73626W        W43441  29.947  30.600   1.891
73627W        W43442  15.242  44.429  11.437
73628W        W43443   9.163  16.119  13.910
73629W        W43444  38.541   1.424  14.765
73630W        W43445  19.277  16.133   0.738
73631W        W43446   7.800  38.840  11.603
73632W        W43447   7.282  38.042   0.953
73633W        W43448   1.865  20.648  14.771
73634W        W43449  41.958   7.893   2.237
73635W        W43450  33.422  36.548  12.001
73636W        W43451  14.253  28.174  14.456
73637W        W43452  27.470  11.240  13.046
73638W        W43453  34.068   9.235  13.360
73639W        W43454   5.429   7.327  13.801
73640W        W43455   8.894  41.427  12.341
73641W        W43456  24.213   8.356   4.754
73642W        W43457  31.505  41.798   3.645
73643W        W43458  32.944  12.318  14.427
73644W        W43459  32.051   6.749   4.702
73645W        W43460  17.165  12.161   4.647
73646W        W43461  33.991  41.881  10.407
73647W        W43462  19.277  31.948  11.939
73648W        W43463  34.467  28.127  12.044
73649W        W43464  26.689  13.329  10.893
73650W        W43465  10.188  29.077   0.902
73651W        W43466  33.959  28.117   2.181
73652W        W43467  37.558  29.460  12.994
73653W        W43468  42.409  42.454  10.580
73654W        W43469  36.569   3.715  13.918
73655W        W43470   0.337  20.115  10.417
73656W        W43471   4.870   3.448   4.317
73657W        W43472   1.467  18.177   0.757
73658W        W43473  28.534  27.163  11.570
73659W        W43474  24.056  39.045   0.875
73660W        W43475  21.527  22.538  14.309
73661W        W43476   1.425  40.888  13.525
73662W        W43477  21.703  39.039   2.275
73663W        W43478  41.996  41.954  10.594
73664W        W43479  22.112  19.748  13.022
73665W        W43480  18.239  38.075  14.337
73666W        W43481   3.239   9.206  10.905
73667W        W43482  26.111   2.733  14.949
73668W        W43483   8.769  41.407  11.391
73669W        W43484  26.515  36.088  13.811
73670W        W43485  42.287  12.804  13.475
73671W        W43486  35.564   4.336   1.417
73672W        W43487   6.350  31.596   0.829
73673W        W43488  17.788  19.227  12.878
73674W        W43489  37.348  19.043  11.926
73675W        W43490  30.458  40.329   2.780
73676W        W43491  23.100  43.883   3.720
73677W        W43492  33.398  30.486   2.669
73678W        W43493  17.168  15.715   3.805
73679W        W43494  13.292  43.444  11.518
73680W        W43495  19.112  40.473  13.418
73681W        W43496  33.396   0.910   3.164
73682W        W43497  11.243  33.553  13.983
73683W        W43498  20.126   0.261   4.291
73684W        W43499  41.839  25.061   0.393
73685W        W43500  16.203  33.085  11.102
73686W        W43501  43.778  33.546  12.996
73687W        W43502  29.574  23.186  10.894
73688W        W43503   1.357   2.824   4.750
73689W        W43504   2.386  42.972  11.448
73690W        W43505  37.918  40.993  12.417
73691W        W43506  16.622   7.760  14.921
73692W        W43507  25.166  36.390   3.289
73693W        W43508  34.460  30.574   3.718
73694W        W43509  16.790   2.360  11.577
73695W        W43510  18.111   8.883  14.508
73696W        W43511   6.814  17.744  11.932
73697W        W43512   5.804  26.499   2.857
73698W        W43513  14.760  38.508   4.766
73699W        W43514  41.004  32.575  11.415
73700W        W43515  42.414  13.129  13.032
73701W        W43516  11.279  26.514  13.410
73702W        W43517  37.576   4.232  10.590
73703W        W43518  16.208  33.899  13.405
73704W        W43519   7.768  26.970   4.649
73705W        W43520   8.858  24.624  12.044
73706W        W43521  43.405  42.810   0.336
73707W        W43522   2.802  44.490  11.493
73708W        W43523  37.020  10.791  12.405
73709W        W43524  35.986  32.407  12.404
73710W        W43525  19.683  23.125  14.469
73711W        W43526   3.389   9.238  12.000
73712W        W43527   9.752  19.714   4.189
73713W        W43528  21.721   4.859  12.572
73714W        W43529  14.230  14.650   0.789
73715W        W43530  12.214  34.477   2.293
73716W        W43531  10.174  16.248   4.353
73717W        W43532  38.908  23.529  13.411
73718W        W43533  13.709  17.625   4.772
73719W        W43534  38.938  10.868  11.895
73720W        W43535  18.117  25.589   3.150
73721W        W43536  26.148  34.492   2.262
73722W        W43537  11.153   6.226   2.319
73723W        W43538  42.407  16.189  14.028
73724W        W43539  21.574  39.971  12.874
73725W        W43540   8.694  13.613   0.834
73726W        W43541   0.417  35.974   2.795
73727W        W43542  42.831  40.974   1.318
73728W        W43543  27.004  13.653  13.855
73729W        W43544   7.690   1.269  11.527
73730W        W43545  36.406  33.946  14.962
73731W        W43546  38.950   4.869  12.925
73732W        W43547  33.044   4.391   0.779
73733W        W43548  25.983  43.926   2.289
73734W        W43549  12.158  38.554   1.895
73735W        W43550  12.675  29.012   0.934
73736W        W43551  28.665  20.613   4.354
73737W        W43552  11.686   9.681  14.998
73738W        W43553   5.249  14.640  11.393
73739W        W43554  19.616  30.082   3.789
73740W        W43555  29.951  36.059   2.860
73741W        W43556  35.039   6.386   4.733
73742W        W43557  30.914  24.206   2.273
73743W        W43558   8.834  22.593  11.985
73744W        W43559   1.777  29.440   3.663
73745W        W43560  38.501   2.245  14.927
73746W        W43561  29.930  11.737  11.985
73747W        W43562  28.650   0.901  14.898
73748W        W43563  38.859  39.428   1.787
73749W        W43564  15.721   8.244  12.890
73750W        W43565  24.186  30.414  13.941
73751W        W43566  37.950  15.167  12.841
73752W        W43567  26.508  23.202  14.811
73753W        W43568  20.679  24.231   0.382
73754W        W43569  29.619   8.367  11.394
73755W        W43570  42.305  28.525   4.144
73756W        W43571  21.130   6.711   4.151
73757W        W43572  44.479   4.307  12.368
73758W        W43573   4.300   8.334   1.812
73759W        W43574  43.990   1.766  13.951
73760W        W43575  23.673  14.330   0.818
73761W        W43576  35.502  39.854   1.722
73762W        W43577  13.245  38.334  11.035
73763W        W43578  24.119  19.755   0.476
73764W        W43579   8.784  33.573   2.785
73765W        W43580   2.781  21.537  12.377
73766W        W43581  44.943  39.061   4.770
73767W        W43582  22.175  33.420  14.872
73768W        W43583  30.514  36.372   0.850
73769W        W43584   4.344  11.646   2.732
73770W        W43585  28.528  42.899   1.210
73771W        W43586  36.020  35.004  10.050
73772W        W43587  27.462  32.898   4.264
73773W        W43588  43.502  30.111  10.476
73774W        W43589  21.743   9.662   2.863
73775W        W43590  16.733  36.546  12.942
73776W        W43591   0.873  13.265   3.287
73777W        W43592  15.741  20.562  10.418
73778W        W43593  31.966  25.995   3.716
73779W        W43594   5.796  20.247   1.827
73780W        W43595   6.882  31.431  13.028
73781W        W43596  41.904  25.525   1.738
73782W        W43597  36.983  17.304   3.307
73783W        W43598  31.020  16.268   4.311
73784W        W43599  16.592   7.278   2.820
73785W        W43600  24.063  44.842   3.191
73786W        W43601  33.443  10.677   4.125
73787W        W43602  15.225  39.845  13.529
73788W        W43603  12.679  28.564   3.780
73789W        W43604   3.383  24.711  11.522
73790W        W43605  40.404  32.137   0.302
73791W        W43606  36.506  17.228   2.362
73792W        W43607  11.365  34.004  11.103
73793W        W43608  15.317  29.976  13.058
73794W        W43609  11.757  26.680   2.666
73795W        W43610   0.435  32.973   4.196
73796W        W43611  16.741  21.045   3.311
73797W        W43612  29.969  44.399   1.420
73798W        W43613  33.037   6.854   4.634
73799W        W43614  32.568  28.145  10.493
73800W        W43615  43.362   3.436  12.523
73801W        W43616  23.556  37.415   4.773
73802W        W43617  17.677  18.625   4.678
73803W        W43618  37.904  37.943   1.260
73804W        W43619  38.968  23.189   0.342
73805W        W43620  19.046  26.607   2.240
73806W        W43621  36.986  37.948  10.965
73807W        W43622   0.366  11.305  11.877
73808W        W43623  23.122  21.661  13.979
73809W        W43624  11.328  29.616   3.717
73810W        W43625  19.749  35.594  13.419
73811W        W43626  12.314  30.953   1.331
73812W        W43627   0.842  39.907   1.289
73813W        W43628  39.995  21.125   4.676
73814W        W43629  35.875  44.389  13.308
73815W        W43630  12.775   5.262   1.240
73816W        W43631  41.993  42.957  14.024
73817W        W43632   0.757  35.404   4.298
73818W        W43633  41.924  20.575   0.950
73819W        W43634   4.237  28.558  10.888
73820W        W43635  14.755   3.891  14.764
73821W        W43636   0.461  13.270  13.920
73822W        W43637  24.577  34.393   3.164
73823W        W43638   2.796  27.174   1.798
73824W        W43639  10.354  34.419  10.965
73825W        W43640   3.738  25.514  14.800
73826W        W43641  42.520  44.404  12.916
73827W        W43642   8.831   9.647   1.730
73828W        W43643  23.021  22.622   9.945
73829W        W43644  28.980  35.555  14.004
73830W        W43645   4.325  36.846   1.815
73831W        W43646   5.809   1.435  14.993
73832W        W43647  39.490  27.122  11.025
73833W        W43648  16.206  22.586  10.629
73834W        W43649  17.081  44.412   0.779
73835W        W43650  21.548  24.156  10.101
73836W        W43651  30.014  18.157  13.052
73837W        W43652  37.566  33.968   2.872
73838W        W43653   2.308  39.911   4.822
73839W        W43654  23.208  33.888  10.433
73840W        W43655   6.694   5.904  12.938
73841W        W43656   3.436   0.828   0.775
73842W        W43657  23.040  32.044  14.018
73843W        W43658  26.193  21.730  14.830
73844W        W43659   5.394  11.755   2.322
73845W        W43660  44.976  30.000  12.483
73846W        W43661  28.675  30.587  12.042
73847W        W43662  15.199  43.935  10.450
73848W        W43663  33.424  16.127   2.397
73849W        W43664  43.990  26.970  12.987
73850W        W43665  39.929   6.313  10.618
73851W        W43666  40.478   9.876  14.823
73852W        W43667  41.307  23.206   4.210
73853W        W43668  19.569  16.099   2.367
73854W        W43669  44.767  44.897  11.089
73855W        W43670   1.352  22.192   2.371
73856W        W43671   4.822  32.483  11.593
73857W        W43672  33.121  17.727  10.892
73858W        W43673  31.079  17.141  13.948
73859W        W43674  29.976  22.735  13.873
73860W        W43675  20.680  44.283  10.975
73861W        W43676   5.754  27.448   1.869
73862W        W43677  40.879  27.609   2.271
73863W        W43678  13.771   0.471   4.145
73864W        W43679  28.172  39.854   2.329
73865W        W43680  25.538  18.698   3.837
73866W        W43681  13.616  36.020   3.319
73867W        W43682  32.113  35.522  12.518
73868W        W43683  10.341  16.766  10.127
73869W        W43684  19.260  28.472  10.455
73870W        W43685   1.803  19.282  11.115
73871W        W43686   9.883  15.799  14.926
73872W        W43687  17.559  13.818   1.877
73873W        W43688   8.756  16.644  12.488
73874W        W43689  17.121  11.263   3.645
73875W        W43690  27.677   7.385   2.266
73876W        W43691  41.893  27.115   1.722
73877W        W43692  10.866  14.109  13.355
73878W        W43693  15.199  44.265  14.853
73879W        W43694  21.050  24.166  11.579
73880W        W43695  19.045   6.729  14.490
73881W        W43696  34.987   7.205   2.822
73882W        W43697  44.001  32.594   2.392
73883W        W43698  37.443  43.960  14.831
73884W        W43699  28.653  14.808  14.321
73885W        W43700  22.665  17.629   0.268
73886W        W43701  10.672  27.075   3.828
73887W        W43702  19.672   0.444  11.027
73888W        W43703   4.852  12.302  13.967
73889W        W43704  34.527  23.611   2.799
73890W        W43705  26.695  42.512  12.372
73891W        W43706  10.669  16.791  13.883
73892W        W43707   4.314   3.914   4.742
73893W        W43708  19.571  16.613  14.971
73894W        W43709  19.615  37.952   4.763
73895W        W43710   7.679   4.841   2.419
73896W        W43711  15.602  14.169   2.254
73897W        W43712   5.268  11.660  10.484
73898W        W43713  32.636  44.820  12.885
73899W        W43714   4.268  30.473   1.793
73900W        W43715  24.978   5.377  11.973
73901W        W43716   8.301  35.979   1.754
73902W        W43717   2.952  26.633   4.688
73903W        W43718  25.481  18.219   3.779
73904W        W43719  34.472  33.010  14.839
73905W        W43720   3.452   3.354   1.216
73906W        W43721  25.163   3.273  12.415
73907W        W43722   3.364   8.397   1.409
73908W        W43723   4.361  18.784   0.421
73909W        W43724   6.805  20.235   0.263
73910W        W43725  21.230  12.354   1.359
73911W        W43726  38.028  39.441   0.370
73912W        W43727  40.824  44.278   3.837
73913W        W43728  27.584  17.643   0.853
73914W        W43729  32.502  36.844   0.781
73915W        W43730  22.129  43.463   3.656
73916W        W43731  22.201  12.723   2.730
73917W        W43732  19.048   3.737   0.266
73918W        W43733   5.910  42.896   1.771
73919W        W43734  11.845  28.653  11.989
73920W        W43735  13.342  24.492  14.339
73921W        W43736  26.575   3.823   1.349
73922W        W43737  20.678  21.656   4.269
73923W        W43738  30.102  11.644  10.945
73924W        W43739  31.541  41.522   1.388
73925W        W43740   0.967   8.278  11.402
73926W        W43741  24.098  19.255  10.569
73927W        W43742  27.180   0.873   4.132
73928W        W43743  37.924  21.621  12.497
73929W        W43744  31.430  29.432  11.029
73930W        W43745   1.964   0.762   3.280
73931W        W43746  26.497  35.936  11.871
73932W        W43747  37.931  31.611  11.526
73933W        W43748   9.795  37.564  14.333
73934W        W43749  26.662   1.376  14.413
73935W        W43750  41.378  29.034  13.060
73936W        W43751  28.049   1.367   1.446
73937W        W43752  32.125   7.237   1.796
73938W        W43753  31.450  17.285  14.969
73939W        W43754  28.975  12.802  12.344
73940W        W43755   6.295  41.867  14.292
73941W        W43756  11.692  14.298   2.277
73942W        W43757   9.348  36.071   1.378
73943W        W43758   4.747   7.698   1.783
73944W        W43759  25.097   9.380   0.354
73945W        W43760  40.988   9.387   0.461
73946W        W43761  25.598  27.019   1.883
73947W        W43762  33.483  14.655  12.563
73948W        W43763  24.106   6.303   1.389
73949W        W43764  17.713  32.142   4.348
73950W        W43765  28.947  43.414  12.981
73951W        W43766  19.055  23.656   4.285
73952W        W43767  28.507   5.891   3.667
73953W        W43768   0.251  18.736  11.902
73954W        W43769  11.701   9.712  11.087
73955W        W43770  13.153  13.782  11.983
73956W        W43771  35.542  21.517  12.504
73957W        W43772   0.821   9.702   0.869
73958W        W43773  11.747   2.850  14.933
73959W        W43774   4.268  31.991   2.820
73960W        W43775  43.299  21.122  11.919
73961W        W43776  30.162  21.060   2.742
73962W        W43777  44.446   3.911   3.169
73963W        W43778  44.837  11.820  14.412
73964W        W43779   3.357  44.009   1.829
73965W        W43780  44.918  30.648   1.800
73966W        W43781  38.380  12.136  13.956
73967W        W43782  12.269  35.561  12.030
73968W        W43783  12.846  37.381  10.562
73969W        W43784  24.663  31.543   1.879
73970W        W43785  29.980  11.344  14.306
73971W        W43786  40.320  16.609   3.845
73972W        W43787  30.576   4.827   3.715
73973W        W43788   5.917  34.480  13.322
73974W        W43789  20.622   7.402  12.031
73975W        W43790  32.465  34.390   2.667
73976W        W43791  18.236  39.866   1.922
73977W        W43792  12.622   7.225  11.039
73978W        W43793  34.418   2.779  10.462
73979W        W43794   2.245  15.269  10.996
73980W        W43795   0.278  12.188   2.332
73981W        W43796  16.077  33.942  12.841
73982W        W43797   9.780  38.535   2.244
73983W        W43798  22.628   7.902  13.415
73984W        W43799  41.846  21.187   4.175
73985W        W43800  44.272  10.876  10.436
73986W        W43801  41.039  41.871  13.054
73987W        W43802  37.970   8.734  10.569
73988W        W43803  29.486  40.434   1.832
73989W        W43804  11.364   5.437  14.294
73990W        W43805   1.864  17.693  14.470
73991W        W43806  34.408  29.598  12.051
73992W        W43807  18.638  37.563   4.724
73993W        W43808  41.837  10.708   1.914
73994W        W43809  15.673  42.795  11.595
73995W        W43810  20.754   4.303  11.958
73996W        W43811  15.705  42.325  13.547
73997W        W43812   1.850  10.765  11.447
73998W        W43813  13.787  11.723  11.959
73999W        W43814  16.299  38.456   4.256
74000W        W43815  19.157   4.916  12.893
74001W        W43816   9.750  40.514  10.573
74002W        W43817   1.787  27.999  10.910
74003W        W43818   4.432  20.665  11.596
74004W        W43819  28.453  30.950  13.052
74005W        W43820  28.671  38.041  14.986
74006W        W43821  34.060  17.572   3.220
74007W        W43822  28.047   5.313   4.774
74008W        W43823  16.191  43.917  12.470
74009W        W43824  18.585   5.321  10.579
74010W        W43825   9.162  42.843  13.533
74011W        W43826  11.842  20.039  14.348
74012W        W43827   8.404  38.325  10.533
74013W        W43828  18.172   7.675  14.936
74014W        W43829  34.059  36.577   4.663
74015W        W43830   3.766   0.851   1.823
74016W        W43831  13.285  24.086   1.854
74017W        W43832  42.439  33.029  10.512
74018W        W43833   3.309  32.448   1.218
74019W        W43834  22.088  16.773  14.884
74020W        W43835  37.938  15.083   4.701
74021W        W43836  27.460  17.601  14.904
74022W        W43837   9.248  34.070   1.885
74023W        W43838  35.081  40.463  14.314
74024W        W43839  33.998  20.243   1.905
74025W        W43840  20.070   7.845  12.846
74026W        W43841   3.871  27.685   0.341
74027W        W43842  28.140   9.854   2.371
74028W        W43843  40.474  42.455  11.422
74029W        W43844   9.855  34.416   0.409
74030W        W43845   6.707  30.102  14.980
74031W        W43846   9.215   0.433   0.917
74032W        W43847   1.748  32.513  13.918
74033W        W43848  26.019  28.453   4.743
74034W        W43849  21.699  19.600   0.414
74035W        W43850  37.029  38.374   3.254
74036W        W43851   8.187  20.674   2.224
74037W        W43852  32.593   8.217   3.232
74038W        W43853  13.164  36.555  12.962
74039W        W43854  16.095   7.174   0.244
74040W        W43855  16.633  42.940   1.738
74041W        W43856  12.793   8.345  11.596
74042W        W43857  40.852   0.871  14.905
74043W        W43858   6.706   8.826   2.203
74044W        W43859  22.095   9.692   1.834
74045W        W43860   9.887  19.748   0.909
74046W        W43861  44.328  19.626   4.120
74047W        W43862  31.564   9.882   2.299
74048W        W43863  43.890  37.479   1.427
74049W        W43864  10.727  31.067  14.935
74050W        W43865  13.622   5.921  14.859
74051W        W43866  31.646   7.408   0.445
74052W        W43867  35.091  33.131   1.915
74053W        W43868   2.868  28.138   1.720
74054W        W43869  16.700  24.584  10.497
74055W        W43870  12.244  40.327   3.383
74056W        W43871  44.493  12.156   2.232
74057W        W43872   3.343  24.680  13.943
74058W        W43873  36.974  32.099  13.994
74059W        W43874  18.096  35.471  11.907
74060W        W43875  40.992  24.537  14.429
74061W        W43876  18.210  19.273   0.254
74062W        W43877  42.939   3.301   3.735
74063W        W43878  37.866   9.778  10.904
74064W        W43879  10.290  31.104   3.743
74065W        W43880  43.438   7.788   4.760
74066W        W43881   4.376  35.447  13.482
74067W        W43882   2.764  39.880   2.823
74068W        W43883   6.890  26.599   4.795
74069W        W43884   7.742  16.614   4.751
74070W        W43885  29.580  44.304  10.972
74071W        W43886  26.956   9.167  10.526
74072W        W43887  14.286  35.953   2.342
74073W        W43888  25.635  15.725  12.444
74074W        W43889  38.064   6.419   4.281
74075W        W43890   4.409  26.540  11.055
74076W        W43891  14.642   5.337  12.391
74077W        W43892   4.344  13.830   3.198
74078W        W43893  39.461   0.898  11.498
74079W        W43894   2.284  30.010   3.782
74080W        W43895  19.665   1.367   2.742
74081W        W43896   5.235  26.977   0.363
74082W        W43897  31.539   0.428  14.007
74083W        W43898  25.541  22.502  14.992
74084W        W43899  14.099  41.033  10.514
74085W        W43900  36.025  35.964  14.794
74086W        W43901  30.081  22.573  14.862
74087W        W43902  16.794  28.091   4.827
74088W        W43903  26.583  10.861   0.963
74089W        W43904   3.387  31.961   2.804
74090W        W43905  20.602  33.482  12.356
74091W        W43906   6.384  35.099  13.921
74092W        W43907  11.270   5.811   3.743
74093W        W43908  26.064   4.826   2.254
74094W        W43909  33.912  28.936   4.688
74095W        W43910  40.420  43.805   2.255
74096W        W43911  32.038  16.095   2.783
74097W        W43912   7.232   5.288  14.427
74098W        W43913  43.375  31.574  11.071
74099W        W43914  41.811  31.596   2.746
74100W        W43915  36.077  29.480  12.484
74101W        W43916  19.130  17.698   1.833
74102W        W43917  18.081  34.093   1.870
74103W        W43918  22.675  43.849   5.306
74104W        W43919  23.512  10.640   0.296
74105W        W43920  15.272  39.528  13.326
74106W        W43921  27.101  12.330   5.121
74107W        W43922  40.849  42.370  11.516
74108W        W43923  18.680  32.100   2.831
74109W        W43924  11.635  25.966  11.374
74110W        W43925  17.689  33.626  13.842
74111W        W43926  21.234  33.568  12.004
74112W        W43927   6.742  11.835   1.445
74113W        W43928  29.999  15.754  11.525
74114W        W43929  42.290  40.005   0.249
74115W        W43930  32.887   0.894   1.220
74116W        W43931  31.500  30.936   0.475
74117W        W43932   6.689  42.866  12.359
74118W        W43933  26.167  42.960  11.520
74119W        W43934  10.826  24.014   2.222
74120W        W43935  14.326  22.114   1.290
74121W        W43936  31.917   7.767   5.087
74122W        W43937  38.520  27.173   3.806
74123W        W43938   9.183  26.667   1.788
74124W        W43939  27.017  34.115   0.796
74125W        W43940   5.861  40.475   0.402
74126W        W43941  32.984  27.585  12.966
74127W        W43942  10.669   8.855  12.441
74128W        W43943  21.134  36.995   0.245
74129W        W43944   5.297   9.887   0.314
74130W        W43945   3.216  25.156   2.404
74131W        W43946  36.512  31.150   4.242
74132W        W43947  19.065  36.369   4.350
74133W        W43948  33.400  14.098   4.205
74134W        W43949  10.730  20.150   3.289
74135W        W43950  33.115  27.636  14.350
74136W        W43951  12.655  16.175  14.345
74137W        W43952  26.527  16.176  13.467
74138W        W43953  32.468   4.330   4.746
74139W        W43954   7.413  17.154   0.797
74140W        W43955  24.494  11.193   3.666
74141W        W43956  30.487  30.620  13.026
74142W        W43957  39.886  39.452  11.858
74143W        W43958  26.683  11.229   1.766
74144W        W43959   2.291   1.259   4.320
74145W        W43960  10.228   4.405   1.348
74146W        W43961  21.709  19.664  13.374
74147W        W43962   9.716  18.123  11.997
74148W        W43963  33.441   0.959  11.886
74149W        W43964   3.255  12.729   4.660
74150W        W43965  38.426  43.503  11.951
74151W        W43966  19.761  30.946  11.439
74152W        W43967  39.491  19.624  14.432
74153W        W43968  30.986  18.726  11.066
74154W        W43969  11.173  23.605   0.775
74155W        W43970  19.737   8.661  10.895
74156W        W43971   5.404  28.524  12.894
74157W        W43972  19.727   2.740   2.269
74158W        W43973  41.957   2.444  11.128
74159W        W43974  13.648  35.535   1.891
74160W        W43975   4.703   9.769   0.763
74161W        W43976  20.133  15.156   1.314
74162W        W43977  37.060  15.084   2.235
74163W        W43978  17.660   1.773   4.175
74164W        W43979  19.617  34.929   0.829
74165W        W43980   1.958   7.771  12.892
74166W        W43981  25.567   2.832   3.383
74167W        W43982  42.925   8.245  12.894
74168W        W43983  30.524  28.976   3.694
74169W        W43984  41.449  33.461   0.441
74170W        W43985  16.792   2.783   4.714
74171W        W43986   8.372   7.360   3.666
74172W        W43987   0.293  32.999   1.923
74173W        W43988  33.909  20.755   0.303
74174W        W43989   6.410   6.388   3.150
74175W        W43990  37.836  11.855   2.857
74176W        W43991  19.671   8.677   1.409
74177W        W43992   7.692  35.895   4.159
74178W        W43993  16.616  32.621  11.983
74179W        W43994  43.821  27.601  13.443
74180W        W43995  11.311   7.270  13.946
74181W        W43996   3.726  29.168   0.782
74182W        W43997  25.088  41.421   1.728
74183W        W43998   1.771  28.677  12.064
74184W        W43999  13.798   1.927  11.384
74185W        W44000  13.815  18.264   0.479
74186W        W44001  19.102  19.226   3.221
74187W        W44002  18.617  18.189   3.147
74188W        W44003  14.306  13.705  11.035
74189W        W44004  38.532  40.480  14.014
74190W        W44005  10.280  18.200  14.929
74191W        W44006  19.770   6.339   0.475
74192W        W44007  28.654  33.905  11.102
74193W        W44008  28.121  33.379   1.308
74194W        W44009  27.021  32.039  10.437
74195W        W44010  11.760  38.514   4.660
74196W        W44011   0.471  35.456  14.804
74197W        W44012  35.955  19.072  11.895
74198W        W44013  14.214  34.450  13.958
74199W        W44014  41.905  23.092   3.656
74200W        W44015  13.834   9.220  14.836
74201W        W44016  44.485  15.612   3.812
74202W        W44017   4.804   5.754  14.478
74203W        W44018  10.760  35.494  13.037
74204W        W44019  26.954   7.302  12.911
74205W        W44020  11.274  37.390   2.273
74206W        W44021  24.117  27.189  10.413
74207W        W44022  28.056  15.660   5.114
74208W        W44023   1.830   3.219  10.989
74209W        W44024   7.346  32.963   2.827
74210W        W44025  19.565  38.963  12.057
74211W        W44026  18.603   6.220  13.486
74212W        W44027  40.812   3.933  13.424
74213W        W44028  36.470  39.869  13.385
74214W        W44029   1.745  11.248   0.892
74215W        W44030   4.725   1.412   4.826
74216W        W44031  15.083  42.438   3.284
74217W        W44032  23.027  15.268   1.879
74218W        W44033  38.011  27.122  12.825
74219W        W44034  30.063   1.446   0.905
74220W        W44035  20.098  13.134   0.431
74221W        W44036  18.696  39.977  12.895
74222W        W44037  27.093  34.087   3.838
74223W        W44038  10.296  14.304   2.339
74224W        W44039  37.436  38.910  13.387
74225W        W44040  21.061  17.616  12.923
74226W        W44041   9.343  26.510   4.690
74227W        W44042  18.643   3.250   1.748
74228W        W44043  26.690  41.479  14.292
74229W        W44044  44.331  35.602   1.735
74230W        W44045   2.879  30.629   3.312
74231W        W44046  15.788  19.123   3.282
74232W        W44047  44.317   9.228  13.882
74233W        W44048  26.534   9.274   1.900
74234W        W44049  30.426  24.087   2.842
74235W        W44050   0.443   4.739  11.534
74236W        W44051  34.427  44.002  14.853
74237W        W44052  10.815  20.700   0.944
74238W        W44053  27.005  26.587  13.547
74239W        W44054  32.986  40.953   3.855
74240W        W44055   6.835  27.040  13.513
74241W        W44056   3.235   3.760  11.072
74242W        W44057  19.210  18.676   3.264
74243W        W44058   1.408  16.262  14.030
74244W        W44059   5.426  34.380   0.275
74245W        W44060   9.757  34.466   3.633
74246W        W44061   9.788  25.032  12.991
74247W        W44062   3.947  15.637   1.810
74248W        W44063  42.497  36.396  13.799
74249W        W44064  39.008  14.273   4.319
74250W        W44065  27.604  28.169  13.506
74251W        W44066   5.330  14.725   2.750
74252W        W44067   8.665  25.588  10.497
74253W        W44068  18.132  16.072  11.912
74254W        W44069  10.349  26.558  12.071
74255W        W44070  41.799   9.245  12.085
74256W        W44071  16.101  43.849   0.831
74257W        W44072  12.160  24.537   0.859
74258W        W44073  14.833   4.370   0.906
74259W        W44074  10.262   3.829   2.715
74260W        W44075  25.187  43.921   4.282
74261W        W44076  24.054   9.318   3.329
74262W        W44077  39.942  16.773   2.395
74263W        W44078  19.192   5.911  14.297
74264W        W44079  31.580  43.488   1.388
74265W        W44080  21.241  23.110  10.409
74266W        W44081  17.275  41.797  12.579
74267W        W44082  44.471  30.040   0.958
74268W        W44083  12.777  28.679  11.045
74269W        W44084  10.140  37.077   3.711
74270W        W44085  16.133  42.314  14.414
74271W        W44086  34.615  10.255   1.713
74272W        W44087   3.950  42.813  11.426
74273W        W44088  15.711   1.429   1.902
74274W        W44089  14.221  14.110  10.920
74275W        W44090  20.571  39.045   9.932
74276W        W44091  23.602   1.277  11.509
74277W        W44092  14.255  28.068   3.287
74278W        W44093  26.558  23.736   0.911
74279W        W44094  12.804  14.293  13.488
74280W        W44095   4.849  29.549   2.233
74281W        W44096  10.703  22.704   2.252
74282W        W44097  12.706  21.565  11.055
74283W        W44098  41.011   6.754  12.937
74284W        W44099  17.218   1.957   1.906
74285W        W44100  38.559   7.318   4.788
74286W        W44101   6.373  32.515  13.529
74287W        W44102  11.204  38.918   4.179
74288W        W44103   3.380  33.987   1.216
74289W        W44104   7.711  35.960  13.944
74290W        W44105   0.488   4.288   4.629
74291W        W44106   9.173  14.223   5.312
74292W        W44107   5.788  15.676  10.585
74293W        W44108  24.128  23.643  12.875
74294W        W44109  16.667  10.278  11.520
74295W        W44110  13.812  43.347   4.298
74296W        W44111  10.701  18.697   2.279
74297W        W44112  37.036   7.736  11.048
74298W        W44113  11.244  17.184   1.789
74299W        W44114  19.126  25.561  12.914
74300W        W44115  43.892  17.246   3.188
74301W        W44116  12.179  38.055  13.869
74302W        W44117  40.913  21.752  13.955
74303W        W44118  12.185   3.417  14.390
74304W        W44119  29.460  41.896  12.868
74305W        W44120   0.264   8.811  12.524
74306W        W44121   0.309  17.797   2.865
74307W        W44122  12.755  33.551  11.984
74308W        W44123  44.392  25.219  10.406
74309W        W44124  29.085  35.586  14.508
74310W        W44125  39.462  29.560   2.887
74311W        W44126  22.054  19.073  14.976
74312W        W44127  16.191  16.112   2.403
74313W        W44128  17.295   7.712   0.849
74314W        W44129  29.062   7.911  10.934
74315W        W44130  39.495   9.175  11.105
74316W        W44131  29.161   2.320  12.059
74317W        W44132  11.726  14.330  14.410
74318W        W44133  23.724  34.038  14.286
74319W        W44134   4.916   9.321   0.864
74320W        W44135  25.092  22.074   3.798
74321W        W44136  24.064   4.824  11.597
74322W        W44137  23.218  21.634  12.964
74323W        W44138  29.629   8.165  14.929
74324W        W44139  28.638  31.934   1.762
74325W        W44140  32.902  13.323  11.547
74326W        W44141  13.723  28.175   3.321
74327W        W44142  16.575   2.269  14.494
74328W        W44143   0.849  15.127  11.067
74329W        W44144  24.605  23.217  12.403
74330W        W44145  24.602  30.489   4.255
74331W        W44146  37.086   2.292   2.228
74332W        W44147   0.279   5.797   2.319
74333W        W44148  39.406   3.893   0.760
74334W        W44149  12.128   5.274   3.785
74335W        W44150  30.549  42.945   3.667
74336W        W44151  11.780  28.143   3.665
74337W        W44152  23.588   8.206  14.791
74338W        W44153  30.023  27.006   0.337
74339W        W44154  18.283  17.567  12.555
74340W        W44155  24.056  10.725  14.363
74341W        W44156   0.814  28.120   2.731
74342W        W44157  11.335  44.305   1.907
74343W        W44158  42.870   4.900  10.930
74344W        W44159   0.941  17.271   3.312
74345W        W44160  43.797  11.167   1.694
74346W        W44161  10.760  19.047   1.349
74347W        W44162   6.682   2.747   2.757
74348W        W44163  19.173  30.643   0.870
74349W        W44164  34.436  10.659  10.528
74350W        W44165  31.896  27.157   4.718
74351W        W44166  13.164  28.126   4.179
74352W        W44167  36.926  11.775   0.465
74353W        W44168   9.751  25.533   3.204
74354W        W44169  27.656  18.755   0.377
74355W        W44170  20.703  28.529   3.251
74356W        W44171  21.573  41.383   0.747
74357W        W44172  42.978  22.565  13.542
74358W        W44173  35.556  35.852  14.449
74359W        W44174  25.047  23.685   0.890
74360W        W44175  32.587  27.552  10.898
74361W        W44176  36.029   8.267  11.597
74362W        W44177  21.223  34.495   0.412
74363W        W44178   3.793  35.414   0.314
74364W        W44179  43.832  19.766   1.430
74365W        W44180  11.800  21.102   4.839
74366W        W44181  36.571   1.416   1.236
74367W        W44182  43.825   0.752  11.015
74368W        W44183  28.982  37.459   4.191
74369W        W44184   7.870  36.575  11.914
74370W        W44185   4.882   5.749  12.449
74371W        W44186   2.953  33.037   3.258
74372W        W44187   8.201  31.904   1.274
74373W        W44188   7.743  23.085  12.962
74374W        W44189   9.673  20.584   4.701
74375W        W44190  20.665  34.405  13.481
74376W        W44191   5.693   6.843   0.754
74377W        W44192  17.163  33.382  13.975
74378W        W44193  40.847  12.625   4.172
74379W        W44194  12.145  28.463   0.383
74380W        W44195  10.865  31.033   0.298
74381W        W44196  28.092   3.762   2.302
74382W        W44197  29.058   6.350  10.930
74383W        W44198  25.572  24.711  14.445
74384W        W44199  12.844  26.524   2.801
74385W        W44200  11.660  35.455   1.413
74386W        W44201  23.123  32.622  13.791
74387W        W44202  22.728  44.937  14.404
74388W        W44203   3.871  20.765  13.924
74389W        W44204  39.356  36.845   2.279
74390W        W44205  11.144  26.653   4.727
74391W        W44206   7.883  34.581  13.521
74392W        W44207   9.346  11.266   2.287
74393W        W44208   3.807  30.060  11.475
74394W        W44209  12.359  10.331   2.322
74395W        W44210   7.910   9.740   1.298
74396W        W44211  38.355  19.160  14.025
74397W        W44212  24.226   7.773   4.284
74398W        W44213  10.319  12.129   1.390
74399W        W44214  14.783  36.477   2.737
74400W        W44215  10.831  15.258   2.691
74401W        W44216  39.854  20.667  13.516
74402W        W44217  25.475   8.398   3.697
74403W        W44218  27.582   3.846  13.968
74404W        W44219  18.191  22.110  13.884
74405W        W44220  20.249  44.436  11.610
74406W        W44221   4.355   7.310  10.421
74407W        W44222  44.343  40.424  14.862
74408W        W44223  31.619  21.102   3.309
74409W        W44224  32.994  39.557  14.278
74410W        W44225  20.054  40.021  12.571
74411W        W44226  27.576  20.030  10.931
74412W        W44227  31.103  26.657   5.083
74413W        W44228  12.852  35.570   4.352
74414W        W44229   5.923   8.380   4.248
74415W        W44230   8.896  31.572   4.302
74416W        W44231   5.338  44.484  14.882
74417W        W44232   6.264  35.982   2.181
74418W        W44233  11.755  18.777   3.720
74419W        W44234  32.440  28.982  13.878
74420W        W44235   7.795  44.309  13.835
74421W        W44236  40.404  13.166  12.035
74422W        W44237  38.501  12.847  12.941
74423W        W44238  13.824  33.550   4.172
74424W        W44239  28.041  27.463  12.534
74425W        W44240  14.135  42.826   1.778
74426W        W44241  26.205  44.363   3.675
74427W        W44242  14.735  39.814   3.689
74428W        W44243  43.481  20.124  13.426
74429W        W44244   9.215   1.328   0.909
74430W        W44245  39.417  11.225  14.282
74431W        W44246  17.274  19.227   0.762
74432W        W44247  33.598  38.063   3.225
74433W        W44248   8.691  39.476  12.579
74434W        W44249  15.128  38.340  11.905
74435W        W44250  27.043  23.042   0.822
74436W        W44251  19.591  27.146  13.510
74437W        W44252  15.328  35.949   0.374
74438W        W44253  19.620  27.670  13.858
74439W        W44254  29.934   3.418   0.430
74440W        W44255  11.213  36.443  13.423
74441W        W44256  30.011  43.353   1.374
74442W        W44257  34.876  43.863   1.875
74443W        W44258  34.583   1.947   1.887
74444W        W44259   3.388  44.989   3.842
74445W        W44260  18.635  19.731  11.039
74446W        W44261  21.539  30.508   3.229
74447W        W44262  21.757  37.966  14.948
74448W        W44263  21.236  23.197   5.278
74449W        W44264  44.971  42.492   2.738
74450W        W44265  20.537  25.654  13.845
74451W        W44266  17.068   4.753   3.692
74452W        W44267  43.839  44.281   1.403
74453W        W44268  32.627  25.675  13.328
74454W        W44269  17.067  25.108   9.928
74455W        W44270  21.149  10.723   1.215
74456W        W44271  38.532   9.386  13.345
74457W        W44272  10.693  19.640  13.958
74458W        W44273   7.785  17.191  14.875
74459W        W44274   9.886   4.317   1.726
74460W        W44275  12.351   5.385  12.076
74461W        W44276   5.806   4.859   1.243
74462W        W44277  40.820  38.373   1.794
74463W        W44278  16.206  24.488   0.778
74464W        W44279  19.564  26.197  13.511
74465W        W44280  39.058   6.791   2.782
74466W        W44281   5.830  33.078  10.511
74467W        W44282  28.518  14.194  13.330
74468W        W44283  25.551  32.997  12.362
74469W        W44284   8.278  12.832  12.080
74470W        W44285  34.540  30.559  11.100
74471W        W44286  38.568   7.774   3.828
74472W        W44287  19.145  21.618   4.182
74473W        W44288  10.678  36.051  14.428
74474W        W44289  12.727  11.758   3.785
74475W        W44290  10.274  21.161  14.919
74476W        W44291  19.262  13.296   0.952
74477W        W44292   3.280   3.312  13.995
74478W        W44293  41.335  32.962  11.909
74479W        W44294  13.697   6.912   0.478
74480W        W44295  32.991  23.492   3.841
74481W        W44296  10.638  43.943   2.326
74482W        W44297  27.121   5.387  10.578
74483W        W44298   1.860  28.655   0.376
74484W        W44299   2.907   5.864  12.899
74485W        W44300   4.420  31.108  14.368
74486W        W44301  22.243  44.853  12.427
74487W        W44302  41.403   8.173  11.587
74488W        W44303  13.140  38.927  14.862
74489W        W44304   2.385  10.326   3.191
74490W        W44305  37.081   6.714   0.351
74491W        W44306  18.278  27.047   1.368
74492W        W44307  38.939  21.513  11.951
74493W        W44308  39.055  14.177   0.455
74494W        W44309  23.190   5.742   0.302
74495W        W44310  21.214  23.185  13.837
74496W        W44311  11.686   2.228  12.975
74497W        W44312  38.411  37.896   0.329
74498W        W44313   3.410  10.171   3.754
74499W        W44314   8.217  40.513  12.434
74500W        W44315  18.179  18.628  14.369
74501W        W44316  11.245  14.805  14.771
74502W        W44317  27.473  20.147   4.731
74503W        W44318   2.260  20.566  14.807
74504W        W44319   6.224   7.383  10.550
74505W        W44320  26.086  27.188   4.650
74506W        W44321   7.759  35.992  14.460
74507W        W44322  22.212  21.168  12.975
74508W        W44323   9.293  29.168  13.383
74509W        W44324  38.057  15.719  11.007
74510W        W44325  27.681  26.178  14.325
74511W        W44326  13.351  24.672   3.648
74512W        W44327   9.778   9.767  14.822
74513W        W44328  36.877  14.308   1.211
74514W        W44329  40.042  43.948   4.741
74515W        W44330  30.974   4.232   1.407
74516W        W44331  25.692  41.027   0.907
74517W        W44332  34.480  20.560  11.481
74518W        W44333   5.324  20.040  13.853
74519W        W44334  10.315  37.419   3.226
74520W        W44335  24.498   5.389   3.798
74521W        W44336  17.305  27.961  12.434
74522W        W44337   1.898  13.229   3.815
74523W        W44338  14.265  32.630   3.312
74524W        W44339  23.673  43.293   1.778
74525W        W44340  21.021  42.993   5.161
74526W        W44341   4.773  29.433   1.354
74527W        W44342   5.304  36.856   1.757
74528W        W44343  40.035  14.823  10.459
74529W        W44344  10.189  25.508   2.328
74530W        W44345  40.506  38.051  10.428
74531W        W44346  13.201  26.660   3.797
74532W        W44347  13.614   5.729   2.676
74533W        W44348   9.792  15.660  11.391
74534W        W44349  34.985  33.556  10.610
74535W        W44350  28.483  36.517   3.203
74536W        W44351  29.960   6.903  12.466
74537W        W44352  27.066  14.746   0.953
74538W        W44353   2.427   8.193   3.195
74539W        W44354  15.250  25.706  13.316
74540W        W44355   1.955   1.875   0.807
74541W        W44356  17.237   8.806  14.395
74542W        W44357  26.076  10.800  13.956
74543W        W44358   6.859  39.365   0.793
74544W        W44359  25.035   5.403   0.360
74545W        W44360  14.614  36.875  14.455
74546W        W44361   7.334  39.505   2.340
74547W        W44362  22.580   6.698  14.896
74548W        W44363  38.372  23.186  12.893
74549W        W44364   5.706  13.655  11.416
74550W        W44365  14.279   6.400  13.876
74551W        W44366  22.676  24.152   0.860
74552W        W44367  16.285  43.812  14.369
74553W        W44368  37.968   1.954   4.801
74554W        W44369  32.406  33.894  10.594
74555W        W44370   6.753   3.815  12.851
74556W        W44371  26.013  24.176   4.324
74557W        W44372  11.281  37.868  11.491
74558W        W44373  42.897  13.111   3.373
74559W        W44374  10.691  39.960  12.351
74560W        W44375   6.887  43.360  12.367
74561W        W44376  11.829  28.645  12.829
74562W        W44377  42.316  37.525  12.876
74563W        W44378  32.135  32.409  11.964
74564W        W44379  10.766  28.640   3.652
74565W        W44380  12.296  28.971   3.650
74566W        W44381  14.264  27.529   3.664
74567W        W44382  22.680   6.377   4.720
74568W        W44383  34.519  25.682   1.244
74569W        W44384  17.083  12.796   3.306
74570W        W44385   4.861  12.642   1.858
74571W        W44386  13.691  26.097   1.927
74572W        W44387   0.981   9.679   3.827
74573W        W44388  22.636  36.486   0.936
74574W        W44389   3.243  39.369  12.407
74575W        W44390  28.482  37.537   1.856
74576W        W44391  20.687   3.426   0.374
74577W        W44392  24.211  39.935   2.302
74578W        W44393  16.278  28.664  11.000
74579W        W44394  15.229  11.166  12.966
74580W        W44395  40.034  14.789  14.992
74581W        W44396  32.455  25.101  12.389
74582W        W44397  19.653  10.716   1.814
74583W        W44398  38.379  15.630  10.542
74584W        W44399  30.918  29.665   1.791
74585W        W44400  26.673   5.874  11.030
74586W        W44401  27.013  29.989   4.308
74587W        W44402  27.108  18.143   0.933
74588W        W44403   3.232  33.386   0.299
74589W        W44404  36.407  36.879   2.207
74590W        W44405  14.681  14.246  11.560
74591W        W44406  42.875  17.752  12.090
74592W        W44407  33.555  33.993   4.122
74593W        W44408  25.581  11.694   1.425
74594W        W44409   4.857  20.044  10.999
74595W        W44410  29.663  30.440  13.948
74596W        W44411   9.375  12.820   0.386
74597W        W44412   1.861  19.116   2.693
74598W        W44413  19.604  22.021   2.390
74599W        W44414  29.030   6.862   4.213
74600W        W44415  37.480  26.005  11.421
74601W        W44416  21.046  40.008  12.013
74602W        W44417  34.554  43.939   1.343
74603W        W44418   6.696   5.345   4.166
74604W        W44419  28.675  12.639   1.322
74605W        W44420  33.103  37.413  11.598
74606W        W44421  16.696  35.407  13.033
74607W        W44422  30.096  42.014   4.693
74608W        W44423  17.242  44.323   9.962
74609W        W44424  28.182  41.460  13.482
74610W        W44425  32.568  14.300  12.926
74611W        W44426  41.396  15.786   3.210
74612W        W44427  16.623  10.737  12.360
74613W        W44428  35.946  40.483   1.446
74614W        W44429  36.016   7.682   4.697
74615W        W44430   5.273  41.794   2.826
74616W        W44431  18.174  13.232  13.053
74617W        W44432  30.479   6.818  11.002
74618W        W44433  17.200  26.679  11.885
74619W        W44434  37.939  25.001  11.433
74620W        W44435   2.869  41.389  12.520
74621W        W44436   6.760  14.226  14.796
74622W        W44437  32.951   3.819  10.900
74623W        W44438  31.127  23.718   2.181
74624W        W44439   0.476  23.124  14.918
74625W        W44440  11.776   0.384  14.909
74626W        W44441  36.564   8.654   3.769
74627W        W44442  36.881  28.160  14.771
74628W        W44443  37.967  16.163  13.360
74629W        W44444   1.360  30.090   3.743
74630W        W44445  25.195  38.059   2.694
74631W        W44446  27.653  21.059   0.810
74632W        W44447  34.014  21.017   4.708
74633W        W44448  38.879  32.519   4.773
74634W        W44449  17.307  25.502  14.485
74635W        W44450  21.693  18.726   1.401
74636W        W44451  26.093  15.083   3.650
74637W        W44452   9.250   8.771   3.319
74638W        W44453  15.790  19.090  11.949
74639W        W44454   8.173  37.952   4.789
74640W        W44455   4.346  31.619   2.769
74641W        W44456   6.745  17.289   3.199
74642W        W44457   3.879   5.321   3.634
74643W        W44458  17.187  43.399  13.520
74644W        W44459  26.669   3.239  10.071
74645W        W44460  22.720   8.754  10.131
74646W        W44461  21.686  37.006  11.006
74647W        W44462  15.653  33.503   2.854
74648W        W44463  15.768  40.993  10.539
74649W        W44464  15.237  19.076  14.901
74650W        W44465  34.541  14.680  11.001
74651W        W44466  37.421  33.529   4.832
74652W        W44467  10.226  35.030   2.406
74653W        W44468  44.990  20.109   4.141
74654W        W44469  28.057  22.740  14.480
74655W        W44470  25.680   4.276  14.810
74656W        W44471  34.412  34.892  11.403
74657W        W44472  26.502  38.399   4.735
74658W        W44473  30.986  43.365   4.689
74659W        W44474   5.807  20.567   2.786
74660W        W44475  32.923  22.158  10.637
74661W        W44476  23.526   9.178   0.858
74662W        W44477  43.508   8.724  10.426
74663W        W44478  21.526   6.891  10.932
74664W        W44479  35.471   0.853   1.329
74665W        W44480   6.368  37.924   3.824
74666W        W44481  24.612  12.813  12.354
74667W        W44482  40.336  12.701   2.352
74668W        W44483  19.065  33.081   1.369
74669W        W44484   7.296  10.874  14.767
74670W        W44485  26.702  20.662   4.730
74671W        W44486  11.142  26.056  12.019
74672W        W44487  32.496   6.320  13.876
74673W        W44488  28.177  14.648  13.921
74674W        W44489  32.572  30.082  13.400
74675W        W44490   0.758  28.978   0.966
74676W        W44491  24.061  18.780  13.389
74677W        W44492  17.745  38.537   0.864
74678W        W44493  11.652   7.400  12.349
74679W        W44494  44.004  42.965  10.419
74680W        W44495   6.213  44.938   0.289
74681W        W44496  29.153  24.520  14.496
74682W        W44497  37.502  26.465   3.805
74683W        W44498  26.674   5.689  11.929
74684W        W44499  35.549  43.883  11.464
74685W        W44500   2.769  37.501   3.855
74686W        W44501   5.811  40.517  12.367
74687W        W44502  33.960  12.779   4.731
74688W        W44503  26.953  24.554  14.759
74689W        W44504  40.308  32.575   1.923
74690W        W44505  17.714  41.468  12.862
74691W        W44506  36.892  30.910   3.676
74692W        W44507   6.380  44.441  13.490
74693W        W44508  25.048  41.903  11.405
74694W        W44509  23.109  14.236  12.575
74695W        W44510  38.452   0.414  13.849
74696W        W44511  16.126  39.522   2.768
74697W        W44512   0.988  23.181  13.482
74698W        W44513  36.538   2.774   0.940
74699W        W44514  15.328  12.757   4.164
74700W        W44515  14.675  43.287  12.087
74701W        W44516  28.666  24.128  10.994
74702W        W44517  40.472   0.425   4.243
74703W        W44518  19.562  33.978   4.667
74704W        W44519  33.514   3.787  11.118
74705W        W44520   5.362  11.847   4.204
74706W        W44521   4.385  21.158   3.838
74707W        W44522  32.957  37.888  11.507
74708W        W44523  19.164  13.804   4.229
74709W        W44524  24.002  19.723   4.172
74710W        W44525  10.333  40.820   2.282
74711W        W44526  34.507   2.239  11.075
74712W        W44527  27.490  26.129   0.946
74713W        W44528  14.616  24.065  13.422
74714W        W44529  26.472  25.105  13.993
74715W        W44530  10.221  42.022   4.278
74716W        W44531  22.091  13.807   4.642
74717W        W44532  40.328   2.763  10.956
74718W        W44533  22.096  17.266  11.989
74719W        W44534  32.891  28.616  14.465
74720W        W44535  18.670  34.415  10.537
74721W        W44536  24.162  44.812  10.596
74722W        W44537  27.588  23.501  11.604
74723W        W44538  29.611  24.482   3.385
74724W        W44539  10.287  30.488   3.196
74725W        W44540  43.295  44.989  13.435
74726W        W44541  21.605  31.602   0.463
74727W        W44542   2.958  25.502  12.826
74728W        W44543  43.927   3.875   0.879
74729W        W44544  26.983  30.023   2.718
74730W        W44545  40.819  38.403  12.505
74731W        W44546  32.044  28.935  14.927
74732W        W44547  15.797  34.404   3.802
74733W        W44548  38.387  20.570   0.802
74734W        W44549  39.377   6.198  11.409
74735W        W44550   0.864  42.282  11.601
74736W        W44551  43.335  36.441   1.789
74737W        W44552  15.309  44.828   2.316
74738W        W44553  16.119   4.338  14.843
74739W        W44554  31.931  41.910   4.283
74740W        W44555  39.370  35.061   0.944
74741W        W44556  40.910  22.053  12.465
74742W        W44557  10.377  44.458  13.394
74743W        W44558  29.538  14.278  10.998
74744W        W44559  31.956  31.987   1.735
74745W        W44560   6.243  12.842   4.617
74746W        W44561  22.582  34.611   5.153
74747W        W44562   6.406  34.468   5.241
74748W        W44563  24.598  16.714   1.895
74749W        W44564  23.520  41.530   2.332
74750W        W44565  30.077   4.438   3.666
74751W        W44566  10.215  11.219  14.461
74752W        W44567  19.169  12.731  12.509
74753W        W44568   6.764  29.609   3.789
74754W        W44569  23.235  17.273   1.727
74755W        W44570  37.390  23.635  10.934
74756W        W44571  40.971  33.544  12.046
74757W        W44572   2.739  16.136   3.648
74758W        W44573  23.154  29.449   1.750
74759W        W44574  10.701  31.407   1.827
74760W        W44575  12.136  29.115  12.501
74761W        W44576  24.621  18.571   1.316
74762W        W44577   8.224  19.041   4.182
74763W        W44578  38.064   8.666   1.316
74764W        W44579   8.294  12.630  14.507
74765W        W44580  13.283  28.055  13.341
74766W        W44581   8.180   7.341  13.498
74767W        W44582  42.921  40.021  10.563
74768W        W44583   5.925  41.787  10.939
74769W        W44584  37.526   5.749  13.939
74770W        W44585  20.150  35.404   0.439
74771W        W44586  30.508  31.481   0.739
74772W        W44587   1.793  44.384   0.354
74773W        W44588  14.823  22.603  11.429
74774W        W44589  13.213   9.276  12.380
74775W        W44590  13.329  24.548   3.384
74776W        W44591  36.994   1.760   4.799
74777W        W44592   7.383  35.094  13.862
74778W        W44593  21.229   5.222  10.419
74779W        W44594  16.771   8.839  10.108
74780W        W44595  15.120  32.101   0.331
74781W        W44596  26.199  10.658   4.747
74782W        W44597  35.559  43.948   4.703
74783W        W44598  20.763   0.980  14.011
74784W        W44599  32.580  14.138  10.437
74785W        W44600  21.257   6.724   0.457
74786W        W44601  43.486   8.383   4.182
74787W        W44602  31.599  34.913  11.570
74788W        W44603  13.288  43.935  14.914
74789W        W44604  38.035  16.799   3.148
74790W        W44605   6.896  13.712   4.643
74791W        W44606   2.840  35.571   4.830
74792W        W44607  38.435  30.144   0.296
74793W        W44608  24.994  32.031   4.311
74794W        W44609  19.607  12.715  13.360
74795W        W44610  36.560  29.976  10.949
74796W        W44611  10.657  29.590  10.082
74797W        W44612  14.192  40.493  11.898
74798W        W44613   6.882   6.398  14.902
74799W        W44614  24.000  41.822  10.627
74800W        W44615  26.159  30.072  13.003
74801W        W44616  20.707   0.453  10.977
74802W        W44617  21.611  19.212  10.527
74803W        W44618   4.752  22.626  12.535
74804W        W44619  20.040   6.782  10.942
74805W        W44620  34.583  43.818  12.413
74806W        W44621   4.377  20.033  11.878
74807W        W44622   2.734  31.426  10.912
74808W        W44623  38.959  29.095  12.020
74809W        W44624  14.242   4.880   2.858
74810W        W44625  23.995  17.612   3.780
74811W        W44626  43.358  29.943   1.280
74812W        W44627  31.638  26.178   1.728
74813W        W44628   9.223  31.993  12.068
74814W        W44629   0.271  44.425   2.744
74815W        W44630  14.280  26.496  10.497
74816W        W44631  29.969   2.229   2.863
74817W        W44632  14.770   7.713  11.099
74818W        W44633  43.963  17.697   4.634
74819W        W44634  15.246  33.125  14.376
74820W        W44635  25.589  39.815   4.113
74821W        W44636   5.762   7.371  13.806
74822W        W44637  34.076  32.491   1.819
74823W        W44638  11.174  35.569   1.381
74824W        W44639  17.175  21.579  12.524
74825W        W44640  16.711   2.303  13.896
74826W        W44641  23.581  41.862   4.316
74827W        W44642  26.532  18.782   3.368
74828W        W44643  33.125   7.172   1.226
74829W        W44644  42.367   9.157   0.284
74830W        W44645  19.762  38.844  10.917
74831W        W44646  30.092  42.893   4.764
74832W        W44647  11.831  40.516  14.445
74833W        W44648  34.915  21.673  10.465
74834W        W44649  23.191   6.686   4.167
74835W        W44650  36.469   0.886   0.442
74836W        W44651  15.693  12.766  14.436
74837W        W44652  27.046   5.246   3.826
74838W        W44653  38.924  14.160  14.319
74839W        W44654  24.542  24.508   0.925
74840W        W44655  41.411  39.471  12.925
74841W        W44656  25.611   4.268   0.764
74842W        W44657  26.506   7.219  13.469
74843W        W44658  22.514  22.555  13.335
74844W        W44659   5.811  25.053   0.272
74845W        W44660  27.573  38.028  11.022
74846W        W44661  19.249  21.197   1.398
74847W        W44662   4.700  14.273   0.295
74848W        W44663   8.345   4.252  14.784
74849W        W44664  40.878  34.966   0.478
74850W        W44665  43.017  10.344   3.195
74851W        W44666  18.635  10.329   3.726
74852W        W44667  30.563   0.796   0.349
74853W        W44668  25.482  23.556   5.118
74854W        W44669   8.285   4.731   0.926
74855W        W44670  29.517   3.404   3.293
74856W        W44671  25.192  12.687  11.513
74857W        W44672  34.040  29.516   3.837
74858W        W44673  35.990  24.528  14.844
74859W        W44674  38.479  37.941   3.755
74860W        W44675  22.644  39.523  13.827
74861W        W44676  27.983  30.912  13.375
74862W        W44677  22.544  21.106   5.207
74863W        W44678  44.393  20.229  11.518
74864W        W44679  23.153   3.800  14.910
74865W        W44680  27.509  15.602  13.975
74866W        W44681  34.574  37.346  13.987
74867W        W44682   0.362  44.432   4.795
74868W        W44683  15.809   7.326  11.118
74869W        W44684  44.469  38.556  13.495
74870W        W44685  28.478  25.641   3.360
74871W        W44686   6.412  14.138   2.321
74872W        W44687  30.615  11.766   2.684
74873W        W44688  22.537  14.723   4.162
74874W        W44689  13.780   6.773   3.372
74875W        W44690  40.393  40.489   4.628
74876W        W44691  21.756  23.565   2.264
74877W        W44692  24.556  25.592  14.397
74878W        W44693  28.530  13.724   4.113
74879W        W44694  38.376  30.566   0.837
74880W        W44695  29.992   2.237   0.733
74881W        W44696  31.913  18.270   3.324
74882W        W44697  43.941  16.238   4.147
74883W        W44698  10.327  29.046  12.463
74884W        W44699  35.896  22.593   3.796
74885W        W44700   7.774   5.292  11.076
74886W        W44701  44.415  34.396   0.314
74887W        W44702  26.000  43.443   2.666
74888W        W44703  40.314  10.183  10.495
74889W        W44704  21.153  40.907  14.789
74890W        W44705   7.415   9.810  13.866
74891W        W44706  37.499  10.376   2.311
74892W        W44707  21.708  21.149   0.415
74893W        W44708  15.261  17.131  14.818
74894W        W44709  12.752  26.473  13.034
74895W        W44710  38.013  39.979  14.370
74896W        W44711  11.794  29.010   0.841
74897W        W44712   8.194  36.364  13.353
74898W        W44713  25.669  21.584  11.597
74899W        W44714  15.705  17.238   3.866
74900W        W44715   8.201  40.820  13.538
74901W        W44716  31.984  39.416   4.780
74902W        W44717  28.606  15.676  14.788
74903W        W44718  43.887  18.671  12.366
74904W        W44719  34.120  16.146   3.731
74905W        W44720   7.287  11.861   3.637
74906W        W44721  44.284  15.210   0.243
74907W        W44722  15.324  34.547   1.424
74908W        W44723  22.562  41.456  12.578
74909W        W44724   1.858  18.704  10.518
74910W        W44725  10.662  32.580   4.692
74911W        W44726  44.333  42.481   2.789
74912W        W44727  32.897  25.087  14.485
74913W        W44728   5.209  19.621   0.433
74914W        W44729  30.656  38.822  12.969
74915W        W44730  42.017  26.615   4.661
74916W        W44731  36.890   5.399   3.709
74917W        W44732  25.701  14.286   3.322
74918W        W44733   1.340  26.596   3.368
74919W        W44734  43.453  26.135  14.802
74920W        W44735  35.896  19.721  12.072
74921W        W44736  22.096   7.396   0.751
74922W        W44737   9.783  15.795  13.963
74923W        W44738  32.091   1.786  12.397
74924W        W44739  38.869   4.393  10.939
74925W        W44740  38.407  40.400  10.985
74926W        W44741  41.352   2.777   1.396
74927W        W44742  27.490  36.383   0.737
74928W        W44743  27.957  24.724   3.354
74929W        W44744  12.358  34.878  11.910
74930W        W44745   2.915  29.453  14.283
74931W        W44746  25.985  30.616   1.920
74932W        W44747  12.323   2.881   1.933
74933W        W44748  29.078  12.138  11.010
74934W        W44749  31.133  12.657   1.328
74935W        W44750  26.077  29.038   4.327
74936W        W44751  31.433  19.251   3.663
74937W        W44752  36.465  28.074  13.830
74938W        W44753  38.017  42.935   2.378
74939W        W44754   5.237  35.502  10.995
74940W        W44755  17.105  33.389  12.500
74941W        W44756  24.184  11.668   0.394
74942W        W44757  42.396  41.302   3.340
74943W        W44758  10.707  40.423  13.826
74944W        W44759  31.042  44.467  14.950
74945W        W44760  15.108  32.635   1.931
74946W        W44761  12.321  28.442   4.624
74947W        W44762  29.668  33.516  14.321
74948W        W44763   6.764  44.466  11.053
74949W        W44764  42.776  27.635  11.380
74950W        W44765   1.771  13.715   1.928
74951W        W44766  24.713  31.960   0.400
74952W        W44767  20.665  16.258   2.357
74953W        W44768  14.765  20.751  10.922
74954W        W44769  25.533  37.063  11.540
74955W        W44770  17.576  41.430   1.316
74956W        W44771  27.522  26.646   2.189
74957W        W44772  15.659  13.688   1.222
74958W        W44773  36.935   6.360   4.722
74959W        W44774  16.157  27.030   4.255
74960W        W44775  19.118   0.492  13.033
74961W        W44776  35.449  30.141   2.220
74962W        W44777  42.991  22.581   0.824
74963W        W44778  23.113  42.876  10.890
74964W        W44779  13.800  11.232   0.451
74965W        W44780  41.459   7.836  14.888
74966W        W44781  25.096   5.690   0.843
74967W        W44782  27.950   5.723   2.721
74968W        W44783  25.021  42.325  10.954
74969W        W44784  29.652  43.491  11.437
74970W        W44785  35.476  24.714   3.260
74971W        W44786  13.270  32.981  11.101
74972W        W44787   7.328  41.026   4.754
74973W        W44788   9.761  34.056   3.729
74974W        W44789   3.419   9.349  10.611
74975W        W44790   2.786   1.437   2.837
74976W        W44791  32.968   7.370   2.185
74977W        W44792  12.336  40.496   4.138
74978W        W44793   2.868  44.991   3.319
74979W        W44794   8.369  21.253  11.448
74980W        W44795  37.862   5.302  14.854
74981W        W44796   5.852   6.745  12.082
74982W        W44797  33.111  22.599  11.109
74983W        W44798  16.233  44.362  13.905
74984W        W44799  36.062   2.435  12.500
74985W        W44800   8.362  41.488   2.339
74986W        W44801   9.388  40.008  11.593
74987W        W44802  42.376  44.834  11.020
74988W        W44803  18.277  35.405  11.394
74989W        W44804   1.362  32.522   3.149
74990W        W44805  32.018   0.978  14.916
74991W        W44806  27.592  10.344  10.951
74992W        W44807  15.087  40.391   4.698
74993W        W44808  12.358  10.147  12.356
74994W        W44809  38.929  18.759  11.858
74995W        W44810   3.324  27.064  14.290
74996W        W44811  20.717   1.909  12.870
74997W        W44812   7.850  35.107   1.827
74998W        W44813  31.621  19.041   0.777
74999W        W44814   1.778  40.483   1.290
75000W        W44815   2.773   8.336   0.462
75001W        W44816  34.413  12.120   4.616
75002W        W44817  12.269  21.581  12.386
75003W        W44818  31.553  25.507   2.314
75004W        W44819  37.550   4.745  12.932
75005W        W44820  22.240  10.261  13.404
75006W        W44821  37.434  19.543  13.052
75007W        W44822  23.521  24.054   1.420
75008W        W44823   9.278  30.524   3.199
75009W        W44824  38.410  38.041   0.746
75010W        W44825  29.513  32.493  13.890
75011W        W44826  35.372   8.266   4.198
75012W        W44827  43.358  26.659   1.900
75013W        W44828   8.774  16.216  12.415
75014W        W44829  40.463   7.904   0.292
75015W        W44830   1.871  15.211   4.319
75016W        W44831  12.154  34.426  11.407
75017W        W44832   9.207   3.248   3.338
75018W        W44833   6.843  28.008  13.820
75019W        W44834  18.245  36.563  12.940
75020W        W44835  31.924  41.923   0.464
75021W        W44836  44.906  32.948   3.275
75022W        W44837  18.297   6.860   4.260
75023W        W44838  29.441  38.031   3.246
75024W        W44839  23.696   6.193   1.443
75025W        W44840  11.164  11.730  12.351
75026W        W44841  29.037  12.808  10.467
75027W        W44842  23.559  17.268  13.871
75028W        W44843   3.925  12.320  14.022
75029W        W44844  14.734  31.053  13.443
75030W        W44845  41.444  41.401  14.503
75031W        W44846  41.883   6.808  13.808
75032W        W44847  30.522  22.242  13.040
75033W        W44848   2.816   6.242   2.321
75034W        W44849  26.484  10.215  11.568
75035W        W44850  17.575  36.088  11.115
75036W        W44851   0.866  44.928  11.958
75037W        W44852  43.942   9.707   4.642
75038W        W44853   3.384  14.180   4.666
75039W        W44854  10.674  16.654   0.293
75040W        W44855  22.160   6.816  13.998
75041W        W44856  38.437  21.527   0.369
75042W        W44857  21.563  10.655  12.920
75043W        W44858   3.818  21.017   3.665
75044W        W44859  25.482  20.139  11.493
75045W        W44860  33.423   0.817  14.823
75046W        W44861  15.688  39.485  12.370
75047W        W44862  35.500  33.099   4.610
75048W        W44863  35.383  13.702   2.253
75049W        W44864   5.287  25.091   1.719
75050W        W44865   0.370  14.138   3.741
75051W        W44866   4.412  26.148  14.286
75052W        W44867  42.826  15.089   3.296
75053W        W44868  27.481  27.157   2.199
75054W        W44869   6.300  18.113  12.065
75055W        W44870  24.995  23.506   3.870
75056W        W44871  42.826  41.954   0.753
75057W        W44872   7.179  34.391   1.905
75058W        W44873   6.837  16.716   3.652
75059W        W44874   1.407  41.375   1.835
75060W        W44875  42.503  33.524   0.727
75061W        W44876  19.132  20.585   4.187
75062W        W44877  40.309  33.387  12.030
75063W        W44878  11.354  42.369   4.305
75064W        W44879  20.721  36.485  14.394
75065W        W44880   4.858  14.272  11.381
75066W        W44881   2.796  33.555  14.393
75067W        W44882  35.026  30.949   0.382
75068W        W44883  13.605  13.209   1.435
75069W        W44884   4.326  42.987  12.530
75070W        W44885   3.431  15.716   2.289
75071W        W44886  37.560  39.479  14.407
75072W        W44887  31.401   5.265  12.037
75073W        W44888   4.814  26.564  10.072
75074W        W44889   7.390  43.883   1.265
75075W        W44890   5.438  26.169   3.160
75076W        W44891  28.572  29.942   3.789
75077W        W44892  43.424  32.108   1.231
75078W        W44893  28.611   0.463  12.841
75079W        W44894  26.179  18.276  11.435
75080W        W44895   9.324  31.558  14.000
75081W        W44896  23.118  22.717  13.827
75082W        W44897  40.003   3.343   2.372
75083W        W44898  19.201  41.017  14.302
75084W        W44899   5.714  22.029  12.412
75085W        W44900   3.278   6.228   0.462
75086W        W44901  43.303  31.052   0.283
75087W        W44902   8.654   6.288  13.870
75088W        W44903   7.313  17.085   1.307
75089W        W44904  28.577   9.765  12.042
75090W        W44905  12.142  42.494  12.472
75091W        W44906   5.740  14.229   2.864
75092W        W44907  18.091   0.397  11.026
75093W        W44908  34.937  39.878  11.104
75094W        W44909  10.303  42.891  12.447
75095W        W44910  11.161  26.010  11.424
75096W        W44911  43.814  11.719   1.850
75097W        W44912  37.343   8.339  10.977
75098W        W44913  23.502  34.552  11.940
75099W        W44914  24.481   0.331   3.635
75100W        W44915   2.410  18.254   4.145
75101W        W44916  24.533   5.734  14.502
75102W        W44917  44.498  38.378  12.840
75103W        W44918  36.507  35.438   3.797
75104W        W44919   5.339  42.801   0.902
75105W        W44920  41.523  13.730   4.295
75106W        W44921   8.852  14.127  14.844
75107W        W44922  25.207   0.377   2.328
75108W        W44923  16.743  16.620  13.456
75109W        W44924  22.137   7.862   3.213
75110W        W44925  40.447  39.871   1.307
75111W        W44926  38.415  22.232  13.792
75112W        W44927  14.717  15.610   3.380
75113W        W44928  44.957  15.584  13.434
75114W        W44929  30.517  34.898  14.970
75115W        W44930   2.796  37.930  10.532
75116W        W44931  35.596  38.371   0.258
75117W        W44932  25.197   1.250   1.824
75118W        W44933  29.665  36.913   2.306
75119W        W44934  18.633   1.853  10.484
75120W        W44935   8.319  24.040  13.901
75121W        W44936  37.069   5.317  12.976
75122W        W44937   3.379  11.793   1.733
75123W        W44938  19.264   2.257  13.427
75124W        W44939  15.611  14.304  10.080
75125W        W44940  17.221  38.393   4.784
75126W        W44941   9.662   4.805  13.375
75127W        W44942  12.731  35.965   4.610
75128W        W44943  21.751   8.705  12.536
75129W        W44944  19.651  30.504  12.350
75130W        W44945  15.755  17.275   0.291
75131W        W44946  43.391  21.107   0.406
75132W        W44947  39.905  44.380  10.566
75133W        W44948  24.016  39.406  10.542
75134W        W44949  29.012  33.983  10.890
75135W        W44950  20.068  16.137   4.166
75136W        W44951  32.998  16.764   0.285
75137W        W44952  40.424  39.508   4.157
75138W        W44953  16.283  24.652  12.045
75139W        W44954  43.951  22.671   1.445
75140W        W44955  30.573  39.541   0.444
75141W        W44956  11.725  21.522   2.773
75142W        W44957  28.978  33.491   2.282
75143W        W44958   9.167  34.091   3.157
75144W        W44959   6.266   5.288  11.945
75145W        W44960  13.607  42.827  12.426
75146W        W44961  28.951  42.505   2.253
75147W        W44962   4.210   2.899   1.728
75148W        W44963  32.466  16.719  12.388
75149W        W44964  43.931  11.838  11.082
75150W        W44965  19.124  30.507  12.428
75151W        W44966  42.010  33.120   4.144
75152W        W44967   1.927   4.411   1.244
75153W        W44968   3.356  38.448  14.844
75154W        W44969  34.439  43.900  13.417
75155W        W44970   2.878  28.017  14.895
75156W        W44971  39.549   7.262   4.316
75157W        W44972  30.102  24.010  11.927
75158W        W44973  21.583  16.761  14.817
75159W        W44974  32.426  38.540  10.491
75160W        W44975  17.719  42.347   3.195
75161W        W44976  34.417   0.428   1.256
75162W        W44977  40.321  21.696  13.064
75163W        W44978  27.569  20.073  10.534
75164W        W44979  26.188  36.918  14.801
75165W        W44980  24.582  41.296  11.943
75166W        W44981  16.708  34.591  14.971
75167W        W44982  44.000  12.797  12.525
75168W        W44983   5.862  42.405   4.208
75169W        W44984   8.686  38.957   2.724
75170W        W44985  20.687  40.904   3.269
75171W        W44986  28.569  14.144   1.857
75172W        W44987  27.634  30.931   3.696
75173W        W44988  12.198  39.474   0.836
75174W        W44989  16.569   6.800  14.450
75175W        W44990  30.444  37.070  13.951
75176W        W44991  19.733  40.304   0.820
75177W        W44992  21.568  33.883  11.538
75178W        W44993  40.940  36.574  13.006
75179W        W44994  21.211  14.831  14.281
75180W        W44995  26.121  15.154  11.548
75181W        W44996  14.291  29.951  14.507
75182W        W44997  17.127  42.796  12.422
75183W        W44998   6.861  13.266  12.504
75184W        W44999  36.022  24.002   1.320
75185W        W45000  31.544  20.608   4.151
75186W        W45001   5.212   5.715   3.774
75187W        W45002   2.946   4.825  10.986
75188W        W45003  23.631  31.017  10.956
75189W        W45004  10.694  35.072  11.469
75190W        W45005  34.450   9.249   0.804
75191W        W45006  40.336   9.175   0.745
75192W        W45007  44.842   8.842  14.759
75193W        W45008   0.916   5.917   0.885
75194W        W45009   4.252   0.327   4.175
75195W        W45010  18.667  11.834  12.998
75196W        W45011  11.289  26.546   1.286
75197W        W45012   4.871  39.891   0.433
75198W        W45013  13.819  27.512   0.815
75199W        W45014   3.849  14.325  13.952
75200W        W45015  37.496  14.123   1.346
75201W        W45016  40.540   4.345  11.467
75202W        W45017  43.289   3.882  11.376
75203W        W45018   4.912  34.392  13.383
75204W        W45019  24.713  10.703   0.464
75205W        W45020  24.075   1.922  12.982
75206W        W45021  39.338  15.772  10.901
75207W        W45022  15.595  32.437   0.313
75208W        W45023  43.489  12.850  12.495
75209W        W45024  42.930   3.320   0.262
75210W        W45025  19.612  39.509  14.839
75211W        W45026  17.175   6.225   4.307
75212W        W45027   4.944  43.463  12.029
75213W        W45028   6.309  17.594   1.430
75214W        W45029  34.915  35.366  11.402
75215W        W45030   6.223  31.510  14.869
75216W        W45031  44.994  25.527   1.882
75217W        W45032  37.857   7.236   1.728
75218W        W45033  44.280  34.884  12.508
75219W        W45034  33.910  44.275  11.546
75220W        W45035  20.737  21.255  12.405
75221W        W45036  32.391   6.418   2.345
75222W        W45037  31.437  36.449  11.000
75223W        W45038  36.013  38.855   4.167
75224W        W45039   7.743  11.758  10.449
75225W        W45040  14.133   7.888  11.463
75226W        W45041   2.766  12.637  12.060
75227W        W45042   9.768   9.394   3.859
75228W        W45043   8.759  18.277   2.846
75229W        W45044  38.418  15.736  12.897
75230W        W45045  13.317  41.409   2.195
75231W        W45046  27.491   0.933  11.450
75232W        W45047  38.437  39.052  12.349
75233W        W45048  15.293  20.739  14.786
75234W        W45049  14.790  29.963   0.415
75235W        W45050  19.145  44.860   3.745
75236W        W45051  20.624  42.371  14.457
75237W        W45052  24.002  14.218  14.906
75238W        W45053  23.561  41.956   2.695
75239W        W45054  31.436  32.132  12.052
75240W        W45055  12.813   9.671  13.464
75241W        W45056  18.232  25.685  14.911
75242W        W45057  21.533  19.777   3.265
75243W        W45058   8.830  18.194  10.969
75244W        W45059  21.715  40.541  11.050
75245W        W45060   5.203  30.425  12.530
75246W        W45061  12.652   6.340   1.404
75247W        W45062  30.618  30.628  11.550
75248W        W45063  25.541  20.250   2.828
75249W        W45064   7.696   3.330   2.382
75250W        W45065  20.608  14.827   0.879
75251W        W45066   6.363  13.342   1.769
75252W        W45067  42.852  44.321   2.187
75253W        W45068  44.807  44.370   0.483
75254W        W45069  42.392  17.587   0.261
75255W        W45070   6.352  15.304   3.733
75256W        W45071  44.290  44.435   2.881
75257W        W45072  16.100   6.872   2.781
75258W        W45073  24.588  13.158   4.646
75259W        W45074  41.837  20.584   4.638
75260W        W45075  15.178  38.474  11.052
75261W        W45076   9.808  27.475  13.914
75262W        W45077  17.784  22.701  10.596
75263W        W45078  27.541  35.107   2.282
75264W        W45079  38.048  34.058  13.803
75265W        W45080  35.094  16.114  10.987
75266W        W45081  39.482  19.084   3.680
75267W        W45082  40.974  17.166  11.039
75268W        W45083  44.426  21.212   0.432
75269W        W45084  39.386  31.557  12.457
75270W        W45085  28.441  24.535  12.042
75271W        W45086  26.063  40.444   2.845
75272W        W45087  23.629  44.820   4.671
75273W        W45088  19.133  26.633   1.825
75274W        W45089  17.222  15.666  14.799
75275W        W45090   2.364   9.243  10.523
75276W        W45091  39.936   3.910   2.840
75277W        W45092  24.524  29.574   1.817
75278W        W45093  18.650  26.178   0.481
75279W        W45094  44.392  27.967   4.160
75280W        W45095  25.644  14.228   0.912
75281W        W45096   3.820   5.274  13.355
75282W        W45097   5.305   9.384  11.042
75283W        W45098  39.543  37.580   3.192
75284W        W45099  12.740   1.289   0.794
75285W        W45100  13.200   4.841   0.853
75286W        W45101  29.106  24.107   4.247
75287W        W45102  19.066  16.290  14.853
75288W        W45103  32.496   5.864  14.479
75289W        W45104   7.320  33.970   0.383
75290W        W45105  16.241   8.361  13.346
75291W        W45106   8.357  44.401  12.078
75292W        W45107   2.442  39.322  10.476
75293W        W45108  24.579  40.886  13.535
75294W        W45109   3.796   6.754  10.404
75295W        W45110  23.724  17.683  11.472
75296W        W45111  22.606   2.951   0.302
75297W        W45112  31.529  33.403   4.336
75298W        W45113   4.749  42.387   3.675
75299W        W45114   8.680  32.924   1.743
75300W        W45115  26.577   7.185   0.860
75301W        W45116  36.989  44.786  11.118
75302W        W45117  19.219  43.360  14.881
75303W        W45118  21.122  10.301   3.165
75304W        W45119  17.272   9.859   1.236
75305W        W45120  29.037   6.762  13.344
75306W        W45121   4.388  24.559   1.891
75307W        W45122   6.399   9.333  11.539
75308W        W45123   2.839  42.785   3.668
75309W        W45124  34.572  34.457   3.330
75310W        W45125   1.251  26.645  11.585
75311W        W45126   8.655  30.553   4.713
75312W        W45127  26.002  11.681   4.297
75313W        W45128  32.127  40.854  13.441
75314W        W45129  40.970  40.499  11.912
75315W        W45130   2.387  26.549  13.364
75316W        W45131  24.545  28.128   2.814
75317W        W45132  13.348  11.344  11.078
75318W        W45133   4.779  23.710   4.809
75319W        W45134   1.883   9.824   2.217
75320W        W45135  34.547  35.892  11.552
75321W        W45136  33.087  42.008  12.541
75322W        W45137   7.251  35.888   3.841
75323W        W45138  13.732  17.201  13.395
75324W        W45139  40.395  43.286   0.327
75325W        W45140  21.017   7.773  11.419
75326W        W45141   2.282  25.507  13.454
75327W        W45142   0.373  17.151   2.701
75328W        W45143  11.355  42.808  11.407
75329W        W45144  40.526  22.159  13.526
75330W        W45145   4.829  35.575  11.484
75331W        W45146   0.433   5.777   3.641
75332W        W45147  41.957  27.073  14.361
75333W        W45148  11.215  24.622  11.562
75334W        W45149   0.826   3.417  13.869
75335W        W45150  35.902  32.887  10.142
75336W        W45151  16.157  13.120   3.643
75337W        W45152  17.152  10.378   1.714
75338W        W45153  25.661   3.257   3.708
75339W        W45154  33.562  22.038  11.111
75340W        W45155  35.910   7.732  11.446
75341W        W45156  11.742   3.765  13.813
75342W        W45157  22.996  27.643  10.418
75343W        W45158  34.103  18.759   3.218
75344W        W45159  20.544   9.211  14.968
75345W        W45160   9.869   1.472   3.217
75346W        W45161  18.235  27.467  14.954
75347W        W45162  43.271  34.516  11.002
75348W        W45163  35.586  44.266   2.710
75349W        W45164  10.811  31.010   0.793
75350W        W45165  22.650  37.840  10.425
75351W        W45166  35.030  42.778   0.456
75352W        W45167   8.245  40.361   1.344
75353W        W45168  16.600  22.022   0.372
75354W        W45169  13.238  43.387  14.024
75355W        W45170  29.498  29.566  14.899
75356W        W45171   2.233  10.849   4.305
75357W        W45172  18.658  21.654   1.868
75358W        W45173  18.121   3.348   3.240
75359W        W45174  20.211  25.126  14.827
75360W        W45175  43.772  44.332   1.841
75361W        W45176  23.734  21.519  13.445
75362W        W45177  10.274  18.638  12.353
75363W        W45178  19.543  29.523   2.784
75364W        W45179  14.702  22.617   4.683
75365W        W45180  11.295  22.526  13.998
75366W        W45181  25.511  43.333  14.490
75367W        W45182  21.115  17.557   2.715
75368W        W45183  17.254  38.500  11.578
75369W        W45184   1.859  13.144  11.960
75370W        W45185   3.728   1.790  10.983
75371W        W45186  10.294  26.183   3.225
75372W        W45187  34.078   6.288   2.298
75373W        W45188  18.731  12.682   1.369
75374W        W45189  20.543   0.368  14.004
75375W        W45190  24.110  19.125   1.417
75376W        W45191  43.888  26.190  13.525
75377W        W45192  15.108  16.213   4.306
75378W        W45193  24.010  33.443   3.151
75379W        W45194   1.954  29.452  13.437
75380W        W45195  34.612  21.673  11.575
75381W        W45196  32.979  15.184   0.743
75382W        W45197   2.739   8.673  12.483
75383W        W45198  24.049  12.253   0.758
75384W        W45199   7.355  34.459  10.983
75385W        W45200  12.731  41.398  12.838
75386W        W45201   5.787  14.733   0.472
75387W        W45202   6.735  31.101   0.393
75388W        W45203  10.847  22.221   1.210
75389W        W45204  29.994  29.553  10.961
75390W        W45205  35.569   7.216  13.923
75391W        W45206   6.188   7.706   3.241
75392W        W45207  43.925   7.885   4.759
75393W        W45208  15.280  36.445  13.822
75394W        W45209   2.921  34.538   2.400
75395W        W45210   7.268   1.909   4.287
75396W        W45211  42.304   4.207  11.990
75397W        W45212  42.926  21.116   2.325
75398W        W45213  27.101  35.875  11.062
75399W        W45214  15.244   9.873  12.886
75400W        W45215   8.768   0.831   2.321
75401W        W45216  29.642  32.113   4.137
75402W        W45217  18.617  33.394  12.531
75403W        W45218  20.230   7.291  14.458
75404W        W45219  44.297  36.074  12.896
75405W        W45220   5.291  37.953   3.161
75406W        W45221  31.132  44.305  13.064
75407W        W45222  12.617  44.504   2.766
75408W        W45223  43.843  27.175  14.453
75409W        W45224  36.052  26.005  10.425
75410W        W45225  44.992  14.162   4.224
75411W        W45226   9.787   8.179  11.585
75412W        W45227   5.777  34.114  12.469
75413W        W45228   1.365   8.875  14.765
75414W        W45229   6.692   3.859   1.720
75415W        W45230  39.314   1.971   0.776
75416W        W45231  22.098  33.909  10.547
75417W        W45232  17.248  37.424   0.891
75418W        W45233  38.403  35.034  14.915
75419W        W45234   7.897  29.141   1.359
75420W        W45235  12.273  11.146   1.899
75421W        W45236  40.445  31.631  14.334
75422W        W45237   8.406  33.006  12.828
75423W        W45238  13.142   3.429   0.298
75424W        W45239  23.138  19.116   5.279
75425W        W45240  10.372   7.309   1.873
75426W        W45241  23.226  43.832  11.002
75427W        W45242   3.250  41.518  14.943
75428W        W45243  42.440  22.217   0.469
75429W        W45244  14.762  20.699  10.623
75430W        W45245  18.594  26.569   4.657
75431W        W45246  18.758   7.173  13.849
75432W        W45247  29.426   4.718   4.154
75433W        W45248  35.874   3.884   3.864
75434W        W45249  22.693  10.200   2.670
75435W        W45250  26.577  13.335  13.497
75436W        W45251  10.857   9.653   2.408
75437W        W45252  21.177   0.873  10.433
75438W        W45253  13.694  24.489  12.962
75439W        W45254  21.255  32.561  13.438
75440W        W45255  27.658   9.862   4.134
75441W        W45256   3.289  31.530   2.370
75442W        W45257   6.814  33.463  11.071
75443W        W45258  25.015  12.252  12.375
75444W        W45259  11.774  20.174  14.796
75445W        W45260  34.060   6.323  11.911
75446W        W45261  19.598  33.553  11.485
75447W        W45262  38.863  18.641   1.339
75448W        W45263  26.515  38.006  12.874
75449W        W45264  21.553  24.062   2.793
75450W        W45265  28.496  22.513   0.891
75451W        W45266   6.843  44.290   2.813
75452W        W45267  10.305  43.784   2.373
75453W        W45268  21.612  38.466  10.563
75454W        W45269  17.206  41.958  10.150
75455W        W45270   6.311  17.175   1.889
75456W        W45271  21.223  33.532   3.273
75457W        W45272  43.307  25.513  11.857
75458W        W45273  10.294  43.510   0.453
75459W        W45274   1.305  12.240   2.711
75460W        W45275   8.667   3.347  14.864
75461W        W45276  10.668   7.359  11.955
75462W        W45277  43.786  43.893  13.044
75463W        W45278  34.456   6.908   2.318
75464W        W45279  23.734  35.532  11.011
75465W        W45280  41.364  15.277  11.481
75466W        W45281  20.268  10.339  14.759
75467W        W45282  20.543  41.855  13.351
75468W        W45283  18.642  42.994  14.990
75469W        W45284  15.724  14.118  10.429
75470W        W45285   1.350  36.023   3.681
75471W        W45286  29.444   8.700   3.851
75472W        W45287  39.809   8.211  13.349
75473W        W45288  28.005   2.318   4.758
75474W        W45289   3.442   5.871  12.366
75475W        W45290  13.682  34.576  12.856
75476W        W45291  44.452   6.237   4.270
75477W        W45292  14.828  41.488   2.883
75478W        W45293  31.585  12.721   1.425
75479W        W45294  20.030  11.128   1.333
75480W        W45295  36.554  28.604  12.435
75481W        W45296   7.833  38.351  11.499
75482W        W45297   6.785  31.952   3.294
75483W        W45298  32.525  30.084  14.485
75484W        W45299  42.975  35.396  10.558
75485W        W45300  27.491  30.025  14.357
75486W        W45301  29.602  21.531  12.528
75487W        W45302  11.236  14.196   2.413
75488W        W45303  43.364  36.443  14.290
75489W        W45304  34.057  30.643  14.867
75490W        W45305  30.043  11.634   3.166
75491W        W45306   4.910  33.584   0.322
75492W        W45307  15.662   2.307   4.833
75493W        W45308  43.967   9.189   1.296
75494W        W45309  21.580  17.612  13.434
75495W        W45310  32.009  25.659  10.461
75496W        W45311  33.899  10.192   1.719
75497W        W45312  39.956  29.554   4.641
75498W        W45313  15.792  34.431   4.169
75499W        W45314  18.657   3.408  12.961
75500W        W45315  22.215  19.244   1.723
75501W        W45316  36.905  42.921   1.727
75502W        W45317  43.465  21.741   3.360
75503W        W45318  18.653   0.444   0.382
75504W        W45319  38.475  37.430  11.934
75505W        W45320   5.248  44.904   4.270
75506W        W45321  40.396  38.908  10.962
75507W        W45322  33.612  16.735   2.252
75508W        W45323  44.322   0.770  14.978
75509W        W45324  13.184  24.661   0.284
75510W        W45325  16.734  24.683   0.440
75511W        W45326  43.395  10.166   1.300
75512W        W45327   1.333  10.157   1.704
75513W        W45328  24.008  32.424  14.945
75514W        W45329  23.685  36.532  10.997
75515W        W45330   0.370  28.162   0.296
75516W        W45331   0.942  24.172  13.411
75517W        W45332  21.665  40.486  13.431
75518W        W45333  24.651  14.256   3.311
75519W        W45334  25.986  35.415  14.398
75520W        W45335  40.821  17.676   1.286
75521W        W45336  43.445  13.647   3.379
75522W        W45337  17.560   5.694   4.165
75523W        W45338  18.240   0.272  13.447
75524W        W45339   8.227  36.568  11.909
75525W        W45340  19.704   8.244   0.797
75526W        W45341  29.470  39.868  11.484
75527W        W45342  38.919  38.562   4.310
75528W        W45343  10.377  33.441   4.776
75529W        W45344  26.667  44.426   0.954
75530W        W45345  26.680  33.069   1.889
75531W        W45346   2.234  20.087  12.932
75532W        W45347  13.224  17.121  11.943
75533W        W45348   7.208  35.008  11.867
75534W        W45349  24.198  30.566   4.654
75535W        W45350   4.891  30.125  13.454
75536W        W45351  24.627   1.428   4.293
75537W        W45352  40.470  36.358   2.180
75538W        W45353  17.097  24.647   4.343
75539W        W45354  30.057  37.964  12.015
75540W        W45355  43.912   8.657   1.247
75541W        W45356   7.885  17.783   4.606
75542W        W45357   5.361  10.218  12.031
75543W        W45358  19.132   0.371   2.336
75544W        W45359   9.252  22.184   2.683
75545W        W45360  40.013   1.322   1.772
75546W        W45361  13.303  42.859   4.221
75547W        W45362  24.677  44.003  12.032
75548W        W45363  12.141  17.159  13.378
75549W        W45364  31.466  22.038   0.955
75550W        W45365  19.758  21.579  12.068
75551W        W45366  44.894  34.391  11.446
75552W        W45367  39.493   4.866  10.468
75553W        W45368  24.079  41.471   1.721
75554W        W45369  38.051  12.697   3.645
75555W        W45370  13.643   6.360  13.830
75556W        W45371  24.614   4.237  14.332
75557W        W45372  25.220   4.730  13.483
75558W        W45373  31.567  31.084   3.282
75559W        W45374  15.598   1.359   3.335
75560W        W45375   5.690  12.850   2.385
75561W        W45376  12.144  36.069   4.220
75562W        W45377   8.702  43.364   3.816
75563W        W45378  34.373  25.152  11.937
75564W        W45379  39.398  19.253  13.803
75565W        W45380  33.568   3.752   0.791
75566W        W45381  11.169  16.256  11.581
75567W        W45382  18.246  32.095  12.546
75568W        W45383  32.400  24.021   0.290
75569W        W45384   5.854  38.567   2.692
75570W        W45385  27.681  15.284  14.810
75571W        W45386   5.346  15.320   4.816
75572W        W45387  22.546   3.455   4.241
75573W        W45388  41.947  33.584  11.898
75574W        W45389  42.889  42.488  13.968
75575W        W45390  16.107  24.533   0.321
75576W        W45391  16.117   4.770   2.338
75577W        W45392  32.106   1.843  11.076
75578W        W45393  23.222  38.833   1.312
75579W        W45394  39.854   7.336  14.276
75580W        W45395   5.853  14.776   3.362
75581W        W45396   7.279  29.654   0.871
75582W        W45397   7.305  24.565   3.250
75583W        W45398  12.800  42.282   0.819
75584W        W45399  28.656   8.736  12.340
75585W        W45400  12.714  25.596   0.902
75586W        W45401  18.089   1.328   3.673
75587W        W45402   9.817  10.806  11.911
75588W        W45403   8.345   1.354   2.900
75589W        W45404   2.881   6.339   4.641
75590W        W45405  26.978  30.055  13.971
75591W        W45406  28.180  11.282  12.060
75592W        W45407  16.734   8.186  10.540
75593W        W45408  19.724   3.288  14.921
75594W        W45409  11.182  23.601  10.469
75595W        W45410   7.263  32.988  11.999
75596W        W45411  11.297  24.629  11.015
75597W        W45412  11.813  39.452   1.230
75598W        W45413  35.487  40.818  10.445
75599W        W45414   3.377  43.374  11.076
75600W        W45415   0.769  28.088  11.061
75601W        W45416   9.289  42.779  11.378
75602W        W45417   9.867   2.854  11.115
75603W        W45418  19.740  29.626  12.365
75604W        W45419  35.427  44.432  13.859
75605W        W45420  38.345  18.574   1.788
75606W        W45421  12.665  22.039  14.289
75607W        W45422   4.275  28.569   4.248
75608W        W45423   5.878  36.960  13.058
75609W        W45424   0.750  20.242  13.382
75610W        W45425  16.281   1.912   3.222
75611W        W45426  40.940  25.992  12.401
75612W        W45427   1.429  34.993  11.553
75613W        W45428  38.381  32.949   4.307
75614W        W45429  13.105  34.007  13.330
75615W        W45430  21.130  10.173  12.539
75616W        W45431  20.108  13.268  12.007
75617W        W45432  38.048  43.373   0.873
75618W        W45433  38.407   4.781  11.539
75619W        W45434   8.871  24.502   2.878
75620W        W45435  30.632  42.297  14.296
75621W        W45436  28.643   0.255   1.934
75622W        W45437  31.533  40.458  13.435
75623W        W45438  39.818  10.221  11.491
75624W        W45439  11.229  40.852   2.265
75625W        W45440  25.675   3.954  11.976
75626W        W45441  21.202  23.148   0.353
75627W        W45442  18.246  32.391  11.913
75628W        W45443  30.657  41.868  13.794
75629W        W45444  40.928  17.237  10.611
75630W        W45445  25.183  21.080   5.101
75631W        W45446  20.036   0.836   3.676
75632W        W45447  13.759   3.924  13.466
75633W        W45448   5.886  34.036   1.918
75634W        W45449  11.318   4.438   4.711
75635W        W45450   5.362  38.834   0.913
75636W        W45451  27.642   8.859  13.990
75637W        W45452  12.758  18.695  12.076
75638W        W45453  39.833  29.606  14.333
75639W        W45454  22.618   9.271   2.800
75640W        W45455  33.517  13.210  11.110
75641W        W45456   9.877  28.506   3.654
75642W        W45457  32.448  13.331   1.708
75643W        W45458   6.249  20.570   0.249
75644W        W45459   8.896  33.073   4.672
75645W        W45460  11.266   9.759  14.386
75646W        W45461  31.925  10.353  10.991
75647W        W45462  40.490  30.034   0.885
75648W        W45463  14.120  29.152   1.807
75649W        W45464  35.882   5.927   3.734
75650W        W45465  35.103  44.878  11.502
75651W        W45466  23.628  35.460  10.558
75652W        W45467  39.413   5.248   4.169
75653W        W45468  11.726   2.738   0.862
75654W        W45469  34.940  17.215  10.414
75655W        W45470  43.347  44.912   2.750
75656W        W45471  40.833   7.690   1.274
75657W        W45472   6.330  16.704  10.606
75658W        W45473  44.388  21.711   3.704
75659W        W45474  29.984  18.774   3.174
75660W        W45475  36.012   6.338   0.743
75661W        W45476  10.301  27.613  11.940
75662W        W45477  37.922   5.220  10.578
75663W        W45478   7.743  36.982  11.442
75664W        W45479  10.152  20.237  13.960
75665W        W45480  43.368  34.010   3.185
75666W        W45481   0.428  18.551   4.205
75667W        W45482  43.496  19.211   3.737
75668W        W45483  12.174  12.711   3.699
75669W        W45484  40.490  38.020   4.597
75670W        W45485  14.208  34.553  13.492
75671W        W45486  20.254  18.770   1.254
75672W        W45487  39.998   2.882   3.247
75673W        W45488  15.586  33.120  11.063
75674W        W45489  24.668  40.985   0.410
75675W        W45490  41.833   2.807  14.980
75676W        W45491  31.595  43.902  12.017
75677W        W45492  15.690   9.847   0.472
75678W        W45493  40.800   5.337   0.945
75679W        W45494   5.279  29.055   1.365
75680W        W45495   1.892  45.000   4.226
75681W        W45496   8.833  39.542   4.223
75682W        W45497  38.355  33.975  11.856
75683W        W45498  25.049  32.541  10.506
75684W        W45499  34.464  10.205   3.163
75685W        W45500  22.014  40.443  12.384
75686W        W45501  21.212  20.174   0.472
75687W        W45502  33.523  21.074  13.054
75688W        W45503   7.412  41.873  13.890
75689W        W45504  37.472  10.775  12.347
75690W        W45505  13.648   1.348  13.862
75691W        W45506   1.854  23.115  10.489
75692W        W45507  20.581  38.528   4.627
75693W        W45508  33.402  24.709  14.940
75694W        W45509   1.379   4.878  10.626
75695W        W45510  13.606  40.827   1.250
75696W        W45511  32.908   0.477   1.775
75697W        W45512   4.906  24.524  13.483
75698W        W45513  21.048  17.705   0.776
75699W        W45514  43.335  21.555  11.524
75700W        W45515  25.479  25.025   4.324
75701W        W45516   2.855   9.233  13.811
75702W        W45517  34.458  40.429   3.818
75703W        W45518  10.709  30.124   1.306
75704W        W45519  13.312  32.625  14.398
75705W        W45520  43.946  33.488   0.876
75706W        W45521  19.178  19.618   4.349
75707W        W45522  38.954  16.612  10.563
75708W        W45523  27.691  21.151  14.835
75709W        W45524   7.822  10.216   3.722
75710W        W45525  25.501  27.123  13.357
75711W        W45526  35.956  33.048  14.985
75712W        W45527  39.540  31.414   0.911
75713W        W45528  18.669  24.041  14.818
75714W        W45529   9.186  14.132  14.793
75715W        W45530  34.986  21.017   1.221
75716W        W45531   1.896  14.301  10.601
75717W        W45532   2.436  12.735  13.049
75718W        W45533  30.460  17.611   0.329
75719W        W45534  30.459  37.409   3.802
75720W        W45535  30.050  41.313  11.015
75721W        W45536  15.735  34.415  10.924
75722W        W45537   0.891  44.998  10.918
75723W        W45538  20.114  19.228   0.893
75724W        W45539   9.252  17.106  12.388
75725W        W45540   8.244  25.691   3.193
75726W        W45541  40.921  22.520   1.816
75727W        W45542   7.675  10.804  10.590
75728W        W45543   0.265  43.003   0.370
75729W        W45544  15.175   6.831  10.451
75730W        W45545  14.325  42.982   3.195
75731W        W45546   5.734   7.357  14.852
75732W        W45547   7.212   2.294  13.322
75733W        W45548  23.528  16.594   3.155
75734W        W45549  32.538  22.735   1.450
75735W        W45550   5.881   5.855   4.606
75736W        W45551  26.015  10.771   5.087
75737W        W45552  32.081  39.941  10.525
75738W        W45553   9.665  32.142  13.818
75739W        W45554   7.845  39.036   0.450
75740W        W45555  17.304   0.285  10.083
75741W        W45556  29.486  22.600  11.869
75742W        W45557  14.772   3.750  14.319
75743W        W45558  33.414  26.478   1.857
75744W        W45559  29.592  36.544  10.914
75745W        W45560  29.027  30.944  14.799
75746W        W45561  41.337   4.891   1.787
75747W        W45562  41.358  23.198  13.370
75748W        W45563  27.040   7.417   2.870
75749W        W45564   9.709  22.103  11.881
75750W        W45565  18.217  39.982   3.284
75751W        W45566  43.432  36.846   1.441
75752W        W45567   8.669   3.827  10.514
75753W        W45568  26.640  29.084   0.888
75754W        W45569   1.732   9.323  11.546
75755W        W45570   3.877  36.941  13.399
75756W        W45571  31.059  22.583  14.445
75757W        W45572   6.350   9.338  13.892
75758W        W45573  15.811  44.787   4.682
75759W        W45574  37.989   1.388  11.078
75760W        W45575  20.049   2.801  14.927
75761W        W45576  36.948  14.106   4.733
75762W        W45577  32.457  27.190   2.888
75763W        W45578  39.819  28.487   0.450
75764W        W45579  34.047  44.901   4.801
75765W        W45580   3.283   6.825  11.373
75766W        W45581   1.762  14.319  10.979
75767W        W45582  28.586  36.986   0.359
75768W        W45583  31.973  33.941   3.373
75769W        W45584  25.507  21.081   0.948
75770W        W45585  15.636  12.247   1.834
75771W        W45586  29.585  11.660   1.798
75772W        W45587  25.139   9.311   1.429
75773W        W45588  31.443   4.235   2.251
75774W        W45589  13.607   0.904   3.759
75775W        W45590  19.671  13.326  11.904
75776W        W45591  12.680   7.237   2.878
75777W        W45592  17.617  38.986   2.797
75778W        W45593  21.707  14.634  10.915
75779W        W45594   7.171   6.396  14.945
75780W        W45595  23.140  44.428   1.441
75781W        W45596  42.020  26.617   3.790
75782W        W45597   5.344   4.829   1.891
75783W        W45598  24.624  35.092   4.251
75784W        W45599  30.629   5.724   3.736
75785W        W45600  38.404  35.508  12.065
75786W        W45601  28.982  29.436  13.838
75787W        W45602  40.355  16.661   0.797
75788W        W45603   8.362   7.192   2.684
75789W        W45604  39.020   0.802   3.249
75790W        W45605  19.203  20.037   3.183
75791W        W45606   1.355  33.549   2.388
75792W        W45607  13.174  25.062  12.489
75793W        W45608  40.534  39.394  12.951
75794W        W45609  26.014   8.689   2.813
75795W        W45610  36.989  19.654   2.707
75796W        W45611  44.770  44.772   0.868
75797W        W45612  21.127  27.626  14.895
75798W        W45613  23.492  20.713   2.226
75799W        W45614   9.267  39.857  13.356
75800W        W45615  23.644  31.568   4.623
75801W        W45616  18.269  21.129  13.917
75802W        W45617  10.665  13.844  10.453
75803W        W45618  23.217  37.491  10.610
75804W        W45619  16.238  44.421   0.476
75805W        W45620  30.503  15.278  12.975
75806W        W45621  25.577  19.632   2.793
75807W        W45622  29.442  38.029   0.756
75808W        W45623  21.540  43.404   0.793
75809W        W45624   4.876  29.127   2.901
75810W        W45625   9.659  28.512  12.454
75811W        W45626  28.112   4.757  14.275
75812W        W45627  41.384  10.855  14.903
75813W        W45628  24.591  34.582   2.317
75814W        W45629  10.138  31.456  10.571
75815W        W45630  11.304  37.367   2.889
75816W        W45631  29.056  27.528  14.433
75817W        W45632   7.665  27.964   0.808
75818W        W45633  42.781  28.645   1.885
75819W        W45634  42.831  28.173   3.671
75820W        W45635   1.904   3.280  10.414
75821W        W45636  40.806   5.237  14.012
75822W        W45637  38.821   0.381   1.212
75823W        W45638  17.691  37.352   2.873
75824W        W45639  22.539  35.379   2.191
75825W        W45640  17.673  17.769   0.386
75826W        W45641  34.525  13.628   2.796
75827W        W45642  44.364  37.912   4.163
75828W        W45643   6.354  35.998  10.592
75829W        W45644   2.943   9.188  14.504
75830W        W45645   7.357  41.474   2.267
75831W        W45646  14.726  31.618  14.850
75832W        W45647  38.451  31.906   0.244
75833W        W45648  14.666  44.898   3.232
75834W        W45649   2.765  40.831   0.740
75835W        W45650  10.831  16.202   0.736
75836W        W45651  15.634  44.957  14.845
75837W        W45652  20.237  43.873   3.382
75838W        W45653  12.143  29.530  11.595
75839W        W45654   0.400  21.047   4.120
75840W        W45655  38.508   3.410   2.385
75841W        W45656  34.878  39.946  13.040
75842W        W45657  27.963  17.134   1.445
75843W        W45658   5.239  17.137   3.811
75844W        W45659  10.642   9.643   0.471
75845W        W45660  41.902  31.626   0.339
75846W        W45661  18.786  41.791  11.384
75847W        W45662   4.229  13.342   0.364
75848W        W45663  32.073  14.168   3.204
75849W        W45664  38.426  30.159   1.837
75850W        W45665   7.377  43.455  11.919
75851W        W45666  37.911   9.376  10.515
75852W        W45667  32.096  34.088   4.248
75853W        W45668  21.555  39.836  13.500
75854W        W45669  16.641  13.175  14.417
75855W        W45670   6.914  26.677   2.715
75856W        W45671   0.954  11.863  10.045
75857W        W45672  32.030  13.835   3.706
75858W        W45673  29.570  41.982   3.698
75859W        W45674  16.171  11.843  13.012
75860W        W45675   7.897  24.567   0.427
75861W        W45676  25.549   2.893   2.706
75862W        W45677  12.615  42.881  13.458
75863W        W45678  18.548   6.861   3.721
75864W        W45679  42.282  40.482  11.975
75865W        W45680  36.562  38.373  14.344
75866W        W45681  41.376  27.473   1.413
75867W        W45682  20.643  17.733   4.598
75868W        W45683  18.295  20.140  13.961
75869W        W45684  17.752  15.597   0.801
75870W        W45685  37.842   0.983  11.022
75871W        W45686  31.950  27.047  11.042
75872W        W45687  40.914   1.434  12.501
75873W        W45688  14.193   7.669   0.790
75874W        W45689   7.394  36.399   1.701
75875W        W45690  12.839  35.012   0.957
75876W        W45691  33.420  31.472  14.779
75877W        W45692  29.033   8.385   4.314
75878W        W45693  17.641  30.578   2.683
75879W        W45694  37.443  22.095  14.352
75880W        W45695  44.957   8.764  13.795
75881W        W45696  27.043  21.153  11.914
75882W        W45697  10.865  40.891   1.358
75883W        W45698  34.587  23.154  14.022
75884W        W45699   7.173  40.950  12.344
75885W        W45700  21.524  16.290   3.727
75886W        W45701  43.425  40.948  11.015
75887W        W45702  26.652  12.822  10.483
75888W        W45703  15.309   1.381   2.397
75889W        W45704  14.211  35.492   1.863
75890W        W45705  16.585  32.063   1.354
75891W        W45706  15.796  20.250  13.857
75892W        W45707  28.147   7.711   2.681
75893W        W45708  37.848  19.740   3.708
75894W        W45709  27.062  16.151  11.058
75895W        W45710  25.602  13.633  11.093
75896W        W45711  19.042  13.646   0.265
75897W        W45712   3.458  19.779  11.403
75898W        W45713  20.078  41.432  12.451
75899W        W45714   1.808  13.746   2.355
75900W        W45715  15.690  18.122  12.452
75901W        W45716  43.297  36.044   5.136
75902W        W45717  26.990   6.422   2.251
75903W        W45718  31.094   2.901  12.938
75904W        W45719  35.498  27.503  12.066
75905W        W45720  39.521  19.564   1.235
75906W        W45721  17.747  27.645  11.023
75907W        W45722  15.162  39.451   3.337
75908W        W45723  38.047  16.099  11.880
75909W        W45724  41.786  18.739  13.950
75910W        W45725  26.661  25.018   0.370
75911W        W45726  11.789  35.047  11.094
75912W        W45727  34.380  11.641  12.352
75913W        W45728  31.464  39.820  11.504
75914W        W45729  36.574  31.117  14.493
75915W        W45730  36.968  25.665  11.934
75916W        W45731  23.524   9.294   4.287
75917W        W45732  42.481  37.992  11.520
75918W        W45733  25.179   5.922   4.712
75919W        W45734  19.273   0.292   0.839
75920W        W45735  12.118  27.032   2.897
75921W        W45736  22.595   7.204  11.567
75922W        W45737   7.329  34.003  13.423
75923W        W45738   9.385  30.113   4.351
75924W        W45739  36.570  11.223  12.555
75925W        W45740  43.844   5.827   3.710
75926W        W45741  23.663  40.046  12.938
75927W        W45742   6.247  28.476   3.720
75928W        W45743   3.452  15.686  12.578
75929W        W45744  35.020  15.578   3.293
75930W        W45745   2.871  34.510  13.894
75931W        W45746   1.317  12.791  13.523
75932W        W45747  21.051  29.041   4.230
75933W        W45748  12.733  39.537  11.502
75934W        W45749   5.348   8.681   3.735
75935W        W45750  13.302  20.229  12.057
75936W        W45751  38.861  16.649   0.278
75937W        W45752   9.156  11.365  12.989
75938W        W45753  35.098   1.401  11.863
75939W        W45754  39.519   7.382  11.111
75940W        W45755  42.464  29.446  11.032
75941W        W45756  10.367  30.619   2.392
75942W        W45757  39.382  40.455  13.427
75943W        W45758   7.282  41.535   3.213
75944W        W45759  36.071  31.609   9.517
75945W        W45760  22.638  29.981   0.436
75946W        W45761  19.676  23.550   0.947
75947W        W45762  35.499  17.164   1.932
75948W        W45763   8.176  12.152   3.296
75949W        W45764  14.232  27.459   4.606
75950W        W45765  13.205  26.142   3.862
75951W        W45766  34.436  20.119  13.463
75952W        W45767  35.471  28.661   4.679
75953W        W45768   4.711  39.544   2.342
75954W        W45769  33.022  31.608  11.124
75955W        W45770   4.766   6.776  13.887
75956W        W45771  36.578  42.917  10.987
75957W        W45772  40.829  26.995   0.355
75958W        W45773   9.790  15.816  14.397
75959W        W45774   6.916  12.694   2.297
75960W        W45775  14.821  15.232   4.220
75961W        W45776  38.888  40.980   1.875
75962W        W45777  30.447  16.314   4.804
75963W        W45778  36.983  14.155   3.309
75964W        W45779  43.377  21.542  10.500
75965W        W45780  42.960  30.969   0.759
75966W        W45781  14.691  32.475   3.288
75967W        W45782  10.296  24.574   0.866
75968W        W45783  22.011  28.498   2.365
75969W        W45784  28.481  33.944  11.989
75970W        W45785  36.924   7.250  14.946
75971W        W45786  12.712  32.138   2.771
75972W        W45787  44.262  38.344   2.218
75973W        W45788   6.359  38.992   2.354
75974W        W45789   1.283  11.306   0.448
75975W        W45790  24.128   0.831   5.172
75976W        W45791   9.786  10.855  11.093
75977W        W45792  13.833  40.409   0.295
75978W        W45793  18.094  16.738   1.934
75979W        W45794  43.964  19.190  13.983
75980W        W45795   5.236  22.619  10.974
75981W        W45796  41.885  39.951   3.760
75982W        W45797  31.984  20.173   3.179
75983W        W45798  30.983  29.060  12.443
75984W        W45799   4.321  38.436   3.723
75985W        W45800  17.801  28.131   2.264
75986W        W45801  13.707  15.221   4.809
75987W        W45802  25.032  44.356  14.806
75988W        W45803  33.920  16.164  11.407
75989W        W45804  44.419  21.169   3.673
75990W        W45805  23.048  43.271  12.487
75991W        W45806  31.401  24.198   3.777
75992W        W45807   6.379  28.444  11.559
75993W        W45808  18.269   3.721  14.875
75994W        W45809  23.042   6.787   1.419
75995W        W45810   6.795   2.289   2.402
75996W        W45811  12.684  44.500   0.400
75997W        W45812  35.056  23.489   1.914
75998W        W45813  42.405  17.256  12.441
75999W        W45814  30.120  39.838   0.792
76000W        W45815  26.122  30.161   4.755
76001W        W45816   8.314  18.669   1.358
76002W        W45817  40.546  24.649  12.340
76003W        W45818  16.809  32.921  14.340
76004W        W45819  32.008  11.370  12.454
76005W        W45820   2.958  14.097   0.345
76006W        W45821  43.430  30.638   0.294
76007W        W45822  34.040  31.097  14.394
76008W        W45823  10.313  23.065   1.311
76009W        W45824   6.832  39.549   5.099
76010W        W45825   7.372  21.083   1.710
76011W        W45826   2.331  37.008   3.275
76012W        W45827   1.445  35.041  10.481
76013W        W45828  17.681   1.424   3.784
76014W        W45829  36.561   3.323   4.187
76015W        W45830  14.179  22.548  11.449
76016W        W45831  30.426  17.644   2.768
76017W        W45832  42.282  26.120  14.291
76018W        W45833   3.391   6.694   1.217
76019W        W45834  19.671   2.459  11.888
76020W        W45835   1.817  14.097  12.878
76021W        W45836  34.088  13.287   3.255
76022W        W45837  36.029  12.318   1.758
76023W        W45838  27.085  32.416   3.807
76024W        W45839  35.587  18.547  12.485
76025W        W45840   8.845  37.914   2.870
76026W        W45841  38.511  26.650  13.485
76027W        W45842   2.324  25.199   9.957
76028W        W45843  10.672  19.674   3.780
76029W        W45844  32.408  26.521   1.813
76030W        W45845  31.009  37.893  11.033
76031W        W45846  10.735  23.664   3.354
76032W        W45847   8.698  24.052  14.823
76033W        W45848  43.503   6.880   3.203
76034W        W45849  34.950   5.211  12.931
76035W        W45850  23.620  25.492  14.837
76036W        W45851   7.389  44.947  10.922
76037W        W45852  40.375  14.210   3.302
76038W        W45853  44.420  24.509   5.288
76039W        W45854  13.835   0.390   3.672
76040W        W45855  35.034  40.010   2.286
76041W        W45856   3.394   0.838  13.918
76042W        W45857   2.362  41.850   4.793
76043W        W45858  37.553   8.317   1.374
76044W        W45859  29.985  25.100   1.356
76045W        W45860  32.550  26.594  13.874
76046W        W45861  16.128  22.511  12.057
76047W        W45862  36.033   6.714   0.841
76048W        W45863   8.326  39.830  13.340
76049W        W45864  44.352  23.174   3.853
76050W        W45865  19.568  27.110  12.830
76051W        W45866  23.177   5.857  14.988
76052W        W45867  13.287  26.000  14.985
76053W        W45868  15.098  14.621   2.768
76054W        W45869  27.577  21.217  11.556
76055W        W45870   9.245  21.228   2.185
76056W        W45871  10.647  15.307   1.704
76057W        W45872  28.039  37.505  10.576
76058W        W45873  44.824  19.659   4.143
76059W        W45874   0.776  10.671   1.928
76060W        W45875  31.503  25.125  13.047
76061W        W45876  34.568   0.945  13.887
76062W        W45877  18.170   0.847   2.842
76063W        W45878  24.162  43.017  14.330
76064W        W45879  42.367  20.146  13.374
76065W        W45880  34.032  39.046  12.997
76066W        W45881  12.349  31.946   2.415
76067W        W45882  22.502  13.637  13.837
76068W        W45883  23.996   5.747   4.669
76069W        W45884   4.861  19.724  12.518
76070W        W45885  40.944  16.631   1.421
76071W        W45886   1.303   1.324  13.315
76072W        W45887   2.254  11.155   0.402
76073W        W45888  43.408  17.642  12.913
76074W        W45889  30.504  35.501  11.964
76075W        W45890  41.496  23.654  10.483
76076W        W45891   6.296   1.386  14.359
76077W        W45892  10.153  42.868   0.936
76078W        W45893  15.800   2.429  12.847
76079W        W45894   7.794  33.603  11.984
76080W        W45895  32.025  28.519   2.772
76081W        W45896  18.284   0.456   4.252
76082W        W45897  21.716   3.386   2.840
76083W        W45898  43.299  14.201  12.572
76084W        W45899   2.260   4.833   3.693
76085W        W45900   8.846   5.436  12.362
76086W        W45901  20.570  21.023   1.280
76087W        W45902  15.127  33.547  13.038
76088W        W45903   8.815  20.720   0.327
76089W        W45904   5.924  20.646   3.314
76090W        W45905  26.133  20.596   1.311
76091W        W45906  44.952   7.672  13.941
76092W        W45907  18.097  32.906  14.401
76093W        W45908   4.886   8.212   1.722
76094W        W45909  37.448  16.174   0.802
76095W        W45910  29.595  12.765   1.256
76096W        W45911  18.213   2.891  11.071
76097W        W45912  32.539  43.270  13.414
76098W        W45913  10.644  32.035  11.115
76099W        W45914  27.490   4.352   2.702
76100W        W45915  16.734  25.179   4.214
76101W        W45916   0.396  37.998   0.409
76102W        W45917   2.374   5.262   4.826
76103W        W45918  38.049  42.410  11.063
76104W        W45919  29.576  17.590   4.280
76105W        W45920  14.665  10.236   1.802
76106W        W45921   2.875  42.382  11.478
76107W        W45922  24.613  16.645  10.547
76108W        W45923  44.456  19.082  12.932
76109W        W45924  19.714   0.394  13.482
76110W        W45925  26.205  25.663   0.305
76111W        W45926  44.272  19.049   3.808
76112W        W45927  23.037  39.986   4.140
76113W        W45928  27.598  25.481  13.311
76114W        W45929  23.587  37.371  14.376
76115W        W45930  22.520  27.480   3.707
76116W        W45931  42.314  34.081  11.948
76117W        W45932  18.726   4.385  11.973
76118W        W45933  40.342  20.084   0.436
76119W        W45934  14.201  36.559  11.021
76120W        W45935  11.643   6.277  10.130
76121W        W45936   1.912  20.037   0.463
76122W        W45937  40.304  23.714  13.965
76123W        W45938  16.217  27.647  12.479
76124W        W45939  27.516  10.177   9.927
76125W        W45940  12.611  28.503   1.856
76126W        W45941  21.225  36.843  13.889
76127W        W45942  11.766  24.685   4.823
76128W        W45943  23.622  22.736   4.732
76129W        W45944   8.257  34.584   0.777
76130W        W45945  27.456   1.887  10.907
76131W        W45946  30.064  34.585  13.968
76132W        W45947   1.782   6.718   0.330
76133W        W45948   5.805  30.111  13.461
76134W        W45949  39.520  14.305   4.316
76135W        W45950  18.700  32.022  14.414
76136W        W45951   8.702  14.148   1.369
76137W        W45952  28.559  16.777  10.896
76138W        W45953  41.873   0.764   2.336
76139W        W45954  17.757  35.517  13.366
76140W        W45955  15.179  10.167  11.874
76141W        W45956  26.545  36.855   0.477
76142W        W45957  42.784  30.579  10.158
76143W        W45958  42.298  37.580   3.768
76144W        W45959  15.240  27.468   4.814
76145W        W45960  16.289  27.092  10.568
76146W        W45961  31.584  25.014  12.010
76147W        W45962  22.147  43.941   0.931
76148W        W45963   4.869   0.881  14.434
76149W        W45964   1.286  37.923   0.409
76150W        W45965  38.505  20.211  11.988
76151W        W45966   2.772   3.881   2.821
76152W        W45967  36.072  34.524  10.118
76153W        W45968  37.469  17.199   0.850
76154W        W45969   4.820  19.755   2.265
76155W        W45970   2.725  38.540  13.372
76156W        W45971   2.282  25.157   4.606
76157W        W45972  28.505  25.992   2.300
76158W        W45973   0.943  10.815  12.003
76159W        W45974  10.680  22.137  11.028
76160W        W45975   6.794  11.239   0.244
76161W        W45976  20.198  28.091   3.777
76162W        W45977   9.752  15.148  11.095
76163W        W45978  32.408  41.921  14.512
76164W        W45979  10.865  39.809   4.130
76165W        W45980  17.722  23.002  14.467
76166W        W45981  20.618  20.229  13.832
76167W        W45982  37.885  28.539  12.994
76168W        W45983  32.978  39.495  12.911
76169W        W45984  40.356  37.358   4.686
76170W        W45985  29.036   9.235   1.332
76171W        W45986   2.828  30.916  11.383
76172W        W45987  24.600  26.479   3.865
76173W        W45988  33.403  12.843   4.116
76174W        W45989   6.916  34.903   1.362
76175W        W45990  43.882  44.951  10.584
76176W        W45991  11.284  36.467   1.930
76177W        W45992  22.531  40.499   1.908
76178W        W45993   2.351  14.780  11.018
76179W        W45994   2.393  32.114  11.569
76180W        W45995   4.405  33.888   2.848
76181W        W45996  23.662  22.163  11.872
76182W        W45997  25.550  41.029   4.188
76183W        W45998  21.661   7.908  11.969
76184W        W45999  29.004  17.800  10.619
76185W        W46000  13.190   0.975  10.964
76186W        W46001  31.983   0.853   4.608
76187W        W46002  27.973  36.545  12.539
76188W        W46003  39.818  21.239   2.711
76189W        W46004  11.131  26.526   0.842
76190W        W46005  36.922  38.032   0.434
76191W        W46006   3.331  17.664  13.060
76192W        W46007  14.768   1.407  10.561
76193W        W46008  16.150  44.947   4.316
76194W        W46009  34.019  29.527   1.907
76195W        W46010  11.829   1.402  12.905
76196W        W46011   3.406  28.627  11.044
76197W        W46012  35.913  23.025   3.197
76198W        W46013  39.492  33.560  14.385
76199W        W46014  21.650   9.798   4.756
76200W        W46015  15.793   5.356   1.233
76201W        W46016   3.745  22.158   2.273
76202W        W46017  29.919  14.179  12.940
76203W        W46018  26.977  40.407   0.773
76204W        W46019   3.269  28.178  10.412
76205W        W46020  28.585  30.065  14.926
76206W        W46021   1.309  15.794  11.459
76207W        W46022   9.235   7.324  14.802
76208W        W46023  42.447  39.846  14.333
76209W        W46024  25.551  16.807   0.806
76210W        W46025  16.579  14.614   2.839
76211W        W46026  32.997  16.186  12.403
76212W        W46027   9.715   4.722  10.467
76213W        W46028  37.370  23.210   0.891
76214W        W46029  44.756   7.841   4.116
76215W        W46030  32.890  35.927  13.872
76216W        W46031   9.881  13.293   0.808
76217W        W46032  22.201  34.549  10.449
76218W        W46033  13.682  23.110   3.284
76219W        W46034  14.667  26.037  14.890
76220W        W46035  17.071  43.508  12.571
76221W        W46036  32.569  13.153   0.777
76222W        W46037  12.186   8.714  10.487
76223W        W46038  25.101  20.108   0.863
76224W        W46039   2.274   6.801  13.012
76225W        W46040  30.476  44.920  13.856
76226W        W46041   7.908   9.739   2.267
76227W        W46042  43.859  27.656   4.145
76228W        W46043   3.852  37.536   1.858
76229W        W46044   7.197  32.523   3.292
76230W        W46045  40.016  38.856   2.414
76231W        W46046  44.306   7.369  14.312
76232W        W46047  39.380  10.154   3.637
76233W        W46048  12.847  31.134   4.141
76234W        W46049  34.990  11.670  14.465
76235W        W46050   0.331  17.115   4.170
76236W        W46051  44.427   9.853  11.575
76237W        W46052   6.804  13.760   1.828
76238W        W46053   8.188   5.773  11.546
76239W        W46054   2.723  39.852   1.907
76240W        W46055  42.974  24.041   1.233
76241W        W46056  40.469  43.291  11.375
76242W        W46057   3.271   5.703  11.109
76243W        W46058  13.618  35.053   1.874
76244W        W46059  44.314  13.693   9.949
76245W        W46060  35.088   1.443  14.023
76246W        W46061  21.654  30.549  11.106
76247W        W46062   9.700  21.247  14.304
76248W        W46063   0.352  22.072  13.386
76249W        W46064   8.847  21.641  14.909
76250W        W46065  21.212   8.302   1.299
76251W        W46066  33.587  25.626  13.850
76252W        W46067  36.356  18.281  13.353
76253W        W46068  36.553  26.594  14.922
76254W        W46069  37.377  13.246   5.089
76255W        W46070  34.586  17.208   4.288
76256W        W46071  25.206  43.275   0.433
76257W        W46072  16.784  14.252  14.904
76258W        W46073  27.496   0.893   1.433
76259W        W46074   1.396   6.292   0.783
76260W        W46075  29.520  39.816   4.803
76261W        W46076   7.313   3.870  13.436
76262W        W46077  44.365  20.168  11.881
76263W        W46078  40.812  12.323   1.862
76264W        W46079  19.124  29.428   3.750
76265W        W46080  37.950  38.924  13.975
76266W        W46081  22.070  26.985   3.256
76267W        W46082   1.318  44.459   1.775
76268W        W46083   6.781   1.313   0.339
76269W        W46084  34.466  10.686   2.673
76270W        W46085  44.342  20.060   0.402
76271W        W46086  11.673  15.286   4.648
76272W        W46087   5.280  41.336  11.605
76273W        W46088  30.442  14.312  14.395
76274W        W46089  21.184  34.989   0.895
76275W        W46090  40.525  26.018  11.994
76276W        W46091   5.267  22.509   2.359
76277W        W46092  37.044  22.686  14.999
76278W        W46093  40.409  34.468  11.436
76279W        W46094  36.094  28.091  14.280
76280W        W46095  40.458   1.339   9.972
76281W        W46096  26.552  20.683  11.938
76282W        W46097  37.362  14.168   5.202
76283W        W46098  43.373   9.739   3.236
76284W        W46099  22.118  41.410  14.986
76285W        W46100  28.456  40.537   0.950
76286W        W46101  29.024   2.939  10.484
76287W        W46102  25.698   9.787  10.434
76288W        W46103  18.562  14.097  12.094
76289W        W46104  43.984  41.451   2.294
76290W        W46105  33.067  19.612  13.908
76291W        W46106   2.373  21.207   0.926
76292W        W46107  23.059  17.111  11.571
76293W        W46108   7.888   6.811   3.186
76294W        W46109  28.604  14.796  13.437
76295W        W46110   8.243  15.242   4.275
76296W        W46111  22.583  38.902  11.594
76297W        W46112   0.450  36.532   2.361
76298W        W46113   7.214   0.380   2.416
76299W        W46114  40.383   2.398  13.929
76300W        W46115  39.424  25.122  13.816
76301W        W46116   0.823   6.714  12.389
76302W        W46117  18.294  27.082  14.883
76303W        W46118  25.081  12.182   5.215
76304W        W46119   0.931  24.668   1.232
76305W        W46120  25.147  26.534   5.163
76306W        W46121  42.823   5.226  13.950
76307W        W46122  22.684  36.450  13.341
76308W        W46123  24.671  42.466   0.731
76309W        W46124   2.930  33.446  13.401
76310W        W46125  25.968  31.586  11.967
76311W        W46126  29.509  26.481   1.750
76312W        W46127   9.240   9.370  13.511
76313W        W46128  17.284   4.205   1.253
76314W        W46129   2.345  29.502   1.731
76315W        W46130   1.474  40.342  10.577
76316W        W46131  32.970  16.309  10.448
76317W        W46132  18.256  37.559  14.932
76318W        W46133  32.057  24.055  12.486
76319W        W46134   9.169  20.592   3.830
76320W        W46135  28.582  38.518  12.987
76321W        W46136   9.172  22.152   1.295
76322W        W46137  41.411  21.038   1.878
76323W        W46138  35.995  39.859  12.003
76324W        W46139  11.703  16.306   4.682
76325W        W46140  43.836  33.549  11.004
76326W        W46141  25.968  16.629  13.468
76327W        W46142  30.544  21.643   2.290
76328W        W46143  44.325  36.526  12.965
76329W        W46144  33.442  18.718  12.933
76330W        W46145  18.551  18.076   4.354
76331W        W46146   1.787   3.300  12.410
76332W        W46147  29.547   2.237  13.821
76333W        W46148  22.506   4.797   4.116
76334W        W46149  33.047  24.089  10.462
76335W        W46150  44.867  32.073  13.412
76336W        W46151  13.186   7.268  10.435
76337W        W46152  33.924  16.152  11.118
76338W        W46153   9.678  37.531   2.711
76339W        W46154  19.085  27.538  10.936
76340W        W46155  30.159  44.838   3.270
76341W        W46156  43.458  31.480  14.464
76342W        W46157  33.989   6.922   1.701
76343W        W46158   1.743  27.663   1.405
76344W        W46159  29.006  26.984  11.002
76345W        W46160  24.032   3.944   2.761
76346W        W46161  33.125  27.157   2.729
76347W        W46162  33.574  12.363  13.037
76348W        W46163   7.728  14.826   1.263
76349W        W46164  35.485  39.841   3.636
76350W        W46165  35.082  40.503   3.237
76351W        W46166   3.839  30.082   2.885
76352W        W46167  24.087  26.532  12.446
76353W        W46168  40.957   3.725  12.880
76354W        W46169  35.494  41.454   1.311
76355W        W46170  14.834  33.983   0.261
76356W        W46171  15.651  31.561  14.776
76357W        W46172  43.513  44.857  11.503
76358W        W46173  25.584  35.997  11.423
76359W        W46174  33.979  25.675   2.302
76360W        W46175   9.693  41.432  10.122
76361W        W46176  17.262   4.705   1.820
76362W        W46177  31.018  11.139  14.405
76363W        W46178  42.336  43.876  11.429
76364W        W46179  27.644   0.790   0.889
76365W        W46180  36.499  25.966   3.667
76366W        W46181  18.657  33.042   3.269
76367W        W46182   0.975   1.426   0.917
76368W        W46183  37.507  30.139  13.059
76369W        W46184  23.494   9.660  12.911
76370W        W46185  10.213  38.542  14.819
76371W        W46186  33.567  21.639   2.868
76372W        W46187  20.264  17.119  12.049
76373W        W46188  42.028  15.673  12.341
76374W        W46189  12.309  44.853  13.485
76375W        W46190  36.349   3.852   2.829
76376W        W46191  40.919  28.170   3.798
76377W        W46192  22.032  40.931   3.808
76378W        W46193  39.813   6.257   2.334
76379W        W46194  43.950  22.166  12.038
76380W        W46195   9.803  41.009   2.844
76381W        W46196  29.945  42.801  12.964
76382W        W46197  44.792  18.066   2.697
76383W        W46198  37.047  33.582  12.824
76384W        W46199  41.846  29.084  13.448
76385W        W46200  40.809  28.929   4.305
76386W        W46201   8.788  20.188   0.414
76387W        W46202  11.859  35.079   4.285
76388W        W46203   8.666  38.337   1.830
76389W        W46204  39.505   2.929  14.492
76390W        W46205   3.393   8.351  11.403
76391W        W46206  10.675   8.363  10.410
76392W        W46207  33.986   3.727   2.838
76393W        W46208  39.912  37.355   4.245
76394W        W46209  16.263  43.899   2.290
76395W        W46210  37.939   9.298  11.973
76396W        W46211  17.589  33.026   1.416
76397W        W46212  21.521  24.654   3.342
76398W        W46213  43.956   1.236  12.055
76399W        W46214  11.166  17.252   3.183
76400W        W46215  17.193   9.721   0.477
76401W        W46216  30.022  34.500  11.121
76402W        W46217  22.172  31.995  10.623
76403W        W46218  30.050   6.888   3.334
76404W        W46219   7.184   3.872   0.325
76405W        W46220  41.038  21.263  14.284
76406W        W46221  23.137  30.973   2.226
76407W        W46222  43.852  21.570   2.184
76408W        W46223   2.421  25.580  14.783
76409W        W46224   1.257  42.978  12.030
76410W        W46225  32.417  16.297   0.258
76411W        W46226   5.895  24.057  13.000
76412W        W46227  25.636  43.846  13.915
76413W        W46228  20.242  12.121   2.186
76414W        W46229   8.390  27.536   1.273
76415W        W46230  25.013  29.669   5.301
76416W        W46231  17.696  16.733  14.001
76417W        W46232   4.310  27.483  12.837
76418W        W46233  30.611  41.521  14.373
76419W        W46234  28.647  15.125   4.313
76420W        W46235   2.778  12.200  12.934
76421W        W46236  33.486   6.236   2.662
76422W        W46237  27.646   7.827   2.753
76423W        W46238   2.416  40.313  11.049
76424W        W46239   9.344  12.752  13.811
76425W        W46240  16.809   1.305   4.770
76426W        W46241   4.724   1.479   3.273
76427W        W46242  37.580  27.190  14.402
76428W        W46243  36.591  33.563   5.570
76429W        W46244   4.257  20.585   2.747
76430W        W46245  18.710  33.507   1.245
76431W        W46246   5.821   8.711   3.857
76432W        W46247  42.331   6.737  10.469
76433W        W46248  40.840  24.648   0.881
76434W        W46249  31.123   1.751   4.663
76435W        W46250  11.314  42.370  10.997
76436W        W46251   3.760  25.691   4.243
76437W        W46252  23.068  23.126   0.313
76438W        W46253  41.469  43.300  10.950
76439W        W46254  13.307  17.075   5.641
76440W        W46255  19.065  34.380   2.826
76441W        W46256   3.255  44.968   2.890
76442W        W46257  21.748   0.293   1.300
76443W        W46258  11.802  22.176   1.364
76444W        W46259   2.966  40.441  14.844
76445W        W46260   8.721   6.348  12.347
76446W        W46261  24.601  19.252  12.551
76447W        W46262  19.655  40.964   3.342
76448W        W46263  33.125  22.236  11.901
76449W        W46264   8.751  32.493   2.326
76450W        W46265  19.105   0.759  12.386
76451W        W46266  13.146  12.658   0.325
76452W        W46267  25.502  41.326  13.904
76453W        W46268  32.454   7.900  10.606
76454W        W46269  20.028  12.255  13.468
76455W        W46270  44.349  40.991   2.391
76456W        W46271   5.850   2.422  10.943
76457W        W46272   6.234  21.591   1.332
76458W        W46273  28.591   5.814   0.896
76459W        W46274  30.449  42.021   1.817
76460W        W46275  16.153  10.657   2.187
76461W        W46276  28.001  32.888  11.052
76462W        W46277  27.612  31.112   2.220
76463W        W46278  17.719  42.446  11.426
76464W        W46279  14.125   8.787   4.145
76465W        W46280  42.916   9.153   4.705
76466W        W46281  13.257  19.667  13.013
76467W        W46282  19.096  16.240   2.674
76468W        W46283  37.016   3.258   3.842
76469W        W46284  10.281  41.400   3.863
76470W        W46285  14.214  41.384  10.957
76471W        W46286  42.930  15.598  11.399
76472W        W46287  19.231  20.241  12.555
76473W        W46288  31.404  10.155  12.048
76474W        W46289   5.359  22.555   0.944
76475W        W46290  22.741  31.427  12.011
76476W        W46291   3.365  18.765  14.000
76477W        W46292  23.090   9.329   0.728
76478W        W46293  11.844  43.290  13.432
76479W        W46294  16.646  40.802  13.488
76480W        W46295  40.869   5.416   2.870
76481W        W46296   1.429  32.925   4.178
76482W        W46297  23.078  15.234  13.425
76483W        W46298  43.425  31.973  14.327
76484W        W46299  20.742  32.054  10.543
76485W        W46300  33.119  37.482   2.285
76486W        W46301   8.399  39.327   5.085
76487W        W46302   9.254  20.709   4.279
76488W        W46303  44.322  20.553  13.308
76489W        W46304  30.062  26.120  10.531
76490W        W46305   5.933  11.627  14.945
76491W        W46306   7.751  38.075  13.985
76492W        W46307  44.494  25.087  10.115
76493W        W46308  27.961  17.200  12.491
76494W        W46309  40.411  15.582   9.986
76495W        W46310  35.426  44.311   3.778
76496W        W46311   5.918  19.178  10.896
76497W        W46312  35.390  12.823  12.091
76498W        W46313  13.668  22.044  13.025
76499W        W46314  16.579  28.090   1.383
76500W        W46315   3.950   7.721  11.877
76501W        W46316   4.755  42.305   4.338
76502W        W46317  15.668  35.963   2.857
76503W        W46318  25.134  14.204  12.560
76504W        W46319  29.537  23.053  11.550
76505W        W46320  37.920  32.472   3.851
76506W        W46321  11.156  19.145   1.269
76507W        W46322   5.234  37.558  11.005
76508W        W46323  41.296   1.842  13.342
76509W        W46324  11.632  40.406   2.776
76510W        W46325   9.676  37.575  10.514
76511W        W46326  19.670  42.881  13.803
76512W        W46327  27.050  29.435  11.022
76513W        W46328  41.418  10.383  11.124
76514W        W46329  23.193  19.755   5.207
76515W        W46330  39.051   6.768  10.929
76516W        W46331  13.646  37.468   4.343
76517W        W46332  37.081  27.175  14.996
76518W        W46333  44.933  29.138  11.897
76519W        W46334  44.953   1.259  12.920
76520W        W46335  38.871  38.009  14.968
76521W        W46336  25.181  26.080  10.562
76522W        W46337  19.552  25.135   2.817
76523W        W46338  38.965  15.234   1.790
76524W        W46339  21.635  43.996   1.705
76525W        W46340  22.137  34.523   1.243
76526W        W46341  22.111  19.169   3.190
76527W        W46342   4.873   2.967   1.415
76528W        W46343  26.586   7.803   0.433
76529W        W46344   1.799  28.065  13.827
76530W        W46345  23.730  12.236   3.728
76531W        W46346  29.136  30.421  10.561
76532W        W46347  38.821  22.245   3.747
76533W        W46348  13.104  15.189   0.421
76534W        W46349  26.521   3.393  10.600
76535W        W46350  20.247  22.029  12.923
76536W        W46351  35.449  33.978   4.304
76537W        W46352  23.126  30.630  13.867
76538W        W46353   7.290  14.758  13.952
76539W        W46354  31.535   8.289  12.895
76540W        W46355  12.221  30.072   1.883
76541W        W46356   8.834   9.395   2.838
76542W        W46357  33.913  22.196  14.321
76543W        W46358   5.361   3.415  11.102
76544W        W46359   8.319  31.491   1.281
76545W        W46360  34.002  39.932  13.858
76546W        W46361   8.272  33.394   0.339
76547W        W46362  13.216   0.359   4.644
76548W        W46363  12.132  32.897   4.736
76549W        W46364  40.466  36.407  10.568
76550W        W46365  31.591  22.046   1.767
76551W        W46366  21.567  12.660   1.365
76552W        W46367   6.800  11.231   4.310
76553W        W46368  22.744   4.343   3.336
76554W        W46369  33.518  42.429   2.816
76555W        W46370  31.602  23.526  14.853
76556W        W46371  27.074  38.029   0.933
76557W        W46372  24.631  29.036  13.396
76558W        W46373  20.731  26.206  11.515
76559W        W46374  34.994   3.827  14.322
76560W        W46375  13.833  37.549   1.223
76561W        W46376  43.374  42.361  13.918
76562W        W46377  35.581   4.830   0.301
76563W        W46378  30.029   3.319  12.451
76564W        W46379  29.445   4.786   0.830
76565W        W46380  32.036  32.525  12.959
76566W        W46381  16.740   7.284  14.835
76567W        W46382  28.436  16.663   4.122
76568W        W46383   6.754  23.048  14.955
76569W        W46384  11.637  12.638   3.754
76570W        W46385  11.348   4.745  10.431
76571W        W46386   6.863  26.108  14.986
76572W        W46387  25.505  19.589   9.939
76573W        W46388  31.903  24.515  12.452
76574W        W46389   4.738  22.533  12.041
76575W        W46390  34.474   1.383  13.851
76576W        W46391  12.252  38.334   4.243
76577W        W46392  16.306  22.553   2.707
76578W        W46393  36.377  32.083   2.808
76579W        W46394  15.269  25.141  13.391
76580W        W46395   9.764  37.420  11.606
76581W        W46396  34.976   2.328  13.886
76582W        W46397  23.119   1.394  13.930
76583W        W46398  17.646  18.183   1.317
76584W        W46399  29.990  11.293   4.676
76585W        W46400  13.654  18.266   3.267
76586W        W46401  10.836  11.642  10.030
76587W        W46402  39.844  12.227  13.417
76588W        W46403  14.593  12.261   0.790
76589W        W46404  39.559   3.258  10.457
76590W        W46405  10.339  14.163  11.974
76591W        W46406   7.349  20.760   0.375
76592W        W46407   1.348  21.066  10.940
76593W        W46408   3.415  42.437   0.374
76594W        W46409  33.000  30.161  12.023
76595W        W46410  15.627  31.980  14.506
76596W        W46411  27.062  37.025   2.401
76597W        W46412  15.213  40.991   1.318
76598W        W46413  26.975   1.785   0.904
76599W        W46414  19.768  43.371  12.457
76600W        W46415  40.984   2.403  12.965
76601W        W46416   9.657   0.976  12.996
76602W        W46417   4.816  21.066   3.707
76603W        W46418  42.931  17.655  13.469
76604W        W46419  33.553  22.509  10.444
76605W        W46420   0.281  18.768  12.907
76606W        W46421  13.774  22.019   0.951
76607W        W46422   6.793  26.139   0.736
76608W        W46423  24.635   5.844  13.421
76609W        W46424  13.220   6.789   0.773
76610W        W46425   0.939   5.718  11.567
76611W        W46426  43.386  23.638  11.449
76612W        W46427  44.492  31.943  13.806
76613W        W46428  33.085  39.454   3.739
76614W        W46429  41.513  16.129   0.443
76615W        W46430   5.276  38.837   4.142
76616W        W46431  38.980  19.678  14.441
76617W        W46432   4.251  15.163  11.503
76618W        W46433  40.441  29.047  11.091
76619W        W46434  23.589   3.856   3.189
76620W        W46435  30.592  29.572  10.476
76621W        W46436   4.798  37.038  13.827
76622W        W46437   2.752   1.330   4.701
76623W        W46438  33.074  43.805   4.688
76624W        W46439  20.170  43.479   2.877
76625W        W46440   3.913  18.657   3.707
76626W        W46441  36.560  11.656   3.285
76627W        W46442  34.063   6.891   2.272
76628W        W46443   2.407  36.549  11.550
76629W        W46444  38.985  20.591   2.694
76630W        W46445   1.280  35.025   3.377
76631W        W46446  41.908  24.139  13.063
76632W        W46447  33.557  30.463   2.195
76633W        W46448  25.205   5.818   1.864
76634W        W46449  38.494  24.526   3.238
76635W        W46450  40.426  42.462   0.816
76636W        W46451  34.931  11.171   4.185
76637W        W46452  20.753   4.712  13.311
76638W        W46453   5.690   8.346  14.489
76639W        W46454  41.336  38.903  13.895
76640W        W46455  27.952  14.783  11.523
76641W        W46456  34.980  42.946  14.914
76642W        W46457  26.459  31.536  11.006
76643W        W46458  17.234   8.762   1.722
76644W        W46459  22.504  27.673   2.301
76645W        W46460  44.445  37.352   5.289
76646W        W46461   8.351  34.977   3.197
76647W        W46462  39.508  19.161  12.837
76648W        W46463  15.769  41.899   4.252
76649W        W46464  10.199   2.322   1.281
76650W        W46465  30.631  18.164  10.431
76651W        W46466  22.114  37.880  14.275
76652W        W46467  29.625  10.650   1.279
76653W        W46468   5.398  43.942   3.377
76654W        W46469  44.462   1.286   4.150
76655W        W46470   3.858   5.243   1.285
76656W        W46471  26.088   7.208   2.406
76657W        W46472  23.180  19.704   1.421
76658W        W46473  17.575  14.776   3.298
76659W        W46474   1.264  35.450   1.792
76660W        W46475  37.905   3.338  11.466
76661W        W46476  33.003  41.959   0.369
76662W        W46477  31.431  35.064   0.836
76663W        W46478   9.184  22.247  11.388
76664W        W46479  19.617  22.111   0.911
76665W        W46480  33.581  33.607   2.207
76666W        W46481   4.763   2.727   1.901
76667W        W46482   7.273  40.832   3.789
76668W        W46483  42.308  43.273   3.203
76669W        W46484  12.121  17.555   4.662
76670W        W46485  29.005   1.345  11.440
76671W        W46486  22.573   8.389   0.926
76672W        W46487  43.951   8.698  12.573
76673W        W46488   0.308  39.897  14.968
76674W        W46489  39.995  43.358   4.146
76675W        W46490   0.842  10.201   3.662
76676W        W46491  14.291   3.776   1.893
76677W        W46492  12.731  28.978   1.902
76678W        W46493  25.007  44.341   0.432
76679W        W46494  21.216  10.679  13.810
76680W        W46495  25.571   7.865  11.390
76681W        W46496  42.295  38.481  14.996
76682W        W46497  41.908  36.885   4.138
76683W        W46498  21.593   8.853  10.922
76684W        W46499   5.780   7.684   1.434
76685W        W46500  21.728  28.165   1.287
76686W        W46501  29.463  13.169   1.342
76687W        W46502  23.080  17.775  11.588
76688W        W46503  26.125  38.957  14.291
76689W        W46504  14.104   4.816  14.356
76690W        W46505   9.246   4.327  13.982
76691W        W46506  39.508  32.022  11.395
76692W        W46507  24.075  38.929  14.443
76693W        W46508  40.459  12.150  11.907
76694W        W46509  10.726  19.770   5.235
76695W        W46510  40.978  16.647   2.719
76696W        W46511  33.961  28.533   4.615
76697W        W46512  27.578  34.598   4.748
76698W        W46513  29.500   7.222  14.402
76699W        W46514  29.070   7.828   1.265
76700W        W46515  34.001  26.025   0.963
76701W        W46516   2.286  29.522   1.341
76702W        W46517  31.445  20.160   2.687
76703W        W46518  30.148  11.354   3.150
76704W        W46519  43.790  37.560  14.288
76705W        W46520  36.500   5.821   1.710
76706W        W46521  16.232  31.152  11.451
76707W        W46522  23.046  22.171  11.031
76708W        W46523   0.878  26.182   3.791
76709W        W46524  25.670  13.603   3.816
76710W        W46525  28.007  40.049   3.185
76711W        W46526  34.423  39.470  14.365
76712W        W46527  11.227  36.853  11.874
76713W        W46528  42.787  23.490   4.693
76714W        W46529  40.408  41.497  14.862
76715W        W46530  16.631  23.720   3.826
76716W        W46531  40.045   1.873   5.151
76717W        W46532  26.694  18.670  10.987
76718W        W46533   1.406   6.879  11.490
76719W        W46534  38.847  40.841  10.604
76720W        W46535  16.694  28.469  14.992
76721W        W46536   4.890   8.710   0.342
76722W        W46537  35.974   2.720  14.920
76723W        W46538  17.762  25.145  12.964
76724W        W46539  20.076  43.356  12.518
76725W        W46540  21.163  14.760   2.256
76726W        W46541  38.495  25.975   2.698
76727W        W46542  22.538  43.925   3.630
76728W        W46543  28.939  18.554   1.294
76729W        W46544   0.755  43.346  13.367
76730W        W46545  14.117   5.795  10.936
76731W        W46546  33.963   1.776  14.908
76732W        W46547   9.854  21.173  12.875
76733W        W46548  11.317  28.982   0.399
76734W        W46549   0.753  23.084   2.400
76735W        W46550  25.170  36.944  12.533
76736W        W46551  14.746  25.671   0.892
76737W        W46552  34.968  35.000   0.853
76738W        W46553  23.659   8.396  14.378
76739W        W46554  15.146  26.663  14.816
76740W        W46555   2.851  23.690  12.439
76741W        W46556  29.514  25.172  11.556
76742W        W46557  43.354  43.828   4.233
76743W        W46558  11.695  10.236   2.826
76744W        W46559  38.375  30.646   1.790
76745W        W46560   5.823  41.353  12.867
76746W        W46561  22.679  30.143  11.982
76747W        W46562  25.021   4.720   2.690
76748W        W46563  31.434  27.965   2.304
76749W        W46564  40.822   9.156   4.215
76750W        W46565  36.523   7.833  14.773
76751W        W46566  16.698  22.056   1.310
76752W        W46567   0.311  18.668  13.957
76753W        W46568  41.899  21.189   1.926
76754W        W46569  38.421  31.128   2.681
76755W        W46570  34.522  27.123   2.321
76756W        W46571  13.841  28.518   4.197
76757W        W46572  41.390  34.481   3.347
76758W        W46573  13.807  12.819   3.314
76759W        W46574  15.264   6.923   0.778
76760W        W46575  28.933   2.298   4.197
76761W        W46576  38.508   2.232  10.895
76762W        W46577  44.267  18.554  11.126
76763W        W46578   6.332  21.122  11.518
76764W        W46579  23.570  11.254   3.217
76765W        W46580  11.318  20.735   3.320
76766W        W46581  30.154   0.483   3.840
76767W        W46582   5.726  37.378   2.680
76768W        W46583  31.450  41.474  12.399
76769W        W46584  32.908  22.662   2.217
76770W        W46585   2.901  29.642   1.919
76771W        W46586   6.893   2.355  14.426
76772W        W46587   7.400  26.196  13.000
76773W        W46588  34.067  16.138   0.376
76774W        W46589   3.875  36.020   2.307
76775W        W46590  19.254   7.907   3.303
76776W        W46591  25.201  42.337   1.870
76777W        W46592  36.010   3.879  10.934
76778W        W46593   9.667  36.001   0.321
76779W        W46594  42.509   1.842  10.477
76780W        W46595   7.390  44.369   1.719
76781W        W46596  39.016  36.982   0.753
76782W        W46597  26.677  42.488  11.451
76783W        W46598  12.350   6.897   4.192
76784W        W46599  20.216   4.840   0.278
76785W        W46600   3.915  43.780  12.865
76786W        W46601   5.369  18.249   0.409
76787W        W46602  10.281  19.759  12.829
76788W        W46603  35.474   6.686  12.555
76789W        W46604  37.990  12.651   5.297
76790W        W46605  20.122  28.509  12.899
76791W        W46606  41.396  18.631   3.708
76792W        W46607  44.887  23.202   3.168
76793W        W46608  43.777  40.859   1.726
76794W        W46609  43.307  27.617   0.272
76795W        W46610  41.399  26.656  12.527
76796W        W46611  15.783  34.121  11.914
76797W        W46612  36.086   6.735   3.153
76798W        W46613  31.104  36.361   1.840
76799W        W46614  36.918   4.792   2.382
76800W        W46615   7.809   7.827  14.361
76801W        W46616  37.345   1.319  14.013
76802W        W46617  43.790  29.005  13.332
76803W        W46618  27.155   2.872  11.932
76804W        W46619  13.307  20.032   0.266
76805W        W46620  43.375   4.809   1.313
76806W        W46621  27.164   5.908  10.502
76807W        W46622   2.425  11.622  10.643
76808W        W46623   7.249  39.829   2.669
76809W        W46624  10.141   9.168   2.381
76810W        W46625  29.991  21.653  12.968
76811W        W46626  18.726   0.884   5.130
76812W        W46627  34.505  44.318  14.818
76813W        W46628  30.628   0.314   3.864
76814W        W46629  43.319   6.903   2.362
76815W        W46630  22.571  44.828  14.029
76816W        W46631  16.569   6.315  11.525
76817W        W46632  20.064  37.504   0.366
76818W        W46633  12.125  18.270  14.012
76819W        W46634   4.815  33.089  10.021
76820W        W46635  12.155  24.076  14.960
76821W        W46636  20.760   3.762  14.018
76822W        W46637  20.632  32.095   4.311
76823W        W46638  13.641  20.685   2.817
76824W        W46639  32.993  16.098   1.335
76825W        W46640  17.760  15.105  11.051
76826W        W46641   8.393  38.441   5.676
76827W        W46642  40.807  16.771  12.423
76828W        W46643  21.190  39.383  13.913
76829W        W46644  37.428  23.132   4.135
76830W        W46645  10.227  10.650  10.941
76831W        W46646   5.319  42.507   1.726
76832W        W46647  32.032  40.841  12.425
76833W        W46648  28.999   5.740   1.711
76834W        W46649  38.840  15.751   3.213
76835W        W46650  15.284   3.923   1.296
76836W        W46651  33.123  39.362  13.347
76837W        W46652   6.834  34.382  13.519
76838W        W46653   7.875   7.403   4.685
76839W        W46654   5.798  44.918  13.507
76840W        W46655  13.742  19.225   4.728
76841W        W46656  42.866  43.515   2.704
76842W        W46657  27.614   6.894   4.245
76843W        W46658  24.199  37.498   3.385
76844W        W46659  39.841   1.934  10.557
76845W        W46660  18.777  12.662  11.898
76846W        W46661  18.769  44.332   9.981
76847W        W46662  33.608   0.315   2.741
76848W        W46663  42.864  40.460  14.027
76849W        W46664  31.630  29.459  13.323
76850W        W46665  29.052  20.527   0.462
76851W        W46666  33.017  12.657   3.850
76852W        W46667   0.841  28.078   0.775
76853W        W46668  28.077  25.603   1.851
76854W        W46669  22.105  22.730   2.209
76855W        W46670  15.701   7.342  10.437
76856W        W46671  14.595  40.343   0.747
76857W        W46672  26.594  29.544   2.840
76858W        W46673  37.979  17.729  11.899
76859W        W46674  27.161  37.048  12.844
76860W        W46675  21.700  15.129  13.531
76861W        W46676  17.108  31.963   0.309
76862W        W46677   9.732  42.794  14.278
76863W        W46678   0.746  24.112  13.952
76864W        W46679  16.295  12.245   2.307
76865W        W46680  40.893  18.601  10.571
76866W        W46681  34.957  16.764   4.337
76867W        W46682  35.486   2.462  12.877
76868W        W46683  17.662  13.161  14.021
76869W        W46684   7.260  36.037   3.220
76870W        W46685  10.228  33.553  11.881
76871W        W46686  39.319  27.064   1.763
76872W        W46687   3.314   8.325   4.316
76873W        W46688   2.445  13.697   0.786
76874W        W46689   3.357  27.619  13.021
76875W        W46690  37.043  10.308  14.392
76876W        W46691   0.457   2.239  13.358
76877W        W46692  29.554  30.150   0.940
76878W        W46693   5.759  10.823  12.906
76879W        W46694  37.992  31.613   3.748
76880W        W46695  41.933  21.690   2.259
76881W        W46696  36.886   1.324   2.696
76882W        W46697   5.871  28.980  10.922
76883W        W46698   9.849   2.857  14.801
76884W        W46699   0.924  12.621   2.236
76885W        W46700   9.389  37.543   0.395
76886W        W46701  38.993  25.995   2.185
76887W        W46702  42.002  17.093  12.452
76888W        W46703  13.166  15.213  10.639
76889W        W46704  10.819   6.276   4.240
76890W        W46705   9.313  15.768   3.354
76891W        W46706  37.532  22.154   1.242
76892W        W46707  13.768  30.523  11.043
76893W        W46708  14.702   0.331   2.795
76894W        W46709  30.620   7.734  13.997
76895W        W46710  36.891  35.899  11.896
76896W        W46711  16.296  35.902   0.960
76897W        W46712  33.966  28.019  10.928
76898W        W46713   9.833  30.653  12.998
76899W        W46714   1.473   9.823   1.224
76900W        W46715  32.465  37.411   4.656
76901W        W46716  31.988  43.328  13.476
76902W        W46717  31.550  21.586   2.228
76903W        W46718  41.835   3.899   2.863
76904W        W46719   9.298   6.807  12.430
76905W        W46720   4.295  29.450  11.520
76906W        W46721  26.619  25.641  11.502
76907W        W46722   9.653  26.964   3.817
76908W        W46723   1.337  31.586  14.315
76909W        W46724  33.559  21.210  10.444
76910W        W46725  29.071  42.825  13.811
76911W        W46726  39.901  13.800  11.907
76912W        W46727  19.610  11.177   1.732
76913W        W46728  21.144   7.263   1.371
76914W        W46729  18.627  33.913   0.250
76915W        W46730  33.426  44.783   4.321
76916W        W46731  31.626  21.731  14.877
76917W        W46732  35.923  25.665   2.835
76918W        W46733   2.472   7.225   3.665
76919W        W46734  14.646  33.126   2.669
76920W        W46735  23.137  33.563  13.002
76921W        W46736  41.321  38.846   2.820
76922W        W46737   4.367  23.109   0.286
76923W        W46738  20.641  41.524   4.254
76924W        W46739  25.153  26.087   4.192
76925W        W46740   6.213  43.798   2.330
76926W        W46741  26.988  13.606   2.410
76927W        W46742  25.998   6.379  14.511
76928W        W46743  40.851  32.426  14.004
76929W        W46744  12.835  18.725   1.783
76930W        W46745  30.085  28.940   0.929
76931W        W46746  37.439  23.148  10.532
76932W        W46747  29.112  26.676  10.619
76933W        W46748   2.768  21.129  11.041
76934W        W46749   1.862   0.407   1.870
76935W        W46750   6.273  10.818   4.692
76936W        W46751  18.727  38.404   0.265
76937W        W46752  30.159  27.076  14.508
76938W        W46753  22.121   6.209   1.908
76939W        W46754  27.605  38.838  11.993
76940W        W46755  40.460  43.386  10.597
76941W        W46756  15.148  12.126   3.307
76942W        W46757  39.375  23.174   3.150
76943W        W46758   9.314  22.573  12.536
76944W        W46759  23.199  25.032  12.443
76945W        W46760  12.350  42.396   3.235
76946W        W46761  40.479  38.997   4.768
76947W        W46762   0.987   8.348  11.003
76948W        W46763  13.689  41.536   2.370
76949W        W46764  22.554   2.866  11.487
76950W        W46765  12.193   0.808   4.747
76951W        W46766   3.773  26.115  11.425
76952W        W46767  30.473  18.644  14.351
76953W        W46768  39.845  23.053  12.410
76954W        W46769   9.394  14.687   3.650
76955W        W46770  33.077  12.611  13.487
76956W        W46771  21.529  18.150  13.317
76957W        W46772  30.983  32.393  13.892
76958W        W46773  16.133  17.176  11.024
76959W        W46774  17.712  32.575  14.027
76960W        W46775  26.104  14.245  10.488
76961W        W46776   6.897  11.177  11.941
76962W        W46777  24.032  12.735   5.318
76963W        W46778   5.286   3.453  12.014
76964W        W46779   3.885   4.848   0.325
76965W        W46780  35.601  41.323  14.980
76966W        W46781  22.064  39.409  12.913
76967W        W46782   5.373  12.721   2.847
76968W        W46783  11.788  18.612   0.293
76969W        W46784  20.701   2.329  14.445
76970W        W46785  13.297  29.588  13.540
76971W        W46786   5.857  27.063   0.477
76972W        W46787  33.472  44.965  12.956
76973W        W46788  15.192  44.755  11.057
76974W        W46789   8.193  18.722   3.664
76975W        W46790   7.875  10.196   3.201
76976W        W46791  14.123  43.956  12.081
76977W        W46792  12.777  30.496  10.563
76978W        W46793   1.253  43.467   0.910
76979W        W46794  19.642  26.659   0.835
76980W        W46795  11.172  30.965   3.215
76981W        W46796  15.124  20.093   4.648
76982W        W46797  27.621   5.374   2.376
76983W        W46798  43.407  42.486  10.970
76984W        W46799  14.724  33.437   4.625
76985W        W46800   9.256  13.150   1.767
76986W        W46801  13.214  27.612   2.897
76987W        W46802  23.732  34.491  12.469
76988W        W46803  30.131  16.634  12.488
76989W        W46804   8.229   5.888  11.013
76990W        W46805   2.401  39.445   4.281
76991W        W46806   4.425  25.136   0.428
76992W        W46807  13.290  30.534  10.966
76993W        W46808  29.044  21.208  13.469
76994W        W46809  22.091  20.170  14.364
76995W        W46810  26.579  29.006  11.436
76996W        W46811  17.267  39.019  13.346
76997W        W46812  20.723  13.206  11.882
76998W        W46813  43.896   3.427   9.932
76999W        W46814  27.150  22.717   4.334
77000W        W46815  34.425  17.212  11.537
77001W        W46816  35.995  21.033  11.531
77002W        W46817   5.278  29.980  12.084
77003W        W46818   4.237  15.725  13.371
77004W        W46819  32.529  42.863   3.681
77005W        W46820   7.252  13.294  10.449
77006W        W46821  20.111  40.414  13.919
77007W        W46822  32.984  23.228   4.113
77008W        W46823   4.267  37.047   3.672
77009W        W46824  41.020   3.783   0.900
77010W        W46825  40.528   7.217   5.138
77011W        W46826   7.225  33.018   4.748
77012W        W46827   1.467  27.482  12.034
77013W        W46828  36.881  33.614   5.240
77014W        W46829  36.887  43.412  10.434
77015W        W46830  12.853  21.223   4.220
77016W        W46831  19.098  11.674  12.980
77017W        W46832  35.964  30.533   0.455
77018W        W46833  13.230  24.676  11.392
77019W        W46834   3.263  40.886  12.924
77020W        W46835  30.956  39.025   3.252
77021W        W46836  34.867  22.043   2.192
77022W        W46837  26.123  28.975   0.446
77023W        W46838  28.151   5.903  13.515
77024W        W46839  26.632  37.479   4.242
77025W        W46840   0.258  44.764   3.771
77026W        W46841  13.764  36.382  11.096
77027W        W46842  23.990  16.284   0.454
77028W        W46843  43.441  22.200   4.759
77029W        W46844  42.463  29.580   0.344
77030W        W46845   0.389  44.964  11.885
77031W        W46846  10.194   8.350   1.824
77032W        W46847  29.462  33.053   4.641
77033W        W46848  32.617  29.446   3.374
77034W        W46849  33.922  29.144  12.394
77035W        W46850  35.553  18.130  14.811
77036W        W46851  29.491   2.432  12.025
77037W        W46852  27.050  19.633  10.073
77038W        W46853  36.415  27.453   4.245
77039W        W46854  22.122  44.431   0.306
77040W        W46855  14.116  17.184  14.403
77041W        W46856   4.420  14.640  10.457
77042W        W46857  38.929  43.890   0.460
77043W        W46858  21.654  18.267   4.343
77044W        W46859  27.067  23.044  13.529
77045W        W46860  36.962   7.316   3.799
77046W        W46861  19.106  17.568   3.383
77047W        W46862  30.945  34.937  11.866
77048W        W46863  34.376   7.265   2.879
77049W        W46864  37.431  15.280   0.419
77050W        W46865  41.978  30.476  11.049
77051W        W46866  42.796   4.428  12.899
77052W        W46867   8.884  39.499  13.937
77053W        W46868  17.226  26.115   1.238
77054W        W46869  10.815  17.145   2.718
77055W        W46870  22.171  16.116  11.440
77056W        W46871  29.500  20.708   3.257
77057W        W46872  34.463  39.831  10.449
77058W        W46873  37.535   7.357  14.431
77059W        W46874  27.158  20.733  14.389
77060W        W46875  22.606   8.757  13.978
77061W        W46876  29.516   4.703  11.561
77062W        W46877   4.842  38.359  10.047
77063W        W46878  16.802  32.070  14.782
77064W        W46879  19.193  26.130   4.654
77065W        W46880  27.611  23.692   2.234
77066W        W46881  38.411  35.418  13.370
77067W        W46882  28.123  44.886  12.061
77068W        W46883  29.602  44.390   0.898
77069W        W46884  29.165  21.600  12.088
77070W        W46885  23.199  27.090  10.509
77071W        W46886  28.157  34.951   4.633
77072W        W46887  17.103   5.268  11.582
77073W        W46888  22.062  28.622  13.466
77074W        W46889   9.750  35.548  11.935
77075W        W46890  20.105  34.527  14.346
77076W        W46891   6.720   9.274  10.570
77077W        W46892   8.358   0.295   0.255
77078W        W46893  29.469  40.408  10.484
77079W        W46894  10.879  39.544   1.329
77080W        W46895  35.981  44.381  13.807
77081W        W46896  40.518   7.241   1.863
77082W        W46897  32.608   3.712   1.269
77083W        W46898  18.681  40.490  13.035
77084W        W46899  13.114   0.981   1.733
77085W        W46900  24.490  19.725  14.769
77086W        W46901  41.839  10.685   4.835
77087W        W46902  41.361  23.551   2.796
77088W        W46903  18.071  38.905   1.360
77089W        W46904   6.241  33.029   2.820
77090W        W46905   7.335  25.147   4.723
77091W        W46906  13.809  34.369  14.897
77092W        W46907   5.915   3.434  14.997
77093W        W46908  40.821  29.589   4.331
77094W        W46909  27.978  23.046  13.040
77095W        W46910  36.879  14.104   5.169
77096W        W46911  30.577  35.583   1.874
77097W        W46912   4.795  26.122   2.694
77098W        W46913   1.783  18.588   4.705
77099W        W46914  27.195  31.017  12.500
77100W        W46915  29.441  10.796   4.179
77101W        W46916   6.917  10.668   0.465
77102W        W46917  19.608  15.288  14.957
77103W        W46918   8.708   2.727   0.389
77104W        W46919   1.866  31.067  11.031
77105W        W46920   9.187  38.429   2.799
77106W        W46921  37.888  15.665   2.241
77107W        W46922   2.882  30.011   0.961
77108W        W46923  29.603  10.839   0.354
77109W        W46924  35.074  35.445  12.033
77110W        W46925  26.980  42.843  10.589
77111W        W46926   5.886  32.447   0.413
77112W        W46927  31.489  36.533   0.848
77113W        W46928   2.892  18.715   1.408
77114W        W46929  20.555   8.335   1.224
77115W        W46930  41.361  30.535   2.822
77116W        W46931   1.269   6.889   2.319
77117W        W46932  21.250   1.337   2.807
77118W        W46933  35.537  26.670   4.678
77119W        W46934  25.040   1.267  13.889
77120W        W46935  30.029   9.852   3.734
77121W        W46936   5.239  38.374  11.480
77122W        W46937  14.323  11.265   0.960
77123W        W46938   4.718  41.356  11.458
77124W        W46939   9.774  29.924   3.812
77125W        W46940  34.395  27.451  10.542
77126W        W46941  39.545  11.197   2.289
77127W        W46942  19.596  21.026   5.214
77128W        W46943  43.432  11.354   2.187
77129W        W46944   3.916   4.791   2.276
77130W        W46945   4.285  33.947   0.404
77131W        W46946   0.444  26.585   0.370
77132W        W46947  27.487  38.066  14.514
77133W        W46948  18.721   8.309   3.687
77134W        W46949  34.035  37.945   3.798
77135W        W46950  44.434  22.024   0.876
77136W        W46951  23.636   8.775   4.164
77137W        W46952  32.428   8.849  11.396
77138W        W46953  33.131  14.794  11.980
77139W        W46954  38.330  29.444   0.421
77140W        W46955   6.251  19.092   0.248
77141W        W46956  23.111   7.242  13.478
77142W        W46957  20.275  39.441   0.964
77143W        W46958  10.267   9.325  10.535
77144W        W46959  38.352  20.207   1.293
77145W        W46960  14.303  31.947   0.280
77146W        W46961  27.084   9.818   1.300
77147W        W46962  14.795  28.960  13.527
77148W        W46963  20.230   3.231  14.882
77149W        W46964  14.650   4.848   2.259
77150W        W46965   5.298  34.572  12.095
77151W        W46966  31.944  26.994   4.311
77152W        W46967  37.575  19.187  12.900
77153W        W46968  29.956   3.760  14.924
77154W        W46969  14.134  44.274   0.280
77155W        W46970   1.254  28.128  10.441
77156W        W46971  29.666  39.061   2.762
77157W        W46972  38.951  34.109   4.819
77158W        W46973  41.862  28.109   3.702
77159W        W46974  21.228   6.419   4.170
77160W        W46975  18.208  35.014   3.689
77161W        W46976  23.679   6.296  10.565
77162W        W46977   9.852  26.461  14.344
77163W        W46978   3.785  15.640  12.576
77164W        W46979  29.628  37.899   3.778
77165W        W46980  14.819  16.221   4.631
77166W        W46981  10.747  21.557  14.781
77167W        W46982  29.019  33.573   3.736
77168W        W46983  42.297  31.612  11.060
77169W        W46984  32.964  14.205  13.497
77170W        W46985  42.929   3.932  13.540
77171W        W46986  38.384  23.551  12.848
77172W        W46987  35.956  24.526   0.929
77173W        W46988  43.312  43.487  12.074
77174W        W46989  31.439  18.590   3.725
77175W        W46990  31.926  21.165  12.514
77176W        W46991  24.121  33.058  11.482
77177W        W46992   6.790  11.652   0.347
77178W        W46993  38.518   5.355  14.834
77179W        W46994  24.077   2.822   4.191
77180W        W46995  20.064   4.808  11.570
77181W        W46996  30.528  21.674  13.451
77182W        W46997  11.200   8.195  14.387
77183W        W46998   0.760   3.236   3.725
77184W        W46999  35.917  29.139   3.653
77185W        W47000  36.902  29.016   4.712
77186W        W47001  22.570  21.202  12.469
77187W        W47002  20.716  16.300  13.043
77188W        W47003  33.050  12.695  12.875
77189W        W47004  18.694   1.388   1.305
77190W        W47005  24.076  32.948   3.772
77191W        W47006  10.646  16.761   2.892
77192W        W47007  37.384  44.797  10.497
77193W        W47008  23.214   0.451  14.386
77194W        W47009  31.484  39.818  13.452
77195W        W47010  24.724  32.408   2.737
77196W        W47011  29.153  27.051  12.828
77197W        W47012  42.391  28.180  11.947
77198W        W47013  37.404   9.352  13.494
77199W        W47014  26.519  23.525   3.385
77200W        W47015   6.857   4.345   0.780
77201W        W47016  23.203  40.846   4.617
77202W        W47017  30.096  14.603  12.508
77203W        W47018  19.150  17.763  14.322
77204W        W47019  10.806  13.178  14.943
77205W        W47020   4.877   9.300  10.581
77206W        W47021  28.450  20.653   2.403
77207W        W47022   0.407  19.272   0.823
77208W        W47023  12.720   3.725   4.335
77209W        W47024  43.421   4.356   2.361
77210W        W47025  31.149   9.345  13.007
77211W        W47026  29.519  19.116  12.575
77212W        W47027  26.009  39.451   0.349
77213W        W47028  23.603  32.933   0.892
77214W        W47029  27.041  33.584  10.120
77215W        W47030  44.965   6.701   3.869
77216W        W47031   6.775  11.672  11.501
77217W        W47032   5.345  14.616  14.873
77218W        W47033  12.663  23.125   3.656
77219W        W47034  21.048  16.257   2.254
77220W        W47035  35.501  44.467   0.331
77221W        W47036  37.472   9.644   3.829
77222W        W47037  39.845  38.493   0.846
77223W        W47038  39.033  27.002  11.913
77224W        W47039   0.752  36.883   3.306
77225W        W47040  25.177  27.612  14.812
77226W        W47041  42.449  26.004   1.759
77227W        W47042   6.841  24.200   1.831
77228W        W47043  34.554  31.923   5.599
77229W        W47044   6.396  39.832   4.761
77230W        W47045  23.056  24.166   4.785
77231W        W47046   5.426  12.201   1.912
77232W        W47047  23.036  40.905  12.877
77233W        W47048   4.731  15.754   0.839
77234W        W47049   0.955   7.338  11.566
77235W        W47050  16.170  35.472   2.371
77236W        W47051  30.605   1.271   1.306
77237W        W47052  15.273  30.550   2.855
77238W        W47053   7.908  20.762  12.475
77239W        W47054  30.965   4.324  12.019
77240W        W47055  26.011  22.635  12.555
77241W        W47056   2.239  20.030   3.364
77242W        W47057  17.298  24.504   1.812
77243W        W47058  10.213   7.212   0.957
77244W        W47059  36.046  14.825   3.326
77245W        W47060  16.118  25.155   4.778
77246W        W47061  44.853  20.617   0.893
77247W        W47062  27.144  28.991   4.660
77248W        W47063  17.096  20.753   3.330
77249W        W47064   2.370   2.779   0.393
77250W        W47065   5.853  34.074   2.723
77251W        W47066  29.090  28.473   2.683
77252W        W47067  21.103  24.192  13.001
77253W        W47068  28.066  41.886   1.312
77254W        W47069  13.709   4.321   3.359
77255W        W47070   8.262  21.586  13.832
77256W        W47071  34.916  25.594  11.464
77257W        W47072  28.093  14.129   0.424
77258W        W47073  40.020  27.044  11.512
77259W        W47074  11.323  44.363   0.946
77260W        W47075   4.446   9.766   4.770
77261W        W47076  23.490  44.320   4.728
77262W        W47077  42.387   1.312   4.200
77263W        W47078  29.588  44.497   4.191
77264W        W47079  29.005  36.463   4.124
77265W        W47080  12.240  20.657   0.300
77266W        W47081  39.402   0.973  12.933
77267W        W47082  16.285  26.608   4.180
77268W        W47083  39.348  27.689   1.775
77269W        W47084  26.557  22.653   0.315
77270W        W47085  38.484  43.945  14.431
77271W        W47086  35.484  37.948   0.312
77272W        W47087  13.179   0.969  12.552
77273W        W47088   9.692  22.100  13.904
77274W        W47089  27.616  24.708  11.111
77275W        W47090  23.016  21.253   1.228
77276W        W47091  40.304  14.244  11.005
77277W        W47092  12.777  24.697  13.950
77278W        W47093   6.262  15.688   1.789
77279W        W47094   5.275  30.002  13.911
77280W        W47095  14.099  31.904  10.504
77281W        W47096  41.805   5.335   3.219
77282W        W47097  37.014  25.521   0.888
77283W        W47098  36.923  35.050  12.082
77284W        W47099  12.161  18.051   1.220
77285W        W47100   3.723  38.006  13.445
77286W        W47101   8.658  34.571   4.290
77287W        W47102   6.717  18.751   0.376
77288W        W47103   9.774  15.618   4.340
77289W        W47104  28.502   2.275   3.651
77290W        W47105  14.120  19.235  12.050
77291W        W47106   0.824   4.245  12.948
77292W        W47107  20.698  12.819   1.219
77293W        W47108  43.849  41.312  11.960
77294W        W47109  30.998  37.879  14.444
77295W        W47110  14.265  39.462   4.831
77296W        W47111  11.148  29.038   3.178
77297W        W47112  24.187  21.187   2.891
77298W        W47113  31.961  13.295   0.408
77299W        W47114   6.326  27.484  10.426
77300W        W47115  31.475  12.316   2.418
77301W        W47116   1.816  36.552  11.942
77302W        W47117  41.343  23.165  11.410
77303W        W47118  22.714  18.197  10.123
77304W        W47119  10.639  18.711   4.241
77305W        W47120  24.489  10.209  12.414
77306W        W47121   1.245  16.792  14.291
77307W        W47122   9.777   9.248  14.951
77308W        W47123  40.035  13.316  13.498
77309W        W47124   4.344   0.294   4.610
77310W        W47125   9.715  41.298   5.620
77311W        W47126  29.004  27.511   0.956
77312W        W47127  42.809  11.753  10.492
77313W        W47128  37.458  35.930  12.343
77314W        W47129  20.752   7.350   2.666
77315W        W47130  11.200  19.691  10.422
77316W        W47131  15.702  29.921   3.738
77317W        W47132  41.437  18.186   4.636
77318W        W47133  33.605   8.231   0.462
77319W        W47134  27.475  14.717  11.512
77320W        W47135  20.621  11.339   1.257
77321W        W47136  15.298  37.502  12.361
77322W        W47137  30.014  40.519   0.377
77323W        W47138  40.358   9.288   1.286
77324W        W47139   7.380   4.704   2.302
77325W        W47140  22.555   5.770  12.448
77326W        W47141  29.541   1.397  11.397
77327W        W47142   4.440  12.236   0.328
77328W        W47143  22.061  30.541  11.884
77329W        W47144  41.824  24.646  14.763
77330W        W47145  29.936   4.367  11.020
77331W        W47146   2.944  32.444   2.864
77332W        W47147  19.152  20.127  14.805
77333W        W47148  20.610  19.637   0.310
77334W        W47149  25.058  31.009  11.073
77335W        W47150  40.876   3.245   0.353
77336W        W47151  18.657  15.305   0.460
77337W        W47152  20.220  35.101   4.750
77338W        W47153  24.575  40.474   0.285
77339W        W47154  44.771  25.550   4.333
77340W        W47155  37.004  10.354  13.820
77341W        W47156  20.752  38.390  13.026
77342W        W47157  32.446  15.084  13.937
77343W        W47158   5.871   2.233  11.486
77344W        W47159  43.362  16.614  12.459
77345W        W47160  43.307  40.307   0.875
77346W        W47161   9.847   2.854  10.474
77347W        W47162  22.645  39.345  14.792
77348W        W47163  28.993  29.555  14.874
77349W        W47164  44.305  40.040   3.722
77350W        W47165  31.557  38.365   3.812
77351W        W47166  17.299  16.747   3.362
77352W        W47167   4.745   0.274   1.295
77353W        W47168  22.143  20.107   4.244
77354W        W47169  29.076  25.002   2.241
77355W        W47170  26.065  39.898   1.214
77356W        W47171   9.677  11.774   2.707
77357W        W47172   1.970   6.859  14.029
77358W        W47173  41.987  29.059   0.805
77359W        W47174   4.843  42.358  13.441
77360W        W47175  26.470  15.697  13.488
77361W        W47176  20.055   2.789   2.279
77362W        W47177  44.424  29.501   2.256
77363W        W47178  26.608  14.663  11.588
77364W        W47179  37.350  33.518  11.464
77365W        W47180  23.052  34.974   0.480
77366W        W47181  23.669  21.028  11.974
77367W        W47182  25.130  28.506   1.288
77368W        W47183  43.338   6.765  10.563
77369W        W47184  28.010  22.029  12.376
77370W        W47185  23.566  24.067  13.516
77371W        W47186  37.425  30.431   3.659
77372W        W47187  42.315   1.323   2.749
77373W        W47188  36.919  37.990   2.758
77374W        W47189  23.586  14.699   3.773
77375W        W47190  38.419  23.503   0.788
77376W        W47191  34.530  25.962   3.773
77377W        W47192   8.688  17.280  14.932
77378W        W47193  44.272  29.154   4.808
77379W        W47194   1.756   0.937   0.769
77380W        W47195   3.388  41.442  12.874
77381W        W47196  12.675  20.271   4.747
77382W        W47197  37.851  28.110  14.328
77383W        W47198  14.753  44.330  11.944
77384W        W47199  32.434  41.427   2.212
77385W        W47200  21.039  20.549   3.676
77386W        W47201  27.050  33.389   1.425
77387W        W47202  36.844  32.544   4.785
77388W        W47203   2.904  24.556   1.887
77389W        W47204  10.263   2.824   1.707
77390W        W47205  14.273  23.525  11.056
77391W        W47206  29.481  35.530  11.969
77392W        W47207  27.025  27.167   2.678
77393W        W47208  38.379  44.982  10.579
77394W        W47209  33.979  24.546  10.933
77395W        W47210  38.355  26.508  10.626
77396W        W47211  38.931   7.177  14.858
77397W        W47212  13.246  31.464   2.769
77398W        W47213   9.751  33.980  12.068
77399W        W47214  44.412   9.372  13.363
77400W        W47215  27.446  29.569   4.261
77401W        W47216   5.803  19.154   0.334
77402W        W47217  40.479  38.043   1.364
77403W        W47218  38.546  41.825  14.810
77404W        W47219  36.353  43.463  13.045
77405W        W47220  23.222  17.070  14.367
77406W        W47221  22.205  35.053  13.312
77407W        W47222  35.947  29.457   0.324
77408W        W47223  20.750   0.267  14.482
77409W        W47224  20.265  22.588   3.790
77410W        W47225  13.612   5.394   4.316
77411W        W47226  32.453   1.395  14.932
77412W        W47227  30.457  36.398  11.377
77413W        W47228   9.759  19.160   2.682
77414W        W47229   1.421  29.545  11.875
77415W        W47230  42.014  21.035   3.709
77416W        W47231  37.342  43.470   1.272
77417W        W47232   3.811  42.285   1.909
77418W        W47233  31.900  24.627  11.893
77419W        W47234  32.950  37.376  11.970
77420W        W47235  40.362  10.191   2.779
77421W        W47236   1.775  13.675   4.127
77422W        W47237  11.681  43.337   2.371
77423W        W47238  26.643  36.421  12.003
77424W        W47239  11.318  17.120  14.806
77425W        W47240  10.338   9.244  10.062
77426W        W47241  29.938  12.328   3.715
77427W        W47242  27.507  26.045  14.923
77428W        W47243  31.965  40.989   2.799
77429W        W47244   7.389   2.852  12.478
77430W        W47245  35.014  31.603  12.578
77431W        W47246  17.306  29.108   1.419
77432W        W47247  32.073  31.577   0.332
77433W        W47248  21.109  30.130   2.722
77434W        W47249  42.432  21.106  12.383
77435W        W47250  39.024  15.271   2.725
77436W        W47251   6.264  41.430   0.476
77437W        W47252  35.383  26.611  11.450
77438W        W47253  23.153  13.827  11.546
77439W        W47254  44.878  18.282  13.962
77440W        W47255   4.419  32.131  13.538
77441W        W47256  37.408  31.614   3.171
77442W        W47257  27.629  39.831   4.154
77443W        W47258  39.326  44.454  10.472
77444W        W47259  39.527   7.780   2.179
77445W        W47260  10.726   5.368   4.689
77446W        W47261  31.117  17.245  11.885
77447W        W47262  30.636  20.651   4.182
77448W        W47263  44.354  32.457  13.992
77449W        W47264   8.318  43.881  14.455
77450W        W47265  30.656  13.766  12.931
77451W        W47266  20.104   4.389  13.003
77452W        W47267   1.877  37.858  12.376
77453W        W47268   8.870  21.553   0.840
77454W        W47269  42.969   9.265  12.463
77455W        W47270  16.103   8.744   4.121
77456W        W47271  21.603   3.346   3.289
77457W        W47272  13.277  23.596   1.816
77458W        W47273  10.656  27.557   0.958
77459W        W47274  19.763  33.045  11.925
77460W        W47275   2.794  40.394   0.916
77461W        W47276   4.794  23.561  11.592
77462W        W47277  42.835  11.816  12.570
77463W        W47278   7.904   5.784   2.215
77464W        W47279  39.474  17.218  13.997
77465W        W47280   0.257   6.232  11.376
77466W        W47281  18.604  19.172   3.698
77467W        W47282  18.079   9.669  12.540
77468W        W47283  13.807  16.700  12.990
77469W        W47284   1.406  17.597   2.399
77470W        W47285  13.654  37.018  14.933
77471W        W47286  19.211  25.643  11.081
77472W        W47287  26.964  13.333   2.225
77473W        W47288  15.222  17.232  13.981
77474W        W47289  24.174  22.183  12.475
77475W        W47290  15.697  27.447  11.478
77476W        W47291  16.778  35.069   1.440
77477W        W47292  40.376   0.298  12.090
77478W        W47293  29.652   6.822   0.328
77479W        W47294  14.713  15.202   0.849
77480W        W47295  33.559  29.958   1.788
77481W        W47296  37.944   8.861  14.795
77482W        W47297  19.760   8.196  11.099
77483W        W47298  22.106  34.105  12.553
77484W        W47299  29.124  10.706  14.421
77485W        W47300   3.261  39.050   4.270
77486W        W47301  15.792  29.657  10.613
77487W        W47302  38.043  14.321   0.815
77488W        W47303  37.449  42.992  13.814
77489W        W47304   4.227  17.792   2.335
77490W        W47305   5.899  11.260  13.420
77491W        W47306  36.525  26.660   9.993
77492W        W47307  30.555  13.314  12.083
77493W        W47308   5.878   0.393  12.965
77494W        W47309  12.622  13.143   0.412
77495W        W47310  12.341  36.518  10.552
77496W        W47311   6.304  13.643   3.334
77497W        W47312  43.364  35.371   4.768
77498W        W47313  34.537   8.338   2.324
77499W        W47314  31.123   3.772  14.924
77500W        W47315  34.061  27.108  10.461
77501W        W47316  16.249  11.687   3.213
77502W        W47317   7.339   6.211  12.048
77503W        W47318  12.774  32.990   1.921
77504W        W47319   9.393  27.558   3.158
77505W        W47320   6.907   1.452  11.015
77506W        W47321   3.337   8.163   2.729
77507W        W47322  19.050  38.941   0.271
77508W        W47323   8.274  37.936   2.855
77509W        W47324   7.304  19.075  13.439
77510W        W47325  29.593  42.878  14.329
77511W        W47326  27.060  30.992  10.541
77512W        W47327  35.853  36.385  13.394
77513W        W47328  25.001  20.087  11.521
77514W        W47329  20.577   5.197   3.224
77515W        W47330  28.999   8.850  13.996
77516W        W47331  37.380   1.287   0.313
77517W        W47332  16.645   1.896   0.777
77518W        W47333   6.400  24.150  11.450
77519W        W47334  24.161   8.656   1.277
77520W        W47335  21.714  31.522  11.879
77521W        W47336  25.163  13.730  12.462
77522W        W47337  13.841  32.468   0.265
77523W        W47338  30.525   6.713  13.486
77524W        W47339  13.791   2.894  10.448
77525W        W47340   6.427  24.722   3.688
77526W        W47341  10.309   6.375  14.310
77527W        W47342   3.953  39.869  12.367
77528W        W47343   0.936  24.571   0.352
77529W        W47344  37.916  13.687   3.355
77530W        W47345  33.615  35.559  12.512
77531W        W47346   6.406  36.501  10.903
77532W        W47347  25.040   3.853  12.519
77533W        W47348   6.329  17.266  13.937
77534W        W47349  35.062  23.119   1.313
77535W        W47350  44.941  32.135   3.821
77536W        W47351   7.827  41.836  10.626
77537W        W47352  13.791  27.019  10.422
77538W        W47353  28.109  12.823  12.436
77539W        W47354   3.248  36.059  11.012
77540W        W47355  13.698  18.659  14.005
77541W        W47356  22.028  35.873  14.940
77542W        W47357  19.058  40.519   2.671
77543W        W47358  15.794  26.018  14.972
77544W        W47359   7.715   3.813  14.775
77545W        W47360  29.113  16.300  11.885
77546W        W47361   9.825  15.132  13.055
77547W        W47362  10.766  12.673   0.383
77548W        W47363  33.924  41.848   2.750
77549W        W47364  32.981   9.276  13.910
77550W        W47365  11.748  13.790   2.227
77551W        W47366   0.276  37.416  12.431
77552W        W47367  36.933   2.417  14.438
77553W        W47368  38.048   4.923   2.824
77554W        W47369  25.093  12.686   1.244
77555W        W47370  25.056  26.576   4.159
77556W        W47371  16.251   0.792  13.006
77557W        W47372  20.582  44.756  14.015
77558W        W47373  34.922  27.651   2.274
77559W        W47374  34.607   3.420   2.808
77560W        W47375  38.445  35.404  10.959
77561W        W47376  32.618  27.672  14.446
77562W        W47377   2.762  28.611  12.523
77563W        W47378   1.330  33.533   2.821
77564W        W47379  40.949   1.779   2.882
77565W        W47380  41.492  21.060  14.859
77566W        W47381   2.289  27.060   3.645
77567W        W47382  26.558  14.188   2.747
77568W        W47383  31.932  37.360  12.825
77569W        W47384  16.255  35.431  10.520
77570W        W47385  19.076  33.576   2.664
77571W        W47386  14.271  13.288  11.947
77572W        W47387  27.034  40.453  12.544
77573W        W47388  34.897  30.074   1.215
77574W        W47389  19.232  39.832   4.256
77575W        W47390   1.929  23.645   4.796
77576W        W47391   6.276  37.044  14.785
77577W        W47392  37.375  44.455  14.505
77578W        W47393  26.160   5.798  13.820
77579W        W47394  24.501  38.878   0.748
77580W        W47395  22.563  10.748  12.476
77581W        W47396  41.852  30.043  13.850
77582W        W47397  33.928  25.997   1.239
77583W        W47398  35.080   4.365   3.203
77584W        W47399  28.595  41.786   4.277
77585W        W47400  33.423   4.866  11.872
77586W        W47401  39.342  36.049  10.643
77587W        W47402  17.111  31.559  13.979
77588W        W47403  40.921  19.623  11.999
77589W        W47404  25.128  34.075   2.663
77590W        W47405  33.993   5.777  10.573
77591W        W47406  29.999   3.279   1.418
77592W        W47407  40.848  30.414  11.959
77593W        W47408   1.452  39.885  11.603
77594W        W47409  28.636  14.809   3.705
77595W        W47410  17.151   8.762   2.241
77596W        W47411  17.671  42.350   0.759
77597W        W47412  32.944  41.399  12.983
77598W        W47413  18.750  38.066   3.711
77599W        W47414  42.393  19.615  12.493
77600W        W47415  37.443  38.441  13.440
77601W        W47416  26.106  37.438   4.306
77602W        W47417  12.319   0.859  13.534
77603W        W47418  14.603  37.379   2.338
77604W        W47419  34.103  40.354   3.300
77605W        W47420  42.499  41.003  12.885
77606W        W47421  43.822  12.214   1.836
77607W        W47422  28.542  38.546  11.046
77608W        W47423   3.274  24.062  13.051
77609W        W47424  44.342   2.453   1.251
77610W        W47425   2.935  14.198  12.395
77611W        W47426  12.660  37.556  11.023
77612W        W47427  30.148  40.819  11.000
77613W        W47428  37.411  24.617  14.884
77614W        W47429  42.500  32.904   2.850
77615W        W47430  43.791  23.689  13.423
77616W        W47431  33.929  12.772   3.639
77617W        W47432  36.540  35.038  10.896
77618W        W47433  14.750  25.980   3.667
77619W        W47434   5.286  10.833  12.935
77620W        W47435  12.806  19.709   4.613
77621W        W47436   2.750   5.300  11.454
77622W        W47437  24.620  38.054   0.796
77623W        W47438  22.732  31.604  10.899
77624W        W47439  22.624  44.477  12.854
77625W        W47440  23.720  34.531   0.961
77626W        W47441  35.404  36.542   2.362
77627W        W47442  39.920  12.843  12.931
77628W        W47443   7.736  23.585   4.796
77629W        W47444  18.641  19.593  12.935
77630W        W47445  39.874  44.778  10.055
77631W        W47446   4.293  25.107   3.831
77632W        W47447   3.383  34.574  11.990
77633W        W47448   9.394  15.703  13.851
77634W        W47449  13.229  30.040  11.973
77635W        W47450   0.960  22.027   1.260
77636W        W47451  35.545  44.006  13.897
77637W        W47452  35.426  10.788  12.559
77638W        W47453  15.250  39.875   3.837
77639W        W47454  14.258  21.227  11.973
77640W        W47455   9.195  41.939  14.857
77641W        W47456  29.623   2.452   1.701
77642W        W47457  39.999  29.050   0.750
77643W        W47458   4.284  14.260  12.030
77644W        W47459  14.326  17.137   2.308
77645W        W47460  13.704   4.858   4.791
77646W        W47461  31.929   0.942   3.706
77647W        W47462  41.975  23.015  12.364
77648W        W47463  27.627  42.795  14.903
77649W        W47464  31.126  18.683  10.540
77650W        W47465  16.216  15.096  11.032
77651W        W47466  13.711   0.784  11.579
77652W        W47467   2.449  40.411  13.866
77653W        W47468  26.689  23.095   4.149
77654W        W47469  14.294  22.630  14.515
77655W        W47470  10.830  44.446   0.953
77656W        W47471  28.960  17.760  12.905
77657W        W47472  34.486   3.721   4.166
77658W        W47473  31.938  28.537   1.310
77659W        W47474  22.617  37.936  12.956
77660W        W47475  25.021  15.638  12.020
77661W        W47476  44.898  41.837  12.010
77662W        W47477  22.135  23.672   2.787
77663W        W47478  36.878  34.409  14.442
77664W        W47479   1.425  33.956   2.688
77665W        W47480  34.096  17.173  14.945
77666W        W47481   8.843   6.780   2.784
77667W        W47482  26.525  19.562  12.488
77668W        W47483  13.687  27.581  11.577
77669W        W47484   5.430  32.016   1.850
77670W        W47485  44.398  42.033  12.090
77671W        W47486  25.117   3.255  10.638
77672W        W47487   3.247   1.395  14.826
77673W        W47488  32.108  13.150   2.690
77674W        W47489  23.081   2.924   2.222
77675W        W47490  43.820  33.483  13.966
77676W        W47491  41.443  30.659  11.940
77677W        W47492   2.418  43.461   4.125
77678W        W47493  33.102  37.994   1.919
77679W        W47494  14.818  34.987  10.477
77680W        W47495   3.417  25.199  14.944
77681W        W47496  36.064  11.293  10.421
77682W        W47497  28.544  43.802   1.756
77683W        W47498  27.484  43.345  14.495
77684W        W47499   8.765  17.797   2.900
77685W        W47500  30.559  12.215  10.987
77686W        W47501  30.605  15.624  12.003
77687W        W47502  28.594  24.609  10.641
77688W        W47503  31.499  34.579  10.607
77689W        W47504  18.141  36.859   0.480
77690W        W47505  32.416  39.388  10.456
77691W        W47506  21.181  33.105  10.633
77692W        W47507  11.311  16.235  14.831
77693W        W47508   4.830  36.090   1.323
77694W        W47509  22.171  44.326  11.452
77695W        W47510  22.125  37.370  10.086
77696W        W47511  41.296  16.131  12.003
77697W        W47512   6.345  32.445   3.343
77698W        W47513   9.711  21.641  10.537
77699W        W47514  42.286  18.117   1.406
77700W        W47515  17.251  18.267  12.430
77701W        W47516  29.110  31.496  13.944
77702W        W47517  25.081   6.882   4.832
77703W        W47518  33.595   0.313  12.344
77704W        W47519  27.960  38.012   2.324
77705W        W47520  34.913  38.962   5.259
77706W        W47521   3.769  41.420   3.197
77707W        W47522  43.303  40.414  12.954
77708W        W47523  23.654  24.669   2.773
77709W        W47524   1.739  31.150   0.741
77710W        W47525   6.188  38.858   2.671
77711W        W47526   7.320  15.202  10.941
77712W        W47527  24.696  27.462  10.572
77713W        W47528  26.190  33.897   3.710
77714W        W47529  41.926  15.159   4.716
77715W        W47530  22.178   7.787   2.380
77716W        W47531   1.786  10.290   4.762
77717W        W47532  41.985  31.918   2.417
77718W        W47533   6.199  29.173  10.107
77719W        W47534  36.481   5.259   1.832
77720W        W47535  32.131  35.569  11.605
77721W        W47536   0.766   0.460  11.104
77722W        W47537   6.411   1.293   4.286
77723W        W47538  34.095   9.247  12.412
77724W        W47539  16.155  15.169  14.452
77725W        W47540   0.983  15.768   3.868
77726W        W47541  40.853  31.076  14.492
77727W        W47542  30.583   3.220   5.314
77728W        W47543  20.265  16.133  11.409
77729W        W47544  42.809   7.851   3.835
77730W        W47545  22.142  40.032   3.820
77731W        W47546  38.869  43.918  11.997
77732W        W47547  14.707  13.287   4.762
77733W        W47548  11.204   0.976   3.307
77734W        W47549  43.389  22.528  12.383
77735W        W47550   1.752  13.730   1.332
77736W        W47551  23.637  11.679   1.340
77737W        W47552  36.038  31.454  10.424
77738W        W47553  40.437   8.676  10.054
77739W        W47554  28.088  27.991   4.152
77740W        W47555  28.025  15.677   0.356
77741W        W47556   4.261  39.468   0.932
77742W        W47557  15.166  37.844   2.780
77743W        W47558  31.601  29.924  12.423
77744W        W47559  41.964  22.232  14.942
77745W        W47560  42.948  29.922  11.446
77746W        W47561  35.421  19.177  12.375
77747W        W47562  36.474  39.853  12.363
77748W        W47563  39.383  12.834   3.748
77749W        W47564   9.713  21.532  11.096
77750W        W47565   6.338   5.785   2.219
77751W        W47566  39.917  37.514   0.899
77752W        W47567   1.448  32.139  13.868
77753W        W47568  22.635  33.994  13.406
77754W        W47569  41.319  12.353  13.364
77755W        W47570  42.008  20.047   4.754
77756W        W47571  12.851  11.312  11.001
77757W        W47572  29.570   7.246   3.356
77758W        W47573   4.801  27.985   4.759
77759W        W47574   0.476  18.549  12.581
77760W        W47575  25.610  33.884   3.368
77761W        W47576  33.453  22.661   2.301
77762W        W47577  15.808  22.039   2.324
77763W        W47578  16.235  44.993   0.370
77764W        W47579   8.900  21.530  11.094
77765W        W47580  19.073  42.871  13.880
77766W        W47581  17.786  29.932   0.280
77767W        W47582  16.311  23.587  12.566
77768W        W47583  20.047  31.021   3.866
77769W        W47584  21.250  10.185   4.140
77770W        W47585  18.590  27.966   2.813
77771W        W47586   0.804  36.060   0.911
77772W        W47587  19.536  38.039   1.744
77773W        W47588  36.429  27.530  11.100
77774W        W47589  24.513  10.736  12.353
77775W        W47590  36.377  15.701   4.255
77776W        W47591  43.940   5.896   4.286
77777W        W47592  32.899  34.558  14.479
77778W        W47593  13.638  14.611  11.099
77779W        W47594   1.406  41.886   4.320
77780W        W47595  44.270   5.901   4.145
77781W        W47596   7.364  27.610   2.714
77782W        W47597  34.888  26.499   1.390
77783W        W47598  14.728  31.964   0.347
77784W        W47599  19.157  40.959  12.490
77785W        W47600  35.382  13.278   4.333
77786W        W47601  39.440  18.571  12.447
77787W        W47602  20.589  12.662  13.913
77788W        W47603  12.626  38.484  12.354
77789W        W47604  27.997  37.839  13.894
77790W        W47605   0.375  30.423  14.373
77791W        W47606   3.717   9.888   2.315
77792W        W47607  35.423  14.289  12.433
77793W        W47608  32.552  34.402   4.654
77794W        W47609   5.908  18.548  12.987
77795W        W47610  38.012  19.710   2.862
77796W        W47611   4.820  15.768   4.189
77797W        W47612  14.131  11.817  12.908
77798W        W47613  34.965  33.008  14.961
77799W        W47614  39.015  36.581  10.441
77800W        W47615  10.663  39.462  11.070
77801W        W47616   6.840   8.735  12.540
77802W        W47617  24.558  29.161   2.333
77803W        W47618  13.298  13.742   2.273
77804W        W47619  38.929  16.192  14.817
77805W        W47620   1.306  35.397   3.849
77806W        W47621  36.465  19.077   4.764
77807W        W47622  13.824  32.994  11.541
77808W        W47623   9.285  30.454   2.831
77809W        W47624  36.365  16.186  12.472
77810W        W47625   2.867   1.751  14.480
77811W        W47626  26.103  35.074  13.341
77812W        W47627  13.260  44.317  11.109
77813W        W47628   8.715   9.329   4.137
77814W        W47629  34.936  24.015  12.446
77815W        W47630  18.615  12.187  14.818
77816W        W47631  31.077  25.159  12.026
77817W        W47632  22.579  32.959   2.862
77818W        W47633  23.107  24.126   0.952
77819W        W47634  18.703  14.256  11.021
77820W        W47635  15.620   2.806  12.408
77821W        W47636   5.354  16.613   3.215
77822W        W47637  24.142  41.929   2.734
77823W        W47638  17.075  25.559   0.384
77824W        W47639  11.827  33.484   5.224
77825W        W47640  22.708  37.846  12.505
77826W        W47641  27.494  40.472  12.490
77827W        W47642  15.656  13.119   4.765
77828W        W47643  21.692  36.418   2.673
77829W        W47644   7.369  23.063  11.554
77830W        W47645  39.047  43.877   4.822
77831W        W47646  29.986   0.840  12.046
77832W        W47647  16.140  44.879  11.579
77833W        W47648   5.746  33.563  11.022
77834W        W47649  37.381   2.884  13.391
77835W        W47650  18.191  23.677   2.790
77836W        W47651  27.613  42.417  12.988
77837W        W47652   5.738  18.552   0.858
77838W        W47653   7.776  17.072   5.190
77839W        W47654  13.672  26.556  12.363
77840W        W47655   3.282   7.291   2.823
77841W        W47656   5.786  24.105   2.894
77842W        W47657  39.320  14.719   2.206
77843W        W47658   8.656   0.822   0.412
77844W        W47659  11.161  40.392  14.012
77845W        W47660  30.108   8.802   2.727
77846W        W47661   9.829  12.841   1.254
77847W        W47662  33.004  24.214  12.945
77848W        W47663  27.996  29.584  11.428
77849W        W47664   8.299  25.057  14.854
77850W        W47665   7.385   8.708  13.401
77851W        W47666  18.613   5.434   4.785
77852W        W47667  20.031   8.877  10.002
77853W        W47668  32.999  29.445   1.298
77854W        W47669  29.651  43.959   4.217
77855W        W47670   0.983   0.744   1.725
77856W        W47671  10.169  42.902  10.538
77857W        W47672   5.389   7.174   0.249
77858W        W47673  15.766  14.835  13.413
77859W        W47674   7.844  43.780  11.060
77860W        W47675  10.368   2.876   2.303
77861W        W47676  26.575  21.090   1.879
77862W        W47677  15.321  41.978  10.437
77863W        W47678  10.261  13.725  14.026
77864W        W47679  33.025  27.687  12.457
77865W        W47680  40.436  43.490   1.237
77866W        W47681  34.909   0.408  11.002
77867W        W47682   9.161  13.157  10.407
77868W        W47683   6.220  25.663  14.916
77869W        W47684  43.290  30.985   3.151
77870W        W47685  10.762  29.044   4.212
77871W        W47686  14.636  27.659   3.209
77872W        W47687  23.073  35.105   2.406
77873W        W47688  39.881  20.263  12.989
77874W        W47689  21.163  18.785   0.774
77875W        W47690   4.904   5.426  11.923
77876W        W47691  28.449  42.514  13.816
77877W        W47692  28.072  16.177   4.828
77878W        W47693  34.923  12.254   4.268
77879W        W47694  23.998  12.795  11.057
77880W        W47695  10.706  41.817   1.805
77881W        W47696  23.032  14.625   1.702
77882W        W47697   8.685  12.279  11.472
77883W        W47698   3.287  26.060  11.057
77884W        W47699  25.130  30.045  11.007
77885W        W47700  43.333  44.885   4.782
77886W        W47701   5.704  41.388  12.409
77887W        W47702  17.627  36.966   2.209
77888W        W47703  21.609  44.927  12.370
77889W        W47704  37.864  22.741  12.361
77890W        W47705   8.187   3.727  10.995
77891W        W47706  41.815   7.811   2.812
77892W        W47707  19.162  21.674   3.679
77893W        W47708   3.425  26.194  14.793
77894W        W47709  42.821   3.936   2.364
77895W        W47710   3.330  28.598  12.994
77896W        W47711  19.090  42.398  12.909
77897W        W47712  26.200  38.903   1.449
77898W        W47713   4.744  16.572  13.833
77899W        W47714  30.011  27.546   0.285
77900W        W47715  19.679  36.523   4.354
77901W        W47716  20.574  16.760  11.492
77902W        W47717  17.634  40.011   0.893
77903W        W47718  14.313  37.450   4.295
77904W        W47719   6.235   3.441   2.245
77905W        W47720   5.730  36.391  13.041
77906W        W47721  24.178  29.440   1.410
77907W        W47722  22.695   2.774  11.997
77908W        W47723  25.641   9.755  12.524
77909W        W47724  20.089  35.104   0.876
77910W        W47725   4.204  39.397  12.550
77911W        W47726  19.553  39.995  11.102
77912W        W47727   8.184   4.855   2.328
77913W        W47728  30.027  12.634   0.413
77914W        W47729   5.886   3.773   0.269
77915W        W47730  19.772  14.806  14.281
77916W        W47731  13.117  42.894  12.081
77917W        W47732  34.602   3.284  13.917
77918W        W47733  35.935   6.710  10.499
77919W        W47734  24.183  39.869  10.432
77920W        W47735  40.999  18.783  12.465
77921W        W47736  29.144   6.378   0.439
77922W        W47737  37.046  18.073   3.244
77923W        W47738  41.508  41.874   2.365
77924W        W47739  42.298  29.097   1.379
77925W        W47740   4.208  44.943  10.556
77926W        W47741  28.107   5.816   3.344
77927W        W47742  35.937   1.278  14.443
77928W        W47743   8.197  24.508   2.243
77929W        W47744  11.185   4.299   1.795
77930W        W47745  19.145   2.942   2.279
77931W        W47746  39.045  28.596   3.383
77932W        W47747  35.394  20.704  10.457
77933W        W47748  43.993  19.778  11.860
77934W        W47749  32.618  13.630   4.198
77935W        W47750  19.557  32.125   9.983
77936W        W47751  15.143  22.725  11.599
77937W        W47752   9.235  24.080  12.033
77938W        W47753  31.643  38.895   3.793
77939W        W47754   4.300  42.510  14.909
77940W        W47755  28.021  34.916  10.149
77941W        W47756   1.435  30.591  14.025
77942W        W47757   4.420  19.582   0.452
77943W        W47758  24.551  34.529  10.579
77944W        W47759  31.428  35.402  14.854
77945W        W47760  36.467  38.334   4.803
77946W        W47761  25.079  20.530  13.377
77947W        W47762  21.033   5.731  12.401
77948W        W47763  21.259   4.874  10.496
77949W        W47764   5.801  37.343   1.831
77950W        W47765   9.336  10.864   1.270
77951W        W47766  20.568   9.866   0.757
77952W        W47767  18.666  41.036   4.221
77953W        W47768  34.929  40.388   2.795
77954W        W47769  32.407  31.534   3.732
77955W        W47770  31.980  28.507  10.590
77956W        W47771   0.775   5.860   3.350
77957W        W47772  31.430  32.115  14.893
77958W        W47773   5.281   3.713  14.917
77959W        W47774  40.358  14.740   4.629
77960W        W47775  13.138  31.036  14.839
77961W        W47776  31.989  11.834   1.727
77962W        W47777  14.632  13.350   3.243
77963W        W47778  14.594  40.546   0.308
77964W        W47779  27.580   0.388  12.959
77965W        W47780  35.100  11.671   1.325
77966W        W47781  16.743   0.310  12.546
77967W        W47782  21.049  24.999   3.847
77968W        W47783  26.701  32.613  12.568
77969W        W47784  43.925  23.506   1.292
77970W        W47785   2.438  41.397   9.929
77971W        W47786  27.537  29.133   3.833
77972W        W47787  35.552   0.324  10.436
77973W        W47788   1.833   6.731  12.842
77974W        W47789  22.514  37.450  14.838
77975W        W47790  31.899  43.797  14.004
77976W        W47791  12.286  30.128   2.412
77977W        W47792  39.808   5.379   1.781
77978W        W47793  36.876  18.212  11.454
77979W        W47794  22.567  27.165   2.719
77980W        W47795  41.796  29.932   1.874
77981W        W47796  22.109  13.270   1.918
77982W        W47797  36.522  27.561   0.868
77983W        W47798   8.171   9.717  11.031
77984W        W47799  33.946  35.020  12.402
77985W        W47800  13.267  22.114  12.417
77986W        W47801   7.394  13.272  12.923
77987W        W47802  33.571   9.217  12.082
77988W        W47803  30.994  20.693   1.927
77989W        W47804  38.523  40.020   1.888
77990W        W47805  39.906  10.644   1.921
77991W        W47806  16.643  30.654   4.809
77992W        W47807  21.182  39.350   0.848
77993W        W47808   1.933  37.487  10.515
77994W        W47809   9.287   6.870   2.349
77995W        W47810   5.261  27.466  13.849
77996W        W47811  11.742  42.916  11.956
77997W        W47812  44.852  34.022  12.570
77998W        W47813  16.602  36.447   0.454
77999W        W47814  36.393  28.450   1.351
78000W        W47815  12.658  13.766  11.499
78001W        W47816  17.219  11.215   2.398
78002W        W47817  27.487   5.722   1.742
78003W        W47818  10.241  26.690  12.545
78004W        W47819  10.230  34.105  13.445
78005W        W47820  29.023  17.217  12.536
78006W        W47821  17.668  34.444   4.714
78007W        W47822  42.943  37.440  12.927
78008W        W47823  18.765  39.413  11.885
78009W        W47824  12.232   1.905   1.375
78010W        W47825  22.549  10.218  14.407
78011W        W47826  36.363  41.483  13.039
78012W        W47827   8.664  20.611  10.982
78013W        W47828  39.360  22.043  13.497
78014W        W47829   3.226  24.110  10.523
78015W        W47830  20.156  10.637  13.518
78016W        W47831  29.957  25.189  11.581
78017W        W47832  41.001  26.135   1.694
78018W        W47833   3.356   7.836  12.433
78019W        W47834  21.158   1.897   0.258
78020W        W47835  21.081   8.895   2.208
78021W        W47836  11.141  40.874  14.423
78022W        W47837  11.346  38.345   3.808
78023W        W47838  39.837   7.794  12.377
78024W        W47839  15.233  13.196  11.025
78025W        W47840   0.263  32.548  11.084
78026W        W47841  26.168  39.508   0.729
78027W        W47842  28.606   5.379   1.900
78028W        W47843  41.885  26.961  13.494
78029W        W47844  17.190  29.424  11.955
78030W        W47845  17.725   9.822   0.311
78031W        W47846  13.220  39.474   2.754
78032W        W47847  21.077  16.606   1.774
78033W        W47848  34.437  28.983  12.368
78034W        W47849  34.940  37.417  14.828
78035W        W47850  39.953  26.203   0.422
78036W        W47851   2.373   9.846   3.861
78037W        W47852  10.840  28.019  11.056
78038W        W47853   7.289   9.213   1.397
78039W        W47854  21.193  34.590   3.766
78040W        W47855  29.585   4.915   3.636
78041W        W47856  30.985  25.020   1.216
78042W        W47857   1.404   9.876   0.918
78043W        W47858  39.837  11.710  11.080
78044W        W47859  28.008  14.599   1.720
78045W        W47860   6.822  34.113   3.711
78046W        W47861  41.475  21.580  12.057
78047W        W47862  30.030  41.989  11.076
78048W        W47863  25.117  22.603   1.361
78049W        W47864  13.650  35.456   2.781
78050W        W47865  24.211   4.932   5.100
78051W        W47866  13.339  39.368  14.396
78052W        W47867  32.053  29.474   1.396
78053W        W47868  11.827   8.369  11.858
78054W        W47869  43.497  11.237   0.293
78055W        W47870  23.519  27.468  14.400
78056W        W47871   2.349  16.662  14.793
78057W        W47872  30.464   1.859  10.946
78058W        W47873  11.858  24.023   3.851
78059W        W47874  32.915  14.696  11.537
78060W        W47875  36.532  28.638   4.664
78061W        W47876   9.270  32.993  12.437
78062W        W47877   7.756   6.418   5.192
78063W        W47878   2.350  12.166  11.023
78064W        W47879   8.687  41.997   2.338
78065W        W47880  35.066  42.398  12.967
78066W        W47881  44.882   7.314  14.773
78067W        W47882  30.107  23.673  13.343
78068W        W47883  39.333  33.530  12.537
78069W        W47884  22.205  21.122  11.941
78070W        W47885   9.277  26.999  11.908
78071W        W47886  23.098  23.998  13.344
78072W        W47887  27.175  31.912   4.833
78073W        W47888  10.286  35.872  12.461
78074W        W47889  41.410  33.932  12.560
78075W        W47890   5.846  18.089   4.763
78076W        W47891  34.051  19.218  14.469
78077W        W47892  20.686   5.763   2.818
78078W        W47893  37.441   7.275  13.450
78079W        W47894  27.992   9.220  14.394
78080W        W47895  26.965  31.620   2.324
78081W        W47896  42.983   0.433   0.329
78082W        W47897  30.158  44.312  14.853
78083W        W47898  30.024  11.634  14.892
78084W        W47899   5.372  15.317  11.978
78085W        W47900  26.981   5.296   0.396
78086W        W47901   3.422  17.571  11.954
78087W        W47902  14.326  10.159   4.623
78088W        W47903  28.129   7.804  11.481
78089W        W47904  22.654  34.537  13.410
78090W        W47905  22.042  21.619   4.679
78091W        W47906  21.644   1.907   2.750
78092W        W47907  36.973   0.340   3.273
78093W        W47908  29.085   9.695   4.821
78094W        W47909  17.141  20.769   2.396
78095W        W47910  24.615  37.413   2.863
78096W        W47911   4.894  12.358   4.718
78097W        W47912  20.657  28.026   4.156
78098W        W47913   8.244  30.979  12.373
78099W        W47914  24.080  16.620   9.556
78100W        W47915  35.578  38.004  12.519
78101W        W47916  23.179  36.064   4.141
78102W        W47917  19.069  14.209   2.324
78103W        W47918  13.834  17.142   1.893
78104W        W47919  21.053  43.882   2.408
78105W        W47920   7.202  31.095   4.824
78106W        W47921  29.044   1.770  14.423
78107W        W47922  27.554  38.499   4.190
78108W        W47923  31.925  21.732  12.846
78109W        W47924  15.174  27.587   0.915
78110W        W47925  18.723  12.799  10.531
78111W        W47926  34.535  26.167  13.318
78112W        W47927  32.904  32.467  10.416
78113W        W47928  32.485  44.480   3.782
78114W        W47929   2.288  13.327   0.860
78115W        W47930  30.121   5.283   2.860
78116W        W47931  38.366   5.325   3.827
78117W        W47932   4.342   7.368  11.855
78118W        W47933   9.387  19.563  10.594
78119W        W47934   1.377  12.838  13.990
78120W        W47935  15.126  29.118  13.994
78121W        W47936   9.294  35.993  10.411
78122W        W47937   6.420  36.462  13.059
78123W        W47938  22.075  35.899   3.246
78124W        W47939  16.181   4.942  14.407
78125W        W47940  14.618  13.737   0.292
78126W        W47941  19.230   2.420  12.882
78127W        W47942   0.894  36.494   0.463
78128W        W47943  13.626  44.932   4.190
78129W        W47944  10.643  15.134  14.351
78130W        W47945  25.020  13.330  12.864
78131W        W47946  13.193  27.581  11.405
78132W        W47947  33.931   5.839   2.191
78133W        W47948  25.012   0.441  10.960
78134W        W47949  30.064   6.271   3.823
78135W        W47950  15.672   9.284   1.929
78136W        W47951   1.293  43.883   4.697
78137W        W47952  24.611   2.777  14.326
78138W        W47953  14.170  32.049   4.685
78139W        W47954  16.191   2.849  11.058
78140W        W47955  20.240  17.095   3.864
78141W        W47956  28.005  38.407   0.783
78142W        W47957  18.625  40.314  11.508
78143W        W47958  36.515  25.662   4.232
78144W        W47959   3.405   2.890  10.965
78145W        W47960  40.347  14.700   1.213
78146W        W47961   8.663   5.724   3.767
78147W        W47962  19.096  27.015   1.308
78148W        W47963  33.901  42.504  14.862
78149W        W47964  43.454  27.057  10.586
78150W        W47965  40.920  36.925   0.315
78151W        W47966   0.959  27.615   3.827
78152W        W47967  27.569  29.133   2.756
78153W        W47968  39.559   9.318  14.423
78154W        W47969  30.510   3.422   1.323
78155W        W47970  20.169  16.630  14.502
78156W        W47971  22.116  32.524   4.706
78157W        W47972   4.305   4.912  10.432
78158W        W47973   8.379  21.658  12.022
78159W        W47974  36.944  18.552   2.876
78160W        W47975   7.361  21.568   4.625
78161W        W47976   4.295   5.726   2.407
78162W        W47977  35.598  28.471   4.126
78163W        W47978  44.305  42.799  11.544
78164W        W47979  19.222   9.301  13.430
78165W        W47980  38.018  20.269  12.532
78166W        W47981  42.526  31.598   4.695
78167W        W47982  30.943   3.716   1.374
78168W        W47983  18.127  43.806  13.312
78169W        W47984  29.032   4.349  10.404
78170W        W47985  14.634  24.641  11.512
78171W        W47986  34.044  14.679  13.812
78172W        W47987  29.582   2.736  11.417
78173W        W47988  39.917  42.957  10.527
78174W        W47989  12.656  39.512  12.549
78175W        W47990  40.452   6.208  14.515
78176W        W47991  20.120   2.794  14.464
78177W        W47992  26.593  15.138   2.729
78178W        W47993   2.754  34.034   2.349
78179W        W47994  13.727  40.867   0.885
78180W        W47995   1.918  33.092   1.757
78181W        W47996  20.669  15.197  14.436
78182W        W47997  14.227  26.178  10.925
78183W        W47998  30.480   8.675   2.822
78184W        W47999   7.702  40.374   2.784
78185W        W48000   2.355  27.559  13.374
78186W        W48001  29.951  41.947   3.326
78187W        W48002  34.907  26.556  10.491
78188W        W48003  19.168  32.630  12.398
78189W        W48004  26.474  39.553  10.996
78190W        W48005  18.166  17.755   3.825
78191W        W48006  34.111   3.285  12.581
78192W        W48007  35.101  24.654  14.349
78193W        W48008  23.131  17.737   3.199
78194W        W48009  39.538  25.131   3.228
78195W        W48010   4.847  16.242   2.249
78196W        W48011   0.928  42.800  11.960
78197W        W48012  12.134   5.920   1.210
78198W        W48013  29.019  17.702   3.181
78199W        W48014  22.597   3.403  14.853
78200W        W48015  11.296  26.122   4.701
78201W        W48016  13.816   5.247   2.182
78202W        W48017  13.129  31.029   2.238
78203W        W48018  27.083  39.927   3.804
78204W        W48019  15.270  21.573  10.990
78205W        W48020  35.108  27.472  13.333
78206W        W48021  11.790  25.614  10.638
78207W        W48022   9.247  43.482   1.863
78208W        W48023  19.544  37.925  12.566
78209W        W48024   9.840  13.814  12.968
78210W        W48025  11.655  37.988  13.911
78211W        W48026  37.421   7.690  14.840
78212W        W48027   9.767  11.665   2.269
78213W        W48028  12.712  26.594   4.709
78214W        W48029  32.403   6.836  10.984
78215W        W48030  14.286  21.025   3.798
78216W        W48031  25.621  31.016   0.391
78217W        W48032  38.522  28.633   0.318
78218W        W48033  32.451   4.919   3.336
78219W        W48034  17.092  36.584  14.389
78220W        W48035  30.429  12.231  13.453
78221W        W48036  12.794  18.173   3.766
78222W        W48037  16.135  42.985   1.262
78223W        W48038  37.377   7.876  11.993
78224W        W48039  26.702   6.325   3.277
78225W        W48040  29.125  38.462  14.793
78226W        W48041   1.884  10.868  11.882
78227W        W48042  43.834  43.767   4.782
78228W        W48043  12.714   4.244  14.807
78229W        W48044   7.834  21.168   2.697
78230W        W48045  18.670  41.462  14.953
78231W        W48046  22.619  36.927   0.794
78232W        W48047   1.906  13.170  13.044
78233W        W48048  24.712  11.688  13.409
78234W        W48049  32.511   8.772  14.803
78235W        W48050  21.157  41.521   2.228
78236W        W48051   0.806   4.938   0.256
78237W        W48052  21.119   9.871   4.757
78238W        W48053   6.236   2.949  14.410
78239W        W48054  39.876  37.904   2.220
78240W        W48055  14.627  26.140   1.422
78241W        W48056   1.956   7.347   0.861
78242W        W48057  28.496   0.758   2.220
78243W        W48058   6.850  36.465   0.910
78244W        W48059  44.472  32.962  12.523
78245W        W48060  27.569  38.038   4.818
78246W        W48061   7.805  35.853   4.639
78247W        W48062  17.725   1.873  14.818
78248W        W48063  40.055  14.326   0.369
78249W        W48064  33.893  15.686   9.926
78250W        W48065  18.649  36.000  14.287
78251W        W48066  19.220  13.290   0.285
78252W        W48067   2.966   0.783  14.385
78253W        W48068  17.240  35.095  11.608
78254W        W48069  17.742   7.180   3.750
78255W        W48070  22.574  22.560   3.188
78256W        W48071   6.228  26.202   3.319
78257W        W48072  41.886  31.926  11.916
78258W        W48073  22.118   8.335  11.899
78259W        W48074  15.714  26.535   1.884
78260W        W48075  36.080  36.060   1.908
78261W        W48076   6.386  38.505   2.666
78262W        W48077   1.320  11.644   4.797
78263W        W48078  20.739  27.461   1.289
78264W        W48079   4.712  17.125   3.771
78265W        W48080  32.952  29.127   0.891
78266W        W48081  33.482  35.050  14.324
78267W        W48082  17.219  25.215  12.836
78268W        W48083  15.802  42.007  12.982
78269W        W48084  40.989   3.713   3.830
78270W        W48085  15.278   0.453   0.882
78271W        W48086  11.630  32.414  13.898
78272W        W48087  24.979  33.891   3.817
78273W        W48088  39.946  20.162  12.004
78274W        W48089  41.488  16.314   4.708
78275W        W48090  37.446  36.580  10.405
78276W        W48091   7.792   4.712   0.811
78277W        W48092   2.858  26.698  12.578
78278W        W48093  30.516  23.568  12.839
78279W        W48094  44.864  31.495  10.896
78280W        W48095  25.683  24.688   2.785
78281W        W48096   7.882  30.053   3.293
78282W        W48097  37.022   5.805   0.752
78283W        W48098  18.111  11.686  14.989
78284W        W48099   9.717  23.997  10.509
78285W        W48100   6.744  12.829   3.197
78286W        W48101   1.341  20.547   3.237
78287W        W48102  22.743   1.789   1.329
78288W        W48103  42.811   9.842   4.764
78289W        W48104  40.923  11.138   3.269
78290W        W48105  12.234  40.819  12.915
78291W        W48106  32.565  32.466   4.612
78292W        W48107  23.631   4.299   2.180
78293W        W48108  10.645  29.968   1.779
78294W        W48109  17.090  40.445  14.310
78295W        W48110   1.248   2.339  14.841
78296W        W48111  22.735   7.299  14.389
78297W        W48112  20.192  20.541  14.829
78298W        W48113   5.733  24.044   3.149
78299W        W48114  38.376  42.999   2.383
78300W        W48115  18.129   3.826  13.899
78301W        W48116   5.210  10.288   3.752
78302W        W48117   3.236  30.000   3.346
78303W        W48118   8.884  38.482   4.180
78304W        W48119   9.252  40.519  12.011
78305W        W48120  10.205  12.612  14.960
78306W        W48121  40.026  43.348   2.356
78307W        W48122  23.055  39.349   2.192
78308W        W48123  35.920  38.465  12.382
78309W        W48124  36.483   2.259   2.682
78310W        W48125  30.535   0.283   4.274
78311W        W48126  42.925  16.625   4.822
78312W        W48127  20.564  11.350  14.949
78313W        W48128  26.046   8.825   1.372
78314W        W48129   2.890  14.278  11.461
78315W        W48130  26.973  43.284  12.388
78316W        W48131  17.560  33.938   2.244
78317W        W48132  17.756  17.075  14.315
78318W        W48133  14.279  39.463   4.324
78319W        W48134  37.849   7.684  12.351
78320W        W48135   6.334   5.398  12.946
78321W        W48136  14.668  32.116  13.009
78322W        W48137   2.442  32.102  10.499
78323W        W48138   5.725  44.817   4.345
78324W        W48139  34.556   2.727  13.904
78325W        W48140  43.986   8.690  10.054
78326W        W48141  32.974  39.522   1.376
78327W        W48142   4.870  23.016  12.536
78328W        W48143  21.154   1.244  12.461
78329W        W48144  32.587   0.792  11.080
78330W        W48145  28.019   2.402  10.149
78331W        W48146  12.775   0.285   1.875
78332W        W48147  13.824   1.951   2.784
78333W        W48148   8.779  44.784   0.752
78334W        W48149   6.753  41.351  13.353
78335W        W48150  21.725  24.645   2.277
78336W        W48151  32.478  29.653  13.055
78337W        W48152  19.259  39.946  13.537
78338W        W48153  38.565  28.165  12.096
78339W        W48154  29.465  15.692   2.732
78340W        W48155   8.780  30.005   1.784
78341W        W48156  35.365  26.106  10.533
78342W        W48157  42.313  37.563  11.119
78343W        W48158   0.897  27.620   0.737
78344W        W48159  34.398  30.032   2.418
78345W        W48160  11.717  12.195  14.016
78346W        W48161  19.085  11.247  14.933
78347W        W48162   6.226  26.142  12.095
78348W        W48163  12.849  17.618   3.803
78349W        W48164  30.008   2.250  11.949
78350W        W48165   8.297  26.653   5.164
78351W        W48166  30.082  22.547   3.726
78352W        W48167  18.783  41.351  13.973
78353W        W48168  24.694  15.101   3.242
78354W        W48169  22.613  18.582  14.759
78355W        W48170   5.421  22.678   1.758
78356W        W48171   2.827  16.681  10.573
78357W        W48172   1.288  25.562   1.413
78358W        W48173  43.780  15.691   0.257
78359W        W48174   8.167  15.586  12.078
78360W        W48175  32.116  11.700  10.421
78361W        W48176  15.662   3.439  14.936
78362W        W48177  15.613   4.278   2.679
78363W        W48178  32.521  31.040   2.357
78364W        W48179  38.913   8.688  14.769
78365W        W48180  25.644   9.824  13.829
78366W        W48181  21.635  16.711  12.095
78367W        W48182  14.207   1.915   4.325
78368W        W48183  22.022  33.540   0.835
78369W        W48184  17.640  30.989  12.931
78370W        W48185  32.944  32.029   2.894
78371W        W48186  30.098  25.635   1.864
78372W        W48187  20.237   2.306   3.859
78373W        W48188  24.008   0.756  13.511
78374W        W48189  12.818  18.770   9.571
78375W        W48190  27.021  26.649   2.754
78376W        W48191  21.202  40.304  11.026
78377W        W48192  43.874  36.874   4.786
78378W        W48193  28.981  44.945  14.484
78379W        W48194  38.889  17.704   2.370
78380W        W48195  12.267  33.532  12.441
78381W        W48196  24.720  17.723   4.169
78382W        W48197  22.187  21.197   3.161
78383W        W48198   1.349  29.134   4.239
78384W        W48199  36.352  27.102   0.751
78385W        W48200  44.869  38.401  12.555
78386W        W48201  16.076  15.742   3.293
78387W        W48202  31.096  19.622   2.805
78388W        W48203  24.662  41.421   1.443
78389W        W48204  23.089   4.825  11.500
78390W        W48205  12.163  22.195  13.315
78391W        W48206   4.300   9.266   2.732
78392W        W48207  35.601  44.324  12.418
78393W        W48208   8.224  19.721   4.725
78394W        W48209  19.194  27.132   1.897
78395W        W48210   8.837   7.324  11.060
78396W        W48211  13.222  43.342  14.415
78397W        W48212  20.159  35.026  10.512
78398W        W48213   4.704  17.720  11.420
78399W        W48214  32.991  31.936  10.642
78400W        W48215  23.580  43.850  14.028
78401W        W48216   9.735   7.388  11.887
78402W        W48217   6.245  38.428   1.837
78403W        W48218  12.733  34.370  12.071
78404W        W48219  24.597  27.540   3.184
78405W        W48220  39.468  40.406  11.010
78406W        W48221  41.017   7.717   1.883
78407W        W48222   8.735  29.534  11.975
78408W        W48223  33.056  27.993   0.946
78409W        W48224  35.411  22.632  10.509
78410W        W48225  32.895   4.379  11.600
78411W        W48226  21.127   2.256   1.246
78412W        W48227  26.656  40.813   4.835
78413W        W48228  42.029  24.016  10.493
78414W        W48229  20.616  41.853  12.359
78415W        W48230   0.759  37.469   3.268
78416W        W48231  28.514  19.143   4.776
78417W        W48232  42.363  41.808   3.298
78418W        W48233   5.339  10.215   2.253
78419W        W48234   1.313  35.414   4.745
78420W        W48235  29.495  28.502  13.791
78421W        W48236  29.069   2.255  12.518
78422W        W48237  36.367   0.456   4.725
78423W        W48238  10.694  38.988   2.334
78424W        W48239   8.161  33.130  12.091
78425W        W48240  24.664  43.977  13.523
78426W        W48241  25.049   5.265  14.893
78427W        W48242  22.574  25.096  12.823
78428W        W48243  27.501  25.613   1.788
78429W        W48244   3.929  27.066   4.834
78430W        W48245   6.742  19.637   4.211
78431W        W48246   7.396  19.637   4.262
78432W        W48247  35.489   4.860  13.380
78433W        W48248   2.232  11.300   3.858
78434W        W48249  10.744  20.224  11.446
78435W        W48250  28.609  25.068   2.755
78436W        W48251  33.508  23.165   0.354
78437W        W48252  23.618  20.124  13.020
78438W        W48253  16.273  22.510  11.577
78439W        W48254   0.825  35.030  12.875
78440W        W48255  16.245   4.412   1.343
78441W        W48256  41.435  33.889   4.731
78442W        W48257   9.718  24.121   3.676
78443W        W48258   5.386  22.247   1.399
78444W        W48259  17.078   0.287   0.478
78445W        W48260   7.750  38.514   2.265
78446W        W48261  18.579  23.611  10.424
78447W        W48262  16.809   6.259   1.350
78448W        W48263  32.096  38.927   2.891
78449W        W48264  31.479  38.904  13.308
78450W        W48265  10.656   9.300  13.980
78451W        W48266   4.258  12.756   4.639
78452W        W48267  14.768  27.046   0.826
78453W        W48268  44.918  25.496  14.358
78454W        W48269  24.986  13.310  13.940
78455W        W48270  10.249  31.407  11.937
78456W        W48271  23.726  11.304  11.957
78457W        W48272  13.104  15.763   2.779
78458W        W48273  22.012  18.114  13.820
78459W        W48274  19.750   5.846  10.064
78460W        W48275   6.239  22.707  10.048
78461W        W48276  38.534   2.820   4.765
78462W        W48277  32.950   8.876  12.507
78463W        W48278  10.698  43.823   4.605
78464W        W48279   0.448  27.616  13.335
78465W        W48280  39.967  38.479  13.383
78466W        W48281   6.191  19.226   2.696
78467W        W48282  39.344  26.030  11.040
78468W        W48283   5.799  16.078   3.824
78469W        W48284   8.816  20.209  11.013
78470W        W48285  15.656  29.959  13.852
78471W        W48286  26.024  30.006  14.382
78472W        W48287  21.040  23.632   4.128
78473W        W48288  35.950   1.313  12.872
78474W        W48289  43.801  14.178  14.001
78475W        W48290  14.231  39.513  10.452
78476W        W48291  27.648   4.377  11.565
78477W        W48292  14.692  39.913  10.060
78478W        W48293   8.349  42.812   4.712
78479W        W48294   8.898   2.409  13.051
78480W        W48295  43.910  23.514  13.035
78481W        W48296  17.751  38.045  12.078
78482W        W48297  32.455  44.875   1.438
78483W        W48298  23.126  35.573   2.270
78484W        W48299  32.406  15.122  11.896
78485W        W48300  39.986   0.424  11.883
78486W        W48301  33.481  22.092   0.470
78487W        W48302  31.566  30.113  13.435
78488W        W48303   9.747  21.204   2.707
78489W        W48304   6.716  18.076   2.901
78490W        W48305  24.649  38.062   3.311
78491W        W48306  40.814  20.131  13.871
78492W        W48307  29.008  25.686   4.607
78493W        W48308  18.278  30.558   1.266
78494W        W48309  24.722  38.994   4.626
78495W        W48310  42.976  10.289  13.523
78496W        W48311  29.061   3.759  13.363
78497W        W48312   5.227  23.645  14.500
78498W        W48313  26.170  38.982  12.357
78499W        W48314  37.352  15.613  13.037
78500W        W48315  17.220  25.065   4.143
78501W        W48316  27.559   0.753  12.020
78502W        W48317  29.093  36.886  10.942
78503W        W48318  36.847  37.581  14.941
78504W        W48319  35.567  32.581  14.394
78505W        W48320  11.810  22.622   4.663
78506W        W48321  20.754  37.987  13.996
78507W        W48322  21.575  12.339   2.408
78508W        W48323  35.027  22.674  13.005
78509W        W48324  21.566   1.913  12.434
78510W        W48325  39.369  44.299   0.901
78511W        W48326  28.955  41.000  12.537
78512W        W48327  23.232  33.385  11.473
78513W        W48328  10.330  23.194  14.320
78514W        W48329  20.120   3.877   3.328
78515W        W48330  22.671  24.979   1.335
78516W        W48331  16.251  19.267  14.890
78517W        W48332   1.447   2.317  11.437
78518W        W48333  40.398  10.776  14.797
78519W        W48334   9.324  35.092  13.982
78520W        W48335  23.706  22.535   2.837
78521W        W48336  20.751   1.437  10.023
78522W        W48337  35.875  40.307  12.483
78523W        W48338  23.564  40.545  11.020
78524W        W48339   6.303  33.478  13.958
78525W        W48340   4.204  24.721  12.478
78526W        W48341  19.108  15.152  11.026
78527W        W48342  12.161  19.187  14.871
78528W        W48343  21.626  12.716  10.905
78529W        W48344   7.899  18.782   0.943
78530W        W48345  41.800  19.702   3.808
78531W        W48346  38.985  35.052  10.491
78532W        W48347  31.065  43.001  14.816
78533W        W48348  41.919  22.211  12.977
78534W        W48349  16.252   9.200   0.852
78535W        W48350  12.118  31.452   3.781
78536W        W48351  32.586   3.865   4.710
78537W        W48352  12.617  37.341  14.440
78538W        W48353  29.165   9.867  11.531
78539W        W48354  19.536   0.887   0.803
78540W        W48355  20.616   3.360  13.529
78541W        W48356  30.128  34.501  11.502
78542W        W48357  31.098   9.167  10.419
78543W        W48358  14.693   9.384   4.283
78544W        W48359  39.900  12.173  11.014
78545W        W48360  32.066  16.754  12.528
78546W        W48361  27.981  20.524  10.933
78547W        W48362  25.017   2.447   4.261
78548W        W48363  16.304  34.492  12.827
78549W        W48364  15.603  30.420  10.931
78550W        W48365  30.008  37.445   4.254
78551W        W48366  32.633   3.327  11.588
78552W        W48367  12.294  20.216   1.928
78553W        W48368   7.799  15.627  12.530
78554W        W48369  25.642  29.568  13.949
78555W        W48370  36.495  20.162  13.989
78556W        W48371  23.186  12.234   1.412
78557W        W48372   0.415  19.217  12.884
78558W        W48373  16.146  27.194   3.153
78559W        W48374  16.216  38.055   4.631
78560W        W48375  18.215  28.180  11.125
78561W        W48376  37.978  28.010  11.995
78562W        W48377  17.663   6.424  11.040
78563W        W48378  25.979  17.587  12.913
78564W        W48379  25.501  17.722  14.780
78565W        W48380  17.617  43.968   0.247
78566W        W48381  36.438  19.780   5.142
78567W        W48382   9.715   4.214  12.390
78568W        W48383  21.736   4.746   1.213
78569W        W48384  29.432   8.820  14.850
78570W        W48385  13.222   9.719   0.336
78571W        W48386  11.242   2.267   3.191
78572W        W48387  42.487  33.464  10.912
78573W        W48388  24.686  20.546  13.021
78574W        W48389  27.159  19.268   2.273
78575W        W48390   6.705  32.492   1.319
78576W        W48391  31.526  14.665   4.347
78577W        W48392  12.224  14.673   2.295
78578W        W48393   7.674  29.448   3.702
78579W        W48394  41.400  18.140  11.064
78580W        W48395  26.622  41.025   3.788
78581W        W48396  24.175  18.168  13.504
78582W        W48397   5.766  40.308  12.838
78583W        W48398  13.649  19.667   2.267
78584W        W48399   0.960  26.549   3.310
78585W        W48400  24.641  20.684  14.765
78586W        W48401  34.483   0.888   0.735
78587W        W48402  34.478  10.642   0.333
78588W        W48403  41.892   5.376  12.566
78589W        W48404  30.016  23.007  11.867
78590W        W48405  15.260  17.154   4.244
78591W        W48406  39.395  18.254   4.166
78592W        W48407  25.115   7.234   3.239
78593W        W48408  16.780  12.737   0.300
78594W        W48409  11.622  27.504  13.519
78595W        W48410   1.414  36.393   1.431
78596W        W48411   3.782  41.927   3.855
78597W        W48412  11.712   9.790  12.015
78598W        W48413  33.457  43.980   0.373
78599W        W48414   7.390  43.449   2.386
78600W        W48415  25.671  12.730  12.499
78601W        W48416  10.217   8.879   3.318
78602W        W48417  34.972  35.106  12.538
78603W        W48418  34.098  26.612   0.268
78604W        W48419  11.194  42.320   3.822
78605W        W48420  18.113  38.914  12.540
78606W        W48421  29.636  10.203   3.163
78607W        W48422   0.794   1.749   3.853
78608W        W48423  26.600  30.981  14.940
78609W        W48424  14.734  32.400   1.932
78610W        W48425  25.562  14.712  14.316
78611W        W48426  39.835   6.693  14.779
78612W        W48427  23.622   0.957  11.428
78613W        W48428  34.501  12.693  12.375
78614W        W48429  16.679  37.017  11.463
78615W        W48430  30.618  27.493  12.555
78616W        W48431   9.255  35.061  10.596
78617W        W48432  29.974   4.747  10.552
78618W        W48433  17.790  30.448  13.825
78619W        W48434  20.759  25.183   4.827
78620W        W48435   4.290   8.356   4.229
78621W        W48436   0.952  23.619   3.289
78622W        W48437  29.174  11.660  13.875
78623W        W48438  24.216  14.120  12.538
78624W        W48439  27.049  13.249  10.927
78625W        W48440   1.272   3.710   2.183
78626W        W48441  29.174  20.545  12.081
78627W        W48442  23.202  41.030  14.461
78628W        W48443  11.201  12.777  11.048
78629W        W48444  27.081  14.114  13.480
78630W        W48445  17.561  12.640   2.197
78631W        W48446  16.639  25.485   0.271
78632W        W48447  29.432  14.771   1.783
78633W        W48448  19.591   1.781   0.382
78634W        W48449   0.424   4.801  13.420
78635W        W48450  14.257  39.494  13.864
78636W        W48451  37.467   1.345   1.836
78637W        W48452   0.362  35.016  13.466
78638W        W48453  13.646  18.560  11.488
78639W        W48454  40.915   6.850   0.842
78640W        W48455  24.072  12.240  10.489
78641W        W48456   0.462   7.297   3.741
78642W        W48457  38.036  21.140  13.975
78643W        W48458  37.881   6.251  14.496
78644W        W48459  24.992  43.943   1.267
78645W        W48460  24.584  18.717   9.636
78646W        W48461  33.410  26.641   5.319
78647W        W48462  35.006  40.342  10.548
78648W        W48463   9.737   5.285   1.343
78649W        W48464  37.959  31.517   0.311
78650W        W48465  26.188  17.252   0.335
78651W        W48466  26.588   4.334  11.374
78652W        W48467   8.220  37.973   4.220
78653W        W48468   8.346  32.577   4.693
78654W        W48469  14.174   3.853  12.430
78655W        W48470  35.446  36.079  11.561
78656W        W48471  19.653  35.491   3.768
78657W        W48472   9.714   7.296  12.961
78658W        W48473   5.331   3.878   2.728
78659W        W48474  38.898   1.279  11.927
78660W        W48475  31.080  29.576  13.949
78661W        W48476  25.511  42.469   2.824
78662W        W48477  10.345  28.649  11.429
78663W        W48478  32.901  13.211   1.425
78664W        W48479   7.405  16.154  10.408
78665W        W48480  15.159  41.428   2.414
78666W        W48481  22.087   4.857  12.365
78667W        W48482   4.434  26.662   0.248
78668W        W48483  44.858  28.972   3.205
78669W        W48484  44.964  10.196   1.765
78670W        W48485  16.107  30.007   2.185
78671W        W48486  14.792  17.281  13.366
78672W        W48487  20.664  17.685   3.264
78673W        W48488   4.211   4.414   4.167
78674W        W48489  26.109  27.066  13.977
78675W        W48490  15.658  20.704   0.883
78676W        W48491  21.236  13.230  14.796
78677W        W48492  16.095   5.854   2.863
78678W        W48493   1.960  14.306   3.731
78679W        W48494  36.473   2.277   4.244
78680W        W48495  13.199  13.322  11.479
78681W        W48496  44.828  39.986  12.523
78682W        W48497  40.038   1.973  13.461
78683W        W48498  25.134  13.112   2.817
78684W        W48499  42.400   0.431  14.303
78685W        W48500  10.160   6.752   1.277
78686W        W48501  29.170   9.171  10.913
78687W        W48502  20.153  30.466   3.855
78688W        W48503   7.690  25.971   1.272
78689W        W48504  11.332  32.556  12.094
78690W        W48505   7.394   8.789   1.863
78691W        W48506  15.086  20.691   3.373
78692W        W48507  23.228  13.327  10.941
78693W        W48508  22.567  19.166  13.024
78694W        W48509   2.260  21.723  10.615
78695W        W48510  32.001   4.318  14.393
78696W        W48511  26.151   4.339  13.878
78697W        W48512  11.713   0.280   0.388
78698W        W48513  10.670  28.122  13.811
78699W        W48514  17.786  32.460  12.417
78700W        W48515  33.061  29.659  11.035
78701W        W48516  42.854   1.263  14.820
78702W        W48517  15.247   8.196  14.893
78703W        W48518   9.783  40.341   0.273
78704W        W48519  18.702  11.720   2.789
78705W        W48520  12.148   1.356  14.467
78706W        W48521  16.669  19.113   3.770
78707W        W48522  14.807  30.060  10.600
78708W        W48523   2.827   2.458   3.833
78709W        W48524  23.229  31.897   1.282
78710W        W48525   3.769  33.385   3.688
78711W        W48526  24.696  30.148   3.782
78712W        W48527  21.684  35.998  11.560
78713W        W48528  39.379  16.128  14.777
78714W        W48529  15.640  44.868   1.315
78715W        W48530   7.198  37.361  12.962
78716W        W48531  13.163  16.808  12.988
78717W        W48532  30.494   4.425   4.182
78718W        W48533   0.284  25.030   2.776
78719W        W48534   7.364  31.994  11.401
78720W        W48535  40.412  41.327  12.874
78721W        W48536  12.848   1.300   4.315
78722W        W48537  15.704   8.781   4.783
78723W        W48538  16.694  12.853  11.931
78724W        W48539  33.991  34.905  13.874
78725W        W48540  32.965  13.330  13.938
78726W        W48541  18.140  42.789   2.664
78727W        W48542   6.356  11.867   0.290
78728W        W48543  15.659  34.528  14.826
78729W        W48544   0.456  35.984  13.035
78730W        W48545  13.235   5.846   2.836
78731W        W48546  23.148   0.946   0.305
78732W        W48547   1.869  28.468   1.244
78733W        W48548  29.141  24.006  13.897
78734W        W48549  34.381  25.066   0.411
78735W        W48550  29.120  26.067   0.946
78736W        W48551   2.257   6.197  11.982
78737W        W48552  32.608   4.838  11.401
78738W        W48553  37.467  41.306   3.360
78739W        W48554  14.756  25.083  14.869
78740W        W48555  37.457  14.291   4.126
78741W        W48556  14.321   3.421   2.326
78742W        W48557  27.963  16.117   3.668
78743W        W48558  39.532  13.812   1.906
78744W        W48559  37.914  26.573   2.756
78745W        W48560  34.095  33.577   3.252
78746W        W48561  28.560  13.311  10.572
78747W        W48562  15.777   1.385  12.452
78748W        W48563  44.363   3.724   0.807
78749W        W48564  24.106  40.536  11.916
78750W        W48565  38.887  31.957  11.484
78751W        W48566   7.674  11.691  13.335
78752W        W48567  18.680  42.814   0.937
78753W        W48568  24.685   0.256  10.487
78754W        W48569  27.537  15.691   2.306
78755W        W48570  37.496  31.535   1.856
78756W        W48571  10.815  37.931  14.792
78757W        W48572  31.903  33.035   0.896
78758W        W48573  17.103  33.429  12.091
78759W        W48574  11.174  13.690  14.454
78760W        W48575   7.377   0.841  13.436
78761W        W48576   3.420  22.528   1.319
78762W        W48577  30.982  17.299   1.896
78763W        W48578  13.681  29.992  12.833
78764W        W48579  41.439  14.702   1.828
78765W        W48580  21.021  21.692  12.978
78766W        W48581  29.080  20.634   4.655
78767W        W48582  42.362  13.720  13.373
78768W        W48583  32.596  25.142  11.010
78769W        W48584   8.218  38.070   2.279
78770W        W48585  27.067  29.008  13.871
78771W        W48586  29.958   0.479  11.032
78772W        W48587   8.885  38.374   4.681
78773W        W48588  26.165  31.092   4.771
78774W        W48589  20.270  27.085   1.697
78775W        W48590  17.606  35.074  12.870
78776W        W48591  16.109  16.604  13.848
78777W        W48592  25.191  32.596   0.830
78778W        W48593  11.659   6.386  14.313
78779W        W48594  42.777  35.431  13.854
78780W        W48595  21.515  36.947  12.986
78781W        W48596   7.240   0.768   2.239
78782W        W48597  34.060  34.900  11.050
78783W        W48598  39.035   4.231   1.379
78784W        W48599  14.201  10.734   0.246
78785W        W48600  13.799  33.547  11.880
78786W        W48601  16.154  29.173   3.800
78787W        W48602  38.334  24.089  12.073
78788W        W48603  27.545   2.440   0.960
78789W        W48604  28.516  39.897   4.194
78790W        W48605  17.261  39.472   3.226
78791W        W48606  34.483   8.234  14.475
78792W        W48607   7.228  18.258   2.395
78793W        W48608   6.424  25.125  13.544
78794W        W48609  25.162  10.754   1.346
78795W        W48610  35.384  42.438   1.217
78796W        W48611   6.837  25.503   1.299
78797W        W48612  13.284  27.631   3.655
78798W        W48613   5.724  18.054   3.341
78799W        W48614  17.159  39.940  11.098
78800W        W48615  20.695  37.533   4.609
78801W        W48616  30.464  44.378  13.041
78802W        W48617   2.727  37.958  10.889
78803W        W48618  39.870  15.120   4.733
78804W        W48619  25.029  38.432  11.043
78805W        W48620  16.178   0.747  11.087
78806W        W48621  42.031   3.349   0.817
78807W        W48622  28.972  14.679   3.732
78808W        W48623   8.326   6.805   1.727
78809W        W48624  35.100   8.808   5.116
78810W        W48625  16.651  36.523  11.384
78811W        W48626  44.339  35.374   2.366
78812W        W48627  16.111  14.250   2.382
78813W        W48628  15.709  10.838   4.765
78814W        W48629  13.308  27.190  13.334
78815W        W48630  41.499  18.296  13.846
78816W        W48631  27.083  39.553  14.365
78817W        W48632   7.194   9.187  14.778
78818W        W48633   7.359   1.377   2.839
78819W        W48634  44.374  26.503   1.882
78820W        W48635  18.616  34.100   2.404
78821W        W48636  12.170  40.412   0.420
78822W        W48637  37.868  39.494   4.781
78823W        W48638  38.517  13.599  11.479
78824W        W48639  38.351   5.803  14.901
78825W        W48640   7.237   2.338  11.910
78826W        W48641   9.345  15.716   2.372
78827W        W48642  31.430  11.795  11.915
78828W        W48643   0.819  15.612   1.381
78829W        W48644  23.602   3.806   3.784
78830W        W48645  25.668  33.573  12.029
78831W        W48646  44.414  10.359  13.414
78832W        W48647  14.212  41.413   2.221
78833W        W48648  10.866  42.503  13.349
78834W        W48649  16.185  24.133  14.871
78835W        W48650   9.219  19.193   3.354
78836W        W48651  40.889  23.713   4.152
78837W        W48652   4.867  11.699   3.665
78838W        W48653  11.199  13.324   4.226
78839W        W48654  14.201   9.311  14.279
78840W        W48655  32.979  40.469   4.151
78841W        W48656  44.472  18.203  12.020
78842W        W48657  22.183  35.954  13.389
78843W        W48658  14.716  32.891  14.884
78844W        W48659  32.616   9.275   2.190
78845W        W48660  24.079  29.962   4.761
78846W        W48661  23.064  28.004   3.345
78847W        W48662   4.891  37.054   0.845
78848W        W48663  20.522  34.563  10.624
78849W        W48664  40.939   2.363  14.882
78850W        W48665  32.523   4.224  12.571
78851W        W48666  35.071  30.515   4.334
78852W        W48667  36.039  10.144  11.609
78853W        W48668  29.512   0.279  11.487
78854W        W48669   7.907  41.350   5.082
78855W        W48670  19.615   6.241  10.556
78856W        W48671   8.825   4.343  12.066
78857W        W48672  39.936  23.108  13.387
78858W        W48673  30.152  35.539   0.799
78859W        W48674  43.474   8.365   4.791
78860W        W48675  31.950   1.328  13.548
78861W        W48676  23.556  26.611  10.969
78862W        W48677   9.647  14.216  11.422
78863W        W48678   7.748  27.953   1.421
78864W        W48679   3.787  19.116   0.422
78865W        W48680  39.532  42.386   2.319
78866W        W48681  24.165  25.091   0.774
78867W        W48682  38.437  38.929   3.731
78868W        W48683  29.550  32.956   1.256
78869W        W48684  21.242  33.430   2.297
78870W        W48685   0.746  28.474   0.444
78871W        W48686  35.493  13.629   1.786
78872W        W48687  29.085  25.174  12.838
78873W        W48688  34.115   7.404   4.686
78874W        W48689  12.211  19.139   2.397
78875W        W48690  13.760  42.348   4.825
78876W        W48691  13.269  40.540  10.538
78877W        W48692   0.977  15.608  11.401
78878W        W48693  19.222   4.800   0.299
78879W        W48694  22.678  39.444  12.459
78880W        W48695  39.035  26.457  10.581
78881W        W48696  16.813   3.283   2.857
78882W        W48697  33.604  11.747  10.014
78883W        W48698  14.676  24.617  13.878
78884W        W48699  15.678   9.807  11.009
78885W        W48700  34.028  10.298   3.728
78886W        W48701  26.135  27.187   4.220
78887W        W48702  12.714  41.315  14.449
78888W        W48703  22.219  19.165  11.429
78889W        W48704  16.724  43.462   0.313
78890W        W48705   2.282  18.775   3.871
78891W        W48706   4.936   8.817   0.935
78892W        W48707  39.938  42.293   0.476
78893W        W48708   2.928   5.307   1.883
78894W        W48709  36.900  15.619   0.412
78895W        W48710  39.811  14.281  10.449
78896W        W48711  16.175  25.583   4.621
78897W        W48712  24.204   4.747  14.834
78898W        W48713  14.709   6.874   0.450
78899W        W48714   2.446  25.105   0.908
78900W        W48715   2.874   9.812   2.242
78901W        W48716  33.924  21.179  14.419
78902W        W48717  10.153  28.485  11.070
78903W        W48718  28.550  18.552   2.317
78904W        W48719  23.236  35.386  13.363
78905W        W48720  12.855  19.194   3.194
78906W        W48721  38.445  35.096  11.988
78907W        W48722  39.314   7.738   4.162
78908W        W48723  28.005  23.666   1.747
78909W        W48724  15.123   1.886   0.879
78910W        W48725  39.859  23.036  11.395
78911W        W48726   9.700   1.745  14.853
78912W        W48727  16.738  29.074  10.993
78913W        W48728  28.947  16.724  10.950
78914W        W48729  36.490  39.414   1.223
78915W        W48730  16.789  14.826   1.280
78916W        W48731  40.341  30.164  12.019
78917W        W48732  35.364  31.912   2.893
78918W        W48733  36.366  13.108   1.268
78919W        W48734  15.820   0.354  10.465
78920W        W48735  28.461  39.329  13.932
78921W        W48736  15.316  39.322   1.757
78922W        W48737  28.586  14.710  11.511
78923W        W48738  19.534  41.498   4.646
78924W        W48739  44.402  14.692  11.914
78925W        W48740   9.388  37.027   4.352
78926W        W48741  26.172  44.265  14.991
78927W        W48742  32.528  26.002   0.761
78928W        W48743  38.981  35.572  12.571
78929W        W48744  12.796   9.763  10.485
78930W        W48745  39.555  28.515   0.753
78931W        W48746  26.961  42.931   4.266
78932W        W48747  31.014  16.094  11.034
78933W        W48748  10.733  17.610  13.359
78934W        W48749   4.819  35.491  10.475
78935W        W48750  36.466  12.637  11.889
78936W        W48751  36.461  18.060   1.424
78937W        W48752   5.703  28.035   3.806
78938W        W48753  16.247  11.291  14.764
78939W        W48754  43.012   9.842   2.377
78940W        W48755  24.690   2.270   1.353
78941W        W48756   3.228  18.155  14.511
78942W        W48757  20.646  14.808   1.416
78943W        W48758  42.303  43.368  14.890
78944W        W48759   9.757  41.451   2.334
78945W        W48760  29.152  34.550  13.845
78946W        W48761  44.363  18.225  13.433
78947W        W48762   0.311  23.545   2.193
78948W        W48763  15.231  23.531   4.623
78949W        W48764  43.988  10.828  10.602
78950W        W48765  10.219  13.139  11.083
78951W        W48766  44.971  39.987   3.869
78952W        W48767  12.289   9.245   0.905
78953W        W48768  40.928   2.856   2.867
78954W        W48769  15.320  29.122   1.872
78955W        W48770  36.462  15.194  10.610
78956W        W48771   0.833  38.349  12.082
78957W        W48772   7.803  39.920  11.491
78958W        W48773  44.854   1.304  10.578
78959W        W48774  31.908   1.895   1.737
78960W        W48775   0.905  29.541  10.149
78961W        W48776  36.049  14.239   2.676
78962W        W48777   8.786  38.074  14.438
78963W        W48778  16.582  21.042   1.224
78964W        W48779  23.549  19.542  13.520
78965W        W48780  28.010  30.123  11.538
78966W        W48781  29.035   7.187  13.057
78967W        W48782  29.451  14.163  13.894
78968W        W48783   8.872  34.600  14.314
78969W        W48784   1.381  31.621   2.372
78970W        W48785  36.568   7.799   0.826
78971W        W48786  44.802  30.471  11.546
78972W        W48787  35.039  33.104  13.504
78973W        W48788  28.602  39.437  11.092
78974W        W48789   1.249   5.207  10.409
78975W        W48790  21.706  10.777   2.188
78976W        W48791   3.774  31.994   4.753
78977W        W48792  41.001  40.814   4.284
78978W        W48793  16.194  20.719  10.927
78979W        W48794   3.786  24.595  12.379
78980W        W48795  28.611  39.359  14.839
78981W        W48796  30.083  20.217  13.415
78982W        W48797  24.585   7.320   1.912
78983W        W48798  15.314  18.723   0.315
78984W        W48799  25.615  31.438   1.379
78985W        W48800  43.470  39.476   1.353
78986W        W48801  12.289  33.490  14.349
78987W        W48802  39.470   5.340   3.813
78988W        W48803  33.528   2.341  11.513
78989W        W48804  32.990  11.236  13.545
78990W        W48805  16.594  43.784   1.869
78991W        W48806  22.639  13.751  10.915
78992W        W48807  39.922  28.945   4.762
78993W        W48808  10.187  41.849  13.888
78994W        W48809   3.318  10.638   3.830
78995W        W48810  12.739  15.116   3.690
78996W        W48811   5.225  31.919   0.397
78997W        W48812  21.608  20.714  12.362
78998W        W48813  44.856  40.385   2.348
78999W        W48814  36.935  34.949   2.693
79000W        W48815  30.577  14.283  14.892
79001W        W48816  16.146  22.046  12.957
79002W        W48817  29.055  16.082   4.171
79003W        W48818  35.425  44.935  14.794
79004W        W48819  11.127  13.235   0.769
79005W        W48820  29.542  44.351   0.341
79006W        W48821   1.764  19.136  12.025
79007W        W48822  22.126  27.514   3.753
79008W        W48823  15.188  23.237  11.069
79009W        W48824  19.753  16.597   0.472
79010W        W48825   5.806  10.216   2.848
79011W        W48826  36.842  40.003  11.076
79012W        W48827  16.197   3.755  13.494
79013W        W48828  14.772  28.951  13.840
79014W        W48829  44.872  22.064  11.500
79015W        W48830  42.345  36.559   0.805
79016W        W48831  26.039  29.443   3.805
79017W        W48832  11.808   6.193   3.337
79018W        W48833  35.519  20.542  13.799
79019W        W48834   8.669  36.454  14.464
79020W        W48835   7.401   6.785   2.280
79021W        W48836  15.245   5.266   2.417
79022W        W48837  32.975  24.976  14.842
79023W        W48838  17.619  18.265   3.713
79024W        W48839  13.140  44.316   0.445
79025W        W48840  16.654  21.262  12.032
79026W        W48841  37.866  44.775  14.902
79027W        W48842  40.306  15.149  12.576
79028W        W48843  41.513  38.496   0.365
79029W        W48844  39.830  15.254   2.793
79030W        W48845   1.379  12.333  10.587
79031W        W48846  31.943   4.409   0.762
79032W        W48847  17.221  15.088   4.284
79033W        W48848  22.140  34.561   4.753
79034W        W48849  42.888  19.720   3.794
79035W        W48850   3.315  28.005  11.596
79036W        W48851   3.401   5.777   3.716
79037W        W48852  20.150  15.140  12.479
79038W        W48853  22.017  33.112   4.634
79039W        W48854   5.193  40.897   2.344
79040W        W48855  41.492   6.743  12.415
79041W        W48856  11.623  39.037   4.752
79042W        W48857  37.470  13.769  11.998
79043W        W48858   2.372   1.894   3.257
79044W        W48859   0.480   8.185   4.222
79045W        W48860  38.492  43.334   1.874
79046W        W48861  36.448  11.202   2.406
79047W        W48862  40.858  11.852   2.813
79048W        W48863   1.745  10.228  11.871
79049W        W48864   6.282  20.723  14.004
79050W        W48865   2.841  27.530  11.477
79051W        W48866  16.644  43.400   4.301
79052W        W48867   4.881  14.598  13.853
79053W        W48868  36.394  22.604  13.477
79054W        W48869   6.814  20.587  11.495
79055W        W48870  21.164  39.315  14.895
79056W        W48871  32.015  14.605  11.564
79057W        W48872  20.717  11.677   1.301
79058W        W48873  11.194   8.364   2.708
79059W        W48874   8.672  30.976   1.836
79060W        W48875  22.624  15.200   1.827
79061W        W48876  36.919  25.677  14.779
79062W        W48877  40.328   0.292   0.899
79063W        W48878  40.433  36.527  14.470
79064W        W48879  21.104  11.808  13.844
79065W        W48880  22.217  31.621   2.811
79066W        W48881   0.897  32.487   2.340
79067W        W48882  29.073  44.902  11.085
79068W        W48883  37.364  22.575   5.247
79069W        W48884  32.945  19.749   4.794
79070W        W48885  36.447  18.143   3.266
79071W        W48886  16.297  31.079  14.841
79072W        W48887  38.876  36.894  11.958
79073W        W48888  30.056  12.340   2.408
79074W        W48889  11.317  30.587   1.854
79075W        W48890   5.380   0.859   2.753
79076W        W48891   6.406   1.953  10.981
79077W        W48892  29.125  19.570   0.892
79078W        W48893  20.659  20.616   4.714
79079W        W48894   5.866   1.894   0.930
79080W        W48895  35.017  43.478   4.338
79081W        W48896  39.378  12.175   0.256
79082W        W48897  40.334  14.304   5.296
79083W        W48898  41.330  30.496  10.473
79084W        W48899  11.761  36.575   0.820
79085W        W48900  33.525  43.820   4.810
79086W        W48901  17.710  14.607   2.848
79087W        W48902   6.278  34.422   4.260
79088W        W48903  18.274   1.894  13.041
79089W        W48904  17.704  41.823   0.437
79090W        W48905  15.180   8.704   4.680
79091W        W48906  30.491  22.162  10.476
79092W        W48907   8.894  39.319  14.335
79093W        W48908   2.365  35.071  11.593
79094W        W48909  28.554  36.497  12.939
79095W        W48910  25.017  36.892  13.790
79096W        W48911  18.216  43.878  14.428
79097W        W48912  17.243  38.548   1.298
79098W        W48913  38.522  12.742   3.853
79099W        W48914  32.111  38.071   3.303
79100W        W48915  23.124  37.500  11.458
79101W        W48916  14.260  32.611  10.507
79102W        W48917  28.132  43.786  12.975
79103W        W48918  13.765  11.333  13.503
79104W        W48919  18.167  22.722  13.808
79105W        W48920  27.030  20.271   2.198
79106W        W48921   0.938  17.275  14.785
79107W        W48922   5.881   7.384  11.454
79108W        W48923  27.537  30.656   4.344
79109W        W48924  28.135  43.365  10.600
79110W        W48925   5.833  20.523   0.326
79111W        W48926  19.200  16.723  13.978
79112W        W48927   6.817  44.317  11.433
79113W        W48928  34.991   0.383  12.837
79114W        W48929   8.239  35.543  11.596
79115W        W48930  32.076  39.923  14.854
79116W        W48931  42.925  13.276  13.952
79117W        W48932  40.332   8.342  11.965
79118W        W48933  44.856  17.219  12.830
79119W        W48934  40.464  21.743  13.350
79120W        W48935   8.402  13.291   1.369
79121W        W48936   4.382  10.216  12.933
79122W        W48937  13.626   5.819  12.823
79123W        W48938  43.776  30.982  12.419
79124W        W48939  22.712   2.426  10.097
79125W        W48940  27.668  15.094   0.793
79126W        W48941  10.638   9.166   4.278
79127W        W48942  17.577  35.926  12.893
79128W        W48943  43.354  21.757   0.889
79129W        W48944  40.960  12.124  12.529
79130W        W48945  20.201  34.018   0.926
79131W        W48946  29.097  39.500  14.505
79132W        W48947  13.179   5.275   0.288
79133W        W48948   0.785  26.952   3.650
79134W        W48949   7.204  13.736   3.869
79135W        W48950  31.944  29.440  12.054
79136W        W48951  34.454  34.867   3.654
79137W        W48952   3.231  34.872  11.114
79138W        W48953  18.173  24.975   5.233
79139W        W48954  29.082  43.901  14.412
79140W        W48955  19.595  36.982  12.844
79141W        W48956  13.845  18.186  14.419
79142W        W48957  24.541  41.497   2.701
79143W        W48958  19.200   6.783   3.205
79144W        W48959  20.115  34.991  11.530
79145W        W48960  35.966  23.133  14.764
79146W        W48961  10.699  15.751  13.936
79147W        W48962  42.418   2.456   0.276
79148W        W48963   0.405  23.060   0.914
79149W        W48964  25.978  18.686  11.607
79150W        W48965  37.471  29.029   2.757
79151W        W48966  44.896  22.578  14.783
79152W        W48967  28.103  12.180   2.200
79153W        W48968  37.912  21.628  14.854
79154W        W48969  37.033   2.335   1.694
79155W        W48970  33.573  43.771  14.333
79156W        W48971  39.020  30.914   2.818
79157W        W48972  39.037  43.970  13.484
79158W        W48973   2.734  11.184   0.292
79159W        W48974  19.080  23.676  14.928
79160W        W48975  43.466   3.360  11.450
79161W        W48976  21.533  43.342  13.968
79162W        W48977  29.446  30.908   0.316
79163W        W48978  42.382  24.068   0.891
79164W        W48979  33.483  15.251  14.285
79165W        W48980  26.488  15.100   4.657
79166W        W48981  40.470  24.579   2.312
79167W        W48982  13.662  18.247   2.218
79168W        W48983  41.967  41.827  14.353
79169W        W48984  14.590  44.419  12.948
79170W        W48985  15.788  31.021   4.222
79171W        W48986  14.627  22.568  13.988
79172W        W48987  13.691  14.158  12.050
79173W        W48988  15.167  35.045  11.589
79174W        W48989  42.820  23.235  11.128
79175W        W48990  25.470   1.275  13.527
79176W        W48991   4.832  26.112  14.981
79177W        W48992   7.354  43.484   4.734
79178W        W48993  23.136  13.341   4.345
79179W        W48994  33.547  23.067  11.569
79180W        W48995  38.478  28.656   1.443
79181W        W48996  42.924  30.091   0.283
79182W        W48997  27.452  22.118  12.933
79183W        W48998  25.191  11.332  12.492
79184W        W48999  27.194   5.907   0.471
79185W        W49000  12.634  20.736  10.988
79186W        W49001   7.751   7.747  13.421
79187W        W49002  14.811  33.048   4.350
79188W        W49003  15.094  29.477  12.833
79189W        W49004  16.778  37.505  12.080
79190W        W49005  42.016   6.269  13.013
79191W        W49006  22.523  14.768   0.314
79192W        W49007  22.071  17.141   9.995
79193W        W49008  22.156  27.174   1.348
79194W        W49009  25.164  41.329   1.300
79195W        W49010  30.129   5.911  12.436
79196W        W49011  39.453  20.664  12.958
79197W        W49012   6.908  32.586   2.383
79198W        W49013  42.443  15.187   1.442
79199W        W49014   1.426  11.655  13.359
79200W        W49015  11.289  13.630   2.844
79201W        W49016  31.952  29.445  13.455
79202W        W49017   1.375  22.181  14.884
79203W        W49018  37.874   9.817  13.046
79204W        W49019  19.606  37.850  13.015
79205W        W49020  22.726  28.932  13.968
79206W        W49021  41.357  32.498   2.817
79207W        W49022  18.171  19.240  14.295
79208W        W49023  10.661  28.572  11.064
79209W        W49024  36.381  20.122  12.551
79210W        W49025  30.450  18.771  10.637
79211W        W49026  36.434  16.308  13.431
79212W        W49027  29.950  29.095  11.869
79213W        W49028  39.508  43.337  14.327
79214W        W49029  28.681  24.700  11.026
79215W        W49030  23.581  29.523   4.296
79216W        W49031  20.067   7.208   2.189
79217W        W49032  36.905  41.816  14.467
79218W        W49033   7.822  43.278   3.669
79219W        W49034   1.857   7.278   4.706
79220W        W49035  33.506  38.457  12.570
79221W        W49036  28.184  25.546  13.322
79222W        W49037  27.595  15.281  12.851
79223W        W49038   5.695  32.090   2.821
79224W        W49039  35.402  12.288   2.231
79225W        W49040   1.467  22.168   4.207
79226W        W49041   4.854  26.589  11.385
79227W        W49042  44.808  37.457  10.642
79228W        W49043  23.134   3.912   2.675
79229W        W49044  34.567  20.551  13.417
79230W        W49045  14.751  15.143   2.807
79231W        W49046  36.011   9.159   3.731
79232W        W49047   3.722  19.566  12.963
79233W        W49048  29.011   1.344   4.597
79234W        W49049  16.311  31.982   0.767
79235W        W49050  14.100  33.890  14.315
79236W        W49051  38.926   7.798  12.559
79237W        W49052   3.452   9.674   0.821
79238W        W49053  40.890  22.102  11.499
79239W        W49054  12.143  27.015   1.394
79240W        W49055   8.371  42.813   0.266
79241W        W49056   5.240  43.827  10.921
79242W        W49057   9.237  36.421   1.865
79243W        W49058  28.576  15.162  14.500
79244W        W49059  43.500  40.809   2.844
79245W        W49060  14.647  19.697  14.492
79246W        W49061  40.992  23.239  12.369
79247W        W49062  38.374   7.891   1.925
79248W        W49063   4.322   4.388   1.802
79249W        W49064  37.454  21.681   4.342
79250W        W49065  36.907   9.334  14.481
79251W        W49066  28.051  40.445  14.029
79252W        W49067  24.992  44.405   2.318
79253W        W49068  16.189  35.887  10.527
79254W        W49069   1.293  15.128  10.580
79255W        W49070  25.200   2.254   0.357
79256W        W49071  16.136  17.286   4.160
79257W        W49072  29.488   4.757   2.750
79258W        W49073  13.632  18.212  11.462
79259W        W49074  26.538  37.440   3.204
79260W        W49075  32.550  26.583   2.295
79261W        W49076   0.394  44.824  14.364
79262W        W49077  13.175  16.094   1.788
79263W        W49078  11.220  23.180   4.249
79264W        W49079  34.399   7.393  10.627
79265W        W49080  26.516  28.948   3.170
79266W        W49081  16.753   7.261  11.984
79267W        W49082  28.540  18.142   0.464
79268W        W49083  38.416  25.703   4.339
79269W        W49084   9.254  26.147  14.944
79270W        W49085  25.099  37.562  14.770
79271W        W49086  19.684  40.404   5.122
79272W        W49087  16.750  27.987  14.499
79273W        W49088   6.254  28.508   4.176
79274W        W49089  20.237  20.110   1.808
79275W        W49090   5.309  35.043   0.758
79276W        W49091  42.308   4.283  12.546
79277W        W49092  19.052  43.908   5.201
79278W        W49093  13.276  33.107   2.815
79279W        W49094  30.547  24.071   2.380
79280W        W49095  28.114   5.312   2.356
79281W        W49096  24.534  12.198  11.068
79282W        W49097  12.122  33.901  12.396
79283W        W49098  39.011   1.734  12.544
79284W        W49099  14.716   2.466   2.742
79285W        W49100   3.363  38.502  11.964
79286W        W49101   5.920  32.130   0.859
79287W        W49102  42.934  44.378  14.400
79288W        W49103  32.105  14.768   4.613
79289W        W49104  43.799  40.420   2.335
79290W        W49105  12.224  44.394  14.289
79291W        W49106   5.698  25.138  14.865
79292W        W49107  44.397  44.786   2.675
79293W        W49108   5.888   8.711  12.367
79294W        W49109  10.736  44.290  10.021
79295W        W49110  27.028   7.843   4.242
79296W        W49111  19.673  44.412   2.333
79297W        W49112   5.741  25.700  13.408
79298W        W49113   4.410  21.687  12.392
79299W        W49114  27.993  43.765  12.524
79300W        W49115  30.928  41.848   4.678
79301W        W49116  24.046  21.710  14.020
79302W        W49117   0.857  11.227   4.158
79303W        W49118  13.621  31.459   3.814
79304W        W49119  39.925  25.061  10.999
79305W        W49120  18.120  28.163   2.786
79306W        W49121  33.035  34.048   4.161
79307W        W49122   6.360   3.311  10.074
79308W        W49123  14.652  12.178   2.335
79309W        W49124   3.826  40.531  14.015
79310W        W49125  18.777   0.975  12.932
79311W        W49126  29.046  23.036  13.511
79312W        W49127  32.433  25.026  13.506
79313W        W49128   6.417  21.104   4.728
79314W        W49129  17.566  41.411  12.513
79315W        W49130  17.098  28.478  13.977
79316W        W49131  24.089  15.595  10.436
79317W        W49132  32.504  26.139   4.147
79318W        W49133  18.269  41.295   2.341
79319W        W49134   4.269  33.498  13.818
79320W        W49135  39.018   5.437  10.061
79321W        W49136  16.811  24.674  10.919
79322W        W49137  23.008  22.595  14.937
79323W        W49138  29.948  23.224  11.064
79324W        W49139  19.124  15.737  13.359
79325W        W49140   5.699  38.502   3.631
79326W        W49141  36.568  42.430   2.739
79327W        W49142  14.221  16.281  11.948
79328W        W49143  32.076  38.332  11.076
79329W        W49144  32.972  31.452  10.423
79330W        W49145   0.471  14.272  12.503
79331W        W49146  37.349  26.126  11.070
79332W        W49147  35.022  11.844  12.059
79333W        W49148  12.725  11.140   4.302
79334W        W49149   1.954  16.241   2.709
79335W        W49150  18.789   6.304   4.619
79336W        W49151  29.529  27.167  10.968
79337W        W49152  43.011  17.187  12.521
79338W        W49153  41.516  16.715   3.164
79339W        W49154  22.092   0.351   5.316
79340W        W49155  16.132  34.980  10.440
79341W        W49156  18.102  18.556   4.269
79342W        W49157  43.979  35.413  10.559
79343W        W49158  23.209  28.017   4.687
79344W        W49159  28.019  44.364   2.783
79345W        W49160  31.935  44.832   1.739
79346W        W49161  34.981  16.608   1.767
79347W        W49162  24.146  11.832   2.726
79348W        W49163   5.881  31.953  11.458
79349W        W49164  21.603  29.529  14.994
79350W        W49165  44.305  18.234   2.307
79351W        W49166  35.032   4.893  10.407
79352W        W49167  23.035  18.686  11.592
79353W        W49168  23.188  33.001  13.841
79354W        W49169  26.667   9.246  13.881
79355W        W49170  33.439  25.058  10.622
79356W        W49171   0.328  20.539  11.605
79357W        W49172  35.467  26.171  12.990
79358W        W49173  44.952   5.413  11.435
79359W        W49174   0.286  11.763   0.935
79360W        W49175  30.553  37.498  13.411
79361W        W49176   9.220  36.356   0.771
79362W        W49177  17.762  29.474  13.548
79363W        W49178  11.297  35.387  12.955
79364W        W49179  28.992  44.807  11.872
79365W        W49180  43.445  43.872  11.038
79366W        W49181  41.951  10.758   4.335
79367W        W49182  11.249  30.970  11.055
79368W        W49183  16.695  41.361   0.845
79369W        W49184  25.001   5.391   1.241
79370W        W49185   1.841  12.291  10.577
79371W        W49186  21.107  17.275  13.407
79372W        W49187  37.468   0.871   1.386
79373W        W49188  22.034   7.731   4.627
79374W        W49189  27.588  24.164  14.853
79375W        W49190  39.361  34.944  13.970
79376W        W49191  36.912   4.301   4.704
79377W        W49192  27.081  15.109  10.434
79378W        W49193  39.490  29.567   4.821
79379W        W49194   1.468   3.716   3.682
79380W        W49195  26.126   8.263  14.967
79381W        W49196  20.105  25.161   0.945
79382W        W49197  23.579  44.457  13.313
79383W        W49198  11.694  19.147  11.559
79384W        W49199  16.261  21.169  11.023
79385W        W49200  20.160  11.286  11.928
79386W        W49201  19.754  38.859   2.858
79387W        W49202  26.563   3.760  11.489
79388W        W49203  35.398  44.323  11.048
79389W        W49204   3.329  21.018   3.215
79390W        W49205   1.923  43.911   2.707
79391W        W49206   2.271  35.364  10.940
79392W        W49207  10.791  19.070   4.604
79393W        W49208   3.296  22.656   1.724
79394W        W49209  36.555  43.341   2.834
79395W        W49210  17.635  23.647   1.714
79396W        W49211  37.037  14.137  12.835
79397W        W49212  30.491   5.288  14.027
79398W        W49213  39.320   7.834  10.954
79399W        W49214   8.357  34.548  13.926
79400W        W49215  10.204  25.177  12.408
79401W        W49216  30.959  14.750  11.374
79402W        W49217  33.426  10.745   1.315
79403W        W49218  21.548  35.079  13.927
79404W        W49219  20.548  22.535  11.535
79405W        W49220  22.032  38.905  13.985
79406W        W49221  33.612  27.946  14.306
79407W        W49222  18.701  43.935   4.338
79408W        W49223  42.814  15.701   1.297
79409W        W49224  27.687  23.101  11.883
79410W        W49225  36.431   8.738  13.945
79411W        W49226   9.875  17.187  11.985
79412W        W49227  16.723  17.600   2.733
79413W        W49228  17.600  26.551   1.283
79414W        W49229  14.642  19.086   4.344
79415W        W49230  16.311  16.650  11.022
79416W        W49231  30.953  11.363   1.887
79417W        W49232   2.832  24.136  13.951
79418W        W49233  39.401  34.501   3.315
79419W        W49234  35.071  13.665   3.667
79420W        W49235  28.052  32.503   4.310
79421W        W49236  41.950   2.849  10.496
79422W        W49237   7.669  43.329  11.472
79423W        W49238   8.375   0.463  11.881
79424W        W49239  15.654  40.487  13.876
79425W        W49240  12.688  14.308  10.905
79426W        W49241  13.107  16.580   4.621
79427W        W49242  11.278  23.046   0.891
79428W        W49243  18.602   2.841   4.726
79429W        W49244  44.266  31.090  13.431
79430W        W49245   3.910   7.253  14.432
79431W        W49246  10.304   7.298  14.274
79432W        W49247  18.748  27.156  12.958
79433W        W49248  19.681   5.694  14.892
79434W        W49249  14.323  19.615   1.746
79435W        W49250  33.005  39.016  13.047
79436W        W49251  34.599  41.321  12.467
79437W        W49252  42.326  12.254   3.273
79438W        W49253   9.666  23.059   0.376
79439W        W49254  14.735   3.740   2.886
79440W        W49255  27.543   8.709  14.948
79441W        W49256  27.519  13.808  12.988
79442W        W49257  20.104  44.285   1.739
79443W        W49258  25.175  33.129  11.901
79444W        W49259   8.357   9.825  10.634
79445W        W49260  39.467  44.268  11.530
79446W        W49261   3.403  24.698  12.495
79447W        W49262  17.613   4.258  12.389
79448W        W49263  42.398  27.074   1.381
79449W        W49264  41.916   9.195   2.685
79450W        W49265  19.047  14.594   3.864
79451W        W49266  17.174  44.494  10.888
79452W        W49267  12.361  38.498   2.676
79453W        W49268  33.517  14.162  10.406
79454W        W49269  36.581  29.938  12.017
79455W        W49270  15.274   3.806   2.775
79456W        W49271  23.708  38.434   2.180
79457W        W49272  11.134  42.903   1.265
79458W        W49273  37.564  17.599  11.412
79459W        W49274  43.856  42.820  11.895
79460W        W49275  35.880   7.842   0.373
79461W        W49276  40.305  33.436  14.299
79462W        W49277  43.392  41.341   2.253
79463W        W49278  11.269  28.442   1.294
79464W        W49279  39.923   7.727   2.225
79465W        W49280  33.062  21.152  14.295
79466W        W49281  29.115  15.706  14.979
79467W        W49282  23.509  36.522  11.534
79468W        W49283  26.064  41.025   0.932
79469W        W49284  20.240  15.298  14.376
79470W        W49285   7.397  38.366   2.213
79471W        W49286   6.677  30.591  14.807
79472W        W49287  14.686   6.371   1.388
79473W        W49288  40.326  44.916   3.804
79474W        W49289  32.480  34.441  13.308
79475W        W49290  34.031  31.971  11.041
79476W        W49291  19.265  35.433  10.632
79477W        W49292  27.631  41.391   4.750
79478W        W49293   5.421  29.044   4.303
79479W        W49294  19.050   6.898  13.453
79480W        W49295  28.060  44.897  14.397
79481W        W49296  32.107   2.743   2.237
79482W        W49297  21.593  19.628  13.802
79483W        W49298   5.850  14.308   0.824
79484W        W49299  13.737   8.838   3.690
79485W        W49300  34.523   8.716  12.004
79486W        W49301  40.485  35.993  14.787
79487W        W49302   9.341  24.611   1.773
79488W        W49303  27.971  36.975   0.729
79489W        W49304  19.171  17.067  12.515
79490W        W49305  12.826  22.122  11.870
79491W        W49306  22.726   3.810  11.051
79492W        W49307  41.014   4.274   2.852
79493W        W49308  13.748   2.966  11.038
79494W        W49309  22.626   5.295   1.830
79495W        W49310  11.215   0.820   0.342
79496W        W49311   3.732  13.776   2.331
79497W        W49312   3.247  12.647  11.579
79498W        W49313  32.499   2.323   1.853
79499W        W49314  18.131  19.173  13.467
79500W        W49315  11.357  13.309  10.890
79501W        W49316  34.021  40.334  10.609
79502W        W49317  11.288  36.347   0.345
79503W        W49318  21.098  26.105   3.154
79504W        W49319  41.362  21.209   1.323
79505W        W49320   9.232  25.507  13.946
79506W        W49321  11.133   2.380   2.314
79507W        W49322  34.403  11.642  11.955
79508W        W49323  15.314  10.281  12.463
79509W        W49324  43.997   5.929   2.243
79510W        W49325  30.548  35.925   3.149
79511W        W49326   4.794  11.758   2.740
79512W        W49327  24.083  23.689  11.108
79513W        W49328  33.544  41.803  10.512
79514W        W49329   3.244  21.184   4.175
79515W        W49330  19.109   8.767  13.858
79516W        W49331  29.465   9.669   0.444
79517W        W49332  24.575  32.928   1.250
79518W        W49333  38.379  19.675   3.799
79519W        W49334  14.764  41.998   3.718
79520W        W49335  37.021  22.237  11.399
79521W        W49336  27.968  10.151   1.851
79522W        W49337  14.741   0.892  13.926
79523W        W49338   9.394  32.401   0.438
79524W        W49339   8.887  33.580   0.385
79525W        W49340  14.220  23.615   4.265
79526W        W49341  36.486  10.230   4.606
79527W        W49342  15.694  16.749  11.957
79528W        W49343  42.927  12.183   4.176
79529W        W49344  40.374  12.348   4.137
79530W        W49345  35.088   7.328  13.931
79531W        W49346  25.543  28.020   0.386
79532W        W49347  27.175  43.407   1.934
79533W        W49348  40.991  40.379  13.029
79534W        W49349  30.657  27.086  13.442
79535W        W49350  27.132  35.056  12.932
79536W        W49351  32.632   7.415   4.204
79537W        W49352  33.945  42.399  13.829
79538W        W49353  14.243  26.979  12.007
79539W        W49354  21.236  26.613  13.801
79540W        W49355  40.410  39.849   2.790
79541W        W49356   8.813  24.588   4.123
79542W        W49357  27.944  24.990   2.378
79543W        W49358   9.382  23.097   0.461
79544W        W49359  17.622  19.714   4.282
79545W        W49360  12.222  25.010  12.557
79546W        W49361  21.160  32.949  13.465
79547W        W49362  12.738  27.499  14.461
79548W        W49363   2.340   2.389   2.247
79549W        W49364  31.435  39.884   3.228
79550W        W49365  20.550  11.684   2.755
79551W        W49366  18.768  18.126  13.452
79552W        W49367  22.653  31.581   0.364
79553W        W49368  29.096  32.129  14.351
79554W        W49369  25.670  26.068  14.439
79555W        W49370   5.710  11.307  10.460
79556W        W49371  11.756  44.420   3.746
79557W        W49372   5.908   9.870   4.342
79558W        W49373   4.706  15.214  14.868
79559W        W49374  13.276  36.896  13.858
79560W        W49375  22.611  22.077  11.413
79561W        W49376   2.850  25.994  13.940
79562W        W49377   7.319  21.059   4.695
79563W        W49378  44.418   7.888   0.264
79564W        W49379  22.567  37.544   2.842
79565W        W49380  24.127  24.209  11.463
79566W        W49381  26.183  18.689  11.923
79567W        W49382  15.321  27.011   4.223
79568W        W49383  22.725   0.426  11.460
79569W        W49384  15.626  38.834  12.951
79570W        W49385  43.021  17.558   1.279
79571W        W49386  31.904  18.280  13.468
79572W        W49387  39.464  15.236   4.128
79573W        W49388   7.197  40.532  14.393
79574W        W49389  34.987   8.789   1.792
79575W        W49390  35.555  35.050  12.553
79576W        W49391  36.969  12.703   3.846
79577W        W49392  44.319  30.078   2.340
79578W        W49393  37.348  37.072  14.844
79579W        W49394  16.126  25.976  14.009
79580W        W49395  25.132  14.763   0.419
79581W        W49396   2.308  39.048   0.291
79582W        W49397  14.335  25.490   4.752
79583W        W49398  12.320  39.558  13.546
79584W        W49399   5.766   5.695   3.198
79585W        W49400  28.020   2.744   1.446
79586W        W49401  36.045  28.936   0.440
79587W        W49402  37.958  29.557  12.448
79588W        W49403  14.260  15.268  12.060
79589W        W49404   6.419   8.215  12.444
79590W        W49405   7.706  39.393  11.411
79591W        W49406  37.016  33.988   2.258
79592W        W49407  37.554  31.116  14.467
79593W        W49408   6.203  30.541  10.103
79594W        W49409   7.284  12.654  10.537
79595W        W49410  16.098  22.115  14.515
79596W        W49411  20.527   9.361   3.210
79597W        W49412  37.448  37.990   4.146
79598W        W49413  16.813   8.769  14.477
79599W        W49414  11.260   4.301  14.776
79600W        W49415  28.623  10.762   5.647
79601W        W49416  35.045  26.553  11.526
79602W        W49417   2.799  41.808   1.872
79603W        W49418  44.456  30.642   3.217
79604W        W49419  27.944  43.516  11.855
79605W        W49420  39.907  10.179  14.817
79606W        W49421  34.037   3.419  10.515
79607W        W49422  34.883  17.166  14.866
79608W        W49423  34.924  29.475  10.562
79609W        W49424  40.361  17.653  12.025
79610W        W49425  23.662  19.062  13.316
79611W        W49426  30.531  31.588   3.244
79612W        W49427  34.961  43.504   2.663
79613W        W49428  19.608  31.621  11.911
79614W        W49429   8.234  22.009   0.812
79615W        W49430  35.378  36.422  14.881
79616W        W49431  28.512  28.034  13.947
79617W        W49432  41.401  20.548  11.856
79618W        W49433  39.518  25.706   0.364
79619W        W49434  22.026  21.616   3.179
79620W        W49435  44.386  37.362  10.491
79621W        W49436   0.290  21.076   3.666
79622W        W49437   5.691  40.376   3.666
79623W        W49438   4.928  24.643  12.888
79624W        W49439  11.814  37.483  11.026
79625W        W49440   4.878  27.985   2.703
79626W        W49441  21.602  44.288  12.880
79627W        W49442  13.335   9.857   4.212
79628W        W49443  36.939  27.974  13.491
79629W        W49444  13.169  18.708   3.866
79630W        W49445  21.674   8.344  11.020
79631W        W49446  44.335  44.793   4.195
79632W        W49447  21.070  17.716  11.972
79633W        W49448   7.688  16.606   3.858
79634W        W49449  13.749  20.605  11.387
79635W        W49450  23.202  22.064   1.700
79636W        W49451  16.256  28.624  13.377
79637W        W49452   2.803   9.770  10.567
79638W        W49453   0.968   5.914   2.750
79639W        W49454  39.533  33.603   1.281
79640W        W49455  24.652  15.136   1.719
79641W        W49456  17.690  21.702  11.426
79642W        W49457  32.535  29.014   2.788
79643W        W49458  35.462  18.118   4.141
79644W        W49459  44.386  27.467   0.256
79645W        W49460  37.370  34.945  14.381
79646W        W49461   7.681   5.931  11.606
79647W        W49462  34.040   8.869   2.768
79648W        W49463  13.631  11.763  11.384
79649W        W49464  17.267   7.761  13.418
79650W        W49465  24.210   3.865  13.811
79651W        W49466  36.965  23.555   1.435
79652W        W49467  16.642  15.755   0.763
79653W        W49468  29.624  34.401  13.810
79654W        W49469  18.595  40.958   4.724
79655W        W49470   1.977  19.072   3.281
79656W        W49471  38.016  16.812  12.350
79657W        W49472  44.859  22.121  10.994
79658W        W49473   9.163  25.990   4.118
79659W        W49474  17.592   2.772  11.483
79660W        W49475  30.998  44.344   2.308
79661W        W49476  38.559   2.915   3.385
79662W        W49477   1.829  23.132   3.317
79663W        W49478  23.650  40.840  12.876
79664W        W49479   9.251   5.802  14.468
79665W        W49480   9.885  40.327  12.868
79666W        W49481  19.694   2.839   1.753
79667W        W49482  35.532   5.832   3.284
79668W        W49483  11.139  36.919  13.389
79669W        W49484   4.827  38.408   4.741
79670W        W49485  10.871  16.233   4.212
79671W        W49486  31.128  34.536  11.482
79672W        W49487  23.210  40.457   0.367
79673W        W49488  20.127  29.040   2.747
79674W        W49489  41.476  14.333   0.925
79675W        W49490  13.819  26.148  11.037
79676W        W49491  15.579  11.249   0.726
79677W        W49492  17.590  39.866  10.438
79678W        W49493  32.065  20.545   1.264
79679W        W49494  18.187  34.613  10.892
79680W        W49495   6.419   6.861  11.426
79681W        W49496  22.117  12.184  10.640
79682W        W49497   8.230   8.738   2.755
79683W        W49498   8.401  19.111  14.856
79684W        W49499  43.504  19.567   3.342
79685W        W49500  33.052   1.950   2.273
79686W        W49501   5.771  28.944  10.481
79687W        W49502  42.775   2.435   5.138
79688W        W49503  30.056  25.707  12.964
79689W        W49504  13.792  11.286   1.701
79690W        W49505  26.116  16.106   3.841
79691W        W49506  38.851  41.008   0.854
79692W        W49507  30.452  18.663   3.826
79693W        W49508   3.910  31.588  13.311
79694W        W49509  11.268  15.632  14.456
79695W        W49510  35.463  41.299  13.050
79696W        W49511  44.262   6.703   0.741
79697W        W49512  43.004  31.149   4.157
79698W        W49513  29.463  23.096   2.686
79699W        W49514  32.624  43.875  12.000
79700W        W49515   0.442  25.564   4.691
79701W        W49516  20.710   8.263   2.850
79702W        W49517  12.301  44.432  11.578
79703W        W49518  37.455  40.319  13.990
79704W        W49519   9.775  29.960   0.272
79705W        W49520  11.637   3.816   4.215
79706W        W49521  33.468  35.892   0.413
79707W        W49522  12.291  41.818   4.287
79708W        W49523   8.773  13.217   0.279
79709W        W49524  19.235   0.320   3.763
79710W        W49525  34.025   8.262   4.181
79711W        W49526  28.953  30.516   4.671
79712W        W49527  13.748  19.747  13.010
79713W        W49528  34.017  41.825  12.526
79714W        W49529  32.442  28.034   2.720
79715W        W49530   3.278  20.620   0.936
79716W        W49531  27.497  10.325  12.977
79717W        W49532  40.302  30.613  12.433
79718W        W49533  41.534  44.263  12.360
79719W        W49534  38.057  14.327   0.431
79720W        W49535  33.582  21.613  11.017
79721W        W49536   8.870  42.366   2.868
79722W        W49537  28.574   7.898  12.517
79723W        W49538  20.661   5.372  14.302
79724W        W49539  40.850  12.739  12.938
79725W        W49540  19.732  39.325   4.776
79726W        W49541  31.609  19.604  12.363
79727W        W49542  31.103  19.199  14.473
79728W        W49543   0.829  44.369   4.652
79729W        W49544  28.953  23.123   3.731
79730W        W49545   6.869  13.644  13.817
79731W        W49546  27.584  36.432  14.767
79732W        W49547  20.259   0.800  11.466
79733W        W49548  10.728  37.439  10.522
79734W        W49549  22.682  30.913  10.421
79735W        W49550   7.350  32.521   3.637
79736W        W49551  42.481  15.294   0.404
79737W        W49552  34.876  11.859   1.754
79738W        W49553  25.008  15.604   1.303
79739W        W49554   6.276  40.016   4.197
79740W        W49555   1.800  37.417   4.337
79741W        W49556  25.095  39.521   2.670
79742W        W49557  43.441  18.213  12.573
79743W        W49558  35.520  31.498   2.415
79744W        W49559  15.749  17.065  12.571
79745W        W49560  25.601  28.033  10.105
79746W        W49561  42.386  39.466   2.251
79747W        W49562  17.296  29.921   0.248
79748W        W49563  39.049  37.924  14.497
79749W        W49564  36.969  42.506  13.463
79750W        W49565  21.731   1.790  12.932
79751W        W49566  31.422   3.419   0.394
79752W        W49567  44.293   5.347   1.907
79753W        W49568   2.770  22.119  10.455
79754W        W49569  32.997  22.631  14.994
79755W        W49570  20.759   0.294   1.900
79756W        W49571  32.062  15.818   2.358
79757W        W49572  44.961  24.690   2.879
79758W        W49573  15.134  19.237   4.819
79759W        W49574  21.539  10.834   3.179
79760W        W49575  33.485  23.681   1.293
79761W        W49576  31.470  41.482   2.255
79762W        W49577  28.603  38.328   1.231
79763W        W49578  15.192   2.334   2.719
79764W        W49579  44.450   5.369  12.344
79765W        W49580  41.828   8.683   2.778
79766W        W49581   2.395  41.465  12.943
79767W        W49582  27.061  23.185  12.350
79768W        W49583  42.943  44.819  12.965
79769W        W49584  10.326  10.259  11.096
79770W        W49585   6.782  42.418  14.885
79771W        W49586  22.162  18.284   4.270
79772W        W49587  16.213  28.179   4.812
79773W        W49588  37.012  21.690   2.842
79774W        W49589   1.874  29.174   3.804
79775W        W49590  23.702  43.440  11.861
79776W        W49591  10.703  33.486   0.754
79777W        W49592  19.145  11.137  14.279
79778W        W49593  11.835  33.978   1.869
79779W        W49594  11.835  42.415   0.731
79780W        W49595  34.898  30.961  14.909
79781W        W49596  11.685  39.364   0.775
79782W        W49597  18.652  28.093   3.834
79783W        W49598  11.265  12.674  13.855
79784W        W49599  39.994  41.293   1.220
79785W        W49600  13.714   9.279  12.555
79786W        W49601  11.666  35.859  11.572
79787W        W49602  34.040  19.674  11.037
79788W        W49603   3.950   4.810   2.882
79789W        W49604  44.905  29.968  12.888
79790W        W49605  31.570  19.675  12.857
79791W        W49606  13.192   1.902   1.404
79792W        W49607   5.300  30.105   1.385
79793W        W49608   0.294   5.301   1.239
79794W        W49609  15.129  36.959   3.149
79795W        W49610   3.337  20.086  14.952
79796W        W49611  10.271  36.927  13.370
79797W        W49612  13.115  14.135  14.422
79798W        W49613  26.173  16.072   0.477
79799W        W49614   5.780  14.291   1.848
79800W        W49615   9.782   2.419  12.364
79801W        W49616  31.021  33.595  12.937
79802W        W49617  43.298  11.667  12.895
79803W        W49618  30.986  42.358  14.381
79804W        W49619  19.049  30.574   1.933
79805W        W49620  40.844  36.842  14.871
79806W        W49621  17.195   5.214  12.369
79807W        W49622  35.974  13.180  12.030
79808W        W49623   7.300   0.828  12.469
79809W        W49624  24.031  34.541   1.349
79810W        W49625  43.919   7.676  14.846
79811W        W49626  16.126  34.500  14.322
79812W        W49627  17.229  37.460  13.403
79813W        W49628  19.779   7.813  14.440
79814W        W49629  28.603  42.826   2.797
79815W        W49630   6.866  31.996  12.911
79816W        W49631  40.530   1.923  12.525
79817W        W49632  26.461  15.655  11.073
79818W        W49633  43.497  33.403  10.417
79819W        W49634  36.579   5.420  11.930
79820W        W49635  41.786  35.923  10.505
79821W        W49636  43.910   9.390  14.915
79822W        W49637  35.559  22.519  12.081
79823W        W49638   6.719  44.815   0.361
79824W        W49639  25.190  15.707   0.446
79825W        W49640  34.931   9.289   1.801
79826W        W49641  19.578  14.712  12.450
79827W        W49642  17.243  29.609   3.266
79828W        W49643   3.846  22.200  14.812
79829W        W49644  43.000  32.058  10.931
79830W        W49645  44.492  22.680   3.203
79831W        W49646  19.179  29.525  13.027
79832W        W49647   7.871  43.005   1.449
79833W        W49648  21.214  36.571   1.728
79834W        W49649  13.237   5.753  14.767
79835W        W49650  11.862  11.757  12.845
79836W        W49651  35.512  11.298   2.347
79837W        W49652  13.129  27.118   1.889
79838W        W49653  14.291   8.846   1.839
79839W        W49654  17.279  39.464  13.438
79840W        W49655  31.959  38.962  13.386
79841W        W49656  24.101   3.433   0.901
79842W        W49657  30.595  19.538  11.123
79843W        W49658  32.594  18.715  12.893
79844W        W49659   0.814  10.804   4.685
79845W        W49660  27.618   1.378   1.905
79846W        W49661  39.478  42.317  13.912
79847W        W49662  22.736  37.349  12.568
79848W        W49663  32.430  10.820   3.776
79849W        W49664  21.178  16.571  12.406
79850W        W49665  42.502  17.595  14.927
79851W        W49666  11.185  11.851   3.708
79852W        W49667  32.501  37.371   3.640
79853W        W49668  23.001  40.989   2.743
79854W        W49669   0.478  44.404  10.994
79855W        W49670   0.369  39.032   3.733
79856W        W49671  40.395  32.490   1.429
79857W        W49672   8.662  44.308  13.315
79858W        W49673  30.910  20.075  12.866
79859W        W49674  28.987  10.719   3.369
79860W        W49675  35.439  37.037   3.179
79861W        W49676  42.822  18.635   1.730
79862W        W49677  43.816  24.166  13.029
79863W        W49678  18.249  41.798  11.884
79864W        W49679  13.107  28.179   1.405
79865W        W49680  13.216  33.450   4.784
79866W        W49681  28.547  20.154   3.377
79867W        W49682  23.697   1.743   1.757
79868W        W49683  32.960  19.688  13.385
79869W        W49684   0.988  11.786  12.578
79870W        W49685  10.170  41.788  12.868
79871W        W49686  23.114  40.539  11.414
79872W        W49687   3.297  20.167  12.931
79873W        W49688  19.162   4.767  11.093
79874W        W49689   2.868  22.694   4.177
79875W        W49690  32.082  42.420   2.346
79876W        W49691   0.928  16.641   1.727
79877W        W49692  24.143  37.923   3.229
79878W        W49693   4.255  32.093  14.823
79879W        W49694  16.275  35.495   3.735
79880W        W49695  41.043  31.422   4.245
79881W        W49696  33.080  20.618  13.460
79882W        W49697  28.159  43.401   1.851
79883W        W49698   7.344  28.440   1.408
79884W        W49699  15.811  31.641   4.309
79885W        W49700  12.762   2.400   0.405
79886W        W49701  23.179  37.982   4.132
79887W        W49702   5.320  43.958  11.882
79888W        W49703   7.413  10.146  12.554
79889W        W49704  39.332   9.362  13.414
79890W        W49705  28.176  31.109  14.991
79891W        W49706  37.543   5.714   1.890
79892W        W49707   9.675  34.944  14.370
79893W        W49708  15.151  28.482   0.754
79894W        W49709  32.909  20.114  11.092
79895W        W49710   3.289  12.157  10.473
79896W        W49711   3.879  38.885   4.836
79897W        W49712  36.430  29.556   1.755
79898W        W49713  29.669  36.092   1.927
79899W        W49714  41.507  15.116  13.356
79900W        W49715  35.511  12.645   4.160
79901W        W49716  35.521  36.009   2.409
79902W        W49717  20.203   3.735   0.959
79903W        W49718  28.095  30.561  12.964
79904W        W49719  34.548  37.878   2.809
79905W        W49720  31.460  15.705  11.921
79906W        W49721  31.022  44.360   4.660
79907W        W49722   2.818  12.206   3.210
79908W        W49723  35.893  28.681   0.810
79909W        W49724   7.208  31.631  14.902
79910W        W49725   9.252  44.371   2.716
79911W        W49726  19.069  17.637  12.929
79912W        W49727  34.389   4.824   3.359
79913W        W49728   8.165  28.175   0.928
79914W        W49729  30.118   8.164  10.964
79915W        W49730  20.737  16.092   0.750
79916W        W49731  15.256  43.485  12.919
79917W        W49732  27.950  25.100   9.981
79918W        W49733  37.911   2.444   4.239
79919W        W49734  11.700  28.182  12.352
79920W        W49735  21.657   4.260  10.554
79921W        W49736  20.207  23.117   3.708
79922W        W49737  31.923  40.452  13.318
79923W        W49738  25.091  33.124  11.456
79924W        W49739   3.723  36.026  14.477
79925W        W49740  36.926  24.973   0.416
79926W        W49741  26.083  28.973   2.880
79927W        W49742  43.492  41.803  13.391
79928W        W49743  24.590  28.662   2.886
79929W        W49744  17.184  32.610  12.489
79930W        W49745   7.220  42.306   0.398
79931W        W49746  23.058   4.403  10.409
79932W        W49747  39.019  38.020   3.726
79933W        W49748   5.706  23.592   1.293
79934W        W49749  10.332   4.419   3.266
79935W        W49750  21.646  34.420   3.341
79936W        W49751  31.131  13.794   0.760
79937W        W49752  10.359  11.142   0.451
79938W        W49753   2.428   6.401  14.433
79939W        W49754  29.514  36.024  10.899
79940W        W49755   1.736  16.743  14.312
79941W        W49756  42.024  14.627   4.812
79942W        W49757  20.064  35.938  11.375
79943W        W49758  40.912  27.055  13.919
79944W        W49759   7.199  33.119   0.399
79945W        W49760  10.335  20.761  12.494
79946W        W49761  19.067   5.721  11.080
79947W        W49762  40.359  19.239   3.863
79948W        W49763  42.427  39.358   3.357
79949W        W49764  22.665  26.062  13.536
79950W        W49765  11.763  12.284   0.255
79951W        W49766  11.129  19.641   4.344
79952W        W49767   5.780   9.335   0.794
79953W        W49768  13.733  29.064   2.749
79954W        W49769  11.712  10.665  10.555
79955W        W49770   4.862   6.190   4.308
79956W        W49771  35.916  19.574  10.625
79957W        W49772   3.850   0.489   3.210
79958W        W49773  20.745  32.627   4.651
79959W        W49774  28.113  44.407   0.317
79960W        W49775   2.873  21.242   2.872
79961W        W49776  28.064  42.497   4.777
79962W        W49777   4.829  38.359  11.880
79963W        W49778   2.844   3.763  13.820
79964W        W49779  21.219   5.373  13.975
79965W        W49780  43.382  30.615  14.473
79966W        W49781   7.218  15.159  11.977
79967W        W49782   8.839  22.050   3.729
79968W        W49783   7.756   3.441  11.523
79969W        W49784  17.092  42.822  11.863
79970W        W49785  43.942  11.139  12.963
79971W        W49786  20.186  23.632   0.941
79972W        W49787  30.655   9.859   2.407
79973W        W49788   6.223  15.095  10.487
79974W        W49789   3.220  19.694   4.777
79975W        W49790  43.908  27.450   4.773
79976W        W49791  14.647  15.270  13.489
79977W        W49792  37.533   8.807   2.871
79978W        W49793  16.694  15.287   1.917
79979W        W49794  11.283  10.306   1.815
79980W        W49795   7.864  35.977  12.888
79981W        W49796  36.391   6.696   0.437
79982W        W49797  12.323  33.940  10.921
79983W        W49798  44.420  39.013  10.500
79984W        W49799  39.890  20.155   3.374
79985W        W49800  33.963  41.459   3.149
79986W        W49801  29.165  24.105   0.834
79987W        W49802  10.779   0.768  12.535
79988W        W49803  24.680  38.998  14.469
79989W        W49804   4.226   9.328   1.445
79990W        W49805  19.769  21.169  12.934
79991W        W49806   9.181  16.812   1.355
79992W        W49807  21.700  20.765   0.384
79993W        W49808  35.392   3.881   0.466
79994W        W49809  24.074  39.475   1.842
79995W        W49810  41.465  10.778  11.557
79996W        W49811  17.724   0.879   2.685
79997W        W49812   2.272  13.710  10.931
79998W        W49813   5.226  13.274   0.743
79999W        W49814  32.054  12.622   1.243
80000W        W49815  27.459   2.955   2.266
80001W        W49816  37.833   8.178   5.162
80002W        W49817  17.581   1.872   4.818
80003W        W49818  21.686  36.424   0.439
80004W        W49819  20.645   0.877   3.748
80005W        W49820  39.404  21.718   0.256
80006W        W49821  14.230  38.958   2.411
80007W        W49822  16.135  13.822  13.817
80008W        W49823  31.569  15.087  14.407
80009W        W49824  20.080  27.012   1.370
80010W        W49825  28.109  42.490   2.779
80011W        W49826   3.775  14.808   4.187
80012W        W49827  15.580  35.095   2.363
80013W        W49828  27.977  41.952   0.476
80014W        W49829  38.568  44.839   3.255
80015W        W49830  16.674  18.218   4.255
80016W        W49831  11.192  40.447  14.855
80017W        W49832   2.881  39.343  14.012
80018W        W49833   4.425   5.310  10.904
80019W        W49834  33.479  29.959   3.653
80020W        W49835  15.283  32.423   0.408
80021W        W49836  38.498  26.062   1.323
80022W        W49837  14.140  37.356  12.862
80023W        W49838  36.515  29.646   4.235
80024W        W49839  41.906  40.354   2.238
80025W        W49840  38.553  38.891   4.327
80026W        W49841  34.389   6.880  13.951
80027W        W49842  16.730   9.881  11.403
80028W        W49843  35.541   8.302   2.837
80029W        W49844   7.183  38.478  14.506
80030W        W49845  21.062  11.196   4.134
80031W        W49846  17.709   2.860  14.790
80032W        W49847  14.824  30.951  11.988
80033W        W49848  10.814   0.927   2.764
80034W        W49849  43.424  18.219  14.920
80035W        W49850  38.550  42.455   4.325
80036W        W49851  22.731   0.355  10.564
80037W        W49852  39.417   7.195  13.912
80038W        W49853  24.678   1.312  13.316
80039W        W49854   6.197  22.600   1.212
80040W        W49855  22.569   8.739  14.360
80041W        W49856  19.571   8.891   3.303
80042W        W49857  16.742  39.828   3.725
80043W        W49858  26.670  39.462  11.867
80044W        W49859  14.831   6.678   1.825
80045W        W49860   7.401  44.921  12.455
80046W        W49861  38.911  38.513   2.698
80047W        W49862  35.901  17.108  11.529
80048W        W49863  24.516  27.156   1.371
80049W        W49864   0.287   6.720  11.046
80050W        W49865   5.219  39.419   2.689
80051W        W49866  36.092  11.344  11.117
80052W        W49867   1.780   3.438  13.319
80053W        W49868  19.116  31.429  10.981
80054W        W49869  27.079  11.704   3.216
80055W        W49870  12.808  34.500  12.850
80056W        W49871  25.031  19.575  13.332
80057W        W49872  37.872  20.269  13.948
80058W        W49873  16.787  10.229  10.452
80059W        W49874  26.054  23.055   0.819
80060W        W49875  12.675  30.914   2.852
80061W        W49876  44.807  41.870  13.432
80062W        W49877   0.853  12.187   3.839
80063W        W49878   1.761  30.963  11.894
80064W        W49879  13.736  23.638  12.344
80065W        W49880  11.700  25.126  11.031
80066W        W49881  44.358  34.029  13.059
80067W        W49882  30.638  13.631   4.775
80068W        W49883  36.387  11.148  11.380
80069W        W49884   1.807   6.767   4.766
80070W        W49885  11.257  29.443  13.927
80071W        W49886  43.867  40.822  11.609
80072W        W49887   1.315  15.768   2.745
80073W        W49888   4.892  25.537  13.990
80074W        W49889  35.448   6.218  13.805
80075W        W49890  16.619  30.430  14.328
80076W        W49891  25.653  36.074  10.926
80077W        W49892  11.666  32.938  14.331
80078W        W49893  36.506  35.414   2.192
80079W        W49894  44.320  10.653  14.990
80080W        W49895  40.353  32.085  12.926
80081W        W49896  12.238  25.096  13.040
80082W        W49897  16.216  35.396  14.358
80083W        W49898  23.118  31.543  12.429
80084W        W49899  42.787  16.716  14.480
80085W        W49900  28.983  31.470   3.757
80086W        W49901  21.225  29.964   3.707
80087W        W49902  10.197  10.764  12.471
80088W        W49903  15.292  40.310   0.361
80089W        W49904   0.397  44.882  11.554
80090W        W49905  30.424  10.718  12.501
80091W        W49906  27.582  44.932  14.877
80092W        W49907  36.414  13.256   4.138
80093W        W49908  31.602   1.732  11.986
80094W        W49909  26.647  27.473   0.798
80095W        W49910  29.562  24.038  10.988
80096W        W49911  36.539  18.604  12.913
80097W        W49912   9.723  40.304   0.925
80098W        W49913   2.941  11.672  11.974
80099W        W49914  38.482   0.451   4.601
80100W        W49915  17.751   2.844   2.361
80101W        W49916  19.139  33.396   4.642
80102W        W49917   2.241  34.405  14.910
80103W        W49918  17.795  43.423  12.418
80104W        W49919  33.393  43.955   0.830
80105W        W49920  42.030  30.084  13.390
80106W        W49921  19.280  16.773  12.946
80107W        W49922  19.769  40.832  13.042
80108W        W49923  37.952  32.419   3.237
80109W        W49924  25.704  37.935   3.242
80110W        W49925  35.961  15.118  11.004
80111W        W49926  35.411   8.227  13.850
80112W        W49927   5.257  29.577   3.273
80113W        W49928  37.060  11.366   0.387
80114W        W49929  22.684  28.596  12.349
80115W        W49930   7.327   7.232  12.428
80116W        W49931  19.775   3.941   0.787
80117W        W49932  39.529  15.637  11.507
80118W        W49933  39.491  14.648   1.357
80119W        W49934  35.459   4.778  14.943
80120W        W49935  39.834  34.477   4.143
80121W        W49936  10.828  24.200   4.769
80122W        W49937  22.621  39.500   3.209
80123W        W49938  38.852  44.798   2.705
80124W        W49939  32.937  12.358   3.264
80125W        W49940  41.341   0.371   3.164
80126W        W49941   6.746  21.660  10.932
80127W        W49942  22.998  21.517   3.354
80128W        W49943  38.889  37.984   3.377
80129W        W49944  19.063   3.320  11.931
80130W        W49945  35.106  30.656  11.974
80131W        W49946   1.398   1.432  13.027
80132W        W49947  21.066   1.465  10.033
80133W        W49948  29.455   7.302  14.026
80134W        W49949  26.535  32.135  13.461
80135W        W49950  19.766  44.993  12.427
80136W        W49951  40.441  35.086   0.470
80137W        W49952  10.188  10.159   4.122
80138W        W49953  26.477   3.441   2.260
80139W        W49954  21.602  29.534   0.784
80140W        W49955  12.331  20.082   2.699
80141W        W49956  15.197  39.053   0.829
80142W        W49957  28.159  42.865   4.168
80143W        W49958  40.328  16.224   0.338
80144W        W49959  22.555   2.387  13.540
80145W        W49960  28.106  44.280  12.862
80146W        W49961  32.140  21.048   4.654
80147W        W49962  38.960  10.151  10.962
80148W        W49963  17.240  30.418  14.979
80149W        W49964  11.214   7.770  12.525
80150W        W49965  28.590  27.560  10.969
80151W        W49966   1.243  30.966   1.374
80152W        W49967  24.063  30.020   4.245
80153W        W49968   6.905  37.003   2.205
80154W        W49969  33.623   3.921   2.409
80155W        W49970  15.656  10.707  14.497
80156W        W49971  21.582   9.729  11.559
80157W        W49972  22.684   4.915  11.990
80158W        W49973  12.224   9.870  13.355
80159W        W49974  40.919  42.837  14.966
80160W        W49975  18.681  44.880  13.970
80161W        W49976   9.670  34.404  11.084
80162W        W49977  12.228  39.334  13.942
80163W        W49978  16.254  31.992  14.418
80164W        W49979  36.418  42.799  13.446
80165W        W49980  38.451  38.020  14.449
80166W        W49981  23.099  23.619   3.250
80167W        W49982  24.570  17.735   0.759
80168W        W49983   3.367  15.761  14.827
80169W        W49984   3.263  38.831   2.740
80170W        W49985   2.903   3.947   4.342
80171W        W49986   0.788  44.920   0.473
80172W        W49987  31.977  36.440  14.442
80173W        W49988  29.034  43.383   4.331
80174W        W49989  35.065  43.403  14.328
80175W        W49990   0.330  16.209   1.328
80176W        W49991  11.799  22.032  12.554
80177W        W49992   6.772  27.068   4.237
80178W        W49993   4.339  44.854  12.497
80179W        W49994  43.779  20.723  13.348
80180W        W49995  37.550  25.696  14.008
80181W        W49996  13.295  28.652   3.864
80182W        W49997  28.647  26.569   3.209
80183W        W49998  30.037  18.743  13.385
80184W        W49999   1.418  43.296  13.834
80185W        W50000   4.241  29.449   3.196
80186W        W50001  42.356  30.468  13.493
80187W        W50002   7.202  10.192  13.836
80188W        W50003  17.229  18.187   4.669
80189W        W50004  14.212  26.537  11.451
80190W        W50005  13.667  42.404  14.502
80191W        W50006  36.490   6.697   4.338
80192W        W50007   6.349  31.417   4.236
80193W        W50008  33.447  29.526  13.805
80194W        W50009  43.315   0.814  11.601
80195W        W50010   6.324  25.691  11.378
80196W        W50011  15.777  32.566  10.619
80197W        W50012  40.831   3.289  12.851
80198W        W50013  15.115  23.698  11.990
80199W        W50014  37.976  24.124   4.157
80200W        W50015  10.200  19.246   0.281
80201W        W50016  13.767  25.174  14.966
80202W        W50017  16.733   7.677  13.454
80203W        W50018   2.908  21.666  10.622
80204W        W50019   2.380  25.651  11.604
80205W        W50020  26.001  31.431   4.738
80206W        W50021  40.456  18.556   0.474
80207W        W50022  22.210  35.578   3.703
80208W        W50023  25.093  19.681   2.377
80209W        W50024  35.498  19.236   0.426
80210W        W50025  37.502  33.003   0.288
80211W        W50026  18.291   7.382  12.951
80212W        W50027  33.999  17.639   0.270
80213W        W50028  33.520  37.544   1.370
80214W        W50029  29.977   8.261  12.544
80215W        W50030   7.800  37.011   4.694
80216W        W50031   2.816  38.502  14.304
80217W        W50032  36.059  32.083  11.376
80218W        W50033  26.663   2.731  11.881
80219W        W50034   1.896  40.916  11.486
80220W        W50035   4.298  39.432   4.686
80221W        W50036  44.405  36.555   3.192
80222W        W50037  35.043  15.805  10.644
80223W        W50038  44.485  32.966   0.886
80224W        W50039  10.839  15.691   4.132
80225W        W50040  18.761   4.853   1.248
80226W        W50041  40.809   8.289   1.771
80227W        W50042  31.909   2.795   1.848
80228W        W50043  22.095  28.178   0.404
80229W        W50044   6.224  26.985  10.579
80230W        W50045  37.544  35.541   0.475
80231W        W50046  32.981   1.419   0.339
80232W        W50047  21.098  43.475  14.283
80233W        W50048  15.127  23.534   3.173
80234W        W50049  23.029  36.875   1.700
80235W        W50050  32.611  33.011   3.147
80236W        W50051  11.336   1.744   1.773
80237W        W50052  23.535   4.248   1.830
80238W        W50053  29.640  13.780   2.363
80239W        W50054  22.083  38.917  11.959
80240W        W50055  43.004  44.476  11.955
80241W        W50056  42.894  21.709   3.735
80242W        W50057  12.136  28.094   3.385
80243W        W50058  42.485   7.313  14.417
80244W        W50059  14.207  35.993  12.003
80245W        W50060  20.557  43.300  11.024
80246W        W50061  32.997  28.460  11.566
80247W        W50062  32.481  35.057  10.958
80248W        W50063  28.529  41.502   0.422
80249W        W50064   0.755  15.322   3.712
80250W        W50065  23.170  44.762   1.728
80251W        W50066  38.385   2.407   1.237
80252W        W50067  17.581  39.476  13.379
80253W        W50068  36.523  23.603   0.731
80254W        W50069  16.675  19.205  13.487
80255W        W50070  20.763   7.822   1.234
80256W        W50071  27.146  21.643   0.307
80257W        W50072  26.610  44.438  11.545
80258W        W50073  23.208  41.929  10.934
80259W        W50074  20.049  35.997   1.379
80260W        W50075  32.480   7.793   4.761
80261W        W50076   6.854  37.845  14.429
80262W        W50077  21.631  30.528   2.872
80263W        W50078  25.665   8.314  13.974
80264W        W50079  15.762  30.017  13.462
80265W        W50080  20.111  29.027   0.905
80266W        W50081  37.489  19.126  10.560
80267W        W50082  33.401  20.598  14.516
80268W        W50083  40.502   9.377  14.881
80269W        W50084  24.176  34.547   0.259
80270W        W50085  13.655  34.073  14.426
80271W        W50086   9.738   3.712   2.375
80272W        W50087  31.114  44.818   3.358
80273W        W50088  25.210   9.183   4.722
80274W        W50089  22.111  31.079  14.950
80275W        W50090  37.354  37.523  12.086
80276W        W50091  16.184  34.042  11.382
80277W        W50092  17.098  27.494  10.955
80278W        W50093  14.817  42.337   1.778
80279W        W50094  36.073  27.160   0.866
80280W        W50095   3.810  23.655   4.769
80281W        W50096  29.500  30.658   2.860
80282W        W50097   4.925  12.352  11.608
80283W        W50098   1.909  27.023   0.260
80284W        W50099  25.198  11.162   1.814
80285W        W50100  17.689   9.281  14.362
80286W        W50101  18.095  23.073  14.783
80287W        W50102  33.468  25.022  14.314
80288W        W50103   5.244  39.983   3.709
80289W        W50104  42.422  23.596  10.929
80290W        W50105  27.533  31.582   3.746
80291W        W50106   1.895  32.984  11.508
80292W        W50107   8.330  24.068   2.212
80293W        W50108   6.682  32.551   3.203
80294W        W50109  38.017  44.957   0.932
80295W        W50110  44.892   3.767   0.960
80296W        W50111  30.064  13.220  12.375
80297W        W50112  14.681   0.801  10.627
80298W        W50113  26.969  40.980   4.265
80299W        W50114  35.357  27.492   4.822
80300W        W50115  41.493  25.543   4.708
80301W        W50116  25.081  10.802  12.953
80302W        W50117  28.139   4.262   5.145
80303W        W50118  43.424  37.025   4.352
80304W        W50119   2.881  25.509   3.200
80305W        W50120   1.763  26.060   3.379
80306W        W50121  41.536  20.663   4.305
80307W        W50122  32.037  12.217   0.337
80308W        W50123  24.173  41.410   3.382
80309W        W50124  15.113  19.215   0.287
80310W        W50125  19.711  43.798   3.774
80311W        W50126  21.252  34.863  11.936
80312W        W50127  15.702  17.114   3.356
80313W        W50128   3.369  11.317  11.038
80314W        W50129  32.097  43.400   3.373
80315W        W50130  21.738  11.846  14.976
80316W        W50131  30.990  27.091   0.461
80317W        W50132  21.029  27.625  11.467
80318W        W50133  14.613   8.251  12.018
80319W        W50134  28.059  11.371   4.203
80320W        W50135  24.666  38.350   4.248
80321W        W50136  10.675   6.424   2.903
80322W        W50137  26.585  44.789  10.643
80323W        W50138  44.926  33.445   4.216
80324W        W50139  33.452   5.933   1.910
80325W        W50140   9.346   1.742  13.977
80326W        W50141  12.282  19.054   3.702
80327W        W50142  24.052  17.743   1.815
80328W        W50143  39.497  12.707   4.162
80329W        W50144  12.811  34.467  12.406
80330W        W50145   1.456  15.791   3.824
80331W        W50146  25.559  39.062  13.057
80332W        W50147  22.516  26.505  10.577
80333W        W50148  41.003   5.308   2.246
80334W        W50149  20.064  44.293   4.156
80335W        W50150  43.991  18.123  10.457
80336W        W50151   5.236  18.756  11.405
80337W        W50152  40.942  24.205   2.324
80338W        W50153  20.702   1.827   2.890
80339W        W50154  37.338  27.061   2.864
80340W        W50155  21.739   8.854   0.752
80341W        W50156  16.759  25.521   1.282
80342W        W50157  44.838  19.719  13.368
80343W        W50158  12.857  22.152  14.904
80344W        W50159   7.189  20.169  13.995
80345W        W50160  20.681  29.448   1.886
80346W        W50161   1.414   1.803  12.831
80347W        W50162  27.485  20.175   2.872
80348W        W50163  10.327  31.929  13.043
80349W        W50164   7.834  44.358  12.566
80350W        W50165  44.838  13.347  12.391
80351W        W50166  35.895   3.386  11.943
80352W        W50167  12.791  31.907  14.817
80353W        W50168  39.865  39.395  13.980
80354W        W50169  28.640  17.094   2.291
80355W        W50170  25.486  23.560   2.872
80356W        W50171  34.066  31.621  14.856
80357W        W50172   5.898   7.904  12.365
80358W        W50173  17.172  42.832   4.621
80359W        W50174  32.427  19.225  14.363
80360W        W50175  35.873   0.792  13.504
80361W        W50176  10.684  19.134   3.821
80362W        W50177  14.667  41.392   4.711
80363W        W50178  40.992   0.891   1.885
80364W        W50179  38.027  44.827   2.760
80365W        W50180  41.513  15.301   0.427
80366W        W50181  43.427  42.884   2.769
80367W        W50182  36.914  28.504  14.490
80368W        W50183  33.951  24.667   3.746
80369W        W50184   5.384  41.847  10.607
80370W        W50185  30.521  13.335   4.300
80371W        W50186  41.320   5.313   1.901
80372W        W50187  34.106  28.504  13.875
80373W        W50188  18.057  21.248  11.605
80374W        W50189   7.771   9.330   4.256
80375W        W50190   9.818  26.144  14.485
80376W        W50191  10.856  40.507   1.446
80377W        W50192  35.552  36.498  13.410
80378W        W50193  34.531  20.055  11.890
80379W        W50194  33.581  23.229  13.355
80380W        W50195  12.807  34.452  14.978
80381W        W50196  10.674  18.781  12.531
80382W        W50197  41.992  10.366  11.909
80383W        W50198  38.977   3.345   1.325
80384W        W50199  43.827  21.573  10.461
80385W        W50200  30.448   0.259  13.509
80386W        W50201  43.363  34.915   0.865
80387W        W50202  34.484  26.205  12.002
80388W        W50203  40.948  21.525   3.214
80389W        W50204   9.873  43.393   2.863
80390W        W50205  11.725  26.023  14.387
80391W        W50206  35.908  28.612  12.407
80392W        W50207   2.784  28.629  13.893
80393W        W50208  37.960  25.120   5.214
80394W        W50209  37.455  44.475  12.940
80395W        W50210  35.955  28.538  13.827
80396W        W50211   7.755   8.768   1.898
80397W        W50212  19.756  39.908  12.063
80398W        W50213  14.316  25.096   3.834
80399W        W50214   5.249  20.697   4.179
80400W        W50215  10.663  30.051  12.937
80401W        W50216  44.864  27.981   4.227
80402W        W50217  25.117  20.225   4.607
80403W        W50218  14.318   8.842  10.964
80404W        W50219   2.331  33.603   0.298
80405W        W50220   3.884  13.297   3.730
80406W        W50221  20.591   3.422  11.518
80407W        W50222  12.758   4.443   2.204
80408W        W50223   6.690   6.240   0.813
80409W        W50224  32.437  38.506   4.246
80410W        W50225   7.191  27.024  13.495
80411W        W50226  24.599  33.437   4.156
80412W        W50227  13.813  27.451   3.236
80413W        W50228  26.096  22.719   2.316
80414W        W50229   9.800  32.411   0.413
80415W        W50230   2.748   1.297  11.438
80416W        W50231  31.945  38.028   2.370
80417W        W50232  27.096  14.784   2.772
80418W        W50233  19.256  17.599   1.450
80419W        W50234   9.152  31.933  13.892
80420W        W50235  31.627  15.699  11.012
80421W        W50236  17.241  25.547  11.943
80422W        W50237  28.660  11.200  14.486
80423W        W50238  18.151  44.414  11.509
80424W        W50239  18.583   6.233  10.643
80425W        W50240  12.780  30.961  14.790
80426W        W50241   4.885   3.311  12.850
80427W        W50242   1.382  20.185   4.172
80428W        W50243  41.351  32.061   5.240
80429W        W50244   7.862  17.707  13.915
80430W        W50245  11.180  10.683   4.295
80431W        W50246  29.101  20.581  13.900
80432W        W50247  10.691  34.540   4.342
80433W        W50248  31.913  28.620  14.004
80434W        W50249  33.535  40.006  12.411
80435W        W50250  26.120   1.934   1.385
80436W        W50251  37.954  36.849  14.802
80437W        W50252   4.797  31.647  12.079
80438W        W50253  42.426  14.201   5.152
80439W        W50254  18.197  18.241  13.499
80440W        W50255  26.494  17.218   3.775
80441W        W50256  24.508  26.493  12.364
80442W        W50257  18.558  35.462  12.529
80443W        W50258  21.644   6.385  11.439
80444W        W50259  15.798  19.627  13.866
80445W        W50260  19.068  35.008   0.307
80446W        W50261   1.332   8.211  12.512
80447W        W50262  34.042   0.493   1.895
80448W        W50263  34.402  36.433  10.571
80449W        W50264  31.528  22.119   3.324
80450W        W50265   3.239  32.097   3.838
80451W        W50266  15.725  30.439  13.529
80452W        W50267  30.034  27.071  10.983
80453W        W50268  17.709  43.922  12.483
80454W        W50269  31.565   0.428  14.907
80455W        W50270  15.135  36.962  14.783
80456W        W50271  34.026   5.385  11.022
80457W        W50272   9.793  21.677  14.794
80458W        W50273  27.956  36.090  14.291
80459W        W50274  31.642  37.539  14.422
80460W        W50275  23.562  39.332  13.947
80461W        W50276   9.842   1.440   4.766
80462W        W50277  38.511  16.761   4.292
80463W        W50278  16.156  21.703  14.920
80464W        W50279  23.044  19.599  11.409
80465W        W50280   9.391  16.274  12.014
80466W        W50281   6.904  39.820  12.961
80467W        W50282  24.595   1.316   3.660
80468W        W50283   5.817   5.296  14.347
80469W        W50284  34.406  41.854   0.908
80470W        W50285  23.231   3.421   5.177
80471W        W50286   0.369  15.687   4.194
80472W        W50287  22.737   0.748  10.606
80473W        W50288  25.473  18.287  13.899
80474W        W50289   3.442  43.332   3.208
80475W        W50290  43.313   9.785   3.858
80476W        W50291   6.288  30.025  13.417
80477W        W50292  31.947  42.880   0.783
80478W        W50293  26.185  17.766   1.724
80479W        W50294  42.811   1.860  13.843
80480W        W50295  39.898  37.491  13.414
80481W        W50296   2.367   1.841  13.377
80482W        W50297  11.720   7.909   3.661
80483W        W50298  41.378  28.613   4.691
80484W        W50299  27.136  10.795   2.676
80485W        W50300  42.869  14.138  14.398
80486W        W50301  43.313  38.069   4.755
80487W        W50302  28.594  41.497   3.210
80488W        W50303  35.398  10.289   2.789
80489W        W50304  44.987  12.680  11.503
80490W        W50305  27.060  44.287   0.432
80491W        W50306   0.249  43.433  12.575
80492W        W50307  35.403  29.611  12.921
80493W        W50308  22.739   3.909  12.391
80494W        W50309  23.237  22.533   4.176
80495W        W50310   6.279  42.992  14.288
80496W        W50311  31.126  43.936   4.742
80497W        W50312   7.853  22.692  12.399
80498W        W50313  42.914   4.216  14.008
80499W        W50314  10.207  13.190  12.538
80500W        W50315  24.599  43.323  14.422
80501W        W50316  44.847  14.269  10.559
80502W        W50317   4.701  29.947   0.481
80503W        W50318   1.313   4.413  11.551
80504W        W50319  22.505  10.675  13.844
80505W        W50320  16.259  43.815   3.801
80506W        W50321  35.390  35.409   4.329
80507W        W50322   2.905   5.728  10.989
80508W        W50323   0.889   0.972   5.170
80509W        W50324   1.879  30.422  11.859
80510W        W50325  33.051   4.924   2.254
80511W        W50326  28.171  15.292   3.749
80512W        W50327  28.676  21.056   4.172
80513W        W50328  44.363  41.443   0.454
80514W        W50329  10.834  10.726  11.089
80515W        W50330  27.572  14.756   4.617
80516W        W50331   7.335  10.785   3.219
80517W        W50332  17.282  21.219   1.721
80518W        W50333  26.155  17.149  11.948
80519W        W50334  42.334   4.775   2.838
80520W        W50335   6.403  39.400   1.437
80521W        W50336   6.424  37.378  13.041
80522W        W50337   3.325  12.660   4.256
80523W        W50338  29.620  21.125   4.232
80524W        W50339  23.701  42.377  13.944
80525W        W50340  18.643   4.383  11.380
80526W        W50341  16.264  33.587  10.908
80527W        W50342  43.801  31.645   3.665
80528W        W50343  42.513  17.794  10.558
80529W        W50344  43.356   3.710   3.684
80530W        W50345   1.428   1.315   1.274
80531W        W50346   2.837  13.842   2.871
80532W        W50347  36.904  23.648  10.597
80533W        W50348  14.759  12.263  12.976
80534W        W50349   6.347  36.566  10.621
80535W        W50350  36.584  36.875  14.818
80536W        W50351  26.025  11.722  10.642
80537W        W50352   6.781  26.606   0.306
80538W        W50353   6.281   8.750  14.932
80539W        W50354  30.612  39.062   5.193
80540W        W50355  26.185   8.216   0.303
80541W        W50356   8.224  40.365   0.414
80542W        W50357   3.281  13.605   4.738
80543W        W50358  40.425  22.202  12.371
80544W        W50359  40.908  13.692  14.287
80545W        W50360  44.811  44.422   2.708
80546W        W50361  37.846  43.906  14.966
80547W        W50362  13.327   2.410   1.418
80548W        W50363  38.905  42.421  10.644
80549W        W50364  17.251  12.196  14.306
80550W        W50365  26.055  14.195   1.352
80551W        W50366  37.899  36.538   3.289
80552W        W50367   2.382  26.075   4.785
80553W        W50368  42.016  24.123   3.818
80554W        W50369  13.836  33.453  14.964
80555W        W50370  41.924  16.083  12.060
80556W        W50371   3.872   8.311   4.131
80557W        W50372  36.581  19.746  13.519
80558W        W50373  31.572  34.016  13.984
80559W        W50374  31.075  25.685   1.222
80560W        W50375  37.058   7.253  10.421
80561W        W50376   5.215  20.199   1.403
80562W        W50377  23.177  21.129  12.971
80563W        W50378  30.478  39.016  10.607
80564W        W50379  36.939  35.476   0.340
80565W        W50380   3.744  13.757   4.315
80566W        W50381  40.486  41.890  11.545
80567W        W50382   7.331   6.386  11.408
80568W        W50383   9.286   5.755  11.587
80569W        W50384  28.181  25.058  13.525
80570W        W50385  19.164   8.402  10.910
80571W        W50386   8.298  39.041   2.361
80572W        W50387  37.933  17.224  12.091
80573W        W50388  31.020  36.444  14.286
80574W        W50389  33.477  44.961   0.774
80575W        W50390   2.239   5.893   4.248
80576W        W50391  44.796  44.435  14.967
80577W        W50392  23.016  14.188   0.965
80578W        W50393  18.281   3.317  11.559
80579W        W50394   1.898  36.940  14.929
80580W        W50395  21.232  41.820   1.311
80581W        W50396   2.956  31.610   2.290
80582W        W50397  33.916  35.385  12.524
80583W        W50398  26.170  23.593   1.327
80584W        W50399  30.980   5.848  12.445
80585W        W50400  16.231  34.905  14.468
80586W        W50401   8.342  41.496  12.957
80587W        W50402  16.204  14.323  11.007
80588W        W50403  42.912  20.717  10.134
80589W        W50404   8.285  14.624   0.777
80590W        W50405   4.765  34.441   2.320
80591W        W50406  27.992  19.112   3.691
80592W        W50407  13.131  21.171   3.838
80593W        W50408  18.746  17.715  14.834
80594W        W50409   0.435  32.006  10.945
80595W        W50410  43.891  43.816  14.872
80596W        W50411   0.950  35.996   4.601
80597W        W50412  33.548   1.751   5.198
80598W        W50413  18.705  33.544   3.377
80599W        W50414   4.900  27.675  10.924
80600W        W50415  25.217  40.497  10.924
80601W        W50416  15.717  40.861  11.432
80602W        W50417  23.494  13.764   3.850
80603W        W50418   2.436  36.072  14.806
80604W        W50419  28.177  44.293   2.199
80605W        W50420  17.778   6.886   3.221
80606W        W50421  17.753  15.599  14.857
80607W        W50422  31.995  11.682   0.965
80608W        W50423  34.019  15.167  10.585
80609W        W50424  31.595  36.018   0.893
80610W        W50425  34.072  43.962  14.278
80611W        W50426   2.732  29.953  12.439
80612W        W50427  14.679  36.077  13.939
80613W        W50428  24.557  31.555  10.454
80614W        W50429   8.680  35.937   1.260
80615W        W50430  32.107  21.700   0.354
80616W        W50431  23.111  36.393  14.365
80617W        W50432  21.633  12.678   2.830
80618W        W50433  30.021  26.694   4.790
80619W        W50434  44.344   9.354  11.492
80620W        W50435   4.733   7.798   4.316
80621W        W50436  37.961   0.415   2.249
80622W        W50437  22.252  27.585   2.371
80623W        W50438   7.806  22.124   2.685
80624W        W50439  42.009  37.030   3.219
80625W        W50440  22.632  15.098   2.723
80626W        W50441  34.946  11.675   3.815
80627W        W50442  43.307  41.931  12.540
80628W        W50443   0.911   7.373  14.954
80629W        W50444  26.035   1.916   4.232
80630W        W50445  43.764  23.039  11.551
80631W        W50446  19.583  36.083  14.912
80632W        W50447  24.160  32.487  12.494
80633W        W50448  29.495  29.999  13.541
80634W        W50449  28.649  15.578  12.452
80635W        W50450  27.037  22.018   0.907
80636W        W50451  24.586  32.534   4.120
80637W        W50452   1.279   5.888   3.287
80638W        W50453  31.521  36.386   2.192
80639W        W50454  24.178  14.628  11.975
80640W        W50455  14.299  39.894   1.803
80641W        W50456  25.671   2.851   1.266
80642W        W50457  38.458  41.502   3.321
80643W        W50458   6.689  38.047   3.650
80644W        W50459  33.563  29.922  11.924
80645W        W50460  39.845  26.578  14.480
80646W        W50461  34.576   6.779   3.798
80647W        W50462  30.495   6.227  13.967
80648W        W50463   1.261  18.265   4.789
80649W        W50464  14.156  17.591  11.562
80650W        W50465  26.125  41.316  13.938
80651W        W50466  15.707  13.126   1.914
80652W        W50467   3.257  38.871   5.210
80653W        W50468  40.829  44.819  11.432
80654W        W50469  22.718   5.784   4.352
80655W        W50470   7.735   3.817  14.327
80656W        W50471  42.015  31.934  10.627
80657W        W50472  21.084  13.737   1.707
80658W        W50473   2.733  41.977   4.133
80659W        W50474  29.090  19.746   2.289
80660W        W50475  24.225   8.822  12.838
80661W        W50476  30.047  20.651  10.601
80662W        W50477  41.900  39.956  10.028
80663W        W50478  35.945  29.087   2.667
80664W        W50479  42.777   5.826   3.817
80665W        W50480  11.731  38.403  12.381
80666W        W50481   9.839  42.015   5.259
80667W        W50482   9.841  19.211   2.232
80668W        W50483  19.279  28.170  10.433
80669W        W50484  42.846  18.598   3.169
80670W        W50485  37.443  18.705  13.853
80671W        W50486  32.451   4.349  11.063
80672W        W50487   3.750   7.405   1.761
80673W        W50488  40.964  35.482  11.408
80674W        W50489   7.726  32.554   4.114
80675W        W50490  16.195   7.281  11.934
80676W        W50491   5.880  28.463  10.567
80677W        W50492  32.396  11.696  12.384
80678W        W50493   1.766  37.056  11.580
80679W        W50494   8.369  32.588   3.677
80680W        W50495  26.017  40.009  12.496
80681W        W50496  43.997  39.975   0.426
80682W        W50497  21.563  44.319   1.399
80683W        W50498   2.318  30.083  12.426
80684W        W50499  17.133  28.031   2.690
80685W        W50500   7.828  35.564  10.494
80686W        W50501  40.051  23.601  11.109
80687W        W50502   8.164   6.269  14.949
80688W        W50503  27.956  37.349  13.524
80689W        W50504   0.928  33.613  11.084
80690W        W50505   5.293  34.960   1.242
80691W        W50506  21.108  14.248  14.801
80692W        W50507  36.547  19.630  14.437
80693W        W50508  37.487  14.147  13.029
80694W        W50509  18.785  44.963   2.261
80695W        W50510  24.169  11.183   1.729
80696W        W50511  37.937   2.437   0.877
80697W        W50512  39.903   0.785  14.972
80698W        W50513  11.770  37.376  11.513
80699W        W50514  10.325  27.021  11.491
80700W        W50515  35.512  39.439  13.946
80701W        W50516  42.432  22.099   4.182
80702W        W50517  16.783   7.693   4.278
80703W        W50518   3.313  39.993   0.457
80704W        W50519  19.757  28.043   0.403
80705W        W50520   5.350  35.575   0.314
80706W        W50521   2.825  10.745   3.265
80707W        W50522  24.002  39.349  11.871
80708W        W50523  25.211  21.574   3.666
80709W        W50524  33.067  18.064  13.860
80710W        W50525  40.356   8.885   5.149
80711W        W50526  41.414  23.028   1.230
80712W        W50527  18.207  23.736  13.488
80713W        W50528  42.809   2.735   4.768
80714W        W50529  20.181   6.388  10.442
80715W        W50530   4.371  41.983   1.407
80716W        W50531  43.436  36.966  13.514
80717W        W50532   4.300   1.790  13.962
80718W        W50533  15.590  29.134  14.421
80719W        W50534  19.612   5.851  10.580
80720W        W50535  28.516  35.870  12.943
80721W        W50536  44.465  30.542   4.255
80722W        W50537  22.617  12.855  13.521
80723W        W50538  12.146  39.400   3.706
80724W        W50539  22.083  37.349  13.847
80725W        W50540  29.923  35.965   1.286
80726W        W50541  37.446  42.299  14.842
80727W        W50542  28.537  39.967  13.913
80728W        W50543  27.493  33.382  13.995
80729W        W50544  17.700  29.651   1.256
80730W        W50545  14.703  11.700   1.418
80731W        W50546   7.203   0.387   3.337
80732W        W50547  38.838  38.561   2.364
80733W        W50548  15.143  12.209   0.416
80734W        W50549  10.800  20.530   4.256
80735W        W50550   7.854  27.143  12.873
80736W        W50551  13.846  29.970  11.860
80737W        W50552  37.351  36.573   3.281
80738W        W50553   0.864   8.803   1.711
80739W        W50554  43.289  18.612  10.472
80740W        W50555  37.946  10.823   4.192
80741W        W50556  42.491  43.364   0.842
80742W        W50557  20.029  41.430   2.355
80743W        W50558  23.092  25.547  11.020
80744W        W50559  12.328  10.286  11.110
80745W        W50560   8.761   0.413   2.817
80746W        W50561  11.641   2.885  11.035
80747W        W50562   8.798   2.721  12.460
80748W        W50563  18.658  26.542  10.585
80749W        W50564  20.058  35.007  14.792
80750W        W50565  37.366  22.100  12.868
80751W        W50566  11.282  34.119  11.532
80752W        W50567  44.469  38.475  14.311
80753W        W50568   4.740   2.754   0.436
80754W        W50569  25.525  25.085  13.474
80755W        W50570   9.864  29.020   2.794
80756W        W50571   1.346  21.180  14.310
80757W        W50572  41.436  35.907  12.517
80758W        W50573  29.937  28.454  11.944
80759W        W50574  12.726  23.657   3.149
80760W        W50575  30.517  16.096  10.418
80761W        W50576  31.105  11.784   4.611
80762W        W50577  16.199  18.270  10.553
80763W        W50578  32.491  16.732   2.758
80764W        W50579  18.241   8.182   0.769
80765W        W50580  36.480  40.395  14.467
80766W        W50581  14.216  16.776  12.559
80767W        W50582  33.001  39.928   1.275
80768W        W50583  40.884  16.166   3.852
80769W        W50584  24.564   7.230   4.156
80770W        W50585  40.915   8.399   2.812
80771W        W50586   5.741  36.051  10.628
80772W        W50587  37.342  10.357   1.237
80773W        W50588  14.128  15.269   4.658
80774W        W50589  43.416  12.696   2.305
80775W        W50590   9.788  30.435  13.355
80776W        W50591  37.567   3.277   9.934
80777W        W50592   9.343  24.493   3.301
80778W        W50593  12.313   7.775   2.704
80779W        W50594  20.142  21.159   0.861
80780W        W50595  32.974  34.897  14.869
80781W        W50596  13.767  34.556   1.439
80782W        W50597   6.788  15.637   1.825
80783W        W50598  32.142  21.732   3.860
80784W        W50599  22.605  34.501  10.960
80785W        W50600  44.934  36.930   4.829
80786W        W50601   3.924  27.982  13.844
80787W        W50602  29.658  19.606   2.213
80788W        W50603   9.264  44.904  10.517
80789W        W50604  43.824  27.172   4.751
80790W        W50605  19.719  39.963   4.789
80791W        W50606   5.287   9.874   3.764
80792W        W50607  37.981  37.042  10.573
80793W        W50608  16.607  20.727   0.925
80794W        W50609  12.616  36.082  12.568
80795W        W50610   1.317  32.584  12.921
80796W        W50611  19.135  28.050  13.451
80797W        W50612  21.702   6.877  13.864
80798W        W50613  34.459   8.182  12.928
80799W        W50614   1.439   4.893   3.855
80800W        W50615  30.985   6.831   2.707
80801W        W50616  27.056  25.037   1.308
80802W        W50617  42.515  15.618  11.417
80803W        W50618  37.574  40.365   1.304
80804W        W50619  14.187  21.090  12.985
80805W        W50620  10.744   8.230   2.398
80806W        W50621  11.221  43.399   1.927
80807W        W50622   8.827  40.041   5.222
80808W        W50623  19.178  24.103   3.332
80809W        W50624  31.442  11.217   4.762
80810W        W50625  34.877  23.705  11.110
80811W        W50626  11.738  11.151  10.434
80812W        W50627  21.072  25.517   5.189
80813W        W50628   9.888  32.501  12.905
80814W        W50629   1.734  31.019   1.357
80815W        W50630  37.877   9.318  10.941
80816W        W50631  18.645  20.708   0.306
80817W        W50632  16.155  23.731  10.532
80818W        W50633  37.081  18.283  11.947
80819W        W50634  17.589  42.370  12.579
80820W        W50635   3.945  20.639   1.698
80821W        W50636   1.422  15.295   3.235
80822W        W50637  28.439   3.432  10.458
80823W        W50638  29.648  32.594   4.353
80824W        W50639  27.538  26.622   4.701
80825W        W50640  19.625   3.897   4.618
80826W        W50641  34.579  18.588  14.927
80827W        W50642  14.166  42.839  11.459
80828W        W50643  16.725   4.847  14.374
80829W        W50644   5.299  19.730   1.319
80830W        W50645  11.275  18.639  12.897
80831W        W50646   6.314  42.331  10.554
80832W        W50647  23.552  15.687  14.834
80833W        W50648   0.252  35.908   0.889
80834W        W50649  39.321   6.812   3.148
80835W        W50650  12.284  18.132  12.034
80836W        W50651   4.903   3.308  14.977
80837W        W50652  15.287   3.227   3.384
80838W        W50653   9.153  31.038  13.506
80839W        W50654  21.663  35.559   2.257
80840W        W50655   1.826   8.398   0.285
80841W        W50656   8.389  40.537   4.695
80842W        W50657  29.491  20.229   1.776
80843W        W50658  36.026  29.023   2.308
80844W        W50659  12.828   5.311   3.735
80845W        W50660  19.175  25.029  10.519
80846W        W50661  24.629  33.463   0.447
80847W        W50662  32.933  14.133   3.241
80848W        W50663   0.329  11.309  10.577
80849W        W50664   7.340  10.712  11.101
80850W        W50665  14.650  30.523  12.885
80851W        W50666  37.971  41.348  12.876
80852W        W50667  43.999  42.449   3.772
80853W        W50668  35.559   4.333   2.728
80854W        W50669  41.888  13.704   3.766
80855W        W50670   4.410  19.548  12.448
80856W        W50671  20.686  15.259   4.145
80857W        W50672   4.826  12.704  14.509
80858W        W50673  26.602  23.533  14.954
80859W        W50674  21.065  26.116   4.775
80860W        W50675  29.081  45.000   2.743
80861W        W50676   5.415  27.646  12.363
80862W        W50677   6.394   2.306  11.573
80863W        W50678   5.889  30.580  14.835
80864W        W50679  21.680   1.364  12.355
80865W        W50680  36.473  17.729  11.856
80866W        W50681  19.640  23.735  11.126
80867W        W50682  19.697  10.334   4.800
80868W        W50683  41.344   2.323  11.581
80869W        W50684   6.913  37.553  14.296
80870W        W50685  28.595  16.158   4.284
80871W        W50686  23.225  41.421   3.732
80872W        W50687  42.305  44.504  11.080
80873W        W50688  14.636   9.876  12.479
80874W        W50689  21.735  26.665  10.459
80875W        W50690  10.841  15.605  12.933
80876W        W50691   6.334  43.767   1.919
80877W        W50692  24.674  44.337   0.378
80878W        W50693   6.907  13.262   1.379
80879W        W50694   9.327  32.098   1.338
80880W        W50695   7.771  29.015   3.165
80881W        W50696  32.459  31.484   1.292
80882W        W50697  38.004  14.112   3.849
80883W        W50698  16.705  26.966   4.667
80884W        W50699  29.983   9.821   1.332
80885W        W50700  38.327  13.786  10.980
80886W        W50701  30.163  39.440   3.329
80887W        W50702  15.800  16.758   5.186
80888W        W50703  23.141  44.835  10.473
80889W        W50704   4.717  41.824  10.564
80890W        W50705  23.012  21.672  13.543
80891W        W50706  19.044  27.185  14.459
80892W        W50707  43.472  36.445   4.732
80893W        W50708  35.024  17.300   3.367
80894W        W50709  22.594  16.667   3.342
80895W        W50710  24.636   5.258   1.450
80896W        W50711  30.657   7.263  11.106
80897W        W50712  36.961   1.306  12.974
80898W        W50713  37.408  37.347  13.856
80899W        W50714   6.245  29.489   3.314
80900W        W50715  28.592   2.438  13.404
80901W        W50716  14.752  43.371   1.805
80902W        W50717   9.394  29.103   1.847
80903W        W50718  13.644  15.119   1.336
80904W        W50719  38.918   3.222   2.745
80905W        W50720  43.954  11.742  13.791
80906W        W50721  35.987  22.555   5.300
80907W        W50722  18.705  38.426  13.511
80908W        W50723  40.310  22.195  13.900
80909W        W50724  32.500  12.208   0.293
80910W        W50725  27.156  23.633   5.125
80911W        W50726  40.037   7.791   4.654
80912W        W50727  39.552   1.867  13.458
80913W        W50728  15.174   2.830   4.122
80914W        W50729  20.758  38.851   3.777
80915W        W50730  16.643  21.236   4.740
80916W        W50731  14.649   8.771   0.379
80917W        W50732   8.885  17.295   5.262
80918W        W50733  23.155  40.979  14.981
80919W        W50734  36.577  28.094   3.859
80920W        W50735  44.811  37.948   4.121
80921W        W50736  40.448   9.781  12.874
80922W        W50737  25.994  23.551  10.462
80923W        W50738  11.831  40.979  10.949
80924W        W50739   0.457  33.044  13.435
80925W        W50740  32.109  37.412  11.943
80926W        W50741  20.183  20.068  14.772
80927W        W50742  38.014  11.274  13.523
80928W        W50743  11.262  11.259   1.448
80929W        W50744   3.268  17.696  14.916
80930W        W50745  26.079  21.034   0.434
80931W        W50746   5.789  27.682   2.347
80932W        W50747  20.144  25.595   3.262
80933W        W50748  40.406  18.112   5.129
80934W        W50749  12.719  44.782  10.417
80935W        W50750  40.964  11.179  12.447
80936W        W50751   5.404  37.366  12.498
80937W        W50752  43.351  23.179  13.396
80938W        W50753  38.379  25.486  12.433
80939W        W50754   5.867  34.419   1.723
80940W        W50755  13.701  37.379   4.726
80941W        W50756  28.951  20.215   4.179
80942W        W50757  32.976   7.802  10.525
80943W        W50758  17.677  27.645  12.999
80944W        W50759  41.962   5.258  14.011
80945W        W50760  28.625   9.173   1.368
80946W        W50761  22.059  14.233   0.736
80947W        W50762   8.699  12.796   2.363
80948W        W50763   9.354  40.894  11.532
80949W        W50764  19.570   2.967   0.785
80950W        W50765  22.704  22.656   0.923
80951W        W50766  25.140  18.714  13.415
80952W        W50767  11.653  30.948  10.908
80953W        W50768   5.861  19.073  11.493
80954W        W50769   2.447  41.367   3.756
80955W        W50770  24.977   5.764  12.946
80956W        W50771  21.672  13.717   3.194
80957W        W50772  11.820  44.400  14.854
80958W        W50773  35.471  31.140  13.002
80959W        W50774  26.960  33.459  14.883
80960W        W50775   8.657  26.463   3.711
80961W        W50776  22.737  22.175   4.303
80962W        W50777  34.443  20.669  11.106
80963W        W50778  28.473   0.366   4.815
80964W        W50779  13.676   4.369   2.780
80965W        W50780  21.028   6.875  12.562
80966W        W50781   8.290   8.289   1.297
80967W        W50782  28.067   4.308   3.746
80968W        W50783  35.915   9.674  10.939
80969W        W50784  19.761   5.777  12.042
80970W        W50785  35.491  32.538  13.318
80971W        W50786  35.448  22.102  12.497
80972W        W50787   4.215  43.777  14.478
80973W        W50788  36.533  35.035   2.837
80974W        W50789  26.003   7.223  12.402
80975W        W50790  36.859  25.147   0.786
80976W        W50791  24.150  16.617  11.948
80977W        W50792   1.436  44.943   0.756
80978W        W50793  32.904   9.817  13.413
80979W        W50794  21.723   1.446   3.664
80980W        W50795  24.598  23.645  14.409
80981W        W50796  43.000  18.644   3.695
80982W        W50797  29.157  41.336   0.335
80983W        W50798  39.550   2.338  10.981
80984W        W50799   2.361   8.379   3.734
80985W        W50800  20.541  29.035  11.417
80986W        W50801  22.099  44.962  10.066
80987W        W50802   5.770  25.659   2.316
80988W        W50803  31.097  19.240   2.193
80989W        W50804  18.284   9.843  10.971
80990W        W50805  26.209   9.242   2.746
80991W        W50806  28.929   1.738   1.258
80992W        W50807  24.136   0.853  13.901
80993W        W50808  20.698  18.613  12.891
80994W        W50809   4.800  37.039   3.849
80995W        W50810  26.628  25.050  12.524
80996W        W50811  22.241  25.697   2.370
80997W        W50812   0.430  25.036   0.831
80998W        W50813  35.883  37.574   5.298
80999W        W50814  11.218  40.032  12.386
81000W        W50815  35.577   9.245  12.383
81001W        W50816  38.443  18.625   3.859
81002W        W50817  18.242   0.273   1.333
81003W        W50818  14.219  10.230  14.451
81004W        W50819  40.397  17.253  13.497
81005W        W50820  29.068   7.883   4.328
81006W        W50821  44.779   8.666   2.863
81007W        W50822   1.840   3.346   0.311
81008W        W50823  36.938   3.448   2.677
81009W        W50824  29.029   6.883  14.965
81010W        W50825  13.250  39.039   0.951
81011W        W50826  32.140  35.883   2.377
81012W        W50827  25.479   3.723   0.751
81013W        W50828  40.017   6.406   3.750
81014W        W50829  26.970  22.556   4.674
81015W        W50830  20.219  42.455  11.389
81016W        W50831  40.306  31.099   0.452
81017W        W50832   7.786  12.658  11.378
81018W        W50833  13.146   1.783  11.933
81019W        W50834  16.652  36.911  10.959
81020W        W50835  21.095  25.090   2.790
81021W        W50836  13.663  40.897   4.328
81022W        W50837  18.645  10.354  13.055
81023W        W50838  35.008  21.611   1.750
81024W        W50839  24.680  12.174   0.868
81025W        W50840  38.538  18.128   2.337
81026W        W50841  36.502  39.911   2.663
81027W        W50842  36.076   8.200   4.645
81028W        W50843  42.281  19.238   4.352
81029W        W50844  41.467  10.350   0.828
81030W        W50845   8.307  11.765   2.804
81031W        W50846   3.950  20.142  12.501
81032W        W50847  32.049   9.726   2.227
81033W        W50848   6.757  30.634  12.502
81034W        W50849   8.361  26.667  13.945
81035W        W50850  16.585  35.108   2.385
81036W        W50851  26.686   1.898  14.022
81037W        W50852  10.375   8.677  14.394
81038W        W50853   3.374  24.149   0.367
81039W        W50854  40.878  17.721   3.846
81040W        W50855  29.070  30.047  13.485
81041W        W50856  40.361  39.515   1.770
81042W        W50857   6.778  22.683  11.113
81043W        W50858  29.541  31.099   4.207
81044W        W50859  24.536  43.912   2.820
81045W        W50860  15.783  35.100   0.737
81046W        W50861  43.954  30.002   2.305
81047W        W50862  29.103  28.650   4.788
81048W        W50863  31.027  38.497  14.768
81049W        W50864  16.289   2.287  12.065
81050W        W50865  22.021   3.243  14.468
81051W        W50866  42.329  41.804  13.982
81052W        W50867   9.342   6.415  11.483
81053W        W50868  13.813  17.749   2.412
81054W        W50869  22.110  36.995  11.093
81055W        W50870  39.341  24.997  10.927
81056W        W50871   6.831  18.077  12.432
81057W        W50872  40.950  25.702   4.216
81058W        W50873  31.463  43.382   2.876
81059W        W50874  18.107  30.984   2.827
81060W        W50875  40.542   3.405  10.106
81061W        W50876  44.267  44.917  13.030
81062W        W50877  14.617  28.632   3.262
81063W        W50878  13.607  15.653  13.823
81064W        W50879   2.271  36.502   3.203
81065W        W50880  10.743   1.259   2.225
81066W        W50881   3.938  21.259  10.001
81067W        W50882  11.224  30.500   2.715
81068W        W50883  13.780  12.643  14.760
81069W        W50884  22.178  28.979   3.657
81070W        W50885  33.960  17.138   3.836
81071W        W50886  17.762  12.297  13.848
81072W        W50887   9.393   0.353   2.736
81073W        W50888  35.904  16.250  12.977
81074W        W50889  33.991  31.581   3.260
81075W        W50890  23.730  23.655  14.987
81076W        W50891  29.436  22.636   3.384
81077W        W50892  24.546  37.424  10.149
81078W        W50893  10.276   0.270  10.545
81079W        W50894  44.902  24.590   1.837
81080W        W50895  22.064  15.306  12.020
81081W        W50896  28.995  44.951  13.026
81082W        W50897  34.382  23.726  10.577
81083W        W50898  18.678  27.117   3.773
81084W        W50899  18.201  31.009  13.341
81085W        W50900  32.541  15.260   0.799
81086W        W50901   7.375  34.474   0.808
81087W        W50902  25.975  30.566   0.481
81088W        W50903  29.106  17.785  12.442
81089W        W50904  44.879  10.790   0.942
81090W        W50905  35.987   2.310  14.938
81091W        W50906  35.384   0.982  14.416
81092W        W50907  23.999   9.649   2.365
81093W        W50908  15.277  43.765  13.942
81094W        W50909  12.244   5.335   4.275
81095W        W50910  26.177   5.356  13.412
81096W        W50911   9.390  31.088  11.511
81097W        W50912   3.386  20.533   4.610
81098W        W50913  44.903  30.513   2.681
81099W        W50914   8.757  13.126   2.896
81100W        W50915   8.391  35.055  13.003
81101W        W50916   9.163  26.521   2.350
81102W        W50917  17.104   5.251  12.062
81103W        W50918  26.013  30.527  10.971
81104W        W50919  21.170  35.014  11.407
81105W        W50920  33.067  14.830  14.996
81106W        W50921   3.828  29.642  12.088
81107W        W50922   2.289  27.976   3.752
81108W        W50923  31.008  10.805   2.896
81109W        W50924  31.600  41.503   3.170
81110W        W50925  32.498  29.530   4.257
81111W        W50926  16.084  35.899  14.393
81112W        W50927  33.964  31.936   3.252
81113W        W50928  41.474  14.141   2.676
81114W        W50929  34.601  34.083   1.351
81115W        W50930  10.324  24.123  10.532
81116W        W50931  38.071  13.724   1.289
81117W        W50932   0.982  22.133   4.319
81118W        W50933   0.973  43.783  13.924
81119W        W50934  39.394  33.427  11.496
81120W        W50935   4.359   2.398   3.196
81121W        W50936  41.980  39.059  11.062
81122W        W50937  21.217  39.848  13.952
81123W        W50938  37.883  32.009  10.977
81124W        W50939  39.478  26.633  12.472
81125W        W50940   7.727  11.199   0.255
81126W        W50941  30.494  37.022  14.417
81127W        W50942   1.393   6.812  12.373
81128W        W50943  25.512  24.150  11.918
81129W        W50944   2.840  28.053  14.478
81130W        W50945  13.214   2.919  11.942
81131W        W50946   6.427  18.134   3.647
81132W        W50947  32.408  43.945   3.754
81133W        W50948  28.068  13.682   4.804
81134W        W50949  33.495   0.409  14.495
81135W        W50950  10.374  19.574  13.343
81136W        W50951  29.641  24.129   3.635
81137W        W50952  31.543  40.019   0.893
81138W        W50953  34.112   8.330  14.814
81139W        W50954  12.219  27.971  10.451
81140W        W50955  14.243  25.972   3.387
81141W        W50956  33.591  28.666  13.858
81142W        W50957  37.040  42.491   4.654
81143W        W50958  36.972  11.795  14.379
81144W        W50959   8.265   1.465  12.459
81145W        W50960   5.419  42.520  14.971
81146W        W50961  27.511  17.252  11.499
81147W        W50962  42.445  30.572   1.695
81148W        W50963   7.187   2.959   1.878
81149W        W50964  26.487  29.501  11.096
81150W        W50965  19.688  37.832   0.921
81151W        W50966  10.811  10.294  14.945
81152W        W50967  44.433   6.230  10.485
81153W        W50968   9.887   0.282  12.084
81154W        W50969  44.331  28.616   1.287
81155W        W50970   7.792   8.209   3.318
81156W        W50971  34.103  14.265  13.506
81157W        W50972  19.572  10.813   3.797
81158W        W50973  22.522  25.112   5.101
81159W        W50974   1.734  17.135   2.719
81160W        W50975   4.411  13.741  14.308
81161W        W50976  29.448   7.783   4.227
81162W        W50977  11.807  43.821  12.083
81163W        W50978  33.119   9.157  13.379
81164W        W50979  28.052  24.177  10.602
81165W        W50980   5.290  12.682   1.320
81166W        W50981  44.993  13.235   4.757
81167W        W50982   4.383  15.786  13.917
81168W        W50983  34.399  17.123   1.236
81169W        W50984  19.625  15.328  12.508
81170W        W50985  15.252  12.630   0.771
81171W        W50986   2.234   5.919   2.834
81172W        W50987  38.821  23.490  10.994
81173W        W50988  25.106   5.831   2.307
81174W        W50989  38.822  18.165   1.365
81175W        W50990  40.841  37.361  11.062
81176W        W50991  23.729  17.256   9.923
81177W        W50992  24.049  22.566  10.135
81178W        W50993   3.923   1.795  12.892
81179W        W50994   2.798  32.064   0.762
81180W        W50995  13.267  37.372   4.799
81181W        W50996  35.537  15.804  13.337
81182W        W50997  25.003  32.140  12.071
81183W        W50998  29.933  10.352   4.749
81184W        W50999  42.870  15.231  14.776
81185W        W51000  19.723  43.335   0.750
81186W        W51001   8.885   8.701  12.069
81187W        W51002  34.516   7.911  14.877
81188W        W51003   5.292  43.324   2.698
81189W        W51004  12.639  10.172   4.759
81190W        W51005  27.147  29.465   3.832
81191W        W51006  24.495  12.640  14.407
81192W        W51007  27.564  22.656   3.781
81193W        W51008  11.281  24.549  12.825
81194W        W51009  15.674  12.782   1.285
81195W        W51010   0.770   6.281  10.907
81196W        W51011  13.173   6.805   1.866
81197W        W51012   9.800  41.835   4.210
81198W        W51013  22.088  31.986  13.997
81199W        W51014  17.062  15.674  13.858
81200W        W51015   4.375  18.623  11.482
81201W        W51016  39.515  10.878   4.796
81202W        W51017  37.487  44.814   1.416
81203W        W51018   0.364   5.736  12.084
81204W        W51019   0.294  26.152  14.982
81205W        W51020  32.414  15.124   0.414
81206W        W51021  27.602   6.685  12.987
81207W        W51022   6.772   1.309  14.349
81208W        W51023   9.290  18.277  13.942
81209W        W51024  38.041  35.092  10.406
81210W        W51025   7.770  38.830   0.927
81211W        W51026   9.149  40.330  10.041
81212W        W51027  22.712  40.048  11.091
81213W        W51028   6.276   1.874  14.902
81214W        W51029  31.564  18.182   4.316
81215W        W51030  36.580  25.051  13.505
81216W        W51031   2.787  35.375  10.595
81217W        W51032  39.933  43.962  13.021
81218W        W51033  38.938  43.273   4.719
81219W        W51034  34.485  34.441  14.011
81220W        W51035  43.287  11.306   2.743
81221W        W51036  24.650  25.589  10.924
81222W        W51037  24.160  40.875  14.765
81223W        W51038  22.093  39.552  10.520
81224W        W51039   7.820  23.720   9.966
81225W        W51040  34.902   4.826  11.454
81226W        W51041   8.232   5.892   4.131
81227W        W51042   8.228  28.940  14.976
81228W        W51043  25.009  19.225  10.407
81229W        W51044  36.564   7.895  13.036
81230W        W51045  29.017  41.445   1.383
81231W        W51046  20.706   4.833   3.266
81232W        W51047  23.605  17.622   0.833
81233W        W51048  44.434  19.283  12.546
81234W        W51049  11.650   4.804   5.145
81235W        W51050  20.691  14.250   0.800
81236W        W51051  38.475  44.488   1.219
81237W        W51052   4.377   5.395   1.250
81238W        W51053   4.273  22.649  14.910
81239W        W51054  16.652  16.615   2.794
81240W        W51055  30.089  14.695   0.964
81241W        W51056  42.932  32.105  12.915
81242W        W51057   0.761   7.682   2.725
81243W        W51058  35.035  38.948   1.729
81244W        W51059  43.370  25.653  12.967
81245W        W51060  14.190   2.904  14.306
81246W        W51061  19.672  22.676  14.983
81247W        W51062  40.031   0.836  11.896
81248W        W51063  10.774  36.350   2.891
81249W        W51064   6.274   1.814   1.812
81250W        W51065   4.438  27.470   3.263
81251W        W51066   0.797  43.512   0.322
81252W        W51067   1.976  17.662  12.848
81253W        W51068  29.949   0.301  11.402
81254W        W51069  16.658  16.241  12.018
81255W        W51070  23.580  32.987  14.031
81256W        W51071  26.626  44.267  11.074
81257W        W51072  10.853  38.936  12.064
81258W        W51073  37.902  11.262  13.816
81259W        W51074  10.359   8.793   2.693
81260W        W51075   0.840  26.572   3.819
81261W        W51076  39.874  36.024   4.274
81262W        W51077   1.968   0.475  12.355
81263W        W51078  40.885  28.473   4.793
81264W        W51079  40.933  44.434  11.046
81265W        W51080  17.121  14.687   2.728
81266W        W51081  41.411  10.828  11.000
81267W        W51082   2.778  42.507   3.835
81268W        W51083  16.662  35.960   4.814
81269W        W51084  32.018   2.284  13.327
81270W        W51085  17.107  39.390  10.553
81271W        W51086  30.044  13.606  14.371
81272W        W51087  19.178  30.599  12.007
81273W        W51088  35.532  33.394   9.578
81274W        W51089  18.271  18.652   4.823
81275W        W51090   7.785  29.504  11.575
81276W        W51091   2.467  20.616  13.450
81277W        W51092  20.646  21.688  10.434
81278W        W51093  20.158  16.600   3.166
81279W        W51094  36.367  31.096  12.448
81280W        W51095  41.828  19.607   1.344
81281W        W51096  13.648  38.526  12.462
81282W        W51097  12.132  15.691  11.445
81283W        W51098  23.239  35.920  11.874
81284W        W51099  27.952   4.330  13.369
81285W        W51100  39.918  29.591  11.432
81286W        W51101  12.302   8.718   1.252
81287W        W51102  30.926  31.562   4.315
81288W        W51103   1.976  40.515  14.446
81289W        W51104  23.560  28.036   2.769
81290W        W51105   8.185  15.703  13.981
81291W        W51106  42.989  34.513   3.673
81292W        W51107  11.289   3.419   0.284
81293W        W51108   9.290  17.693  11.606
81294W        W51109   4.404  16.639  10.617
81295W        W51110  17.289  31.438   0.802
81296W        W51111  22.228  11.729   1.929
81297W        W51112  37.895  34.545  13.446
81298W        W51113  19.653  22.628   2.275
81299W        W51114  27.541  29.631  13.923
81300W        W51115   9.248   5.688   0.314
81301W        W51116  31.148   8.261  10.488
81302W        W51117  31.643  39.410   3.179
81303W        W51118  24.645  23.565  14.920
81304W        W51119  30.001  11.727   4.737
81305W        W51120  40.511  27.160   3.797
81306W        W51121  24.099  32.129  11.113
81307W        W51122  13.210   2.291  14.304
81308W        W51123  32.886  35.401   1.279
81309W        W51124  16.135  31.904   3.203
81310W        W51125  22.659  14.154  14.944
81311W        W51126  31.415  20.648   0.377
81312W        W51127  32.504  11.360   2.842
81313W        W51128  28.657  37.922  11.125
81314W        W51129  12.821   5.340   0.247
81315W        W51130   1.281  26.697   4.612
81316W        W51131   2.807  42.875  13.511
81317W        W51132  26.618  29.078  11.112
81318W        W51133  41.368  22.648   0.443
81319W        W51134   4.904  16.238   4.632
81320W        W51135  22.122   1.947  11.606
81321W        W51136  26.004  19.128   1.257
81322W        W51137   0.959  22.195   2.873
81323W        W51138  33.056  13.115  14.476
81324W        W51139   6.741  41.013  11.493
81325W        W51140  42.897  14.633  14.765
81326W        W51141  35.576   8.190   0.299
81327W        W51142   8.877  32.011  12.974
81328W        W51143  35.571  28.508  11.402
81329W        W51144   7.788  15.818   2.212
81330W        W51145  40.027  10.254   1.884
81331W        W51146  27.132  19.098   1.267
81332W        W51147  30.043   4.784   2.873
81333W        W51148  12.825  36.573   1.407
81334W        W51149   3.415   7.908   4.258
81335W        W51150   1.955   2.240   0.355
81336W        W51151  36.562  39.431   4.189
81337W        W51152  10.734  27.469   2.747
81338W        W51153   9.839  32.438  14.877
81339W        W51154  27.191   7.371   2.336
81340W        W51155  36.390  15.200   3.658
81341W        W51156  32.492  38.431   1.441
81342W        W51157   9.332  16.309   1.331
81343W        W51158  14.285   5.736  13.924
81344W        W51159  22.091  34.868   1.721
81345W        W51160  14.093  39.421   3.162
81346W        W51161   9.341  35.450   4.770
81347W        W51162  43.882  27.196  10.634
81348W        W51163  44.864  24.634  14.826
81349W        W51164  43.857  40.973  13.339
81350W        W51165   8.292   2.917   0.742
81351W        W51166  16.613  40.043   2.740
81352W        W51167  19.701  12.646   1.300
81353W        W51168  40.019  39.383  12.964
81354W        W51169   1.779  24.690   4.814
81355W        W51170  14.786  22.050  12.416
81356W        W51171   0.966  31.522   0.937
81357W        W51172  39.463  10.322   4.706
81358W        W51173  19.753  34.574  13.308
81359W        W51174  31.447   7.701   1.434
81360W        W51175  11.816   1.950   0.382
81361W        W51176  20.679   3.896   3.385
81362W        W51177   9.243  32.514   2.834
81363W        W51178  42.441  25.484   2.793
81364W        W51179  36.368  15.745  12.832
81365W        W51180  14.821  21.573   1.860
81366W        W51181   7.315  10.203   2.693
81367W        W51182  17.266   8.187  14.311
81368W        W51183  17.104   8.336  10.465
81369W        W51184  33.986  41.301   3.767
81370W        W51185  42.344  10.300  10.636
81371W        W51186  13.257  13.737   4.759
81372W        W51187   1.287  10.868   4.160
81373W        W51188  39.457  17.193  12.941
81374W        W51189  13.167  38.836   2.339
81375W        W51190  14.117  28.134   2.250
81376W        W51191  28.552  36.558  10.433
81377W        W51192   7.902   4.843  10.553
81378W        W51193  37.050   0.916   2.813
81379W        W51194  23.697   9.720   4.788
81380W        W51195  10.851  10.726  14.879
81381W        W51196  31.974  25.075   0.751
81382W        W51197  23.589   6.893   4.151
81383W        W51198  36.449  14.791   3.149
81384W        W51199  29.146  15.822  11.448
81385W        W51200  43.977  10.747   4.781
81386W        W51201   3.819  44.431   1.440
81387W        W51202  19.673  38.007  14.974
81388W        W51203  29.986  36.983   4.334
81389W        W51204   2.311   2.782  13.930
81390W        W51205  36.881  40.983  11.457
81391W        W51206  27.605  32.548  13.449
81392W        W51207  39.408  37.918   1.211
81393W        W51208  28.131  32.918   3.633
81394W        W51209  18.681  18.571  13.912
81395W        W51210  15.816  14.773   2.763
81396W        W51211  36.858  12.716   3.377
81397W        W51212  25.169  33.038   0.459
81398W        W51213  43.883  38.995  12.345
81399W        W51214  10.829  12.753  13.811
81400W        W51215  14.761   8.790  10.572
81401W        W51216   8.339  13.704  11.521
81402W        W51217  40.809  32.903   2.297
81403W        W51218   5.931  24.040   1.850
81404W        W51219  18.608   9.645   2.394
81405W        W51220   0.374  11.246   4.290
81406W        W51221   8.193   5.402   0.916
81407W        W51222   5.199  44.342   3.154
81408W        W51223  35.016  18.066  10.023
81409W        W51224  42.884   0.835  12.869
81410W        W51225  21.179  12.788   4.339
81411W        W51226  30.610   4.718   2.366
81412W        W51227   1.934  14.753   0.448
81413W        W51228   1.834  19.043   2.384
81414W        W51229  12.230  18.736  10.411
81415W        W51230  25.210  31.968  12.362
81416W        W51231   6.920  11.189   2.788
81417W        W51232  41.347  40.923  10.441
81418W        W51233  19.712  17.168   3.739
81419W        W51234  18.659  32.528  10.546
81420W        W51235  36.480  30.566  10.994
81421W        W51236  25.107  25.635  10.950
81422W        W51237  16.126   2.780  12.979
81423W        W51238  38.329  25.171   1.436
81424W        W51239  29.037  27.053  12.045
81425W        W51240  34.898  38.939   3.159
81426W        W51241  18.176  26.550   3.756
81427W        W51242   4.732  36.468   0.301
81428W        W51243  43.867  34.462  14.367
81429W        W51244  43.795  11.693  13.490
81430W        W51245  39.498  13.670   1.266
81431W        W51246  24.551  37.844   1.351
81432W        W51247  10.204   2.460  12.490
81433W        W51248   9.803  27.650  12.839
81434W        W51249  29.423  39.013  14.902
81435W        W51250  28.009  39.385  13.472
81436W        W51251  44.829  11.207  13.021
81437W        W51252  42.957  35.569  12.512
81438W        W51253  30.586  39.912   3.243
81439W        W51254  44.827  26.183   0.916
81440W        W51255  34.869  23.228   3.384
81441W        W51256  25.038  33.418   3.813
81442W        W51257   1.766  12.718  13.343
81443W        W51258  34.047  18.055  11.856
81444W        W51259   7.839  31.027  14.976
81445W        W51260  33.887  24.022  10.607
81446W        W51261  27.191  16.679  12.996
81447W        W51262  12.315  15.122   1.390
81448W        W51263  39.905  17.155   2.666
81449W        W51264  19.168   3.459  14.490
81450W        W51265  44.925   8.380  13.358
81451W        W51266  33.507  33.510  14.934
81452W        W51267  20.668  36.524   1.327
81453W        W51268  27.112   0.441   1.445
81454W        W51269  12.815  28.961  11.491
81455W        W51270  20.174  21.689   4.244
81456W        W51271   8.200  23.535  11.540
81457W        W51272  18.137  10.808   4.302
81458W        W51273  21.585  18.209   2.761
81459W        W51274  41.495  14.765  14.371
81460W        W51275  20.764  12.667  11.451
81461W        W51276  38.433  31.608  13.887
81462W        W51277   3.324   1.928  14.400
81463W        W51278  18.147  36.379   2.197
81464W        W51279   1.351  18.562   4.697
81465W        W51280  43.482  43.408   4.142
81466W        W51281  14.603  37.469  14.903
81467W        W51282  35.026  37.369   1.843
81468W        W51283  44.830  44.766   1.255
81469W        W51284  39.318  27.138   0.382
81470W        W51285   9.238   4.246   1.780
81471W        W51286  18.681  18.120   2.207
81472W        W51287  20.712  13.326  10.521
81473W        W51288  22.543  22.557   1.922
81474W        W51289  41.441   4.211  13.472
81475W        W51290  32.413  33.480   4.187
81476W        W51291  35.504  35.379   0.272
81477W        W51292  43.302  43.287  11.379
81478W        W51293  13.772   5.768   0.958
81479W        W51294  35.854  26.953  14.980
81480W        W51295  18.661  10.701   4.243
81481W        W51296  24.681  32.531  11.384
81482W        W51297  43.499  33.078   0.886
81483W        W51298  25.002   7.235   2.344
81484W        W51299   2.282   0.280   0.327
81485W        W51300  34.541  10.251  10.980
81486W        W51301  35.530  11.325  11.981
81487W        W51302  30.614  24.076  13.429
81488W        W51303  32.632  33.116   4.639
81489W        W51304  41.329   2.834  14.352
81490W        W51305  43.984   9.309  14.381
81491W        W51306  20.207  36.948   0.362
81492W        W51307  29.585  38.053   1.716
81493W        W51308  25.700  34.041   4.162
81494W        W51309   7.682  43.367   3.333
81495W        W51310  31.107  28.458   3.146
81496W        W51311   5.821  11.187   3.385
81497W        W51312  38.075   7.350  13.918
81498W        W51313  27.157  34.965   1.448
81499W        W51314  11.793  20.070   1.371
81500W        W51315   2.737  22.119  12.419
81501W        W51316   7.813  37.537   2.185
81502W        W51317  31.109   9.363  14.286
81503W        W51318   5.368  43.378  12.397
81504W        W51319  29.039  21.135   3.213
81505W        W51320   6.199  12.278   3.266
81506W        W51321  21.069  28.181   2.727
81507W        W51322   3.448  34.017  13.793
81508W        W51323  40.030  44.986  12.983
81509W        W51324  11.249  11.794   1.399
81510W        W51325  20.587   6.808   1.785
81511W        W51326   5.752  20.656  12.067
81512W        W51327  22.507  14.138   2.831
81513W        W51328  10.805  12.625   4.736
81514W        W51329  19.256  11.788  10.953
81515W        W51330   3.828  43.306  12.564
81516W        W51331   3.310  23.069  12.362
81517W        W51332   2.916  25.019   2.887
81518W        W51333  22.563  42.374  10.904
81519W        W51334  10.768   3.782   2.711
81520W        W51335   9.256  19.777   5.196
81521W        W51336  33.890  38.458  12.505
81522W        W51337  26.640  41.958   3.199
81523W        W51338  14.209  16.686   0.871
81524W        W51339  13.779  40.033   4.694
81525W        W51340  24.994  41.300  13.956
81526W        W51341  16.256  22.996  10.441
81527W        W51342  30.543   1.242   2.828
81528W        W51343  33.903  19.569   4.605
81529W        W51344  42.838  31.134  10.616
81530W        W51345  10.363  32.419  12.904
81531W        W51346  20.262  27.972  11.607
81532W        W51347  11.135  11.242   3.768
81533W        W51348  22.549  42.917   1.266
81534W        W51349  44.274  25.177  13.792
81535W        W51350   4.262   6.270  11.950
81536W        W51351  39.967   4.876  14.941
81537W        W51352  34.444  29.046  11.871
81538W        W51353  40.310  26.117  13.905
81539W        W51354  27.675   2.771  13.408
81540W        W51355  24.140  19.112  12.062
81541W        W51356   6.733  15.819  11.420
81542W        W51357  37.567  29.090   4.838
81543W        W51358   5.209  34.486   0.733
81544W        W51359  32.091  21.130   0.448
81545W        W51360  24.983  32.449   2.743
81546W        W51361   9.242  25.964   1.224
81547W        W51362  41.877  12.139   0.364
81548W        W51363   3.397  39.010  13.029
81549W        W51364  31.112  12.816   4.184
81550W        W51365  16.296  34.387   0.430
81551W        W51366  33.079   8.830  13.407
81552W        W51367  15.756  41.295  13.484
81553W        W51368   7.412  19.618   4.720
81554W        W51369  10.678  13.717   2.243
81555W        W51370  17.106   6.868  13.366
81556W        W51371   1.399  41.482  14.847
81557W        W51372  13.211  28.038  11.421
81558W        W51373   4.233  11.215  10.610
81559W        W51374  38.864   3.390   1.730
81560W        W51375  37.840  27.158   1.698
81561W        W51376  36.554  44.791  11.944
81562W        W51377  25.037  30.459   1.416
81563W        W51378   4.889  41.479   3.193
81564W        W51379  44.927   0.363  14.834
81565W        W51380  43.945  15.280  14.284
81566W        W51381  15.291  34.952  13.825
81567W        W51382   1.739   7.262  13.866
81568W        W51383  44.454  34.051  13.348
81569W        W51384  25.588  28.157  10.921
81570W        W51385  14.225  40.533   5.120
81571W        W51386  37.475  19.730   1.829
81572W        W51387  15.741  10.174  13.961
81573W        W51388  42.506  29.971   1.220
81574W        W51389  24.098  23.599   9.986
81575W        W51390  40.361   9.361  12.913
81576W        W51391  16.176  18.702  11.963
81577W        W51392  11.283   8.263   0.446
81578W        W51393  41.943  16.579   9.498
81579W        W51394  32.562  31.611  12.384
81580W        W51395   7.352  40.804   0.451
81581W        W51396  34.573  28.445  12.008
81582W        W51397  44.439  37.581  11.933
81583W        W51398   9.371  18.579  12.068
81584W        W51399  13.152   2.273  13.806
81585W        W51400   9.190  29.163   0.452
81586W        W51401  34.522  28.570   1.850
81587W        W51402  22.044   8.689  13.792
81588W        W51403  19.156  22.673   3.818
81589W        W51404   3.900   6.349   1.727
81590W        W51405  25.218  41.361  10.431
81591W        W51406  13.197  19.075  13.829
81592W        W51407   6.353   6.407  14.972
81593W        W51408  17.588  16.668   0.301
81594W        W51409  17.588  41.366  11.991
81595W        W51410   3.831  33.379   3.297
81596W        W51411  12.795  40.501  10.587
81597W        W51412  41.469  11.633  10.405
81598W        W51413  40.387  14.664  10.973
81599W        W51414  27.477  24.109  13.863
81600W        W51415  30.532  36.579   1.840
81601W        W51416  20.560  34.067  13.429
81602W        W51417  30.988  13.798   2.823
81603W        W51418  38.881   2.409   3.322
81604W        W51419  15.293   8.829  13.533
81605W        W51420  19.661  18.554  12.965
81606W        W51421  26.571  20.236   2.319
81607W        W51422   0.388   1.411  12.380
81608W        W51423  18.557  44.465  11.392
81609W        W51424  20.674  29.050   1.437
81610W        W51425  42.889  42.996  12.056
81611W        W51426   0.946  22.676  11.984
81612W        W51427   0.941   8.707   4.158
81613W        W51428  10.838  31.148   3.309
81614W        W51429  21.738  15.127   2.292
81615W        W51430  15.155  14.165   1.265
81616W        W51431   6.199  17.633   2.363
81617W        W51432  16.643  38.559   0.445
81618W        W51433  15.292  39.065   3.363
81619W        W51434   6.767  15.216  11.485
81620W        W51435   7.319   7.716   1.700
81621W        W51436  24.677  15.201   2.419
81622W        W51437   8.865  12.205  12.989
81623W        W51438  19.687  39.478  12.021
81624W        W51439  29.571  28.483  12.453
81625W        W51440  43.486  16.709   2.678
81626W        W51441  16.275   0.902   4.204
81627W        W51442  33.600  16.695   4.742
81628W        W51443  33.584  21.527   1.918
81629W        W51444   7.371  16.793  10.586
81630W        W51445   4.249  33.994   4.830
81631W        W51446  19.285  19.622   3.323
81632W        W51447  27.555  30.114  12.440
81633W        W51448  22.706  18.688  13.966
81634W        W51449  22.738  11.166   1.332
81635W        W51450  29.600   6.800   0.747
81636W        W51451   1.344  41.827   3.786
81637W        W51452  44.764  24.218  12.070
81638W        W51453   5.264  38.961   1.847
81639W        W51454  11.261  39.373  13.809
81640W        W51455  26.591  38.864   2.665
81641W        W51456  36.016  17.569  12.953
81642W        W51457  19.569  14.317  13.950
81643W        W51458  35.896  23.003   2.342
81644W        W51459  14.596  31.431   1.272
81645W        W51460  32.426  29.543  14.367
81646W        W51461   2.404   3.437   0.471
81647W        W51462  25.097  33.020   2.365
81648W        W51463   7.675  25.662   4.730
81649W        W51464  36.952  22.744  10.426
81650W        W51465  30.022   6.225   2.240
81651W        W51466   8.747  42.816  14.437
81652W        W51467  11.651   5.697  12.093
81653W        W51468  28.089  33.540   0.422
81654W        W51469  39.520  17.238  11.390
81655W        W51470   4.745   3.804   0.765
81656W        W51471  35.941  22.168  12.370
81657W        W51472   5.712  30.103   0.291
81658W        W51473  40.534  31.902  13.828
81659W        W51474   5.365  26.611   1.234
81660W        W51475   4.274  35.419   0.321
81661W        W51476  41.931  13.784   5.313
81662W        W51477  38.848   0.972  11.576
81663W        W51478  26.520   1.856   0.352
81664W        W51479  30.604  44.958   0.384
81665W        W51480   1.882  12.688   4.336
81666W        W51481   2.380   5.791   0.284
81667W        W51482   5.787  10.753  14.809
81668W        W51483   3.744   4.811   1.384
81669W        W51484  28.069  33.412   5.128
81670W        W51485  44.434  41.493   4.692
81671W        W51486  31.500  26.983   2.257
81672W        W51487   9.185  30.102  13.929
81673W        W51488  14.821  13.827  12.580
81674W        W51489  42.877  16.679   0.325
81675W        W51490   8.784   3.237  11.128
81676W        W51491  15.810  25.094  11.035
81677W        W51492  36.060  22.079  12.969
81678W        W51493  16.766  39.558  13.819
81679W        W51494   0.790   1.366  12.877
81680W        W51495  30.154  43.417   2.665
81681W        W51496   6.219  34.070   0.375
81682W        W51497  17.791  29.011   1.900
81683W        W51498  17.281   0.327   2.178
81684W        W51499   8.200  18.282   2.413
81685W        W51500   7.220  23.201  13.510
81686W        W51501  33.927  15.614  10.451
81687W        W51502  31.932   6.769   3.730
81688W        W51503  42.469  20.188   3.835
81689W        W51504  35.027  34.960  10.437
81690W        W51505  27.530  38.496   1.377
81691W        W51506  33.902  30.498  14.361
81692W        W51507  33.875  39.367  12.578
81693W        W51508  33.928  16.624   1.253
81694W        W51509  28.952  39.491  12.875
81695W        W51510   2.744   5.853  11.988
81696W        W51511  29.605  30.497  12.403
81697W        W51512   0.260  41.507  11.925
81698W        W51513  21.176  12.126   2.291
81699W        W51514  27.090  43.813   1.426
81700W        W51515  11.749  14.245   3.265
81701W        W51516  11.847  38.455   2.807
81702W        W51517  22.022   2.742  12.991
81703W        W51518  28.031  41.469  11.593
81704W        W51519  17.141  23.573   4.626
81705W        W51520  31.972  29.154  12.833
81706W        W51521  31.445  27.066  14.952
81707W        W51522  19.126  17.785  10.626
81708W        W51523   8.205  37.463  11.426
81709W        W51524  10.179  17.281   4.638
81710W        W51525   4.804   5.712  14.829
81711W        W51526  41.993  26.646   3.202
81712W        W51527  42.353  29.150   4.650
81713W        W51528  10.837  20.118   2.355
81714W        W51529  13.184   6.272   0.818
81715W        W51530  27.994  26.964  12.885
81716W        W51531   8.235  36.857  13.025
81717W        W51532  14.789  24.577   0.421
81718W        W51533  25.969  18.206  13.051
81719W        W51534  24.193  36.872  12.524
81720W        W51535  37.363  28.976   2.251
81721W        W51536  27.653   9.812   2.853
81722W        W51537  16.700  19.253  12.406
81723W        W51538  20.082  26.137   3.802
81724W        W51539   1.357  37.963   3.859
81725W        W51540   6.922  16.083   2.683
81726W        W51541  25.133   4.806   3.687
81727W        W51542  15.690   9.327   4.648
81728W        W51543  29.169   3.401   2.895
81729W        W51544  43.826  32.051   1.872
81730W        W51545  28.477   2.796   3.759
81731W        W51546  21.174  24.053   3.852
81732W        W51547   6.916  19.544  11.939
81733W        W51548   5.789  24.031   4.311
81734W        W51549  13.246  27.062  14.495
81735W        W51550  39.861  35.375  10.440
81736W        W51551  23.706  33.119   1.747
81737W        W51552  42.490  27.653   4.647
81738W        W51553   1.781  41.511  10.998
81739W        W51554  27.110  33.004  11.424
81740W        W51555   8.250   7.860   4.199
81741W        W51556   9.161  26.611   3.751
81742W        W51557  23.489   5.837  14.900
81743W        W51558  43.318  22.715  10.449
81744W        W51559  10.340  36.445   0.436
81745W        W51560  39.913   6.912   1.349
81746W        W51561   5.281   0.766  11.943
81747W        W51562  32.416  39.939  13.413
81748W        W51563  35.372  15.126  13.868
81749W        W51564   1.446  30.638  14.413
81750W        W51565   4.290  24.048  14.916
81751W        W51566   7.909  17.783  11.570
81752W        W51567  40.313  23.507  12.373
81753W        W51568  17.301  15.235   4.660
81754W        W51569  15.258  37.499   0.396
81755W        W51570  36.487  21.176   1.823
81756W        W51571  41.020  12.230   4.230
81757W        W51572  30.468  19.704   5.263
81758W        W51573  30.610  34.455   0.731
81759W        W51574  22.130  19.207   2.319
81760W        W51575   5.772  36.056   0.406
81761W        W51576   5.368  40.843   0.893
81762W        W51577   9.191  27.577  11.503
81763W        W51578  39.054  23.049  10.544
81764W        W51579  38.990  27.503   2.844
81765W        W51580  34.966  40.864   1.900
81766W        W51581  37.967   6.865   0.761
81767W        W51582  34.477   5.200  12.416
81768W        W51583   7.210  39.916  12.055
81769W        W51584  19.564  35.861   2.256
81770W        W51585  19.189  24.200   0.758
81771W        W51586   1.850  38.370   2.394
81772W        W51587  15.172  25.691  12.006
81773W        W51588   8.714  34.978  12.889
81774W        W51589   1.920  41.009   4.337
81775W        W51590  25.635  24.061  13.024
81776W        W51591  12.780   1.316   1.698
81777W        W51592  14.124  25.632   1.853
81778W        W51593  35.028  14.766  11.034
81779W        W51594   8.693  18.206   0.319
81780W        W51595  31.409  36.912   2.191
81781W        W51596  39.039   2.378   5.168
81782W        W51597  28.438  19.599  13.841
81783W        W51598  12.651  26.611   0.803
81784W        W51599   0.840  22.701   0.932
81785W        W51600   4.303  23.598   1.901
81786W        W51601  36.928  26.023  10.504
81787W        W51602  31.030  39.857   4.295
81788W        W51603  21.060  14.260   2.715
81789W        W51604  26.515  16.093   2.681
81790W        W51605  30.064   1.922  14.475
81791W        W51606  41.841  32.049   4.617
81792W        W51607  30.160  34.422   1.911
81793W        W51608  40.365  16.217  13.038
81794W        W51609  22.518  22.524  11.542
81795W        W51610  21.188   7.316  13.481
81796W        W51611  31.517  33.091   2.733
81797W        W51612  38.490   5.690   3.189
81798W        W51613  11.789  32.077  11.994
81799W        W51614  12.759  24.523  14.469
81800W        W51615  23.688  19.170   4.204
81801W        W51616  15.261  28.174  13.970
81802W        W51617  32.131   2.260  10.619
81803W        W51618  14.815  40.824   2.333
81804W        W51619  12.745   9.822   3.200
81805W        W51620  32.516  14.773   0.942
81806W        W51621  23.146  40.818   1.699
81807W        W51622  40.493  21.024  10.889
81808W        W51623  11.666  27.985   5.090
81809W        W51624  38.374  31.561   1.883
81810W        W51625  25.112  31.421  11.992
81811W        W51626  41.432  35.905  11.880
81812W        W51627  25.087  40.432  10.630
81813W        W51628   2.903  41.857  14.493
81814W        W51629  35.055  34.110   2.383
81815W        W51630  36.040  27.126  13.356
81816W        W51631  39.422  25.475  13.525
81817W        W51632  38.907  42.367   4.696
81818W        W51633  30.087  15.655   0.321
81819W        W51634  32.445  20.753  12.960
81820W        W51635   3.345  38.489  13.973
81821W        W51636  20.197  34.876   3.363
81822W        W51637   1.413   2.821   3.837
81823W        W51638   9.652  23.644   3.660
81824W        W51639  11.820  24.580  10.905
81825W        W51640   9.313   6.346   3.778
81826W        W51641  25.074  17.129   0.920
81827W        W51642   8.668   0.852   4.615
81828W        W51643   0.392  28.671   3.305
81829W        W51644  36.531  38.475  14.853
81830W        W51645  36.390   0.837  13.406
81831W        W51646  19.715  30.541   2.872
81832W        W51647  38.429  12.721  11.016
81833W        W51648  28.632   8.240   3.754
81834W        W51649   1.302  10.736   0.320
81835W        W51650  28.505  13.211   0.464
81836W        W51651  34.582  21.636   3.638
81837W        W51652  44.315  36.486  12.526
81838W        W51653  43.474  26.016  12.412
81839W        W51654  11.743  12.632   9.981
81840W        W51655  38.955  44.851  13.796
81841W        W51656  18.276  37.544   4.164
81842W        W51657  10.371   4.448  12.065
81843W        W51658   2.245  24.718  11.027
81844W        W51659  18.250  24.621  13.825
81845W        W51660  38.336  21.550  14.462
81846W        W51661  33.379  26.070   3.708
81847W        W51662  44.925  31.115  10.952
81848W        W51663   5.360  39.357  10.976
81849W        W51664  28.999  32.921  13.453
81850W        W51665  31.470  19.253   2.313
81851W        W51666  44.010  36.000  12.453
81852W        W51667   8.344  36.360  12.958
81853W        W51668  38.483   5.358  13.464
81854W        W51669  24.042  26.617  12.023
81855W        W51670   5.922  36.441  14.760
81856W        W51671  43.499  35.485  14.360
81857W        W51672  36.947  33.570  13.899
81858W        W51673  22.571  42.000  13.546
81859W        W51674  14.169   4.778  12.844
81860W        W51675   9.241  23.177   0.782
81861W        W51676  23.672  11.313  14.283
81862W        W51677  32.635   7.669  13.431
81863W        W51678  27.169  24.147  14.381
81864W        W51679  33.536  43.423  14.355
81865W        W51680  13.614  21.540   0.885
81866W        W51681  25.141  22.078   1.441
81867W        W51682  35.058  38.352   2.754
81868W        W51683  43.996  33.065   2.308
81869W        W51684  28.940  30.561   1.287
81870W        W51685  29.945  31.421  12.029
81871W        W51686  41.848  43.943   3.213
81872W        W51687  18.560  26.672   3.264
81873W        W51688   1.241  38.458  12.006
81874W        W51689  35.077   6.254   4.114
81875W        W51690   4.705  19.555   5.116
81876W        W51691  16.121  27.003   1.714
81877W        W51692  34.425   1.473   4.268
81878W        W51693  40.530   7.829   5.248
81879W        W51694   0.879  20.209  12.391
81880W        W51695  42.933  25.693  13.983
81881W        W51696  24.495  17.136   0.313
81882W        W51697   2.770  27.942  13.378
81883W        W51698  31.144   8.188  11.055
81884W        W51699  43.818   3.763  13.966
81885W        W51700  17.662   6.265  13.373
81886W        W51701  11.640  26.612   4.240
81887W        W51702  28.031  27.460  14.939
81888W        W51703  19.574  16.160  14.928
81889W        W51704  37.490  44.944  14.025
81890W        W51705  32.608  32.944   1.757
81891W        W51706  40.855   8.869   0.797
81892W        W51707  24.672  30.485  10.562
81893W        W51708  30.925  36.410   4.642
81894W        W51709   2.935   8.301   1.258
81895W        W51710  26.557  39.507  12.866
81896W        W51711   1.445  35.592   2.874
81897W        W51712  42.894  33.032  11.940
81898W        W51713  20.125   3.364  13.031
81899W        W51714  18.076  43.443  11.914
81900W        W51715  29.054   2.339   1.404
81901W        W51716   0.310  13.823  10.599
81902W        W51717  24.581  21.023   4.131
81903W        W51718  13.647  22.224   1.785
81904W        W51719  30.127  34.055   4.209
81905W        W51720  36.577  30.529  14.333
81906W        W51721  31.465  19.767  10.619
81907W        W51722  20.227   4.432   1.378
81908W        W51723  24.557  23.016   3.763
81909W        W51724   3.882  44.318   0.908
81910W        W51725   2.416  41.299  11.386
81911W        W51726  12.816  30.511  13.834
81912W        W51727  42.917  42.825   2.293
81913W        W51728  30.020  25.140  10.473
81914W        W51729  34.081   8.239   3.309
81915W        W51730   3.391  35.089   0.280
81916W        W51731  42.017   0.428  14.878
81917W        W51732  24.184  15.174  10.959
81918W        W51733  35.890  40.841  10.517
81919W        W51734   7.908  34.553   3.662
81920W        W51735   9.756  26.484  13.519
81921W        W51736  41.937  16.138   2.404
81922W        W51737  15.299  14.644  13.053
81923W        W51738   3.833   5.762  10.136
81924W        W51739  44.996  33.597   3.858
81925W        W51740  39.474   4.715  12.930
81926W        W51741  10.817   4.910  12.873
81927W        W51742   9.872  18.604  13.349
81928W        W51743  41.441  25.567  11.951
81929W        W51744  40.332  12.191   4.759
81930W        W51745   1.765  42.441   0.282
81931W        W51746  32.438  24.622   2.855
81932W        W51747  34.491  37.449   3.300
81933W        W51748  11.251  19.573   4.691
81934W        W51749  40.958   5.413   3.357
81935W        W51750  18.290  29.084  11.525
81936W        W51751   9.271  32.098  13.418
81937W        W51752  25.136  25.998  14.963
81938W        W51753  10.723  17.094  14.990
81939W        W51754  28.495  21.737  14.477
81940W        W51755  33.451  30.051   3.238
81941W        W51756   2.403  37.513  10.965
81942W        W51757  14.760  34.575  13.008
81943W        W51758  28.553  38.064  12.943
81944W        W51759  28.631  33.501   3.822
81945W        W51760   9.305  18.557   3.787
81946W        W51761   6.700  19.112   3.674
81947W        W51762  42.498  15.179   5.207
81948W        W51763  21.056   3.771  13.393
81949W        W51764   9.681  15.264  11.446
81950W        W51765  36.482  16.203  11.899
81951W        W51766  18.669  21.256   3.838
81952W        W51767  18.157  11.285  14.931
81953W        W51768  44.483   3.862   2.663
81954W        W51769   5.281  15.779  14.009
81955W        W51770  43.813  42.866   2.261
81956W        W51771  38.445   9.237   3.359
81957W        W51772  11.730  43.853   3.657
81958W        W51773  26.496   9.851   3.333
81959W        W51774  39.469  17.119   2.724
81960W        W51775   9.285  21.616  13.865
81961W        W51776  30.063  37.414   0.855
81962W        W51777   3.318  36.502   4.677
81963W        W51778  11.830   9.305  12.551
81964W        W51779  10.867  36.535   0.399
81965W        W51780  18.063  23.609  10.564
81966W        W51781  15.624   4.430   2.236
81967W        W51782  13.145  14.321  11.552
81968W        W51783  35.922  31.611  10.910
81969W        W51784  20.712  42.922   1.854
81970W        W51785  13.183  25.087   3.630
81971W        W51786   7.230  29.055  11.597
81972W        W51787  34.580  26.048   3.386
81973W        W51788  31.096  39.049  14.314
81974W        W51789  23.726  19.763   1.348
81975W        W51790  14.229  11.370  10.478
81976W        W51791   4.218   5.437   4.140
81977W        W51792  28.121  38.943  14.990
81978W        W51793   1.929  43.489  13.347
81979W        W51794  38.552  28.557  13.412
81980W        W51795   7.820  34.956  13.323
81981W        W51796  14.279  24.075   1.367
81982W        W51797  36.563  43.796  11.530
81983W        W51798  26.185  42.380   1.308
81984W        W51799  37.846  22.502  11.874
81985W        W51800   2.390  37.395  14.503
81986W        W51801  40.521  26.039   2.260
81987W        W51802  10.344  16.636  14.408
81988W        W51803   1.338  36.457   3.209
81989W        W51804   6.373  25.045  13.866
81990W        W51805  15.670  23.133  10.484
81991W        W51806  32.487  33.948  12.533
81992W        W51807  44.501  16.776  14.871
81993W        W51808  38.862  39.865   3.298
81994W        W51809   6.905   8.233   3.256
81995W        W51810   9.229  39.045  11.104
81996W        W51811   3.713  11.828  14.373
81997W        W51812  10.268   4.784   0.737
81998W        W51813  11.352   6.284   4.807
81999W        W51814  23.035  31.944   1.773
82000W        W51815  33.922  21.084   3.803
82001W        W51816   5.868   6.224  13.418
82002W        W51817  36.877  33.021   0.329
82003W        W51818  31.102  41.997  14.329
82004W        W51819  35.550  13.736  14.021
82005W        W51820  30.514  16.077   4.251
82006W        W51821  34.503   6.229  11.547
82007W        W51822  28.947   7.904   0.917
82008W        W51823  21.619  13.845  14.470
82009W        W51824  35.436  42.800   3.383
82010W        W51825   6.372  38.541  13.942
82011W        W51826  24.974  28.943  11.491
82012W        W51827  40.324   4.880  13.854
82013W        W51828  21.662   0.898  13.847
82014W        W51829   2.798  12.717  10.536
82015W        W51830  15.641  17.090  11.533
82016W        W51831  17.642  29.083   2.795
82017W        W51832  18.163  18.072   0.737
82018W        W51833  16.600  13.313   1.720
82019W        W51834   1.439  17.190  12.972
82020W        W51835  13.616  31.010  13.055
82021W        W51836  36.936   5.384   1.382
82022W        W51837  36.540  22.085  13.313
82023W        W51838  18.585   7.341   3.364
82024W        W51839  11.797  26.509  12.067
82025W        W51840  39.412  34.919  12.027
82026W        W51841  18.178  26.975   0.869
82027W        W51842  28.032  32.443   1.868
82028W        W51843  38.372  19.667   0.843
82029W        W51844  40.827  23.663   0.890
82030W        W51845  40.871  14.606   0.796
82031W        W51846  25.606  31.622  13.033
82032W        W51847  39.830  43.430   1.804
82033W        W51848  16.089   1.948   0.806
82034W        W51849   8.304   5.828   1.381
82035W        W51850   3.300  30.136  14.949
82036W        W51851  41.498  15.705   3.668
82037W        W51852  13.806  35.580   4.756
82038W        W51853  36.083  23.603  11.966
82039W        W51854  34.497  14.690   0.931
82040W        W51855  26.962  32.933  14.899
82041W        W51856  37.970  40.547  12.076
82042W        W51857  24.058  40.408   2.181
82043W        W51858  41.456  12.336   3.158
82044W        W51859  21.602  43.826   2.317
82045W        W51860  18.276  23.713  11.595
82046W        W51861  10.154   0.836  14.488
82047W        W51862  21.711  32.108  11.373
82048W        W51863  23.594  37.023  14.463
82049W        W51864  34.486  26.695  11.058
82050W        W51865  30.936  17.156   4.143
82051W        W51866  30.554  38.826   0.333
82052W        W51867  10.862  28.942   2.363
82053W        W51868  41.343  11.629   0.388
82054W        W51869  25.203   9.354  12.902
82055W        W51870   0.786   9.329   1.865
82056W        W51871  43.365  22.132  14.029
82057W        W51872  35.359   4.923   2.866
82058W        W51873  38.538  22.593   4.253
82059W        W51874  44.989  33.080  13.420
82060W        W51875   6.229  22.504   3.720
82061W        W51876   0.804  30.417   4.670
82062W        W51877  20.688  10.751   0.428
82063W        W51878  25.704  16.303   1.777
82064W        W51879  16.584   6.893  12.022
82065W        W51880  28.528   6.218   4.734
82066W        W51881  23.177  14.239  10.617
82067W        W51882   9.197  17.111   3.729
82068W        W51883  13.207  40.868   4.755
82069W        W51884  15.812  41.991  14.781
82070W        W51885  37.577   7.312   1.259
82071W        W51886  39.952  11.751  14.840
82072W        W51887   7.190  13.337  11.442
82073W        W51888  43.374  44.486  10.063
82074W        W51889  10.684  34.899  11.080
82075W        W51890  15.297  33.079   1.720
82076W        W51891   2.815  19.275  10.475
82077W        W51892   6.813  28.939  11.418
82078W        W51893  21.705  13.626  11.981
82079W        W51894  32.046  14.812  12.377
82080W        W51895  34.909  17.642   1.729
82081W        W51896   4.719   8.182  12.523
82082W        W51897   9.338  42.460   3.317
82083W        W51898  15.762   5.907  14.872
82084W        W51899   5.429   3.882  11.440
82085W        W51900  38.931  39.461   3.217
82086W        W51901   7.291   6.869  14.946
82087W        W51902  43.960  37.493   0.272
82088W        W51903  41.011  16.699   3.863
82089W        W51904  32.611  12.217   2.804
82090W        W51905  11.155  27.593   4.191
82091W        W51906  12.653  42.465   3.386
82092W        W51907  32.398  23.986   4.320
82093W        W51908  32.565   7.796   0.815
82094W        W51909   0.250   9.166   1.369
82095W        W51910  37.564  11.353   2.204
82096W        W51911  22.519  13.637   2.688
82097W        W51912  23.170  27.657   3.240
82098W        W51913   3.882  28.539  13.505
82099W        W51914  15.589  35.464  12.368
82100W        W51915   2.442  41.878  11.398
82101W        W51916  14.677  22.653   2.332
82102W        W51917  10.795   5.300  10.616
82103W        W51918  17.719  16.774   1.314
82104W        W51919  31.023  29.569   3.243
82105W        W51920   7.395   6.707   1.740
82106W        W51921   8.321  37.345  10.912
82107W        W51922  26.472  38.074   5.140
82108W        W51923   0.341  24.214   2.371
82109W        W51924  44.317  39.402   1.696
82110W        W51925  28.080  32.068  11.562
82111W        W51926  40.041  22.522  14.479
82112W        W51927  25.147  33.886   4.216
82113W        W51928  34.504  37.352   1.308
82114W        W51929   3.278  11.675   0.932
82115W        W51930  32.478  21.085   2.853
82116W        W51931  31.615   2.796   0.373
82117W        W51932  35.438   9.386   1.405
82118W        W51933   3.267   4.936   1.403
82119W        W51934  11.359  18.614  13.390
82120W        W51935  17.258  22.193  14.452
82121W        W51936  33.966   7.819   0.806
82122W        W51937  12.164   2.445   3.760
82123W        W51938  33.064  39.858  14.913
82124W        W51939  20.759   0.914   0.920
82125W        W51940  14.337  28.637  14.958
82126W        W51941   8.850  23.126   2.674
82127W        W51942  39.866  39.532  11.414
82128W        W51943  30.507  14.631   2.330
82129W        W51944  37.015  20.199  10.939
82130W        W51945  36.851   4.750   5.237
82131W        W51946   8.342  20.221   3.340
82132W        W51947   7.273  30.159  10.591
82133W        W51948  42.929  19.636   1.697
82134W        W51949   0.378   8.298  12.466
82135W        W51950  35.493  18.168  13.466
82136W        W51951  11.343  35.455  14.027
82137W        W51952  10.778  26.105  14.768
82138W        W51953  33.876  36.437  13.433
82139W        W51954   8.802  18.087   1.411
82140W        W51955  23.154  18.584   4.777
82141W        W51956  33.110  10.357   0.869
82142W        W51957  37.015  30.652  14.968
82143W        W51958   5.829  29.110  13.319
82144W        W51959   6.256  24.182   1.705
82145W        W51960  39.436  21.541   1.858
82146W        W51961  26.958  29.496  11.912
82147W        W51962  44.259  19.650  11.478
82148W        W51963  36.525  17.642   3.812
82149W        W51964  30.527   2.458   3.726
82150W        W51965  10.843  31.911  14.969
82151W        W51966  24.088  19.668  10.061
82152W        W51967   2.271  14.794   0.351
82153W        W51968  19.775  34.593   2.360
82154W        W51969  43.844  13.606  10.423
82155W        W51970  33.522  14.768  12.828
82156W        W51971  16.573   6.905  12.514
82157W        W51972  13.824  28.029   3.825
82158W        W51973  18.242  16.232   1.247
82159W        W51974  24.576  23.663  10.631
82160W        W51975  19.575  20.705  13.365
82161W        W51976  20.605  32.107   3.195
82162W        W51977   1.865  28.500  11.420
82163W        W51978  23.619  24.545  13.490
82164W        W51979   2.384   5.268   1.451
82165W        W51980   7.670  30.083  12.874
82166W        W51981  25.149  28.966  12.528
82167W        W51982  28.936  29.135   4.342
82168W        W51983  37.926   0.412  12.838
82169W        W51984  25.185  19.158  14.783
82170W        W51985  24.665  42.400   3.351
82171W        W51986  25.490  27.521  11.516
82172W        W51987  18.587  19.752  14.004
82173W        W51988  43.287  15.219   0.868
82174W        W51989  12.153   0.936  11.987
82175W        W51990  31.952  21.171   1.725
82176W        W51991   6.232  14.647  13.900
82177W        W51992  28.449   3.889   3.756
82178W        W51993  29.037  32.906   4.115
82179W        W51994  25.160  10.657  10.602
82180W        W51995  13.637   3.886  12.021
82181W        W51996  36.976   3.876  13.473
82182W        W51997  22.172  40.887   1.280
82183W        W51998  44.753  19.131   2.253
82184W        W51999  19.605   9.385  12.947
82185W        W52000  38.050  25.521   1.258
82186W        W52001  35.945  33.003  11.516
82187W        W52002  13.675  43.804  12.534
82188W        W52003   2.919   5.854   4.233
82189W        W52004  38.897  28.007   3.630
82190W        W52005   3.326  35.443   3.701
82191W        W52006  17.648  14.730   0.806
82192W        W52007  20.076  24.597  13.520
82193W        W52008  35.403   3.739  11.419
82194W        W52009  21.699  41.490   2.793
82195W        W52010   0.827  35.034   1.232
82196W        W52011  24.035  21.257  12.442
82197W        W52012  43.357  43.384   2.763
82198W        W52013  34.420   4.842   0.312
82199W        W52014  16.215  15.144  12.905
82200W        W52015  14.667   9.704  12.996
82201W        W52016  25.711  32.142  10.597
82202W        W52017  30.981   9.243   1.854
82203W        W52018  37.003  35.975   4.268
82204W        W52019   7.767  34.417  12.088
82205W        W52020  35.368  28.492  14.368
82206W        W52021  43.892   3.892   1.931
82207W        W52022   8.268  12.120   2.296
82208W        W52023  41.404   6.316   0.776
82209W        W52024  22.148  39.019  12.503
82210W        W52025  43.327  28.566   3.317
82211W        W52026  27.123  41.403  12.879
82212W        W52027  13.192  32.503   4.230
82213W        W52028   2.870  21.676  13.837
82214W        W52029  10.794  30.538   1.424
82215W        W52030   4.715  24.603   3.237
82216W        W52031  15.776  22.154   4.740
82217W        W52032  39.893  43.947   0.776
82218W        W52033  29.551   4.803  10.910
82219W        W52034  31.098   8.327   1.347
82220W        W52035   5.853  23.153   2.717
82221W        W52036   7.327  25.605   1.786
82222W        W52037  31.953  35.020  12.388
82223W        W52038   1.934   7.176   2.181
82224W        W52039  16.247  38.330   1.250
82225W        W52040  25.204   0.337  12.568
82226W        W52041  10.289   7.753   3.733
82227W        W52042  11.856  42.882  12.983
82228W        W52043  42.474  30.649  12.422
82229W        W52044  36.096  31.073   2.845
82230W        W52045  15.089  21.193  11.004
82231W        W52046   9.798   5.234   1.740
82232W        W52047  21.574  14.274  11.547
82233W        W52048  44.500  35.024   3.726
82234W        W52049  28.627  42.494  12.413
82235W        W52050   8.886   1.945  12.062
82236W        W52051   6.265  16.174   1.805
82237W        W52052   1.377  37.558  11.007
82238W        W52053  13.186  34.441   2.304
82239W        W52054  38.415  37.383   3.854
82240W        W52055  29.491  38.858  13.968
82241W        W52056   4.829  20.169  11.547
82242W        W52057   5.247  12.166  13.940
82243W        W52058  18.212   8.321   3.754
82244W        W52059  16.739  28.583  10.914
82245W        W52060  43.319  29.476  10.593
82246W        W52061  21.101   5.406  12.948
82247W        W52062  37.996  14.754  14.921
82248W        W52063  21.185  22.571   0.378
82249W        W52064  10.214  19.661  10.090
82250W        W52065  41.447  31.003  14.946
82251W        W52066  33.585  28.072  10.149
82252W        W52067   7.402  20.568   1.807
82253W        W52068  11.686  39.060  11.530
82254W        W52069  40.520  14.669  13.825
82255W        W52070  26.003  13.823  14.022
82256W        W52071  32.484  33.467  13.983
82257W        W52072  33.602  31.540  11.924
82258W        W52073   6.715  13.794  11.989
82259W        W52074  31.082  17.238   9.970
82260W        W52075  28.130  29.631   4.196
82261W        W52076  40.529  18.724   4.685
82262W        W52077   0.795  13.186   4.737
82263W        W52078   6.404   4.938   0.896
82264W        W52079  14.132  22.159  10.953
82265W        W52080  23.031   4.934   1.801
82266W        W52081  44.452  23.038   2.275
82267W        W52082  12.123  44.311   3.712
82268W        W52083  22.727  22.668   3.734
82269W        W52084  38.343  18.154  13.981
82270W        W52085  24.569  19.622  13.377
82271W        W52086  41.394   0.748  14.875
82272W        W52087  28.517  10.817  14.833
82273W        W52088  24.591  43.914  11.447
82274W        W52089  23.571  19.091  11.895
82275W        W52090  28.981  17.064   3.736
82276W        W52091  13.149  42.284   4.294
82277W        W52092  41.502  23.156  14.979
82278W        W52093  38.529  32.929   0.470
82279W        W52094  17.566  36.521   0.950
82280W        W52095   0.361  12.855  10.919
82281W        W52096  36.860  18.739  14.881
82282W        W52097  23.724  29.517  14.957
82283W        W52098  31.606  33.590   1.310
82284W        W52099  41.522  43.907  13.022
82285W        W52100   6.774  16.148  11.378
82286W        W52101  43.470  30.594   1.229
82287W        W52102   6.208  14.095   1.887
82288W        W52103   7.288  24.695  10.518
82289W        W52104   6.326  15.265   4.658
82290W        W52105  26.188  22.223  14.876
82291W        W52106   3.296   3.813  12.515
82292W        W52107  39.476   5.782  11.894
82293W        W52108  43.426  12.644  12.833
82294W        W52109  22.119  13.722   0.958
82295W        W52110   9.292   3.882  14.945
82296W        W52111  24.620  43.776   2.370
82297W        W52112   1.870  35.033   3.682
82298W        W52113  33.922  21.245   0.849
82299W        W52114  29.128  35.443   4.628
82300W        W52115  17.588   5.847  12.896
82301W        W52116   2.908  28.960  11.400
82302W        W52117  28.505  13.664   0.830
82303W        W52118   2.769   1.738  13.357
82304W        W52119  39.467  23.493  12.985
82305W        W52120  43.809   1.782  11.597
82306W        W52121  24.493  17.764  13.523
82307W        W52122  19.064  27.970  14.311
82308W        W52123   4.852  41.398  10.005
82309W        W52124  33.555  33.943  13.831
82310W        W52125  10.238  23.207  14.798
82311W        W52126  16.307  36.532   2.318
82312W        W52127  16.231  36.084   0.384
82313W        W52128  12.736  34.070   3.380
82314W        W52129  29.043  21.237   3.763
82315W        W52130  29.954   1.453  11.607
82316W        W52131  18.684   6.816  11.051
82317W        W52132  25.033  27.062  11.918
82318W        W52133  16.278  31.638  13.887
82319W        W52134  27.187   9.308  12.398
82320W        W52135  31.501  38.953   2.700
82321W        W52136  27.632  30.567   4.672
82322W        W52137  33.935  42.314   4.644
82323W        W52138   0.783  41.381   0.404
82324W        W52139  20.258  30.618   1.233
82325W        W52140  42.883  39.855  11.938
82326W        W52141  14.232  22.532  14.873
82327W        W52142  17.065  28.045  11.379
82328W        W52143  36.497  12.700   9.932
82329W        W52144  38.858  11.336  11.901
82330W        W52145   1.771  28.444  10.527
82331W        W52146  31.914  29.137   0.942
82332W        W52147  28.001  31.648   1.876
82333W        W52148  39.045   7.864   2.755
82334W        W52149  33.907   9.348  10.642
82335W        W52150  23.623  18.171  10.619
82336W        W52151  44.350  33.111  13.848
82337W        W52152  22.656   5.704   0.870
82338W        W52153  22.223  42.960   1.926
82339W        W52154  14.248  14.648  14.333
82340W        W52155  21.047  39.054  12.944
82341W        W52156  38.341  16.233  14.513
82342W        W52157  27.560   2.267  10.436
82343W        W52158  29.051   4.206   4.251
82344W        W52159  10.773  23.548  13.799
82345W        W52160  40.379  16.650   4.745
82346W        W52161  21.244   7.677  13.463
82347W        W52162  36.583   4.744  12.856
82348W        W52163  41.797  29.145   3.832
82349W        W52164  24.005  39.422  12.843
82350W        W52165  18.120  31.526  10.543
82351W        W52166   6.293  39.362   4.195
82352W        W52167  31.563  30.421   0.804
82353W        W52168  23.691  20.663  12.074
82354W        W52169  11.659  34.425  10.419
82355W        W52170  25.470   7.699  13.413
82356W        W52171   7.416  34.443  14.884
82357W        W52172  32.115   3.774   5.233
82358W        W52173  44.810  24.698   1.446
82359W        W52174   2.229  41.001   2.403
82360W        W52175  37.944  23.206   0.957
82361W        W52176  37.502  44.942  12.549
82362W        W52177  23.088   5.872  10.438
82363W        W52178  22.201  20.182   1.393
82364W        W52179  25.988  18.677   4.244
82365W        W52180  25.079   2.847   2.346
82366W        W52181   7.401   1.768  14.818
82367W        W52182   1.265  10.344   1.387
82368W        W52183   5.259   1.766  12.392
82369W        W52184   6.423  40.986   2.736
82370W        W52185  41.499  37.443   4.820
82371W        W52186   6.380  37.560   3.360
82372W        W52187  23.140   6.194  14.436
82373W        W52188  16.607  27.031  10.992
82374W        W52189  20.152  34.995  13.850
82375W        W52190   2.931   5.714  14.979
82376W        W52191  20.750  42.346  11.372
82377W        W52192  16.697  31.453  11.454
82378W        W52193  42.802  31.080  11.112
82379W        W52194  44.957   8.361  14.279
82380W        W52195  43.764  41.339  11.079
82381W        W52196   2.863  27.668  11.004
82382W        W52197   1.330  22.561  13.538
82383W        W52198  33.493  34.078  12.961
82384W        W52199   1.328   0.366   4.198
82385W        W52200  42.811  10.675   1.256
82386W        W52201   8.773  19.261  12.879
82387W        W52202  17.202  39.435   2.745
82388W        W52203  13.675  38.490  11.557
82389W        W52204  11.163   2.442  11.581
82390W        W52205  24.008  42.981  12.017
82391W        W52206  15.298  10.381  14.980
82392W        W52207  36.867  11.740   4.317
82393W        W52208   3.227   9.278  14.768
82394W        W52209  25.684  34.970  13.391
82395W        W52210  28.517  27.184  14.505
82396W        W52211  41.485  31.570  13.801
82397W        W52212  23.190  16.072  10.538
82398W        W52213  14.665  17.584  12.481
82399W        W52214  23.141  42.877   4.693
82400W        W52215  10.708  26.172   1.766
82401W        W52216   2.775  38.447   1.926
82402W        W52217  18.125   9.875  14.338
82403W        W52218   0.377  15.739   4.645
82404W        W52219  27.580   4.857   0.829
82405W        W52220  32.970  38.327  10.976
82406W        W52221  32.455  16.745  14.381
82407W        W52222  17.193  17.158   3.195
82408W        W52223  22.040  32.515   2.678
82409W        W52224  23.713  14.760  13.993
82410W        W52225  27.526   3.414  12.057
82411W        W52226  35.576  28.551  12.353
82412W        W52227   1.480  15.626  12.073
82413W        W52228  19.766  10.702   4.765
82414W        W52229  14.104  29.458  13.897
82415W        W52230  40.838  20.065   2.893
82416W        W52231  37.367  27.675   3.840
82417W        W52232  17.634  26.648   2.193
82418W        W52233  12.712  40.544  13.790
82419W        W52234  43.788  11.332  10.976
82420W        W52235  23.561  13.229  14.447
82421W        W52236  16.747  31.506   2.799
82422W        W52237  32.038  34.375   2.872
82423W        W52238  28.985   9.357   3.250
82424W        W52239   0.969  14.819  11.611
82425W        W52240  29.517   2.867   4.323
82426W        W52241   4.288  16.177   3.794
82427W        W52242  37.962  14.255  13.830
82428W        W52243   4.944  13.819   0.743
82429W        W52244  33.126  44.869   2.697
82430W        W52245   4.226  36.540  11.976
82431W        W52246  12.813  18.554  12.475
82432W        W52247  15.176  11.205  14.391
82433W        W52248  11.314  19.679   5.162
82434W        W52249  15.662   2.745   1.411
82435W        W52250  34.928  14.660  12.067
82436W        W52251  13.655  29.609  14.760
82437W        W52252  32.565  23.176  13.506
82438W        W52253  29.962  19.600   1.233
82439W        W52254  11.733  17.250  12.040
82440W        W52255  33.386  32.946  14.030
82441W        W52256  43.439  38.341   4.295
82442W        W52257  31.081  29.466   2.294
82443W        W52258  30.947   7.354  11.101
82444W        W52259  39.491   4.768   4.241
82445W        W52260  15.194   7.205  13.915
82446W        W52261  13.342  29.937  14.996
82447W        W52262  40.539   2.898   0.781
82448W        W52263  43.296  20.097  11.478
82449W        W52264  10.281  40.993   4.305
82450W        W52265  28.992  35.501  12.865
82451W        W52266  30.084  19.665   0.798
82452W        W52267   7.192  14.295   1.232
82453W        W52268  14.130  43.005  13.402
82454W        W52269  10.301   0.839   1.449
82455W        W52270  17.735   6.839   4.352
82456W        W52271  23.547   9.235   2.274
82457W        W52272   9.739  39.332  14.894
82458W        W52273  38.883   4.829  13.425
82459W        W52274  39.906  33.466  14.476
82460W        W52275  25.514   0.757   1.775
82461W        W52276  43.398   3.357   1.404
82462W        W52277  42.340  38.854   1.724
82463W        W52278  44.358  11.626  12.525
82464W        W52279  37.463  27.502  13.038
82465W        W52280  24.639  19.120   0.261
82466W        W52281  43.824   6.865  10.632
82467W        W52282  14.255  41.808   3.357
82468W        W52283  21.587  44.498   0.953
82469W        W52284   3.800  23.235  11.556
82470W        W52285  11.741  39.834  14.350
82471W        W52286  28.146  21.097   1.411
82472W        W52287  35.392   8.869   0.763
82473W        W52288  18.090   2.259  13.915
82474W        W52289   6.396  44.880   4.244
82475W        W52290  19.050  14.727  13.451
82476W        W52291   6.424  23.203   0.251
82477W        W52292  29.490  27.685   3.746
82478W        W52293  32.069  36.413  12.859
82479W        W52294  13.145  21.145   4.658
82480W        W52295   0.891  28.055   1.299
82481W        W52296   9.374   9.866  11.976
82482W        W52297  13.712  18.560   0.922
82483W        W52298  33.036  40.814   2.243
82484W        W52299   9.200  16.677   0.353
82485W        W52300   7.220   2.305   0.477
82486W        W52301  33.038  29.568   4.184
82487W        W52302  32.531  24.113  12.994
82488W        W52303  44.904  12.141   2.186
82489W        W52304  13.796  17.600   1.211
82490W        W52305  21.702  45.000  12.856
82491W        W52306  44.886  27.649  14.981
82492W        W52307  42.959  30.980  11.593
82493W        W52308   2.965  18.622  12.080
82494W        W52309  27.625  35.018  13.983
82495W        W52310  28.579   5.213   3.178
82496W        W52311  24.097  35.939  14.994
82497W        W52312  34.571  22.111  14.975
82498W        W52313  22.703  38.973   0.444
82499W        W52314  42.869  19.642  13.400
82500W        W52315  23.151  30.033   4.623
82501W        W52316  15.217  21.640  12.025
82502W        W52317  36.024  11.142   2.298
82503W        W52318  22.721  35.544  12.507
82504W        W52319  30.519   3.383   2.735
82505W        W52320  14.202  41.923  12.983
82506W        W52321  10.283   0.859   3.806
82507W        W52322  18.708   8.390  12.985
82508W        W52323  14.790  26.621   0.961
82509W        W52324   1.781  10.169   1.213
82510W        W52325   9.231  25.485   1.764
82511W        W52326  12.192  31.934  10.895
82512W        W52327  20.045   8.163  13.871
82513W        W52328  20.234   4.381  10.921
82514W        W52329  22.744  24.528   2.239
82515W        W52330   8.689  26.603   2.712
82516W        W52331  27.674  25.982  11.488
82517W        W52332  10.696  43.011  12.071
82518W        W52333  16.200  17.743   2.853
82519W        W52334  36.507  38.060  12.842
82520W        W52335  39.975  37.981  12.924
82521W        W52336  20.046  11.161   0.344
82522W        W52337  23.063   6.900  12.483
82523W        W52338   2.759  13.124  12.014
82524W        W52339  22.554  19.689   1.434
82525W        W52340  41.866   8.167   2.331
82526W        W52341  39.046  40.037  13.847
82527W        W52342   7.738  27.964  14.312
82528W        W52343  31.425  10.175   2.742
82529W        W52344  44.908  16.255  12.061
82530W        W52345  12.195  26.577   1.385
82531W        W52346  26.586   9.351  14.282
82532W        W52347  32.063  12.116  11.553
82533W        W52348  41.006   2.797  12.838
82534W        W52349   0.402  37.958  11.020
82535W        W52350  12.268  12.826   4.317
82536W        W52351   1.899  35.377  14.414
82537W        W52352   9.844  42.810   3.751
82538W        W52353  21.624  43.286   0.414
82539W        W52354  23.107  13.106  14.924
82540W        W52355   0.417  37.022   1.841
82541W        W52356   4.709  40.909   3.684
82542W        W52357   5.223  21.081  11.503
82543W        W52358   4.834  37.383  13.455
82544W        W52359  33.949  37.402  10.532
82545W        W52360  39.356  17.211   1.263
82546W        W52361  11.134   2.238  13.359
82547W        W52362  17.729   6.858  10.603
82548W        W52363  25.557   0.814   0.936
82549W        W52364   1.968  33.991  12.381
82550W        W52365   9.161   1.322  14.515
82551W        W52366  38.539  32.057  12.084
82552W        W52367  27.612  32.138  14.950
82553W        W52368  13.190  22.603   1.433
82554W        W52369  44.436  12.627  12.537
82555W        W52370   6.847  42.015   2.681
82556W        W52371  34.864   5.293   2.817
82557W        W52372  37.378  28.521   2.363
82558W        W52373  42.396  29.979  14.896
82559W        W52374  10.382  10.205   5.089
82560W        W52375  39.864  40.548  11.035
82561W        W52376   4.300   0.379   3.676
82562W        W52377  37.879  26.173   3.673
82563W        W52378  42.014  14.763   5.183
82564W        W52379   6.810   6.386   4.162
82565W        W52380  39.474  44.323  14.297
82566W        W52381   3.792  29.529  14.461
82567W        W52382  22.741  39.043   0.967
82568W        W52383  15.208  22.038   2.785
82569W        W52384  20.611  18.097   4.185
82570W        W52385  30.420  37.913   2.284
82571W        W52386  13.281   6.186  10.637
82572W        W52387  36.456  20.274  14.997
82573W        W52388  33.069  15.754   3.338
82574W        W52389  11.700  29.083   2.800
82575W        W52390  10.711   3.307  14.433
82576W        W52391  31.545  11.675  13.547
82577W        W52392   2.342   9.883  11.927
82578W        W52393   0.384  11.332   2.668
82579W        W52394   4.882  21.577  13.856
82580W        W52395  40.807  42.896  11.075
82581W        W52396  25.643  40.387   5.763
82582W        W52397  35.986  24.017   3.195
82583W        W52398  15.276  15.764  10.038
82584W        W52399  17.780  23.624   2.827
82585W        W52400  14.787  33.455   2.734
82586W        W52401  30.516  12.745  12.469
82587W        W52402  34.607  41.344   0.875
82588W        W52403  30.622  23.222  11.907
82589W        W52404  14.808  42.967  11.473
82590W        W52405  36.094  40.844   3.768
82591W        W52406   5.711   5.400   3.810
82592W        W52407  39.396  19.736  10.964
82593W        W52408  35.959  33.537   1.364
82594W        W52409  25.491  26.491  13.337
82595W        W52410  36.014  11.767   3.677
82596W        W52411   5.901  37.030   0.765
82597W        W52412   8.686  21.589   3.735
82598W        W52413  26.189  25.515   2.398
82599W        W52414  30.491  38.847  14.348
82600W        W52415  43.317   3.359   3.804
82601W        W52416  11.844  30.980  13.398
82602W        W52417  29.502  18.179  12.982
82603W        W52418  11.735   7.221  14.309
82604W        W52419   2.339  22.025   0.308
82605W        W52420  10.303  11.637  13.446
82606W        W52421  10.259  41.370  11.896
82607W        W52422  20.248  28.467  10.434
82608W        W52423  37.540   9.876   2.871
82609W        W52424  30.656  43.891   0.927
82610W        W52425  13.751  14.300  12.832
82611W        W52426  12.186   1.313   3.704
82612W        W52427  40.512   1.427   4.677
82613W        W52428   9.367  28.933  11.002
82614W        W52429  41.531  38.979   3.329
82615W        W52430  19.679  44.944  13.356
82616W        W52431  14.758  29.022  13.060
82617W        W52432  43.454  41.856  12.038
82618W        W52433  34.590  33.015   5.089
82619W        W52434  39.520   4.807   1.279
82620W        W52435  26.504  32.045  10.540
82621W        W52436  36.465  28.930   4.713
82622W        W52437  14.783  28.533  12.056
82623W        W52438  36.346   5.270   4.288
82624W        W52439  20.158  39.394   3.375
82625W        W52440  23.030  19.238   9.964
82626W        W52441   6.395  41.372  10.010
82627W        W52442  39.897  13.734   9.926
82628W        W52443  40.816   2.391   1.243
82629W        W52444   0.773  43.407   1.922
82630W        W52445   0.422  33.566  12.522
82631W        W52446  12.810  35.385  13.826
82632W        W52447   3.267  13.716  11.496
82633W        W52448   0.828  36.051  13.063
82634W        W52449  13.348   5.201   3.176
82635W        W52450  18.601  31.106  13.435
82636W        W52451  36.079  44.429   4.225
82637W        W52452  41.790  43.356  11.123
82638W        W52453   8.343  31.130   0.298
82639W        W52454  28.598   4.751  11.470
82640W        W52455  38.927   9.684  14.468
82641W        W52456  10.144  24.085  11.415
82642W        W52457  26.054  29.642  11.556
82643W        W52458  13.262  16.620  12.070
82644W        W52459  42.001  21.222   2.337
82645W        W52460  20.533  40.486   2.720
82646W        W52461  32.003  11.788  13.918
82647W        W52462  33.450  28.128   4.243
82648W        W52463  37.959  32.548   2.884
82649W        W52464  35.921  10.141  10.532
82650W        W52465  26.583  15.738  13.941
82651W        W52466  29.619  14.665   3.292
82652W        W52467   1.244  32.112   2.324
82653W        W52468  14.626  19.634  13.489
82654W        W52469  14.682  12.169  14.402
82655W        W52470  10.651  17.688  12.399
82656W        W52471   2.372  16.296   2.369
82657W        W52472   2.831  19.715  12.525
82658W        W52473  33.398  12.155  10.469
82659W        W52474  24.674  33.464  11.992
82660W        W52475  12.752  19.114  11.519
82661W        W52476  42.354  32.952   3.263
82662W        W52477  40.434  17.767   4.667
82663W        W52478  16.103  21.152   3.333
82664W        W52479  31.569   0.410   0.904
82665W        W52480   7.396   8.809  13.846
82666W        W52481  14.754  31.600  12.959
82667W        W52482  39.321  14.195  12.983
82668W        W52483  31.491  10.276   3.296
82669W        W52484   9.800  31.115  10.559
82670W        W52485  35.004  36.079   2.760
82671W        W52486  16.772  16.711  11.999
82672W        W52487  26.147  30.520   0.954
82673W        W52488  23.995  40.452   4.214
82674W        W52489   6.356  37.542  11.603
82675W        W52490  42.323  13.226  11.971
82676W        W52491  19.594  20.685  11.550
82677W        W52492   5.815  10.648  13.911
82678W        W52493  42.028   9.217  10.945
82679W        W52494  19.647  37.057   2.802
82680W        W52495  14.601   8.300  14.483
82681W        W52496   9.737  36.995   3.335
82682W        W52497  43.510  44.781   1.771
82683W        W52498  10.662  35.899  11.917
82684W        W52499  20.047  44.290  13.394
82685W        W52500  27.044  14.229  14.338
82686W        W52501   5.773  11.160  14.504
82687W        W52502  32.484  14.113  12.419
82688W        W52503  16.741  14.765  11.948
82689W        W52504  24.524  22.594  13.467
82690W        W52505   9.272   8.191  14.917
82691W        W52506  16.205   4.795  12.021
82692W        W52507   4.265  29.941   2.329
82693W        W52508  25.083   3.851  11.586
82694W        W52509   4.890  22.152   2.206
82695W        W52510  34.489   0.430   2.380
82696W        W52511  10.221   3.871   1.784
82697W        W52512  28.643   1.260  12.857
82698W        W52513  32.573  12.742  11.870
82699W        W52514  17.660  42.515  12.959
82700W        W52515  18.701  24.722  13.474
82701W        W52516  28.658   3.821  12.832
82702W        W52517  39.987  40.871   4.343
82703W        W52518  32.930   2.863   2.674
82704W        W52519   4.762  36.375  12.023
82705W        W52520  41.938   2.291   1.916
82706W        W52521  17.766  13.802  14.301
82707W        W52522  14.116  30.061   2.838
82708W        W52523  22.186  30.083  12.972
82709W        W52524  41.042  38.471   3.725
82710W        W52525   5.891  11.678   3.639
82711W        W52526  24.668  39.352   4.301
82712W        W52527  34.449  40.330   3.163
82713W        W52528  12.186  34.955  14.830
82714W        W52529   0.272  16.167  11.575
82715W        W52530  21.522  31.410  11.010
82716W        W52531  30.491  24.515   3.774
82717W        W52532  19.185  11.306  13.509
82718W        W52533  37.877  33.519   0.478
82719W        W52534  27.577  41.932   4.616
82720W        W52535  36.942  43.934  11.066
82721W        W52536   3.767  29.479   4.138
82722W        W52537  26.608  22.698   2.296
82723W        W52538   8.166  29.657  10.520
82724W        W52539   4.870  28.466  14.828
82725W        W52540  31.564   0.941   2.687
82726W        W52541   7.849  36.348  13.929
82727W        W52542  20.622  27.138   2.370
82728W        W52543  13.137  19.253   4.118
82729W        W52544  22.148  34.999  14.340
82730W        W52545  11.309   5.342   4.199
82731W        W52546  29.045  23.989  11.377
82732W        W52547  12.677  39.853   4.149
82733W        W52548  33.616   4.397  13.797
82734W        W52549  32.586   3.282   2.291
82735W        W52550  39.833  31.957   1.840
82736W        W52551  32.474  42.001  13.969
82737W        W52552  25.602  36.919   0.952
82738W        W52553  37.433   3.403   1.802
82739W        W52554  33.562   3.912  12.445
82740W        W52555  14.709  36.573  14.349
82741W        W52556  40.459   1.832  14.845
82742W        W52557  35.547  19.650   0.901
82743W        W52558  34.059  32.518  14.797
82744W        W52559  19.121  12.136  13.490
82745W        W52560   9.791  22.656  10.983
82746W        W52561   9.845  17.588  14.337
82747W        W52562   9.787  40.449  14.835
82748W        W52563  36.456   5.416   4.712
82749W        W52564  29.031  10.373   3.213
82750W        W52565  39.423   6.360  14.292
82751W        W52566  11.648  37.369  14.488
82752W        W52567  10.835  37.860   2.677
82753W        W52568   3.233  29.984  10.409
82754W        W52569  35.376   8.355  14.845
82755W        W52570   4.414  23.620   2.683
82756W        W52571  27.058  12.292  11.953
82757W        W52572  37.952  36.932  14.497
82758W        W52573  28.017  15.755  14.455
82759W        W52574  37.904   5.811   2.703
82760W        W52575  38.512  10.234  10.438
82761W        W52576  32.082   5.899  11.564
82762W        W52577  10.744  32.019  11.876
82763W        W52578  19.597  44.005   1.782
82764W        W52579  36.551  41.506  13.433
82765W        W52580  29.144  10.772   4.164
82766W        W52581  30.603  21.691  10.416
82767W        W52582  23.084  19.585   4.234
82768W        W52583   7.789  23.703   3.869
82769W        W52584  12.195  26.008   2.369
82770W        W52585  17.247  24.149   0.284
82771W        W52586   7.859  29.571   2.836
82772W        W52587   0.866  40.922  12.012
82773W        W52588  32.445  41.445   3.274
82774W        W52589  17.260  18.548   0.423
82775W        W52590  10.802   2.273   4.783
82776W        W52591  32.453   9.307   0.907
82777W        W52592  42.350  29.535   2.829
82778W        W52593  30.471  21.728   2.798
82779W        W52594  22.576   8.393   3.161
82780W        W52595  33.987  28.632  12.089
82781W        W52596  29.430   0.330  12.923
82782W        W52597   9.772  37.420   4.793
82783W        W52598   5.376  44.888  12.982
82784W        W52599  25.171  36.456  12.071
82785W        W52600  10.271  28.015  14.454
82786W        W52601  12.285  41.306   2.330
82787W        W52602  20.135  25.507  14.866
82788W        W52603  43.792  43.417  14.409
82789W        W52604  17.213  40.979   4.807
82790W        W52605   8.800  33.027  13.442
82791W        W52606  26.188  21.756   1.332
82792W        W52607  25.966  21.633   0.303
82793W        W52608  41.451   1.474   4.650
82794W        W52609  20.136   7.798  11.598
82795W        W52610  27.448  39.536  13.907
82796W        W52611  16.685  41.407  12.021
82797W        W52612  40.863  21.582  10.450
82798W        W52613   0.421  34.492  11.511
82799W        W52614  35.383  13.192  13.038
82800W        W52615   1.789   5.231   0.378
82801W        W52616   6.262  29.430   1.261
82802W        W52617  39.377  33.495   1.907
82803W        W52618   5.294  33.116   2.260
82804W        W52619  38.026  35.887   2.371
82805W        W52620  43.988  19.255  12.380
82806W        W52621  13.268   1.375  12.564
82807W        W52622   9.702  18.608  11.608
82808W        W52623  34.047  19.651   0.913
82809W        W52624   2.808  32.629   1.774
82810W        W52625  31.128  14.739   0.927
82811W        W52626  29.943  34.975   3.216
82812W        W52627  37.388   6.255   1.247
82813W        W52628  35.073  19.726   5.135
82814W        W52629  28.534  36.432  11.103
82815W        W52630   2.348  20.033   1.911
82816W        W52631  35.012  37.051  11.916
82817W        W52632  28.441  11.859  12.562
82818W        W52633  25.680  20.562   3.682
82819W        W52634  15.817  24.004   1.751
82820W        W52635   3.796   1.416   3.222
82821W        W52636  27.042  38.554   2.747
82822W        W52637  38.938  19.716  13.016
82823W        W52638  41.378  11.282   1.922
82824W        W52639  26.077   3.955   4.772
82825W        W52640  41.856  19.042   2.192
82826W        W52641   0.943  21.173   1.227
82827W        W52642  39.380  19.721   5.109
82828W        W52643  43.800  39.525  12.356
82829W        W52644  35.091   6.251  13.396
82830W        W52645  13.334  30.042   3.346
82831W        W52646  36.396  35.430   0.247
82832W        W52647  17.792  28.580   3.818
82833W        W52648  20.729  27.450  11.526
82834W        W52649  23.239  36.540  12.976
82835W        W52650  38.462  32.031  14.307
82836W        W52651  42.887  22.078   4.665
82837W        W52652   9.702  43.495   3.717
82838W        W52653  33.980  18.669   4.802
82839W        W52654  23.224  24.606  14.464
82840W        W52655   8.375  24.019  14.764
82841W        W52656  37.884   0.802   3.203
82842W        W52657  42.942  33.914   1.892
82843W        W52658  42.787  40.940   0.874
82844W        W52659  22.590  33.501   4.786
82845W        W52660  19.062  42.812  13.545
82846W        W52661   8.337  11.867   3.760
82847W        W52662   2.852  34.376  14.295
82848W        W52663  39.905  27.097   0.899
82849W        W52664   4.403  10.739  13.442
82850W        W52665  25.714  21.063   2.311
82851W        W52666   1.849  23.140  13.961
82852W        W52667  28.131  20.764  14.837
82853W        W52668  18.635   7.874   2.219
82854W        W52669   1.271   2.395   0.464
82855W        W52670   5.424  21.730  10.509
82856W        W52671   0.861  12.738  12.352
82857W        W52672   1.879  13.283   2.285
82858W        W52673  44.459  16.304  14.470
82859W        W52674  16.158  24.211   3.822
82860W        W52675  44.885  17.076  12.011
82861W        W52676   5.224  38.357  14.356
82862W        W52677   6.376  32.051   3.379
82863W        W52678  10.653  12.701  12.482
82864W        W52679  36.451  40.955  13.848
82865W        W52680  18.678  34.005   4.319
82866W        W52681  39.361  36.523   4.256
82867W        W52682  38.405   5.712   0.483
82868W        W52683  25.470   7.852  13.836
82869W        W52684   1.944   1.339  14.414
82870W        W52685  24.495  29.460   2.305
82871W        W52686  24.480  41.929   1.707
82872W        W52687  13.236   2.334   1.721
82873W        W52688  10.717  12.633   1.271
82874W        W52689  34.946  32.919   1.384
82875W        W52690   5.787  44.405   2.191
82876W        W52691  34.066  23.643  13.965
82877W        W52692  15.784  37.453  12.368
82878W        W52693  14.590  14.671   4.798
82879W        W52694  34.523  12.327  13.449
82880W        W52695   6.386  29.658  11.446
82881W        W52696  28.679  34.997  11.576
82882W        W52697  42.895  14.280  14.959
82883W        W52698  17.593  20.073   3.858
82884W        W52699  14.097   5.347   0.385
82885W        W52700  36.382   1.789  13.815
82886W        W52701  16.117  29.505  11.959
82887W        W52702  32.535  25.070   1.337
82888W        W52703  34.399  32.988  12.085
82889W        W52704  19.736  43.917  12.903
82890W        W52705   8.169  11.360  14.359
82891W        W52706  27.031  31.007  13.965
82892W        W52707  38.434   2.811  11.479
82893W        W52708  40.002  37.001  13.809
82894W        W52709   7.378  16.092   2.288
82895W        W52710  43.912  18.105   1.831
82896W        W52711   7.681  25.155  14.386
82897W        W52712  17.579  12.853  14.492
82898W        W52713  23.001  11.714  11.429
82899W        W52714  34.433  30.956   4.801
82900W        W52715  26.138  37.897   3.667
82901W        W52716  33.991  34.533   4.137
82902W        W52717  11.651   3.917  14.439
82903W        W52718  18.236  27.557  11.035
82904W        W52719   3.407   1.479   2.682
82905W        W52720  14.211   9.763  11.562
82906W        W52721   7.671  37.548  13.327
82907W        W52722  20.691  30.643   3.742
82908W        W52723  16.218  23.583  11.007
82909W        W52724  24.115   7.798   0.273
82910W        W52725   0.867  16.162   3.653
82911W        W52726  21.673  18.252  10.549
82912W        W52727  24.707  15.651  12.829
82913W        W52728  35.422  32.904   1.884
82914W        W52729  17.256  38.924  13.051
82915W        W52730  26.602  14.209   0.865
82916W        W52731  19.612  26.667   4.206
82917W        W52732  24.111   3.791   1.742
82918W        W52733   9.756   9.731   3.660
82919W        W52734  24.621  41.495   1.731
82920W        W52735  39.490  40.337  11.465
82921W        W52736   1.300  38.415   2.241
82922W        W52737   7.783   0.915  11.963
82923W        W52738  24.478  24.701   2.769
82924W        W52739  24.012   0.394   4.740
82925W        W52740  36.507  25.138  12.504
82926W        W52741  43.768  15.089  11.566
82927W        W52742  21.566  15.130  11.904
82928W        W52743  16.187  27.465  13.034
82929W        W52744  12.355  20.756  12.424
82930W        W52745  16.189  40.411   2.214
82931W        W52746  25.012  34.434   4.354
82932W        W52747  33.614   9.187  14.880
82933W        W52748  24.615   1.372  10.543
82934W        W52749  38.047  23.669   4.250
82935W        W52750  25.549  25.038  14.315
82936W        W52751  21.652  20.627   2.679
82937W        W52752  30.443  39.453   1.888
82938W        W52753   9.694  16.194  10.930
82939W        W52754  42.390   6.192  13.397
82940W        W52755  14.328   5.235  12.861
82941W        W52756  16.200   0.478   3.831
82942W        W52757  28.951  34.118  12.980
82943W        W52758  14.781  17.254  10.114
82944W        W52759  13.199  28.509   3.342
82945W        W52760  30.435  27.506   3.269
82946W        W52761  25.093  15.753   4.696
82947W        W52762  14.694  38.046  10.615
82948W        W52763   3.231  29.066   2.183
82949W        W52764  29.055  18.291  10.928
82950W        W52765  15.095  21.087  12.426
82951W        W52766  37.393  14.315  10.508
82952W        W52767   9.327   5.354  11.985
82953W        W52768  20.575  11.683   1.789
82954W        W52769   6.825  42.854  14.297
82955W        W52770  30.452  11.194  12.956
82956W        W52771   0.287   9.357   2.409
82957W        W52772  31.533  41.856  11.117
82958W        W52773  42.967  38.905   0.347
82959W        W52774   2.740  43.299   3.791
82960W        W52775  20.053  14.717   4.791
82961W        W52776  12.325  12.248   3.711
82962W        W52777   8.382   3.834  13.917
82963W        W52778  43.355  34.375  11.874
82964W        W52779  26.117   4.819   0.316
82965W        W52780   2.435  20.682  12.493
82966W        W52781  42.367  36.431   4.116
82967W        W52782  26.488  31.562   2.885
82968W        W52783   0.865  42.310  10.558
82969W        W52784  40.911  14.208  14.890
82970W        W52785  31.984   9.212  11.040
82971W        W52786  25.040  30.454  10.531
82972W        W52787   3.797  18.071  13.000
82973W        W52788  11.833   8.192   1.741
82974W        W52789  16.261  15.718  11.534
82975W        W52790   9.770   6.891   4.619
82976W        W52791  36.842  43.286  15.000
82977W        W52792   1.259   9.717   1.839
82978W        W52793  21.666  22.115   0.890
82979W        W52794  42.492  42.939  10.129
82980W        W52795   4.822  38.567   0.360
82981W        W52796  35.896  20.750   0.801
82982W        W52797  43.284   2.312  13.028
82983W        W52798  42.298  27.976   2.664
82984W        W52799   5.794  15.130   4.816
82985W        W52800  25.183  15.296  14.960
82986W        W52801  25.978  42.978   3.811
82987W        W52802  36.080  12.146   1.370
82988W        W52803  10.171  35.481   0.471
82989W        W52804  39.008  35.025   4.352
82990W        W52805  27.507  18.565  10.466
82991W        W52806  43.014   5.439  12.924
82992W        W52807  28.173  33.121   2.664
82993W        W52808  44.379  30.140  13.827
82994W        W52809   1.382  27.994   3.739
82995W        W52810  31.445   8.693   1.336
82996W        W52811  25.103   9.157  13.898
82997W        W52812  20.075  21.248  11.931
82998W        W52813  30.599  38.487  13.475
82999W        W52814  10.308  12.741   1.226
83000W        W52815  27.077  44.348   2.801
83001W        W52816  41.470   2.328   0.254
83002W        W52817   6.716  23.691  13.530
83003W        W52818  20.614  39.543   0.328
83004W        W52819   4.410  39.324   2.218
83005W        W52820  42.990  34.032   2.677
83006W        W52821  32.422  12.784   0.399
83007W        W52822  34.874  29.084  12.534
83008W        W52823  41.316  25.572  12.475
83009W        W52824  16.306  19.683   4.771
83010W        W52825  12.805   7.274   2.339
83011W        W52826  33.580  22.178   9.942
83012W        W52827  16.309   1.851   5.146
83013W        W52828  41.414  23.700   4.192
83014W        W52829   8.211   4.234   4.742
83015W        W52830  26.964  42.798  12.521
83016W        W52831  15.725  44.772  13.049
83017W        W52832  11.340  18.286  13.313
83018W        W52833  31.427  31.946   3.223
83019W        W52834  23.673  35.492   3.291
83020W        W52835  11.829  19.598  10.496
83021W        W52836  13.678   3.867   2.272
83022W        W52837  34.589  43.408  12.562
83023W        W52838  15.695  17.252  10.562
83024W        W52839  40.435  34.528  13.906
83025W        W52840  28.125  21.127  12.533
83026W        W52841  10.858   1.298  13.018
83027W        W52842  28.599   5.339   0.893
83028W        W52843  16.709  29.585   3.346
83029W        W52844  29.507  20.197   4.325
83030W        W52845   9.154  25.574   2.360
83031W        W52846  44.771   1.766  11.895
83032W        W52847  28.107  40.861   3.862
83033W        W52848  17.622   8.382   4.739
83034W        W52849  32.630  36.912   2.666
83035W        W52850  11.305   5.293   3.775
83036W        W52851  21.693  42.911  13.389
83037W        W52852  17.236  23.690   1.705
83038W        W52853  39.441  10.724   3.238
83039W        W52854  12.713  20.094   2.290
83040W        W52855  28.180  42.899   9.935
83041W        W52856  13.191  32.592   1.300
83042W        W52857  41.024  44.832  12.448
83043W        W52858   9.705  38.444  12.448
83044W        W52859  34.532  31.587   4.281
83045W        W52860  37.062  12.722  11.939
83046W        W52861  30.021  33.040   4.716
83047W        W52862  44.905   7.690  14.898
83048W        W52863  18.574  34.541   2.732
83049W        W52864   2.905   6.189  11.506
83050W        W52865  20.094   9.686  11.014
83051W        W52866  17.280  41.801   1.211
83052W        W52867  44.776  26.585  12.862
83053W        W52868  37.540  30.951   0.820
83054W        W52869  31.445  39.952   1.880
83055W        W52870   0.804  32.108  11.053
83056W        W52871  24.532  22.251   3.173
83057W        W52872  34.051  10.769   2.276
83058W        W52873  12.181  23.594   0.378
83059W        W52874   3.783   5.286  12.421
83060W        W52875  41.469  30.956  12.376
83061W        W52876  17.092  24.669  14.032
83062W        W52877  39.834  19.043  10.559
83063W        W52878  21.219  28.563   2.784
83064W        W52879  27.650  22.205  10.937
83065W        W52880   3.911   0.760  13.799
83066W        W52881   9.262  14.122   1.308
83067W        W52882  21.044  35.423   1.406
83068W        W52883  33.961   9.668   1.428
83069W        W52884  25.490   3.429  10.967
83070W        W52885  15.669  35.362  12.059
83071W        W52886  27.585  42.806  10.417
83072W        W52887   3.924   5.932   2.863
83073W        W52888  19.070  43.979   0.904
83074W        W52889  22.055  11.730   4.648
83075W        W52890   3.283  12.640  12.551
83076W        W52891   3.431  19.610   1.328
83077W        W52892   8.857   1.968   3.846
83078W        W52893  13.345  38.016  12.436
83079W        W52894   1.967  35.065  11.562
83080W        W52895  39.509   3.873  13.932
83081W        W52896  18.054   5.736   0.327
83082W        W52897   1.784  15.719  14.908
83083W        W52898   5.246  10.775  12.528
83084W        W52899  28.472  17.702  12.005
83085W        W52900  43.488   6.420  12.036
83086W        W52901  40.973  41.014   0.826
83087W        W52902  44.480  34.399   4.656
83088W        W52903  35.578  32.926  10.630
83089W        W52904  16.608   4.741   4.259
83090W        W52905  32.597  43.976  10.561
83091W        W52906  39.392   1.241   9.664
83092W        W52907   3.759  21.541   2.894
83093W        W52908  35.455  18.265   3.262
83094W        W52909  10.321  32.950  12.903
83095W        W52910  13.325  19.654  14.990
83096W        W52911   8.167  33.875  11.088
83097W        W52912  16.138   9.382  14.020
83098W        W52913  12.161  12.337   4.322
83099W        W52914  16.107  40.942   2.679
83100W        W52915  43.964  18.693   2.815
83101W        W52916  23.079  34.074   2.856
83102W        W52917  16.575  26.162  10.945
83103W        W52918  11.750  36.436   3.730
83104W        W52919  27.536   5.719   4.810
83105W        W52920  32.919  23.101  12.340
83106W        W52921   3.739  29.599  14.891
83107W        W52922  11.139  32.395  10.536
83108W        W52923  10.777  23.070   4.257
83109W        W52924  40.372  19.155   0.441
83110W        W52925  14.262  40.815   1.708
83111W        W52926  18.572  37.931  14.918
83112W        W52927   7.406   3.236   0.917
83113W        W52928  19.533  15.097  10.614
83114W        W52929  16.313  33.520   4.775
83115W        W52930  27.582   0.962  13.377
83116W        W52931  10.339  10.837  13.315
83117W        W52932  21.661  35.852  12.485
83118W        W52933  28.534  19.543   0.915
83119W        W52934   5.872  29.624  11.394
83120W        W52935  13.802  19.132  12.932
83121W        W52936  27.671   4.728   4.806
83122W        W52937  40.880   1.433   3.808
83123W        W52938  16.109  27.061  14.483
83124W        W52939  33.609  33.445   9.972
83125W        W52940  29.430  39.341   2.343
83126W        W52941   9.336  44.316  10.561
83127W        W52942  11.717  37.873   3.249
83128W        W52943  43.010  14.630  11.387
83129W        W52944  42.510  43.291  13.820
83130W        W52945  21.208  31.902   1.808
83131W        W52946  25.566  33.600   4.613
83132W        W52947  19.624   0.919  11.529
83133W        W52948   9.183   7.329   1.262
83134W        W52949   4.448  27.971  14.508
83135W        W52950  15.611  29.439   0.812
83136W        W52951   2.819  37.577  14.000
83137W        W52952   3.419  44.504   3.194
83138W        W52953  38.058   6.747   2.257
83139W        W52954  41.000   1.804   0.800
83140W        W52955   9.331  35.420   1.899
83141W        W52956   9.804  20.680  14.324
83142W        W52957  10.224  16.802   2.329
83143W        W52958  32.396  14.732   1.747
83144W        W52959   8.252  43.938   0.436
83145W        W52960  36.490  19.653   0.401
83146W        W52961  16.784   2.403   2.343
83147W        W52962  41.362   6.811   1.790
83148W        W52963   1.866  33.918   2.773
83149W        W52964  19.160  22.061  14.312
83150W        W52965  14.228  41.941   4.193
83151W        W52966  11.296  20.135  14.276
83152W        W52967  24.086  16.223  11.385
83153W        W52968  31.496   6.762  12.449
83154W        W52969  40.318   9.713  12.410
83155W        W52970  24.216  18.152   2.233
83156W        W52971  33.519   0.267   3.376
83157W        W52972  13.291   8.357  11.522
83158W        W52973  14.834  15.716  14.032
83159W        W52974   4.324  31.049  10.512
83160W        W52975   4.911  43.316   0.854
83161W        W52976  20.688  32.041   3.685
83162W        W52977  26.100  14.273   0.317
83163W        W52978  18.726  18.589  13.411
83164W        W52979  42.958   8.262   0.326
83165W        W52980  42.896  22.742   4.804
83166W        W52981  12.652  22.501   3.203
83167W        W52982   1.342  29.109   2.743
83168W        W52983   8.291  20.692  12.483
83169W        W52984  15.691  27.027  12.826
83170W        W52985  38.934  38.070   2.889
83171W        W52986  14.299  35.600   0.920
83172W        W52987  22.126  32.442  13.834
83173W        W52988   9.292  13.329  11.480
83174W        W52989  34.076  16.251   4.324
83175W        W52990  42.424  15.285  11.021
83176W        W52991  28.602   2.758   0.452
83177W        W52992  38.538  14.280  13.843
83178W        W52993  12.659  32.037   4.680
83179W        W52994  36.897  41.816  12.352
83180W        W52995  33.528  43.428   3.801
83181W        W52996  25.520  23.539   4.657
83182W        W52997   1.320  21.683   3.152
83183W        W52998  10.716   8.285  10.982
83184W        W52999  34.585  29.637  14.323
83185W        W53000  33.524   2.307  11.910
83186W        W53001  29.621  34.097  11.989
83187W        W53002  21.696  31.576  12.556
83188W        W53003  33.529  21.733  11.584
83189W        W53004  16.312  14.662  11.559
83190W        W53005  26.982  28.575   3.651
83191W        W53006  38.326   0.833  12.545
83192W        W53007  13.807  44.871   2.416
83193W        W53008  39.030  24.124   2.409
83194W        W53009  25.002  23.106  14.345
83195W        W53010  25.025   4.346  13.477
83196W        W53011  22.011   0.976  10.144
83197W        W53012  28.598  15.220   1.219
83198W        W53013  38.889  31.621   3.853
83199W        W53014  12.665  34.075  14.374
83200W        W53015  37.948   4.309   2.737
83201W        W53016  32.404   9.165  12.032
83202W        W53017  41.871  25.475  13.520
83203W        W53018  30.087   1.336  12.849
83204W        W53019  34.387  41.528  10.938
83205W        W53020  25.184  28.993  10.484
83206W        W53021   8.835  39.466   0.763
83207W        W53022  10.162  14.284   1.434
83208W        W53023  17.709   7.248   1.345
83209W        W53024   5.218  17.280  13.960
83210W        W53025  15.243  37.910  13.329
83211W        W53026   4.424   1.958  12.553
83212W        W53027  21.707   0.316  10.958
83213W        W53028   4.302   9.389   2.309
83214W        W53029  13.213  31.122  14.501
83215W        W53030  14.721  15.267   4.675
83216W        W53031  34.515  31.441  11.899
83217W        W53032  41.810  24.018  12.072
83218W        W53033  29.937  31.992   2.798
83219W        W53034  24.161  40.345  14.772
83220W        W53035   2.956  10.758  14.979
83221W        W53036   3.305  16.793   4.331
83222W        W53037  16.207   6.829  11.582
83223W        W53038  15.741   4.413  13.972
83224W        W53039   8.892  15.745  10.449
83225W        W53040  16.199  44.379   2.736
83226W        W53041  20.249  39.465  14.878
83227W        W53042  42.849   5.754  11.445
83228W        W53043  29.930  26.584  11.900
83229W        W53044   2.964   0.261  12.907
83230W        W53045  27.615  25.552  13.813
83231W        W53046  28.007  44.284  11.517
83232W        W53047  28.501  25.967   2.844
83233W        W53048   7.789   4.300  11.860
83234W        W53049  32.399   2.822  13.330
83235W        W53050   9.272  15.664  13.334
83236W        W53051  12.191  27.586  11.965
83237W        W53052  13.279   5.874  12.866
83238W        W53053  12.204  37.051   1.369
83239W        W53054  38.531   4.347  14.497
83240W        W53055   3.339  13.197   1.715
83241W        W53056  20.039   2.909  11.984
83242W        W53057  30.001  35.586   1.889
83243W        W53058  20.085  10.338  10.003
83244W        W53059  25.104   9.376   0.937
83245W        W53060  17.070  38.863  11.544
83246W        W53061  20.208   4.429   0.407
83247W        W53062  36.589   2.334  12.998
83248W        W53063   2.260   9.741   4.171
83249W        W53064  19.576  43.952   0.888
83250W        W53065  33.970  34.892   3.819
83251W        W53066  26.692  21.106  13.059
83252W        W53067   8.293   9.747  12.527
83253W        W53068  39.938  38.048   4.352
83254W        W53069  18.244  39.339  13.806
83255W        W53070   4.698  35.056  12.922
83256W        W53071  33.438   8.835   3.860
83257W        W53072  41.461   4.293  10.973
83258W        W53073   7.791   6.373   4.638
83259W        W53074  34.420   9.174   0.417
83260W        W53075  11.676  27.189  11.112
83261W        W53076  43.327  37.990  11.050
83262W        W53077  11.794  26.628  12.375
83263W        W53078  42.802  15.209   2.811
83264W        W53079   2.393  40.447  10.623
83265W        W53080  38.032  28.047   0.880
83266W        W53081  14.654   5.266   4.707
83267W        W53082  38.392   2.873   1.326
83268W        W53083  35.357   0.448  14.448
83269W        W53084  43.910  26.978  11.856
83270W        W53085  34.944  23.624   3.218
83271W        W53086  41.434  19.105   4.233
83272W        W53087  37.444  28.081  13.007
83273W        W53088  33.109   1.366   3.174
83274W        W53089  36.999  34.466  12.534
83275W        W53090  40.933  17.800   1.912
83276W        W53091   6.902  37.339  13.020
83277W        W53092  28.161  33.920   3.823
83278W        W53093  40.325  19.155  11.583
83279W        W53094  24.018  11.145   4.300
83280W        W53095  24.069  42.307  11.430
83281W        W53096   6.849  39.917  10.961
83282W        W53097  14.588  44.482  13.790
83283W        W53098  26.058   8.275   3.848
83284W        W53099  44.383  13.273   3.299
83285W        W53100   9.681   9.659   0.863
83286W        W53101  36.507  42.813  11.491
83287W        W53102  41.457   7.326   4.616
83288W        W53103  21.188  31.555   4.253
83289W        W53104  35.998   9.292   4.636
83290W        W53105  43.334  43.852  12.379
83291W        W53106   5.308  20.654  10.456
83292W        W53107  30.584  12.275   0.760
83293W        W53108  42.888  18.626   2.395
83294W        W53109  31.517   2.834   3.714
83295W        W53110  12.716   6.332   2.753
83296W        W53111  44.880  12.154  10.924
83297W        W53112  40.800  11.171  13.452
83298W        W53113  21.695  31.455   4.749
83299W        W53114  42.881  44.813   4.127
83300W        W53115  39.522   7.800   2.748
83301W        W53116  35.412  12.193   4.819
83302W        W53117   4.927  28.167   2.316
83303W        W53118  24.646  44.455  11.122
83304W        W53119  33.079  43.353  12.933
83305W        W53120   5.747  21.687  14.781
83306W        W53121   5.924  40.809   3.654
83307W        W53122  15.790  27.600  10.944
83308W        W53123  26.464  39.887  10.626
83309W        W53124   6.274  20.274   4.266
83310W        W53125   3.356  32.557  13.345
83311W        W53126  44.785  15.798   3.172
83312W        W53127  16.080  44.974  14.432
83313W        W53128   6.750  35.562   3.192
83314W        W53129  24.559  12.238  14.334
83315W        W53130  29.103  35.016   3.736
83316W        W53131  38.468  31.449  14.987
83317W        W53132  38.014  11.654   1.875
83318W        W53133  31.026  16.222   1.710
83319W        W53134   2.921  26.995  14.383
83320W        W53135  14.118  11.172  12.090
83321W        W53136  25.559   0.924  13.929
83322W        W53137  29.639  42.357   0.294
83323W        W53138  11.780   1.767  13.898
83324W        W53139   4.780  34.875  14.276
83325W        W53140   4.321  26.159  10.476
83326W        W53141  10.775  36.880  11.019
83327W        W53142   7.213  11.322   4.748
83328W        W53143  31.973  30.612  13.318
83329W        W53144  40.385  29.978  10.944
83330W        W53145   2.253  40.327  14.964
83331W        W53146  15.813  44.349   2.274
83332W        W53147   2.362  17.561  12.839
83333W        W53148  40.921   7.904  14.379
83334W        W53149  42.310  10.773   2.357
83335W        W53150  15.804  17.161  13.467
83336W        W53151   9.685  14.102   3.687
83337W        W53152  13.240  31.066   3.681
83338W        W53153   1.416  40.907   1.450
83339W        W53154  37.435  19.581  12.462
83340W        W53155  35.483  10.175   2.362
83341W        W53156  14.165  38.062   2.270
83342W        W53157  23.610  36.486   3.819
83343W        W53158  42.012   5.263   0.418
83344W        W53159   7.828   8.275   0.357
83345W        W53160   9.870   2.257   1.374
83346W        W53161  13.760  10.268  14.952
83347W        W53162   3.428   9.832   1.451
83348W        W53163  41.853   0.798   0.450
83349W        W53164  18.284  31.424   2.314
83350W        W53165   2.419  22.531   2.835
83351W        W53166   8.854   1.877  12.967
83352W        W53167   6.394   6.394  11.071
83353W        W53168  33.468  38.525   2.757
83354W        W53169   7.406  38.998   4.355
83355W        W53170  34.408  44.409   4.622
83356W        W53171  44.329  24.161  13.806
83357W        W53172  39.409  16.722   4.120
83358W        W53173  28.642  22.707   2.267
83359W        W53174  41.349  13.174  13.902
83360W        W53175  18.581  21.196   3.179
83361W        W53176   7.813  14.643  12.404
83362W        W53177  39.817  14.306   4.722
83363W        W53178  29.477  14.614  12.456
83364W        W53179  16.801  20.243  12.439
83365W        W53180  37.047  11.699   1.789
83366W        W53181   4.778  29.073  11.877
83367W        W53182   6.883  23.212  14.350
83368W        W53183  30.429  31.087   4.705
83369W        W53184  19.701   4.822   0.880
83370W        W53185  22.671  22.635  11.926
83371W        W53186  35.892  26.642   2.393
83372W        W53187   9.645  39.010  14.942
83373W        W53188  37.078  20.108   0.901
83374W        W53189  28.496  19.219  10.469
83375W        W53190  44.377  29.641   3.683
83376W        W53191   5.353  25.629   0.936
83377W        W53192  13.629  39.398   3.805
83378W        W53193  18.216   5.424   4.256
83379W        W53194   8.329  35.580  11.983
83380W        W53195  42.835   6.343  12.355
83381W        W53196  29.501  18.085   0.447
83382W        W53197   6.283  41.355   1.414
83383W        W53198  31.989  42.026  12.529
83384W        W53199  27.595  33.117  14.375
83385W        W53200  30.619  19.165  10.419
83386W        W53201   8.804  31.068   1.340
83387W        W53202   4.744  35.884   4.601
83388W        W53203  14.135  10.215   2.368
83389W        W53204  28.966  25.473  14.457
83390W        W53205  44.889  18.056   4.120
83391W        W53206  15.199  23.073  11.594
83392W        W53207  38.989  34.973  11.949
83393W        W53208  23.201  37.409   3.301
83394W        W53209  18.600  29.170  14.482
83395W        W53210  36.535  33.880   1.379
83396W        W53211  11.257  42.356   0.780
83397W        W53212  26.972  17.799  11.050
83398W        W53213  35.440  31.607   0.770
83399W        W53214  24.109  40.991   4.827
83400W        W53215  44.822  28.954  13.418
83401W        W53216  23.057  20.092  13.313
83402W        W53217  38.869  44.780  14.410
83403W        W53218  21.028  30.054   0.263
83404W        W53219  33.974  15.145   1.924
83405W        W53220  18.126   1.750   0.737
83406W        W53221  33.907   2.946  13.428
83407W        W53222  39.485  41.941   4.228
83408W        W53223  10.709  12.338   1.391
83409W        W53224  23.058   0.341  10.936
83410W        W53225  17.255  22.083  10.486
83411W        W53226  17.277  26.656   3.735
83412W        W53227  14.133  27.570  14.883
83413W        W53228  26.072  33.982  12.539
83414W        W53229  26.104   1.309   3.320
83415W        W53230  22.619  23.064  12.409
83416W        W53231  17.122  35.502   1.800
83417W        W53232  32.449   9.813   4.160
83418W        W53233  37.451  37.923   0.756
83419W        W53234  26.028  22.578  14.293
83420W        W53235  34.613  43.815  14.398
83421W        W53236  44.797  22.158   0.437
83422W        W53237   0.375  34.075   2.695
83423W        W53238  34.447  37.021  11.485
83424W        W53239  41.512  44.478  13.886
83425W        W53240   0.845   0.297  10.443
83426W        W53241  32.498  44.869   2.229
83427W        W53242  11.232   7.264   4.353
83428W        W53243  13.334   4.222   3.170
83429W        W53244  34.062   6.703  12.365
83430W        W53245  37.975   1.775  14.480
83431W        W53246  30.020  18.583   3.770
83432W        W53247   2.233  34.396   4.793
83433W        W53248  10.206   7.221  13.827
83434W        W53249  21.147  32.963   1.715
83435W        W53250   4.882  16.704   1.907
83436W        W53251   8.857  17.557  12.920
83437W        W53252  41.408  10.151   1.372
83438W        W53253  32.925  10.383   1.227
83439W        W53254  19.216   5.721  12.876
83440W        W53255  36.896  44.431  11.861
83441W        W53256  31.401   6.410  11.975
83442W        W53257  35.877  40.855  12.044
83443W        W53258  40.367  41.948   3.339
83444W        W53259  31.587  13.230   0.935
83445W        W53260  40.012  39.988   2.379
83446W        W53261   4.429  15.758  14.834
83447W        W53262   1.318  17.711   3.770
83448W        W53263  41.440   0.488  11.914
83449W        W53264  31.484  40.326  11.900
83450W        W53265  36.868  15.616  12.020
83451W        W53266  15.167  25.510  10.516
83452W        W53267  26.690  43.909   3.291
83453W        W53268  20.028  33.482   5.259
83454W        W53269  36.942  16.584  11.581
83455W        W53270  31.426  28.973  14.950
83456W        W53271  11.826   7.670   0.349
83457W        W53272  34.470  35.433   2.748
83458W        W53273   3.257   7.246  14.427
83459W        W53274  37.582   0.491   2.717
83460W        W53275   9.321  27.064   4.230
83461W        W53276   8.315  44.849  11.447
83462W        W53277  16.626  43.869  11.424
83463W        W53278  40.811  33.913   2.411
83464W        W53279   7.738  13.760   0.806
83465W        W53280  22.662  27.476  11.498
83466W        W53281   2.917   8.250  14.017
83467W        W53282  35.946   2.766   4.716
83468W        W53283  21.162  16.313  10.422
83469W        W53284  27.620   7.787  10.459
83470W        W53285  25.012   9.808   0.799
83471W        W53286  28.155  12.215   0.400
83472W        W53287  12.738  32.077  11.941
83473W        W53288  39.492   2.758  10.530
83474W        W53289  36.388  22.094   0.354
83475W        W53290  20.115  39.443  12.489
83476W        W53291  33.504  28.175   3.356
83477W        W53292   2.404  24.645  11.986
83478W        W53293  13.689  21.128   0.892
83479W        W53294   7.764  31.640  14.835
83480W        W53295  17.282  12.648   4.694
83481W        W53296  23.192  10.763  10.956
83482W        W53297  21.147  12.199   4.821
83483W        W53298  23.089  13.315  12.390
83484W        W53299  39.012  16.769   1.935
83485W        W53300  38.541  13.174   0.244
83486W        W53301  30.953  43.963   0.288
83487W        W53302   9.876   6.785  12.006
83488W        W53303  11.708  12.757  12.951
83489W        W53304  27.522  35.854  11.036
83490W        W53305  20.593   7.844  12.415
83491W        W53306  20.658   9.676  12.379
83492W        W53307  29.632  30.950  14.006
83493W        W53308  14.675  17.696   0.851
83494W        W53309  42.959   0.487  11.382
83495W        W53310   3.815   3.361   1.245
83496W        W53311  16.213   4.216   3.763
83497W        W53312   5.429  28.169   2.888
83498W        W53313  43.011  22.558   2.352
83499W        W53314   8.789  33.995   0.260
83500W        W53315  29.983   4.935  10.964
83501W        W53316  23.662   8.343   3.311
83502W        W53317  26.053  26.516  12.433
83503W        W53318  43.802   6.277   4.691
83504W        W53319  44.970  35.362  13.346
83505W        W53320  33.498  23.997   0.757
83506W        W53321  43.500  18.581  14.798
83507W        W53322  31.488  38.921   0.918
83508W        W53323  23.093  36.090   3.681
83509W        W53324  35.532  19.108   3.770
83510W        W53325  31.589  26.115   3.855
83511W        W53326  10.725   9.661   1.371
83512W        W53327  32.901  30.942  10.506
83513W        W53328  37.508  36.378   2.831
83514W        W53329  16.612  30.909   3.857
83515W        W53330   8.294   0.303  12.982
83516W        W53331  43.510  12.637  12.044
83517W        W53332  23.096  18.154   1.828
83518W        W53333  23.615  42.917   1.336
83519W        W53334  37.874  40.469   3.320
83520W        W53335  34.939  21.540   4.658
83521W        W53336   9.800  26.570  11.123
83522W        W53337   2.368  29.104  14.461
83523W        W53338  32.631   5.739  11.901
83524W        W53339  37.494  41.410  11.590
83525W        W53340  17.609  33.554  12.924
83526W        W53341  14.785  24.530   1.365
83527W        W53342  17.597  17.617  11.964
83528W        W53343  10.822  38.896  12.524
83529W        W53344  43.859  15.328   0.457
83530W        W53345  21.111  35.002   4.642
83531W        W53346  21.021  42.484  10.610
83532W        W53347   4.775  12.288  13.481
83533W        W53348   0.262  30.547   4.150
83534W        W53349  11.246  24.557  12.500
83535W        W53350   6.713   9.177  12.927
83536W        W53351  23.189  39.317   0.290
83537W        W53352   9.281  23.127  10.438
83538W        W53353   4.941  19.744   4.758
83539W        W53354  19.205  27.446   2.750
83540W        W53355   2.908   3.916  12.547
83541W        W53356   0.345   6.840   3.728
83542W        W53357   3.739  31.104   0.253
83543W        W53358  44.361   9.702  13.367
83544W        W53359  42.325   0.944   0.797
83545W        W53360   6.299   7.317   2.901
83546W        W53361  24.087   9.163   2.269
83547W        W53362   5.727   2.924  14.293
83548W        W53363  33.617   6.192  14.301
83549W        W53364  29.471  21.538   2.903
83550W        W53365   6.312   4.839  12.537
83551W        W53366  43.401   3.828  14.781
83552W        W53367  33.542  25.629   0.445
83553W        W53368  10.668  33.086  12.016
83554W        W53369  30.017  35.980   1.871
83555W        W53370  27.085  17.678  14.852
83556W        W53371   6.315   1.343  11.934
83557W        W53372  19.276  14.649   4.131
83558W        W53373  44.329   3.368  13.445
83559W        W53374  44.866  25.685   0.262
83560W        W53375   8.348  32.006  13.926
83561W        W53376  35.382  39.018  12.906
83562W        W53377  16.581  23.162  12.971
83563W        W53378  29.476  12.783  10.967
83564W        W53379  26.009  28.628  14.281
83565W        W53380  21.238   1.445   9.448
83566W        W53381  41.029   2.827   0.783
83567W        W53382  33.382  21.681   0.927
83568W        W53383  32.390  43.424  12.022
83569W        W53384  42.926  26.554   2.866
83570W        W53385  39.352  20.719  13.822
83571W        W53386  10.278  39.986   1.828
83572W        W53387  44.488  27.193  14.997
83573W        W53388   6.381   0.822  12.556
83574W        W53389  12.252  31.581   4.672
83575W        W53390  13.291  24.010   1.239
83576W        W53391  18.737  17.709  11.568
83577W        W53392   4.450  12.122  13.391
83578W        W53393   8.259  11.812  11.058
83579W        W53394   6.737  21.165   3.718
83580W        W53395  18.291  27.016   2.767
83581W        W53396  33.029   0.297  12.958
83582W        W53397  32.064  34.493   0.467
83583W        W53398  22.042  17.718  10.097
83584W        W53399  39.541   5.268  12.852
83585W        W53400  22.616  36.951  14.830
83586W        W53401  35.486  32.933   2.792
83587W        W53402  11.173  40.316  12.397
83588W        W53403  38.929   7.849  10.479
83589W        W53404  35.482  10.714   3.189
83590W        W53405  23.058  10.195   1.891
83591W        W53406  41.790  27.627   3.714
83592W        W53407  29.965  18.257   4.339
83593W        W53408  41.463  29.630   2.248
83594W        W53409  10.697  12.274   2.774
83595W        W53410  13.207  23.593   2.192
83596W        W53411  31.116  42.810   0.882
83597W        W53412  11.831  11.340  11.961
83598W        W53413  34.870  15.242  13.807
83599W        W53414  28.529   1.442   3.778
83600W        W53415  41.404   1.302   3.251
83601W        W53416  34.077  43.288   3.315
83602W        W53417   8.801  26.053   4.193
83603W        W53418  41.838  11.146   3.840
83604W        W53419  32.411  18.583   0.408
83605W        W53420  18.241   1.761   4.203
83606W        W53421  32.954   1.832  14.419
83607W        W53422  20.242  36.496   1.912
83608W        W53423  14.109  33.924   3.376
83609W        W53424  35.931  17.302  14.348
83610W        W53425   8.869   6.887  13.026
83611W        W53426  40.870  30.127   4.124
83612W        W53427  15.583  18.290   5.285
83613W        W53428  34.970  43.387  12.059
83614W        W53429   7.889   9.826   1.812
83615W        W53430  17.661  15.655   2.779
83616W        W53431  42.008  26.151  11.903
83617W        W53432   1.744  27.518  14.938
83618W        W53433  17.569  23.494   3.851
83619W        W53434  37.541   7.886  12.971
83620W        W53435  14.324  43.449   2.739
83621W        W53436  33.914   1.935   0.784
83622W        W53437  28.564  27.946   4.705
83623W        W53438  12.665  14.117  13.014
83624W        W53439  28.586  38.541   2.774
83625W        W53440  36.402  11.746   1.926
83626W        W53441  13.310  39.954  12.934
83627W        W53442  44.356  25.543  10.993
83628W        W53443   7.787  17.608   0.738
83629W        W53444   6.724   2.244   2.864
83630W        W53445   7.365  16.640   0.950
83631W        W53446   6.250  22.597   0.298
83632W        W53447  44.467  12.171  13.435
83633W        W53448   7.170  21.236  11.538
83634W        W53449  38.473  13.228   3.319
83635W        W53450  37.038  13.841   2.245
83636W        W53451  14.789  14.230  12.935
83637W        W53452   8.826  27.452  12.366
83638W        W53453  21.601   9.837  14.511
83639W        W53454  10.314  27.057  14.438
83640W        W53455  15.083  25.557   1.211
83641W        W53456  41.028  15.797   0.846
83642W        W53457  44.431  18.728   2.900
83643W        W53458   6.284  37.893  11.912
83644W        W53459   3.223   1.861  11.861
83645W        W53460  16.699  21.616   1.755
83646W        W53461  30.020  10.721   4.169
83647W        W53462  43.276   0.450   4.687
83648W        W53463  17.061  26.480  12.990
83649W        W53464   0.872  40.895   3.753
83650W        W53465  14.194  17.735   2.689
83651W        W53466  31.970  30.998  13.322
83652W        W53467   4.339  31.086  11.575
83653W        W53468  42.309  44.269  12.556
83654W        W53469  18.230  41.479  12.361
83655W        W53470  44.485  34.935   0.855
83656W        W53471   8.361  29.563  14.980
83657W        W53472  28.530  33.918   4.782
83658W        W53473  13.142  38.954  14.302
83659W        W53474  10.815  22.516  13.805
83660W        W53475  28.145  22.027  13.062
83661W        W53476  12.785  26.041  13.970
83662W        W53477   8.304  13.158   4.230
83663W        W53478   0.280   1.367  11.562
83664W        W53479   7.364  23.678   1.784
83665W        W53480  30.944  23.552   1.823
83666W        W53481  10.153  31.427   2.334
83667W        W53482   0.785  11.301   3.282
83668W        W53483  23.731  41.973  14.464
83669W        W53484  41.858   9.806   0.268
83670W        W53485  42.422  44.392   1.357
83671W        W53486  40.321  44.414  13.504
83672W        W53487  23.633   3.336   4.310
83673W        W53488   9.869  35.103   4.618
83674W        W53489  27.573  34.890   1.723
83675W        W53490  34.557  44.456   3.739
83676W        W53491  19.099  11.807   0.254
83677W        W53492  29.030  42.376   1.330
83678W        W53493  26.657   2.360   3.746
83679W        W53494  44.915   9.790  14.761
83680W        W53495  19.060  32.990  13.375
83681W        W53496  40.046  29.049  13.332
83682W        W53497   7.198  12.846  12.454
83683W        W53498   6.677  31.120  14.822
83684W        W53499  17.677  11.263  14.373
83685W        W53500  16.808   9.192  14.507
83686W        W53501  23.715  14.627   2.313
83687W        W53502  34.371  27.564  12.902
83688W        W53503  16.706  21.131  13.401
83689W        W53504  36.573  35.362  11.586
83690W        W53505   2.396  35.358   0.401
83691W        W53506   8.184  36.867  13.341
83692W        W53507  35.006   1.344  10.412
83693W        W53508  40.017  22.218  11.073
83694W        W53509   3.730  19.196  13.323
83695W        W53510   8.260   4.255  11.962
83696W        W53511  14.685  33.121  13.530
83697W        W53512  14.145  16.795   1.740
83698W        W53513  23.601  22.736  13.866
83699W        W53514  32.898  10.225   1.819
83700W        W53515  22.008   2.270  13.049
83701W        W53516  20.127  42.522  12.957
83702W        W53517  34.992  25.032   3.309
83703W        W53518   9.179  30.959   4.201
83704W        W53519  16.124  26.177  11.049
83705W        W53520  30.063   2.228  13.961
83706W        W53521  44.477  11.351   4.773
83707W        W53522  27.505  35.915   0.353
83708W        W53523   9.250  27.964   2.310
83709W        W53524  37.986  24.163   0.243
83710W        W53525  19.656   1.406   4.796
83711W        W53526  40.906  13.176   5.639
83712W        W53527  39.001  38.950   0.865
83713W        W53528   7.781  41.023  10.581
83714W        W53529   5.741   1.346   1.425
83715W        W53530  20.634  24.111  10.456
83716W        W53531  34.389   8.160   0.423
83717W        W53532  38.022  21.747   0.758
83718W        W53533  19.571  12.157  10.479
83719W        W53534   2.729  43.891   1.900
83720W        W53535   1.794   3.409   0.762
83721W        W53536  23.612  38.991   3.151
83722W        W53537  26.188  30.981  12.489
83723W        W53538  34.011   9.248   2.762
83724W        W53539  30.596  23.113  13.383
83725W        W53540  16.174  20.660   1.753
83726W        W53541  41.374  20.053   3.234
83727W        W53542  34.381  28.019   2.319
83728W        W53543  33.586  34.900  12.363
83729W        W53544  14.250  19.250  14.505
83730W        W53545  21.667   9.332  12.477
83731W        W53546  33.958   1.927   4.233
83732W        W53547  19.080  42.994   1.226
83733W        W53548  27.074  17.665  13.910
83734W        W53549  37.505   0.250  13.375
83735W        W53550  34.415  16.812   0.452
83736W        W53551  19.218  31.908   3.751
83737W        W53552  11.237  41.025  13.331
83738W        W53553  13.685  19.600  13.955
83739W        W53554  28.063  24.100  13.454
83740W        W53555  22.073   3.785   1.242
83741W        W53556  13.233   3.387  13.463
83742W        W53557  16.268   0.742   0.953
83743W        W53558   9.336  19.094   4.272
83744W        W53559  16.615  10.380  12.348
83745W        W53560  28.055  17.795   0.310
83746W        W53561  29.535  23.691  11.571
83747W        W53562  29.094  18.066   1.711
83748W        W53563  35.900  25.033   1.451
83749W        W53564   4.924  27.998   5.314
83750W        W53565   5.915  22.702  10.643
83751W        W53566   0.752   6.758  14.761
83752W        W53567  22.567  41.413   2.235
83753W        W53568  32.111  31.641   1.892
83754W        W53569  22.647   5.840  12.837
83755W        W53570  23.215  40.449  13.974
83756W        W53571   1.248  42.448   3.241
83757W        W53572  25.711  37.457   9.509
83758W        W53573  31.609   0.473  10.893
83759W        W53574   8.841  20.581  12.931
83760W        W53575   8.759  20.213   3.294
83761W        W53576  14.732   1.361  12.352
83762W        W53577  22.710  25.618  12.539
83763W        W53578  35.007  35.585   1.370
83764W        W53579  35.585  32.536   2.662
83765W        W53580  18.103   4.817   4.778
83766W        W53581   3.888   7.750  14.489
83767W        W53582  44.379   2.964  13.005
83768W        W53583  32.406  34.899  12.399
83769W        W53584  13.711  25.482  11.422
83770W        W53585  19.564  26.644   5.267
83771W        W53586  10.634  15.675  11.124
83772W        W53587  32.014  13.663  11.021
83773W        W53588  42.872  38.876   0.962
83774W        W53589  43.976  23.213   1.924
83775W        W53590  36.521   4.254   0.370
83776W        W53591  26.570  13.317  12.464
83777W        W53592   6.236  14.642   2.190
83778W        W53593  36.573  33.926   2.243
83779W        W53594  22.058  17.766   0.820
83780W        W53595   9.226  15.199   3.318
83781W        W53596  27.197  41.999   1.802
83782W        W53597  44.323  25.633   4.707
83783W        W53598  25.495  36.457   3.704
83784W        W53599  32.579  31.497  11.580
83785W        W53600   7.896  24.527   4.190
83786W        W53601   6.339  35.438  10.935
83787W        W53602   7.750  20.751   4.634
83788W        W53603  15.616  11.142   1.700
83789W        W53604  30.449  21.250   4.200
83790W        W53605  24.648   8.788   0.349
83791W        W53606  22.518  33.495  11.116
83792W        W53607  42.413  34.987  14.941
83793W        W53608  24.183   0.748  12.953
83794W        W53609   6.212  34.903   1.823
83795W        W53610   1.773   4.709   3.798
83796W        W53611  14.634  30.135  14.772
83797W        W53612  20.586  21.651   1.292
83798W        W53613  28.562  44.793   2.244
83799W        W53614  28.619  43.846  10.516
83800W        W53615  38.897   3.846  11.950
83801W        W53616  36.843   7.372  12.399
83802W        W53617  30.519  43.332  11.977
83803W        W53618  30.037   5.741  11.987
83804W        W53619  22.075   5.354  10.545
83805W        W53620  38.922  20.226   2.284
83806W        W53621  34.394  13.247  13.903
83807W        W53622  11.853  16.796  12.374
83808W        W53623   7.879  40.885  14.976
83809W        W53624  11.623  23.038  13.457
83810W        W53625   6.771   1.785   3.777
83811W        W53626  17.710   2.831   3.832
83812W        W53627  35.548   6.850  12.848
83813W        W53628   4.769  21.757   0.415
83814W        W53629  13.197  12.251  12.880
83815W        W53630   2.743  43.930  13.310
83816W        W53631  20.122   6.854   3.754
83817W        W53632  32.563  17.762   3.206
83818W        W53633  17.700  34.017  10.540
83819W        W53634  20.179  20.204  11.469
83820W        W53635   1.844  44.948   0.481
83821W        W53636  25.198  18.705  11.117
83822W        W53637  10.660  37.028   0.801
83823W        W53638   9.172  12.715   1.887
83824W        W53639   8.719   1.247  13.839
83825W        W53640  18.251   0.750   2.193
83826W        W53641  40.471  32.999  11.427
83827W        W53642  14.107  17.271  12.435
83828W        W53643  13.623  40.025   4.128
83829W        W53644  15.679  40.872   1.315
83830W        W53645  27.957  33.610  10.961
83831W        W53646   1.427  30.981   4.291
83832W        W53647  29.662  44.913  11.477
83833W        W53648  38.025  25.632   1.879
83834W        W53649   0.829  28.151   4.116
83835W        W53650  11.279  28.152   4.118
83836W        W53651  15.264  26.593  10.088
83837W        W53652  21.715  32.424   4.236
83838W        W53653   9.309   9.212   3.212
83839W        W53654   0.819  29.020   1.246
83840W        W53655  15.269  15.776  14.768
83841W        W53656  17.702  13.171  14.788
83842W        W53657   1.433   3.341   0.395
83843W        W53658   2.374  17.257   5.282
83844W        W53659   8.354   6.758  12.544
83845W        W53660  13.654  26.647   1.338
83846W        W53661  18.284  22.124  14.505
83847W        W53662  31.515  32.032  11.499
83848W        W53663  34.994  16.633   3.334
83849W        W53664  42.987  10.690  10.558
83850W        W53665   6.746  38.061  13.545
83851W        W53666   0.752   3.379  14.880
83852W        W53667  40.830   9.664   0.397
83853W        W53668  35.539  34.458  13.423
83854W        W53669  23.564   8.888   0.450
83855W        W53670  38.058  28.594  13.941
83856W        W53671  17.258  22.730  11.938
83857W        W53672  16.711  14.260   0.399
83858W        W53673  27.492   0.334   4.203
83859W        W53674  35.996  24.653   4.830
83860W        W53675   9.668  34.870   3.376
83861W        W53676  36.030  21.120  14.388
83862W        W53677  42.297  23.140  11.432
83863W        W53678  43.453  11.199  13.362
83864W        W53679  10.732  39.325  12.057
83865W        W53680  12.730  21.187   0.769
83866W        W53681  38.510  42.860   4.293
83867W        W53682   9.159  44.873   4.303
83868W        W53683  19.083  37.852  12.917
83869W        W53684  37.369   7.903  11.558
83870W        W53685  11.177  12.851   4.806
83871W        W53686   9.157  44.009   1.800
83872W        W53687  40.824  25.133   4.743
83873W        W53688   4.825  41.437   4.206
83874W        W53689  39.545   1.786   4.286
83875W        W53690  35.043   5.906   2.882
83876W        W53691  10.295  11.850   3.184
83877W        W53692  36.841  36.514  11.114
83878W        W53693   9.781  37.882  10.958
83879W        W53694  16.620  17.600  13.040
83880W        W53695   1.266  29.654  10.483
83881W        W53696  36.909  43.863   0.261
83882W        W53697   9.684  39.916  10.967
83883W        W53698  27.643  41.457  11.089
83884W        W53699   8.730  22.149   2.194
83885W        W53700  13.322  19.630   5.286
83886W        W53701  33.577  26.087  10.890
83887W        W53702  17.130   8.342   3.199
83888W        W53703  22.742  15.186  11.982
83889W        W53704  12.225  37.055  11.376
83890W        W53705  17.600  23.046   4.826
83891W        W53706   1.748  19.275   0.920
83892W        W53707  12.643   0.362  13.883
83893W        W53708  27.670   1.776   2.830
83894W        W53709  33.465   4.450  13.396
83895W        W53710   7.780  18.214   3.358
83896W        W53711  14.699  34.899  13.507
83897W        W53712   7.366  14.284   5.249
83898W        W53713  43.017   3.827   3.305
83899W        W53714  25.983  23.492   0.347
83900W        W53715  43.369   0.384   2.753
83901W        W53716  12.745  37.057  11.381
83902W        W53717  24.082  23.732  14.823
83903W        W53718  24.513  37.881  14.015
83904W        W53719  33.102   1.406   4.769
83905W        W53720  27.149  12.159  13.011
83906W        W53721  44.444  29.493   1.874
83907W        W53722  16.128  27.580  10.906
83908W        W53723  14.251   1.869   2.224
83909W        W53724  27.609   9.188  13.826
83910W        W53725  40.797   5.745  10.508
83911W        W53726   9.652  44.000   2.742
83912W        W53727  25.682  15.693   2.882
83913W        W53728  39.832  17.757   1.865
83914W        W53729  13.724   3.232  10.592
83915W        W53730  22.112  15.293   3.715
83916W        W53731  34.417   1.866  11.375
83917W        W53732   9.869   4.707   0.777
83918W        W53733  38.418   8.655   4.117
83919W        W53734  16.183   4.898   0.842
83920W        W53735   9.843  10.700  14.432
83921W        W53736  20.625  35.875  11.447
83922W        W53737  18.560   6.685  13.909
83923W        W53738  29.120  27.154  13.508
83924W        W53739  37.344  28.121   4.680
83925W        W53740  17.587  37.965  14.008
83926W        W53741  14.206  32.619  12.951
83927W        W53742   3.819   2.777   2.349
83928W        W53743  36.484   3.368  13.025
83929W        W53744  14.174  31.581  14.768
83930W        W53745  22.179  41.892   4.604
83931W        W53746   9.774   8.761   2.365
83932W        W53747   9.279  26.457  11.388
83933W        W53748   5.231   4.934  11.379
83934W        W53749  27.573  27.464   0.389
83935W        W53750   2.378  43.935   3.240
83936W        W53751  44.000  33.126   1.852
83937W        W53752  14.753  36.970   2.855
83938W        W53753  38.820  26.645   0.431
83939W        W53754  41.355  38.555  10.627
83940W        W53755   7.411  29.073  13.858
83941W        W53756  15.246  27.456  11.008
83942W        W53757  19.275  30.437   1.348
83943W        W53758   9.387  14.768  11.497
83944W        W53759  33.995  28.981  14.011
83945W        W53760  20.251  13.249  13.910
83946W        W53761   0.905  31.112   1.392
83947W        W53762  27.015  11.247  13.048
83948W        W53763  40.853  27.044  11.993
83949W        W53764  29.104  32.391  10.964
83950W        W53765  31.403  18.681  12.353
83951W        W53766  16.703  21.735  11.098
83952W        W53767   5.409  26.644  12.951
83953W        W53768   8.213  42.023  14.843
83954W        W53769  28.533  31.055   1.737
83955W        W53770   1.273  35.977   4.263
83956W        W53771  31.047  38.493   3.706
83957W        W53772  17.702  28.447  12.492
83958W        W53773  37.409  39.414  13.018
83959W        W53774  19.713   7.178  11.944
83960W        W53775  11.691  11.734   4.304
83961W        W53776  24.095  15.602  11.576
83962W        W53777  10.268  19.724  11.075
83963W        W53778   3.932  28.544   2.720
83964W        W53779  32.635  44.369  12.059
83965W        W53780  42.937  35.108   0.266
83966W        W53781  28.157   5.876  12.520
83967W        W53782  17.116  44.909  13.023
83968W        W53783   6.386   2.953  13.531
83969W        W53784  37.480   3.830  13.975
83970W        W53785  37.015  18.156  12.431
83971W        W53786  12.734  15.678  10.559
83972W        W53787  29.974  26.160  13.373
83973W        W53788  17.293  43.305   0.303
83974W        W53789  31.049  43.943  14.360
83975W        W53790  24.656  18.150  10.014
83976W        W53791  37.831  27.553   3.826
83977W        W53792   0.952  38.566  13.473
83978W        W53793  42.023   3.781  11.386
83979W        W53794  18.665  13.628  11.934
83980W        W53795  42.369   0.791   2.337
83981W        W53796  42.972   4.384   0.472
83982W        W53797  26.987  31.127  11.984
83983W        W53798  13.316  43.413   1.410
83984W        W53799  34.994  18.583   5.158
83985W        W53800  24.565  35.982  11.095
83986W        W53801  31.108  44.791   2.214
83987W        W53802  32.513  34.879  14.892
83988W        W53803  18.691  12.122  11.081
83989W        W53804   1.322  15.615   0.746
83990W        W53805  32.588  28.673   1.923
83991W        W53806  35.545   6.417  10.617
83992W        W53807  11.747  26.535  13.927
83993W        W53808  15.188  20.671   1.866
83994W        W53809  29.031  10.737  14.967
83995W        W53810   6.708  29.018  10.616
83996W        W53811   2.444  27.576  12.417
83997W        W53812  13.826  41.967  11.435
83998W        W53813  23.720  14.714  14.860
83999W        W53814  14.688  26.209  14.031
84000W        W53815  29.564   4.351   4.693
84001W        W53816   0.861  36.068   4.180
84002W        W53817  39.406   6.280   5.200
84003W        W53818  37.917  14.797   3.217
84004W        W53819  26.101  16.150   4.259
84005W        W53820  15.706  24.613  14.854
84006W        W53821  41.517  36.051  14.381
84007W        W53822  20.767   5.393  13.415
84008W        W53823  24.545  11.637   4.314
84009W        W53824  21.076  32.027   9.960
84010W        W53825  39.863  15.631  12.982
84011W        W53826  11.627   3.938  12.386
84012W        W53827  15.714   1.797   3.810
84013W        W53828  23.608  30.992   0.818
84014W        W53829  23.607  29.934  13.519
84015W        W53830  32.973  40.524  11.437
84016W        W53831  40.425  29.933   2.854
84017W        W53832  21.575  24.522  14.353
84018W        W53833  13.145   3.282  12.526
84019W        W53834  36.519   0.315  14.346
84020W        W53835   4.381  38.944  11.596
84021W        W53836  32.520  13.661   2.892
84022W        W53837  17.194  34.097  13.434
84023W        W53838  38.027  44.419  12.987
84024W        W53839  36.044  34.527  12.905
84025W        W53840   4.391   6.424   1.812
84026W        W53841  20.576  43.997   1.702
84027W        W53842  40.521  39.522  13.847
84028W        W53843   9.281  13.801   4.720
84029W        W53844  36.947  29.947  12.372
84030W        W53845  43.405  24.624   1.350
84031W        W53846  30.416  39.925  10.443
84032W        W53847  42.416  29.105  12.972
84033W        W53848  23.187  18.061  14.290
84034W        W53849  43.013  11.707   1.323
84035W        W53850   8.248  44.936   1.320
84036W        W53851  18.168  12.824  12.440
84037W        W53852  37.371  16.626   2.662
84038W        W53853  20.672  37.504  12.546
84039W        W53854  19.668  30.946   2.773
84040W        W53855  43.913  42.372  12.977
84041W        W53856  32.893   7.798  12.434
84042W        W53857  15.199  43.979   3.198
84043W        W53858  40.503  20.066  14.933
84044W        W53859  14.123  35.952   3.330
84045W        W53860   4.795   2.265   3.651
84046W        W53861   3.902   6.271  13.427
84047W        W53862  20.127  19.657   4.238
84048W        W53863  32.478  25.992   0.269
84049W        W53864   6.220  18.723  13.403
84050W        W53865   7.855  40.890  12.970
84051W        W53866  18.563  23.508  14.910
84052W        W53867  10.331   3.710  11.498
84053W        W53868   5.237  40.455   2.662
84054W        W53869  34.369  29.624   1.298
84055W        W53870  25.207  29.010  13.450
84056W        W53871  38.830  21.249  12.061
84057W        W53872  22.552   5.742   0.426
84058W        W53873  10.345  26.501   5.246
84059W        W53874   1.743  24.601  14.029
84060W        W53875  14.335  14.340  14.912
84061W        W53876   6.424   0.881   3.816
84062W        W53877  20.753  33.081   4.183
84063W        W53878  44.380  31.931  14.877
84064W        W53879  10.324  43.833  12.973
84065W        W53880  25.592  41.932   4.828
84066W        W53881  38.928  40.054   2.398
84067W        W53882  20.208  42.295   1.326
84068W        W53883  19.204  12.676  10.559
84069W        W53884  32.542   9.742  14.886
84070W        W53885  26.642  42.911   5.178
84071W        W53886  42.306  13.738  11.530
84072W        W53887   1.922   0.754  13.025
84073W        W53888  31.042  36.884  12.340
84074W        W53889  43.839   2.754  12.417
84075W        W53890  14.661   7.841   1.703
84076W        W53891   4.859  41.942  13.038
84077W        W53892   9.347  23.987   1.312
84078W        W53893  29.980  27.643  12.496
84079W        W53894   0.408  25.686  11.961
84080W        W53895  34.568  26.988  11.541
84081W        W53896  13.769  13.264  13.369
84082W        W53897   3.442  13.129   2.685
84083W        W53898  44.010  39.526  13.454
84084W        W53899   7.314   7.672   3.680
84085W        W53900   8.179  38.964  10.154
84086W        W53901  27.631  10.221  12.094
84087W        W53902  44.263  26.594  13.843
84088W        W53903  38.857   8.658  13.057
84089W        W53904  37.923  41.990  10.471
84090W        W53905  39.910   4.261  13.444
84091W        W53906  43.411  40.407  10.988
84092W        W53907  29.053   0.924  13.849
84093W        W53908   4.309  24.618   4.610
84094W        W53909  42.962  29.054  11.045
84095W        W53910  25.073  12.649   2.723
84096W        W53911   4.389  24.998  10.411
84097W        W53912  23.597  15.657  14.007
84098W        W53913  43.935  14.338  12.539
84099W        W53914   4.705  21.675   3.194
84100W        W53915  25.024  37.468   9.963
84101W        W53916  36.441  16.203   4.752
84102W        W53917  39.055  40.431  13.044
84103W        W53918  10.287  31.002  11.872
84104W        W53919   9.290  39.987   1.834
84105W        W53920  38.468   2.907   2.796
84106W        W53921  26.518  38.861  12.475
84107W        W53922  35.381   0.417   2.703
84108W        W53923  16.608  25.003   0.379
84109W        W53924  37.486  41.485  13.529
84110W        W53925  20.211  34.481   1.258
84111W        W53926  30.930  44.471   3.185
84112W        W53927   4.889  11.301   2.804
84113W        W53928  19.187  29.474  13.938
84114W        W53929  24.576   8.175  12.094
84115W        W53930  27.629  31.107  12.416
84116W        W53931   4.778  15.259  13.399
84117W        W53932   7.895  16.083   2.258
84118W        W53933   3.294  18.690  11.913
84119W        W53934  22.082  10.195  11.866
84120W        W53935  42.802  41.393  10.432
84121W        W53936  27.469   8.223  11.419
84122W        W53937  10.728  24.019  13.992
84123W        W53938  10.774   0.846  11.022
84124W        W53939  37.397   2.856  11.942
84125W        W53940  34.970  36.591   4.139
84126W        W53941  28.163   7.256  13.477
84127W        W53942   5.927  13.784   0.827
84128W        W53943   6.368  37.415  11.048
84129W        W53944  40.971  22.712  13.861
84130W        W53945  12.792  35.473  13.358
84131W        W53946   5.322  28.150   4.183
84132W        W53947   8.843   1.861  14.484
84133W        W53948  42.907   6.816   0.771
84134W        W53949  13.721  42.513   0.381
84135W        W53950  21.704  41.957  11.082
84136W        W53951  25.046  42.316  14.368
84137W        W53952  29.935  12.197  12.424
84138W        W53953   4.709  41.406   4.742
84139W        W53954   5.793   2.411   4.331
84140W        W53955  26.952   1.847   2.395
84141W        W53956  30.451  16.242  14.493
84142W        W53957  33.503  24.080  11.917
84143W        W53958  43.919   9.776  14.801
84144W        W53959  44.341   9.263  11.938
84145W        W53960  37.360  41.886   2.903
84146W        W53961   5.237   8.742   1.699
84147W        W53962  34.458  40.502   4.141
84148W        W53963   1.859  28.092   0.313
84149W        W53964  24.133  20.263   2.786
84150W        W53965  36.972  36.462  10.493
84151W        W53966  37.553  15.693  11.916
84152W        W53967  28.156  43.857   3.158
84153W        W53968  40.879  22.184  10.592
84154W        W53969  29.950  38.571   2.722
84155W        W53970  30.933  41.536   0.901
84156W        W53971  16.778  25.986   3.174
84157W        W53972  31.617  15.788   3.677
84158W        W53973  11.304   9.755  12.414
84159W        W53974  12.847  44.849  12.342
84160W        W53975  12.187   0.933   0.463
84161W        W53976  21.225  11.651  13.009
84162W        W53977  42.999  29.563   2.277
84163W        W53978  18.652  33.069  13.025
84164W        W53979   7.830  31.092   2.339
84165W        W53980  38.968  23.505  12.873
84166W        W53981  15.765   9.307   0.306
84167W        W53982  17.707  33.892  14.389
84168W        W53983  36.443  21.045  14.829
84169W        W53984   9.370  25.200  11.377
84170W        W53985  42.979  12.698  11.447
84171W        W53986  21.547  42.489  10.475
84172W        W53987  31.040  41.427  11.086
84173W        W53988   1.445   2.242   4.316
84174W        W53989  26.557  34.880   4.342
84175W        W53990  42.518  19.684   3.758
84176W        W53991  13.187  35.947  12.383
84177W        W53992  38.421   9.815   2.260
84178W        W53993  16.245  29.491  10.907
84179W        W53994  19.706  43.795   5.676
84180W        W53995  13.328  43.845  14.280
84181W        W53996  16.077  19.165  12.370
84182W        W53997  31.958  21.539   1.246
84183W        W53998  25.099  31.512  13.010
84184W        W53999  32.989  11.201   2.859
84185W        W54000  30.509  19.264  11.962
84186W        W54001  16.223  40.434  12.990
84187W        W54002  27.975  44.332  13.913
84188W        W54003  42.356   3.745   0.862
84189W        W54004  39.526  34.452  11.390
84190W        W54005  20.618  42.440  12.341
84191W        W54006  14.829  19.238  11.590
84192W        W54007  12.308  15.604   4.710
84193W        W54008  25.993  15.785  12.507
84194W        W54009  18.615  44.418  14.017
84195W        W54010  23.162  14.765  11.052
84196W        W54011  20.570  24.152   0.869
84197W        W54012  37.538  39.025  11.010
84198W        W54013   1.288  14.718   1.239
84199W        W54014  24.091  28.543   0.440
84200W        W54015  23.633  14.237  12.491
84201W        W54016  10.363  21.714  14.906
84202W        W54017  13.695   5.800  14.364
84203W        W54018  32.562  24.608  11.863
84204W        W54019  16.794  29.444  13.820
84205W        W54020  32.529  22.747  13.395
84206W        W54021  41.973   0.281   5.187
84207W        W54022  11.162  23.605  11.391
84208W        W54023  12.752  28.555  12.928
84209W        W54024  10.751  40.868   4.782
84210W        W54025  39.351  11.196  10.467
84211W        W54026   2.290  26.568  13.947
84212W        W54027  17.145   7.178   3.870
84213W        W54028  21.603  24.127  13.974
84214W        W54029  25.661  22.683   2.199
84215W        W54030  25.575  25.702  12.429
84216W        W54031  17.610   3.445  14.463
84217W        W54032  42.393  24.100  11.011
84218W        W54033   4.301  12.719  12.033
84219W        W54034   8.798  37.415  12.843
84220W        W54035  25.496  41.467  13.501
84221W        W54036   7.745  19.685  13.357
84222W        W54037   9.876  11.732   4.172
84223W        W54038  28.032  18.207   2.804
84224W        W54039  27.019  16.793   1.347
84225W        W54040  37.061  39.892  13.478
84226W        W54041  40.495   3.899  13.389
84227W        W54042  11.274  19.262   3.870
84228W        W54043   2.813  32.557  13.023
84229W        W54044  31.617  21.600   3.826
84230W        W54045   4.320  41.879  13.367
84231W        W54046  33.935  11.765  14.764
84232W        W54047  32.533   2.240   3.792
84233W        W54048  44.922  15.298  12.935
84234W        W54049  23.654  42.789   4.184
84235W        W54050  26.022  21.574   4.194
84236W        W54051   6.691  32.104   2.387
84237W        W54052  15.695  26.642   2.814
84238W        W54053   4.351  40.000   3.747
84239W        W54054   6.849  41.997   5.698
84240W        W54055  16.605  27.047  14.990
84241W        W54056  42.492  21.734   2.266
84242W        W54057  16.303   7.373  14.363
84243W        W54058   7.769  24.045   2.323
84244W        W54059  44.828  13.605   2.395
84245W        W54060  25.601  37.395  14.506
84246W        W54061  17.175  16.188  13.433
84247W        W54062  18.088  15.287  14.515
84248W        W54063  33.460  15.171  13.952
84249W        W54064  41.041  14.812   3.383
84250W        W54065  27.110  43.429  14.495
84251W        W54066  36.489  39.009   1.710
84252W        W54067  31.530  19.284  11.913
84253W        W54068  25.677   4.811  13.513
84254W        W54069   2.946  38.838   3.386
84255W        W54070  22.188  32.007  14.883
84256W        W54071  23.592  42.450   0.747
84257W        W54072  19.189  32.618   2.299
84258W        W54073  20.151  22.057   0.458
84259W        W54074  31.042  44.455   1.241
84260W        W54075  17.612  38.850  11.412
84261W        W54076  25.580  37.506   4.249
84262W        W54077   4.244  36.383   0.958
84263W        W54078  16.132  20.568  11.995
84264W        W54079  40.960   1.913  12.558
84265W        W54080   4.874  42.820  12.012
84266W        W54081   2.326  22.217  12.462
84267W        W54082  37.880   0.436   2.681
84268W        W54083   7.863   7.318   4.247
84269W        W54084  21.164  22.719   0.933
84270W        W54085   4.849   4.335  11.862
84271W        W54086   0.356   5.298  14.805
84272W        W54087  21.672  12.355  14.963
84273W        W54088   6.258  20.584  12.419
84274W        W54089  32.520   3.743  13.831
84275W        W54090  39.476  20.028  12.848
84276W        W54091  13.298   2.775   2.263
84277W        W54092  27.078   7.710  10.527
84278W        W54093   4.303  24.226  13.925
84279W        W54094  17.662  30.141  13.451
84280W        W54095  20.674   9.210   4.220
84281W        W54096  44.351  32.100   1.248
84282W        W54097   6.894  17.593   3.159
84283W        W54098   5.272  26.638   0.847
84284W        W54099  27.664  13.158  14.933
84285W        W54100  44.772   6.308  13.046
84286W        W54101  28.183  33.992   0.321
84287W        W54102  23.544  30.417   1.395
84288W        W54103   9.647  43.331   0.398
84289W        W54104  34.864  13.824   0.947
84290W        W54105  42.981  28.068   0.468
84291W        W54106  43.940  38.958  13.889
84292W        W54107  20.652  34.067   0.403
84293W        W54108  20.748   3.944   0.828
84294W        W54109   2.266   0.268  12.013
84295W        W54110  24.218  39.512   4.629
84296W        W54111   2.723  22.044  14.802
84297W        W54112   1.345  44.288   3.327
84298W        W54113  22.111  34.428  12.400
84299W        W54114   5.800  10.699  12.407
84300W        W54115  14.140  21.514  11.953
84301W        W54116  38.956   2.869   1.901
84302W        W54117  29.939  39.065  14.823
84303W        W54118   1.248  24.492  13.326
84304W        W54119  25.046  26.602  13.903
84305W        W54120  33.588  25.654   3.193
84306W        W54121  18.665  16.795  12.343
84307W        W54122  44.809   4.735  12.002
84308W        W54123  21.053   3.763  10.564
84309W        W54124  31.516   4.282   0.779
84310W        W54125  42.377  35.586  10.505
84311W        W54126  21.243  35.448   4.198
84312W        W54127  33.574  26.599  13.320
84313W        W54128   9.684  16.768   0.406
84314W        W54129  24.219  19.538  11.391
84315W        W54130  32.940  18.662  10.605
84316W        W54131  14.187  24.601  14.320
84317W        W54132  30.909  27.999   2.664
84318W        W54133   8.699  11.711  13.340
84319W        W54134  17.171  22.168   0.923
84320W        W54135   7.280  44.481   4.817
84321W        W54136  25.081  11.246   4.242
84322W        W54137  17.793  20.555  13.935
84323W        W54138  37.042  24.653  13.976
84324W        W54139  25.020  44.911   4.141
84325W        W54140  10.298  23.548  11.421
84326W        W54141  36.886  13.718   1.343
84327W        W54142  42.976  24.554  10.454
84328W        W54143  31.059  31.481  12.526
84329W        W54144   4.375  16.662   1.827
84330W        W54145  27.172  13.676   0.273
84331W        W54146  30.985  38.934   2.874
84332W        W54147  35.361  24.019   1.260
84333W        W54148  16.626  12.348  13.375
84334W        W54149  38.549   6.347  11.500
84335W        W54150  21.560   0.362  12.034
84336W        W54151  25.562  16.287   3.643
84337W        W54152  27.490  26.050  10.595
84338W        W54153  43.447  16.121   3.285
84339W        W54154  17.578  21.103   3.780
84340W        W54155  19.070   5.411  11.438
84341W        W54156  28.542  39.991  10.511
84342W        W54157  34.605  20.579   0.899
84343W        W54158  29.425   8.242  10.971
84344W        W54159  25.966  11.358  12.563
84345W        W54160  19.657  15.592  11.905
84346W        W54161  29.530   8.304   2.192
84347W        W54162  18.114  10.694   0.931
84348W        W54163   0.878  22.570   5.243
84349W        W54164  20.042  29.559  10.408
84350W        W54165  10.340   2.746   4.814
84351W        W54166  36.974   2.284   0.429
84352W        W54167  40.922   4.905   2.223
84353W        W54168  32.028   3.335  12.961
84354W        W54169  29.466  40.919  13.542
84355W        W54170  44.270  43.374   4.308
84356W        W54171  44.414  15.791   2.185
84357W        W54172  18.552   6.741   0.433
84358W        W54173  19.189  36.437   4.691
84359W        W54174   2.810  10.650  12.096
84360W        W54175   9.685  41.886   3.789
84361W        W54176  40.966  24.192   3.696
84362W        W54177  41.509  26.164   1.874
84363W        W54178  28.675   8.693  13.861
84364W        W54179  40.043  42.445  10.979
84365W        W54180  12.150  28.950  14.314
84366W        W54181  17.631  41.388   4.806
84367W        W54182  33.386  31.143   1.392
84368W        W54183  39.986   9.214  10.919
84369W        W54184  36.562  36.429   3.658
84370W        W54185  21.236  22.513   1.711
84371W        W54186  14.654  40.539   2.736
84372W        W54187  12.147  15.169   2.730
84373W        W54188  12.309  21.676   4.710
84374W        W54189  37.070  40.395   3.815
84375W        W54190   8.366  17.741   3.775
84376W        W54191   5.271   2.818   3.831
84377W        W54192  25.599  23.547  13.872
84378W        W54193   0.836  27.677   4.337
84379W        W54194  12.780  21.659  12.912
84380W        W54195  33.511  28.066  12.452
84381W        W54196  19.238  16.729  10.542
84382W        W54197   3.779  20.112   1.449
84383W        W54198  10.171  18.233   2.669
84384W        W54199  18.241   9.393  14.302
84385W        W54200  13.325  23.139   4.646
84386W        W54201   4.209  28.021   3.196
84387W        W54202  44.927   9.851  11.124
84388W        W54203  43.884  32.556  13.529
84389W        W54204  32.556   4.894  13.331
84390W        W54205  13.262   1.456  13.450
84391W        W54206  38.525   9.820  12.501
84392W        W54207   8.340  21.240  13.028
84393W        W54208  38.929  22.714  12.061
84394W        W54209   1.355  12.646   0.281
84395W        W54210  35.860  37.481   2.884
84396W        W54211   6.777   6.226  11.926
84397W        W54212  44.355   5.301   4.149
84398W        W54213  27.585  14.785  10.572
84399W        W54214  29.633  13.267  10.901
84400W        W54215  15.205  24.577  13.320
84401W        W54216  35.488  26.134  13.967
84402W        W54217   3.382  32.575  11.479
84403W        W54218  14.337   6.399  10.424
84404W        W54219  39.836  23.242   2.325
84405W        W54220  12.363  24.564  12.072
84406W        W54221   2.298  43.289  12.971
84407W        W54222  22.535  42.777  10.984
84408W        W54223  35.570  38.912   2.819
84409W        W54224   1.242  21.533   0.479
84410W        W54225  12.643  15.118  12.535
84411W        W54226  25.152  21.591   1.775
84412W        W54227  21.103  11.762   0.328
84413W        W54228  31.578   6.426   0.804
84414W        W54229  25.092   1.955  12.842
84415W        W54230   2.233  42.523  14.508
84416W        W54231  11.262  13.214   1.415
84417W        W54232   6.845  16.694   2.243
84418W        W54233  31.523   8.869  10.960
84419W        W54234  22.541  39.875   9.984
84420W        W54235  34.408   8.898   1.396
84421W        W54236  11.181  16.082   4.746
84422W        W54237  37.049  26.078   4.653
84423W        W54238  21.121  33.938  10.622
84424W        W54239  35.048   4.311  11.857
84425W        W54240  32.577  21.108  14.899
84426W        W54241   2.820  17.200  12.418
84427W        W54242  25.998  34.967   3.365
84428W        W54243  28.036   7.309  11.914
84429W        W54244  13.309  38.848  13.818
84430W        W54245  25.004  31.110  13.985
84431W        W54246  15.320  44.774  13.388
84432W        W54247  23.511  13.167   3.194
84433W        W54248  27.161  19.757   0.950
84434W        W54249  26.564  19.675   1.914
84435W        W54250  35.493  42.382  12.540
84436W        W54251   2.356  19.140  11.019
84437W        W54252   1.284   6.692   4.622
84438W        W54253  20.227   5.931   4.151
84439W        W54254  24.127  24.190  14.019
84440W        W54255  37.565   5.690  11.983
84441W        W54256  40.308  25.117  14.485
84442W        W54257  23.688   3.429  10.963
84443W        W54258   4.845  42.491   5.133
84444W        W54259  33.395  44.333   9.944
84445W        W54260  12.254  38.994   9.951
84446W        W54261   2.298  12.344   3.630
84447W        W54262   8.669  38.883   3.179
84448W        W54263  20.244  12.741   0.765
84449W        W54264   4.813  27.077   2.298
84450W        W54265   7.829  42.007   3.232
84451W        W54266  15.212   4.206  11.588
84452W        W54267   5.361  11.662   0.844
84453W        W54268  23.616  33.537  14.879
84454W        W54269   1.968  25.567   0.884
84455W        W54270  32.033  43.439   3.630
84456W        W54271   4.932  17.211  14.275
84457W        W54272  17.299   8.826  12.569
84458W        W54273  10.248  16.316  11.459
84459W        W54274   5.924  37.081   1.271
84460W        W54275  16.095   8.855   1.907
84461W        W54276   4.874  34.531   0.877
84462W        W54277  31.434  15.204  13.421
84463W        W54278   1.893  25.503  14.880
84464W        W54279  41.996  20.613   1.748
84465W        W54280   6.724  13.255   4.164
84466W        W54281  40.339   7.218  11.469
84467W        W54282  32.510  40.311   4.714
84468W        W54283  11.773  17.590  12.352
84469W        W54284  42.010  40.499   0.845
84470W        W54285  22.221   9.255  11.487
84471W        W54286  23.699   8.664  12.939
84472W        W54287  23.165   6.301  14.981
84473W        W54288  13.171  20.084  10.935
84474W        W54289  16.799  42.988  14.489
84475W        W54290   4.725  44.890  12.940
84476W        W54291  17.719  16.255   1.324
84477W        W54292  43.955  26.645   0.455
84478W        W54293  24.042  41.876  14.282
84479W        W54294  43.930  30.040  10.476
84480W        W54295  18.752  41.499   0.393
84481W        W54296  15.654  22.222   1.399
84482W        W54297  24.636  18.556   0.812
84483W        W54298  35.418  16.667   3.182
84484W        W54299  42.348  17.642   2.388
84485W        W54300  21.574  39.434  12.378
84486W        W54301  18.757  24.217  11.050
84487W        W54302   4.294  10.334  13.860
84488W        W54303  25.135  14.691   4.308
84489W        W54304  22.060  20.705   2.327
84490W        W54305  14.190  13.149  10.538
84491W        W54306   7.176  13.293  11.976
84492W        W54307   1.435   1.832   2.868
84493W        W54308   7.876  28.929   5.082
84494W        W54309  42.813  38.467  12.405
84495W        W54310  19.588  11.804   4.773
84496W        W54311   0.316  13.220   0.852
84497W        W54312  33.113  24.621   4.688
84498W        W54313  14.211  29.104  12.970
84499W        W54314  14.773  27.451  12.919
84500W        W54315  33.453  21.247   5.132
84501W        W54316  11.354  12.747  13.542
84502W        W54317   1.252  33.480   3.863
84503W        W54318  25.094   2.748  11.545
84504W        W54319   0.806  34.565   1.734
84505W        W54320  41.459  42.009  12.081
84506W        W54321  34.925   2.379  12.495
84507W        W54322  43.439  26.620   3.297
84508W        W54323  28.108  26.125   2.762
84509W        W54324  32.635  12.760   4.210
84510W        W54325  11.859  12.675  12.036
84511W        W54326  25.629  34.433   0.454
84512W        W54327  21.672  14.808  12.012
84513W        W54328  29.169   0.977   3.236
84514W        W54329  42.378  23.647   1.313
84515W        W54330  21.197   5.794  10.947
84516W        W54331   4.209  23.518  10.952
84517W        W54332   5.919  43.943  10.474
84518W        W54333  43.483  12.791   3.770
84519W        W54334  25.561  10.283  14.354
84520W        W54335  38.930  18.758   3.302
84521W        W54336  16.277  42.878  12.873
84522W        W54337  41.510   0.253  14.494
84523W        W54338  37.949  42.408   1.708
84524W        W54339  28.152   6.907  13.521
84525W        W54340   7.781   1.389   0.823
84526W        W54341  13.834  12.735  12.539
84527W        W54342  28.090   5.340   4.204
84528W        W54343   7.808  14.732  12.895
84529W        W54344  12.836   8.792  14.446
84530W        W54345   1.915  33.461   2.793
84531W        W54346  11.622  37.843   4.311
84532W        W54347   2.335  32.900   1.723
84533W        W54348  17.678  14.311  13.445
84534W        W54349   2.933   1.899   1.825
84535W        W54350  29.107  12.203   4.334
84536W        W54351  14.755  15.782  14.445
84537W        W54352  16.792  16.279  12.874
84538W        W54353  17.268   6.313  11.887
84539W        W54354   9.158  20.578  11.448
84540W        W54355  26.503  17.787   0.444
84541W        W54356   2.961  35.440   2.369
84542W        W54357   5.399  29.426  11.453
84543W        W54358  10.293  14.161   9.985
84544W        W54359  38.033  20.149   1.441
84545W        W54360  29.432   9.231  13.407
84546W        W54361   0.488  32.990  13.961
84547W        W54362  37.531  13.215  12.014
84548W        W54363  38.860  21.222  13.351
84549W        W54364  42.415   5.789  13.443
84550W        W54365  11.330  18.595   2.328
84551W        W54366  22.175  39.921   0.790
84552W        W54367  23.516  16.196   3.831
84553W        W54368   0.420   8.846  11.913
84554W        W54369  15.814  41.830   0.909
84555W        W54370  21.538  38.065   1.397
84556W        W54371  13.150  37.854   2.804
84557W        W54372  13.137  19.661  11.916
84558W        W54373  14.098  40.909   3.778
84559W        W54374  13.193  34.950  12.054
84560W        W54375  40.043  32.910   3.655
84561W        W54376  42.381  16.572   2.667
84562W        W54377  43.364  22.661   1.337
84563W        W54378   4.913  20.611  11.442
84564W        W54379  25.003  42.914  12.017
84565W        W54380  31.566  44.885   2.244
84566W        W54381  32.587   0.332  13.991
84567W        W54382  22.169   1.815  10.529
84568W        W54383  27.473  35.541   1.376
84569W        W54384  32.631  34.552  14.426
84570W        W54385  25.624  14.114   5.290
84571W        W54386   0.748  30.414  13.448
84572W        W54387   0.774   4.380   1.761
84573W        W54388  11.282  22.170  11.070
84574W        W54389   1.908  17.648   4.205
84575W        W54390  41.861  21.641   3.717
84576W        W54391   2.743   8.763   1.820
84577W        W54392  18.673  13.846   2.803
84578W        W54393  20.269  24.104  11.478
84579W        W54394  23.123  24.613   2.218
84580W        W54395  44.449   8.896   2.323
84581W        W54396  15.687  20.604   3.340
84582W        W54397  44.915   4.926   1.807
84583W        W54398  22.600   6.323   2.686
84584W        W54399  39.509   3.431  13.924
84585W        W54400  36.419  39.462   1.724
84586W        W54401   4.793  31.082  12.520
84587W        W54402  22.194  18.211   5.085
84588W        W54403  43.323  17.687   0.762
84589W        W54404  32.406  34.902   1.817
84590W        W54405  13.740  40.967  11.098
84591W        W54406  16.683   3.304  14.971
84592W        W54407  32.914   0.426  14.899
84593W        W54408   4.433   0.400  14.784
84594W        W54409  35.971   4.879   3.790
84595W        W54410  24.633   3.372  14.366
84596W        W54411  10.757  42.425  12.483
84597W        W54412  21.263  20.691  14.845
84598W        W54413  18.601  44.407  10.961
84599W        W54414  34.036  44.814  12.076
84600W        W54415  39.973  15.218  12.528
84601W        W54416  30.519   0.988   1.703
84602W        W54417   1.915   5.913   1.355
84603W        W54418   7.334  26.175  13.325
84604W        W54419   6.895   3.855   3.149
84605W        W54420  39.316  10.695   3.684
84606W        W54421  30.089   9.227   2.194
84607W        W54422  43.429  36.017  10.463
84608W        W54423  20.701   9.371   0.423
84609W        W54424   9.254  41.824  10.127
84610W        W54425  34.027  36.886  10.960
84611W        W54426   5.419   6.373   2.202
84612W        W54427   5.839  22.633  13.037
84613W        W54428   8.828  35.094   0.816
84614W        W54429   2.293  16.607  11.466
84615W        W54430   6.869  42.908   0.938
84616W        W54431  28.497  42.325  12.012
84617W        W54432  42.954  38.500  12.910
84618W        W54433  31.149  15.615   4.640
84619W        W54434  36.006  21.701   2.800
84620W        W54435  18.178   3.943   3.194
84621W        W54436  10.873  16.775   2.279
84622W        W54437  36.864  40.532   0.391
84623W        W54438   7.289  33.008   1.274
84624W        W54439  13.312   3.737   2.254
84625W        W54440   4.870   2.747  14.854
84626W        W54441  28.577  44.271  12.064
84627W        W54442  28.676  36.525  14.401
84628W        W54443  20.567  33.898  14.881
84629W        W54444  35.014  21.699  12.362
84630W        W54445  32.531  13.617   3.679
84631W        W54446   9.287   7.902   1.276
84632W        W54447   8.894  29.038  13.329
84633W        W54448  12.134  29.148   4.793
84634W        W54449  10.341  34.562  12.528
84635W        W54450  37.851  10.744   4.786
84636W        W54451  43.304   6.279  12.445
84637W        W54452   4.219  37.921   0.846
84638W        W54453   9.701   1.255   2.758
84639W        W54454  36.443   0.396   0.322
84640W        W54455  31.012  28.126  10.025
84641W        W54456  27.668  15.751  14.919
84642W        W54457  16.238   3.339   4.296
84643W        W54458  25.573  38.882   1.889
84644W        W54459   8.900   6.873  12.534
84645W        W54460   2.837  18.199   3.202
84646W        W54461  18.716  30.968   1.370
84647W        W54462  20.182   8.750   4.701
84648W        W54463  36.062   0.410  12.068
84649W        W54464  43.371  34.107  11.891
84650W        W54465  18.619  37.434  10.927
84651W        W54466  23.528  32.999  14.892
84652W        W54467  16.638  27.948   3.835
84653W        W54468  25.639  40.041   1.416
84654W        W54469  43.799  33.950  12.063
84655W        W54470  28.174  43.373   4.149
84656W        W54471  20.655  19.588  11.424
84657W        W54472  42.340  29.640  14.495
84658W        W54473  24.063   9.182   0.839
84659W        W54474  26.126  43.020  11.959
84660W        W54475  36.017   4.920   3.170
84661W        W54476  41.887  42.931  11.859
84662W        W54477  28.035  13.138  10.640
84663W        W54478  12.752  41.341   4.151
84664W        W54479  41.829  13.277  11.967
84665W        W54480  10.384  20.673   2.210
84666W        W54481  35.410  37.556  10.530
84667W        W54482  14.223  11.335  14.393
84668W        W54483  41.821  22.024   0.947
84669W        W54484  37.060   0.346  11.442
84670W        W54485  20.727   4.237  10.903
84671W        W54486  30.149  32.981  14.323
84672W        W54487  29.127  40.854   1.898
84673W        W54488   2.292  27.633   4.648
84674W        W54489  33.090  43.018  13.397
84675W        W54490  24.124  14.750   0.266
84676W        W54491  17.281  27.669   0.361
84677W        W54492   1.893  34.978  12.395
84678W        W54493  18.073  39.944  11.902
84679W        W54494   1.237  13.339  12.473
84680W        W54495  44.431  13.809  14.965
84681W        W54496  30.486  40.456  11.521
84682W        W54497  35.977  20.629  13.493
84683W        W54498  19.135   8.660   3.350
84684W        W54499  39.882  44.873  10.987
84685W        W54500   5.917  22.729  12.497
84686W        W54501   0.911  23.064   1.432
84687W        W54502   4.423   9.735  11.867
84688W        W54503   6.368  32.910   0.259
84689W        W54504  22.006  24.001   2.886
84690W        W54505  21.253  17.268  13.954
84691W        W54506  41.030   0.836  10.438
84692W        W54507  31.142   3.247  14.838
84693W        W54508   9.653  23.088  12.525
84694W        W54509  16.655  31.924   1.895
84695W        W54510  22.131  41.346   1.303
84696W        W54511  30.441   3.839   1.697
84697W        W54512  24.565  21.747  12.919
84698W        W54513   7.315  25.053  12.344
84699W        W54514  28.053   1.449  11.990
84700W        W54515   1.273  35.603   1.412
84701W        W54516  27.556  20.658   0.272
84702W        W54517  42.854  29.957  13.414
84703W        W54518  44.787  22.025  14.795
84704W        W54519  30.432  19.632  10.546
84705W        W54520  36.028  34.566  11.001
84706W        W54521  29.670  35.457   3.703
84707W        W54522   5.783   8.277  11.946
84708W        W54523   2.829   3.281  12.841
84709W        W54524  20.694  35.367   2.241
84710W        W54525  28.096  42.913   2.792
84711W        W54526  41.493   4.253   1.780
84712W        W54527  26.655  41.842  14.286
84713W        W54528  10.193   0.283   3.855
84714W        W54529  18.236  36.923   3.150
84715W        W54530  39.395   1.795   0.358
84716W        W54531  17.627  44.824  10.942
84717W        W54532  31.098  12.192  12.568
84718W        W54533  31.476  26.521   0.940
84719W        W54534  42.314   3.759   0.256
84720W        W54535   3.354   9.375   3.644
84721W        W54536  36.035  42.517   0.856
84722W        W54537  20.578  26.989  14.473
84723W        W54538  10.317  22.228   0.837
84724W        W54539   8.197  35.858   0.956
84725W        W54540  17.228  35.948   9.931
84726W        W54541  31.632  24.181  14.865
84727W        W54542  18.552   3.253   4.329
84728W        W54543  30.479   6.704  13.998
84729W        W54544  40.356  23.730   3.807
84730W        W54545  12.744  20.206  10.597
84731W        W54546  35.478   3.795  13.056
84732W        W54547  39.009   3.445  12.455
84733W        W54548  27.173  16.158   4.819
84734W        W54549   5.301   4.398   0.801
84735W        W54550  18.754  29.570   1.786
84736W        W54551  38.443  43.329   4.745
84737W        W54552  20.684  11.822  10.994
84738W        W54553  35.377   1.448   0.804
84739W        W54554  26.193  22.248   2.236
84740W        W54555   9.333   3.390   0.917
84741W        W54556  33.555  40.965   2.364
84742W        W54557   4.294  26.087   4.136
84743W        W54558   8.369   4.759  14.426
84744W        W54559  22.553  43.404   3.234
84745W        W54560  41.987  13.750  13.317
84746W        W54561   7.697  20.725   3.853
84747W        W54562  10.795   3.857   1.716
84748W        W54563  19.238  15.594   1.213
84749W        W54564  16.729  38.453  11.970
84750W        W54565  14.207   8.214   0.368
84751W        W54566  41.879   8.384   3.231
84752W        W54567  24.062  42.930   5.246
84753W        W54568  43.829  21.052  11.435
84754W        W54569  43.363   7.293  13.025
84755W        W54570  43.803  18.691   4.723
84756W        W54571  11.170  39.363   4.194
84757W        W54572  22.185  17.243   0.291
84758W        W54573  12.629  21.090   4.702
84759W        W54574  25.107  44.804  12.349
84760W        W54575   5.368  14.636  13.514
84761W        W54576  13.323  23.646   5.113
84762W        W54577   8.284  20.753   3.238
84763W        W54578  13.130  16.093  10.475
84764W        W54579  24.100  18.733   3.832
84765W        W54580  38.991   5.279   1.314
84766W        W54581  34.515  31.941   9.969
84767W        W54582  15.809  33.586  13.400
84768W        W54583  20.541  13.312   3.705
84769W        W54584  39.521  19.210   0.963
84770W        W54585  17.068  41.898   3.713
84771W        W54586  14.704  10.854  10.521
84772W        W54587  37.481   2.376   0.401
84773W        W54588  38.853  35.530  13.902
84774W        W54589  39.884  16.588  14.356
84775W        W54590   0.286  16.739   0.342
84776W        W54591  13.109  38.406   0.266
84777W        W54592   3.873  12.635  10.976
84778W        W54593  21.169   1.954  11.588
84779W        W54594   1.941  40.870   0.949
84780W        W54595  32.605   6.834  10.553
84781W        W54596  44.986  29.988   3.727
84782W        W54597  36.062   3.415  12.382
84783W        W54598  33.027   6.684   4.144
84784W        W54599  14.832  18.121  11.478
84785W        W54600  27.538   3.731  13.063
84786W        W54601   0.407  33.402   0.873
84787W        W54602  20.034  32.041  10.641
84788W        W54603  33.591  43.855  10.952
84789W        W54604   3.901   5.749   0.328
84790W        W54605   8.661  36.372  12.036
84791W        W54606  21.634  22.510   1.783
84792W        W54607  44.483   7.225   2.714
84793W        W54608  30.599  39.059  13.443
84794W        W54609   9.746   1.311  10.897
84795W        W54610  17.764  31.969   0.801
84796W        W54611  17.747  37.975  13.336
84797W        W54612  23.171  15.229  10.579
84798W        W54613   3.936  14.641  13.831
84799W        W54614  22.160   8.793   0.356
84800W        W54615  32.143  21.111   0.883
84801W        W54616  28.106   6.324   0.847
84802W        W54617  22.575   3.759  13.500
84803W        W54618  30.931  20.608   1.287
84804W        W54619  27.445   9.694  14.001
84805W        W54620  12.852   3.310   0.745
84806W        W54621   9.841  14.281  10.894
84807W        W54622  17.602   4.381  14.972
84808W        W54623  25.712  39.961   5.132
84809W        W54624  37.522  42.445   1.388
84810W        W54625  42.877   3.888   2.766
84811W        W54626  18.740  37.410  12.389
84812W        W54627  10.697   1.934  11.372
84813W        W54628  42.924  22.238   1.364
84814W        W54629  15.582  26.495  12.859
84815W        W54630   2.339  12.323  12.872
84816W        W54631   0.294  16.737  14.501
84817W        W54632   5.865  36.552   0.379
84818W        W54633  41.868  28.153  12.997
84819W        W54634  14.675   8.362  10.541
84820W        W54635   8.878  36.498   4.294
84821W        W54636   1.389  17.209   4.726
84822W        W54637  16.142  22.087  12.054
84823W        W54638  35.010  39.504  11.872
84824W        W54639   7.361  22.049  11.114
84825W        W54640   5.303  25.996  11.435
84826W        W54641  26.991  22.096  10.503
84827W        W54642   9.211  24.196   2.245
84828W        W54643  10.760  22.203  14.320
84829W        W54644  30.036  12.850   3.199
84830W        W54645   2.728  11.750  13.350
84831W        W54646   7.692   1.264   0.375
84832W        W54647  35.933  12.342  11.029
84833W        W54648  24.179  19.612   0.728
84834W        W54649  12.251  24.160   0.858
84835W        W54650  12.147  37.934  10.554
84836W        W54651  42.908  24.118   0.450
84837W        W54652  34.007   1.783  14.327
84838W        W54653  36.422  43.936   1.756
84839W        W54654   3.302   5.360   3.865
84840W        W54655   4.713  18.570   1.330
84841W        W54656  38.860   4.928  13.945
84842W        W54657  30.648  15.312  11.127
84843W        W54658  17.615  21.023   1.406
84844W        W54659  16.201  33.952   3.339
84845W        W54660   5.708  29.162   0.792
84846W        W54661  19.234  14.677  12.869
84847W        W54662  41.435  33.888  13.318
84848W        W54663  43.334  33.907  13.050
84849W        W54664  14.793  32.440   4.650
84850W        W54665  24.675  34.473  14.863
84851W        W54666  28.487  43.491   4.166
84852W        W54667  30.914  27.980   1.269
84853W        W54668  24.505  34.575   2.812
84854W        W54669  12.159  19.129   4.164
84855W        W54670  33.537   0.967   4.193
84856W        W54671   1.938  19.049  12.388
84857W        W54672   0.987  41.438  12.077
84858W        W54673  20.103  34.608  12.492
84859W        W54674  20.657  26.544   3.719
84860W        W54675  43.481  31.974  12.378
84861W        W54676  24.633   4.322   1.911
84862W        W54677  44.923  21.717   4.802
84863W        W54678   7.809  29.556   4.338
84864W        W54679   3.871  31.476   4.740
84865W        W54680   4.416  10.679  11.984
84866W        W54681  14.198  34.533   4.719
84867W        W54682  17.230  27.538   1.890
84868W        W54683   6.801  36.448   2.245
84869W        W54684  13.805  38.338  14.932
84870W        W54685  19.637  32.628   2.266
84871W        W54686  10.850   2.298   1.899
84872W        W54687   7.340  41.997  11.988
84873W        W54688  42.966  34.524   4.835
84874W        W54689   8.724  33.389  13.882
84875W        W54690  35.398  17.164  11.011
84876W        W54691  19.262  30.974  11.922
84877W        W54692   7.344   6.762   3.275
84878W        W54693   7.276   6.892  13.849
84879W        W54694  23.183  18.726   2.368
84880W        W54695  36.095   0.879   2.304
84881W        W54696  11.773   2.828  11.508
84882W        W54697   7.869  32.456   0.344
84883W        W54698  20.189  42.318   2.306
84884W        W54699  16.234  38.918   3.359
84885W        W54700   2.850  14.310   2.738
84886W        W54701  12.688   0.308   0.950
84887W        W54702  32.073  36.575   3.712
84888W        W54703  10.763  37.412   2.821
84889W        W54704   8.705  12.640   3.749
84890W        W54705  10.870  39.493   3.317
84891W        W54706  33.387  19.239   4.205
84892W        W54707  11.291   8.268  11.118
84893W        W54708  31.905  38.442   0.855
84894W        W54709   1.264  33.434  12.503
84895W        W54710  21.541   9.347  13.382
84896W        W54711   4.725  24.203   3.744
84897W        W54712  17.656   3.883  10.536
84898W        W54713  25.710  42.800  13.947
84899W        W54714  31.101  23.552  13.889
84900W        W54715  19.774   8.405  14.824
84901W        W54716  33.495  31.927  10.462
84902W        W54717  36.887  23.547  12.404
84903W        W54718  39.512  43.903  13.861
84904W        W54719   5.217  16.800  11.606
84905W        W54720  33.081  14.645  12.938
84906W        W54721  26.641  13.147  10.143
84907W        W54722   4.312  10.167   1.935
84908W        W54723  11.321  22.253  13.894
84909W        W54724  33.975  29.522  12.562
84910W        W54725  38.907  13.210  13.884
84911W        W54726   4.887  39.020   1.868
84912W        W54727  25.687   1.364  12.432
84913W        W54728  16.272  12.703  14.887
84914W        W54729  41.848  11.818  10.583
84915W        W54730  30.131  26.574   1.385
84916W        W54731  38.356  17.555   1.872
84917W        W54732  15.305  17.142   2.741
84918W        W54733   4.771  42.820   1.416
84919W        W54734  35.081  40.428   2.313
84920W        W54735  13.160   8.764   2.889
84921W        W54736   7.177  38.009  12.558
84922W        W54737  10.693  17.584   5.198
84923W        W54738  12.301  43.866  11.900
84924W        W54739  30.975  44.886   4.733
84925W        W54740  33.878  19.712  14.896
84926W        W54741  43.970  30.634  14.509
84927W        W54742  27.506  33.960   1.368
84928W        W54743  28.560  20.044   2.283
84929W        W54744  24.659  33.461  14.758
84930W        W54745  43.407   2.764  13.014
84931W        W54746  15.667  11.306  10.000
84932W        W54747  28.085  28.557   3.360
84933W        W54748  10.299   2.457  14.354
84934W        W54749   6.402  32.086   4.325
84935W        W54750   7.369  20.035   3.359
84936W        W54751  42.929  33.499  14.827
84937W        W54752  27.520  16.095  10.501
84938W        W54753   0.327  29.088   2.726
84939W        W54754  34.961  39.981   0.384
84940W        W54755  35.445  35.517  13.015
84941W        W54756  15.126  39.997  13.804
84942W        W54757   7.899  32.926  11.987
84943W        W54758  12.638  24.483  10.913
84944W        W54759  39.337  13.842   2.275
84945W        W54760  15.315   6.695   2.267
84946W        W54761  38.075  26.466  11.499
84947W        W54762  31.511  20.645  13.923
84948W        W54763  21.674  14.685   1.722
84949W        W54764   3.279  29.042   1.871
84950W        W54765  26.584  18.768  10.478
84951W        W54766  16.592  21.093  13.946
84952W        W54767  39.031  21.154  11.112
84953W        W54768  40.946   1.314  11.078
84954W        W54769   3.396  37.043   3.187
84955W        W54770  36.843  31.571   9.521
84956W        W54771  14.322  41.502   1.867
84957W        W54772  37.027  41.413   1.798
84958W        W54773  18.133  17.258  10.417
84959W        W54774  16.265  30.587   1.695
84960W        W54775  31.972  43.315  10.435
84961W        W54776  13.682  11.698   2.773
84962W        W54777   4.765  23.223   4.775
84963W        W54778  10.264  32.559   1.422
84964W        W54779  28.623  23.201   4.694
84965W        W54780  17.743  37.339   3.727
84966W        W54781  41.310   2.903   3.220
84967W        W54782  25.142   1.789   1.301
84968W        W54783  37.936  38.414   1.853
84969W        W54784  30.594  40.435  11.956
84970W        W54785  29.118  43.969   1.905
84971W        W54786  22.520  19.076  13.455
84972W        W54787  36.925   6.721  12.027
84973W        W54788  16.144   9.166  13.419
84974W        W54789   1.859  29.132  13.957
84975W        W54790  41.399  10.740  12.077
84976W        W54791  39.895  18.667  11.507
84977W        W54792  18.259  38.998  10.548
84978W        W54793  43.801  33.580   1.330
84979W        W54794  27.684  31.531   1.321
84980W        W54795  37.374  16.591   4.685
84981W        W54796   3.838   8.738   4.150
84982W        W54797   2.884  13.766   3.300
84983W        W54798  27.050   4.244   4.695
84984W        W54799   9.793  26.687   0.403
84985W        W54800  31.522  28.564   2.342
84986W        W54801  43.471   2.863  10.478
84987W        W54802  40.983  36.881  13.378
84988W        W54803  14.340  32.104  12.342
84989W        W54804  13.135  21.185  10.550
84990W        W54805  28.954  21.166   4.176
84991W        W54806  21.727  28.671  14.426
84992W        W54807  40.339   2.328   5.252
84993W        W54808   1.329  16.227  12.395
84994W        W54809  13.161  44.465   0.934
84995W        W54810   9.768  34.577  13.933
84996W        W54811  44.852  25.521   2.697
84997W        W54812  18.553  43.981  13.958
84998W        W54813  24.082  22.728   4.647
84999W        W54814  32.890  42.453  12.476
85000W        W54815  16.155   2.795  14.459
85001W        W54816   7.698  28.580   4.730
85002W        W54817   5.755  25.602  11.393
85003W        W54818  11.227  32.974   2.743
85004W        W54819  26.090  14.193  10.890
85005W        W54820  33.961  24.119  12.048
85006W        W54821  36.496  38.531   3.744
85007W        W54822  42.317   2.868  13.345
85008W        W54823   5.808  22.168   2.755
85009W        W54824   0.966  23.208   0.277
85010W        W54825   3.756   7.758  12.510
85011W        W54826  17.646  15.164  11.862
85012W        W54827  33.499  32.096  12.475
85013W        W54828  27.492  27.046  10.578
85014W        W54829  16.160  15.644   2.715
85015W        W54830  41.378  18.764  12.454
85016W        W54831  25.601  22.176  12.435
85017W        W54832  29.954  18.741   0.961
85018W        W54833  38.339  23.997  13.012
85019W        W54834  10.723  20.750   2.269
85020W        W54835  13.207  17.754  10.153
85021W        W54836  11.265  11.348  14.413
85022W        W54837  15.329   5.367   0.275
85023W        W54838  35.543  33.969  11.992
85024W        W54839   8.717   1.772  12.414
85025W        W54840  41.899   9.836  11.094
85026W        W54841  38.048   6.706   3.382
85027W        W54842  18.109   5.786   0.915
85028W        W54843  29.657  29.105   2.671
85029W        W54844  43.778  13.229  11.906
85030W        W54845  25.631  24.171  11.054
85031W        W54846  26.690  13.320   1.729
85032W        W54847   8.846  40.531  12.411
85033W        W54848  40.960   8.264   4.211
85034W        W54849  25.476  26.538  12.509
85035W        W54850  15.811  42.330  10.556
85036W        W54851  23.057   8.315  12.471
85037W        W54852  29.529  24.198  14.510
85038W        W54853   5.707  26.627  13.403
85039W        W54854  18.075  19.622   2.882
85040W        W54855   3.744  36.450  13.423
85041W        W54856  26.533  43.973   1.839
85042W        W54857  24.585  13.163  11.543
85043W        W54858  42.832  26.598   4.649
85044W        W54859   1.858  18.559  12.068
85045W        W54860  15.598  11.624  14.402
85046W        W54861  18.610  23.074   2.220
85047W        W54862  33.430  15.802   3.308
85048W        W54863  13.171  29.442   1.745
85049W        W54864  18.565  20.260   3.638
85050W        W54865  30.472  33.464   1.914
85051W        W54866  11.373  12.707  13.031
85052W        W54867   6.920   3.852  13.310
85053W        W54868  27.098  40.989   1.766
85054W        W54869  34.480  34.026   5.225
85055W        W54870  39.522   8.313  11.498
85056W        W54871  10.285  28.091  11.904
85057W        W54872  28.956  23.102   2.801
85058W        W54873  29.458  35.979   2.321
85059W        W54874  32.907   8.665   1.880
85060W        W54875  42.958   2.282  12.942
85061W        W54876  39.559   1.331  11.459
85062W        W54877  30.134  19.097  10.943
85063W        W54878   6.785  40.523   4.166
85064W        W54879  33.988  31.937  11.904
85065W        W54880  21.539  36.467  10.581
85066W        W54881   6.705  10.738  12.575
85067W        W54882   3.872  25.024  10.966
85068W        W54883  29.939  16.812   3.743
85069W        W54884  11.251  42.912  13.433
85070W        W54885  20.062   8.340  12.499
85071W        W54886  13.232   6.241  11.943
85072W        W54887  36.022  18.190   3.819
85073W        W54888  28.033  33.977  12.381
85074W        W54889   2.379  39.373  13.964
85075W        W54890  39.864  21.710  14.412
85076W        W54891  43.939   5.731   0.748
85077W        W54892   8.671  43.373  14.960
85078W        W54893  16.246  11.691  11.096
85079W        W54894  15.112  40.005  12.393
85080W        W54895   5.833  39.991   1.330
85081W        W54896   9.380  18.159   3.218
85082W        W54897   6.198  28.113  11.586
85083W        W54898   6.811   7.378   0.455
85084W        W54899  19.678   4.413   3.245
85085W        W54900  17.072  29.008  13.925
85086W        W54901  37.910  15.121   3.840
85087W        W54902  30.430  35.923   3.753
85088W        W54903  19.640  16.590  13.811
85089W        W54904   4.268   4.728  12.387
85090W        W54905  32.112  15.708  10.146
85091W        W54906  17.246   3.390  12.489
85092W        W54907  22.552  41.480   1.706
85093W        W54908  21.559  37.892   2.779
85094W        W54909  22.065  13.764  10.532
85095W        W54910  14.271  41.795   1.415
85096W        W54911  36.503  12.309   4.697
85097W        W54912  21.608  38.479   0.380
85098W        W54913  26.007  11.862  10.908
85099W        W54914  24.581  36.583  14.848
85100W        W54915   6.202   1.949   2.893
85101W        W54916  33.120  32.915  13.464
85102W        W54917  16.583  29.623   1.237
85103W        W54918  27.632  15.223  12.344
85104W        W54919  35.951   4.334   4.671
85105W        W54920  10.845  41.355  12.984
85106W        W54921   3.816  19.267  14.277
85107W        W54922  38.989  18.699   2.715
85108W        W54923  11.829  34.073  14.454
85109W        W54924  36.975  23.622  13.342
85110W        W54925  10.175   7.768  11.868
85111W        W54926  36.996   2.374  12.541
85112W        W54927  10.699  32.545   3.192
85113W        W54928  23.110  39.965   3.860
85114W        W54929  26.143  26.183  13.543
85115W        W54930  37.020  28.956   2.264
85116W        W54931  28.161  41.968  12.027
85117W        W54932  23.088  33.999  11.390
85118W        W54933  30.531  40.447   4.242
85119W        W54934  27.595  29.595   0.895
85120W        W54935  14.137   7.746   2.840
85121W        W54936   8.224  25.486  10.500
85122W        W54937   7.769  23.171   0.466
85123W        W54938   1.916  31.097  14.822
85124W        W54939  41.510  25.184   4.597
85125W        W54940  39.375  23.106   0.789
85126W        W54941  10.652  30.083  12.388
85127W        W54942  15.695  24.980   0.942
85128W        W54943   6.679  28.469  14.776
85129W        W54944   2.472  10.682   0.953
85130W        W54945  32.576  23.602   0.453
85131W        W54946  29.458  12.206  12.023
85132W        W54947  39.389  44.398   4.164
85133W        W54948   3.724  25.541   4.752
85134W        W54949   7.673  34.871  14.441
85135W        W54950  34.936  22.569   2.741
85136W        W54951  44.423  39.408  13.849
85137W        W54952  35.959   2.436  14.388
85138W        W54953  23.053   1.935   1.250
85139W        W54954  21.180  26.616  10.429
85140W        W54955  11.632  14.671   4.154
85141W        W54956  42.874  18.655  11.010
85142W        W54957   3.888  17.304   4.349
85143W        W54958  20.075   8.344  11.400
85144W        W54959   5.710  17.753   2.358
85145W        W54960  24.619  11.623  13.054
85146W        W54961  31.018  34.486  12.934
85147W        W54962   1.372  16.256  11.095
85148W        W54963  10.332  20.584   1.330
85149W        W54964  27.463  28.063   4.806
85150W        W54965  19.134  37.933  10.937
85151W        W54966  27.495  14.812  12.051
85152W        W54967  17.295  35.965   3.350
85153W        W54968  20.671  41.815  13.941
85154W        W54969  43.999  17.770  13.909
85155W        W54970  13.649  20.644  12.399
85156W        W54971  36.903  42.012   0.248
85157W        W54972  27.146  33.436   2.301
85158W        W54973   5.409  24.555  11.102
85159W        W54974  34.039   4.868   0.815
85160W        W54975  38.446  13.761  14.936
85161W        W54976  10.640  44.841   1.930
85162W        W54977   2.241   0.262   3.767
85163W        W54978  11.134  20.117   5.314
85164W        W54979  36.545  30.579   0.318
85165W        W54980   7.798  39.560  10.444
85166W        W54981   3.824  36.437  14.874
85167W        W54982   9.841  37.409   0.404
85168W        W54983  26.007  28.015  13.890
85169W        W54984  24.013   8.358   4.247
85170W        W54985  32.117  36.988   3.236
85171W        W54986  15.101  17.797   4.213
85172W        W54987  14.804   3.317  13.425
85173W        W54988  37.972   9.321  11.547
85174W        W54989  22.631   1.397  10.519
85175W        W54990  29.578  28.643  13.010
85176W        W54991  16.702  28.627   0.946
85177W        W54992  13.195  31.431  11.077
85178W        W54993  13.341  10.767   3.835
85179W        W54994   2.314  39.433   1.821
85180W        W54995  36.463   4.266  10.495
85181W        W54996  16.800  24.692   0.746
85182W        W54997  16.605   6.294   2.865
85183W        W54998  24.208  22.569  12.881
85184W        W54999   5.232  18.150  10.474
85185W        W55000  41.824  24.561  14.290
85186W        W55001   1.853  32.597  14.389
85187W        W55002  43.325  11.713   3.383
85188W        W55003   1.459  40.811  14.766
85189W        W55004   3.280  33.403   2.777
85190W        W55005   9.166   0.949  14.406
85191W        W55006  13.725  21.194  10.420
85192W        W55007  15.710  42.801  13.918
85193W        W55008   1.289  32.923  13.798
85194W        W55009  42.900   0.951  13.415
85195W        W55010   7.275  23.084   3.814
85196W        W55011  23.985  28.588  14.798
85197W        W55012  28.498  30.065   1.443
85198W        W55013  29.484   2.272   0.849
85199W        W55014   6.340  25.166  14.867
85200W        W55015  25.520  37.863   5.265
85201W        W55016   8.334   2.947  12.891
85202W        W55017  26.099  21.198   0.895
85203W        W55018  20.213   1.333   2.850
85204W        W55019   8.351  26.203  12.968
85205W        W55020  20.672   4.879  12.987
85206W        W55021  40.968  16.174  12.495
85207W        W55022  29.983  21.257  11.959
85208W        W55023  10.222  38.325  14.305
85209W        W55024  15.117  11.644  14.902
85210W        W55025  31.535  13.110  12.472
85211W        W55026  11.627   5.283   2.710
85212W        W55027  18.652   1.947   1.431
85213W        W55028   8.860  19.153   3.230
85214W        W55029  16.115  19.760   0.432
85215W        W55030  25.634  10.862  11.964
85216W        W55031  29.952   7.675   1.695
85217W        W55032   2.287  44.791   2.686
85218W        W55033  39.063  41.421  11.404
85219W        W55034   0.892   7.703   4.265
85220W        W55035   1.381   0.260  14.473
85221W        W55036  23.549  35.043  12.954
85222W        W55037  20.204  16.692  12.845
85223W        W55038   0.321  22.589  14.490
85224W        W55039  27.618   4.441  13.892
85225W        W55040   8.817  29.650  12.560
85226W        W55041  33.448  20.631   1.913
85227W        W55042  21.256  29.081   2.767
85228W        W55043  12.784  11.685   1.868
85229W        W55044  18.604   0.326  14.452
85230W        W55045  39.830  44.360   4.614
85231W        W55046   6.419  39.519  11.885
85232W        W55047  15.700   6.822   1.710
85233W        W55048  24.567   1.840   3.351
85234W        W55049  27.161   4.396  11.520
85235W        W55050  26.176   2.283   2.207
85236W        W55051  26.495  19.555  12.027
85237W        W55052  20.693  36.005   4.342
85238W        W55053   9.882   5.258  13.843
85239W        W55054  30.089  31.135   4.834
85240W        W55055  30.163   8.301   4.249
85241W        W55056  13.205  26.640  14.484
85242W        W55057  29.459   6.422  14.276
85243W        W55058  32.486  34.529  13.832
85244W        W55059  27.027   7.212   1.854
85245W        W55060  38.347  15.639  12.391
85246W        W55061  42.782   5.894  12.400
85247W        W55062   1.891   8.339  12.072
85248W        W55063   1.386  32.060   3.845
85249W        W55064  12.744  35.010   3.267
85250W        W55065  30.911  18.757  13.931
85251W        W55066  10.166   2.444  11.110
85252W        W55067   8.880  28.122   2.739
85253W        W55068  33.456  23.537   3.382
85254W        W55069  41.790  12.161   4.231
85255W        W55070   8.313  28.090  12.412
85256W        W55071  25.105   5.344  11.566
85257W        W55072  29.944  25.492   2.266
85258W        W55073  27.063   6.872  11.024
85259W        W55074  30.935  39.891  10.541
85260W        W55075   5.920  17.744   0.308
85261W        W55076  30.937  17.166  10.611
85262W        W55077  44.945   2.938   3.695
85263W        W55078  18.183  41.345  13.979
85264W        W55079  11.656   5.707  14.345
85265W        W55080  18.137  17.134  13.448
85266W        W55081  34.995  10.659  13.805
85267W        W55082  18.272  33.970  11.521
85268W        W55083   6.768   5.725  11.502
85269W        W55084  40.358  15.223   0.947
85270W        W55085  36.574  24.997   5.110
85271W        W55086  18.661  20.218   3.275
85272W        W55087  40.051  10.246  12.360
85273W        W55088  10.697  10.693   0.910
85274W        W55089  42.360  21.682  10.597
85275W        W55090  37.008  34.031   3.643
85276W        W55091  14.222  36.052   1.741
85277W        W55092  15.752  19.753  12.400
85278W        W55093  39.930  10.717   0.264
85279W        W55094   7.714  12.761   3.273
85280W        W55095  25.043  33.419   0.461
85281W        W55096   3.790  36.402   0.426
85282W        W55097  27.151   3.804  10.612
85283W        W55098   7.344   5.344  12.040
85284W        W55099   1.459  24.216   2.368
85285W        W55100   8.220   4.274  11.601
85286W        W55101  15.104  36.457  14.375
85287W        W55102  27.632  26.548  12.019
85288W        W55103  10.323  37.376  10.430
85289W        W55104  34.996   5.400   0.415
85290W        W55105   5.801  43.329   4.638
85291W        W55106  40.016  26.637  12.483
85292W        W55107  29.445  31.648  13.871
85293W        W55108   0.376  10.345   1.728
85294W        W55109  16.613  33.064  12.936
85295W        W55110  21.722  35.587  14.027
85296W        W55111  38.967  16.080  10.928
85297W        W55112  28.931   7.771  11.483
85298W        W55113  25.614  24.025   0.901
85299W        W55114  30.995  19.658  12.437
85300W        W55115  43.945  33.919  14.798
85301W        W55116  17.642  34.988  12.376
85302W        W55117  12.723   1.950   4.646
85303W        W55118  12.745   0.858   0.914
85304W        W55119   7.353  40.419   0.356
85305W        W55120   0.978  29.942  13.979
85306W        W55121  25.707  13.625  13.487
85307W        W55122  29.529  17.599   0.817
85308W        W55123  26.491  42.988  14.976
85309W        W55124  39.997   3.409   4.700
85310W        W55125   3.743  42.790   5.247
85311W        W55126  23.675  34.995   1.924
85312W        W55127  35.581  10.271  13.319
85313W        W55128  28.587  11.837  10.120
85314W        W55129   2.379  16.708  10.603
85315W        W55130  30.505  17.123   1.389
85316W        W55131  10.212  34.427   3.232
85317W        W55132   2.343  44.329   3.185
85318W        W55133  31.581   4.830   0.869
85319W        W55134  44.901   8.275  12.986
85320W        W55135   7.250  20.573   3.200
85321W        W55136   5.763  18.113   4.140
85322W        W55137   5.697  42.970  11.890
85323W        W55138   2.829  11.152  13.518
85324W        W55139  25.050  28.050   3.714
85325W        W55140   0.860   2.852  14.861
85326W        W55141  18.546   4.281  10.888
85327W        W55142   9.149   2.445  10.576
85328W        W55143   2.769   2.747   4.667
85329W        W55144   6.428   0.769   5.242
85330W        W55145  30.638  27.194  11.122
85331W        W55146  22.105  30.640  14.778
85332W        W55147  22.014  28.652   1.763
85333W        W55148  10.204  17.592   4.299
85334W        W55149   9.234  18.767   2.305
85335W        W55150  22.182  25.095   0.877
85336W        W55151  15.192   7.216   2.698
85337W        W55152  37.400  14.295   0.950
85338W        W55153  37.929  44.346  11.976
85339W        W55154  38.977  42.004   2.415
85340W        W55155  23.675  26.679  11.878
85341W        W55156   9.305  13.700  12.834
85342W        W55157  37.402  34.423   0.898
85343W        W55158   7.884  36.421   2.793
85344W        W55159  11.289  22.532   1.291
85345W        W55160  29.092  17.769   2.339
85346W        W55161  44.008  10.158   4.310
85347W        W55162   4.735  37.391   4.167
85348W        W55163  21.746  15.615  14.836
85349W        W55164  18.112  17.638  13.379
85350W        W55165  25.131  12.297   3.659
85351W        W55166   6.293   2.790  12.474
85352W        W55167  22.640  23.101  11.441
85353W        W55168  37.366  33.525   0.864
85354W        W55169  40.506  43.332  11.008
85355W        W55170  32.075  37.379   4.119
85356W        W55171   4.370  30.497  13.038
85357W        W55172   4.334  19.738  14.967
85358W        W55173  31.603  18.568  12.835
85359W        W55174  21.085  34.949   1.786
85360W        W55175  15.664  31.064  10.897
85361W        W55176  30.453  22.562  12.503
85362W        W55177   8.861  39.521   5.578
85363W        W55178  30.926   3.855   2.310
85364W        W55179   6.291  25.550  10.963
85365W        W55180   6.756  44.384   1.755
85366W        W55181  44.762  28.103   3.688
85367W        W55182   9.760   5.696  11.429
85368W        W55183  37.062  23.626   1.791
85369W        W55184  10.212  22.572   3.282
85370W        W55185  36.515   2.760   4.763
85371W        W55186  25.472  41.865  11.524
85372W        W55187  40.847  15.784  10.449
85373W        W55188  39.822  36.407   2.194
85374W        W55189   2.344  31.600  14.508
85375W        W55190   9.376  44.927  12.936
85376W        W55191  25.200   9.748   3.191
85377W        W55192   1.466  43.987   2.731
85378W        W55193   0.977  25.075  13.311
85379W        W55194   4.236  27.587   0.787
85380W        W55195  35.893   1.238   4.635
85381W        W55196  38.328  41.904  13.883
85382W        W55197  39.923  11.707   1.310
85383W        W55198  41.372  25.073   0.305
85384W        W55199  36.400  27.105  10.597
85385W        W55200  11.203  15.261   1.267
85386W        W55201  17.070  30.556   4.166
85387W        W55202  19.775  27.615  13.509
85388W        W55203  37.511  34.908   5.204
85389W        W55204  27.455  10.812   2.326
85390W        W55205  44.764  43.904   1.892
85391W        W55206  31.462   2.724  11.582
85392W        W55207   7.370   1.317  13.429
85393W        W55208  11.292  30.454   3.380
85394W        W55209  20.695  11.173   2.189
85395W        W55210  29.115  41.410  12.348
85396W        W55211   6.350   4.379  11.527
85397W        W55212  21.172   8.322  14.847
85398W        W55213  14.626   1.383  11.425
85399W        W55214   4.284  36.061  12.970
85400W        W55215  20.049  31.579  12.848
85401W        W55216   0.814  16.260   3.205
85402W        W55217  22.141   2.815  14.312
85403W        W55218  20.062  24.506   2.188
85404W        W55219  15.291  15.646  13.321
85405W        W55220  40.507  37.414  13.319
85406W        W55221  17.301  11.701   2.687
85407W        W55222   8.211  28.143   4.624
85408W        W55223   2.350   0.859   0.267
85409W        W55224   1.742  35.012   4.239
85410W        W55225  28.676  30.033  13.873
85411W        W55226  22.638  30.603   1.447
85412W        W55227  14.762   0.292  11.947
85413W        W55228  41.864  17.181   3.834
85414W        W55229  32.608   2.382  11.075
85415W        W55230  10.773  28.051  10.607
85416W        W55231   2.425  15.107   4.649
85417W        W55232  43.402  32.525  10.606
85418W        W55233   5.214  26.472  11.997
85419W        W55234  44.479   1.946  12.978
85420W        W55235  42.341  23.564  12.576
85421W        W55236  32.058  34.022  14.021
85422W        W55237  27.608  21.648  14.394
85423W        W55238   4.803  17.118  11.021
85424W        W55239  24.103  18.176   4.695
85425W        W55240  30.925  29.547   0.752
85426W        W55241  26.016   7.838  13.927
85427W        W55242   0.930  12.834  13.533
85428W        W55243  43.000  37.070   4.630
85429W        W55244  39.039   1.874   3.303
85430W        W55245  29.546  13.600   4.226
85431W        W55246  32.400  29.546  10.001
85432W        W55247  25.605   9.823   2.677
85433W        W55248  37.891  18.651   2.693
85434W        W55249   9.711  42.343  11.031
85435W        W55250  12.164  29.067  10.529
85436W        W55251  44.920   7.899   3.159
85437W        W55252  13.329  26.203  14.480
85438W        W55253   8.228  18.656   1.835
85439W        W55254  19.780   3.303   4.821
85440W        W55255  27.191  40.818   3.299
85441W        W55256  40.395  36.548  13.865
85442W        W55257   3.853  23.208   3.762
85443W        W55258   0.433  32.071  11.879
85444W        W55259  21.732  26.959  14.422
85445W        W55260   1.408  25.966   1.841
85446W        W55261  22.076  33.486  11.397
85447W        W55262  40.387  17.648   4.262
85448W        W55263  44.871  25.540   1.292
85449W        W55264  40.471  41.958  10.959
85450W        W55265  20.244  41.369   5.106
85451W        W55266  40.001  24.563  12.988
85452W        W55267   8.280  27.498  13.972
85453W        W55268  19.176  11.131   3.312
85454W        W55269   9.751  21.202   1.273
85455W        W55270  26.596   6.774  11.958
85456W        W55271  26.165  11.653   1.791
85457W        W55272   6.424  36.545   2.673
85458W        W55273  11.809  23.198   3.773
85459W        W55274  14.762  33.941  14.778
85460W        W55275  22.640  23.030   2.326
85461W        W55276  33.451  13.111   1.361
85462W        W55277   8.259  31.529  10.977
85463W        W55278  34.918  13.298  12.542
85464W        W55279  18.648   0.478   1.340
85465W        W55280  38.401  25.067   2.231
85466W        W55281  20.707  34.615   0.836
85467W        W55282  40.450   8.714   1.736
85468W        W55283  21.209  38.917  13.377
85469W        W55284   6.345  31.977  12.464
85470W        W55285  40.920  44.269  13.899
85471W        W55286  37.055  39.055   3.314
85472W        W55287  15.606  25.621   1.250
85473W        W55288  18.175  16.249  14.357
85474W        W55289  11.675  31.051   2.783
85475W        W55290  30.647  31.948   0.378
85476W        W55291  41.908  23.712  13.330
85477W        W55292  31.460  18.762   2.243
85478W        W55293  21.685   5.365  10.592
85479W        W55294   9.387   6.380   5.126
85480W        W55295  42.920   3.370  10.569
85481W        W55296  19.724   0.411   5.202
85482W        W55297  38.831   5.829  11.415
85483W        W55298  15.296  31.475   0.441
85484W        W55299  25.666  41.367   9.983
85485W        W55300  42.855  24.652   4.818
85486W        W55301  27.160   5.252  12.983
85487W        W55302  40.024   6.395   1.741
85488W        W55303  41.795  12.261   4.610
85489W        W55304  41.325  38.050   4.281
85490W        W55305  32.473  18.095  11.114
85491W        W55306   4.241  37.393   2.784
85492W        W55307  37.964   5.262   2.190
85493W        W55308  37.506  15.587  13.321
85494W        W55309  16.207   4.935   3.224
85495W        W55310   5.198  13.135   2.798
85496W        W55311  21.607  42.435   1.268
85497W        W55312  12.674  28.085   3.863
85498W        W55313  38.466   1.764   1.695
85499W        W55314   8.403   9.183   4.187
85500W        W55315  18.284  24.544  10.535
85501W        W55316   0.978  40.923   0.344
85502W        W55317  42.474  21.142  14.835
85503W        W55318  32.970  30.075  12.379
85504W        W55319  32.509  33.598  12.547
85505W        W55320  12.818  26.698   3.833
85506W        W55321  31.971  30.108  11.455
85507W        W55322  18.597  19.772  10.589
85508W        W55323  28.501  23.600   1.391
85509W        W55324  17.104  42.013  13.850
85510W        W55325  28.641  38.485   1.758
85511W        W55326   9.822  24.084  14.892
85512W        W55327  25.628  41.478   4.277
85513W        W55328   0.920  16.646   0.831
85514W        W55329  22.662  21.073  13.360
85515W        W55330  23.524   0.431   1.866
85516W        W55331  40.879   1.293  13.369
85517W        W55332  30.645  18.197  13.916
85518W        W55333  27.170  39.973  10.513
85519W        W55334  40.400  23.149   3.259
85520W        W55335   8.241  27.465   3.750
85521W        W55336  30.533  20.070   4.776
85522W        W55337  14.121  43.462  13.434
85523W        W55338   7.798  23.202   1.833
85524W        W55339  32.913  38.452   3.637
85525W        W55340   9.761  22.089  14.458
85526W        W55341  14.329  40.020  11.599
85527W        W55342  31.114   9.247   2.757
85528W        W55343  42.485  41.800   4.641
85529W        W55344  23.596   3.837  12.019
85530W        W55345  42.962   3.365  12.456
85531W        W55346  32.567  36.579  10.620
85532W        W55347  19.747  23.671   2.866
85533W        W55348  21.217   4.218  11.499
85534W        W55349  30.533  33.938  11.415
85535W        W55350  41.519  43.373  14.364
85536W        W55351  42.369  20.529   2.389
85537W        W55352  17.108  11.691  10.905
85538W        W55353  31.464   8.895   4.254
85539W        W55354   4.861  11.628  11.547
85540W        W55355  25.486   6.812   0.298
85541W        W55356  10.749  38.835  10.005
85542W        W55357   1.412  18.136  14.962
85543W        W55358  12.264  17.067   9.643
85544W        W55359  34.979   4.245   4.667
85545W        W55360  35.994  11.356  11.570
85546W        W55361  32.486  27.047   3.334
85547W        W55362  32.509  10.144   2.662
85548W        W55363  11.852   7.377   0.797
85549W        W55364  25.513  44.828   2.351
85550W        W55365  11.748  16.755   1.908
85551W        W55366  22.647  27.608  14.346
85552W        W55367  12.271  37.982   1.795
85553W        W55368  29.576  27.173   3.850
85554W        W55369  44.324  14.114   0.894
85555W        W55370   0.795  32.967   1.402
85556W        W55371  21.047  38.861  11.576
85557W        W55372  30.506  43.407  14.943
85558W        W55373  29.031  40.815  13.394
85559W        W55374  35.494  21.031   2.292
85560W        W55375  17.763   3.422   3.195
85561W        W55376  24.537  17.559  10.458
85562W        W55377  37.846  19.649  12.998
85563W        W55378  13.156  40.804   0.959
85564W        W55379  33.537  14.598   2.320
85565W        W55380  32.100  33.596  10.573
85566W        W55381  35.530  17.167  14.435
85567W        W55382  13.254  38.906  10.446
85568W        W55383  43.467  11.300  11.026
85569W        W55384  35.500  44.939   2.682
85570W        W55385   7.409  26.500   1.240
85571W        W55386  36.020  32.617   0.277
85572W        W55387  16.152   3.749  14.890
85573W        W55388  34.036   7.683   2.200
85574W        W55389   7.780  25.175  11.065
85575W        W55390  31.121  22.735   0.439
85576W        W55391  20.038  27.024   4.271
85577W        W55392  35.009  24.484   4.666
85578W        W55393  31.568  37.002   0.761
85579W        W55394  10.747  25.667  10.930
85580W        W55395   8.868   1.454   2.736
85581W        W55396   4.326  44.325   3.671
85582W        W55397   0.796  41.518  13.354
85583W        W55398  17.753  17.653  10.437
85584W        W55399  43.781  41.830  12.899
85585W        W55400  30.644  43.990   3.843
85586W        W55401   0.479  20.045   1.823
85587W        W55402  31.986  25.689   1.808
85588W        W55403  12.769  23.151  11.372
85589W        W55404  31.487  29.091  12.960
85590W        W55405  37.848   3.314   1.255
85591W        W55406  13.669  30.552   1.760
85592W        W55407  36.357  31.533   1.737
85593W        W55408  33.111  15.799  12.019
85594W        W55409  14.125  32.428  13.964
85595W        W55410  27.160   5.853  10.933
85596W        W55411   8.237  21.232   1.451
85597W        W55412  42.872  29.604  14.277
85598W        W55413  33.061  37.002   2.232
85599W        W55414  33.979   2.330   1.222
85600W        W55415   6.840  30.558  13.444
85601W        W55416  34.589   2.323  11.602
85602W        W55417  32.004   8.198   0.344
85603W        W55418  36.866  28.663  10.971
85604W        W55419  42.944   4.742   4.771
85605W        W55420  39.441  41.889  11.934
85606W        W55421  19.651  36.403   0.431
85607W        W55422   2.378  28.089   2.206
85608W        W55423  11.363  27.159  11.088
85609W        W55424  42.413  14.616   4.221
85610W        W55425  16.781  13.761   4.329
85611W        W55426   3.735  12.326   4.714
85612W        W55427  10.139  11.633  13.955
85613W        W55428  27.682   1.262   1.272
85614W        W55429  32.892  44.335   3.701
85615W        W55430  29.478  42.465   2.387
85616W        W55431   0.492   2.962  11.482
85617W        W55432  12.678   0.978   3.681
85618W        W55433   2.922  23.043   0.861
85619W        W55434   9.720   8.722  11.954
85620W        W55435  28.067  24.620  10.602
85621W        W55436  18.248  10.191   4.806
85622W        W55437   7.391  36.892   0.363
85623W        W55438  35.943  19.638  11.017
85624W        W55439  29.664  42.332   1.714
85625W        W55440  14.147   7.893  12.401
85626W        W55441  32.612  25.526  10.985
85627W        W55442  43.825   8.195  12.852
85628W        W55443  39.012  25.063  11.514
85629W        W55444   8.697   4.383  10.891
85630W        W55445  30.590  24.178   4.301
85631W        W55446  19.218   6.250  13.925
85632W        W55447  26.013  15.581  10.927
85633W        W55448  33.915   6.320  11.500
85634W        W55449   7.841  41.490   0.838
85635W        W55450  20.645   5.780  14.277
85636W        W55451  28.088  39.979  11.941
85637W        W55452  34.542  10.169  14.363
85638W        W55453  12.810  32.522  12.858
85639W        W55454   4.897  22.570   3.670
85640W        W55455  25.676  29.106   2.349
85641W        W55456  31.047  26.531  10.027
85642W        W55457  43.478  25.074  14.927
85643W        W55458   8.854   9.347   3.357
85644W        W55459  39.400   7.192   2.289
85645W        W55460   1.858   4.294   0.957
85646W        W55461  27.473  44.402   2.216
85647W        W55462   0.345  22.246  14.773
85648W        W55463  20.548  22.046  12.506
85649W        W55464  30.942  23.631  11.042
85650W        W55465  21.635  21.574  14.016
85651W        W55466  30.917  41.888   4.288
85652W        W55467   4.293  28.651  13.030
85653W        W55468  36.395  37.045   4.763
85654W        W55469  43.511  31.116   1.808
85655W        W55470  24.019   6.319  14.897
85656W        W55471  42.848  18.134   1.346
85657W        W55472   0.448   1.960  10.998
85658W        W55473  29.015   5.341   4.657
85659W        W55474  18.058  30.627   3.868
85660W        W55475  11.731  43.497  12.865
85661W        W55476   7.680  38.910   3.703
85662W        W55477  16.788  40.451  13.339
85663W        W55478  12.728  29.959  13.877
85664W        W55479   8.366  31.449  12.574
85665W        W55480  16.720  38.023  14.021
85666W        W55481  33.479  15.624   0.848
85667W        W55482   1.361  42.871   2.307
85668W        W55483  11.234  30.556  10.592
85669W        W55484  41.503   0.430   9.996
85670W        W55485  32.592  40.421   0.755
85671W        W55486  42.330  10.368  12.860
85672W        W55487  33.434  17.573   1.935
85673W        W55488  11.779  43.933  13.425
85674W        W55489  27.108  22.073  12.837
85675W        W55490   0.463  34.920  14.001
85676W        W55491  11.859  29.035  12.934
85677W        W55492  37.437   5.233   2.260
85678W        W55493  35.880   7.263   3.387
85679W        W55494  40.000  34.613   1.916
85680W        W55495   8.361   4.365  13.481
85681W        W55496  19.544  33.428   2.338
85682W        W55497  25.691  12.243  14.280
85683W        W55498  25.209  21.056  10.444
85684W        W55499  22.020  22.696  14.482
85685W        W55500   9.867  12.723  14.479
85686W        W55501  16.077  31.586   3.835
85687W        W55502  16.758  16.665  10.411
85688W        W55503  20.627   7.416  11.008
85689W        W55504   5.782  13.330  12.841
85690W        W55505  14.256  16.641  10.498
85691W        W55506  11.857  11.139  12.423
85692W        W55507   4.365  32.139  14.364
85693W        W55508  11.843  43.320  13.850
85694W        W55509  14.150   5.721   3.685
85695W        W55510  21.075  24.592  11.954
85696W        W55511   9.333  17.288  14.948
85697W        W55512   3.354  28.080   0.745
85698W        W55513  10.148   4.749  13.997
85699W        W55514  44.367   1.935   2.760
85700W        W55515  10.713  41.029  13.395
85701W        W55516  31.550  26.150  14.787
85702W        W55517  40.400  11.253  12.900
85703W        W55518  12.195  29.534  12.502
85704W        W55519  17.110   1.271  11.018
85705W        W55520  33.949  18.677  14.306
85706W        W55521  20.553  12.653  11.979
85707W        W55522  40.364   0.791   3.654
85708W        W55523  42.341  17.283  13.846
85709W        W55524  22.139  41.826  10.929
85710W        W55525   1.740  11.173  10.940
85711W        W55526  15.821   1.292   3.832
85712W        W55527   8.259  15.793   3.226
85713W        W55528   1.934  10.821   4.314
85714W        W55529  28.545  14.268   4.715
85715W        W55530   8.218   3.411   4.786
85716W        W55531  28.650  31.645   3.368
85717W        W55532  40.978  33.460   2.716
85718W        W55533  28.482  35.965   3.831
85719W        W55534  33.084  25.005   3.260
85720W        W55535   5.366  37.068   4.656
85721W        W55536  17.068  25.539   1.261
85722W        W55537  35.453  37.567  14.843
85723W        W55538   9.766  29.015  12.466
85724W        W55539  31.592   9.676   3.311
85725W        W55540   1.348  23.588  13.045
85726W        W55541   0.967  37.461   1.892
85727W        W55542   8.225  30.101  12.045
85728W        W55543  37.044  40.352  13.489
85729W        W55544  31.414  27.036   1.889
85730W        W55545  18.089  15.790  14.399
85731W        W55546  21.638   1.410  11.379
85732W        W55547  30.605  40.515   3.722
85733W        W55548  39.824   9.194  11.523
85734W        W55549  10.783  44.754   1.320
85735W        W55550   6.717   6.288  13.402
85736W        W55551  10.785  24.083  11.411
85737W        W55552  34.899  32.045  11.560
85738W        W55553  18.789  14.684  11.113
85739W        W55554  12.666  42.858   2.338
85740W        W55555  39.851  15.163   3.286
85741W        W55556  24.123  23.994  12.974
85742W        W55557  19.679   4.838   4.653
85743W        W55558   7.202  18.057  12.973
85744W        W55559  22.053  24.055   4.313
85745W        W55560  34.003  20.165  13.883
85746W        W55561  26.980  25.619  12.498
85747W        W55562   9.371  12.747  13.047
85748W        W55563  22.530  36.072   2.220
85749W        W55564  21.154  39.867   0.838
85750W        W55565  13.679  22.635   0.347
85751W        W55566  22.149  17.730  11.927
85752W        W55567  25.115  40.484   4.205
85753W        W55568  17.125   2.352   2.336
85754W        W55569   1.888  25.108  14.487
85755W        W55570  21.526  43.797   2.766
85756W        W55571   3.779  41.530   0.879
85757W        W55572  42.380  22.045  13.874
85758W        W55573  16.811  44.870  12.925
85759W        W55574  24.591  25.601   4.771
85760W        W55575   7.413  30.966  14.768
85761W        W55576  25.478  21.596   1.304
85762W        W55577  44.462  38.849   2.315
85763W        W55578  35.969  43.957  10.406
85764W        W55579  20.650  11.331   0.328
85765W        W55580  42.436  32.974   4.771
85766W        W55581  41.988   5.786  14.430
85767W        W55582  26.556  13.601   3.227
85768W        W55583  35.006  28.009   3.302
85769W        W55584   4.379  25.113   2.400
85770W        W55585  38.459  39.418   4.195
85771W        W55586   5.436  17.746  13.920
85772W        W55587  37.430   1.369  11.587
85773W        W55588  38.000   4.783   3.684
85774W        W55589   2.815  21.104  14.298
85775W        W55590  36.439  23.001   2.221
85776W        W55591  10.169  40.924  14.820
85777W        W55592  14.210  18.560  11.126
85778W        W55593  21.150  25.030   2.321
85779W        W55594  38.440  30.601  12.486
85780W        W55595  16.608  30.459   3.840
85781W        W55596   9.202  35.453   3.754
85782W        W55597   5.756  18.254  12.579
85783W        W55598  41.902  42.847   1.755
85784W        W55599   6.417  40.415  11.939
85785W        W55600  15.665  28.929   1.432
85786W        W55601  40.866  36.375   3.803
85787W        W55602  32.454  38.882  11.384
85788W        W55603  15.234  31.143   0.826
85789W        W55604  39.537  43.444  11.460
85790W        W55605  24.214  23.710  14.393
85791W        W55606  21.227  13.668  11.612
85792W        W55607  35.939  42.391  13.545
85793W        W55608  34.077  38.883   3.810
85794W        W55609  21.071  15.578  14.473
85795W        W55610  36.957  29.950  13.433
85796W        W55611   1.415  28.555  14.492
85797W        W55612   2.288  10.841  10.480
85798W        W55613  12.358  37.358   1.411
85799W        W55614  27.613   3.447   4.303
85800W        W55615  14.634  31.516  13.943
85801W        W55616   4.266   2.226   0.934
85802W        W55617  20.717  42.424   0.892
85803W        W55618  16.172  34.001   4.283
85804W        W55619  22.075  16.161   3.646
85805W        W55620  20.751  10.849   1.730
85806W        W55621  11.757   8.729   3.354
85807W        W55622  35.479  35.039   1.384
85808W        W55623  17.580  30.484   3.641
85809W        W55624   1.841  29.619   4.818
85810W        W55625  11.772  32.448  10.151
85811W        W55626   4.738   5.401   1.746
85812W        W55627  24.629   0.457  14.766
85813W        W55628  36.994  14.286   3.793
85814W        W55629  35.441  11.169   1.395
85815W        W55630  19.661  18.057  11.045
85816W        W55631  23.163   4.761  13.326
85817W        W55632  21.034  15.095  14.302
85818W        W55633  15.603  19.224   0.767
85819W        W55634   0.468  29.438  13.494
85820W        W55635  34.973   2.435  10.610
85821W        W55636  35.042  27.105  14.973
85822W        W55637   8.822   7.204   2.882
85823W        W55638  19.286  18.213  11.593
85824W        W55639  40.972  21.110  10.044
85825W        W55640  22.208  23.142   1.268
85826W        W55641  41.486  32.064   0.333
85827W        W55642  29.519  23.219   3.152
85828W        W55643  22.674  35.365  10.890
85829W        W55644   5.246   2.789  14.999
85830W        W55645  21.657  16.215   2.395
85831W        W55646  17.116  21.076   2.372
85832W        W55647  24.559   7.839  14.352
85833W        W55648  28.983   1.937  10.509
85834W        W55649  39.506  30.956  11.575
85835W        W55650  29.512   0.367   3.800
85836W        W55651  37.979  17.218   3.387
85837W        W55652  42.923  27.455   3.321
85838W        W55653  33.547  40.026  10.927
85839W        W55654  19.237  26.101   3.218
85840W        W55655   8.816  25.513   2.829
85841W        W55656  19.084  42.332  14.317
85842W        W55657  43.478   8.318   3.323
85843W        W55658  36.969  10.686  12.910
85844W        W55659   6.417  39.482   3.723
85845W        W55660  36.079   0.975   4.700
85846W        W55661  34.039  21.666  14.795
85847W        W55662  26.994  37.541   2.891
85848W        W55663  16.807   2.908   4.336
85849W        W55664  12.344   4.921   3.154
85850W        W55665   1.293  22.014  11.585
85851W        W55666  26.651  38.420   2.262
85852W        W55667  30.956  15.171   2.726
85853W        W55668   7.215  11.738  13.933
85854W        W55669  11.757   0.782   0.777
85855W        W55670  12.758  38.985  13.790
85856W        W55671  23.230   9.268   3.284
85857W        W55672  44.761  20.231  11.966
85858W        W55673  28.108  12.223   5.107
85859W        W55674  13.128  33.032  13.474
85860W        W55675   2.862  30.911  14.784
85861W        W55676   4.389   8.332  12.464
85862W        W55677  38.035  34.411  13.062
85863W        W55678  20.110  30.516  14.911
85864W        W55679  24.165  30.459   0.265
85865W        W55680   2.240  42.366   0.849
85866W        W55681  12.197   0.959  12.904
85867W        W55682   2.305  28.936   4.244
85868W        W55683  34.987  12.712  14.934
85869W        W55684   5.727  30.429   1.697
85870W        W55685  33.562  18.152  12.395
85871W        W55686  36.842  40.415  12.476
85872W        W55687   7.371  39.356   1.813
85873W        W55688  11.248  14.814  11.449
85874W        W55689  31.967  27.964   5.229
85875W        W55690   8.347  41.418  13.520
85876W        W55691  34.566   1.454  10.445
85877W        W55692   3.276  29.029  10.034
85878W        W55693  16.806  21.117   0.299
85879W        W55694  27.020  38.046  14.013
85880W        W55695  39.919   6.365  12.991
85881W        W55696  10.315  18.254   5.100
85882W        W55697  16.739  40.438  12.003
85883W        W55698  43.892  29.632  11.114
85884W        W55699   3.752  41.527   0.387
85885W        W55700  13.671   0.379  13.364
85886W        W55701  36.367  40.537   3.257
85887W        W55702  34.369  24.485  11.563
85888W        W55703  43.315  31.569  12.894
85889W        W55704   8.262  43.989   3.788
85890W        W55705  10.845  22.101  11.563
85891W        W55706  36.390  30.538  13.387
85892W        W55707  22.631   7.288   1.891
85893W        W55708  40.535  22.629  13.507
85894W        W55709  44.893   7.816   1.264
85895W        W55710   1.837   2.778  12.466
85896W        W55711   7.695   9.159   1.315
85897W        W55712  36.542  32.574  13.935
85898W        W55713  18.272  38.380   2.258
85899W        W55714  43.921  37.554   2.375
85900W        W55715  24.656  43.982  10.590
85901W        W55716  36.984  24.137  11.496
85902W        W55717  10.643  35.557  14.462
85903W        W55718  15.318   9.177   1.790
85904W        W55719   5.334  39.892  12.951
85905W        W55720  26.204  23.552   3.318
85906W        W55721   1.810  31.528   2.889
85907W        W55722  39.941   9.364   0.436
85908W        W55723  36.483  23.216  11.977
85909W        W55724   1.479  22.057   0.766
85910W        W55725  26.008  34.371   3.766
85911W        W55726  42.391   3.955  12.576
85912W        W55727  11.734  19.657   3.250
85913W        W55728  36.489   8.179  13.056
85914W        W55729  37.079  43.507   2.360
85915W        W55730  42.809  12.685   1.775
85916W        W55731   3.919   5.783  14.998
85917W        W55732   2.443  22.544   3.773
85918W        W55733   6.804  24.209   0.245
85919W        W55734  39.437  10.854  14.933
85920W        W55735   8.297  21.198   2.284
85921W        W55736  39.849  32.033  13.860
85922W        W55737   8.251   4.808  12.532
85923W        W55738  36.444  12.645  14.932
85924W        W55739  20.092   4.755   4.156
85925W        W55740  10.708  36.471  13.505
85926W        W55741   7.863  38.392  12.408
85927W        W55742  28.501  25.024   2.322
85928W        W55743  37.504   0.818  13.313
85929W        W55744  38.364   8.840  11.056
85930W        W55745  16.221  32.118   2.193
85931W        W55746  14.642  20.126  14.773
85932W        W55747  31.428  43.345  12.480
85933W        W55748   1.821  36.082  12.458
85934W        W55749  37.908  29.564  13.412
85935W        W55750  43.894  33.068   1.392
85936W        W55751   6.732   4.871  14.874
85937W        W55752  24.107  19.735  13.899
85938W        W55753  42.479  26.607   2.365
85939W        W55754  13.301  21.219  14.877
85940W        W55755  29.544  29.976  12.532
85941W        W55756  12.154  30.983  13.434
85942W        W55757   9.378  35.077  14.402
85943W        W55758  37.884  40.925   0.882
85944W        W55759  26.989   4.823  10.135
85945W        W55760  27.121  43.008   1.340
85946W        W55761  22.232   4.326  14.437
85947W        W55762  38.987  22.013  12.343
85948W        W55763   2.904  23.695  11.589
85949W        W55764   5.356   2.946  14.371
85950W        W55765  39.857  15.791   2.193
85951W        W55766   3.757  37.478   4.739
85952W        W55767   8.174  35.082   4.604
85953W        W55768  30.523  39.004  12.011
85954W        W55769  10.363  35.035   2.775
85955W        W55770   4.937   4.287  11.526
85956W        W55771  19.536   0.825   1.303
85957W        W55772  27.521  33.040   3.191
85958W        W55773  40.845  19.662  11.088
85959W        W55774  11.807  16.597  14.457
85960W        W55775  10.161  42.943  11.950
85961W        W55776  24.213  18.708  11.453
85962W        W55777  11.253  10.215   0.931
85963W        W55778  36.350  38.931   0.476
85964W        W55779  44.388  14.589  13.919
85965W        W55780  22.691  25.650   0.338
85966W        W55781  43.426  35.407   2.201
85967W        W55782  41.955   3.352   3.768
85968W        W55783  16.586  43.496  14.957
85969W        W55784  37.494  13.282   1.898
85970W        W55785  39.985   9.278  14.452
85971W        W55786  20.539  40.420  14.460
85972W        W55787  27.948  14.737  10.149
85973W        W55788  21.094  22.598   3.655
85974W        W55789   3.406  36.859  12.505
85975W        W55790  35.066  38.566   4.279
85976W        W55791   9.288  32.896   2.383
85977W        W55792  16.784  22.690   1.757
85978W        W55793  23.580  44.913  10.925
85979W        W55794   3.384  10.645   1.443
85980W        W55795   4.723  15.190  13.840
85981W        W55796   4.921  10.764  13.364
85982W        W55797  19.147  36.025  14.758
85983W        W55798  23.003  33.614  11.061
85984W        W55799  40.013  36.578   1.839
85985W        W55800  23.151   3.228  11.968
85986W        W55801  15.809   4.747   2.710
85987W        W55802   9.780  25.641   1.845
85988W        W55803  30.922   1.443   2.249
85989W        W55804  44.350  15.233   1.813
85990W        W55805  26.625  12.856   3.329
85991W        W55806  22.602  21.563   4.759
85992W        W55807  14.269  26.566   2.259
85993W        W55808   2.419  17.762  14.387
85994W        W55809  21.571  38.943   0.918
85995W        W55810  22.165  15.794  11.118
85996W        W55811  12.623  14.694  12.838
85997W        W55812  14.177   6.882   1.448
85998W        W55813   5.738  42.346   2.347
85999W        W55814  23.204  44.881   3.699
86000W        W55815  36.373   9.201   0.246
86001W        W55816  11.623  24.167  10.543
86002W        W55817   6.304  31.965  10.019
86003W        W55818  35.576  38.334  12.827
86004W        W55819  13.124  26.982  10.439
86005W        W55820  37.867  25.694  14.995
86006W        W55821  15.151  12.662  13.846
86007W        W55822  13.194  42.882   1.238
86008W        W55823  12.142  37.918   4.114
86009W        W55824  19.546  27.509   0.311
86010W        W55825  16.748  37.422  14.781
86011W        W55826  40.016  24.175  11.429
86012W        W55827  11.213   2.934   3.738
86013W        W55828   1.351   0.808   4.158
86014W        W55829  32.600  27.987   4.648
86015W        W55830  17.677  33.090  14.940
86016W        W55831  24.998  19.706  13.982
86017W        W55832  27.552  16.730  11.970
86018W        W55833  17.218  44.002  14.356
86019W        W55834   2.946   5.824   1.769
86020W        W55835  35.096   7.339  14.490
86021W        W55836  37.977   9.337   3.783
86022W        W55837  24.622  23.536  13.971
86023W        W55838  41.395  27.564  14.821
86024W        W55839  34.964   8.230  12.401
86025W        W55840   3.852  12.728  14.835
86026W        W55841  14.099  26.184  11.380
86027W        W55842  27.183   9.329   4.707
86028W        W55843   5.322   6.810  12.963
86029W        W55844  42.450  17.099   2.314
86030W        W55845  34.054  34.051   0.909
86031W        W55846  24.165   7.849   3.804
86032W        W55847  39.821  31.911  10.593
86033W        W55848   1.924  28.467   4.283
86034W        W55849  33.923  16.769  14.987
86035W        W55850  27.619   4.731   3.375
86036W        W55851  38.859   1.444   3.184
86037W        W55852  31.475  38.388  11.910
86038W        W55853  19.547  13.708  14.931
86039W        W55854  33.976  15.270  14.935
86040W        W55855   2.754  32.020   5.085
86041W        W55856  22.716  42.872   2.798
86042W        W55857  11.132  38.386  12.545
86043W        W55858  12.657  43.292  12.008
86044W        W55859   8.861  33.110  12.054
86045W        W55860  34.479  44.842   3.154
86046W        W55861   3.248  19.752   2.205
86047W        W55862  15.248  15.587   4.770
86048W        W55863  34.573  44.872   2.221
86049W        W55864  18.633  39.526   0.917
86050W        W55865  21.177  27.131  12.983
86051W        W55866  13.740   8.890  10.945
86052W        W55867   5.739  11.733   1.413
86053W        W55868  20.696  39.538  12.481
86054W        W55869  35.079   8.660   3.177
86055W        W55870  18.648  40.019   2.211
86056W        W55871  43.399   7.237  11.033
86057W        W55872  30.992  34.976  14.310
86058W        W55873  35.962  32.415   1.743
86059W        W55874   0.475  41.980  12.375
86060W        W55875   0.899  20.651   0.273
86061W        W55876  10.843  14.736   4.318
86062W        W55877  26.655  27.078  14.837
86063W        W55878  37.432  19.641  10.628
86064W        W55879  18.686  23.236   4.303
86065W        W55880  14.650   3.302  12.063
86066W        W55881  30.062  33.415   0.889
86067W        W55882  43.969  17.563  10.624
86068W        W55883  33.879  44.910   4.137
86069W        W55884  31.438   7.815  11.064
86070W        W55885  38.371   1.285   5.650
86071W        W55886  32.110  35.371   1.877
86072W        W55887  35.923  34.057  13.335
86073W        W55888   0.876  32.886   4.802
86074W        W55889  11.371   0.853   4.195
86075W        W55890   2.360   7.343  10.497
86076W        W55891  19.730  14.830   3.703
86077W        W55892  18.151  29.478  11.061
86078W        W55893  40.405  26.102   1.276
86079W        W55894   0.270  12.709   3.339
86080W        W55895  27.104   0.761   1.913
86081W        W55896  39.370  36.999   3.851
86082W        W55897  36.000   5.252  10.634
86083W        W55898  37.000  18.183  14.813
86084W        W55899  35.918  17.569   1.752
86085W        W55900  39.372  26.627   3.155
86086W        W55901  35.045  31.500  14.408
86087W        W55902   1.945  29.510  11.498
86088W        W55903  23.141  25.006   4.232
86089W        W55904  35.889  11.291   4.172
86090W        W55905   2.374  25.647  10.986
86091W        W55906   0.353  44.814   4.169
86092W        W55907   0.489  43.384   0.770
86093W        W55908   7.738  43.463  12.897
86094W        W55909  32.518  36.351   0.311
86095W        W55910  21.747   5.349  11.991
86096W        W55911  38.475  10.298   4.640
86097W        W55912  38.996  31.532   4.637
86098W        W55913  37.407  33.515  14.486
86099W        W55914  11.285  18.655   2.825
86100W        W55915  19.723  33.933  14.333
86101W        W55916  29.120  20.679  10.499
86102W        W55917  25.597   8.792   3.288
86103W        W55918  42.786  11.219  10.505
86104W        W55919  13.802  43.786  14.026
86105W        W55920   9.319  12.778  13.313
86106W        W55921  25.553   8.205   3.349
86107W        W55922  24.113  37.435   3.728
86108W        W55923  35.408   5.896   4.764
86109W        W55924  12.356  44.356  11.994
86110W        W55925   2.783   4.868  13.449
86111W        W55926   0.341  10.346   0.942
86112W        W55927   0.875  43.372   1.401
86113W        W55928  16.668  12.615   4.200
86114W        W55929  42.936  40.912  12.868
86115W        W55930  25.124   3.719  14.394
86116W        W55931  17.111  17.075  11.422
86117W        W55932  34.033  30.010   2.884
86118W        W55933  37.030  27.661  14.403
86119W        W55934  32.132  42.982  11.023
86120W        W55935   1.281  38.362   4.687
86121W        W55936  37.396   6.194   4.709
86122W        W55937  43.960  14.634   2.270
86123W        W55938  37.922  36.588   1.719
86124W        W55939   3.750  11.327  14.339
86125W        W55940   7.813  30.065  11.008
86126W        W55941  10.698  34.556  11.424
86127W        W55942  34.572  43.353  12.916
86128W        W55943  21.081  29.596   1.730
86129W        W55944  41.039  13.298   1.287
86130W        W55945   1.470  36.460  13.013
86131W        W55946  17.180  32.896  13.397
86132W        W55947  39.998  22.160   2.232
86133W        W55948  38.416  28.439   1.787
86134W        W55949  16.241  22.194   0.927
86135W        W55950  19.253   7.805  12.478
86136W        W55951  42.823  42.916  13.366
86137W        W55952  35.995  44.867  13.383
86138W        W55953   5.214   4.227   0.458
86139W        W55954  31.089  14.681  11.937
86140W        W55955  36.046   9.234  12.433
86141W        W55956  31.107   9.301  14.772
86142W        W55957  38.398  43.002   0.459
86143W        W55958   2.319   1.470   3.226
86144W        W55959  15.628  26.478  14.836
86145W        W55960  20.211   3.266   4.163
86146W        W55961   0.856  33.110  11.567
86147W        W55962   9.876  33.993   0.819
86148W        W55963  25.967  37.901  13.500
86149W        W55964  40.545  35.052  10.569
86150W        W55965  27.600  21.220  12.531
86151W        W55966  10.665  13.616  14.923
86152W        W55967  29.562   7.840   2.892
86153W        W55968  22.618  27.109   4.298
86154W        W55969  17.168  31.113   0.856
86155W        W55970   5.912  12.341   2.738
86156W        W55971   4.854   4.761   3.865
86157W        W55972  13.113  42.874  14.481
86158W        W55973  17.773  21.114   4.306
86159W        W55974  25.572  33.103  11.580
86160W        W55975  29.484   3.286   4.317
86161W        W55976  23.518   1.960   3.179
86162W        W55977  29.508  40.967  14.330
86163W        W55978   7.316  14.251   0.317
86164W        W55979   2.751  40.969  12.391
86165W        W55980  14.109   0.478  14.955
86166W        W55981  28.617  16.248   1.823
86167W        W55982  13.807   4.747   0.768
86168W        W55983  32.558   2.423  11.609
86169W        W55984  20.606  35.864  13.883
86170W        W55985   0.428  44.258  11.490
86171W        W55986  22.545   5.359  10.071
86172W        W55987   5.370  26.488   0.280
86173W        W55988   9.807  36.959   2.803
86174W        W55989  12.275  23.713  11.064
86175W        W55990  16.307   9.151   0.472
86176W        W55991  33.533  22.025  13.809
86177W        W55992   8.397  14.100  10.441
86178W        W55993   9.808  40.804  10.594
86179W        W55994   6.731  33.083   4.820
86180W        W55995   5.933  38.880  12.559
86181W        W55996  34.372  24.577   2.662
86182W        W55997   5.239  38.039  12.883
86183W        W55998  30.018  44.501  12.899
86184W        W55999   5.822  44.779   2.297
86185W        W56000   2.415  42.911   3.860
86186W        W56001  12.697   8.687   4.704
86187W        W56002  27.046  35.451   1.811
86188W        W56003  41.813  17.585  13.992
86189W        W56004  38.538  18.258   3.306
86190W        W56005  25.492  29.042   3.849
86191W        W56006  36.861  15.267   2.708
86192W        W56007  25.576  19.700   1.716
86193W        W56008  21.585  30.085  10.435
86194W        W56009  27.174  24.644  13.061
86195W        W56010  25.701   5.710  13.991
86196W        W56011  15.696  18.781  14.817
86197W        W56012  26.081  36.376  12.403
86198W        W56013  41.426  33.591  10.547
86199W        W56014  11.849  42.941   2.671
86200W        W56015  42.347   9.763  13.003
86201W        W56016   7.241  32.508   1.339
86202W        W56017  16.810   4.322   1.879
86203W        W56018  25.515  18.194   9.927
86204W        W56019   1.895  13.351   0.247
86205W        W56020  14.635  15.818  13.033
86206W        W56021  38.017  33.554  14.828
86207W        W56022  39.523   9.853  14.395
86208W        W56023  28.179   7.817  13.504
86209W        W56024  18.621  19.119  13.042
86210W        W56025  15.628  12.839  12.527
86211W        W56026  15.282   0.781   3.338
86212W        W56027  41.432  41.498   4.803
86213W        W56028  34.603  27.972  12.951
86214W        W56029  41.296  44.303   2.789
86215W        W56030   4.413  21.521  13.445
86216W        W56031  13.777  21.027  11.399
86217W        W56032  12.611  36.971   0.859
86218W        W56033  30.552  28.664   3.366
86219W        W56034  11.291  42.502  13.863
86220W        W56035  17.146  29.022   4.153
86221W        W56036  40.870  43.418  14.368
86222W        W56037  37.355  27.167  13.425
86223W        W56038   2.918  38.462   4.135
86224W        W56039  12.852  32.948  14.467
86225W        W56040  10.775  31.033  14.366
86226W        W56041   6.892  31.901   5.156
86227W        W56042  36.470  10.275   0.358
86228W        W56043  27.088  26.628   2.417
86229W        W56044  28.163   1.732  11.989
86230W        W56045  13.726   3.233   0.346
86231W        W56046  32.053   7.392   1.274
86232W        W56047  39.024  37.433   4.195
86233W        W56048  10.171  13.280   1.324
86234W        W56049  18.598   9.201  12.914
86235W        W56050  30.015  25.219  13.385
86236W        W56051  36.023  33.125  13.351
86237W        W56052  17.185   2.424  12.474
86238W        W56053  22.252  43.972  14.829
86239W        W56054  13.180  36.994   1.306
86240W        W56055  23.581   2.344  11.902
86241W        W56056  35.490  40.993   3.302
86242W        W56057  35.506  26.526   5.320
86243W        W56058  44.339  22.530   0.458
86244W        W56059  24.007  38.440   0.369
86245W        W56060  42.370  43.886   2.789
86246W        W56061  15.086  33.550  14.402
86247W        W56062  29.989   1.933   2.762
86248W        W56063  18.747  19.578   0.344
86249W        W56064  14.124  27.573   1.294
86250W        W56065   2.749  15.135   1.235
86251W        W56066  39.505   9.273  11.960
86252W        W56067   2.962  43.907   4.681
86253W        W56068  23.204  37.513  14.932
86254W        W56069  40.873  13.235  14.854
86255W        W56070  34.063  32.611   2.355
86256W        W56071  32.932  34.440   0.812
86257W        W56072  14.620   3.366   0.276
86258W        W56073  24.544  39.380   2.666
86259W        W56074  13.199  30.583  12.854
86260W        W56075  41.459  13.167   3.333
86261W        W56076  15.750   8.233  13.325
86262W        W56077  31.154  22.242   3.736
86263W        W56078  37.920   1.817   4.272
86264W        W56079  36.082  11.827  14.959
86265W        W56080   0.785  44.954  12.840
86266W        W56081  16.570  16.073  13.329
86267W        W56082   0.929  18.707  13.937
86268W        W56083  12.128  18.595  14.458
86269W        W56084  35.962  31.910   0.282
86270W        W56085   0.459  43.947  12.355
86271W        W56086  28.126  27.589  10.622
86272W        W56087  32.903  15.153   0.471
86273W        W56088  30.949  25.648  12.382
86274W        W56089   8.376   3.918  11.409
86275W        W56090  16.670  40.804   3.218
86276W        W56091  26.539  20.596   2.731
86277W        W56092  23.209  32.564  11.073
86278W        W56093  20.739  24.576   2.770
86279W        W56094  24.672  35.053  10.478
86280W        W56095  22.550  25.492   2.246
86281W        W56096  40.481   7.338  10.915
86282W        W56097   0.382  44.985   0.379
86283W        W56098   8.345  18.780  13.014
86284W        W56099  17.706  43.966  13.382
86285W        W56100   6.818  42.315  12.036
86286W        W56101  36.078  21.641  10.550
86287W        W56102   8.711  26.042   1.257
86288W        W56103  29.018  12.777   0.463
86289W        W56104  19.602   4.766  14.414
86290W        W56105  13.239  33.529   2.243
86291W        W56106  17.637  30.618   1.289
86292W        W56107  22.568  44.848  11.413
86293W        W56108   7.238  12.153   3.858
86294W        W56109  44.759  14.802   4.633
86295W        W56110  36.845  41.460  12.868
86296W        W56111  10.232   5.802   1.898
86297W        W56112  27.145  22.114   2.714
86298W        W56113   3.903  31.153  14.500
86299W        W56114  28.074   2.750   4.771
86300W        W56115   7.359   9.323   0.409
86301W        W56116  34.428  35.022   1.758
86302W        W56117  35.401  26.112   2.888
86303W        W56118  40.901  13.658   0.868
86304W        W56119   4.830   0.905   0.967
86305W        W56120   5.222   1.404   4.702
86306W        W56121  12.736  38.028  11.518
86307W        W56122  27.552  35.437   3.360
86308W        W56123   7.365  39.841  13.835
86309W        W56124  17.704   6.800  13.810
86310W        W56125  18.151  37.914  10.990
86311W        W56126  25.213   8.675   3.261
86312W        W56127  22.539  26.460   3.189
86313W        W56128   0.838  37.875   2.195
86314W        W56129  12.638  21.527  11.987
86315W        W56130  22.599  31.899   1.298
86316W        W56131   8.294   6.404  10.925
86317W        W56132  44.447  40.515  10.621
86318W        W56133  18.179   2.898   3.352
86319W        W56134  34.048  40.524  12.446
86320W        W56135  20.588  34.046  11.902
86321W        W56136  16.700  32.042   2.790
86322W        W56137  10.251  11.266  10.160
86323W        W56138  44.306  20.588   0.274
86324W        W56139  24.093  34.945   1.786
86325W        W56140  32.520  27.034  11.550
86326W        W56141  16.647  43.406  14.390
86327W        W56142   1.263  39.453   0.344
86328W        W56143  23.607  24.505   1.397
86329W        W56144  10.638  39.918   4.823
86330W        W56145  14.623  27.182  10.993
86331W        W56146  29.085  16.186  12.451
86332W        W56147   5.340  33.440  12.934
86333W        W56148  35.076  32.493  12.092
86334W        W56149  41.309  15.751  10.001
86335W        W56150  28.058  21.082   3.163
86336W        W56151  22.710  14.600  14.822
86337W        W56152  33.102  30.546  11.579
86338W        W56153  42.936  15.777  13.424
86339W        W56154  35.098   7.185  10.572
86340W        W56155   4.911  32.960   0.750
86341W        W56156  22.549  21.530   3.255
86342W        W56157  33.987   5.898   3.852
86343W        W56158   0.251   9.857  11.948
86344W        W56159  20.684  42.782   0.763
86345W        W56160  14.731  19.583  12.862
86346W        W56161  33.446  34.920  10.486
86347W        W56162  36.480   6.758   2.413
86348W        W56163  13.616  26.532  14.405
86349W        W56164  18.220   4.909   3.824
86350W        W56165  35.011  44.435  10.435
86351W        W56166  22.668   5.379   1.298
86352W        W56167  37.455  39.023   4.735
86353W        W56168  32.516  23.632  11.497
86354W        W56169  12.237   2.725  13.056
86355W        W56170  19.080   1.240   2.384
86356W        W56171  13.768   8.283  13.909
86357W        W56172  42.979  25.091   3.753
86358W        W56173  25.078  44.446  14.296
86359W        W56174  17.303  20.576  11.511
86360W        W56175  40.914   4.728  10.935
86361W        W56176   6.863  35.382   2.882
86362W        W56177  14.324   3.369  14.476
86363W        W56178  43.985  37.392   2.662
86364W        W56179   4.240  15.163   4.714
86365W        W56180  28.461   2.313  12.014
86366W        W56181  44.768  14.703   2.190
86367W        W56182   8.353   9.192  12.528
86368W        W56183  37.398  38.845  11.442
86369W        W56184  43.387   5.824  10.642
86370W        W56185   6.700  44.497   4.646
86371W        W56186  42.421  32.393  12.869
86372W        W56187  11.695   3.934   3.771
86373W        W56188   4.274  39.051  12.837
86374W        W56189   9.793  10.705   0.454
86375W        W56190  14.323  44.363   1.408
86376W        W56191   9.724  21.695   0.936
86377W        W56192  44.439   0.745   0.825
86378W        W56193  29.552  25.658   1.845
86379W        W56194  15.635  42.954  14.806
86380W        W56195   9.834   7.381  11.543
86381W        W56196  16.106   5.300  13.931
86382W        W56197  23.065  32.418   4.648
86383W        W56198  30.655  34.879  10.944
86384W        W56199   1.881  13.810  11.892
86385W        W56200   4.267  30.467  13.808
86386W        W56201  42.843   7.217  10.096
86387W        W56202  29.619  33.585  10.934
86388W        W56203  18.702  32.518  12.416
86389W        W56204   1.452  33.512   0.478
86390W        W56205  11.360  11.631   3.298
86391W        W56206  18.065  12.116  11.388
86392W        W56207  34.597  32.977  11.009
86393W        W56208  15.601   0.773  10.528
86394W        W56209   4.768  25.547  10.500
86395W        W56210   3.228  30.497  10.943
86396W        W56211  17.103   1.770  10.076
86397W        W56212  11.781  19.148   2.782
86398W        W56213  30.480  42.302   4.221
86399W        W56214   5.694  21.079  12.941
86400W        W56215  27.123   0.382   0.376
86401W        W56216   8.695  10.261  12.388
86402W        W56217   5.345   1.890   1.305
86403W        W56218  27.679  22.697  10.971
86404W        W56219  36.585  34.601  14.379
86405W        W56220  15.673  42.902  14.414
86406W        W56221   9.750  25.154   3.189
86407W        W56222   2.343   3.228  11.973
86408W        W56223  11.208   6.267   3.863
86409W        W56224  11.316  35.871   4.190
86410W        W56225  30.456  30.973  11.119
86411W        W56226  16.672  33.395  14.512
86412W        W56227  15.300  39.956  10.960
86413W        W56228  27.046   7.326  14.336
86414W        W56229  10.314  10.654  11.375
86415W        W56230  15.754  27.173   0.386
86416W        W56231   2.938  10.201  11.596
86417W        W56232  16.126  37.956   3.305
86418W        W56233  13.834  10.277  12.400
86419W        W56234  27.024  36.375  14.017
86420W        W56235  37.013  24.078  13.961
86421W        W56236  16.204  43.797   0.454
86422W        W56237  21.597  38.024  12.411
86423W        W56238  15.678  21.748   4.231
86424W        W56239  25.681  33.078  14.452
86425W        W56240  27.677  21.746  14.917
86426W        W56241   6.691  24.195   3.752
86427W        W56242  12.712  15.783   1.278
86428W        W56243  26.483  42.505  11.058
86429W        W56244  33.619  29.012  11.403
86430W        W56245  38.397  20.057   1.866
86431W        W56246   2.425  30.631  12.877
86432W        W56247  41.018  19.232  13.959
86433W        W56248   2.793  29.468   4.621
86434W        W56249  29.962  16.293   2.406
86435W        W56250  41.936  33.544  12.568
86436W        W56251  16.644  24.051   1.383
86437W        W56252  12.305   8.876   4.297
86438W        W56253  14.318  17.629  11.085
86439W        W56254  20.029  21.738   2.190
86440W        W56255  41.308   3.370   4.256
86441W        W56256  35.092  12.764   2.377
86442W        W56257  11.725  21.056  12.417
86443W        W56258   7.188  21.513  13.942
86444W        W56259  30.563  28.472  13.000
86445W        W56260  25.685  37.523  14.817
86446W        W56261  33.972  21.736  12.895
86447W        W56262   2.270  11.178  10.462
86448W        W56263  19.181  25.652  11.968
86449W        W56264  29.044  34.958  14.338
86450W        W56265   0.292  34.374  13.427
86451W        W56266  40.328  39.339   2.418
86452W        W56267  32.106  31.574   4.717
86453W        W56268   8.194  31.939  12.082
86454W        W56269   6.234   7.719  11.554
86455W        W56270  11.783  15.096  11.434
86456W        W56271  35.045  13.750   4.654
86457W        W56272  35.038  11.127  10.406
86458W        W56273   9.859  30.149   3.342
86459W        W56274  38.828   8.381  12.981
86460W        W56275  34.603  16.100  10.554
86461W        W56276  23.611  39.034   0.464
86462W        W56277  26.674  19.618  13.413
86463W        W56278  11.623   1.927  11.444
86464W        W56279   5.232   4.878   2.334
86465W        W56280  28.123  32.463   0.393
86466W        W56281  26.625  43.426   0.346
86467W        W56282  27.575  13.196  11.433
86468W        W56283  14.774  29.024  11.970
86469W        W56284   0.452  43.502   2.787
86470W        W56285   2.949  44.792  13.396
86471W        W56286  33.511  23.085   3.787
86472W        W56287  26.616  12.333  10.452
86473W        W56288   7.764  29.963  14.891
86474W        W56289   7.217  17.644  13.901
86475W        W56290  40.825  42.018  12.093
86476W        W56291   3.369   2.808   2.798
86477W        W56292  42.853  32.445   2.884
86478W        W56293  21.197  16.636   4.778
86479W        W56294   4.399  13.824  12.448
86480W        W56295   0.937  17.752   0.300
86481W        W56296   1.851  38.855  12.392
86482W        W56297  44.281   9.149  14.837
86483W        W56298  31.924  28.060  10.556
86484W        W56299  12.744  34.968   4.350
86485W        W56300  18.114  27.676  14.022
86486W        W56301  22.207  24.173  11.119
86487W        W56302  15.185  21.143   3.815
86488W        W56303  23.237   0.418   4.808
86489W        W56304   0.411  12.175   0.322
86490W        W56305   4.817  42.870   9.948
86491W        W56306  13.157   1.956  12.353
86492W        W56307   9.211  18.130  11.964
86493W        W56308  17.298  38.923   4.325
86494W        W56309  35.470  36.090   4.620
86495W        W56310  30.426  15.626   3.773
86496W        W56311   5.848  17.699  10.506
86497W        W56312  11.655  23.709   0.945
86498W        W56313  19.224   5.295   4.694
86499W        W56314  20.173   8.761  10.595
86500W        W56315  32.448  31.912   0.753
86501W        W56316  40.434   9.279   0.330
86502W        W56317   1.412  14.674  12.402
86503W        W56318  35.583  36.466   3.354
86504W        W56319  24.125  12.779  12.960
86505W        W56320  11.648  27.469  13.807
86506W        W56321  12.666  13.825  11.860
86507W        W56322   1.462  10.752  11.554
86508W        W56323  11.708  21.571  11.054
86509W        W56324  25.165   1.926  14.829
86510W        W56325  36.863  10.334   2.270
86511W        W56326  18.679  14.702   4.751
86512W        W56327  43.453  31.040   4.689
86513W        W56328  35.977  24.187  14.894
86514W        W56329  33.941  30.610   1.225
86515W        W56330   4.241  30.424   0.877
86516W        W56331  12.267  27.630  11.535
86517W        W56332  15.169  12.264   3.787
86518W        W56333   3.834  17.120  13.958
86519W        W56334  43.459  17.061  10.948
86520W        W56335  13.288  33.518   3.222
86521W        W56336  21.553  13.164   0.755
86522W        W56337  19.542  25.484   2.711
86523W        W56338  28.088  21.106  10.937
86524W        W56339  18.226   7.193   2.372
86525W        W56340  39.477   0.775   1.313
86526W        W56341  21.609   5.401  14.890
86527W        W56342  26.189   1.408  13.362
86528W        W56343  26.036  23.651   4.820
86529W        W56344  28.622  13.282   2.695
86530W        W56345  30.533  31.080  13.547
86531W        W56346   7.697  35.372   0.389
86532W        W56347  12.632  10.633   1.807
86533W        W56348   0.805  31.129  10.467
86534W        W56349  39.481  28.572  11.099
86535W        W56350  42.435   5.879  11.551
86536W        W56351   5.338  10.279  11.063
86537W        W56352  25.499  32.533  11.038
86538W        W56353   9.240  25.054  13.852
86539W        W56354   7.824  37.568  10.071
86540W        W56355   7.310  42.444   4.131
86541W        W56356  26.003   0.361   0.273
86542W        W56357  36.845  34.422  13.985
86543W        W56358  31.112  18.081   1.768
86544W        W56359  25.568  16.585  13.454
86545W        W56360  13.746  13.705  11.575
86546W        W56361  33.482   2.276  13.437
86547W        W56362  11.715  28.674  12.353
86548W        W56363  20.753  11.256  12.446
86549W        W56364  10.255   6.407  13.367
86550W        W56365  41.032  31.042   4.161
86551W        W56366  31.500  13.259   4.659
86552W        W56367   8.884  44.786   1.830
86553W        W56368  34.511  44.438   1.709
86554W        W56369  37.862  44.469  13.351
86555W        W56370   5.331  38.446  14.988
86556W        W56371  26.700   7.366  14.501
86557W        W56372  41.836  29.094   4.253
86558W        W56373  10.281  25.027  14.433
86559W        W56374  33.041  37.940  12.387
86560W        W56375   5.364  34.094   3.710
86561W        W56376  20.611  10.301   4.127
86562W        W56377  30.506  19.201   0.734
86563W        W56378  34.992  23.010  13.927
86564W        W56379   5.922  37.870  10.600
86565W        W56380  23.045  33.009  12.402
86566W        W56381  33.401   0.928   1.880
86567W        W56382   9.769  42.526  13.319
86568W        W56383   2.227   3.943   3.247
86569W        W56384   9.862   7.229  14.473
86570W        W56385  34.046  43.334  12.976
86571W        W56386  21.747   1.754   1.387
86572W        W56387  24.227   1.269  11.558
86573W        W56388   8.891   3.923   3.795
86574W        W56389  11.200   6.917   1.837
86575W        W56390   6.834  39.490  12.037
86576W        W56391  21.018  21.061   4.300
86577W        W56392  12.330  43.907   1.909
86578W        W56393  22.179  25.700  13.812
86579W        W56394  27.587  44.761   2.359
86580W        W56395  40.448   8.742  11.104
86581W        W56396  32.584  42.419   2.686
86582W        W56397  14.634  14.257  14.003
86583W        W56398  14.780   5.375   1.422
86584W        W56399  41.967  26.208  11.068
86585W        W56400  33.090  18.753   0.474
86586W        W56401   1.883  11.746  13.026
86587W        W56402  33.019   7.358  14.478
86588W        W56403  21.162  19.661   3.782
86589W        W56404  25.146  23.560  14.419
86590W        W56405  34.597  22.595   1.811
86591W        W56406  15.788  24.602   1.256
86592W        W56407  42.436  34.535   1.342
86593W        W56408  35.500  32.576   0.277
86594W        W56409  29.634  41.845  10.907
86595W        W56410  43.482  38.542  14.446
86596W        W56411  31.046  15.269  12.856
86597W        W56412  29.503  36.551  12.935
86598W        W56413  25.197  37.928   0.261
86599W        W56414  13.634  12.768  13.898
86600W        W56415  23.218   4.922   4.220
86601W        W56416  23.004  30.418   1.332
86602W        W56417  40.336   9.175  14.327
86603W        W56418   6.338   9.675  10.418
86604W        W56419  37.856   7.408  11.909
86605W        W56420  38.067  41.023   1.881
86606W        W56421   3.945  39.973  10.564
86607W        W56422  34.880  38.021  13.915
86608W        W56423  19.601  33.068  10.490
86609W        W56424  28.180  12.223   3.731
86610W        W56425  42.912  26.521   1.290
86611W        W56426  43.426  10.346  11.557
86612W        W56427  33.505  36.393   4.646
86613W        W56428  43.989  30.919   3.271
86614W        W56429  33.538  34.937  10.892
86615W        W56430  12.212  38.019  11.012
86616W        W56431  30.452   8.344  11.004
86617W        W56432   1.894  25.533   1.893
86618W        W56433  28.949  13.172   4.787
86619W        W56434   5.305  18.144   2.322
86620W        W56435  22.210   4.226  11.882
86621W        W56436  18.689  29.958  11.612
86622W        W56437  29.662  34.437  11.038
86623W        W56438  41.386   0.821   3.776
86624W        W56439   9.831  27.525   1.896
86625W        W56440   6.851  10.802   0.764
86626W        W56441  35.005  40.839  12.913
86627W        W56442  36.976   9.709  14.770
86628W        W56443   5.198   6.686  12.079
86629W        W56444  35.933  15.106   2.322
86630W        W56445  13.237  16.212  12.923
86631W        W56446  32.001  18.625   4.815
86632W        W56447   0.888  12.339  14.380
86633W        W56448   4.342  25.598   3.358
86634W        W56449  41.953  31.035   3.228
86635W        W56450  13.283   9.346   3.735
86636W        W56451   2.269  34.373  14.500
86637W        W56452   4.841  22.034  14.344
86638W        W56453   8.838   8.184  14.513
86639W        W56454  34.396   2.399   4.285
86640W        W56455   1.941  14.832  13.981
86641W        W56456  28.034  41.357   1.906
86642W        W56457  28.054   4.823  13.464
86643W        W56458  10.162   6.762   0.772
86644W        W56459  27.171  35.436  13.913
86645W        W56460   5.799  31.898   4.354
86646W        W56461  38.867  22.235  11.870
86647W        W56462  43.513   4.927   3.830
86648W        W56463   1.278   0.785   0.834
86649W        W56464  31.967   3.878   1.835
86650W        W56465   4.778   6.691  14.875
86651W        W56466  20.660  26.119  12.057
86652W        W56467   2.366  17.080   2.223
86653W        W56468  28.578   1.965  10.485
86654W        W56469  18.095  17.674  14.799
86655W        W56470  24.488  42.982  11.597
86656W        W56471   6.308  29.003   3.717
86657W        W56472  25.967  14.799  13.477
86658W        W56473  32.924   5.251  11.031
86659W        W56474   4.234  16.246  10.545
86660W        W56475  18.229  40.320   0.316
86661W        W56476  38.035  13.248   4.818
86662W        W56477  28.632  20.232  13.446
86663W        W56478   5.322  18.769   3.778
86664W        W56479   0.402  23.037  13.451
86665W        W56480  41.908   3.258   1.298
86666W        W56481  42.865  26.045   1.352
86667W        W56482   6.919  21.623  11.914
86668W        W56483  21.688  10.652  10.607
86669W        W56484  33.603  33.109  10.553
86670W        W56485   6.723  34.036  13.035
86671W        W56486  35.887  23.726  14.856
86672W        W56487  37.574   0.412   1.451
86673W        W56488   1.768  12.779   4.730
86674W        W56489   0.371  20.156   4.274
86675W        W56490   2.888  25.002  12.448
86676W        W56491  32.997  34.936  14.308
86677W        W56492  36.435  10.368  11.032
86678W        W56493   8.385  27.138  12.577
86679W        W56494  38.332  24.629  13.404
86680W        W56495  40.006  24.040  11.872
86681W        W56496  29.641  31.644  12.015
86682W        W56497  10.719   7.388   1.859
86683W        W56498  31.047   9.665  13.020
86684W        W56499  15.667  23.211   3.647
86685W        W56500  25.215  34.486   0.870
86686W        W56501  27.477  15.313  13.351
86687W        W56502  30.986   3.940  10.430
86688W        W56503  20.050  10.803  12.435
86689W        W56504  23.620  27.483   0.247
86690W        W56505  32.079  11.331   4.833
86691W        W56506  12.623  24.086   3.775
86692W        W56507  25.644  15.128  10.633
86693W        W56508  44.831  19.563  13.917
86694W        W56509   3.248  30.511   2.364
86695W        W56510   8.216   3.886   4.824
86696W        W56511  14.232  10.207   4.239
86697W        W56512  36.016  18.689  14.419
86698W        W56513  31.511   6.691  13.897
86699W        W56514  44.486  17.574   5.250
86700W        W56515  35.049  26.061  10.451
86701W        W56516   3.429   0.271   2.787
86702W        W56517   4.769  31.017   4.226
86703W        W56518  29.018  34.045  14.484
86704W        W56519  36.972  28.130   3.813
86705W        W56520  18.250  24.535   0.892
86706W        W56521  19.715  42.967   1.864
86707W        W56522  11.728  10.743  11.113
86708W        W56523  39.552   5.279   0.248
86709W        W56524  15.615  18.744   4.158
86710W        W56525  27.949  42.516   1.419
86711W        W56526  35.968   4.833  13.484
86712W        W56527  44.459  31.409   4.125
86713W        W56528  36.869  13.634   1.898
86714W        W56529  35.502   9.170  10.494
86715W        W56530  41.945  34.913  12.089
86716W        W56531  22.744  20.257   0.289
86717W        W56532   5.319  43.961  14.015
86718W        W56533  39.831  24.139   1.442
86719W        W56534  39.400  24.638  10.952
86720W        W56535  39.013   3.417   4.802
86721W        W56536  20.524  39.353  10.464
86722W        W56537   5.868   9.219   4.606
86723W        W56538  39.911  29.150  10.961
86724W        W56539  11.761  43.450   4.712
86725W        W56540   1.257  33.043   3.698
86726W        W56541  10.804  29.959   4.122
86727W        W56542  10.223  25.191  10.998
86728W        W56543   3.306  12.122  14.879
86729W        W56544  11.247  31.493  14.356
86730W        W56545  39.048  38.947   2.768
86731W        W56546   7.844  17.182  13.047
86732W        W56547  34.024  44.778   0.390
86733W        W56548  15.822  27.039   1.342
86734W        W56549  41.821   4.227  12.348
86735W        W56550  39.046  35.586   3.812
86736W        W56551  32.062  14.276  10.976
86737W        W56552  22.025  33.954   1.825
86738W        W56553  27.023   6.900  10.590
86739W        W56554  24.613  16.607  11.377
86740W        W56555  11.778   7.289   3.659
86741W        W56556  24.584  42.936   1.830
86742W        W56557  28.670  30.164  10.558
86743W        W56558  44.850  22.643  12.853
86744W        W56559  10.871   4.261  10.525
86745W        W56560  36.955  41.317   2.862
86746W        W56561  15.714  14.284   4.227
86747W        W56562  25.182  26.669   1.779
86748W        W56563  21.575  41.341   1.286
86749W        W56564  22.105  30.545   0.948
86750W        W56565  39.882   0.937  12.881
86751W        W56566  21.190   0.383   0.922
86752W        W56567  39.979  17.728  11.437
86753W        W56568  28.097  34.613  11.905
86754W        W56569  39.887  16.784  10.898
86755W        W56570  41.405  20.762   3.739
86756W        W56571  24.620  30.552  11.862
86757W        W56572   2.357   8.388  11.965
86758W        W56573  14.762  34.093  11.527
86759W        W56574  31.472  19.687  13.902
86760W        W56575  23.664  44.277  12.535
86761W        W56576   2.273  21.544  14.510
86762W        W56577  19.200  20.752  14.378
86763W        W56578  30.914  13.193   4.294
86764W        W56579  16.145  17.611   3.370
86765W        W56580  38.952  22.059  14.367
86766W        W56581  14.298  25.985  13.792
86767W        W56582  36.512  18.640  13.964
86768W        W56583   9.712  38.368  12.935
86769W        W56584  15.288   3.899   4.813
86770W        W56585   9.385  17.641  10.987
86771W        W56586  26.075  35.036  11.522
86772W        W56587  13.137  35.446   2.368
86773W        W56588  19.610  25.142  11.499
86774W        W56589  17.178  29.940  10.459
86775W        W56590  44.839  30.060   4.760
86776W        W56591   7.400  14.211   0.776
86777W        W56592   6.676  42.991   2.682
86778W        W56593  22.631  42.460   2.390
86779W        W56594  13.786  26.480  13.816
86780W        W56595  17.710  44.274  14.868
86781W        W56596  18.156  15.755   4.182
86782W        W56597  35.994  44.977  13.910
86783W        W56598  38.835  35.002   0.892
86784W        W56599  44.313   2.357  14.344
86785W        W56600  32.552  29.605   3.669
86786W        W56601  33.439   5.724   0.467
86787W        W56602  27.093  33.529  10.527
86788W        W56603  14.212   6.330   1.409
86789W        W56604  38.860  12.285  11.377
86790W        W56605  17.629  35.000  14.395
86791W        W56606  42.333  20.088   3.327
86792W        W56607   3.362   3.801   2.749
86793W        W56608  23.025  17.556   1.912
86794W        W56609  38.527  16.808  14.013
86795W        W56610  26.673  19.542   2.365
86796W        W56611  21.713   5.808   0.796
86797W        W56612  14.809  43.808   0.901
86798W        W56613  38.964   5.439  14.836
86799W        W56614  28.142  10.682   0.946
86800W        W56615  18.688  19.186  12.089
86801W        W56616  19.042  32.137  14.803
86802W        W56617   0.401  24.718   4.672
86803W        W56618   0.779  31.051  11.997
86804W        W56619  23.180  35.919   2.309
86805W        W56620  40.442   1.364   0.732
86806W        W56621  28.619  34.547  12.447
86807W        W56622  26.085  38.496  14.798
86808W        W56623  38.829  25.141   3.375
86809W        W56624  25.194  26.503   4.765
86810W        W56625  41.513  15.266  14.921
86811W        W56626  43.470   9.325   3.221
86812W        W56627  22.612  32.050  12.445
86813W        W56628  15.812  18.129  13.465
86814W        W56629   9.269   2.729   4.331
86815W        W56630  21.094  33.463   5.226
86816W        W56631  19.760  25.620   5.267
86817W        W56632  25.580  21.019  14.797
86818W        W56633  31.531  25.120   4.245
86819W        W56634  20.701   0.788  12.047
86820W        W56635  28.109   9.769   3.272
86821W        W56636  24.648  13.759  14.448
86822W        W56637  13.315  17.582  12.842
86823W        W56638  24.036   7.255   2.358
86824W        W56639  44.402  38.848   9.971
86825W        W56640  13.116   3.767  10.426
86826W        W56641  37.574  24.689  12.921
86827W        W56642   6.407   7.254  14.507
86828W        W56643   5.411  28.111  14.317
86829W        W56644  20.037  44.945  10.428
86830W        W56645   1.928  39.533   3.354
86831W        W56646  36.572  40.516  14.005
86832W        W56647   8.874  35.109   0.406
86833W        W56648   9.881  42.347  13.829
86834W        W56649  26.618  10.648   4.304
86835W        W56650   2.427  37.841  13.963
86836W        W56651  36.415  23.012   1.897
86837W        W56652   4.842  23.060   1.235
86838W        W56653  16.272  31.630   2.306
86839W        W56654   2.466  38.484  14.926
86840W        W56655  27.059  42.880  10.059
86841W        W56656  28.579  15.280   2.685
86842W        W56657   0.450  35.876  14.345
86843W        W56658  42.982   8.667  10.085
86844W        W56659  34.098  33.483  11.383
86845W        W56660  27.106   7.900  12.874
86846W        W56661  19.753   5.222   4.831
86847W        W56662  40.498  11.634  10.001
86848W        W56663   5.351   0.271   4.216
86849W        W56664  16.314  25.139   2.295
86850W        W56665  22.215  28.470  12.853
86851W        W56666  11.150  20.667  11.015
86852W        W56667  24.542  12.735  13.968
86853W        W56668  35.047  36.037   3.176
86854W        W56669   5.344  41.491  13.951
86855W        W56670  37.401  26.515  13.479
86856W        W56671   1.237  34.888   4.206
86857W        W56672   7.887  30.530   4.800
86858W        W56673  39.869  15.164   0.473
86859W        W56674  17.767  34.415   3.384
86860W        W56675   4.895   2.812   4.817
86861W        W56676   3.332  14.718  13.036
86862W        W56677  25.635  19.106  14.994
86863W        W56678  12.714  31.622   3.324
86864W        W56679  42.456  38.343  12.955
86865W        W56680  30.047  25.130   1.725
86866W        W56681  36.578  37.831  14.778
86867W        W56682  21.089  33.455  10.504
86868W        W56683  39.862   6.680   4.318
86869W        W56684  24.986  24.176   4.744
86870W        W56685  22.236  13.600   2.725
86871W        W56686  27.509  20.651  13.403
86872W        W56687  12.118  31.007  13.991
86873W        W56688  35.408  43.498   3.219
86874W        W56689  39.439   1.262  14.885
86875W        W56690  36.850  24.161  12.352
86876W        W56691  35.373  39.370  13.036
86877W        W56692  19.173  34.023  11.580
86878W        W56693   9.149  26.007   2.235
86879W        W56694  11.140  40.990   3.701
86880W        W56695  10.240  15.812   1.352
86881W        W56696  21.582  21.251  11.422
86882W        W56697  38.510  24.538  10.897
86883W        W56698  33.908   0.965  14.367
86884W        W56699  40.816  26.017  13.349
86885W        W56700  14.177  28.616  12.541
86886W        W56701  14.226   6.792  13.029
86887W        W56702  21.591  37.045   4.818
86888W        W56703   8.361   9.878  14.027
86889W        W56704  13.338  10.871  12.970
86890W        W56705   3.263  18.599  14.920
86891W        W56706  39.892  24.223  12.463
86892W        W56707  18.232   8.185  10.998
86893W        W56708  39.521  25.063  14.299
86894W        W56709  16.123  19.127  14.501
86895W        W56710  10.216   4.385  12.538
86896W        W56711  18.196  43.934  13.063
86897W        W56712  37.526  38.428   1.807
86898W        W56713  13.317  20.600   4.728
86899W        W56714  22.558  16.656   1.265
86900W        W56715   2.286  27.046   3.157
86901W        W56716   8.240  20.168   2.813
86902W        W56717  36.089  32.953  12.027
86903W        W56718  13.762  25.034   3.148
86904W        W56719  36.491   3.284   3.717
86905W        W56720  22.072  40.431   3.164
86906W        W56721  20.604  28.134  14.830
86907W        W56722   6.306  39.037  13.847
86908W        W56723  29.013  27.049   3.154
86909W        W56724   5.276  38.433  10.406
86910W        W56725  41.944  26.584  14.822
86911W        W56726  44.996  19.540   1.931
86912W        W56727  43.016  44.486   3.702
86913W        W56728  35.908  22.613   2.789
86914W        W56729  36.394  14.178  12.027
86915W        W56730   9.317  42.350  10.477
86916W        W56731  36.980  12.251   1.373
86917W        W56732   4.838  31.536   3.849
86918W        W56733  26.509  38.948   3.832
86919W        W56734  27.568   2.240   4.119
86920W        W56735  44.270  23.033  11.553
86921W        W56736  37.387  29.437   3.637
86922W        W56737  37.421  34.921   3.692
86923W        W56738  44.820  21.644  13.482
86924W        W56739  10.699  12.693   4.183
86925W        W56740  17.646  15.132   1.784
86926W        W56741  10.272  28.674   0.253
86927W        W56742  20.731  12.355   3.730
86928W        W56743  23.556   9.873  14.323
86929W        W56744  32.063  40.036   3.183
86930W        W56745  44.911  34.899  13.500
86931W        W56746  14.653  43.408   0.843
86932W        W56747   8.280  32.582  12.940
86933W        W56748  31.569  27.655  14.305
86934W        W56749  38.470  21.080  13.893
86935W        W56750  23.589   6.301  12.447
86936W        W56751  33.413  11.211  13.052
86937W        W56752  13.122  28.447   1.920
86938W        W56753  20.068  13.187  10.525
86939W        W56754   6.765   6.318   3.214
86940W        W56755  26.070  29.064   0.883
86941W        W56756  11.816   0.316   2.315
86942W        W56757  16.217  39.967  14.891
86943W        W56758  12.341  27.575  13.003
86944W        W56759   4.331  24.684   0.442
86945W        W56760  42.995  44.874  10.440
86946W        W56761  12.670  35.897  10.407
86947W        W56762  26.489  26.193  13.393
86948W        W56763  38.898   9.167  14.316
86949W        W56764  26.114  41.962   3.372
86950W        W56765  33.532  34.379   0.375
86951W        W56766  13.787  38.903  13.413
86952W        W56767  18.655   5.820  11.072
86953W        W56768  28.616  11.692  10.593
86954W        W56769  29.645  33.120   1.904
86955W        W56770  28.166  26.501  12.384
86956W        W56771  21.116  36.881  14.894
86957W        W56772   6.888   0.378   4.228
86958W        W56773  20.170  32.949  13.842
86959W        W56774  27.678  44.979  14.472
86960W        W56775   2.773  26.495   2.773
86961W        W56776  17.669   5.851   2.203
86962W        W56777  21.229  28.530   2.368
86963W        W56778  42.885  11.660   0.473
86964W        W56779  35.038  16.187  12.434
86965W        W56780  37.925  10.220  13.935
86966W        W56781  33.466   1.240  12.889
86967W        W56782  15.154  44.880  12.566
86968W        W56783  13.133  41.303  14.396
86969W        W56784  27.124   9.849   5.720
86970W        W56785  10.793   6.692  12.475
86971W        W56786  16.788  17.778  13.421
86972W        W56787  35.551  16.316   2.378
86973W        W56788   0.887   9.880   4.684
86974W        W56789  28.106  30.983   2.182
86975W        W56790  42.472  18.773  10.988
86976W        W56791   0.295  39.960   3.329
86977W        W56792  15.167  28.658  11.863
86978W        W56793  20.059  17.272   1.344
86979W        W56794  30.964  38.375  10.434
86980W        W56795  27.103  23.590  11.613
86981W        W56796  24.702   2.315  12.527
86982W        W56797  20.033  32.610  11.052
86983W        W56798  32.593  16.133  11.856
86984W        W56799  40.506  43.878   2.708
86985W        W56800  36.003  15.673  10.589
86986W        W56801   8.813  40.858   4.653
86987W        W56802  12.270  13.603   3.316
86988W        W56803   2.434  32.070  13.466
86989W        W56804  30.066  11.834   1.727
86990W        W56805  36.511  43.360   4.698
86991W        W56806  12.205  12.348  10.486
86992W        W56807  10.172  20.129   1.343
86993W        W56808  43.444  31.098  10.475
86994W        W56809   3.741  42.928   3.340
86995W        W56810  11.757  21.158   1.901
86996W        W56811  17.634  23.154  10.972
86997W        W56812   5.211  28.003  12.009
86998W        W56813  21.252  26.638   3.851
86999W        W56814  31.059  12.213  11.881
87000W        W56815  16.644  19.089   4.657
87001W        W56816  39.327  14.102   2.805
87002W        W56817  29.944   2.784  13.801
87003W        W56818   6.821   3.238   1.720
87004W        W56819  13.347  39.328   1.437
87005W        W56820  30.435  15.678   1.874
87006W        W56821  28.516  34.968  14.310
87007W        W56822  27.164  41.920  11.585
87008W        W56823  33.422  41.486   4.793
87009W        W56824  32.932  20.126   0.736
87010W        W56825  42.019  16.706  11.576
87011W        W56826  33.392  44.361   3.222
87012W        W56827  32.955  35.915   2.733
87013W        W56828  26.974  32.109   1.799
87014W        W56829  40.961  18.154   0.944
87015W        W56830  20.723  16.309   4.835
87016W        W56831  17.223   4.254   1.733
87017W        W56832  42.829   2.417  14.936
87018W        W56833  12.324  13.817  12.088
87019W        W56834  13.147   6.345  10.952
87020W        W56835   6.264  14.302   3.308
87021W        W56836  34.066  42.945   4.185
87022W        W56837   1.766  14.149   3.199
87023W        W56838   2.318  15.602   0.297
87024W        W56839  30.620  35.985  14.827
87025W        W56840   7.201  42.293   0.731
87026W        W56841  42.355   4.830  13.370
87027W        W56842  28.144   7.751   3.715
87028W        W56843  38.378  31.637   4.143
87029W        W56844  11.865  20.062   0.851
87030W        W56845   4.815  26.057   4.617
87031W        W56846  26.701  22.566   1.696
87032W        W56847  17.300   8.396  12.360
87033W        W56848   3.403  16.676   2.232
87034W        W56849  23.085  10.198   0.343
87035W        W56850  20.063   5.751   3.647
87036W        W56851   9.693  22.601  10.563
87037W        W56852  10.162  26.490   0.338
87038W        W56853   8.774  38.047  10.594
87039W        W56854  21.598  44.863   2.792
87040W        W56855   2.822  19.721   1.820
87041W        W56856  40.383  26.073   0.760
87042W        W56857  22.691   6.920   1.423
87043W        W56858  12.746  44.873  14.763
87044W        W56859  20.230  37.860   2.888
87045W        W56860  35.531   2.851  11.005
87046W        W56861  38.888   8.387  13.309
87047W        W56862   2.919   3.349   1.813
87048W        W56863   6.718  21.608   2.897
87049W        W56864   5.911  23.537  10.424
87050W        W56865  19.579   2.399   1.809
87051W        W56866  18.213  24.205  14.834
87052W        W56867  37.938  17.656  10.907
87053W        W56868   0.339  21.657   0.443
87054W        W56869  36.439  37.037  12.454
87055W        W56870  21.108   7.794   9.958
87056W        W56871  18.707  28.647  10.621
87057W        W56872  34.523  33.064  12.379
87058W        W56873   8.307  13.615  10.969
87059W        W56874  26.075   7.772  12.036
87060W        W56875   3.949  27.053  11.982
87061W        W56876  35.986  28.970   1.795
87062W        W56877  26.611  43.326   2.244
87063W        W56878  30.995  43.001  13.051
87064W        W56879  29.431  26.025  10.637
87065W        W56880  27.000   1.864   3.870
87066W        W56881  12.828   4.348   0.962
87067W        W56882   0.868   9.763  10.458
87068W        W56883   7.371   8.198  10.981
87069W        W56884  30.575   2.379  12.060
87070W        W56885  23.219  30.514  13.064
87071W        W56886  35.524   3.358  14.355
87072W        W56887  42.956   1.366  14.028
87073W        W56888   2.298   7.390  11.491
87074W        W56889  17.570  11.819   4.276
87075W        W56890  12.120   9.733   3.163
87076W        W56891   0.464  38.534  12.455
87077W        W56892  16.660  39.410  13.492
87078W        W56893  10.637   1.310   3.273
87079W        W56894   9.294  42.522  13.501
87080W        W56895  14.274  18.680   4.699
87081W        W56896  26.166  18.736   2.397
87082W        W56897  12.799  12.344   3.741
87083W        W56898  20.523  28.022   1.286
87084W        W56899  14.314  36.522   1.341
87085W        W56900  38.830  10.364  10.525
87086W        W56901  16.633   3.326   4.707
87087W        W56902  34.509  27.113  11.857
87088W        W56903   3.224   3.247   2.182
87089W        W56904  29.644  31.583   4.679
87090W        W56905  24.085  40.914   0.749
87091W        W56906  16.799  20.540  11.496
87092W        W56907  34.999  34.421   0.301
87093W        W56908   9.284   0.327  14.399
87094W        W56909  36.456  25.705  12.384
87095W        W56910  12.161  22.695  11.430
87096W        W56911  18.719   7.801   4.667
87097W        W56912  40.464  32.500  13.417
87098W        W56913  31.430   4.391   3.700
87099W        W56914  22.059  14.642  12.398
87100W        W56915  26.118  21.020  14.834
87101W        W56916  30.040  12.253   0.295
87102W        W56917  32.965  39.019   3.242
87103W        W56918  42.911   9.290  13.406
87104W        W56919  34.093   6.720  13.998
87105W        W56920   6.684  33.577  13.912
87106W        W56921  27.186  44.922  11.989
87107W        W56922   0.857  29.661   0.872
87108W        W56923   2.765   9.675   1.734
87109W        W56924  14.137  21.653  11.121
87110W        W56925  43.953  20.704   3.796
87111W        W56926  16.195  36.375   3.343
87112W        W56927  40.358  40.515  12.499
87113W        W56928   6.881  17.639   2.272
87114W        W56929  20.165  11.647   0.295
87115W        W56930  20.106  42.958   1.751
87116W        W56931  14.689  26.585   1.707
87117W        W56932  10.384  37.905  11.929
87118W        W56933  34.063  35.083  13.475
87119W        W56934  40.453  25.106  10.476
87120W        W56935   6.270  31.523  11.446
87121W        W56936  27.195  38.984  10.007
87122W        W56937  39.327   4.305   1.932
87123W        W56938   9.762  13.635   0.929
87124W        W56939  19.654  28.066  10.897
87125W        W56940   4.820  26.498   3.743
87126W        W56941  31.967  41.025  11.061
87127W        W56942  36.465  31.516  13.937
87128W        W56943  15.628  24.050  13.423
87129W        W56944  23.588   4.734   3.358
87130W        W56945  10.265  26.961  12.426
87131W        W56946  18.641  22.717  10.601
87132W        W56947   0.425  40.909  13.799
87133W        W56948  30.996  35.873  12.017
87134W        W56949  44.878  36.076   4.664
87135W        W56950  41.463   5.403   2.772
87136W        W56951  41.502  34.881   4.677
87137W        W56952   9.314  28.002   3.634
87138W        W56953   4.320  34.425  11.101
87139W        W56954  24.519  28.518   4.290
87140W        W56955  34.938  32.934  11.956
87141W        W56956  27.975   1.442   3.735
87142W        W56957  11.751   3.775   0.363
87143W        W56958   4.938  26.100  13.901
87144W        W56959   6.858  38.826   2.294
87145W        W56960  35.010  35.476   2.405
87146W        W56961  27.478  38.419  14.874
87147W        W56962  30.435  11.761  10.497
87148W        W56963  40.810  32.442   3.833
87149W        W56964   6.185  36.843  10.455
87150W        W56965  35.442  33.070  12.422
87151W        W56966  21.247   7.298  12.828
87152W        W56967  31.987  20.724  11.965
87153W        W56968  15.781   2.853   2.860
87154W        W56969  37.934  36.964   4.615
87155W        W56970   7.904  31.478  11.930
87156W        W56971   8.230  24.490   1.740
87157W        W56972   5.690  20.248   3.783
87158W        W56973  18.191  44.825  14.490
87159W        W56974  28.943  40.032   2.184
87160W        W56975   3.841   1.891  14.900
87161W        W56976  38.476  34.550   2.285
87162W        W56977   2.813  31.485  12.489
87163W        W56978  23.621  32.033   4.312
87164W        W56979  27.641  28.498   3.842
87165W        W56980  26.994   8.840   1.447
87166W        W56981  30.107  32.002   0.962
87167W        W56982  43.347  39.043  12.945
87168W        W56983  40.822  14.646   4.154
87169W        W56984  34.470  19.270   0.257
87170W        W56985   2.239  29.949   2.833
87171W        W56986  42.986  34.376  12.932
87172W        W56987  43.900  18.100  14.936
87173W        W56988   4.208  31.584  11.996
87174W        W56989  12.312  44.351  13.474
87175W        W56990  24.541  16.723   9.516
87176W        W56991   4.245  31.490  12.895
87177W        W56992  38.950  12.800   2.729
87178W        W56993  18.680   1.463  11.091
87179W        W56994  12.119  38.393  13.961
87180W        W56995   6.361   3.947  11.081
87181W        W56996  20.139  38.045  10.944
87182W        W56997  29.450  31.121  14.434
87183W        W56998  26.070  23.095  10.928
87184W        W56999  10.283  39.326  11.384
87185W        W57000  37.419  23.149   1.798
87186W        W57001  22.604  44.806  12.045
87187W        W57002  41.403   5.735   3.299
87188W        W57003  37.472  43.787   0.371
87189W        W57004  10.355  34.465  10.603
87190W        W57005  42.503   0.485  10.494
87191W        W57006  31.426   8.846  14.827
87192W        W57007  31.138  20.270   0.755
87193W        W57008  38.563   7.361   2.780
87194W        W57009  38.498  29.428  14.482
87195W        W57010   4.242   4.753  12.868
87196W        W57011  23.668  35.565   4.301
87197W        W57012   8.753  26.559   4.220
87198W        W57013   1.957   5.729  14.342
87199W        W57014  39.025  13.688   0.385
87200W        W57015  38.354  11.818  13.361
87201W        W57016   4.369  14.668  12.460
87202W        W57017  21.682  26.121   0.805
87203W        W57018  35.959  10.673  11.952
87204W        W57019  34.603   6.215  10.889
87205W        W57020   6.756  30.947  13.410
87206W        W57021  36.378   6.249  11.458
87207W        W57022  19.241  10.196  14.805
87208W        W57023   3.818  33.578  10.623
87209W        W57024  40.840   4.370  11.114
87210W        W57025  39.354  38.888  10.508
87211W        W57026  15.272   9.719  14.329
87212W        W57027  14.659  25.091   3.383
87213W        W57028   9.689  32.470   3.674
87214W        W57029  33.442  35.550   3.767
87215W        W57030  43.411  21.208   9.973
87216W        W57031  29.054   2.346   0.330
87217W        W57032  40.366  27.160   4.268
87218W        W57033  44.334   6.245  13.843
87219W        W57034  22.631   9.705  10.442
87220W        W57035   6.350  38.961  10.432
87221W        W57036  42.797  20.208   0.950
87222W        W57037  23.702  14.272   3.336
87223W        W57038  14.638  42.289  13.398
87224W        W57039  18.708  43.975   1.707
87225W        W57040  23.615  19.274  11.486
87226W        W57041  16.606  21.662   1.306
87227W        W57042  44.758   7.731   2.689
87228W        W57043  34.072  41.799  14.448
87229W        W57044  25.620   4.877   1.855
87230W        W57045  29.631  25.219   3.755
87231W        W57046  32.139  22.146   9.981
87232W        W57047  11.369  27.554  13.504
87233W        W57048  34.570  17.614  14.900
87234W        W57049  42.352  37.354   1.323
87235W        W57050   4.737   2.839  12.018
87236W        W57051  29.117  17.124   4.210
87237W        W57052  19.064   5.318  12.826
87238W        W57053   0.947  40.046   4.752
87239W        W57054  31.961  44.374  13.059
87240W        W57055  35.934  31.975  14.444
87241W        W57056  34.048  18.648  13.985
87242W        W57057  37.983  32.504   0.258
87243W        W57058  38.861  31.925   9.922
87244W        W57059  34.979  10.158  11.872
87245W        W57060  41.879  19.191   1.817
87246W        W57061  27.085   5.837  14.026
87247W        W57062  41.792  34.900   1.417
87248W        W57063  40.310  29.444   2.677
87249W        W57064  31.146  20.133   3.235
87250W        W57065   4.895  24.549   2.770
87251W        W57066   7.794   8.877  13.836
87252W        W57067   5.326   6.196   1.448
87253W        W57068  32.415  28.644   2.876
87254W        W57069   6.309   4.233   4.283
87255W        W57070  10.381  14.193  14.966
87256W        W57071   3.455  24.599  12.872
87257W        W57072  43.890  31.121  13.317
87258W        W57073  32.038  44.785  10.928
87259W        W57074  34.879  20.618  14.777
87260W        W57075  15.683  40.822   3.211
87261W        W57076   3.327  14.731   0.726
87262W        W57077  11.289  42.936   1.805
87263W        W57078   2.760  23.989   4.308
87264W        W57079   7.728  26.697   4.144
87265W        W57080   6.831   9.285  13.831
87266W        W57081  22.739  34.965  11.957
87267W        W57082   0.782  27.532   0.408
87268W        W57083  43.295   1.284   1.877
87269W        W57084  20.589  19.594   2.841
87270W        W57085   3.858  10.239  13.000
87271W        W57086  37.420  21.598  14.463
87272W        W57087  40.331  32.991   1.828
87273W        W57088  18.185  31.465   0.835
87274W        W57089   8.891   0.871   3.313
87275W        W57090   1.733  32.921  10.549
87276W        W57091  25.123  27.099   2.292
87277W        W57092   2.942   6.297   0.314
87278W        W57093  23.158  15.776   2.769
87279W        W57094  24.611  41.870   2.242
87280W        W57095   0.439  27.084  13.840
87281W        W57096  30.018  33.431  12.557
87282W        W57097   7.809  21.690  14.451
87283W        W57098  23.594  23.647   1.798
87284W        W57099   1.333  34.104   0.938
87285W        W57100  16.799  22.133  12.936
87286W        W57101  25.488  36.457  11.115
87287W        W57102  12.751  32.114  10.539
87288W        W57103  27.506  29.958  14.758
87289W        W57104  33.400  28.505   0.394
87290W        W57105  27.098  12.719  11.101
87291W        W57106  15.119  36.390   0.483
87292W        W57107   2.328  29.573  14.479
87293W        W57108  20.227  12.334   1.452
87294W        W57109  37.557  24.492  11.496
87295W        W57110  14.259  31.630   3.356
87296W        W57111  17.698   4.807  14.859
87297W        W57112  42.501  16.319   1.342
87298W        W57113   6.368  21.743  14.506
87299W        W57114  12.620  43.387   3.260
87300W        W57115  38.362   8.694   3.786
87301W        W57116  24.164  28.102   3.738
87302W        W57117  19.633  21.681  13.037
87303W        W57118  28.487  22.064   0.293
87304W        W57119  35.946  18.292   2.250
87305W        W57120   7.232  13.180   0.736
87306W        W57121  21.588  10.801  13.917
87307W        W57122  22.551  12.124   4.826
87308W        W57123  11.347   0.924   0.897
87309W        W57124  27.616  23.067   2.214
87310W        W57125  19.198   9.815  14.395
87311W        W57126  34.420  42.920  11.018
87312W        W57127  44.791  12.640  13.431
87313W        W57128  33.387  21.255  11.935
87314W        W57129  16.621   4.289   4.768
87315W        W57130  30.616   1.796  12.384
87316W        W57131  21.019   9.868  11.588
87317W        W57132  17.243   2.229  11.398
87318W        W57133  28.002  11.697  12.529
87319W        W57134   8.901  33.933   3.853
87320W        W57135  34.093  10.642   0.452
87321W        W57136  42.314   8.803  13.453
87322W        W57137  30.020  26.608  11.067
87323W        W57138  14.684  20.565  14.428
87324W        W57139  31.637  27.687  13.398
87325W        W57140  41.897  18.090   2.347
87326W        W57141  30.015  19.712   0.251
87327W        W57142  19.042  12.353  10.901
87328W        W57143  16.656  27.135  11.888
87329W        W57144  23.593   9.789   1.894
87330W        W57145   3.434   2.410   1.428
87331W        W57146  26.107  41.009   1.833
87332W        W57147  42.784   0.772   3.330
87333W        W57148  11.631  30.056  13.528
87334W        W57149   7.326  37.409   3.240
87335W        W57150  12.155  31.061   4.162
87336W        W57151  31.995  32.120  14.318
87337W        W57152  35.991  17.693   0.894
87338W        W57153  10.346  11.281   3.215
87339W        W57154  14.777  39.913   0.245
87340W        W57155  44.993  27.635   3.286
87341W        W57156   5.794  44.313  13.018
87342W        W57157  24.616  26.052   0.254
87343W        W57158   4.911  43.406  11.420
87344W        W57159  26.651  27.645  11.887
87345W        W57160  42.397   6.769   1.212
87346W        W57161   9.859  27.671   0.322
87347W        W57162   5.889  29.649  12.371
87348W        W57163  36.451  11.690  12.887
87349W        W57164   8.207  25.527  12.095
87350W        W57165  42.783  10.297  12.402
87351W        W57166  37.073   4.291   0.335
87352W        W57167  17.257  42.915   3.201
87353W        W57168  38.872  39.890  14.952
87354W        W57169   7.792  10.140  13.479
87355W        W57170  40.002  35.062   2.859
87356W        W57171  14.189  41.032   2.215
87357W        W57172  23.612  37.973  13.044
87358W        W57173  21.106   9.160   0.769
87359W        W57174   3.382   7.409   0.416
87360W        W57175  38.498   6.765  10.971
87361W        W57176   0.875  30.431   5.179
87362W        W57177  36.033   8.695   4.212
87363W        W57178  15.677   4.731  12.022
87364W        W57179  44.480  30.025  12.959
87365W        W57180   4.767  11.244   4.140
87366W        W57181  44.302   4.388   2.801
87367W        W57182  27.548   2.240  14.304
87368W        W57183  13.313  15.244   4.670
87369W        W57184  17.080   7.280  12.471
87370W        W57185  38.903   0.936  12.529
87371W        W57186   5.728  31.145   1.401
87372W        W57187  30.077  43.437  12.376
87373W        W57188  44.426  20.672   2.358
87374W        W57189  21.705  20.057   4.694
87375W        W57190  37.899  13.600  10.625
87376W        W57191  10.733  41.888  14.898
87377W        W57192  26.036  29.533   1.797
87378W        W57193  27.970   1.828  10.447
87379W        W57194  19.085  29.067   1.267
87380W        W57195   4.381  35.873  13.843
87381W        W57196  25.196  41.997  13.009
87382W        W57197  36.382   4.300  12.931
87383W        W57198   1.479  25.213   2.856
87384W        W57199  12.630  20.248   3.826
87385W        W57200  40.368  43.792   4.219
87386W        W57201  13.724  27.484  14.009
87387W        W57202  25.527  28.578   4.292
87388W        W57203   1.352  14.706  10.912
87389W        W57204  40.037  30.049  12.354
87390W        W57205   3.436   3.955   0.854
87391W        W57206   6.220  29.488  13.461
87392W        W57207  18.148   3.739   2.216
87393W        W57208  40.804   8.310   9.526
87394W        W57209  31.519  29.590  14.002
87395W        W57210  41.868  15.791   1.845
87396W        W57211  22.591  18.059  13.045
87397W        W57212   1.308  42.857  13.539
87398W        W57213  42.481  24.068   3.273
87399W        W57214  34.462  26.457  12.895
87400W        W57215  23.520  16.118   5.281
87401W        W57216  40.810  18.259   0.419
87402W        W57217  15.652  41.411   2.274
87403W        W57218   3.454  40.844  11.993
87404W        W57219  10.675   0.355  13.826
87405W        W57220  15.128  15.117  11.121
87406W        W57221  24.174   3.950  11.612
87407W        W57222  33.404  40.407   1.886
87408W        W57223  10.202  12.355   3.726
87409W        W57224  10.374  37.959  14.014
87410W        W57225  21.584  19.049   0.361
87411W        W57226  14.698  26.092  11.921
87412W        W57227   4.838  43.286  13.015
87413W        W57228  31.938  29.662   0.823
87414W        W57229  14.684  19.641  14.934
87415W        W57230   5.287  16.146  11.603
87416W        W57231  27.445  18.738  13.502
87417W        W57232  31.077  42.421   1.332
87418W        W57233  37.971  16.154  11.532
87419W        W57234  40.946  26.479   3.657
87420W        W57235  38.854  32.952   4.242
87421W        W57236  25.079  16.289  14.017
87422W        W57237  25.687   8.797  14.374
87423W        W57238  33.089  19.605  14.776
87424W        W57239  32.077  14.646  13.905
87425W        W57240   6.705   1.816   0.439
87426W        W57241  43.371  36.098   0.837
87427W        W57242  23.591   7.737   4.317
87428W        W57243  30.110  41.940  14.877
87429W        W57244  22.587  21.579   0.301
87430W        W57245  23.532  42.313   1.415
87431W        W57246  38.857  35.571   1.284
87432W        W57247  18.121  19.596  11.385
87433W        W57248   5.691   3.745  12.827
87434W        W57249  28.517  33.039  12.952
87435W        W57250  25.479  26.986  12.546
87436W        W57251  19.638  30.558   0.739
87437W        W57252   6.804  11.338   1.375
87438W        W57253  19.176  38.373   2.850
87439W        W57254  34.587   5.265  14.760
87440W        W57255  32.002  32.437  14.881
87441W        W57256  13.332  22.189  10.936
87442W        W57257  19.740  20.121  14.282
87443W        W57258  31.435  38.363  11.439
87444W        W57259  31.121  10.805  13.874
87445W        W57260  11.316  26.171   2.827
87446W        W57261  44.840  20.176  14.457
87447W        W57262  34.053  34.880   0.729
87448W        W57263  28.942  33.063  13.026
87449W        W57264  30.159   4.790   1.347
87450W        W57265   4.788  35.931   0.965
87451W        W57266  40.987   2.303   4.688
87452W        W57267  30.937   3.806   0.854
87453W        W57268  24.707  24.028  11.612
87454W        W57269  12.169  18.252   4.279
87455W        W57270   0.809   4.288  12.050
87456W        W57271  12.284  44.954  12.405
87457W        W57272   5.885  19.622   1.284
87458W        W57273   3.297   4.356  12.393
87459W        W57274  34.071  33.379   4.790
87460W        W57275  41.931  42.856   2.356
87461W        W57276  37.474  13.245  13.430
87462W        W57277  18.272  26.689  12.456
87463W        W57278  40.865  20.241   3.282
87464W        W57279   3.851   1.433  12.891
87465W        W57280  25.132   4.726   4.712
87466W        W57281  23.043  31.995   2.664
87467W        W57282  32.131  21.118   2.296
87468W        W57283   1.959  33.949  14.394
87469W        W57284  39.865  40.361   3.154
87470W        W57285  39.493   4.447  13.793
87471W        W57286  42.509  33.986  10.968
87472W        W57287  22.997  15.591  12.481
87473W        W57288  37.860  29.450  11.594
87474W        W57289  27.482  41.991   3.700
87475W        W57290  44.796  12.261  10.636
87476W        W57291   6.191   8.286   1.711
87477W        W57292   2.357  14.290   3.633
87478W        W57293  18.616   0.775  10.562
87479W        W57294   8.748  17.082   3.358
87480W        W57295  29.556  37.909  13.955
87481W        W57296  40.456  15.715   4.336
87482W        W57297   5.229  16.643   0.827
87483W        W57298   8.752  42.508  13.476
87484W        W57299  24.567   6.714   2.855
87485W        W57300  13.218  20.085   1.720
87486W        W57301  37.459  24.604  12.077
87487W        W57302  25.574  22.996  12.351
87488W        W57303  10.783  44.923  10.476
87489W        W57304  19.069  28.967  14.004
87490W        W57305   2.967  28.116   1.211
87491W        W57306  19.765   9.328   3.210
87492W        W57307   5.734  38.882   4.161
87493W        W57308  12.613   7.693  10.565
87494W        W57309  28.544  17.243  12.554
87495W        W57310   1.877  19.618   4.744
87496W        W57311  19.657  12.318   3.298
87497W        W57312  27.002  32.464  10.551
87498W        W57313  39.484  30.921   2.243
87499W        W57314  43.017  42.027  12.344
87500W        W57315  33.942  39.034   0.416
87501W        W57316  21.152  11.289  11.968
87502W        W57317  14.290  10.780  14.998
87503W        W57318   0.915  32.034  13.796
87504W        W57319  17.104  42.509  11.990
87505W        W57320  17.773  17.211  10.902
87506W        W57321   1.255  40.413  13.347
87507W        W57322  41.833  36.070  12.401
87508W        W57323  13.271  20.261  12.998
87509W        W57324  32.135  28.959   2.833
87510W        W57325  10.835   6.726  10.629
87511W        W57326  40.381  40.030   5.289
87512W        W57327  41.858  20.617  12.395
87513W        W57328  10.213  36.884  11.885
87514W        W57329  40.019  31.498   4.344
87515W        W57330  16.683  22.710  14.429
87516W        W57331  13.281  40.302  11.081
87517W        W57332  39.817  38.937  11.393
87518W        W57333   9.815   1.329  14.855
87519W        W57334  35.473  41.858  10.889
87520W        W57335  32.563  42.429   1.390
87521W        W57336   5.202   7.703   2.398
87522W        W57337  35.926  19.234   0.426
87523W        W57338  22.540   6.255   2.222
87524W        W57339  43.457   8.740  14.927
87525W        W57340  32.945  26.098   3.810
87526W        W57341  18.156  42.404   3.665
87527W        W57342  25.186  35.942   3.257
87528W        W57343  21.044  36.476   0.962
87529W        W57344  40.039  34.449  13.313
87530W        W57345  17.271  19.753  12.849
87531W        W57346  21.049  30.126   2.244
87532W        W57347   7.735   8.864   2.806
87533W        W57348  23.127  12.794  13.929
87534W        W57349  24.227  42.418  11.961
87535W        W57350  23.733  25.159   4.758
87536W        W57351  32.483  39.410  10.975
87537W        W57352  33.505  10.680  10.616
87538W        W57353  30.164  40.424  10.560
87539W        W57354  17.649  20.648  11.987
87540W        W57355  28.506  34.996  10.988
87541W        W57356   3.780  14.591   0.364
87542W        W57357  15.686  38.047   2.245
87543W        W57358  25.496  10.303   3.194
87544W        W57359  27.028  33.479   3.334
87545W        W57360  20.216   0.464   0.962
87546W        W57361  42.957  30.635  14.877
87547W        W57362  43.506  44.903  11.934
87548W        W57363  18.095  37.956  14.894
87549W        W57364  14.322  43.339   1.405
87550W        W57365  39.997  25.196  14.779
87551W        W57366  14.330   9.804   2.396
87552W        W57367   1.975  30.113   3.248
87553W        W57368  14.185  19.568   1.327
87554W        W57369  44.793   0.924  11.966
87555W        W57370  24.545  27.058   3.260
87556W        W57371  11.158   9.318  12.020
87557W        W57372  25.485  10.346  10.473
87558W        W57373  14.673  29.636   2.279
87559W        W57374  35.854   4.901  10.059
87560W        W57375  33.995  13.335  10.589
87561W        W57376  11.135  35.092   4.285
87562W        W57377  24.509  43.888   4.187
87563W        W57378  34.932   4.805   3.715
87564W        W57379  15.296  35.567  13.839
87565W        W57380  11.254  43.828  10.967
87566W        W57381   5.707  16.097   4.824
87567W        W57382  29.961  23.042   0.861
87568W        W57383  38.526  20.175   2.412
87569W        W57384  13.290  41.810   2.891
87570W        W57385  24.215  42.989  10.113
87571W        W57386  37.928  13.807   0.871
87572W        W57387  32.085  18.179  10.487
87573W        W57388  40.809  28.617   1.254
87574W        W57389  35.901  38.897  12.828
87575W        W57390  34.402  25.668  10.957
87576W        W57391  40.996  26.505  14.951
87577W        W57392   3.909  19.768  14.022
87578W        W57393  42.974  37.841  13.541
87579W        W57394   2.874  27.152  13.467
87580W        W57395   8.199  30.065  10.434
87581W        W57396   1.939  20.091  14.967
87582W        W57397  43.779  28.976   1.293
87583W        W57398  20.242  21.624   2.687
87584W        W57399  41.486  39.966  12.433
87585W        W57400  32.598  15.748  14.321
87586W        W57401  31.016  18.055   0.314
87587W        W57402  38.961  13.727  12.340
87588W        W57403  23.601  40.471  12.860
87589W        W57404  40.411   4.768  13.320
87590W        W57405  18.753  12.785   5.151
87591W        W57406  22.735  44.934  13.423
87592W        W57407   0.791   4.879  11.008
87593W        W57408   6.194  24.182   1.241
87594W        W57409  29.468   3.272   4.790
87595W        W57410  15.580  17.622  14.475
87596W        W57411  14.711  13.204   4.278
87597W        W57412  17.695   1.365   4.114
87598W        W57413  11.813   9.669   1.886
87599W        W57414  13.202   6.241  13.455
87600W        W57415   5.906  37.931  11.108
87601W        W57416   2.421   9.268  13.354
87602W        W57417  31.415  35.017   0.280
87603W        W57418  37.573  18.753   2.204
87604W        W57419  30.628   9.192   1.801
87605W        W57420  44.416   7.335   4.623
87606W        W57421  30.579  29.585  12.389
87607W        W57422  41.967  29.640  13.392
87608W        W57423  20.744  39.337   1.792
87609W        W57424  23.180  41.490   0.813
87610W        W57425  36.897   7.247   1.823
87611W        W57426   9.692  30.557  14.438
87612W        W57427  42.950  18.556   0.768
87613W        W57428   1.954  24.079  12.051
87614W        W57429  10.208  11.707   4.307
87615W        W57430  29.578  15.255  11.030
87616W        W57431  15.240  13.652   2.691
87617W        W57432  20.741  21.059  10.427
87618W        W57433  44.846  12.742  10.946
87619W        W57434  19.153  26.059   0.807
87620W        W57435  36.432  23.124   4.281
87621W        W57436  31.944   4.238  12.442
87622W        W57437  14.772  27.581   3.813
87623W        W57438  13.219  18.730  10.432
87624W        W57439  29.156  27.547  13.470
87625W        W57440  42.020  40.419  12.536
87626W        W57441  41.830  19.211  10.567
87627W        W57442   7.362  19.178  13.904
87628W        W57443  41.998   5.256  11.049
87629W        W57444  30.989  41.940   1.343
87630W        W57445  35.370  24.196  11.032
87631W        W57446  41.337  44.979  11.014
87632W        W57447   3.360  19.285  12.437
87633W        W57448  16.218  22.667   0.262
87634W        W57449  16.259  44.288  12.565
87635W        W57450   5.706  37.543   4.745
87636W        W57451   3.898  13.600   1.406
87637W        W57452  26.005   5.902   1.765
87638W        W57453  28.537  35.489   0.389
87639W        W57454  20.649  23.691   0.877
87640W        W57455   4.319  27.503  11.861
87641W        W57456   9.808  37.087   2.258
87642W        W57457  17.791  21.574   4.655
87643W        W57458   6.267  42.898  14.902
87644W        W57459  28.069  36.423   1.427
87645W        W57460  11.832  34.057  12.903
87646W        W57461  21.130  29.111  10.098
87647W        W57462  30.560  14.217  13.996
87648W        W57463  43.433  12.641   2.890
87649W        W57464  15.628  41.828  11.447
87650W        W57465  28.437  24.519   4.251
87651W        W57466  29.055   4.768   0.363
87652W        W57467  35.600  38.979  13.963
87653W        W57468  11.799  15.598   1.440
87654W        W57469  28.446   0.373   4.145
87655W        W57470  36.571  13.208   3.164
87656W        W57471   0.355   3.368   1.286
87657W        W57472  31.042  19.539   3.338
87658W        W57473  24.183   5.742   4.316
87659W        W57474  40.910   0.875   3.686
87660W        W57475  27.502   0.400   2.744
87661W        W57476  15.113  28.471   4.354
87662W        W57477  19.240  18.703   1.444
87663W        W57478  12.752   7.336   4.801
87664W        W57479  20.724  11.860   0.944
87665W        W57480  16.661  23.626   4.716
87666W        W57481   3.917  32.518   1.337
87667W        W57482  31.939  29.053   1.401
87668W        W57483  21.123  20.211  12.358
87669W        W57484  40.012  12.355  13.896
87670W        W57485  35.912   9.798  12.476
87671W        W57486  16.690   7.703   1.425
87672W        W57487  30.523  17.117  12.084
87673W        W57488  34.411  21.687   1.340
87674W        W57489  21.625  19.047   4.606
87675W        W57490  21.707  38.992  10.636
87676W        W57491   3.390  44.297   1.812
87677W        W57492  12.184   6.783  13.864
87678W        W57493  22.591  18.559  11.446
87679W        W57494  28.661  11.299  13.908
87680W        W57495   8.193  30.943   2.732
87681W        W57496   1.795   4.228  13.993
87682W        W57497  32.989  16.743  12.516
87683W        W57498  10.674  25.467   3.813
87684W        W57499  36.879  14.124  10.995
87685W        W57500   5.391   6.279  13.851
87686W        W57501   0.450  27.123  14.365
87687W        W57502  27.478  21.194  12.941
87688W        W57503  10.658  23.633  11.057
87689W        W57504  23.596  38.515   1.705
87690W        W57505   2.414  36.859  12.508
87691W        W57506   1.307  30.926  14.447
87692W        W57507  37.912   9.162   3.304
87693W        W57508   4.288  41.490  10.985
87694W        W57509  43.848  19.183   3.349
87695W        W57510  12.209  42.012  13.479
87696W        W57511  20.029   1.792   0.337
87697W        W57512  37.479   0.493   4.725
87698W        W57513  13.736   9.815   1.757
87699W        W57514  29.505  10.357   1.394
87700W        W57515  31.477  22.564  10.429
87701W        W57516   6.797  17.766   1.735
87702W        W57517   2.721  20.566  12.030
87703W        W57518  27.505  39.397  10.927
87704W        W57519  22.996  17.239  12.080
87705W        W57520  15.246  32.953  11.506
87706W        W57521  32.099  26.658   0.258
87707W        W57522  36.929  10.703   0.963
87708W        W57523  41.832  28.102   2.215
87709W        W57524  19.048  10.703   1.449
87710W        W57525   4.752  22.032   0.898
87711W        W57526  22.686  24.179   1.810
87712W        W57527   1.268  27.189  14.452
87713W        W57528  37.869  44.927   3.228
87714W        W57529  30.599   5.206  12.359
87715W        W57530  33.021  23.706  14.972
87716W        W57531  38.881  19.075   3.848
87717W        W57532  28.569   1.740   3.746
87718W        W57533  43.020   1.931  12.400
87719W        W57534  14.821  40.861  13.969
87720W        W57535  36.446  35.035  12.841
87721W        W57536   9.811  22.568  11.889
87722W        W57537  17.656   4.382   3.759
87723W        W57538  32.511  31.614   1.869
87724W        W57539   6.308  38.329  12.083
87725W        W57540  15.788  27.998   3.864
87726W        W57541   4.870  14.297  13.436
87727W        W57542  11.821  25.027   4.722
87728W        W57543  30.526  27.599   1.239
87729W        W57544  34.520  13.742  13.915
87730W        W57545  28.497  44.935  14.876
87731W        W57546  40.482  30.030   2.351
87732W        W57547  41.519  28.484   0.802
87733W        W57548  20.040   6.366  11.920
87734W        W57549   3.839  25.120  14.397
87735W        W57550  42.407  16.154   2.748
87736W        W57551  30.617  27.550   0.841
87737W        W57552  41.521   4.746   3.307
87738W        W57553   6.217   0.802  10.613
87739W        W57554  23.226   3.315   2.775
87740W        W57555  17.297  12.699   4.116
87741W        W57556  24.182  37.917  13.049
87742W        W57557   3.791  34.963  14.026
87743W        W57558  16.665  25.599   2.673
87744W        W57559   4.727  42.319  11.095
87745W        W57560   6.375  17.200  11.594
87746W        W57561   9.745  40.925   3.201
87747W        W57562  30.948  31.464  13.952
87748W        W57563  30.556  20.160  13.536
87749W        W57564   5.791  21.169  10.908
87750W        W57565   7.801   5.433  12.046
87751W        W57566  18.699  24.720  12.941
87752W        W57567   7.682  32.953   0.766
87753W        W57568  13.761  38.505   0.827
87754W        W57569  16.745  17.584  11.406
87755W        W57570  21.573  38.925   4.240
87756W        W57571  31.501   3.893  12.845
87757W        W57572  15.140  10.173   4.151
87758W        W57573   0.417  39.005  10.525
87759W        W57574  40.989  18.637   4.289
87760W        W57575  25.072  23.172  14.895
87761W        W57576  43.507  26.956   4.139
87762W        W57577  20.529  43.931   1.345
87763W        W57578   7.869  37.079   1.816
87764W        W57579  24.635  16.227   4.260
87765W        W57580  16.738  42.417   2.749
87766W        W57581  41.006   9.745  12.527
87767W        W57582  29.633  15.227   0.460
87768W        W57583   5.340  44.969  10.474
87769W        W57584  22.087  27.194   2.242
87770W        W57585   0.870   2.399   3.815
87771W        W57586   1.310   3.438  12.447
87772W        W57587  44.765  23.169  14.931
87773W        W57588  28.624   5.198  10.623
87774W        W57589  13.144  10.333   2.878
87775W        W57590  32.916   8.187  11.054
87776W        W57591   3.811  27.617   4.759
87777W        W57592  33.112  12.667  11.433
87778W        W57593  12.359  35.867  13.418
87779W        W57594  39.490  20.108   3.812
87780W        W57595   7.718  32.574  10.600
87781W        W57596  20.526  14.739  14.769
87782W        W57597  23.044   4.932  14.951
87783W        W57598  44.830  34.394   0.793
87784W        W57599  12.683  27.976   2.766
87785W        W57600   7.358   7.828   2.797
87786W        W57601   5.319  14.279   2.194
87787W        W57602  40.854  30.448   4.606
87788W        W57603  29.537  21.531  13.332
87789W        W57604  38.009  35.084   3.296
87790W        W57605  10.638   6.757   0.484
87791W        W57606  41.501  35.562  12.416
87792W        W57607   1.776  15.105  14.909
87793W        W57608  11.840  34.921   0.320
87794W        W57609  43.917  16.688  10.920
87795W        W57610   9.258  13.841  11.032
87796W        W57611   5.927  42.347   3.741
87797W        W57612  11.756  15.746  13.863
87798W        W57613  27.522   0.296  12.028
87799W        W57614  43.424   2.845   4.147
87800W        W57615   5.273  31.647   1.282
87801W        W57616  17.098  12.619  14.888
87802W        W57617   5.793   4.374   3.780
87803W        W57618  39.915  35.393   2.308
87804W        W57619  36.843  31.951  14.325
87805W        W57620  12.173   4.890  14.430
87806W        W57621   9.873  25.988   1.892
87807W        W57622  12.129  39.367  10.558
87808W        W57623   8.162  21.601   4.201
87809W        W57624  30.638  27.097   4.252
87810W        W57625   6.368  42.972   2.226
87811W        W57626  40.536  13.174  10.994
87812W        W57627  12.326  17.665   3.355
87813W        W57628  38.393  16.112   1.232
87814W        W57629  13.805   8.365   4.599
87815W        W57630  25.081   2.469   1.931
87816W        W57631  44.002  14.164   1.720
87817W        W57632  21.138  16.113  13.932
87818W        W57633   9.695  19.696   3.854
87819W        W57634  28.056  40.916  11.464
87820W        W57635  11.625  40.458   0.736
87821W        W57636  41.524  23.519   3.741
87822W        W57637  14.201  17.125  10.517
87823W        W57638   0.481  10.865   0.813
87824W        W57639  24.225  26.187  12.046
87825W        W57640  32.474   3.862   3.222
87826W        W57641   1.899  37.502   2.366
87827W        W57642   3.231  28.953   2.720
87828W        W57643  20.165  44.496  10.534
87829W        W57644  24.008   0.987   3.753
87830W        W57645  16.307  22.062   3.180
87831W        W57646  40.848  29.653  11.514
87832W        W57647   8.238  34.473   1.771
87833W        W57648  22.179  35.551  12.866
87834W        W57649   9.778  20.087   1.245
87835W        W57650  15.594   1.732  14.994
87836W        W57651   9.248   2.369   0.967
87837W        W57652  27.520  36.014   2.787
87838W        W57653  40.317   7.385  14.442
87839W        W57654   2.298  18.766  11.505
87840W        W57655  27.655   6.396  13.531
87841W        W57656  13.328  30.156  13.985
87842W        W57657  26.077  21.163   1.372
87843W        W57658  19.178  15.579   1.809
87844W        W57659  39.448   3.816  12.887
87845W        W57660   6.797   0.472  14.870
87846W        W57661   8.824  12.823  11.957
87847W        W57662  36.001   1.394  12.464
87848W        W57663  16.611   1.928  11.554
87849W        W57664  37.415  39.871   0.916
87850W        W57665  10.816  31.601   2.678
87851W        W57666  34.409   2.731   4.223
87852W        W57667   4.756  39.838   9.947
87853W        W57668  41.424  14.699   3.640
87854W        W57669  23.671  29.590  11.870
87855W        W57670  43.292  26.055   1.308
87856W        W57671  20.687  18.551   4.716
87857W        W57672   5.718  41.378  10.562
87858W        W57673   0.761  27.559  13.414
87859W        W57674  21.114  37.956  14.933
87860W        W57675  30.452  12.744   4.639
87861W        W57676  23.161  23.004   0.905
87862W        W57677  19.076  35.472   4.772
87863W        W57678  16.752  10.640  13.465
87864W        W57679  28.943  38.883  11.404
87865W        W57680   9.739  14.116   0.345
87866W        W57681  37.029   8.267   2.834
87867W        W57682  42.309  33.032  12.952
87868W        W57683  42.489  34.119   1.408
87869W        W57684  36.066  20.273   2.313
87870W        W57685  18.231   2.830   2.726
87871W        W57686  12.189  30.553   0.918
87872W        W57687  28.644  26.598   2.689
87873W        W57688   5.850  24.501  13.797
87874W        W57689  29.479  22.071  13.382
87875W        W57690   2.407  37.409  12.432
87876W        W57691  35.896  44.002  11.054
87877W        W57692  13.248   9.161  13.353
87878W        W57693  14.222  24.073   2.733
87879W        W57694   2.735  22.610  11.889
87880W        W57695  23.114  15.089   0.793
87881W        W57696  19.076   6.307   0.463
87882W        W57697  37.945  18.693   2.378
87883W        W57698  37.022   6.308   2.250
87884W        W57699  15.131  21.549  13.411
87885W        W57700  19.544   8.275   0.461
87886W        W57701  40.815  13.743  12.077
87887W        W57702   3.855   8.826  11.869
87888W        W57703  29.637  32.955  14.491
87889W        W57704   6.858   3.842   0.760
87890W        W57705  13.753   2.934  11.978
87891W        W57706  29.599   3.241  11.128
87892W        W57707  17.265  34.374  11.068
87893W        W57708  21.532  23.010   2.339
87894W        W57709  15.161  42.289   2.386
87895W        W57710  24.561  11.271  10.427
87896W        W57711  43.947  32.918  12.569
87897W        W57712  36.847  42.292  11.425
87898W        W57713  34.410  25.189  14.456
87899W        W57714  28.932  39.970   0.278
87900W        W57715   9.851  40.001  13.930
87901W        W57716  23.065   4.296   0.779
87902W        W57717  43.825  13.239   0.418
87903W        W57718  19.653  13.695   3.230
87904W        W57719  26.046  30.014   1.211
87905W        W57720  21.250  29.437  11.042
87906W        W57721  13.189  21.535   2.892
87907W        W57722  31.632  25.674  10.411
87908W        W57723   0.468  25.696  12.472
87909W        W57724  20.754  12.343   1.342
87910W        W57725  44.301   1.743  10.100
87911W        W57726  40.320  13.149   1.867
87912W        W57727  25.550  36.475   2.832
87913W        W57728  22.204  38.015  12.369
87914W        W57729  20.567  37.472  10.405
87915W        W57730  22.093  40.849  12.079
87916W        W57731  34.022  23.513   0.245
87917W        W57732  40.816  28.579  14.306
87918W        W57733   8.866   7.809   3.243
87919W        W57734  27.017   3.868   2.290
87920W        W57735  24.705  34.504  13.391
87921W        W57736  17.603   0.980   4.269
87922W        W57737  39.961   7.768  10.154
87923W        W57738  29.670   9.782  13.425
87924W        W57739  40.967  21.715   1.210
87925W        W57740  44.821  40.959   1.351
87926W        W57741   1.461  34.448  14.299
87927W        W57742  20.701  35.547   1.416
87928W        W57743  24.595  35.482   1.380
87929W        W57744  27.551  39.884   1.857
87930W        W57745  29.097   7.811   1.708
87931W        W57746  43.451  16.312  10.487
87932W        W57747  12.786  31.064   1.352
87933W        W57748  31.461  35.077   4.283
87934W        W57749  38.926  39.372  13.920
87935W        W57750   1.425  44.007  12.470
87936W        W57751  38.051  40.957  10.508
87937W        W57752  30.959   8.380   1.920
87938W        W57753   8.775  13.274   3.754
87939W        W57754  11.205   7.762  14.829
87940W        W57755  41.492  19.134  11.568
87941W        W57756   4.388  27.525  11.457
87942W        W57757  32.546  20.643  12.363
87943W        W57758  27.111   2.794  11.066
87944W        W57759  12.819  12.671   4.345
87945W        W57760  13.286  28.106   9.926
87946W        W57761   4.836   1.413   5.287
87947W        W57762  33.983  30.147  11.014
87948W        W57763  16.272   4.266   3.234
87949W        W57764   6.372  38.919   3.684
87950W        W57765   0.837  14.107   4.284
87951W        W57766   0.301  23.497   4.681
87952W        W57767  16.266  39.541  14.995
87953W        W57768   7.249   4.924  13.893
87954W        W57769  25.692   2.756  13.429
87955W        W57770  13.715   0.289   0.337
87956W        W57771  41.522  39.997  11.445
87957W        W57772   0.811  10.335  12.875
87958W        W57773  13.163   9.214  14.778
87959W        W57774  21.554  41.996  14.874
87960W        W57775  29.492  11.230   4.203
87961W        W57776  17.226  36.895  13.947
87962W        W57777  31.096  28.458  11.075
87963W        W57778  20.769  37.342   1.376
87964W        W57779  14.296  30.499   3.377
87965W        W57780  16.781  42.384  11.425
87966W        W57781  21.513  33.104  14.974
87967W        W57782  21.513  13.784   3.856
87968W        W57783   4.440  14.161  14.866
87969W        W57784  15.312  37.398  10.979
87970W        W57785   8.196  31.930  10.972
87971W        W57786  31.946  25.046  12.457
87972W        W57787  37.406   5.863  12.580
87973W        W57788  31.410   6.854   2.394
87974W        W57789  17.251   3.413  10.468
87975W        W57790   8.185  13.704  14.355
87976W        W57791   2.400  33.508   3.149
87977W        W57792   7.827  20.621  13.016
87978W        W57793  12.636  39.057  10.978
87979W        W57794  36.979  30.008   3.771
87980W        W57795  35.878  33.386   2.352
87981W        W57796  33.960  33.566  14.893
87982W        W57797   0.349  38.985  11.103
87983W        W57798  19.688  29.436   3.771
87984W        W57799   8.700  10.193   4.735
87985W        W57800  18.128  27.573   0.910
87986W        W57801  18.582   0.765  13.813
87987W        W57802   4.786  40.471   4.726
87988W        W57803  31.966   7.831   1.914
87989W        W57804  40.515  36.495   2.897
87990W        W57805   0.967  10.161  10.023
87991W        W57806  35.415  12.327  11.405
87992W        W57807  14.291   5.270  14.931
87993W        W57808  28.444  32.008  13.954
87994W        W57809  16.694   5.813   0.746
87995W        W57810  25.169  24.181   0.794
87996W        W57811   5.334   5.199  13.879
87997W        W57812  12.823  11.820   3.153
87998W        W57813   2.760  43.445  11.586
87999W        W57814  15.647   0.383   4.343
88000W        W57815  21.571   1.952   0.755
88001W        W57816  39.053  43.430   3.685
88002W        W57817  44.417  18.638   0.276
88003W        W57818  34.515   7.189  13.442
88004W        W57819   7.369  18.139   4.732
88005W        W57820  12.628  36.524  14.314
88006W        W57821  35.413  21.188  13.403
88007W        W57822   9.720  15.669   1.822
88008W        W57823  31.133  37.348  11.106
88009W        W57824  35.970  18.713  12.504
88010W        W57825  28.116  11.714  14.813
88011W        W57826  13.312  25.126  11.955
88012W        W57827  10.689  23.671  11.951
88013W        W57828  20.225  28.103  12.089
88014W        W57829  25.205   1.435   0.312
88015W        W57830  39.971   9.681   0.779
88016W        W57831  28.148  10.247  10.903
88017W        W57832  40.033   5.213   1.321
88018W        W57833  35.584   6.714   0.856
88019W        W57834  18.138   2.275   3.146
88020W        W57835   1.407  13.633  12.543
88021W        W57836  44.804  18.668  13.319
88022W        W57837   1.938  17.148  14.287
88023W        W57838   7.859  22.581   1.438
88024W        W57839  14.290  25.973   1.758
88025W        W57840  19.064  19.554   2.851
88026W        W57841  24.603  30.455   3.252
88027W        W57842  10.698  10.875  12.059
88028W        W57843   4.920  12.320   2.852
88029W        W57844  28.136   5.815  14.847
88030W        W57845   0.803  26.537  12.407
88031W        W57846   8.860   3.400  12.945
88032W        W57847  29.506  30.149  10.904
88033W        W57848  28.454  32.460  14.869
88034W        W57849  11.239  31.041  10.504
88035W        W57850  40.424   6.377   4.838
88036W        W57851   5.393  18.685  11.950
88037W        W57852  11.655   5.794  13.388
88038W        W57853  28.017  32.002  10.488
88039W        W57854  38.965  38.346   3.784
88040W        W57855   5.199   2.963  10.631
88041W        W57856  20.259  36.351   3.215
88042W        W57857  25.991  12.220  12.847
88043W        W57858  32.493  30.113  12.511
88044W        W57859  39.847  16.246  13.827
88045W        W57860  17.137  38.493  10.503
88046W        W57861  31.502  18.573  13.467
88047W        W57862   3.861  20.599   4.202
88048W        W57863  38.934   4.877   1.211
88049W        W57864  29.116  21.555   3.180
88050W        W57865  37.546  24.066  13.520
88051W        W57866   0.353   4.391   3.363
88052W        W57867  41.906  32.915   2.838
88053W        W57868  34.976  28.533  11.867
88054W        W57869  37.465  27.139   2.311
88055W        W57870  41.521  28.528   2.712
88056W        W57871   4.917  19.066  12.879
88057W        W57872  33.125  18.120  12.923
88058W        W57873  31.900   4.837   2.411
88059W        W57874  25.027  36.097  12.479
88060W        W57875  13.178  25.572   3.350
88061W        W57876  12.787  28.481  10.520
88062W        W57877  40.903  26.679   1.914
88063W        W57878  13.684  44.463   4.613
88064W        W57879  34.990   5.340   1.902
88065W        W57880   5.848   9.789  10.552
88066W        W57881   1.346  25.608   0.366
88067W        W57882  30.649  21.154   0.404
88068W        W57883  12.647  22.554   0.912
88069W        W57884  16.730   0.974   2.413
88070W        W57885  39.992  30.461   1.811
88071W        W57886  20.256  43.909   0.475
88072W        W57887  10.662  44.299   1.384
88073W        W57888   4.407  12.203  11.494
88074W        W57889   4.422  40.325  13.818
88075W        W57890  17.289  10.343  12.962
88076W        W57891  38.498  11.140   3.766
88077W        W57892  20.066  30.475  11.066
88078W        W57893   3.354  32.402  14.021
88079W        W57894  29.924  27.178   2.216
88080W        W57895  23.107   4.870   4.654
88081W        W57896   9.697  39.826  13.357
88082W        W57897  18.290  21.196  12.862
88083W        W57898  11.742   1.410   1.304
88084W        W57899   0.326   4.867   3.666
88085W        W57900  22.670   0.979   2.786
88086W        W57901   9.328  37.905  11.552
88087W        W57902  18.202  37.480   1.369
88088W        W57903  31.605   1.272  14.496
88089W        W57904  20.649  30.043  12.497
88090W        W57905  22.124  10.730  13.377
88091W        W57906  25.117  21.650  10.608
88092W        W57907   7.776   1.750  10.027
88093W        W57908   5.267  17.149  10.514
88094W        W57909   3.338  29.160  14.900
88095W        W57910  41.817  20.146   0.267
88096W        W57911   1.321  10.850  11.071
88097W        W57912  35.460  27.174  13.019
88098W        W57913  11.694  26.169  13.904
88099W        W57914  38.468  41.978  12.900
88100W        W57915  22.608   3.734   1.299
88101W        W57916  19.061  10.689  12.507
88102W        W57917   3.947  26.655   4.767
88103W        W57918  11.621  11.255   3.720
88104W        W57919  25.190   2.911  12.541
88105W        W57920  22.710  17.780  13.885
88106W        W57921   6.766  41.406  13.853
88107W        W57922  13.266  19.282   3.740
88108W        W57923  18.655  29.929   4.704
88109W        W57924  12.787   3.772   0.275
88110W        W57925  40.009   3.831   4.763
88111W        W57926   8.220   0.427   1.845
88112W        W57927  16.087   7.714  11.558
88113W        W57928  22.999  20.199  14.812
88114W        W57929  10.322  13.799   4.763
88115W        W57930  40.808  10.742  11.484
88116W        W57931  40.900   8.165   3.229
88117W        W57932  37.970   2.827  14.823
88118W        W57933  37.036  19.771  10.609
88119W        W57934  38.838  10.208   5.081
88120W        W57935  12.168  37.358   0.748
88121W        W57936  40.835  21.632   1.738
88122W        W57937   6.305   0.452  13.903
88123W        W57938  18.238  19.106  11.029
88124W        W57939  31.417  13.676   3.226
88125W        W57940  14.736  33.472  13.361
88126W        W57941  31.919  17.259  10.602
88127W        W57942   2.747  37.892  11.472
88128W        W57943   1.902  32.558   4.132
88129W        W57944   7.263  29.665  13.953
88130W        W57945  16.295  32.118   3.797
88131W        W57946  16.797  21.189  11.376
88132W        W57947  13.813  34.866   4.314
88133W        W57948   8.884  43.989  13.881
88134W        W57949  11.272  10.211  10.479
88135W        W57950  17.171  10.704  11.434
88136W        W57951   5.355  40.035  14.875
88137W        W57952  43.951  36.986  13.843
88138W        W57953  24.526   8.758   2.353
88139W        W57954   3.358  41.386  10.477
88140W        W57955  21.156   7.239   3.710
88141W        W57956  33.588  31.521   0.330
88142W        W57957  30.114  33.096   2.740
88143W        W57958  19.723  34.055  14.893
88144W        W57959  23.125  20.599   1.858
88145W        W57960  32.429   7.252  13.049
88146W        W57961  22.075  21.574  14.896
88147W        W57962   9.239  39.362  14.350
88148W        W57963  32.907  44.261  10.917
88149W        W57964  11.750  37.411   2.701
88150W        W57965  22.024  31.061   0.844
88151W        W57966  21.636   5.929   3.864
88152W        W57967  13.705   6.265   0.484
88153W        W57968  12.184  26.468   3.285
88154W        W57969  41.854  35.951   2.852
88155W        W57970  13.283  34.482  13.423
88156W        W57971  17.132  35.994   1.827
88157W        W57972   0.471  20.097   0.935
88158W        W57973  26.953  27.464  10.509
88159W        W57974  31.589  35.541  10.499
88160W        W57975  39.504  16.790  14.361
88161W        W57976  39.996  21.597   3.368
88162W        W57977   3.432   9.204  11.382
88163W        W57978  25.160  30.068  12.025
88164W        W57979  28.095  14.730   0.330
88165W        W57980  38.855   6.894   1.248
88166W        W57981  35.995   0.869   3.168
88167W        W57982  16.116   3.777   3.854
88168W        W57983   8.819  44.434  14.833
88169W        W57984  25.998  39.406   2.863
88170W        W57985  16.126  41.947  11.593
88171W        W57986   7.777  13.649   1.749
88172W        W57987   4.818  34.922   4.277
88173W        W57988  20.252   9.268   4.614
88174W        W57989  11.810  25.586   4.299
88175W        W57990  19.178  32.072   1.746
88176W        W57991   8.189  21.586  12.373
88177W        W57992  32.614   2.278   4.181
88178W        W57993  33.937   3.905   1.933
88179W        W57994  39.809  21.191  11.377
88180W        W57995  24.019  39.527   2.834
88181W        W57996  20.163   0.812  12.568
88182W        W57997  38.370   3.850   2.223
88183W        W57998  37.433   8.290   0.845
88184W        W57999  22.174  14.254   4.261
88185W        W58000  38.854   5.828  13.489
88186W        W58001  12.305  39.835   3.646
88187W        W58002  31.134  44.762  13.935
88188W        W58003  43.816   9.836   0.403
88189W        W58004  33.107  23.043  14.845
88190W        W58005   6.299  23.655   1.909
88191W        W58006  44.804  15.261   4.354
88192W        W58007  29.014  31.902  11.960
88193W        W58008  36.995   0.878   0.263
88194W        W58009  33.012  20.661   2.805
88195W        W58010  41.502  27.560  13.429
88196W        W58011  19.052  34.932  11.093
88197W        W58012  20.632  43.889   2.817
88198W        W58013  24.082   3.404   3.161
88199W        W58014  27.560  26.465   1.815
88200W        W58015  26.094  31.610   0.762
88201W        W58016  39.848  15.769   4.691
88202W        W58017  27.067  23.027  14.310
88203W        W58018  21.674  27.537   3.318
88204W        W58019  12.130  32.452   4.609
88205W        W58020  14.137  11.712  13.548
88206W        W58021  21.563  31.957   3.685
88207W        W58022  44.991  25.603  14.981
88208W        W58023  26.555  30.575   3.790
88209W        W58024  44.851  25.969   3.327
88210W        W58025   5.267   0.819   4.212
88211W        W58026  38.057  12.173   2.896
88212W        W58027  23.185   7.319   0.871
88213W        W58028  23.734  41.516  12.861
88214W        W58029  31.999   7.835  12.539
88215W        W58030  41.035   1.758   2.351
88216W        W58031  23.056   1.444   2.807
88217W        W58032   0.879  22.596   2.319
88218W        W58033  38.057  21.579   4.734
88219W        W58034  29.491  13.669  10.483
88220W        W58035   1.430  39.065   3.193
88221W        W58036  11.721  30.570  11.107
88222W        W58037  34.102  41.955   0.819
88223W        W58038  34.446  18.560  11.422
88224W        W58039  34.601  19.152  12.457
88225W        W58040   4.875  12.731  10.408
88226W        W58041  37.854  26.684   2.329
88227W        W58042  30.986  18.261  13.471
88228W        W58043  33.499  41.355   4.185
88229W        W58044  37.083  38.032  13.481
88230W        W58045  19.774  16.108  10.586
88231W        W58046  44.475  34.880  14.332
88232W        W58047  27.688  31.976   4.801
88233W        W58048  35.581  42.860   1.925
88234W        W58049  33.931   6.920  14.442
88235W        W58050  29.945  30.940  13.541
88236W        W58051  18.141  34.528  13.454
88237W        W58052  39.820   0.941  14.303
88238W        W58053  22.650   9.171   3.357
88239W        W58054  18.069  40.476  12.009
88240W        W58055  21.159  18.754  14.009
88241W        W58056   6.786  32.480  12.015
88242W        W58057  38.529   2.391  11.573
88243W        W58058  15.164  34.556  13.493
88244W        W58059  20.624  23.670  11.005
88245W        W58060  23.053  39.362  13.440
88246W        W58061   0.418   1.903  13.043
88247W        W58062   8.212  32.411  14.397
88248W        W58063  39.843  33.582  14.997
88249W        W58064   8.283  33.067   0.357
88250W        W58065  14.223   6.413   3.681
88251W        W58066  12.173   4.268  13.411
88252W        W58067  16.589  44.434  10.411
88253W        W58068  35.868  30.151   0.931
88254W        W58069  32.615  11.227   9.949
88255W        W58070  43.836  17.718  12.520
88256W        W58071  21.245   8.737   4.307
88257W        W58072   8.190  42.300   0.360
88258W        W58073  23.148  34.962  10.520
88259W        W58074  29.546  32.424   2.742
88260W        W58075   9.346  16.177  14.275
88261W        W58076  31.575  33.023   0.373
88262W        W58077   9.649  13.829   1.723
88263W        W58078  17.098   3.358   2.209
88264W        W58079  21.569  38.843   1.786
88265W        W58080  24.571  44.956  10.414
88266W        W58081  27.103  24.565   0.864
88267W        W58082  13.282   3.229  13.842
88268W        W58083   9.322  43.006   0.820
88269W        W58084  11.684   8.715   0.447
88270W        W58085  27.128  37.071  11.036
88271W        W58086  32.110   7.187   0.784
88272W        W58087   7.692  34.882  11.466
88273W        W58088  32.126   7.184   2.359
88274W        W58089  22.181  19.078  14.320
88275W        W58090   3.870   3.882  10.914
88276W        W58091  16.277  35.035   4.140
88277W        W58092  34.485  36.075  10.485
88278W        W58093  24.150  13.110  13.358
88279W        W58094  41.030  14.099  10.448
88280W        W58095   8.210  29.448  14.305
88281W        W58096   7.802  33.977   3.712
88282W        W58097  36.895  40.468   1.740
88283W        W58098  13.309  35.093  10.972
88284W        W58099   9.786  20.213  14.459
88285W        W58100  21.068  16.671  11.559
88286W        W58101   1.339  38.483   3.694
88287W        W58102  34.954  17.283   1.340
88288W        W58103  44.433  42.832   2.339
88289W        W58104   1.869  42.449   2.732
88290W        W58105   0.979  26.697  13.881
88291W        W58106  44.488  22.520   0.953
88292W        W58107  18.786  29.103   1.288
88293W        W58108  20.271  41.532  14.331
88294W        W58109  19.655  27.145  14.497
88295W        W58110   0.912  17.591  14.323
88296W        W58111  10.173  16.265  12.534
88297W        W58112   3.396  33.909   4.824
88298W        W58113  40.999  31.611  11.928
88299W        W58114   1.872  18.108  11.460
88300W        W58115   7.375  18.638  12.075
88301W        W58116  42.345   5.429   4.115
88302W        W58117  11.287   1.355   3.322
88303W        W58118  25.490  21.600   3.654
88304W        W58119  16.754   5.362   4.704
88305W        W58120  41.850  36.460   2.866
88306W        W58121  15.790   9.793  12.379
88307W        W58122  36.536  22.501  14.964
88308W        W58123   9.658  22.606  12.422
88309W        W58124  33.943   7.714  13.982
88310W        W58125  14.185  36.861   4.129
88311W        W58126   2.936  33.047  11.543
88312W        W58127  34.571  15.698   3.757
88313W        W58128  25.479  44.765   1.264
88314W        W58129  16.672  27.168  14.378
88315W        W58130  42.527  21.242   1.269
88316W        W58131   0.848  18.554  12.032
88317W        W58132  29.042   5.825   4.166
88318W        W58133  27.023   9.774   4.694
88319W        W58134  21.726  21.721   4.289
88320W        W58135  19.691  37.843   2.819
88321W        W58136  14.774   3.752  11.416
88322W        W58137  11.239   4.926  12.348
88323W        W58138  10.289  15.790   4.597
88324W        W58139   4.753  11.856  12.456
88325W        W58140   2.274   8.255   0.483
88326W        W58141  29.463  21.226   0.380
88327W        W58142  17.080  23.161  11.977
88328W        W58143  27.005  33.996  11.096
88329W        W58144   9.320   7.404  14.358
88330W        W58145  27.185  37.049   4.125
88331W        W58146   6.908   3.884  10.963
88332W        W58147  12.830  20.039   4.272
88333W        W58148  33.551   8.251  12.071
88334W        W58149  41.953   5.740  14.776
88335W        W58150  10.137  34.001  13.985
88336W        W58151   3.332   2.385  13.834
88337W        W58152  33.604  20.634   3.712
88338W        W58153  10.667   5.724   2.369
88339W        W58154  31.968  11.158   3.683
88340W        W58155  18.752  10.299  10.020
88341W        W58156   8.857  31.628   3.293
88342W        W58157   5.248  43.880  10.580
88343W        W58158   3.710  12.311  13.424
88344W        W58159  22.567  30.444   2.308
88345W        W58160  11.297   8.870   4.113
88346W        W58161  38.971   8.691  12.341
88347W        W58162  21.144  28.983  13.852
88348W        W58163  40.802   7.201   5.160
88349W        W58164  40.357  39.871  14.392
88350W        W58165  11.330  35.087  13.507
88351W        W58166  16.237  25.062  14.791
88352W        W58167  11.357  21.071   2.264
88353W        W58168  17.773  15.751  14.403
88354W        W58169  30.466  37.926   4.719
88355W        W58170  14.786  26.487   1.426
88356W        W58171   2.919  25.677   1.302
88357W        W58172  20.762  27.088   4.666
88358W        W58173   0.786  18.068   0.840
88359W        W58174  26.628  29.615   1.712
88360W        W58175  14.312  13.122   3.248
88361W        W58176  42.315  18.550  13.392
88362W        W58177  22.171   5.224  14.342
88363W        W58178   0.822  36.895  11.583
88364W        W58179  41.517  26.198  13.539
88365W        W58180   2.772   8.324   4.345
88366W        W58181  41.484  42.476  12.878
88367W        W58182  13.349  29.165   3.665
88368W        W58183   7.723  44.962   0.368
88369W        W58184  22.673  27.035  14.855
88370W        W58185  44.439  41.406   2.821
88371W        W58186  41.031  20.219  13.370
88372W        W58187  33.061  11.266   2.212
88373W        W58188  24.482  36.354  10.490
88374W        W58189   2.337   7.859  13.937
88375W        W58190   3.393  36.590   0.348
88376W        W58191  18.188  42.436  14.300
88377W        W58192   9.655  26.186  10.478
88378W        W58193  20.157  23.617   3.650
88379W        W58194  22.030  20.740   1.731
88380W        W58195  27.186  22.072   4.698
88381W        W58196  41.950  14.810  14.924
88382W        W58197  40.357  34.967   2.765
88383W        W58198  35.056  32.514  13.318
88384W        W58199  11.184  26.063  13.862
88385W        W58200  24.060  33.123  13.003
88386W        W58201  24.198  11.141   4.602
88387W        W58202  35.588  29.594  10.938
88388W        W58203   8.770  40.989   4.329
88389W        W58204   2.410  19.167   0.390
88390W        W58205   5.242  40.358  11.083
88391W        W58206  23.526  39.474  10.494
88392W        W58207  31.424  34.108  12.882
88393W        W58208  28.536   4.337  10.993
88394W        W58209  25.022  39.382   0.834
88395W        W58210  18.738  41.369   5.269
88396W        W58211  18.594  37.555   2.363
88397W        W58212  19.551   6.365   1.874
88398W        W58213   0.346   1.854  13.924
88399W        W58214   5.204  10.825  13.377
88400W        W58215  29.955  41.321  14.495
88401W        W58216   6.808  20.243   1.272
88402W        W58217  16.198   1.916  13.525
88403W        W58218  14.274   8.682   9.962
88404W        W58219  28.569  23.515  10.520
88405W        W58220  20.601  16.791  14.353
88406W        W58221  37.438  34.880   0.880
88407W        W58222  11.800  42.938  10.951
88408W        W58223   3.791  16.114   1.413
88409W        W58224  17.127  29.620   3.818
88410W        W58225  13.286   1.315  12.073
88411W        W58226  12.631  29.057   2.332
88412W        W58227  35.917  38.493  14.770
88413W        W58228  12.836  27.481  13.900
88414W        W58229  23.170  35.058  14.436
88415W        W58230  27.634   8.766   4.266
88416W        W58231   3.825   6.277   0.344
88417W        W58232  30.565  26.562   4.239
88418W        W58233  29.150  36.029   0.452
88419W        W58234  21.062  36.029  13.841
88420W        W58235  33.558  23.167  10.989
88421W        W58236  15.614  24.611  13.992
88422W        W58237   2.812   8.872  11.436
88423W        W58238  39.026  27.491  11.532
88424W        W58239  13.844  10.699  12.557
88425W        W58240  32.921  22.682  12.526
88426W        W58241  17.743   0.464   1.428
88427W        W58242   0.251  40.344  12.537
88428W        W58243  36.471  30.080   3.869
88429W        W58244  22.597  14.793  11.388
88430W        W58245  22.717  37.467  11.935
88431W        W58246  39.325   8.167   0.312
88432W        W58247  11.848   1.772   4.729
88433W        W58248   8.857  19.681  13.523
88434W        W58249  33.423  27.041   1.396
88435W        W58250  25.163  39.875   4.253
88436W        W58251  15.687  41.326   0.809
88437W        W58252  15.644   0.396   4.709
88438W        W58253  37.834  33.393   4.625
88439W        W58254   3.837  36.430   3.150
88440W        W58255  28.056  33.420  11.429
88441W        W58256  34.863  42.359   1.756
88442W        W58257  21.647  22.519   2.262
88443W        W58258  24.167  33.605   4.180
88444W        W58259  13.674  30.007  13.345
88445W        W58260  11.851  17.271  11.098
88446W        W58261  14.679  23.074  10.515
88447W        W58262  26.022  10.286   4.138
88448W        W58263  10.663  31.552   0.953
88449W        W58264  37.007   8.187  13.308
88450W        W58265  32.468  15.757   2.840
88451W        W58266  35.062   0.837   0.958
88452W        W58267  27.015  34.385  12.389
88453W        W58268  22.017  27.468  12.426
88454W        W58269  17.280  32.902  12.449
88455W        W58270  15.817  29.949   2.282
88456W        W58271  24.018  42.933   4.777
88457W        W58272  27.601  14.279  12.408
88458W        W58273  32.401   6.697   3.206
88459W        W58274  21.673  34.585  13.021
88460W        W58275   4.211  41.391   3.769
88461W        W58276  32.092   0.394  11.426
88462W        W58277   5.744   4.752  11.062
88463W        W58278  24.692  14.209  11.381
88464W        W58279  25.201  29.588  12.537
88465W        W58280  13.112   7.372  10.074
88466W        W58281  27.642  10.318  13.469
88467W        W58282  14.126   3.413  11.961
88468W        W58283   7.234  10.200   3.295
88469W        W58284  41.939   3.927  14.475
88470W        W58285  41.466  11.856  13.987
88471W        W58286  36.361   9.872   0.433
88472W        W58287  20.532   0.758   9.438
88473W        W58288  30.626  34.920   1.363
88474W        W58289  30.139  31.639   3.298
88475W        W58290  32.909  44.864  13.415
88476W        W58291  19.267  24.586   1.306
88477W        W58292  15.139  16.184  13.864
88478W        W58293  18.082  18.747  13.337
88479W        W58294  25.095  40.983   3.822
88480W        W58295   1.460  14.096   2.362
88481W        W58296  16.260  26.176  11.433
88482W        W58297  15.116  33.434   2.388
88483W        W58298  19.263  30.153   3.210
88484W        W58299  33.053  39.534  11.949
88485W        W58300  34.969   9.367   1.399
88486W        W58301   4.913  35.392   4.274
88487W        W58302  22.710  40.365   1.325
88488W        W58303   4.328  29.939   1.302
88489W        W58304  15.240  27.494   2.819
88490W        W58305  18.144  34.061  13.044
88491W        W58306  38.070   2.264  14.837
88492W        W58307  24.626  39.953   0.878
88493W        W58308  40.431  17.099   0.764
88494W        W58309  27.574   5.315  10.403
88495W        W58310  40.955  28.589  14.879
88496W        W58311  11.356  32.062  10.990
88497W        W58312   0.774  38.072  13.915
88498W        W58313  24.587  40.933   2.368
88499W        W58314  34.119   4.837   3.317
88500W        W58315   8.747  14.729  13.393
88501W        W58316   7.786  27.124   3.187
88502W        W58317  44.990  23.703   3.840
88503W        W58318   2.940   5.406  12.934
88504W        W58319   0.910  31.944   1.247
88505W        W58320   3.315   3.821  10.540
88506W        W58321  17.086  33.073  12.848
88507W        W58322  41.925  28.168  12.061
88508W        W58323  36.416  13.295   0.470
88509W        W58324   6.740   2.747   3.635
88510W        W58325  29.506  44.756  14.758
88511W        W58326  31.524  31.057   3.869
88512W        W58327  42.463  43.368   2.751
88513W        W58328   9.818  39.500   4.152
88514W        W58329  30.990  28.679  13.458
88515W        W58330  24.664  40.465   3.265
88516W        W58331  29.663  35.397   0.474
88517W        W58332  35.447  12.623   1.236
88518W        W58333  24.641  21.174  12.997
88519W        W58334  27.069  19.675   0.242
88520W        W58335  34.042  34.419   2.779
88521W        W58336   1.934  21.686   3.697
88522W        W58337   1.898  31.552   4.657
88523W        W58338  23.530   5.798  13.908
88524W        W58339  37.517  42.776   3.303
88525W        W58340  27.183  11.292   4.615
88526W        W58341  42.512  17.188  14.450
88527W        W58342  37.868  16.257  12.517
88528W        W58343  40.361  17.283   1.234
88529W        W58344   0.936  37.388   3.767
88530W        W58345  32.975  39.006   4.328
88531W        W58346  42.285  40.884   3.663
88532W        W58347  44.853  10.867   1.770
88533W        W58348  41.946   0.259   1.898
88534W        W58349  18.094  42.304  13.409
88535W        W58350  22.675  23.561   3.206
88536W        W58351  37.469   2.789  12.550
88537W        W58352  30.507  28.597  11.923
88538W        W58353  13.658  25.050   0.798
88539W        W58354  29.102   9.249   3.733
88540W        W58355  37.059   6.838  14.800
88541W        W58356  12.164  42.019  11.408
88542W        W58357   2.353  26.490   4.262
88543W        W58358   9.382   7.826   0.345
88544W        W58359  24.996  37.556   5.201
88545W        W58360  22.088  36.005   0.472
88546W        W58361  29.631   0.357  12.439
88547W        W58362  41.441  32.565  12.355
88548W        W58363  15.609  32.901   2.790
88549W        W58364  34.392  19.166  11.944
88550W        W58365  40.321  19.285   0.768
88551W        W58366   1.914  35.428   0.475
88552W        W58367  17.131  22.185   1.729
88553W        W58368  39.859  38.923   2.752
88554W        W58369   7.406   8.754   4.744
88555W        W58370  23.591  43.916   4.688
88556W        W58371  13.137   2.951  14.970
88557W        W58372  26.702   2.240  11.036
88558W        W58373  31.578   1.287   4.269
88559W        W58374   2.793   2.929   2.882
88560W        W58375  42.289  24.227  13.516
88561W        W58376   0.754  40.005  13.799
88562W        W58377  36.055  19.686   0.271
88563W        W58378   3.726   4.367  11.085
88564W        W58379  37.480  18.644  13.307
88565W        W58380  32.962  17.633   4.281
88566W        W58381  14.664   7.188  14.495
88567W        W58382   7.316  42.787   0.874
88568W        W58383  10.238  36.985   0.771
88569W        W58384  29.563  15.654  13.397
88570W        W58385   2.942   1.356   3.280
88571W        W58386  41.407  27.189  10.475
88572W        W58387  15.274  32.931  14.865
88573W        W58388  32.001  37.923  10.580
88574W        W58389  16.643  25.594  10.589
88575W        W58390  21.243  35.002   4.132
88576W        W58391  21.214  13.802  13.925
88577W        W58392  35.873   6.827   1.899
88578W        W58393  27.177  44.891  13.986
88579W        W58394  14.316   0.853   3.369
88580W        W58395  23.648   2.915   0.312
88581W        W58396  29.080  20.583  11.481
88582W        W58397  10.300  24.985   2.720
88583W        W58398  29.965  31.587   1.278
88584W        W58399  36.394  29.086   3.351
88585W        W58400  43.474  31.947  14.916
88586W        W58401   1.274  26.104   0.884
88587W        W58402  31.519  16.251   2.751
88588W        W58403   3.252  37.883  12.949
88589W        W58404  24.082  33.986   1.256
88590W        W58405  22.038  27.636  14.969
88591W        W58406  35.458   2.241   1.839
88592W        W58407  21.561  43.908  12.535
88593W        W58408  20.124  11.165  10.636
88594W        W58409  12.661  33.911   2.360
88595W        W58410  32.925  37.455   0.416
88596W        W58411   2.772  19.638   4.642
88597W        W58412   2.433  26.614  10.039
88598W        W58413   9.329   6.310  14.289
88599W        W58414  10.672  35.882   1.863
88600W        W58415  13.673  43.948   0.349
88601W        W58416  25.065  37.972   5.778
88602W        W58417  37.003  10.699  14.436
88603W        W58418  12.255  24.212  13.040
88604W        W58419  19.138   2.268   3.383
88605W        W58420  20.038   9.846  14.494
88606W        W58421  16.734   4.302  14.427
88607W        W58422  22.727  10.845   0.293
88608W        W58423  25.160   9.236   3.280
88609W        W58424  11.861  36.022   0.335
88610W        W58425  43.284  22.544   0.906
88611W        W58426  38.881  37.039  13.483
88612W        W58427  19.780   8.327   4.289
88613W        W58428  40.440  21.537   2.764
88614W        W58429  27.589  36.387  14.306
88615W        W58430  30.946  21.723  12.911
88616W        W58431  13.634  38.434   4.118
88617W        W58432   5.923  39.415  13.003
88618W        W58433  36.871   7.281   1.318
88619W        W58434   3.765  13.114   1.359
88620W        W58435  43.490  23.516  10.056
88621W        W58436  23.686   8.686   1.768
88622W        W58437  39.966  14.592   2.887
88623W        W58438  44.262  32.082  13.446
88624W        W58439  40.982   1.333  12.058
88625W        W58440   0.765   7.181  12.877
88626W        W58441   2.945  38.984   9.952
88627W        W58442   0.387  36.067   1.703
88628W        W58443  17.181  19.229  12.373
88629W        W58444  10.681  44.358   3.772
88630W        W58445  42.030   6.788  14.468
88631W        W58446   4.915  41.482   1.698
88632W        W58447  36.951   0.259  11.108
88633W        W58448  20.582  11.740   2.208
88634W        W58449  11.833  20.108  10.582
88635W        W58450  28.172  15.788   3.386
88636W        W58451  28.988  44.322  12.394
88637W        W58452  20.155  43.828   4.200
88638W        W58453  24.103  31.442   2.319
88639W        W58454  34.507   3.413  11.419
88640W        W58455   8.828  23.214   1.219
88641W        W58456  27.629   1.238  14.830
88642W        W58457  26.140  26.690   2.700
88643W        W58458  14.832  25.674  11.966
88644W        W58459  11.778   3.718  13.482
88645W        W58460  32.977  25.586  14.793
88646W        W58461  39.960  23.229   4.820
88647W        W58462  43.996  21.246   2.720
88648W        W58463  31.006  43.855  13.022
88649W        W58464  25.161  20.698  14.942
88650W        W58465   7.765   7.390   0.268
88651W        W58466   3.322  41.967   2.806
88652W        W58467  37.552  42.927   2.763
88653W        W58468  14.634   9.175  10.612
88654W        W58469  39.872  18.570  14.831
88655W        W58470  20.181  14.197  12.076
88656W        W58471  32.072  39.962  13.475
88657W        W58472  20.545  33.533  11.899
88658W        W58473  21.072  10.678   4.609
88659W        W58474   3.308  10.687  12.847
88660W        W58475   8.700  19.245  11.570
88661W        W58476  42.507  29.639  11.572
88662W        W58477   5.730  29.016   2.417
88663W        W58478  15.824  12.304   2.725
88664W        W58479  36.921   2.283  12.927
88665W        W58480  33.030  26.166  14.302
88666W        W58481   6.822   3.868  14.892
88667W        W58482  20.086  27.537  12.911
88668W        W58483   5.200   5.237  11.079
88669W        W58484  38.548   3.713   3.797
88670W        W58485  22.531  18.576  11.945
88671W        W58486  42.318  34.062  13.973
88672W        W58487  30.531   5.712   1.731
88673W        W58488  30.439  43.779  14.428
88674W        W58489  37.893  23.063  12.567
88675W        W58490  35.988  29.626  12.978
88676W        W58491  35.521  30.911   0.877
88677W        W58492  37.904   0.933  12.845
88678W        W58493  13.108  30.068  12.528
88679W        W58494  24.084   2.284  13.032
88680W        W58495  19.073  41.521  14.387
88681W        W58496  35.879   5.845   0.245
88682W        W58497  15.739  23.098   4.687
88683W        W58498  17.228  37.469  10.620
88684W        W58499   2.878   2.367   4.766
88685W        W58500  17.576  31.057  14.515
88686W        W58501  39.326  29.596  10.433
88687W        W58502   2.946  38.074   3.782
88688W        W58503  13.343  24.017  11.600
88689W        W58504   4.938  39.483  12.524
88690W        W58505  29.125  12.290   0.277
88691W        W58506  36.584  35.932   3.825
88692W        W58507  22.710   2.804   2.389
88693W        W58508  25.197  34.387  13.450
88694W        W58509   6.819  22.142   1.371
88695W        W58510  37.458  13.658  13.937
88696W        W58511  15.250  10.817   0.897
88697W        W58512  12.139  42.827   0.799
88698W        W58513  36.863  36.513  12.418
88699W        W58514  29.986  31.531   4.245
88700W        W58515  12.827  39.965  14.987
88701W        W58516   7.188   4.823   3.300
88702W        W58517  35.957  15.653  13.962
88703W        W58518  39.936  25.029   4.712
88704W        W58519   1.943   9.270  11.892
88705W        W58520  41.345   0.358  11.062
88706W        W58521  14.669  44.366   3.220
88707W        W58522  14.332  32.911   3.664
88708W        W58523  19.257  14.273   0.357
88709W        W58524  32.017  11.230   2.226
88710W        W58525  29.518   6.183  13.028
88711W        W58526   6.866   0.802  12.375
88712W        W58527  27.627  26.475  11.109
88713W        W58528   9.281  43.018  11.040
88714W        W58529   7.764   7.682  12.843
88715W        W58530   4.377  24.555   3.664
88716W        W58531  29.006   8.342  14.431
88717W        W58532  27.509   4.274  14.899
88718W        W58533  32.615  31.556  13.327
88719W        W58534   0.381  17.210  13.481
88720W        W58535  21.121  21.246  11.006
88721W        W58536  21.060   2.894   3.756
88722W        W58537  20.262  23.661  13.958
88723W        W58538   2.268   6.847  11.395
88724W        W58539   5.387  23.497  14.853
88725W        W58540  15.136   9.746  13.878
88726W        W58541  37.454  20.683   1.910
88727W        W58542   0.277   4.214  13.053
88728W        W58543  44.280  16.607   1.299
88729W        W58544  23.035  28.521   2.366
88730W        W58545  40.549  40.347   2.254
88731W        W58546  29.125  36.863   1.293
88732W        W58547  34.939   7.738  14.291
88733W        W58548  33.000  28.520   1.850
88734W        W58549  10.743  32.034   3.777
88735W        W58550   3.234  22.223  14.290
88736W        W58551  35.032  40.437  13.805
88737W        W58552   2.431   3.432   2.335
88738W        W58553  12.324  25.008  14.333
88739W        W58554  22.146   1.879   2.296
88740W        W58555  26.536  42.929   1.878
88741W        W58556  17.731  33.457   2.824
88742W        W58557  18.281  38.819   1.835
88743W        W58558  16.600  33.564  14.926
88744W        W58559  18.188   9.156  14.874
88745W        W58560  11.624  25.552   1.713
88746W        W58561  17.616  33.881  14.843
88747W        W58562   4.826  16.629   3.232
88748W        W58563  30.613  15.749   4.603
88749W        W58564  44.841  42.031   4.283
88750W        W58565  39.388  34.091   0.334
88751W        W58566  18.777  41.304  11.585
88752W        W58567  12.151  35.889  14.865
88753W        W58568  40.984  14.617  13.313
88754W        W58569  19.580  24.717   4.128
88755W        W58570  33.042  42.922  12.078
88756W        W58571  40.411  24.710  11.089
88757W        W58572  19.711  18.659   0.938
88758W        W58573  35.907  26.191   3.242
88759W        W58574  13.636   7.875   0.742
88760W        W58575  37.512   1.304  11.989
88761W        W58576  18.563  16.582  10.049
88762W        W58577   9.734  41.399  13.905
88763W        W58578  29.428   3.765  13.852
88764W        W58579   7.366  37.449   4.217
88765W        W58580  36.923  10.713   3.819
88766W        W58581  38.371  42.950  13.450
88767W        W58582  31.525  16.717  13.041
88768W        W58583  36.912  27.511   4.602
88769W        W58584  29.584  31.942  13.412
88770W        W58585  42.824  42.874  14.858
88771W        W58586  20.582  14.242  13.541
88772W        W58587  18.776  36.995   1.337
88773W        W58588  43.935   7.887  11.920
88774W        W58589  38.384  30.015  14.505
88775W        W58590  25.158   6.283  11.391
88776W        W58591   5.734  38.397   3.200
88777W        W58592   5.822  32.038   2.372
88778W        W58593  13.606  36.566  14.873
88779W        W58594   3.925  40.495  14.425
88780W        W58595  11.788  10.172   4.183
88781W        W58596  10.326  33.535   0.867
88782W        W58597  24.170  44.376  10.502
88783W        W58598  11.698  25.575   0.446
88784W        W58599   8.357   1.923  13.462
88785W        W58600  26.650  13.258  14.001
88786W        W58601  22.663  34.895  10.559
88787W        W58602  10.375  22.623   0.931
88788W        W58603   6.411  30.473   1.440
88789W        W58604  15.289   5.193  13.350
88790W        W58605  30.084  24.231  12.977
88791W        W58606  15.644  16.699  12.948
88792W        W58607  38.451  28.440  10.525
88793W        W58608  24.593  19.717  12.981
88794W        W58609  30.163  25.571  11.440
88795W        W58610  20.758  24.676   0.746
88796W        W58611  19.692   0.752  12.471
88797W        W58612  36.368  14.266   4.191
88798W        W58613  12.145  25.656  13.945
88799W        W58614  38.453  34.479   2.737
88800W        W58615  27.565  32.443  10.605
88801W        W58616  18.583  41.894   2.220
88802W        W58617  37.023   5.379   4.344
88803W        W58618  32.983  29.658   0.361
88804W        W58619  37.891  25.608   0.925
88805W        W58620   7.364  15.183  10.485
88806W        W58621   2.884  33.920  10.526
88807W        W58622  43.830   4.274  13.938
88808W        W58623  43.952  41.014   0.770
88809W        W58624  12.297   8.263   4.162
88810W        W58625  12.705  44.272   3.810
88811W        W58626   6.732   1.310   1.798
88812W        W58627  25.498  20.574   2.723
88813W        W58628  17.262   3.937  11.516
88814W        W58629  22.034  11.249   0.388
88815W        W58630   6.744  33.576   1.698
88816W        W58631  31.002  30.088   2.826
88817W        W58632  23.210  13.778  14.909
88818W        W58633  37.033  25.602  12.574
88819W        W58634  25.089  17.583  12.073
88820W        W58635  10.655  29.473   4.797
88821W        W58636  23.495  22.014  10.439
88822W        W58637   6.743  24.713  14.335
88823W        W58638  26.535   1.967   3.824
88824W        W58639  36.946  22.097  11.949
88825W        W58640  13.764  38.422   3.183
88826W        W58641  34.906  42.871  10.994
88827W        W58642   0.302  11.788   0.459
88828W        W58643   4.348  38.950   3.842
88829W        W58644  17.652   7.709   3.306
88830W        W58645  43.413  43.412   0.809
88831W        W58646  35.539  31.622  11.451
88832W        W58647  20.067   4.773  13.838
88833W        W58648  12.673  14.315  14.961
88834W        W58649   6.724  41.860   3.159
88835W        W58650  10.733  37.565   2.286
88836W        W58651   7.359  22.165  11.976
88837W        W58652  32.028  17.294  12.969
88838W        W58653  44.346  11.166   0.875
88839W        W58654  18.220  37.461  13.350
88840W        W58655  37.032   6.818   1.801
88841W        W58656  19.779   2.355  10.926
88842W        W58657  36.380   1.769   1.711
88843W        W58658  29.538  15.196  14.464
88844W        W58659  29.495   5.823   1.864
88845W        W58660  18.078  24.124  12.957
88846W        W58661   5.714  23.143   3.331
88847W        W58662  37.553  42.860   1.256
88848W        W58663  13.799  32.556   1.305
88849W        W58664  20.556   0.792   4.693
88850W        W58665  17.774  34.909  10.939
88851W        W58666  17.796  24.092   4.202
88852W        W58667  32.141  17.728   2.744
88853W        W58668   6.266  25.629   3.855
88854W        W58669  22.627  30.154   1.245
88855W        W58670  42.433  19.188   3.365
88856W        W58671  30.960  21.665   1.309
88857W        W58672  44.461  36.015  10.488
88858W        W58673  42.834  42.452   2.180
88859W        W58674  24.682  16.245   3.296
88860W        W58675  23.524   1.874  13.418
88861W        W58676   5.715  19.624  13.032
88862W        W58677   2.311  27.487  11.931
88863W        W58678   6.742  34.578   2.379
88864W        W58679  23.676   2.330  10.948
88865W        W58680   1.477  20.648   0.429
88866W        W58681   3.753  14.677  10.600
88867W        W58682   4.758  21.132  12.429
88868W        W58683   7.691  40.316   5.119
88869W        W58684  24.703  21.125   4.707
88870W        W58685  25.099  38.356  14.511
88871W        W58686   0.389  16.607  14.891
88872W        W58687   2.301  41.813  14.946
88873W        W58688  42.811  21.090  12.575
88874W        W58689   2.257  44.379  10.463
88875W        W58690  13.112  19.687  10.161
88876W        W58691  35.488  13.630  13.419
88877W        W58692  12.733   4.702  10.949
88878W        W58693  41.970   3.293  10.557
88879W        W58694  37.510  42.923  11.118
88880W        W58695  40.342  10.151   1.310
88881W        W58696  36.347   6.279  12.848
88882W        W58697  13.780  18.291   1.894
88883W        W58698  11.670  43.883   1.258
88884W        W58699  20.662  16.217  14.032
88885W        W58700  25.173  36.562  12.443
88886W        W58701  28.542  42.488   3.844
88887W        W58702  33.534  14.182   3.640
88888W        W58703  38.026  39.028   4.328
88889W        W58704  32.912   4.799   4.220
88890W        W58705  26.542  20.576  10.590
88891W        W58706   9.876  35.483  14.475
88892W        W58707   8.663   7.826  13.041
88893W        W58708  30.584   2.780   0.264
88894W        W58709  24.207  15.680   1.881
88895W        W58710  22.592  16.647  11.470
88896W        W58711   6.348  12.807   1.283
88897W        W58712   9.260  20.550  14.340
88898W        W58713   5.801  17.704  13.888
88899W        W58714   7.244  20.758  13.831
88900W        W58715  20.105   6.888   0.414
88901W        W58716   2.418  11.165   3.255
88902W        W58717  24.548  33.463   1.856
88903W        W58718   4.933   6.226   2.377
88904W        W58719  41.933  14.320   3.248
88905W        W58720   0.874  13.782  10.894
88906W        W58721   0.849  31.546  12.900
88907W        W58722  32.078  23.513   3.171
88908W        W58723  32.115  28.522   3.688
88909W        W58724  14.124  40.800  11.422
88910W        W58725  25.207  17.657  13.054
88911W        W58726  18.731  31.637  11.961
88912W        W58727  10.710  34.995   4.310
88913W        W58728  30.603  31.925  14.010
88914W        W58729  33.090  10.841  11.481
88915W        W58730  11.198  11.833   4.326
88916W        W58731   4.801  13.326   1.863
88917W        W58732  43.336  12.833   0.447
88918W        W58733  33.603  32.473   0.299
88919W        W58734  13.323  10.652  12.497
88920W        W58735  26.634  10.273  13.866
88921W        W58736  30.958  21.530   1.919
88922W        W58737  44.494  29.459  13.059
88923W        W58738   0.758   8.685  10.515
88924W        W58739  26.153  12.834  13.490
88925W        W58740  25.135  17.280   3.223
88926W        W58741  39.053  37.382  13.402
88927W        W58742  31.146  44.872   1.443
88928W        W58743  25.203  12.158  11.475
88929W        W58744   1.274  20.101  11.455
88930W        W58745   9.867  17.629   2.673
88931W        W58746   3.798  15.187   0.312
88932W        W58747  32.552   4.276   2.341
88933W        W58748  39.039  15.666  11.581
88934W        W58749  24.153  36.083  10.129
88935W        W58750   0.891  29.637  14.915
88936W        W58751  13.742  21.553  13.323
88937W        W58752  24.709  18.175  13.790
88938W        W58753  29.024   7.861  13.916
88939W        W58754  11.276   6.396   1.896
88940W        W58755   4.354  28.169   1.232
88941W        W58756  15.248   4.282  10.431
88942W        W58757  32.898  28.963  11.447
88943W        W58758  39.421  17.686   1.813
88944W        W58759  37.353  31.616   5.213
88945W        W58760  24.183  22.677   3.235
88946W        W58761  32.097  24.192  11.609
88947W        W58762  17.668  37.944  14.792
88948W        W58763  38.011  36.005   2.809
88949W        W58764  44.271  20.121  13.518
88950W        W58765  28.662  15.176   4.653
88951W        W58766   3.810   1.402  10.445
88952W        W58767  30.642  28.633   3.637
88953W        W58768  17.771  29.996  13.886
88954W        W58769  28.952  19.619  14.389
88955W        W58770  18.179  24.033  12.460
88956W        W58771  33.429  17.649   3.330
88957W        W58772  27.562  26.136   1.349
88958W        W58773  35.404   6.407  11.515
88959W        W58774  38.430  27.587   2.183
88960W        W58775  42.424  10.740  10.606
88961W        W58776  15.781  38.404  14.514
88962W        W58777  27.995   5.421   0.256
88963W        W58778  14.295   5.342  13.411
88964W        W58779  28.553  17.596   3.654
88965W        W58780  42.452  11.732   1.906
88966W        W58781  39.895   2.840  14.497
88967W        W58782  29.121  38.962  14.921
88968W        W58783  42.979   8.310   4.800
88969W        W58784  33.917  25.126  12.353
88970W        W58785   6.886   7.205   3.230
88971W        W58786   8.176   1.425   2.302
88972W        W58787  32.016  33.384   2.191
88973W        W58788  38.363  10.684  10.892
88974W        W58789  28.179  44.784   2.261
88975W        W58790  42.986  27.036  13.384
88976W        W58791  18.777  27.570   4.236
88977W        W58792  22.051   2.410   3.658
88978W        W58793  21.653  22.608  12.438
88979W        W58794  36.025  26.685  13.423
88980W        W58795  14.164  44.376   4.723
88981W        W58796  12.785  40.004  11.905
88982W        W58797  37.465  44.265  12.487
88983W        W58798  18.271   3.947   1.812
88984W        W58799   7.868  26.192   4.335
88985W        W58800  14.619  23.581  14.848
88986W        W58801  11.247  31.089   2.334
88987W        W58802  10.139  30.473   2.694
88988W        W58803  23.676  10.875  13.318
88989W        W58804  38.877   7.764  14.453
88990W        W58805   5.777  29.456  12.831
88991W        W58806  35.551  20.201   1.889
88992W        W58807  41.297   7.413   1.345
88993W        W58808   0.836  34.445  14.447
88994W        W58809  44.976  33.545  10.484
88995W        W58810  33.408  36.438   2.395
88996W        W58811  40.879  11.160  11.069
88997W        W58812  12.220  39.459  14.394
88998W        W58813  42.371  19.547  14.335
88999W        W58814  39.414  20.151   1.420
89000W        W58815   5.290   5.400   0.778
89001W        W58816  37.083  19.748  11.441
89002W        W58817  44.289  40.381  12.839
89003W        W58818  13.232   9.778  11.089
89004W        W58819  23.684   8.303  13.324
89005W        W58820  40.019  21.578  13.318
89006W        W58821  26.110  24.052  14.989
89007W        W58822   2.955  17.728   1.728
89008W        W58823  18.745  37.344   1.718
89009W        W58824  22.638  26.991   0.898
89010W        W58825  23.186   4.445   3.778
89011W        W58826   8.741   2.361  13.961
89012W        W58827  39.423   7.291   3.383
89013W        W58828  17.254   0.830   0.807
89014W        W58829  14.206  26.990  11.531
89015W        W58830  37.398  20.739  12.081
89016W        W58831   7.735  41.341  11.398
89017W        W58832  17.245   9.151   3.719
89018W        W58833  42.841   7.385   0.755
89019W        W58834  31.493  38.497  13.459
89020W        W58835  33.472  24.221   0.291
89021W        W58836  35.060  39.555  12.471
89022W        W58837  18.664   5.896   0.785
89023W        W58838  14.149  10.733  13.947
89024W        W58839  32.947  30.430   4.758
89025W        W58840   8.225  12.854  11.025
89026W        W58841  36.842  18.790  10.433
89027W        W58842  38.963   8.302   3.330
89028W        W58843  39.356  40.832   1.835
89029W        W58844  38.399  17.590   4.835
89030W        W58845  26.043  28.186   3.764
89031W        W58846  15.190  19.626  12.573
89032W        W58847  33.531  12.206  11.539
89033W        W58848  37.906  36.036   3.238
89034W        W58849  21.100  37.016  13.396
89035W        W58850   3.254  16.617   0.905
89036W        W58851  20.046  35.940   2.895
89037W        W58852  30.919  26.138   4.661
89038W        W58853   5.728  28.437  11.542
89039W        W58854   4.310  28.601  14.825
89040W        W58855  13.782  18.711   4.145
89041W        W58856  26.021  33.997   1.698
89042W        W58857  33.586  26.988   4.346
89043W        W58858  24.593  26.564   3.227
89044W        W58859  41.533  17.269  13.814
89045W        W58860  42.776  43.981  10.437
89046W        W58861  31.912   6.793   2.831
89047W        W58862   8.228  30.553   2.350
89048W        W58863  44.878  11.862  11.596
89049W        W58864   1.358  41.873  13.466
89050W        W58865   9.847  27.120   1.734
89051W        W58866  11.816   0.781  10.906
89052W        W58867  42.882  15.098  13.944
89053W        W58868   6.757  36.040   1.269
89054W        W58869  30.452   4.353  13.801
89055W        W58870  27.082  32.500  14.498
89056W        W58871  43.480  17.260   0.418
89057W        W58872  17.650  24.028   2.191
89058W        W58873  15.093  10.297   2.843
89059W        W58874  38.449  32.632  14.958
89060W        W58875  41.980   4.371   1.805
89061W        W58876  43.486  23.011  10.991
89062W        W58877   3.244  44.959  11.604
89063W        W58878  29.425  37.048   4.123
89064W        W58879  18.108  25.217   1.397
89065W        W58880  39.006   7.730   0.856
89066W        W58881  11.800  20.031   4.170
89067W        W58882  43.009  29.952   1.365
89068W        W58883   0.743   1.834  11.891
89069W        W58884  11.724  21.596   3.834
89070W        W58885  41.837  32.898   3.817
89071W        W58886  21.069  15.210   0.434
89072W        W58887  44.875  32.563  12.987
89073W        W58888   0.834   7.785  13.801
89074W        W58889   1.874  33.535  12.545
89075W        W58890   8.855  19.537   0.782
89076W        W58891   8.772   3.274   1.697
89077W        W58892  31.079  30.528  13.501
89078W        W58893  33.530  22.168   3.191
89079W        W58894  43.866  44.931  14.869
89080W        W58895   3.907  38.522   0.783
89081W        W58896  25.115  17.068  13.921
89082W        W58897  36.007  17.230   2.372
89083W        W58898  31.642   5.410   4.141
89084W        W58899  19.046  41.352   3.330
89085W        W58900  26.145  10.705   2.332
89086W        W58901  20.218  35.542   2.202
89087W        W58902  32.508   3.307  12.916
89088W        W58903  35.015  35.084   3.231
89089W        W58904   9.276  14.268  13.797
89090W        W58905   6.250  28.138   0.759
89091W        W58906  40.428  37.954  14.834
89092W        W58907  32.036   4.367   2.681
89093W        W58908   7.397  30.069   2.678
89094W        W58909   8.857  38.489   0.279
89095W        W58910   8.722  44.496   1.330
89096W        W58911   0.824  30.920   3.842
89097W        W58912  15.739  22.175   0.754
89098W        W58913  35.528  15.178   1.925
89099W        W58914  38.419  10.159   4.137
89100W        W58915  34.940   2.960   2.302
89101W        W58916   4.704   3.275   2.861
89102W        W58917  34.557  33.988  11.084
89103W        W58918   0.749  32.480  13.811
89104W        W58919  43.388   8.733   3.804
89105W        W58920  34.569  26.200   0.743
89106W        W58921  33.978  34.995   2.899
89107W        W58922   3.293   2.966  12.934
89108W        W58923  32.426   3.759   2.361
89109W        W58924  32.028  22.543   1.698
89110W        W58925  30.600   5.877  12.350
89111W        W58926   2.851  41.494  13.385
89112W        W58927  44.287  27.104   3.378
89113W        W58928  27.541  20.696   4.306
89114W        W58929  42.954  32.925  13.503
89115W        W58930  36.087  18.684  11.113
89116W        W58931  38.934   9.395   5.239
89117W        W58932   5.438  16.801   1.913
89118W        W58933  15.284   8.379  13.324
89119W        W58934  25.145  28.592   0.460
89120W        W58935  34.601  22.048  14.339
89121W        W58936  13.617  38.451  11.921
89122W        W58937  20.662  34.397  13.797
89123W        W58938  33.542   6.860   4.194
89124W        W58939   5.831  23.232   4.702
89125W        W58940  27.108  34.509   1.269
89126W        W58941  19.046  31.919   2.900
89127W        W58942   8.378  17.158   2.289
89128W        W58943   9.347  11.148  13.877
89129W        W58944   7.344  34.897  14.334
89130W        W58945   8.252   9.720   2.806
89131W        W58946  24.007   6.808  12.908
89132W        W58947   5.918  38.454  11.116
89133W        W58948  19.748  11.692  14.982
89134W        W58949   6.707  31.625   2.763
89135W        W58950  25.045   9.218  14.350
89136W        W58951  26.675  26.665  12.851
89137W        W58952  31.435  36.037   1.768
89138W        W58953   7.870  42.795  11.545
89139W        W58954  30.456  39.455   2.192
89140W        W58955  13.289   6.806   4.295
89141W        W58956  15.701  44.401  14.014
89142W        W58957  32.018   0.252  14.002
89143W        W58958  33.006  19.261   3.667
89144W        W58959  44.304  25.028   0.448
89145W        W58960  15.769   9.368   2.250
89146W        W58961  20.083  41.535  11.593
89147W        W58962  28.173  26.994  14.917
89148W        W58963  26.062  40.472  11.439
89149W        W58964   2.761  36.538   0.951
89150W        W58965   0.877  34.559  12.987
89151W        W58966  27.642  43.291  13.890
89152W        W58967  35.077   5.340  11.872
89153W        W58968   0.477  23.600   1.815
89154W        W58969  30.617  28.100  11.565
89155W        W58970   8.870  29.658   2.375
89156W        W58971   4.366  30.976  13.816
89157W        W58972  31.982  38.408   2.779
89158W        W58973  22.183  42.442   1.700
89159W        W58974  13.737   8.306  10.511
89160W        W58975  42.289  18.127  10.914
89161W        W58976  34.566   7.200  14.854
89162W        W58977  16.647  28.510   3.191
89163W        W58978  20.701  28.941  10.575
89164W        W58979  17.687   0.966   4.662
89165W        W58980  36.476   0.758  11.553
89166W        W58981   9.379  24.487  13.837
89167W        W58982   3.888  19.657  13.406
89168W        W58983   9.267  34.077   2.256
89169W        W58984  17.783   7.238  11.950
89170W        W58985  16.316  44.861  11.863
89171W        W58986  26.962  20.100  12.977
89172W        W58987  37.395  43.811  11.483
89173W        W58988  38.492  37.843  10.596
89174W        W58989  32.928   0.800  13.975
89175W        W58990  40.480   2.429   0.434
89176W        W58991  11.351   2.793   4.340
89177W        W58992  13.286  25.082  13.438
89178W        W58993  44.505   5.848  11.073
89179W        W58994  42.442   6.370   3.649
89180W        W58995  31.948   9.702   1.221
89181W        W58996  34.554  41.858   1.435
89182W        W58997  32.527  24.702   3.207
89183W        W58998  35.988  12.134  13.948
89184W        W58999  36.015  33.476  12.011
89185W        W59000  28.017  43.903   1.796
89186W        W59001  27.460  24.521   3.769
89187W        W59002  34.868  21.588  12.062
89188W        W59003  25.210  31.020   0.469
89189W        W59004  27.478   2.336  12.939
89190W        W59005  15.824  28.554  10.534
89191W        W59006  25.975  18.234   1.257
89192W        W59007  17.781  32.116   2.187
89193W        W59008   0.865   9.240   0.457
89194W        W59009  14.666   5.925  11.067
89195W        W59010  27.655  25.697  14.407
89196W        W59011  33.412  30.491   3.788
89197W        W59012  23.158   1.911   3.681
89198W        W59013  26.139   4.920   1.223
89199W        W59014  13.735  34.893   2.869
89200W        W59015  43.297  23.124   1.764
89201W        W59016  32.931  20.554   1.330
89202W        W59017  41.427  21.652   0.383
89203W        W59018   3.347  10.852  11.535
89204W        W59019  26.019  25.986   0.281
89205W        W59020   7.374  11.621   1.384
89206W        W59021  14.181  11.689   0.961
89207W        W59022  22.149  37.355  12.953
89208W        W59023  14.317  17.700   0.826
89209W        W59024  34.597  29.135  14.908
89210W        W59025   9.780  42.297   4.691
89211W        W59026   3.756  34.959  13.012
89212W        W59027  12.279  20.580  10.447
89213W        W59028  14.288  17.197   4.771
89214W        W59029  28.935  35.464   0.344
89215W        W59030   1.394  27.988  13.438
89216W        W59031  37.506  44.005   4.623
89217W        W59032  21.566  43.889  13.909
89218W        W59033  21.126  36.005   4.726
89219W        W59034  40.989  16.089   1.847
89220W        W59035  14.716  27.533  11.004
89221W        W59036  39.373  36.084   0.769
89222W        W59037   0.934  30.054  12.553
89223W        W59038  33.410  15.774   1.733
89224W        W59039  28.556  20.567  12.368
89225W        W59040  11.674  10.791  13.810
89226W        W59041  18.569  17.078   0.933
89227W        W59042  41.535  17.661  11.104
89228W        W59043  20.041  25.537  10.448
89229W        W59044   1.833   3.864  11.488
89230W        W59045  43.458  20.202   3.172
89231W        W59046   2.421  27.630   2.761
89232W        W59047  32.940   6.815  12.446
89233W        W59048  30.002  25.546   3.230
89234W        W59049  22.153  41.891  13.313
89235W        W59050  42.344  12.727  11.458
89236W        W59051  36.898  25.556  13.831
89237W        W59052   8.267  35.364  10.555
89238W        W59053  14.756  17.105   4.195
89239W        W59054  28.969  42.960  11.576
89240W        W59055  24.709  30.451  14.758
89241W        W59056  38.437  43.871   2.783
89242W        W59057  11.351   2.915   0.315
89243W        W59058  20.650  16.167  12.552
89244W        W59059  25.688  31.901   9.933
89245W        W59060  11.362  24.003   2.181
89246W        W59061  21.100  13.324  13.338
89247W        W59062  11.285  23.014  14.866
89248W        W59063   8.247  40.930   0.752
89249W        W59064  13.302   4.372  13.466
89250W        W59065  27.171  15.641  13.854
89251W        W59066  32.436  40.420   1.838
89252W        W59067  33.588  15.694   3.783
89253W        W59068  12.834  23.542   3.857
89254W        W59069  43.297  38.966   1.883
89255W        W59070  32.548  34.460  11.899
89256W        W59071  40.945   3.820  11.920
89257W        W59072  20.536  24.228  12.544
89258W        W59073  24.520  25.164  14.018
89259W        W59074  11.278  17.620   2.840
89260W        W59075  44.336   8.165   1.290
89261W        W59076  10.830   0.892  14.015
89262W        W59077  21.022  31.568  12.899
89263W        W59078  26.619  42.933  11.952
89264W        W59079  12.655   3.858  12.844
89265W        W59080  10.675  35.076  10.086
89266W        W59081  30.061  22.210  13.872
89267W        W59082  37.362  23.504   0.912
89268W        W59083  31.137  43.385   3.666
89269W        W59084   2.426  29.554   2.896
89270W        W59085  30.122  32.976   0.390
89271W        W59086  43.943  19.722  13.792
89272W        W59087  42.791  44.824   3.729
89273W        W59088  44.861  33.426  14.275
89274W        W59089  30.501   5.207  12.916
89275W        W59090  38.491   8.659  14.895
89276W        W59091  12.752   1.340   0.408
89277W        W59092   8.741   6.282  10.591
89278W        W59093  34.075  15.633   3.153
89279W        W59094  36.936  22.036   1.303
89280W        W59095  31.475  23.126   0.726
89281W        W59096  31.048  28.453   1.367
89282W        W59097  43.288   0.831  14.836
89283W        W59098  29.503  33.117  11.528
89284W        W59099  43.767  42.995  14.964
89285W        W59100  42.297   5.279   2.220
89286W        W59101  21.045  36.394   2.361
89287W        W59102  22.230  43.382  10.475
89288W        W59103  22.026  32.511   3.756
89289W        W59104   9.164  26.544  13.362
89290W        W59105   9.685  43.378  13.548
89291W        W59106   8.871  44.925  13.482
89292W        W59107  12.261  32.898   3.302
89293W        W59108  25.000  17.657  14.376
89294W        W59109   1.827  22.552   1.300
89295W        W59110  43.353  38.035  12.460
89296W        W59111  22.580  34.084  10.497
89297W        W59112  19.133  13.122   3.816
89298W        W59113  28.493   6.391  12.925
89299W        W59114  44.812  44.464   1.345
89300W        W59115  15.112  16.781  13.386
89301W        W59116   0.961   2.450  14.012
89302W        W59117  43.911  15.618   1.446
89303W        W59118  21.107   7.339  10.981
89304W        W59119  29.081  12.281   1.927
89305W        W59120  32.395  22.597   2.390
89306W        W59121  36.933  10.878   1.875
89307W        W59122  43.492  44.456  12.945
89308W        W59123  24.532  35.532  12.027
89309W        W59124  43.315   3.315   0.840
89310W        W59125  19.051  18.159   2.692
89311W        W59126  29.967  25.642   4.675
89312W        W59127  43.018   3.460   4.666
89313W        W59128  41.406  19.572   3.802
89314W        W59129  42.444  32.067   2.223
89315W        W59130  18.245  11.756   1.309
89316W        W59131  44.994  37.503  14.780
89317W        W59132  20.715   1.961  10.446
89318W        W59133  15.271  19.145  10.988
89319W        W59134   7.374  41.801   3.162
89320W        W59135  27.630  17.111  11.016
89321W        W59136  26.543  27.110   0.795
89322W        W59137  11.816  34.095   2.241
89323W        W59138  38.434  29.549  12.852
89324W        W59139  27.993  30.537  14.305
89325W        W59140  11.771  33.087   4.650
89326W        W59141  13.727   6.799   0.927
89327W        W59142  26.065  37.360   4.813
89328W        W59143  30.164   9.713  12.508
89329W        W59144  11.772   6.849  14.885
89330W        W59145  30.648  35.467  13.978
89331W        W59146  37.427  30.585  12.365
89332W        W59147   6.895  36.565  13.362
89333W        W59148  15.813  29.173   1.885
89334W        W59149  29.972   3.722   3.705
89335W        W59150  29.643  36.542   2.385
89336W        W59151  22.059  22.644   4.150
89337W        W59152  14.221   0.836   1.258
89338W        W59153   4.819   1.468  10.575
89339W        W59154  38.855  36.527   0.867
89340W        W59155   2.772   2.230  14.368
89341W        W59156  24.503   5.884   1.434
89342W        W59157   8.276   0.255  10.618
89343W        W59158  36.570  12.617  13.865
89344W        W59159   5.200  40.913   1.317
89345W        W59160  34.018  39.944   4.228
89346W        W59161   9.187  43.918   4.262
89347W        W59162  42.887  35.377  14.925
89348W        W59163  39.933  12.650  13.846
89349W        W59164  42.489  18.059   3.164
89350W        W59165  11.717  40.902   3.212
89351W        W59166  28.948   3.898   2.739
89352W        W59167  16.110   8.273   2.708
89353W        W59168  30.514  32.538   2.381
89354W        W59169   6.742  42.357   1.750
89355W        W59170  10.308  13.666   4.316
89356W        W59171  24.084  23.157  11.446
89357W        W59172  13.809  29.923   0.744
89358W        W59173   4.846  11.672   3.358
89359W        W59174  33.128  37.517   1.361
89360W        W59175  31.420  12.851  11.066
89361W        W59176  11.316   0.792   3.630
89362W        W59177  10.201  29.998  14.292
89363W        W59178  33.517  18.769   1.755
89364W        W59179  32.548  35.431   4.706
89365W        W59180   8.294  12.116   3.759
89366W        W59181  11.368  23.527   3.384
89367W        W59182  38.069  30.917  12.036
89368W        W59183   8.225  41.483  12.080
89369W        W59184  10.273   3.951   3.752
89370W        W59185   2.231  23.628   0.801
89371W        W59186  23.720  12.817   2.297
89372W        W59187  13.180  43.285  11.920
89373W        W59188  26.566  20.068  12.489
89374W        W59189  15.208  12.652  10.979
89375W        W59190  33.441  30.037   0.807
89376W        W59191  13.644  27.681   2.277
89377W        W59192  19.628   1.838   2.261
89378W        W59193  26.025  44.798  12.444
89379W        W59194  11.644  23.511  14.945
89380W        W59195  28.028  11.756   2.209
89381W        W59196  31.023   2.385   1.771
89382W        W59197  26.101  44.395  13.321
89383W        W59198  33.906  24.586   2.267
89384W        W59199   0.471  31.982   3.807
89385W        W59200  37.862  41.478   0.473
89386W        W59201   0.449  37.422   1.912
89387W        W59202  40.041  33.463   1.904
89388W        W59203  15.200  36.848   2.822
89389W        W59204  30.986  16.305   0.879
89390W        W59205   3.308  15.623   3.179
89391W        W59206  32.085  42.438   0.769
89392W        W59207  31.579  28.970  13.965
89393W        W59208  11.731   6.315  11.931
89394W        W59209  22.609   2.748  12.397
89395W        W59210  36.940  16.244  12.010
89396W        W59211   4.404  23.038   2.722
89397W        W59212  42.487  36.918   3.344
89398W        W59213  21.048  39.484  13.424
89399W        W59214  27.954  32.444   3.659
89400W        W59215  38.401  37.488  13.026
89401W        W59216   4.719  19.231   1.877
89402W        W59217  42.316  39.334   1.282
89403W        W59218  10.766  14.817  12.058
89404W        W59219   9.310  21.103  12.051
89405W        W59220  36.516  13.154   4.773
89406W        W59221  30.552  41.457   0.381
89407W        W59222  28.071  34.873   3.148
89408W        W59223  21.745  18.220  12.575
89409W        W59224   9.652   9.336  11.868
89410W        W59225  41.986  14.325  13.821
89411W        W59226  25.609   0.776  14.372
89412W        W59227  25.572  11.283  12.847
89413W        W59228  40.327   5.906   4.349
89414W        W59229   0.433  16.305   4.129
89415W        W59230  30.422  19.690  12.510
89416W        W59231  38.365  11.211   1.923
89417W        W59232   0.811  25.103   2.839
89418W        W59233  40.351  35.943  11.007
89419W        W59234  18.165  27.946   0.750
89420W        W59235  36.855  21.753  13.826
89421W        W59236   4.246  38.859  10.489
89422W        W59237  29.162  40.831  10.442
89423W        W59238  28.121  28.620  13.981
89424W        W59239  30.043  43.790  11.091
89425W        W59240   9.376   5.209   4.307
89426W        W59241  28.121   5.826  12.091
89427W        W59242  28.663  22.714  13.915
89428W        W59243  39.037  30.466  14.773
89429W        W59244  39.423  10.740   1.210
89430W        W59245  33.474  17.601   4.699
89431W        W59246   4.864  41.022   5.116
89432W        W59247  34.486  19.163  11.558
89433W        W59248  22.671  43.772  11.477
89434W        W59249  44.829  41.510   5.085
89435W        W59250  34.038  21.099  11.039
89436W        W59251   8.309  37.862  10.952
89437W        W59252  40.412   0.820  13.795
89438W        W59253  14.199  19.766   0.377
89439W        W59254   8.250  15.802   0.425
89440W        W59255  17.742  26.460  11.064
89441W        W59256  37.978  43.881   0.787
89442W        W59257  30.994  40.478  10.926
89443W        W59258   7.266   3.792   2.275
89444W        W59259  23.537  42.997   2.400
89445W        W59260   7.200   9.189   3.250
89446W        W59261  25.713   2.383   0.395
89447W        W59262   5.911   9.348   4.207
89448W        W59263  37.970  12.314  12.481
89449W        W59264   6.282  34.433  12.013
89450W        W59265  19.722   7.752   5.320
89451W        W59266  39.005  27.016  12.863
89452W        W59267  24.548   4.741   1.882
89453W        W59268  29.129  32.892   2.334
89454W        W59269  38.836   1.911  14.006
89455W        W59270  36.466  18.276   0.779
89456W        W59271  24.668   0.408  13.511
89457W        W59272   3.395  36.562  11.472
89458W        W59273   0.360   8.658   9.937
89459W        W59274  36.591  25.135   3.705
89460W        W59275  21.607  26.560   3.206
89461W        W59276  30.582   9.255   3.323
89462W        W59277  28.025  36.507   3.231
89463W        W59278  26.096  36.461   0.479
89464W        W59279  43.830  10.201   2.393
89465W        W59280  37.867  20.745   2.669
89466W        W59281  22.672  35.926   0.340
89467W        W59282  21.111  21.094  13.898
89468W        W59283  18.101  20.737   0.459
89469W        W59284  42.925  17.698   4.603
89470W        W59285   8.859  40.956   3.806
89471W        W59286  19.092  16.114  11.067
89472W        W59287  30.944   0.320   1.828
89473W        W59288  25.132   0.794  11.056
89474W        W59289  15.233  41.371  10.480
89475W        W59290   2.363   8.854   1.832
89476W        W59291   6.326  22.069   2.187
89477W        W59292  36.554  37.057   1.386
89478W        W59293  44.262  39.863   2.696
89479W        W59294  35.567  41.372   4.143
89480W        W59295  43.449  31.431  10.431
89481W        W59296  10.375  12.730   0.915
89482W        W59297  34.891  33.922   4.255
89483W        W59298  33.433  12.831  11.108
89484W        W59299  35.379   7.739   2.231
89485W        W59300  31.958  27.958   0.288
89486W        W59301  38.044  26.046  12.075
89487W        W59302  17.710  42.805  13.418
89488W        W59303  41.398  31.541   1.349
89489W        W59304   6.200   4.710   1.272
89490W        W59305   2.944  30.948   3.826
89491W        W59306  34.528  32.057  11.391
89492W        W59307  40.809   7.254   1.877
89493W        W59308   6.805   7.386  13.472
89494W        W59309  25.147  35.903   1.819
89495W        W59310  22.250  35.065  10.479
89496W        W59311  38.420   6.787  14.785
89497W        W59312  16.233  10.283   1.882
89498W        W59313   1.834   5.863  13.059
89499W        W59314  38.564  26.069   0.808
89500W        W59315  31.646  36.964   4.323
89501W        W59316   3.952  41.460  11.058
89502W        W59317   6.726   5.710   2.313
89503W        W59318  19.100  40.482  14.000
89504W        W59319  19.594  28.115   0.841
89505W        W59320  26.527  12.668   5.296
89506W        W59321   7.898  21.623   1.371
89507W        W59322  28.983  43.391   1.315
89508W        W59323  38.920  25.472  12.032
89509W        W59324   5.711  15.661  14.010
89510W        W59325  17.588   2.748   4.274
89511W        W59326   8.762  15.303   0.856
89512W        W59327   9.361  24.176  10.417
89513W        W59328   0.881  12.623   1.737
89514W        W59329  16.094  22.191   2.354
89515W        W59330  22.204  14.687  13.344
89516W        W59331   0.914   0.914  12.952
89517W        W59332  11.717  42.389   3.382
89518W        W59333  27.150  14.747   1.446
89519W        W59334  32.041  15.323  12.828
89520W        W59335  13.340  10.277   5.111
89521W        W59336  22.561  22.216   2.372
89522W        W59337  23.172  24.633  10.551
89523W        W59338  11.686  41.874  12.983
89524W        W59339  24.098   5.294   1.345
89525W        W59340  22.611  14.208  10.981
89526W        W59341  43.967  16.172  12.913
89527W        W59342  42.907  10.642   4.182
89528W        W59343  22.134  10.704  12.011
89529W        W59344   0.466  41.401   3.214
89530W        W59345  26.513  24.642  11.892
89531W        W59346   6.905  13.306   3.857
89532W        W59347  26.071   3.270   1.799
89533W        W59348   5.281  40.976  13.870
89534W        W59349  26.517  37.029  13.491
89535W        W59350   3.433  16.243   4.615
89536W        W59351   3.830  33.108  12.399
89537W        W59352  12.303   3.264  12.965
89538W        W59353  10.766   7.218   0.961
89539W        W59354  43.373  34.002  14.374
89540W        W59355  16.764  26.150  13.499
89541W        W59356  10.157   8.218  12.359
89542W        W59357  12.260   6.326  12.061
89543W        W59358  11.772  34.592  13.003
89544W        W59359  11.673   4.229   3.344
89545W        W59360  23.593   5.737  11.489
89546W        W59361  32.401  17.284  12.401
89547W        W59362   4.357  12.822  11.404
89548W        W59363  25.206  19.745   3.682
89549W        W59364  19.692  22.238  11.582
89550W        W59365   3.876  36.087  13.808
89551W        W59366  34.008  25.590  13.887
89552W        W59367  16.813   7.197   0.792
89553W        W59368  21.206   1.856   3.218
89554W        W59369  37.569  16.299  14.433
89555W        W59370  13.269  34.940   2.281
89556W        W59371  38.364  31.920   4.714
89557W        W59372  25.135   1.443  14.423
89558W        W59373  22.545   5.846   1.383
89559W        W59374  32.888  38.350   2.802
89560W        W59375   6.323  19.596  13.972
89561W        W59376  43.398  22.063  12.518
89562W        W59377  44.841   4.771  12.512
89563W        W59378  30.537  13.783  11.606
89564W        W59379  38.076  42.887   2.670
89565W        W59380  11.638  18.701   2.378
89566W        W59381  10.663  20.047   0.759
89567W        W59382  21.541  16.804   1.343
89568W        W59383  19.541  42.452  11.466
89569W        W59384   0.798  34.057  12.898
89570W        W59385  15.210   7.831   1.380
89571W        W59386  24.046  18.203   2.816
89572W        W59387  24.608   8.181   0.887
89573W        W59388  14.831   5.240   2.235
89574W        W59389  31.476  16.293  11.440
89575W        W59390  20.133  23.641  12.537
89576W        W59391   1.905  10.794  13.052
89577W        W59392  11.264  17.701  11.539
89578W        W59393  30.967  32.084   2.761
89579W        W59394  13.736   6.726  13.363
89580W        W59395  25.611  15.186  11.071
89581W        W59396  24.697  26.043  11.122
89582W        W59397  10.860  39.414  13.336
89583W        W59398  39.039  19.694   0.819
89584W        W59399  25.964   9.872   5.200
89585W        W59400  32.978   4.726   1.353
89586W        W59401  27.078  10.345  12.399
89587W        W59402  42.484  39.547  12.018
89588W        W59403  39.314   8.809   3.303
89589W        W59404  34.515  12.833   3.170
89590W        W59405   6.299  23.100  13.413
89591W        W59406  21.651  35.900  13.539
89592W        W59407  11.254  14.591  14.314
89593W        W59408  41.963  16.715   5.271
89594W        W59409   5.811   6.377   0.453
89595W        W59410   9.391   9.279  14.918
89596W        W59411  34.875  37.547  10.428
89597W        W59412  39.353  36.349  13.453
89598W        W59413   0.311  30.960  12.558
89599W        W59414  15.264  38.544   2.298
89600W        W59415   0.820  11.719   2.794
89601W        W59416   8.736  19.695   2.379
89602W        W59417  26.520  24.617  14.289
89603W        W59418  44.500  27.021  13.385
89604W        W59419  39.987   7.362   4.184
89605W        W59420  30.030  23.074  14.872
89606W        W59421  20.168  16.217   1.365
89607W        W59422  44.802  12.823  14.346
89608W        W59423  27.944  27.004  13.427
89609W        W59424  43.302   3.244   1.861
89610W        W59425   2.425  23.198   4.136
89611W        W59426  27.578  36.928   4.296
89612W        W59427  22.245  16.752  11.422
89613W        W59428  13.687  28.541   0.747
89614W        W59429  12.359  39.817  14.914
89615W        W59430  17.173   3.296  13.012
89616W        W59431   6.886  33.526  12.461
89617W        W59432  14.713  33.605   4.321
89618W        W59433  32.629  12.212   3.224
89619W        W59434  42.515  29.556   3.347
89620W        W59435  35.423  10.230  12.468
89621W        W59436  43.000   8.282   1.850
89622W        W59437   8.324  17.645  14.496
89623W        W59438  35.966  24.032   4.811
89624W        W59439  39.001  20.068   4.775
89625W        W59440  10.273  42.814  12.856
89626W        W59441  35.876  18.093   2.872
89627W        W59442  37.409  36.573  14.876
89628W        W59443  39.055   1.483  12.372
89629W        W59444  24.991  16.160   3.170
89630W        W59445  22.006  33.557  12.008
89631W        W59446  41.844  10.219   4.658
89632W        W59447  26.125  43.370   0.461
89633W        W59448   4.289   2.911  13.395
89634W        W59449  33.877  11.199  13.382
89635W        W59450  29.577  36.874  10.428
89636W        W59451  10.151  21.699  14.479
89637W        W59452  39.432   7.687   0.258
89638W        W59453  44.310  12.733  11.962
89639W        W59454  43.834  22.554   0.837
89640W        W59455   9.268  36.349   4.694
89641W        W59456  12.687  38.056  13.058
89642W        W59457  34.472  18.244   3.355
89643W        W59458  18.562  37.989   2.804
89644W        W59459  40.846  10.259  14.019
89645W        W59460  23.095  39.536  14.968
89646W        W59461  30.417  37.452   1.756
89647W        W59462  39.919   8.833   2.805
89648W        W59463  13.128  35.488  11.079
89649W        W59464  27.525  35.497   2.729
89650W        W59465  20.634  23.237  14.832
89651W        W59466  22.725  11.649   0.860
89652W        W59467  39.512  33.897   3.189
89653W        W59468  29.511  42.877   4.294
89654W        W59469  14.835  14.660   1.365
89655W        W59470   3.311  43.383   0.280
89656W        W59471   4.928  10.141   1.914
89657W        W59472   5.315  37.531  14.326
89658W        W59473  25.605   5.239  11.578
89659W        W59474  35.470  20.557  12.541
89660W        W59475  12.343  44.436   0.925
89661W        W59476  38.941  22.534   0.938
89662W        W59477  29.432  37.345   4.338
89663W        W59478  16.573  43.972  14.898
89664W        W59479  31.141  20.210  12.340
89665W        W59480   2.734  31.991  14.827
89666W        W59481  10.858  27.610   3.243
89667W        W59482  26.983  21.147  12.445
89668W        W59483  13.767  42.449   3.728
89669W        W59484   0.468   4.870  14.942
89670W        W59485  16.728   0.376   3.307
89671W        W59486   7.308   2.408  14.320
89672W        W59487  12.261   8.202   1.265
89673W        W59488  40.000  27.081   3.754
89674W        W59489   4.887  24.103  13.904
89675W        W59490   2.245   6.863   4.329
89676W        W59491  30.034  18.106  13.371
89677W        W59492  19.609  12.257   1.829
89678W        W59493  32.395   7.829   4.217
89679W        W59494  33.118  27.641  12.048
89680W        W59495  10.310  44.760  10.038
89681W        W59496  39.852  28.084   2.889
89682W        W59497  35.905  16.728   3.309
89683W        W59498   4.252  39.017  12.375
89684W        W59499  16.710   9.394   1.802
89685W        W59500  44.441  42.778  14.456
89686W        W59501   6.292  30.535   3.179
89687W        W59502   6.425  11.808  12.868
89688W        W59503  20.596  26.120  10.577
89689W        W59504   5.222   7.360   5.254
89690W        W59505  17.680   2.347  10.551
89691W        W59506   5.783  43.898   4.772
89692W        W59507  29.627  35.473   4.191
89693W        W59508  23.231  21.197  12.342
89694W        W59509  12.803   0.846   3.291
89695W        W59510  29.497  12.117  13.354
89696W        W59511  16.671  30.634   2.295
89697W        W59512  38.013  18.275  14.327
89698W        W59513  32.971  17.238  13.891
89699W        W59514  27.458  16.787  11.372
89700W        W59515   1.758  28.968   0.914
89701W        W59516  35.005  32.483   0.436
89702W        W59517   1.978   3.275   3.807
89703W        W59518  36.389   9.738  10.462
89704W        W59519  16.645  41.316  10.899
89705W        W59520  26.457  21.179  13.977
89706W        W59521  34.943   9.230   0.372
89707W        W59522  11.294  35.980   1.904
89708W        W59523  37.832   6.223   2.767
89709W        W59524  12.150  13.340  11.436
89710W        W59525  13.640  15.623   0.876
89711W        W59526  43.442  34.952   4.306
89712W        W59527  19.695  13.231  11.466
89713W        W59528  14.160   5.422  14.417
89714W        W59529  31.493  29.592  13.031
89715W        W59530  35.446   1.949   4.261
89716W        W59531  39.325  30.098   4.279
89717W        W59532  40.491  32.910  14.854
89718W        W59533   9.647   8.679   3.288
89719W        W59534   6.907  37.457   2.279
89720W        W59535   2.443  19.740  14.511
89721W        W59536  38.462   4.432   4.837
89722W        W59537  41.413  19.775  12.545
89723W        W59538  42.370   6.344  14.490
89724W        W59539   5.211   8.791  12.053
89725W        W59540  38.840  16.300  14.344
89726W        W59541  25.087  17.141   4.290
89727W        W59542   8.901  15.592  14.003
89728W        W59543   5.879   2.893   0.335
89729W        W59544   3.920  21.262  12.070
89730W        W59545  21.512  26.166   3.823
89731W        W59546  36.066  43.799   1.294
89732W        W59547   1.260  40.537  11.582
89733W        W59548  38.528  23.136  14.819
89734W        W59549  44.804  26.156  12.043
89735W        W59550   3.855   7.410   2.396
89736W        W59551  24.524   8.264   4.353
89737W        W59552  26.647  26.511   2.710
89738W        W59553   7.682  26.457  11.377
89739W        W59554  35.051   8.703  11.069
89740W        W59555  40.468  34.012   1.281
89741W        W59556  42.484  14.120  12.878
89742W        W59557  25.496   5.417   1.295
89743W        W59558  40.503  43.834  13.515
89744W        W59559  42.024  42.983   0.298
89745W        W59560   3.431   4.758  13.863
89746W        W59561   8.194  38.385   3.756
89747W        W59562  12.307   0.324  14.803
89748W        W59563  42.987  24.521   1.232
89749W        W59564  21.614   4.289  11.044
89750W        W59565  28.038  24.556   3.746
89751W        W59566  30.439  16.763   1.417
89752W        W59567  38.016  18.058  14.821
89753W        W59568  16.109  27.049  14.973
89754W        W59569  20.684   0.768   3.227
89755W        W59570  32.889  37.942   3.231
89756W        W59571  21.725   3.778   4.124
89757W        W59572  17.671  25.531   0.414
89758W        W59573   6.888  39.925  14.813
89759W        W59574  23.615  32.106  14.348
89760W        W59575  20.062  21.061  11.503
89761W        W59576  14.599   0.769   1.299
89762W        W59577  30.436  32.580  10.573
89763W        W59578  33.539  38.886  14.509
89764W        W59579  43.003  33.517   3.276
89765W        W59580  38.376  19.578   2.398
89766W        W59581  26.551   0.838   4.157
89767W        W59582  14.318   4.373  11.922
89768W        W59583  27.182  38.386  14.410
89769W        W59584   0.462  11.860  13.357
89770W        W59585  43.307  13.657   1.912
89771W        W59586  34.081  44.342  14.302
89772W        W59587  10.338  39.548  14.369
89773W        W59588  23.065   6.768   0.303
89774W        W59589  27.082  19.650   5.283
89775W        W59590   3.361  22.619   3.736
89776W        W59591  28.184  13.243  11.047
89777W        W59592  30.564   5.371  10.491
89778W        W59593  10.323   9.393   3.243
89779W        W59594  10.189  15.728  13.504
89780W        W59595   0.441  40.034  12.347
89781W        W59596  30.119  26.102  14.872
89782W        W59597   8.238  14.221  14.352
89783W        W59598  31.449  21.241  11.545
89784W        W59599  27.147  21.750  12.051
89785W        W59600  13.191   1.452   2.686
89786W        W59601  26.692  12.650  14.486
89787W        W59602   1.777  37.532  11.521
89788W        W59603  33.611  11.175  11.072
89789W        W59604  16.786  11.135   2.897
89790W        W59605  31.153  27.158  11.057
89791W        W59606   5.282   9.391  11.482
89792W        W59607  20.712  26.183   4.681
89793W        W59608   6.301   1.921   3.335
89794W        W59609  36.500  31.983  12.894
89795W        W59610  28.627  24.174   4.611
89796W        W59611   3.378  30.049   2.210
89797W        W59612  11.243  42.879   0.373
89798W        W59613  43.975  34.981  11.099
89799W        W59614  31.900  19.181  13.488
89800W        W59615  27.056  17.645  11.516
89801W        W59616  10.279  36.918   2.389
89802W        W59617  22.136  11.629  14.515
89803W        W59618  13.184  17.110   1.868
89804W        W59619  36.076  18.749   0.900
89805W        W59620  20.706   9.824   4.606
89806W        W59621  31.604  22.656  12.396
89807W        W59622   1.757  17.214  11.994
89808W        W59623  31.490  20.228  11.564
89809W        W59624  35.499  39.026  12.447
89810W        W59625  31.084  12.183  14.809
89811W        W59626  30.655  23.597  13.889
89812W        W59627  29.518  12.834  12.448
89813W        W59628  41.381  33.062   3.798
89814W        W59629  11.144  44.502  14.828
89815W        W59630  41.793  29.136  10.122
89816W        W59631  25.697   4.827  11.393
89817W        W59632   3.823  16.095   1.733
89818W        W59633  25.087  42.015  10.425
89819W        W59634  11.173   4.850  14.919
89820W        W59635  17.130  44.412   2.317
89821W        W59636  18.132  17.076  11.544
89822W        W59637  21.077  40.979  10.951
89823W        W59638  29.111   5.301  12.440
89824W        W59639  28.051  33.422   2.850
89825W        W59640  25.979  13.806   1.919
89826W        W59641  10.722  39.490   2.678
89827W        W59642   4.272  10.370  12.482
89828W        W59643  36.891   4.824   4.129
89829W        W59644   7.863  44.328   4.244
89830W        W59645  27.143  21.049  14.389
89831W        W59646  26.156   1.840   2.899
89832W        W59647  22.098  31.960   1.843
89833W        W59648   9.178  38.467   3.720
89834W        W59649  22.217   0.440  13.378
89835W        W59650   5.279   4.718   4.226
89836W        W59651  21.179  40.440  14.446
89837W        W59652  33.455  10.870   1.812
89838W        W59653  34.942  39.466   0.255
89839W        W59654   6.291   6.792   1.232
89840W        W59655  43.960   8.225  11.123
89841W        W59656  26.148  17.794  10.986
89842W        W59657   4.798   1.437  12.025
89843W        W59658  13.676  42.325  11.611
89844W        W59659  29.524  34.446  13.311
89845W        W59660  21.100  25.966   3.741
89846W        W59661   3.840  23.990  13.547
89847W        W59662  39.396   1.361   3.720
89848W        W59663   5.919  26.621   1.290
89849W        W59664  30.656  37.909  11.471
89850W        W59665  32.578  35.925  12.973
89851W        W59666   3.402  42.925  14.797
89852W        W59667   0.965  28.630  12.402
89853W        W59668   0.394  34.487  12.544
89854W        W59669  16.124  32.488  10.636
89855W        W59670  19.644   7.798   4.800
89856W        W59671  15.272  29.435  10.475
89857W        W59672  32.070  30.011   3.246
89858W        W59673  21.741   7.188  11.103
89859W        W59674   0.825  24.627   2.882
89860W        W59675  40.032  34.068  10.544
89861W        W59676  42.969  14.615  11.012
89862W        W59677  31.514  28.024  12.525
89863W        W59678  29.926  36.073  10.521
89864W        W59679  18.085   4.724   2.838
89865W        W59680  32.084  30.908  14.769
89866W        W59681  37.387   6.266  12.995
89867W        W59682   0.820  20.265  14.427
89868W        W59683  20.137  29.054   0.317
89869W        W59684  40.873  23.623   0.390
89870W        W59685   0.834  40.420  14.312
89871W        W59686  21.074  28.104   5.121
89872W        W59687  38.450   0.345  13.503
89873W        W59688  23.533  41.443  11.074
89874W        W59689  41.977  35.585   1.411
89875W        W59690  22.650  32.618  11.556
89876W        W59691  40.344  22.154   1.725
89877W        W59692  21.049  13.327   3.646
89878W        W59693  33.411  28.596   4.649
89879W        W59694  19.258  13.278  12.003
89880W        W59695  36.942   9.828   4.737
89881W        W59696  20.185  12.233  14.862
89882W        W59697  43.776  25.993   2.367
89883W        W59698  34.899   9.282   4.270
89884W        W59699  27.548   3.429  13.315
89885W        W59700  44.925  31.124  14.905
89886W        W59701  34.092  20.052  11.889
89887W        W59702  42.781  27.075  12.953
89888W        W59703  43.853  27.590  11.110
89889W        W59704  33.973  21.652  11.608
89890W        W59705  18.667  28.636  14.003
89891W        W59706  37.416   3.946   2.880
89892W        W59707  15.733  39.016  14.275
89893W        W59708  11.812   9.853  10.411
89894W        W59709  32.096  44.961  13.924
89895W        W59710  28.679  25.089  13.331
89896W        W59711  44.763   2.829   0.276
89897W        W59712  12.654  12.155  12.969
89898W        W59713  11.765  41.486   1.327
89899W        W59714   1.762  16.663  13.499
89900W        W59715  38.051  23.564  13.421
89901W        W59716   7.834   5.200  14.960
89902W        W59717  16.073  34.400   3.640
89903W        W59718  40.381   1.417   3.780
89904W        W59719  43.347   6.217  11.060
89905W        W59720  21.260  33.063   0.863
89906W        W59721  25.497  35.522  14.470
89907W        W59722   0.817  42.980   1.219
89908W        W59723  11.134  39.330   0.466
89909W        W59724  24.039  13.120  13.964
89910W        W59725  24.646  26.699   2.199
89911W        W59726  13.133  43.989   0.759
89912W        W59727  35.919  27.607  10.453
89913W        W59728  19.110  16.781   0.758
89914W        W59729  27.658  40.517  11.560
89915W        W59730  34.924   7.746  12.417
89916W        W59731  41.909  34.032  11.893
89917W        W59732  31.516  36.562   2.773
89918W        W59733  41.393  32.565   2.389
89919W        W59734  21.247   1.846   3.778
89920W        W59735  34.934  33.936   1.918
89921W        W59736  21.139  21.726   4.209
89922W        W59737  20.591  19.226  14.450
89923W        W59738  14.131   6.817   3.690
89924W        W59739  18.243  29.547   0.317
89925W        W59740  38.891   8.896   0.360
89926W        W59741   8.355  19.681   0.916
89927W        W59742  30.969  12.784   1.826
89928W        W59743  37.859  44.287  13.799
89929W        W59744  41.457  41.900   1.386
89930W        W59745   2.915   8.668   3.778
89931W        W59746  25.972  12.634  12.022
89932W        W59747  27.501  33.955   2.758
89933W        W59748  40.828   4.753  13.377
89934W        W59749   5.373  18.746  12.367
89935W        W59750  34.919  12.176   3.748
89936W        W59751  28.153   9.260   3.725
89937W        W59752  20.155   8.681   2.693
89938W        W59753  44.390   0.406  10.020
89939W        W59754  18.686  24.675   0.891
89940W        W59755  17.178  42.797   2.327
89941W        W59756  34.087   3.743  12.493
89942W        W59757  14.156   3.950  14.486
89943W        W59758   4.845  22.521   4.179
89944W        W59759  20.100  14.328   1.235
89945W        W59760  41.025  12.850   2.702
89946W        W59761   0.412  28.514   1.827
89947W        W59762  37.446  12.207  11.041
89948W        W59763  34.043  31.949   2.315
89949W        W59764  16.705   3.854  14.414
89950W        W59765   8.310   7.882   0.912
89951W        W59766   3.863   3.894  12.081
89952W        W59767  31.080   7.741   2.843
89953W        W59768  16.286  16.715  11.550
89954W        W59769  42.819  38.960   3.680
89955W        W59770  21.078  15.774   0.910
89956W        W59771  27.983  30.532  11.909
89957W        W59772   8.896   6.713   4.704
89958W        W59773  31.489  10.343   0.832
89959W        W59774  19.078   5.853   3.867
89960W        W59775  21.237  38.459  10.478
89961W        W59776   0.789   4.354  11.051
89962W        W59777  22.632  15.672  13.316
89963W        W59778  38.904  41.829  12.875
89964W        W59779   0.771  43.907   1.756
89965W        W59780  32.911  39.990   4.181
89966W        W59781   6.706  23.731   1.345
89967W        W59782  38.358  12.752   2.379
89968W        W59783  40.536  42.788   0.728
89969W        W59784  25.218  43.802  13.531
89970W        W59785  19.118  19.081   1.435
89971W        W59786   1.955  27.976  10.595
89972W        W59787   7.722  35.902   0.362
89973W        W59788  32.550   4.878   9.980
89974W        W59789   3.284  42.326  11.967
89975W        W59790  36.560  27.088   4.225
89976W        W59791  32.091  31.111   0.338
89977W        W59792  13.267  34.613  11.035
89978W        W59793  33.395  27.017  12.516
89979W        W59794  41.939  37.452   4.331
89980W        W59795   0.976  31.062   2.721
89981W        W59796   9.254  18.665   4.126
89982W        W59797  25.474  29.660   3.222
89983W        W59798  38.914  25.714  13.320
89984W        W59799  41.975  31.470   2.342
89985W        W59800  10.325  10.710   1.264
89986W        W59801  13.699   9.728   3.664
89987W        W59802  25.668  12.274   9.464
89988W        W59803  23.665  41.894   1.827
89989W        W59804  23.732  34.933  13.959
89990W        W59805  14.281   6.913  10.979
89991W        W59806  33.566  25.191   4.268
89992W        W59807  36.418   5.357  13.834
89993W        W59808  30.047  26.658   0.440
89994W        W59809  22.205  10.278  10.645
89995W        W59810  18.260  35.556  10.451
89996W        W59811  39.409  23.116  13.988
89997W        W59812   9.179  36.531  13.376
89998W        W59813  29.510  14.324  12.987
89999W        W59814  22.561   7.700   4.647
90000W        W59815  35.547  34.988   4.663
90001W        W59816  26.498   5.746   0.431
90002W        W59817  44.403  24.614   0.890
90003W        W59818  23.051   0.365   1.839
90004W        W59819  15.150   8.390   4.784
90005W        W59820  41.979   4.213  13.854
90006W        W59821  43.501  26.101   2.387
90007W        W59822   8.236  23.493   2.183
90008W        W59823  11.865  22.096  14.466
90009W        W59824  40.897  34.025   4.322
90010W        W59825  37.463  26.108  10.549
90011W        W59826  29.046  22.106   3.229
90012W        W59827  36.395   2.324  10.490
90013W        W59828  22.187  32.438   0.459
90014W        W59829  10.244  29.459   3.747
90015W        W59830  32.990  34.532  10.529
90016W        W59831  17.739   0.265  12.076
90017W        W59832   3.230  25.008  11.051
90018W        W59833   7.717  31.427  14.018
90019W        W59834   8.270   5.403  10.435
90020W        W59835   7.884  32.896  12.914
90021W        W59836  30.017   7.213   1.238
90022W        W59837  19.098  23.238  11.075
90023W        W59838  40.525  31.644   2.752
90024W        W59839  11.223  18.172   3.348
90025W        W59840   8.343  19.670   1.908
90026W        W59841  10.827  37.059  12.446
90027W        W59842  44.951  35.386  12.483
90028W        W59843  25.970  22.615  13.389
90029W        W59844  29.468   3.796  12.935
90030W        W59845  36.900  13.168   2.198
90031W        W59846  32.462  30.968  14.808
90032W        W59847   7.301  31.066   3.146
90033W        W59848  33.068  24.581  14.970
90034W        W59849   8.746  16.696   4.693
90035W        W59850   8.360  37.463   4.173
90036W        W59851   7.733  35.368  11.012
90037W        W59852  20.671   7.337  10.451
90038W        W59853  11.250  28.602  11.103
90039W        W59854  35.579  33.047  12.079
90040W        W59855   7.802   9.872   4.772
90041W        W59856  22.501   1.912  13.457
90042W        W59857  20.718  24.599  10.415
90043W        W59858   8.891  18.786   3.662
90044W        W59859  12.704  24.676   1.214
90045W        W59860   0.848  10.311   0.761
90046W        W59861   0.308  12.790   1.713
90047W        W59862  37.969  39.534  11.490
90048W        W59863  34.905  44.889   3.768
90049W        W59864  15.715   7.706  12.522
90050W        W59865  34.464  15.677   2.375
90051W        W59866  13.321  21.545  13.309
90052W        W59867  27.040   5.831   1.859
90053W        W59868  12.215   8.169  12.018
90054W        W59869  35.090   3.775   4.629
90055W        W59870   5.432  18.098   2.779
90056W        W59871   8.199  37.840  11.401
90057W        W59872  17.172  40.357   5.260
90058W        W59873  13.746  40.887   2.288
90059W        W59874  31.584  28.138  14.514
90060W        W59875  16.206  33.440  12.885
90061W        W59876  13.667  11.733  13.329
90062W        W59877  24.112  11.144   0.907
90063W        W59878  43.861  20.652  12.414
90064W        W59879  14.255  20.526   1.916
90065W        W59880   7.743  40.036   3.289
90066W        W59881   9.886  24.570   0.905
90067W        W59882  11.180  36.462  10.899
90068W        W59883  28.076  11.764  12.971
90069W        W59884  44.339  15.169  10.500
90070W        W59885  22.688  24.490   4.183
90071W        W59886  37.481   4.253  11.484
90072W        W59887  37.396  35.039   3.258
90073W        W59888  43.316  43.314  10.925
90074W        W59889  26.163  44.879   4.807
90075W        W59890  36.583   8.834  12.045
90076W        W59891  43.370   7.708  14.397
90077W        W59892  13.346   4.385   4.762
90078W        W59893  23.062   0.387   0.393
90079W        W59894  32.473  39.892   0.249
90080W        W59895  35.498   1.797   3.343
90081W        W59896  25.044  20.735  12.040
90082W        W59897  23.148  20.208   0.950
90083W        W59898  30.953  12.854  12.576
90084W        W59899  23.686  32.456  11.956
90085W        W59900  43.919  26.167   4.762
90086W        W59901  27.988  38.943   2.257
90087W        W59902   9.684  14.163  10.526
90088W        W59903   0.410  14.231   2.726
90089W        W59904  39.448  23.731  11.569
90090W        W59905  20.686  39.470  14.380
90091W        W59906  11.696   8.243  13.050
90092W        W59907  18.667  10.224   1.280
90093W        W59908   3.795  43.311   1.390
90094W        W59909   8.678  30.970  10.633
90095W        W59910  24.068  29.576  12.055
90096W        W59911  27.997  32.062  10.096
90097W        W59912  24.635   8.295   4.680
90098W        W59913  22.054  44.285  13.411
90099W        W59914  16.201   0.421  10.633
90100W        W59915   4.322  34.881   0.254
90101W        W59916   5.756  39.325   3.372
90102W        W59917  23.525  19.780   1.699
90103W        W59918  38.060  27.954   2.719
90104W        W59919  39.344  31.463  12.963
90105W        W59920  38.381  42.000   0.859
90106W        W59921   1.736   1.782   4.166
90107W        W59922  44.827  21.539   0.839
90108W        W59923  42.796  14.818  12.390
90109W        W59924  33.406  13.718  11.406
90110W        W59925   0.886  42.313   0.323
90111W        W59926  15.296  39.848  14.898
90112W        W59927   8.349  36.407  14.328
90113W        W59928  21.539  13.672   1.813
90114W        W59929  21.056  20.268   2.299
90115W        W59930   1.458  29.476   2.340
90116W        W59931  43.454  21.162  10.962
90117W        W59932  13.677  36.448   4.711
90118W        W59933  39.900  27.496  10.579
90119W        W59934  28.666  22.534   3.272
90120W        W59935  24.994  36.377   1.268
90121W        W59936  43.905  43.769  10.979
90122W        W59937   3.725  24.694  12.084
90123W        W59938  36.585   0.817  13.035
90124W        W59939  37.076   7.292   0.416
90125W        W59940  20.273   1.887  13.400
90126W        W59941  33.964  23.011   2.775
90127W        W59942  14.265  28.066   1.729
90128W        W59943  43.292   6.405  14.961
90129W        W59944  25.178  15.627  14.286
90130W        W59945  38.540   2.298   0.922
90131W        W59946  44.456  30.010  11.066
90132W        W59947  25.550  19.179   0.774
90133W        W59948  12.726  33.471  13.497
90134W        W59949  17.069  37.989  12.859
90135W        W59950  42.917  41.032   3.862
90136W        W59951  26.200   6.319   0.332
90137W        W59952  35.865   8.827   4.668
90138W        W59953  36.480  26.958  12.891
90139W        W59954   8.376  40.823   9.993
90140W        W59955  36.354  27.654   4.753
90141W        W59956   4.811  29.437  11.975
90142W        W59957  10.859  28.141  11.400
90143W        W59958   0.866  14.160  11.116
90144W        W59959  17.213  36.970  11.502
90145W        W59960   8.378  32.910  12.516
90146W        W59961  42.399  25.698   4.334
90147W        W59962  16.129  14.125  10.440
90148W        W59963   7.846  38.462   1.229
90149W        W59964   0.318  20.130   3.854
90150W        W59965  21.653  12.353  14.456
90151W        W59966  15.149  17.251  12.014
90152W        W59967   8.369  19.274   3.234
90153W        W59968  29.976  28.123   0.847
90154W        W59969  20.593  23.134   3.840
90155W        W59970  30.558  31.602  11.443
90156W        W59971  44.328  14.618   2.759
90157W        W59972  28.956  15.592   2.255
90158W        W59973  15.673  12.175   1.368
90159W        W59974   4.894  28.471   3.793
90160W        W59975  19.551  19.766  12.081
90161W        W59976  42.392  39.861  11.548
90162W        W59977  25.639   8.813  10.485
90163W        W59978  28.647  27.561   0.318
90164W        W59979  24.653  24.128  11.869
90165W        W59980  21.652   2.403   0.959
90166W        W59981  18.616  44.363   2.796
90167W        W59982  36.913  19.236  13.466
90168W        W59983   3.928   7.315  10.454
90169W        W59984  27.601  43.989  12.365
90170W        W59985  31.580  41.817  12.912
90171W        W59986   2.820  34.876   0.879
90172W        W59987  42.285  24.614   2.409
90173W        W59988  13.285  28.607   2.400
90174W        W59989  13.129  23.727  11.461
90175W        W59990  30.494   4.729  10.521
90176W        W59991  18.679  37.896   4.661
90177W        W59992  11.812  40.029  12.956
90178W        W59993  40.458   2.244   0.796
90179W        W59994  13.138   2.886   1.916
90180W        W59995  25.574  29.149  12.857
90181W        W59996  39.028  32.452   0.944
90182W        W59997  11.302  31.142   4.332
90183W        W59998  35.108  15.176   4.744
90184W        W59999  25.986   8.901   2.290
90185W        W60000  22.596  17.131   0.919
90186W        W60001  24.085  24.096  11.050
90187W        W60002  44.988  14.806  14.799
90188W        W60003  17.086  14.626  14.402
90189W        W60004  42.887  19.738  14.808
90190W        W60005  30.517  12.301   0.332
90191W        W60006  35.504   7.699  12.092
90192W        W60007   8.720   0.437  13.015
90193W        W60008   6.349  32.898  11.953
90194W        W60009  18.569  21.243   5.311
90195W        W60010  39.063  41.911   2.864
90196W        W60011  14.636  29.560   1.889
90197W        W60012  39.873  23.603   2.869
90198W        W60013   8.813  44.894   3.307
90199W        W60014  35.037   1.420   1.698
90200W        W60015  10.807  33.029   1.766
90201W        W60016   9.877  34.574  14.967
90202W        W60017   3.295   5.771  10.606
90203W        W60018   4.731  32.564  14.367
90204W        W60019  39.979  30.451  11.063
90205W        W60020   9.739  19.716  14.809
90206W        W60021   3.328   3.409   3.269
90207W        W60022   6.876  30.607   2.245
90208W        W60023  27.100  16.075  14.991
90209W        W60024  16.792  27.135   4.299
90210W        W60025  14.608   0.340   3.644
90211W        W60026  34.488  13.157  13.545
90212W        W60027  19.656  39.040   1.374
90213W        W60028   1.814  10.249  11.603
90214W        W60029  27.011  28.075  14.837
90215W        W60030   5.906   5.323   3.290
90216W        W60031   5.892  14.298  13.316
90217W        W60032  14.126   0.494   3.190
90218W        W60033  44.374  21.718   0.914
90219W        W60034  17.768  22.100  10.893
90220W        W60035  28.493  18.764   0.373
90221W        W60036  34.439  27.050   0.443
90222W        W60037  19.554  26.462   3.856
90223W        W60038  30.530  29.658   2.767
90224W        W60039   5.265  19.763  10.526
90225W        W60040  16.110   8.227  13.793
90226W        W60041  15.310  43.964   0.904
90227W        W60042  18.233   6.247   0.360
90228W        W60043  44.954  30.614  10.603
90229W        W60044  23.001   8.745   1.932
90230W        W60045  14.639  43.872  10.542
90231W        W60046  26.653  40.535   0.317
90232W        W60047   7.332  33.081  14.925
90233W        W60048  22.659   2.939  10.639
90234W        W60049  36.455  29.991   2.306
90235W        W60050   2.777   4.799  12.407
90236W        W60051  36.563  44.905   2.180
90237W        W60052  38.914  41.488   0.794
90238W        W60053  43.486  18.661   0.242
90239W        W60054  32.122  40.532  10.429
90240W        W60055  44.433   3.280  12.507
90241W        W60056  31.102   7.286  13.999
90242W        W60057  32.561  37.417   0.383
90243W        W60058   1.743  44.780   3.255
90244W        W60059  13.665  30.463  12.912
90245W        W60060  41.825   4.783  12.423
90246W        W60061   4.419   3.324   3.757
90247W        W60062  10.652  25.152   1.890
90248W        W60063  35.957  27.553  13.060
90249W        W60064  21.713  14.325  12.855
90250W        W60065  10.798  20.721   3.838
90251W        W60066  43.885  43.016  11.035
90252W        W60067  40.338   2.293   1.420
90253W        W60068  12.722   2.289  12.860
90254W        W60069   0.254  43.784   0.427
90255W        W60070   1.248  23.620   0.301
90256W        W60071  36.040  23.727   1.258
90257W        W60072  14.814  43.305   3.805
90258W        W60073  31.521  12.633  12.850
90259W        W60074   4.277  26.206   3.716
90260W        W60075  27.631  24.057  11.031
90261W        W60076   9.744  36.001  11.466
90262W        W60077  33.475   5.328   3.334
90263W        W60078  21.106   6.720  13.833
90264W        W60079   4.865   5.343  14.436
90265W        W60080  42.862  27.020  13.916
90266W        W60081  18.641   1.307   1.725
90267W        W60082  38.504  31.930   1.437
90268W        W60083  44.499  40.817   4.736
90269W        W60084  27.981  13.620  12.832
90270W        W60085   8.406   8.885   5.252
90271W        W60086  41.532  30.985  11.491
90272W        W60087  23.628  39.522   1.332
90273W        W60088  39.449   0.275   3.808
90274W        W60089  14.313  12.839  12.958
90275W        W60090  12.678  29.981  12.554
90276W        W60091  42.520  33.603  13.034
90277W        W60092  29.525  35.075  10.485
90278W        W60093  29.644  11.221  12.348
90279W        W60094  44.279  30.550  12.020
90280W        W60095  39.855   4.262  13.010
90281W        W60096  15.310  13.189   3.312
90282W        W60097   7.876  13.195   4.801
90283W        W60098   2.362   3.352  10.539
90284W        W60099  30.556  20.613  12.057
90285W        W60100  37.951  10.304  14.477
90286W        W60101   2.928   7.814   2.748
90287W        W60102   4.445  11.827  14.499
90288W        W60103  20.239  16.705   4.305
90289W        W60104   3.360  16.100  14.429
90290W        W60105  37.383  33.524   0.276
90291W        W60106   7.310   5.820   2.791
90292W        W60107   1.302  42.298  14.759
90293W        W60108  30.143  13.773  12.386
90294W        W60109   7.174  40.451  13.832
90295W        W60110  25.581  15.228   1.279
90296W        W60111  42.928  21.718  14.916
90297W        W60112   2.276   2.874  12.078
90298W        W60113   7.243   5.735  13.038
90299W        W60114   3.309  41.341   4.237
90300W        W60115  10.861  10.758  10.569
90301W        W60116   0.319  42.349   4.747
90302W        W60117  33.101  14.284   2.862
90303W        W60118  18.700  26.054   1.886
90304W        W60119   7.673  31.544   2.819
90305W        W60120   0.844  44.308   4.304
90306W        W60121  19.098   8.264   4.759
90307W        W60122  26.509  16.173  10.488
90308W        W60123  42.007  34.585   3.205
90309W        W60124  12.330  32.490  11.539
90310W        W60125  12.236  18.662  12.921
90311W        W60126   1.939  16.226  13.435
90312W        W60127  17.769  44.329   2.699
90313W        W60128  34.892  44.784  11.936
90314W        W60129  28.675  42.439  11.081
90315W        W60130  15.271  23.039   1.705
90316W        W60131  40.953  44.914  12.824
90317W        W60132  30.507   2.247   0.318
90318W        W60133   6.717   2.790  10.624
90319W        W60134  35.387  21.756   4.802
90320W        W60135   9.781  32.953  11.424
90321W        W60136  25.031  24.624   3.268
90322W        W60137  39.891  34.093  14.370
90323W        W60138   0.825  43.319  13.842
90324W        W60139   3.727  19.612  11.059
90325W        W60140  32.436  40.340   3.245
90326W        W60141  34.051  34.098  11.059
90327W        W60142  16.171  35.360   1.935
90328W        W60143  21.673  23.598  13.483
90329W        W60144  34.084  32.978   4.605
90330W        W60145  30.061  44.329  13.477
90331W        W60146  20.641  20.116  14.506
90332W        W60147  42.823  26.199  13.984
90333W        W60148  39.362  11.272   3.757
90334W        W60149  26.671  23.577   2.853
90335W        W60150  41.343  40.046   4.157
90336W        W60151  15.305  37.038   1.448
90337W        W60152  32.414  19.234   4.605
90338W        W60153  38.408  38.493  14.908
90339W        W60154   4.292  41.854   4.143
90340W        W60155  32.438   5.722  12.955
90341W        W60156  38.041  22.045  14.000
90342W        W60157  26.963  14.821  10.957
90343W        W60158   8.848   8.740  11.565
90344W        W60159  13.155  11.856  14.339
90345W        W60160   8.343  35.428   4.703
90346W        W60161   8.661  34.450  14.800
90347W        W60162  28.614   3.392   0.256
90348W        W60163  44.896  20.764   2.873
90349W        W60164  44.307  22.119   3.261
90350W        W60165  13.155  32.491   3.677
90351W        W60166  11.178  43.346  13.039
90352W        W60167  13.311  42.872   0.410
90353W        W60168  41.861  18.150   4.174
90354W        W60169  30.043  13.127  10.585
90355W        W60170  12.351  31.088   2.245
90356W        W60171  28.552  16.665   3.194
90357W        W60172  23.544   3.372   0.945
90358W        W60173  17.629  19.642   3.290
90359W        W60174  13.679  16.170  14.817
90360W        W60175   7.733  25.084   5.158
90361W        W60176  31.474  31.422  14.338
90362W        W60177  44.964  21.696  13.807
90363W        W60178  31.585  43.312   0.261
90364W        W60179  40.372   3.733  11.082
90365W        W60180  27.049  24.016  14.987
90366W        W60181  33.898  44.312   9.985
90367W        W60182  25.645   4.818   3.656
90368W        W60183  25.528  31.909   3.746
90369W        W60184   4.380  14.658   3.199
90370W        W60185  12.748  23.667   2.874
90371W        W60186  16.603  26.615  10.160
90372W        W60187  22.104  17.105  12.463
90373W        W60188  38.464  28.068   2.884
90374W        W60189  35.589  13.654  14.420
90375W        W60190  11.242  19.263   9.629
90376W        W60191  38.010  41.863  12.982
90377W        W60192   2.886  35.450  14.414
90378W        W60193  24.709  38.463   3.178
90379W        W60194  40.030  32.524  14.910
90380W        W60195  42.912  10.679   2.230
90381W        W60196  41.814  41.871   1.759
90382W        W60197  23.568  16.669   1.791
90383W        W60198  29.642   8.224  13.376
90384W        W60199  22.015  21.129  11.076
90385W        W60200  34.085  40.843   4.678
90386W        W60201   7.907   2.801  14.500
90387W        W60202  11.195  12.716   0.264
90388W        W60203  26.189  43.457  11.881
90389W        W60204  41.375  30.064  10.611
90390W        W60205  34.392  11.695   1.336
90391W        W60206  21.590  30.567   4.833
90392W        W60207   7.673  20.233  13.360
90393W        W60208  31.427  24.195   2.879
90394W        W60209  11.650   9.158  13.869
90395W        W60210  38.924  35.599   4.154
90396W        W60211   6.847  12.339   0.457
90397W        W60212  35.920  10.788   3.807
90398W        W60213  33.095  25.092   2.664
90399W        W60214  34.038  35.491   1.251
90400W        W60215  10.306  43.967   0.815
90401W        W60216   1.483  23.995   3.752
90402W        W60217  23.551   6.395  12.017
90403W        W60218  39.858  14.646  11.487
90404W        W60219  40.029  13.755   5.256
90405W        W60220  32.067  12.238  10.903
90406W        W60221   5.247  13.248  13.416
90407W        W60222   8.690  31.030   0.272
90408W        W60223  13.147  33.096  12.844
90409W        W60224  28.517   0.894  11.071
90410W        W60225  15.639  39.952  10.137
90411W        W60226  20.086  10.230  12.955
90412W        W60227   6.334   9.353  10.907
90413W        W60228  40.387  18.267   3.332
90414W        W60229  15.259   6.684   4.674
90415W        W60230   9.376  10.862  12.490
90416W        W60231  20.072  44.798  10.891
90417W        W60232   7.888   9.351   0.463
90418W        W60233  43.333  25.019  14.454
90419W        W60234   1.425   3.825  12.851
90420W        W60235  11.816  15.270   3.301
90421W        W60236  16.317  16.226   4.597
90422W        W60237  34.992  43.487   1.441
90423W        W60238   0.949  37.349  11.554
90424W        W60239  15.303  36.488   3.362
90425W        W60240  17.558  27.534   1.819
90426W        W60241  21.653  44.424   3.161
90427W        W60242  42.407  31.040  12.404
90428W        W60243  13.322  20.528  12.470
90429W        W60244  30.932  21.744   4.814
90430W        W60245  29.634   5.349  11.069
90431W        W60246   5.336  17.764   1.336
90432W        W60247   5.213  34.981   2.791
90433W        W60248  23.535  18.103  11.602
90434W        W60249  16.734  33.050  12.378
90435W        W60250   4.240  11.145  12.473
90436W        W60251   4.235   8.859   3.377
90437W        W60252  35.556   7.665   1.870
90438W        W60253  40.911  22.651  10.941
90439W        W60254  35.466   6.370  14.909
90440W        W60255  44.937   1.349   2.674
90441W        W60256  33.487  28.640   3.751
90442W        W60257  26.641   2.965  12.566
90443W        W60258  22.236  15.714  14.030
90444W        W60259  24.065  12.337   3.217
90445W        W60260  43.316  30.637  11.470
90446W        W60261   4.731  18.205  12.506
90447W        W60262   1.772   8.864  13.464
90448W        W60263  42.865   9.877  10.599
90449W        W60264  16.797   0.887   3.218
90450W        W60265   0.422  32.893  14.511
90451W        W60266   1.801  37.526   2.809
90452W        W60267  16.711  28.129  12.535
90453W        W60268   7.684  10.766  13.064
90454W        W60269  30.089  27.609  10.501
90455W        W60270  17.289  27.547  12.483
90456W        W60271   4.426   7.303   2.287
90457W        W60272  32.493   5.237  13.372
90458W        W60273  40.330  15.679  13.320
90459W        W60274  25.143  36.892  14.427
90460W        W60275  43.307  15.671   0.397
90461W        W60276  34.602   0.369   0.310
90462W        W60277  23.128  42.473  10.642
90463W        W60278  39.024  40.884   3.782
90464W        W60279  20.142  29.460  14.399
90465W        W60280  42.288  21.612   0.798
90466W        W60281  36.991  35.032   4.831
90467W        W60282   7.207   0.789  11.484
90468W        W60283  32.463  42.801   2.758
90469W        W60284  14.167  40.355   3.334
90470W        W60285  34.609  31.592  13.829
90471W        W60286   2.265  37.876   0.967
90472W        W60287  43.798  35.053  13.486
90473W        W60288  41.936  36.526  12.910
90474W        W60289  35.992  29.661  13.982
90475W        W60290  41.797  37.883   1.777
90476W        W60291  32.551  17.237   4.607
90477W        W60292  41.986  23.584   3.286
90478W        W60293  32.916  21.112   4.717
90479W        W60294  10.768  24.040   3.792
90480W        W60295   2.736  34.580  11.504
90481W        W60296   7.684   7.803   2.809
90482W        W60297  35.397   7.361  13.378
90483W        W60298  24.588  44.273  10.506
90484W        W60299  34.460  35.539  11.081
90485W        W60300  23.102   7.671   3.368
90486W        W60301  20.070   4.763  12.577
90487W        W60302  36.558  29.155  11.434
90488W        W60303  21.703  17.184   0.860
90489W        W60304  30.543  19.545   3.641
90490W        W60305   0.784  25.622   2.703
90491W        W60306  43.377   9.859   1.343
90492W        W60307  38.441  18.612   1.227
90493W        W60308  22.613  16.570   4.342
90494W        W60309  42.379  10.380   3.349
90495W        W60310   0.435  40.013   0.349
90496W        W60311  38.510  26.170   1.846
90497W        W60312  36.885  20.722   4.206
90498W        W60313  40.946   3.223   3.241
90499W        W60314  22.175  21.165  12.488
90500W        W60315  33.066  37.391  12.400
90501W        W60316  15.592  17.675   1.866
90502W        W60317  36.370   9.369  11.067
90503W        W60318  17.788  13.661   3.368
90504W        W60319  35.052  10.364   0.958
90505W        W60320  19.691  41.392   2.380
90506W        W60321  11.723  40.939  10.079
90507W        W60322  15.692  17.683  14.824
90508W        W60323  15.760  27.569  13.463
90509W        W60324  23.109   2.856   1.780
90510W        W60325   0.796  29.441  11.912
90511W        W60326  44.988  33.941   3.710
90512W        W60327  19.780   6.201  11.925
90513W        W60328  30.943   4.234   4.115
90514W        W60329  20.663  22.591  13.921
90515W        W60330  20.067  23.573  10.577
90516W        W60331  43.512   9.666   2.716
90517W        W60332  35.007   5.857   0.855
90518W        W60333  14.750   3.878  11.119
90519W        W60334   0.923  43.806  12.963
90520W        W60335   6.775  26.580  10.015
90521W        W60336   0.304  11.643   3.732
90522W        W60337  22.152  12.671   0.752
90523W        W60338  13.139  31.126   3.208
90524W        W60339  12.156  29.536  12.846
90525W        W60340  33.393  13.649  14.375
90526W        W60341  16.656  19.742   3.755
90527W        W60342  24.705  23.594  11.116
90528W        W60343  24.169  24.993   4.735
90529W        W60344  43.771  29.946   3.255
90530W        W60345  27.495  26.660  13.795
90531W        W60346  30.096  26.985   0.920
90532W        W60347   7.787  33.098   2.246
90533W        W60348   7.719  39.540  12.832
90534W        W60349  26.019   9.167   0.896
90535W        W60350  14.150  32.078   0.749
90536W        W60351  20.249  17.759   2.289
90537W        W60352  30.076  17.783   1.308
90538W        W60353  21.720  25.561   0.748
90539W        W60354  23.040  32.078   0.937
90540W        W60355  18.105  38.867  14.885
90541W        W60356   7.398   0.365  13.353
90542W        W60357   0.320   6.721   0.453
90543W        W60358  36.512  18.624  14.908
90544W        W60359  39.824   1.365   4.349
90545W        W60360  42.903  19.565   0.953
90546W        W60361   3.896  24.536  13.945
90547W        W60362  31.624  38.359  12.342
90548W        W60363  40.421   6.679  12.922
90549W        W60364  41.925  16.280   1.300
90550W        W60365  19.090  26.986  11.889
90551W        W60366  24.162   8.885  10.025
90552W        W60367  32.885  41.319   4.319
90553W        W60368  31.561   7.855  12.916
90554W        W60369  43.292  20.159   2.813
90555W        W60370  40.494  22.575  10.098
90556W        W60371  42.830  12.123   2.306
90557W        W60372  14.761  11.313   3.825
90558W        W60373  12.185  42.350   1.763
90559W        W60374  32.606  36.558   2.737
90560W        W60375  32.087   8.823   4.222
90561W        W60376  16.227  39.509  13.443
90562W        W60377  19.733  21.110   1.284
90563W        W60378  11.200  35.410   2.749
90564W        W60379  24.637  13.822   1.317
90565W        W60380  22.735   2.314   4.161
90566W        W60381   1.738   9.273   2.735
90567W        W60382   9.194   4.400   4.208
90568W        W60383  13.282  35.002  10.407
90569W        W60384  27.960  11.786   3.298
90570W        W60385  38.821  14.219  11.017
90571W        W60386  39.937  43.894  13.989
90572W        W60387   9.266  12.720  11.128
90573W        W60388  11.862  19.545   0.760
90574W        W60389  16.625  17.274   1.935
90575W        W60390  44.936  27.990  11.092
90576W        W60391  39.924   1.807   0.305
90577W        W60392  16.687   1.318   2.335
90578W        W60393  30.475  11.813   0.253
90579W        W60394  25.125  28.047  11.584
90580W        W60395   0.374   0.266   4.210
90581W        W60396  17.222   0.918  13.880
90582W        W60397  29.089  28.517  12.848
90583W        W60398   8.847  42.015  14.896
90584W        W60399  25.006   1.801  12.003
90585W        W60400   6.249  28.504   0.815
90586W        W60401  41.805  18.663   0.727
90587W        W60402  17.751  34.093   0.796
90588W        W60403  32.484  30.149   1.792
90589W        W60404  36.562  35.389  14.376
90590W        W60405   3.276  22.606   4.652
90591W        W60406  13.630   9.371  12.018
90592W        W60407  25.988  40.969   0.277
90593W        W60408  24.991  42.294   0.276
90594W        W60409  23.722   6.858   2.309
90595W        W60410  22.249  23.616  11.044
90596W        W60411  41.368  21.205  12.842
90597W        W60412   8.300  11.287   2.292
90598W        W60413  35.885  21.618  11.071
90599W        W60414  22.101  44.889   0.832
90600W        W60415   1.450  44.936  13.817
90601W        W60416  21.752  18.665  14.318
90602W        W60417   7.893  19.046   2.780
90603W        W60418  25.998  15.733  10.425
90604W        W60419  12.855  34.609   2.246
90605W        W60420   3.877  31.486   0.446
90606W        W60421   8.755  37.474  14.781
90607W        W60422  26.962  44.352   4.811
90608W        W60423  22.140  22.076   3.797
90609W        W60424  36.020  24.632   0.406
90610W        W60425  29.457  37.528   2.827
90611W        W60426   0.376   1.471  12.004
90612W        W60427  26.537  33.534   1.357
90613W        W60428  14.644  38.988  14.818
90614W        W60429  32.117  17.176  13.830
90615W        W60430   4.336  37.923   2.864
90616W        W60431  16.568  11.733   0.898
90617W        W60432  26.607  33.588  11.493
90618W        W60433   2.862  43.451  10.535
90619W        W60434  23.109  24.158  13.010
90620W        W60435  33.975  41.370   0.930
90621W        W60436  33.108  13.161   0.452
90622W        W60437   0.964  21.570   0.390
90623W        W60438  37.922  31.006   4.211
90624W        W60439   9.258   8.252   3.825
90625W        W60440  18.642   8.792  14.800
90626W        W60441  44.798  27.558  10.595
90627W        W60442  37.012  31.073   2.331
90628W        W60443   7.881   5.733  14.481
90629W        W60444   7.751  11.283   3.844
90630W        W60445  11.725  40.849   1.869
90631W        W60446  35.383  35.102  13.436
90632W        W60447  27.131  41.920  11.129
90633W        W60448  40.799  11.772  11.043
90634W        W60449   0.905  11.191   2.273
90635W        W60450   7.830  36.931   0.366
90636W        W60451  16.247  36.427  10.534
90637W        W60452  37.497  18.199   4.674
90638W        W60453   0.910  23.216  14.958
90639W        W60454  37.083   6.840  13.948
90640W        W60455  42.368  43.366  10.406
90641W        W60456  31.558  40.921  10.559
90642W        W60457  29.632  25.687   2.895
90643W        W60458  33.037  11.788   0.243
90644W        W60459  13.202  22.652   2.265
90645W        W60460   5.194  25.082  12.367
90646W        W60461   6.196  15.669  10.964
90647W        W60462  40.368  30.623  10.109
90648W        W60463  37.987  24.724   4.724
90649W        W60464   9.358  30.109   2.887
90650W        W60465  21.047   9.838  13.538
90651W        W60466  44.497   2.225   4.714
90652W        W60467   9.204  32.138   0.766
90653W        W60468  19.073  41.035   4.328
90654W        W60469  27.051  42.365   4.662
90655W        W60470   3.256  12.266  14.020
90656W        W60471  44.848  43.009   2.199
90657W        W60472  24.689   7.340  10.972
90658W        W60473  12.733  31.586  11.590
90659W        W60474  10.190   0.482   0.780
90660W        W60475  24.221  10.365   0.369
90661W        W60476  17.671  28.095   3.867
90662W        W60477  32.936  31.943   3.734
90663W        W60478  19.126  40.350  12.833
90664W        W60479  22.204   9.769  14.281
90665W        W60480  14.719  25.127  13.949
90666W        W60481  11.697   0.962  11.515
90667W        W60482  10.755  34.008  11.872
90668W        W60483  14.810  25.196  11.372
90669W        W60484   0.445  27.153   1.221
90670W        W60485  40.998  41.360  14.816
90671W        W60486  37.390  14.712   2.241
90672W        W60487  37.563   3.802   4.149
90673W        W60488  35.582  10.872  10.488
90674W        W60489  22.208  38.374   2.853
90675W        W60490   6.280  17.274  10.908
90676W        W60491  43.968  31.098  10.407
90677W        W60492  40.850  12.801  11.481
90678W        W60493  13.262   3.446  14.293
90679W        W60494  15.163  24.219  13.484
90680W        W60495  29.617  10.323   5.231
90681W        W60496  24.196   6.745  12.068
90682W        W60497   3.303   0.326  12.036
90683W        W60498   5.895  42.434   3.371
90684W        W60499   6.345  29.046   1.441
90685W        W60500  31.412  40.408   3.265
90686W        W60501  16.722   3.928   2.832
90687W        W60502  43.407   5.284   4.145
90688W        W60503  32.402   0.812   3.782
90689W        W60504  22.591  15.589  10.988
90690W        W60505  40.017  10.234   2.750
90691W        W60506  26.094  19.051  12.857
90692W        W60507  25.471  31.465  13.886
90693W        W60508  17.135   9.799   3.227
90694W        W60509   1.318   2.318   1.376
90695W        W60510   6.402   3.317  14.419
90696W        W60511  14.737  42.451   4.664
90697W        W60512  39.938  26.112  13.909
90698W        W60513  20.214  26.976  13.938
90699W        W60514  12.788  33.471  14.951
90700W        W60515  20.252  32.471   3.863
90701W        W60516   3.831  32.925  11.471
90702W        W60517   4.217  31.609  11.589
90703W        W60518  25.092  18.647   2.674
90704W        W60519   7.788   5.305   0.898
90705W        W60520  20.763   1.879  13.458
90706W        W60521  13.599  30.977  13.418
90707W        W60522  14.146  34.928   3.315
90708W        W60523   0.466  34.053   2.342
90709W        W60524   8.789  32.399   3.867
90710W        W60525  29.125  15.092   3.235
90711W        W60526  37.339  22.029   9.929
90712W        W60527  40.875   7.880   0.948
90713W        W60528   9.323  44.457  14.968
90714W        W60529  28.171  10.691  14.979
90715W        W60530  30.135  21.681  13.430
90716W        W60531  26.005   5.398  14.772
90717W        W60532  43.855   5.790  12.501
90718W        W60533   0.949  34.088   4.634
90719W        W60534   5.244  36.435   4.618
90720W        W60535  24.563  23.593  12.056
90721W        W60536  21.603   8.254  14.335
90722W        W60537  28.101   6.367   1.756
90723W        W60538  44.500  36.850   3.166
90724W        W60539  34.415  19.108   3.214
90725W        W60540  19.268  42.928   3.369
90726W        W60541  43.273  17.156  11.922
90727W        W60542  21.637  38.006  13.844
90728W        W60543  15.749  42.380   0.965
90729W        W60544   7.349  42.004   4.155
90730W        W60545  29.517  40.965   4.822
90731W        W60546  21.550  11.357   0.893
90732W        W60547  33.994  15.805   2.218
90733W        W60548   1.880   8.703   4.287
90734W        W60549  14.125   8.663   2.719
90735W        W60550   4.896  33.905  11.065
90736W        W60551  24.157  35.987  10.571
90737W        W60552  28.624  38.843   1.349
90738W        W60553  41.336  10.174  12.454
90739W        W60554  18.696   8.694  10.125
90740W        W60555   7.798  43.438  12.521
90741W        W60556  13.634  32.399   2.321
90742W        W60557  16.291  28.125   2.266
90743W        W60558  35.896  23.635   4.115
90744W        W60559  31.128   0.781  10.899
90745W        W60560  26.040  23.593   2.355
90746W        W60561   8.176  15.803  13.497
90747W        W60562  33.034  26.527  12.837
90748W        W60563  41.431  14.311  14.887
90749W        W60564  35.925  20.244   0.425
90750W        W60565  38.334   8.202  12.876
90751W        W60566   2.854  41.812  13.886
90752W        W60567  17.665  16.298   4.658
90753W        W60568  17.772  20.588  11.391
90754W        W60569  26.169  41.892  13.421
90755W        W60570  37.925  36.552   4.245
90756W        W60571  43.289  35.477   0.793
90757W        W60572  29.001   9.297   0.347
90758W        W60573   7.700   8.283  12.437
90759W        W60574  11.171  26.511  12.446
90760W        W60575  44.907  27.678   2.799
90761W        W60576  11.246  18.734   4.837
90762W        W60577  32.081  20.561  13.929
90763W        W60578  14.247   6.208  14.497
90764W        W60579  36.359  36.041   3.165
90765W        W60580  13.229  21.586   3.735
90766W        W60581  33.110   0.419   4.663
90767W        W60582  20.195  30.605  13.966
90768W        W60583  10.878  17.189  13.311
90769W        W60584  23.997  44.363  12.032
90770W        W60585  14.678   1.872   0.400
90771W        W60586  29.015   5.369  13.046
90772W        W60587   0.369  20.117   2.776
90773W        W60588  22.730  30.549   2.772
90774W        W60589  11.274  16.201  11.034
90775W        W60590   1.811  41.028   4.655
90776W        W60591  19.095  11.175   4.789
90777W        W60592  33.536  23.993   1.399
90778W        W60593  10.717  16.687   1.924
90779W        W60594  38.926  28.097  14.817
90780W        W60595  18.689  15.661  13.888
90781W        W60596  37.074  32.908   3.760
90782W        W60597  29.925   4.368  14.345
90783W        W60598  27.976   6.723   3.813
90784W        W60599   2.806  23.616   1.696
90785W        W60600  40.865  33.090  11.611
90786W        W60601  30.470  30.557   2.836
90787W        W60602  41.454  14.232   4.719
90788W        W60603  11.743  11.774   1.313
90789W        W60604  38.851  44.772  12.823
90790W        W60605  36.883   5.757   2.258
90791W        W60606  17.085  44.906  10.513
90792W        W60607  32.922  16.297   4.238
90793W        W60608   3.952   8.743  10.582
90794W        W60609   4.742   9.885  13.926
90795W        W60610  32.911  40.951   1.327
90796W        W60611  13.189  29.496  14.307
90797W        W60612  42.441  26.189  14.856
90798W        W60613  16.585   4.231   1.397
90799W        W60614  12.179  18.778   4.311
90800W        W60615  35.036   1.750   0.844
90801W        W60616  37.520  21.667  10.895
90802W        W60617  11.664  39.490  13.417
90803W        W60618  28.616  20.561  10.899
90804W        W60619   7.805  11.681  13.006
90805W        W60620  30.476   3.418   4.296
90806W        W60621  30.598   4.396   2.388
90807W        W60622   4.384  32.450  11.091
90808W        W60623   4.836  21.105  10.094
90809W        W60624  42.988  22.163   3.322
90810W        W60625  33.475  16.793   2.668
90811W        W60626  41.424  28.467   1.837
90812W        W60627  17.612  16.765  13.043
90813W        W60628  38.547  27.533   4.345
90814W        W60629  21.137  39.372  11.545
90815W        W60630  41.318  40.045   0.937
90816W        W60631  43.286  41.986   4.295
90817W        W60632   3.261   0.891   3.676
90818W        W60633  25.201  26.041  11.403
90819W        W60634  28.113  42.817   3.745
90820W        W60635  30.608  36.503   1.356
90821W        W60636  40.488  21.511   2.301
90822W        W60637  41.433  43.458   1.315
90823W        W60638  27.144  15.594  11.966
90824W        W60639  22.194  41.370   4.140
90825W        W60640  32.568  28.458  12.940
90826W        W60641  44.373  24.105   0.963
90827W        W60642  31.153  31.444   1.928
90828W        W60643  41.820  27.567  14.398
90829W        W60644   9.341  32.999  14.793
90830W        W60645  30.499  32.998   2.212
90831W        W60646   9.670  15.592  12.489
90832W        W60647   6.780  25.990   2.724
90833W        W60648  40.453  41.490  11.979
90834W        W60649  16.732  24.535   3.275
90835W        W60650  36.950  26.961   1.299
90836W        W60651  21.043  26.568   4.285
90837W        W60652   3.867  36.980  12.878
90838W        W60653  22.552  14.194   5.293
90839W        W60654  30.527  34.003   4.751
90840W        W60655  32.486  32.485  13.461
90841W        W60656  22.564  41.967  12.088
90842W        W60657  18.686  37.911   3.230
90843W        W60658  10.862  33.564   4.712
90844W        W60659  14.730  21.668  10.444
90845W        W60660   7.690   8.693   3.386
90846W        W60661  38.072   6.837  14.847
90847W        W60662  35.966  44.765   3.830
90848W        W60663   0.875  21.119  10.597
90849W        W60664  35.892   6.280  14.364
90850W        W60665  10.829  12.121  14.348
90851W        W60666  19.750  15.165  14.411
90852W        W60667  36.050  37.881  11.515
90853W        W60668   1.931  27.664  12.529
90854W        W60669   2.371  10.182  10.945
90855W        W60670  34.415  39.808  13.429
90856W        W60671  10.183  21.596  11.537
90857W        W60672  12.198  20.667   4.668
90858W        W60673  22.594  42.027  13.970
90859W        W60674  11.203  23.167   1.724
90860W        W60675  33.986  24.660  12.955
90861W        W60676  28.674  39.318   3.186
90862W        W60677   6.423   9.279  10.133
90863W        W60678  35.977  29.636   0.774
90864W        W60679  26.630  39.873  12.913
90865W        W60680  27.644  33.994   3.700
90866W        W60681  41.026  26.674  10.542
90867W        W60682  15.728  37.082  10.990
90868W        W60683   2.254  24.976  13.021
90869W        W60684  17.153  32.080   3.862
90870W        W60685  44.891  42.915  12.920
90871W        W60686  26.648  32.954  14.971
90872W        W60687  33.416  21.649   0.384
90873W        W60688   1.401  23.557   4.181
90874W        W60689  42.327  29.165  14.300
90875W        W60690  21.654  18.258  11.955
90876W        W60691   1.432  32.938  11.097
90877W        W60692   6.282  28.155  10.919
90878W        W60693  41.402  33.918  11.493
90879W        W60694  36.377  37.831  12.025
90880W        W60695  37.903  33.561  12.521
90881W        W60696  37.568  29.622   4.785
90882W        W60697  29.670  19.055  12.086
90883W        W60698  30.443  26.197   0.944
90884W        W60699  40.897   8.828  14.320
90885W        W60700  20.270  15.297   2.670
90886W        W60701  18.606   1.853  13.852
90887W        W60702  35.853  10.823  11.516
90888W        W60703  10.693   4.889   0.818
90889W        W60704  22.539  16.161  13.376
90890W        W60705  23.619  31.507   4.280
90891W        W60706  28.092  34.475   2.831
90892W        W60707   7.229  28.000   3.310
90893W        W60708   0.748   3.459   0.257
90894W        W60709   4.366   2.317   3.755
90895W        W60710  22.567  19.132  11.124
90896W        W60711  41.855  26.471  12.913
90897W        W60712   1.738   0.840   0.281
90898W        W60713  25.988  34.404  14.963
90899W        W60714  42.345   4.445   2.829
90900W        W60715  17.569  36.058  14.458
90901W        W60716   9.749   1.849   4.259
90902W        W60717  26.202  31.517   2.280
90903W        W60718  35.087  39.541  11.504
90904W        W60719   8.342  42.977   3.288
90905W        W60720  42.974  12.848   2.764
90906W        W60721  32.896   0.936  11.541
90907W        W60722  44.978  25.528  13.969
90908W        W60723  30.461  17.657  12.522
90909W        W60724   9.689  22.111   4.187
90910W        W60725  18.235  36.521   0.462
90911W        W60726  10.187  43.977  13.308
90912W        W60727  17.076  19.058  12.994
90913W        W60728  21.675   7.217  10.510
90914W        W60729  33.110  34.447  13.478
90915W        W60730  23.995  26.027   4.278
90916W        W60731  11.702  11.755   3.754
90917W        W60732  37.923  21.244   3.825
90918W        W60733  12.184  32.071   4.242
90919W        W60734  25.600  38.352   3.702
90920W        W60735  21.567   0.880  11.535
90921W        W60736  19.061   5.389  11.047
90922W        W60737  23.070   3.783  14.439
90923W        W60738  20.060  38.523  12.569
90924W        W60739   2.842  20.051   2.884
90925W        W60740  42.404  15.637   4.645
90926W        W60741  21.058  26.067  12.866
90927W        W60742  20.572  17.723   1.379
90928W        W60743  33.545   3.364  10.933
90929W        W60744  44.458  44.454   5.168
90930W        W60745  32.508  29.443  12.580
90931W        W60746   5.248  20.629  10.985
90932W        W60747  22.183  44.319  12.007
90933W        W60748  43.851  20.178   4.706
90934W        W60749   6.359  17.187   2.309
90935W        W60750   2.826  44.764   4.338
90936W        W60751  30.142   0.418   2.275
90937W        W60752   2.759  41.878  12.080
90938W        W60753  11.137   0.831   2.720
90939W        W60754  32.557  25.675   4.820
90940W        W60755  43.329   1.805  10.484
90941W        W60756  27.625  12.305   4.305
90942W        W60757   9.230  11.764   0.817
90943W        W60758  11.621  41.396  12.995
90944W        W60759  13.119  44.370   2.675
90945W        W60760  36.918  17.264  12.395
90946W        W60761  21.031  20.248  11.040
90947W        W60762  29.176  37.932  14.457
90948W        W60763  20.585  18.729   0.730
90949W        W60764  16.281  23.169  11.092
90950W        W60765  20.063  27.689   0.789
90951W        W60766   7.673  29.094  10.903
90952W        W60767  32.905  16.672  12.046
90953W        W60768  12.176  15.647   4.280
90954W        W60769   6.428  24.678   4.708
90955W        W60770  27.562  31.142   4.187
90956W        W60771  40.481   0.769  12.041
90957W        W60772  27.980  14.095   4.279
90958W        W60773  37.871  11.652  11.405
90959W        W60774  13.679   0.775  11.930
90960W        W60775  21.583  34.001   0.306
90961W        W60776  21.022  25.552   2.830
90962W        W60777  13.757   8.839  11.416
90963W        W60778  32.520  39.536  13.023
90964W        W60779  31.993  40.513   0.892
90965W        W60780  32.910  22.503   1.766
90966W        W60781  24.493  21.572  10.945
90967W        W60782   7.243  33.919   3.318
90968W        W60783  40.980   9.277  10.515
90969W        W60784  10.704  15.676  12.030
90970W        W60785  33.889  26.957  14.417
90971W        W60786  15.787   2.370  12.457
90972W        W60787  31.078  16.291  13.421
90973W        W60788  32.944  28.541   3.288
90974W        W60789  20.267  40.938  10.966
90975W        W60790  43.799  25.541   3.697
90976W        W60791   4.232  27.053  13.836
90977W        W60792  23.705  11.838   4.183
90978W        W60793  30.535  34.419   1.924
90979W        W60794   7.243  39.950  10.644
90980W        W60795  42.474  23.605   3.200
90981W        W60796  24.710  40.903  12.090
90982W        W60797  44.312  44.364  14.510
90983W        W60798  43.932  21.686   3.167
90984W        W60799   9.728  44.374  12.409
90985W        W60800  27.625  18.789   2.723
90986W        W60801  43.279  17.721  10.528
90987W        W60802  26.157   0.287  11.900
90988W        W60803  29.453  42.427   4.176
90989W        W60804  17.107   4.710   2.408
90990W        W60805  12.675  16.300   1.699
90991W        W60806  29.530  41.871  11.906
90992W        W60807   2.422  18.676   4.117
90993W        W60808  38.517  34.987   2.710
90994W        W60809   7.849   2.270  14.001
90995W        W60810  20.679  10.199   3.740
90996W        W60811  33.559   2.813   0.798
90997W        W60812  12.304   6.816  11.462
90998W        W60813  23.519   1.740   1.277
90999W        W60814  37.059  14.300  14.884
91000W        W60815  25.551  42.442  12.423
91001W        W60816  30.472  15.291   3.333
91002W        W60817  10.372  31.985  13.941
91003W        W60818  22.729  11.145   2.182
91004W        W60819  44.880   4.364  14.486
91005W        W60820  11.336  17.617   1.264
91006W        W60821  13.180   1.339  14.014
91007W        W60822  37.465  31.601  12.955
91008W        W60823  39.883  39.939   0.796
91009W        W60824   5.710  10.250  12.418
91010W        W60825  23.093  43.509   2.227
91011W        W60826  15.247  26.032  10.955
91012W        W60827  38.514  31.067  10.969
91013W        W60828  26.579  30.057  14.891
91014W        W60829  21.020  26.132  10.426
91015W        W60830  12.725   8.270  11.989
91016W        W60831  34.410  12.725  11.026
91017W        W60832  27.507   9.298  11.492
91018W        W60833   0.848  35.593   3.376
91019W        W60834  41.505  35.932  14.969
91020W        W60835   6.922  30.928  13.816
91021W        W60836  35.953  34.889   1.858
91022W        W60837  44.260  22.252  13.535
91023W        W60838  19.226  33.500  13.320
91024W        W60839  13.263   7.686   3.343
91025W        W60840  12.129  38.497   2.204
91026W        W60841   2.722  20.573  12.955
91027W        W60842  14.782   2.466   2.370
91028W        W60843  44.930   3.325  12.958
91029W        W60844  17.708  24.563  11.549
91030W        W60845   2.947  12.718   0.452
91031W        W60846  11.749  30.647   3.378
91032W        W60847  36.904   2.241   3.224
91033W        W60848  17.225   5.723  13.867
91034W        W60849  35.375  36.553   1.393
91035W        W60850   5.899  18.689  14.965
91036W        W60851  35.450  15.704  14.012
91037W        W60852   3.751  29.146   3.869
91038W        W60853   2.730   5.741   3.334
91039W        W60854  41.834  16.088  14.780
91040W        W60855  29.484  41.899  14.515
91041W        W60856  42.992  34.388   2.697
91042W        W60857  19.702  14.317   2.781
91043W        W60858  33.618   7.697   2.184
91044W        W60859  41.917   6.894  11.861
91045W        W60860   2.450  19.549   9.936
91046W        W60861  31.542   5.820  12.367
91047W        W60862  44.932  27.664  13.802
91048W        W60863   6.831  31.423   3.722
91049W        W60864   0.819  29.569   3.654
91050W        W60865  11.132  39.881   2.182
91051W        W60866   3.265  31.088  12.968
91052W        W60867  27.112  21.649   2.696
91053W        W60868  36.956  39.907  13.846
91054W        W60869  29.436  27.079  14.391
91055W        W60870  10.755  34.088   1.332
91056W        W60871  27.609  29.038  11.393
91057W        W60872  41.830  26.087   0.768
91058W        W60873  37.502  15.819   2.234
91059W        W60874  15.122   8.362  14.288
91060W        W60875  14.115  37.026  11.999
91061W        W60876  42.791   4.788   5.318
91062W        W60877  44.297  35.856   3.246
91063W        W60878  31.551  39.044   4.748
91064W        W60879  31.075  18.554  14.336
91065W        W60880   1.408  21.643  10.986
91066W        W60881  36.056  38.982  12.058
91067W        W60882  32.490  21.082  13.455
91068W        W60883   3.753  10.285  12.088
91069W        W60884  17.598  28.027  10.605
91070W        W60885  38.046  33.386  11.100
91071W        W60886  16.176  41.294   4.155
91072W        W60887  10.840  15.324  11.018
91073W        W60888  32.918   2.397  12.553
91074W        W60889  16.141   1.975  11.469
91075W        W60890   3.248  44.971  14.858
91076W        W60891  16.268  44.895  11.056
91077W        W60892   0.458  39.820  14.490
91078W        W60893  16.265  16.091  10.617
91079W        W60894   7.202  25.470  13.379
91080W        W60895   0.843  27.072  10.959
91081W        W60896  13.701  26.664  13.054
91082W        W60897   5.728  40.992   2.180
91083W        W60898  42.969   4.239   4.177
91084W        W60899  39.061  38.067   0.426
91085W        W60900  31.016  27.970   5.232
91086W        W60901  30.931  27.109  13.947
91087W        W60902  17.166   8.241  13.946
91088W        W60903  37.361  33.067   9.924
91089W        W60904  10.151  20.685   4.823
91090W        W60905  29.590  19.755  14.281
91091W        W60906  41.394   3.232  12.095
91092W        W60907  35.475  25.508  10.943
91093W        W60908  35.496  29.656   3.156
91094W        W60909  31.048   4.936   2.352
91095W        W60910  40.032  22.620   2.188
91096W        W60911  14.122  32.456  11.995
91097W        W60912  13.223  23.663  13.044
91098W        W60913  12.252   5.734  10.476
91099W        W60914  30.579  10.663  13.481
91100W        W60915  43.945  27.193   3.693
91101W        W60916  18.672  24.068   3.791
91102W        W60917   0.446  20.593  11.872
91103W        W60918  14.707  19.160   0.467
91104W        W60919  34.042   8.758  13.407
91105W        W60920  38.351   1.462  11.377
91106W        W60921  37.512  40.804  14.857
91107W        W60922  42.408  17.082  11.395
91108W        W60923  41.907  26.545  10.055
91109W        W60924  19.743   9.759  14.312
91110W        W60925   9.363  24.696  13.540
91111W        W60926  13.844  34.935   3.176
91112W        W60927   5.244  29.613   3.869
91113W        W60928  15.221  32.431  11.031
91114W        W60929  37.966  41.003   0.346
91115W        W60930  44.897  29.977  11.125
91116W        W60931  17.107  10.839  14.493
91117W        W60932   0.892   4.251  11.399
91118W        W60933   7.333  31.409  13.862
91119W        W60934  15.156   0.434   1.406
91120W        W60935  34.443  24.104   0.407
91121W        W60936  33.614  26.045   2.789
91122W        W60937  41.986  21.221   2.747
91123W        W60938   7.706  10.724  11.534
91124W        W60939  29.937  13.819   1.388
91125W        W60940  35.918  14.756   0.356
91126W        W60941  34.450  39.854  13.883
91127W        W60942   2.957  31.501  10.610
91128W        W60943  43.281   4.836  11.092
91129W        W60944  36.855  31.599   3.288
91130W        W60945  24.100  31.459   0.932
91131W        W60946   7.716   8.744   3.764
91132W        W60947  14.599  37.563  14.407
91133W        W60948  28.651  40.936  11.571
91134W        W60949  10.709   6.260  10.002
91135W        W60950  27.532  28.087   2.752
91136W        W60951  19.751   9.812  13.992
91137W        W60952   6.732  41.856   4.746
91138W        W60953  19.739  23.159  14.820
91139W        W60954  14.781   0.848  11.124
91140W        W60955  11.838  21.109  13.312
91141W        W60956  14.758  27.064  13.048
91142W        W60957  11.847  17.116   0.479
91143W        W60958   9.796   7.409  13.337
91144W        W60959  35.358  22.204   4.665
91145W        W60960  14.137   6.922   0.910
91146W        W60961   2.751  19.108   0.958
91147W        W60962  19.583   9.789   2.708
91148W        W60963   2.949  19.777  10.436
91149W        W60964   3.220  38.067  14.792
91150W        W60965  30.641  39.402   0.778
91151W        W60966  27.180  12.684   3.759
91152W        W60967  31.569  31.130  10.564
91153W        W60968  35.070  23.193   0.902
91154W        W60969  39.837  44.850   1.928
91155W        W60970  44.927  37.501   4.150
91156W        W60971  30.441  22.739  14.826
91157W        W60972  14.248   9.195  14.937
91158W        W60973   7.687  33.005   2.686
91159W        W60974  43.788  38.513   3.273
91160W        W60975  30.127  15.739  13.905
91161W        W60976  24.132  12.282  11.028
91162W        W60977  13.191   7.678   2.217
91163W        W60978  39.463  28.553   4.153
91164W        W60979  31.410   0.356   3.640
91165W        W60980  41.374  31.507   1.847
91166W        W60981  22.203  27.511   2.766
91167W        W60982  29.139   9.234  14.499
91168W        W60983  38.485   4.747  13.462
91169W        W60984  36.469  39.045   5.297
91170W        W60985  20.539  24.535   1.323
91171W        W60986  37.022   3.825  12.348
91172W        W60987  25.159  24.131   2.829
91173W        W60988  26.070  10.831  13.031
91174W        W60989  17.296   4.204  12.432
91175W        W60990   1.461  12.278   4.252
91176W        W60991  42.868  19.249  10.520
91177W        W60992  19.221  18.196   3.255
91178W        W60993  21.747  29.530   4.143
91179W        W60994   2.739   5.433  14.275
91180W        W60995   8.738  13.633  10.553
91181W        W60996  34.416  31.032  14.895
91182W        W60997   7.257  39.402  10.922
91183W        W60998  23.167  41.875   4.694
91184W        W60999  34.051   5.199   1.915
91185W        W61000  27.503  13.150  10.933
91186W        W61001  29.060  33.485  12.527
91187W        W61002   3.898  38.892  12.452
91188W        W61003  41.437   9.770  14.301
91189W        W61004  16.666  16.599   0.435
91190W        W61005  22.655  35.534  14.777
91191W        W61006  13.787  39.013  10.906
91192W        W61007   0.773  39.030  11.521
91193W        W61008  39.821  15.696  11.390
91194W        W61009  35.491  29.499  11.866
91195W        W61010  36.035  35.996   4.795
91196W        W61011  26.584  40.438   5.199
91197W        W61012  35.932  31.435   2.362
91198W        W61013  22.083  35.993  11.375
91199W        W61014   5.264  21.211  13.936
91200W        W61015  26.021  22.098  11.058
91201W        W61016  20.267  10.660  11.477
91202W        W61017   4.844  24.064  10.639
91203W        W61018  15.648  35.868  12.514
91204W        W61019  35.959  12.776  13.950
91205W        W61020  37.582   2.728   2.754
91206W        W61021  40.375  32.402  12.862
91207W        W61022  35.966  15.751   5.272
91208W        W61023  32.425  32.052   4.626
91209W        W61024   2.422  26.584   1.315
91210W        W61025  13.828   9.848   0.770
91211W        W61026   6.309  20.183  11.950
91212W        W61027   6.695  44.483   3.850
91213W        W61028  11.634  22.171   4.203
91214W        W61029  25.698  38.325  13.357
91215W        W61030  40.821  39.351   3.652
91216W        W61031  40.316  20.571  11.991
91217W        W61032  44.331  21.680  13.802
91218W        W61033  33.118  28.681   0.251
91219W        W61034  42.445  20.628  10.555
91220W        W61035  44.363  31.930  10.149
91221W        W61036  28.576  19.225   3.656
91222W        W61037  33.054  16.680   3.843
91223W        W61038  24.184  22.076  13.902
91224W        W61039  12.669  37.404   2.414
91225W        W61040   0.441  28.078  13.402
91226W        W61041  43.290  20.231  11.910
91227W        W61042  17.744  22.070  10.430
91228W        W61043  42.393  15.656  13.965
91229W        W61044  11.353  36.553  10.489
91230W        W61045  23.136  19.170  14.834
91231W        W61046  26.029   1.790   3.832
91232W        W61047  13.693  24.549   3.859
91233W        W61048   3.898  15.329   1.761
91234W        W61049  38.480  40.378   2.738
91235W        W61050  24.141   1.852  13.310
91236W        W61051   1.451  15.604  13.467
91237W        W61052  20.626  10.199  14.362
91238W        W61053  28.144  40.413   0.419
91239W        W61054  31.043  40.366  13.860
91240W        W61055  39.541  17.305   0.284
91241W        W61056  20.546  19.599   4.694
91242W        W61057  31.925   0.385  10.561
91243W        W61058  31.096  43.504  14.920
91244W        W61059  36.576  38.975  12.046
91245W        W61060  24.223  43.949  14.447
91246W        W61061  37.538  41.864   5.085
91247W        W61062  27.044  10.301   3.675
91248W        W61063  22.156   3.834  14.930
91249W        W61064   4.857  28.113   0.822
91250W        W61065  19.688  28.577  13.945
91251W        W61066   7.245  40.976   1.928
91252W        W61067  24.719  37.039  12.498
91253W        W61068  35.896  33.003   3.215
91254W        W61069  32.124  11.355   2.734
91255W        W61070  44.887  44.464  12.455
91256W        W61071   0.446  19.645   1.817
91257W        W61072  37.857  30.484  10.417
91258W        W61073  29.050  29.040   1.864
91259W        W61074  24.682  23.089   2.802
91260W        W61075  20.663  17.150  11.095
91261W        W61076  33.445  41.860   1.395
91262W        W61077  42.293  29.162   3.352
91263W        W61078  16.682   5.775  11.412
91264W        W61079  26.634   8.199  12.058
91265W        W61080  30.042  39.821  13.341
91266W        W61081  31.632  15.770  12.898
91267W        W61082  14.201  43.408  12.942
91268W        W61083   1.448  36.846   0.258
91269W        W61084   9.648  25.051   2.353
91270W        W61085  16.647  15.279  14.871
91271W        W61086  14.591   6.822  10.957
91272W        W61087  42.478  13.202  12.489
91273W        W61088  32.971  23.707   0.309
91274W        W61089  35.015  43.962   2.682
91275W        W61090  19.103   9.213   1.716
91276W        W61091  44.808  13.795  11.523
91277W        W61092  32.046  43.811   1.287
91278W        W61093  18.261  32.956  13.002
91279W        W61094  44.492  18.155   1.238
91280W        W61095   0.899  14.158  13.952
91281W        W61096  20.622  23.622   1.289
91282W        W61097  30.533  39.868  13.915
91283W        W61098  10.226  44.902  10.438
91284W        W61099  21.682  27.193   2.873
91285W        W61100  32.076  27.618   0.844
91286W        W61101  13.213   0.277  10.069
91287W        W61102  12.197   0.961  12.343
91288W        W61103  10.755  28.992   3.278
91289W        W61104   7.816  35.072  11.073
91290W        W61105  12.151  29.024   1.366
91291W        W61106  35.907  10.170  11.099
91292W        W61107  17.285  20.557   3.793
91293W        W61108  34.921  22.644   3.778
91294W        W61109  44.948  20.640  13.990
91295W        W61110  36.000  21.194   1.906
91296W        W61111   3.921  23.682  13.902
91297W        W61112  30.417   5.367  14.931
91298W        W61113  12.251  35.391   2.336
91299W        W61114  20.529   5.879   4.745
91300W        W61115   7.766   1.928  14.779
91301W        W61116  20.052  19.538  12.937
91302W        W61117  26.196  26.009  12.393
91303W        W61118   2.459  44.356   1.330
91304W        W61119   1.387   0.389   3.714
91305W        W61120   9.237  34.970  11.467
91306W        W61121   8.344  30.094   0.310
91307W        W61122  31.950  30.136   4.720
91308W        W61123   9.210  39.379   1.361
91309W        W61124  39.830  42.919  13.476
91310W        W61125  39.319  36.091  14.356
91311W        W61126  36.565  24.020  13.384
91312W        W61127  34.556   3.847  14.904
91313W        W61128   9.750  38.524   3.273
91314W        W61129  27.618  26.195   3.348
91315W        W61130  17.174  16.142  14.942
91316W        W61131   3.415  37.424   2.259
91317W        W61132  18.157  42.485  13.056
91318W        W61133  30.149   6.779  14.906
91319W        W61134  39.323  19.139  13.308
91320W        W61135  12.726  20.603   1.759
91321W        W61136  10.289  33.126   4.822
91322W        W61137  21.567  31.604   1.780
91323W        W61138  40.331  14.718   4.314
91324W        W61139  21.598   0.919   0.748
91325W        W61140   8.231  14.606  13.036
91326W        W61141  30.488  11.794  14.441
91327W        W61142  19.574  25.601   2.202
91328W        W61143  39.845  39.997   1.434
91329W        W61144  24.597  21.584  12.471
91330W        W61145  14.619   2.795  10.633
91331W        W61146   4.393  29.665  14.843
91332W        W61147  11.845  22.518  14.486
91333W        W61148  28.028   0.324  11.593
91334W        W61149  41.996  27.608   4.697
91335W        W61150  31.016  12.205  13.963
91336W        W61151  25.014   9.701  12.561
91337W        W61152   4.894  40.872  11.930
91338W        W61153   7.714   6.373   1.272
91339W        W61154   3.825  42.780   1.353
91340W        W61155   1.306   9.308   3.728
91341W        W61156  15.659  33.929  10.499
91342W        W61157  28.126   0.344   0.414
91343W        W61158   2.348  39.010  14.934
91344W        W61159  16.249  24.693  12.573
91345W        W61160  25.501  12.771   1.747
91346W        W61161  18.627  28.938  13.338
91347W        W61162  21.108  30.539  14.015
91348W        W61163   5.905   3.424   3.792
91349W        W61164  28.056  36.558   4.188
91350W        W61165  44.478  12.684  13.898
91351W        W61166  32.893  42.828  10.567
91352W        W61167  22.584  16.074   3.179
91353W        W61168  15.306  31.133  11.512
91354W        W61169   0.270  43.993   3.723
91355W        W61170  13.201  20.158   3.862
91356W        W61171  26.607  32.427  14.795
91357W        W61172  25.526  24.661  13.802
91358W        W61173  20.556   2.855   2.835
91359W        W61174  32.081   1.257   4.313
91360W        W61175  38.822  22.623   1.261
91361W        W61176  25.141  12.628   3.629
91362W        W61177  38.363  25.546  14.808
91363W        W61178  34.931  34.369   1.312
91364W        W61179  16.685   9.741  10.505
91365W        W61180  19.582  44.452   5.309
91366W        W61181   2.304  40.996  11.897
91367W        W61182  19.268   5.780   4.724
91368W        W61183  43.799  34.423   4.643
91369W        W61184  19.215  35.972   3.376
91370W        W61185  34.012  36.495   3.216
91371W        W61186  33.043   1.972  13.999
91372W        W61187  38.997  39.415   2.895
91373W        W61188  26.506  12.348  12.028
91374W        W61189   3.416   0.957  12.497
91375W        W61190  31.416   5.303  14.516
91376W        W61191  23.988  22.516   5.274
91377W        W61192  22.512  25.470  13.325
91378W        W61193  20.674  10.701  11.896
91379W        W61194  12.278   3.241   4.194
91380W        W61195  41.402  30.043  14.909
91381W        W61196  23.520  35.372   3.670
91382W        W61197   5.866   1.446   4.253
91383W        W61198  41.390  12.348  14.448
91384W        W61199   9.779  44.886  12.481
91385W        W61200  26.039   4.872  12.428
91386W        W61201  41.434  31.507  12.864
91387W        W61202  30.100  44.432   2.747
91388W        W61203  37.010  32.003  12.901
91389W        W61204   7.681   0.987   2.746
91390W        W61205  43.406   2.901  12.480
91391W        W61206  44.440  26.166  12.968
91392W        W61207  32.896  30.037   3.870
91393W        W61208  20.712   9.339   1.885
91394W        W61209  17.590  19.711  11.452
91395W        W61210  31.126  19.092   2.846
91396W        W61211   9.710  27.543  14.344
91397W        W61212   8.201  32.950   4.194
91398W        W61213   4.918   3.777  13.839
91399W        W61214  28.114  10.191   0.373
91400W        W61215   8.348  41.786   4.794
91401W        W61216  37.948  39.816   4.324
91402W        W61217  41.415  15.257  12.496
91403W        W61218  11.761   6.838  13.529
91404W        W61219   3.869  14.824   0.846
91405W        W61220  25.634  13.769   0.925
91406W        W61221  25.175  31.489   3.353
91407W        W61222  19.617  41.350  12.061
91408W        W61223   5.815  41.918   1.917
91409W        W61224  43.271  19.773   1.765
91410W        W61225  12.742   2.927  13.317
91411W        W61226  16.290   3.715   1.767
91412W        W61227  26.005  10.252   0.810
91413W        W61228  13.769  21.152  11.090
91414W        W61229  18.687  19.278  14.985
91415W        W61230  25.968   7.903   4.817
91416W        W61231   9.747  18.713   4.231
91417W        W61232  32.535  35.565  11.876
91418W        W61233  15.620  33.611  12.091
91419W        W61234   9.254  24.982   3.147
91420W        W61235  35.494  17.780   4.282
91421W        W61236  10.296   7.683  13.338
91422W        W61237  35.511   3.360   1.347
91423W        W61238  22.738   0.327  11.048
91424W        W61239  20.215  37.895  14.931
91425W        W61240  42.334  19.627  11.468
91426W        W61241  26.463  14.760   4.687
91427W        W61242  30.998   6.411   3.293
91428W        W61243  32.522  20.075   1.780
91429W        W61244   8.344  37.062   1.215
91430W        W61245   4.242  12.318   1.273
91431W        W61246   2.283  29.108   1.726
91432W        W61247  19.163   4.834  14.898
91433W        W61248  41.004  40.527  12.485
91434W        W61249  29.918  16.124  11.604
91435W        W61250  13.308  26.027   3.235
91436W        W61251  28.647  23.609  12.059
91437W        W61252   4.301  36.495  14.875
91438W        W61253   2.353  19.629   1.767
91439W        W61254  32.390   6.816  11.972
91440W        W61255  13.809  25.160  10.486
91441W        W61256   5.298   2.924  13.980
91442W        W61257   3.304  13.764  12.439
91443W        W61258  11.323  27.530  13.053
91444W        W61259  32.916  11.741   0.743
91445W        W61260  44.883  14.204   2.850
91446W        W61261  36.415   5.923  10.426
91447W        W61262  21.139   7.415  14.941
91448W        W61263  25.469  25.552   3.666
91449W        W61264  14.131   6.878  11.999
91450W        W61265  22.232  20.631   0.279
91451W        W61266   7.759  33.467  13.546
91452W        W61267   3.219  18.131   3.309
91453W        W61268  43.344  24.092   4.291
91454W        W61269  10.672  21.060   3.365
91455W        W61270  30.611  14.808   3.678
91456W        W61271   9.793  20.679   0.879
91457W        W61272  24.036  34.946   4.122
91458W        W61273  28.481  39.823   1.401
91459W        W61274   3.831  39.408   2.230
91460W        W61275   1.302  17.185   1.918
91461W        W61276  36.505  38.550   4.281
91462W        W61277  22.037  25.123   4.117
91463W        W61278  27.998  30.564  13.946
91464W        W61279  41.428  40.539  13.811
91465W        W61280   3.319  39.818   3.637
91466W        W61281  16.665  17.140   4.732
91467W        W61282  44.431  27.594  13.524
91468W        W61283  43.405  14.276  10.086
91469W        W61284   1.464  30.431   1.834
91470W        W61285   3.767   4.780   1.802
91471W        W61286  22.158  19.053  13.884
91472W        W61287  16.791  12.163   2.706
91473W        W61288   6.280  32.445   2.824
91474W        W61289   6.371  37.052  12.089
91475W        W61290  28.547  11.241   9.585
91476W        W61291  19.060  20.211   0.448
91477W        W61292  36.919  22.548   4.293
91478W        W61293  36.445  39.820  12.890
91479W        W61294  18.787   9.289  10.438
91480W        W61295  10.821   7.884  14.760
91481W        W61296  29.521  18.573  12.381
91482W        W61297  34.544  14.195   4.722
91483W        W61298   8.403  13.783   2.837
91484W        W61299   1.388  40.444   3.751
91485W        W61300  39.422  14.102  13.920
91486W        W61301  12.340   0.967   3.277
91487W        W61302  11.628   3.871  11.378
91488W        W61303  37.954   6.321  13.433
91489W        W61304   2.779  12.207   0.953
91490W        W61305  40.906  17.567  10.562
91491W        W61306  23.985  11.643  11.124
91492W        W61307  26.166   8.655   4.808
91493W        W61308  15.083  41.440  14.442
91494W        W61309  21.050  44.346   1.404
91495W        W61310  18.699  14.201   2.748
91496W        W61311  41.787   0.822   3.251
91497W        W61312   1.952  41.507  11.553
91498W        W61313   8.327  37.866  14.398
91499W        W61314   3.451  18.678  13.037
91500W        W61315  18.688  31.591  14.378
91501W        W61316   4.914   1.354   3.738
91502W        W61317  31.495   5.762   1.915
91503W        W61318  31.080  35.603   3.309
91504W        W61319  36.888  36.881  13.415
91505W        W61320   8.214  32.585  13.900
91506W        W61321  25.492  22.079  13.011
91507W        W61322  42.463  34.385  12.953
91508W        W61323   6.385  24.671   2.334
91509W        W61324   7.752  35.091   3.761
91510W        W61325  19.672  10.651  10.533
91511W        W61326  37.039  19.176   1.334
91512W        W61327  22.738  31.017   0.475
91513W        W61328  22.648  31.931   1.925
91514W        W61329  40.940  42.365   1.368
91515W        W61330  31.623  39.454  14.005
91516W        W61331  31.480  44.321   0.830
91517W        W61332  30.458  29.659   0.431
91518W        W61333  35.467   4.329   0.875
91519W        W61334   9.180  26.492   3.200
91520W        W61335   1.959  19.760  13.431
91521W        W61336  37.395  28.184  14.421
91522W        W61337  27.677  30.939   0.324
91523W        W61338  18.278  10.142  11.388
91524W        W61339   4.702  31.933  14.997
91525W        W61340  38.054  35.395  10.971
91526W        W61341  15.823  20.063   0.305
91527W        W61342  13.620   3.419   1.272
91528W        W61343  31.900  44.469  11.513
91529W        W61344  21.201  29.437  14.865
91530W        W61345  28.500  19.587  12.385
91531W        W61346  25.968  40.817   4.788
91532W        W61347  19.215  39.320   2.733
91533W        W61348  42.286  18.116  13.543
91534W        W61349  28.930   8.737   1.287
91535W        W61350  35.480  27.107  10.925
91536W        W61351  44.887  40.442   2.706
91537W        W61352  25.030  33.492  14.850
91538W        W61353  19.215  33.513  14.480
91539W        W61354  15.762  33.580   1.397
91540W        W61355   0.870  33.507   3.386
91541W        W61356   5.333   4.706   3.181
91542W        W61357  34.534   6.229   0.900
91543W        W61358  43.366   4.820  14.409
91544W        W61359  25.468  28.639  11.566
91545W        W61360   9.885  24.088   1.845
91546W        W61361   6.310   8.879  10.942
91547W        W61362  20.159   0.419   0.323
91548W        W61363   5.226  17.249   0.868
91549W        W61364   6.325  33.042   4.663
91550W        W61365  26.100   7.267   3.680
91551W        W61366  29.508  41.319  14.846
91552W        W61367  39.997   6.351  13.318
91553W        W61368  26.683  10.228  12.866
91554W        W61369  30.006  18.223   3.266
91555W        W61370  41.891  16.669  10.493
91556W        W61371  32.933  14.645   3.384
91557W        W61372  13.151  17.723  11.098
91558W        W61373   0.250   1.464  14.514
91559W        W61374  25.981  22.054   1.314
91560W        W61375   2.890  40.043  12.835
91561W        W61376  43.771  23.056  13.488
91562W        W61377  25.047  15.195   0.332
91563W        W61378  31.936  11.331  12.833
91564W        W61379   8.377   1.784  11.383
91565W        W61380  12.177  35.080   1.794
91566W        W61381   4.323  23.537   1.413
91567W        W61382   4.282  21.669   1.711
91568W        W61383  19.102  30.130  13.337
91569W        W61384  36.995  27.448  13.494
91570W        W61385  37.902  14.123   1.729
91571W        W61386  20.266  39.342  12.008
91572W        W61387  36.388   5.372   2.717
91573W        W61388  34.543  27.028  14.278
91574W        W61389  19.264   0.404   4.607
91575W        W61390  16.772  10.249   1.397
91576W        W61391  26.515   1.276   4.685
91577W        W61392   9.331   5.802  13.489
91578W        W61393   9.306   4.768  10.157
91579W        W61394  30.138  36.941   3.870
91580W        W61395  29.663   8.737   3.304
91581W        W61396   6.818  43.872  14.919
91582W        W61397   2.257  38.997   3.298
91583W        W61398  10.279  37.902  11.589
91584W        W61399  17.298  42.934  10.623
91585W        W61400   3.932  22.630   0.342
91586W        W61401  14.629  11.200   1.447
91587W        W61402  10.850  20.533  10.434
91588W        W61403  18.674  16.595   0.369
91589W        W61404  15.188  42.411   0.855
91590W        W61405   8.238  15.772  12.536
91591W        W61406  13.123  15.099   0.934
91592W        W61407  36.945  23.136  11.573
91593W        W61408  29.932   9.717  10.562
91594W        W61409   8.333  14.308  14.814
91595W        W61410  18.731  16.573   4.642
91596W        W61411  20.590  10.149  13.039
91597W        W61412  34.578  10.648  13.479
91598W        W61413   4.916  20.757   4.157
91599W        W61414  44.455  40.539  12.557
91600W        W61415  17.784  17.660   0.878
91601W        W61416  10.697  14.835  14.340
91602W        W61417  41.354  20.251  13.507
91603W        W61418  20.244  26.200   2.226
91604W        W61419  38.529   5.258   4.299
91605W        W61420  19.735   6.372   4.272
91606W        W61421   3.733  39.060   0.732
91607W        W61422  43.369  42.349  13.341
91608W        W61423  12.614  16.188  11.530
91609W        W61424  20.580  19.104  13.851
91610W        W61425   5.439  25.988   0.403
91611W        W61426   1.367  34.481   2.719
91612W        W61427  39.425  11.278   3.171
91613W        W61428  31.576  10.177  11.486
91614W        W61429   9.836   9.338   3.195
91615W        W61430  14.229  32.570  12.574
91616W        W61431  29.451  31.419  14.944
91617W        W61432  18.192  26.030   2.787
91618W        W61433  44.938  25.173   5.249
91619W        W61434  18.787   8.811  14.340
91620W        W61435  16.624  24.187  13.333
91621W        W61436   5.871   8.392  11.432
91622W        W61437  33.057  43.398   4.795
91623W        W61438  36.402  17.109  14.788
91624W        W61439  39.332   8.761   2.311
91625W        W61440  21.176  34.576  13.366
91626W        W61441   1.459   8.788  10.915
91627W        W61442  19.652  41.956  14.023
91628W        W61443  19.158  44.946   0.338
91629W        W61444  10.783   3.775   3.693
91630W        W61445  14.828  24.070  14.516
91631W        W61446  43.867  29.112   3.788
91632W        W61447  44.794  41.043  14.286
91633W        W61448  16.812   9.711   1.408
91634W        W61449  21.259  22.619  10.539
91635W        W61450  26.686  11.363   3.693
91636W        W61451   7.704   7.378  14.839
91637W        W61452   0.376  42.782  11.401
91638W        W61453   6.715   1.307  12.956
91639W        W61454   5.271   1.341   3.267
91640W        W61455  11.357   0.382   2.806
91641W        W61456  43.949  38.950  10.498
91642W        W61457  39.471  29.537   0.373
91643W        W61458  41.368  24.584  10.426
91644W        W61459  16.719  25.571  11.968
91645W        W61460  15.730  16.595  14.317
91646W        W61461  22.111   5.759   1.416
91647W        W61462  22.502  24.684  13.837
91648W        W61463  11.268   6.185  14.374
91649W        W61464   2.429  42.970   5.189
91650W        W61465  33.494   0.480   1.345
91651W        W61466  35.472  31.971   1.367
91652W        W61467  11.349  37.899  13.480
91653W        W61468  30.150  17.105  11.948
91654W        W61469  36.353  10.288   5.237
91655W        W61470  11.295  27.149  10.637
91656W        W61471  11.763  31.412  13.363
91657W        W61472  38.969  24.534   2.683
91658W        W61473  19.065  37.452  13.061
91659W        W61474   5.880  36.581  12.437
91660W        W61475  14.590  42.999   4.764
91661W        W61476  40.495  16.313   1.285
91662W        W61477  33.567  32.124   2.816
91663W        W61478   7.908  18.126   0.328
91664W        W61479  38.484  31.898   2.870
91665W        W61480   6.269  37.890  13.348
91666W        W61481  25.551  35.884   1.432
91667W        W61482   5.437  39.544  14.760
91668W        W61483  25.093  14.779  12.524
91669W        W61484  40.510  29.926  13.979
91670W        W61485  36.451  20.667  12.986
91671W        W61486  32.436  15.598  14.976
91672W        W61487  28.562  21.663  12.937
91673W        W61488  30.960   5.359   0.786
91674W        W61489  19.643  21.536   0.864
91675W        W61490  30.057  20.694  11.551
91676W        W61491  32.075  27.093  14.022
91677W        W61492  23.993   6.892  11.458
91678W        W61493  21.586  17.096   3.701
91679W        W61494  36.494  23.657   4.303
91680W        W61495  41.430  44.378   4.276
91681W        W61496  32.980  24.579  11.997
91682W        W61497  26.086  24.558  14.026
91683W        W61498   8.777  15.745  11.498
91684W        W61499   5.912  28.043   3.208
91685W        W61500   6.702  21.757   0.890
91686W        W61501  10.189  43.820   3.795
91687W        W61502  42.961  35.496   4.832
91688W        W61503  17.076  16.593  13.419
91689W        W61504  18.752  36.495   3.345
91690W        W61505  24.205  40.304  11.433
91691W        W61506  25.474  11.283  11.075
91692W        W61507  31.417   0.386  14.425
91693W        W61508  23.501   5.312  12.524
91694W        W61509   9.704  32.912  14.786
91695W        W61510   2.471  16.081  12.960
91696W        W61511   8.691  17.178   1.243
91697W        W61512   1.328  33.067   1.269
91698W        W61513   7.276   9.726  14.452
91699W        W61514   3.412  29.518   4.731
91700W        W61515  39.320   6.888  11.907
91701W        W61516  28.597  12.837  13.509
91702W        W61517  43.455  35.040   2.784
91703W        W61518  36.536   1.772   4.803
91704W        W61519  41.484  19.714   2.356
91705W        W61520  12.323  27.091  13.522
91706W        W61521  29.115  19.219  10.524
91707W        W61522  22.018  26.979  14.335
91708W        W61523  20.232  17.611  10.555
91709W        W61524  24.113  12.221  14.408
91710W        W61525  36.560  31.587   0.270
91711W        W61526  22.090  19.678  11.554
91712W        W61527  12.264  38.821  14.398
91713W        W61528   6.842   7.407  11.554
91714W        W61529  37.978  37.028   0.381
91715W        W61530  11.189  43.912   0.356
91716W        W61531   3.902  17.763   3.278
91717W        W61532  37.993  12.215   3.232
91718W        W61533  31.501  29.668  10.461
91719W        W61534   6.701  35.060   0.371
91720W        W61535  22.567  34.499  14.810
91721W        W61536  26.703  11.700  11.427
91722W        W61537  26.010  15.084  14.836
91723W        W61538   7.305  34.110  11.933
91724W        W61539   3.404  27.526   4.664
91725W        W61540  41.937  29.561   3.798
91726W        W61541  27.632  40.019   2.759
91727W        W61542  12.197  17.288  12.406
91728W        W61543  23.209  40.382   4.807
91729W        W61544   5.778   5.915   4.116
91730W        W61545   8.229  24.553   4.221
91731W        W61546  17.766   5.834  13.980
91732W        W61547  25.031  35.050   1.881
91733W        W61548  23.592   6.204  12.848
91734W        W61549  36.590  42.448   1.334
91735W        W61550  26.620  10.315  12.064
91736W        W61551  19.082  17.182  12.887
91737W        W61552  38.389  19.656   3.310
91738W        W61553  26.000  31.529  14.404
91739W        W61554  37.020  13.208   3.706
91740W        W61555  44.825   7.892  10.456
91741W        W61556  17.083   9.360  10.128
91742W        W61557  40.799  38.571  11.969
91743W        W61558  36.503   2.384  11.892
91744W        W61559  35.918   6.410   3.258
91745W        W61560  31.545  22.193  14.779
91746W        W61561  27.060   8.845   3.695
91747W        W61562  22.678  40.437   3.840
91748W        W61563  15.686  11.759   3.250
91749W        W61564  30.156   4.405  12.541
91750W        W61565  23.028   9.339  13.807
91751W        W61566  24.996  20.234  11.028
91752W        W61567   4.778   3.782   1.884
91753W        W61568  12.292   1.458   3.165
91754W        W61569  33.911  34.941   2.352
91755W        W61570  26.682  14.638   2.415
91756W        W61571   0.965  39.551   0.384
91757W        W61572  41.459  34.515  10.903
91758W        W61573  20.202  40.042   0.819
91759W        W61574   0.790  15.155   4.165
91760W        W61575   2.459   3.786  11.460
91761W        W61576  33.413   2.828  10.556
91762W        W61577  10.380  14.226  13.393
91763W        W61578   1.416  36.374   2.251
91764W        W61579  19.257   3.743   2.306
91765W        W61580  23.666   8.689  11.121
91766W        W61581   6.758  30.497  11.126
91767W        W61582  33.088   2.443  11.039
91768W        W61583   4.931   7.337  14.981
91769W        W61584  12.331  38.857  14.895
91770W        W61585   5.884   6.218   4.813
91771W        W61586   1.291   6.763   4.321
91772W        W61587  27.690  16.186   0.912
91773W        W61588  19.053  13.769  13.512
91774W        W61589  23.560   0.883   3.176
91775W        W61590  22.623  43.482   1.320
91776W        W61591   3.715  11.297   4.314
91777W        W61592  33.556   8.247  14.878
91778W        W61593   9.383  15.247  14.994
91779W        W61594  21.663  42.898  12.467
91780W        W61595   0.935  34.501   0.325
91781W        W61596   7.331  26.153   3.180
91782W        W61597  41.499  13.119   2.212
91783W        W61598  39.417  44.467  12.079
91784W        W61599  21.017  40.893   2.669
91785W        W61600  20.707  40.886   2.810
91786W        W61601   7.907  27.973  11.960
91787W        W61602  24.512  18.159  11.074
91788W        W61603  37.337  38.482  10.899
91789W        W61604   4.788   5.785  10.580
91790W        W61605  22.663  38.540  10.082
91791W        W61606  23.689  11.766   4.770
91792W        W61607  30.479  26.489   1.233
91793W        W61608  25.522  17.736   1.290
91794W        W61609   4.790  12.695   2.732
91795W        W61610  27.120  12.322   2.743
91796W        W61611  43.818  32.637  11.579
91797W        W61612  38.910   6.679   3.280
91798W        W61613  10.192  27.017   2.880
91799W        W61614   5.742  30.946  14.294
91800W        W61615   9.389  28.124   0.394
91801W        W61616  39.526  35.364  11.931
91802W        W61617  15.650  42.013   3.297
91803W        W61618   4.434  36.579   2.705
91804W        W61619  26.565  32.925  10.966
91805W        W61620   5.237  37.568   4.251
91806W        W61621  19.057   4.247  10.905
91807W        W61622  42.881  41.908   4.778
91808W        W61623  38.354  40.888  14.831
91809W        W61624  43.508  42.834  14.310
91810W        W61625  30.499   1.465   3.286
91811W        W61626  18.094  34.397   2.324
91812W        W61627  23.554  17.190  14.984
91813W        W61628  25.656  38.023  11.424
91814W        W61629  19.555  31.079  14.359
91815W        W61630  39.500  22.722  12.959
91816W        W61631   7.387  35.475   0.266
91817W        W61632  30.652  27.134   0.917
91818W        W61633   6.196  25.606  13.383
91819W        W61634  33.505  12.814  10.084
91820W        W61635  19.107  15.105  12.005
91821W        W61636   5.889  27.446   0.948
91822W        W61637  27.106  31.613  11.060
91823W        W61638  22.604  36.504  12.944
91824W        W61639  24.983  25.101   0.807
91825W        W61640  10.710  19.685  12.876
91826W        W61641   0.375  24.113  11.454
91827W        W61642  33.986  26.971   4.130
91828W        W61643  22.205  29.491   2.687
91829W        W61644   3.875  35.469  12.031
91830W        W61645   2.805  42.826  14.436
91831W        W61646   8.182   9.315   2.773
91832W        W61647  20.089  38.969  13.345
91833W        W61648  24.984  10.662  11.424
91834W        W61649  37.414  42.891  11.995
91835W        W61650  35.601   4.437  14.905
91836W        W61651  29.603  17.658  11.466
91837W        W61652  19.143   7.377   3.720
91838W        W61653  41.881  44.301  13.317
91839W        W61654  23.722  23.498  10.596
91840W        W61655   6.421  22.524   1.932
91841W        W61656  34.518   7.759  13.436
91842W        W61657  24.592  41.373  13.960
91843W        W61658   2.916  17.088  11.066
91844W        W61659  32.008   0.861  12.942
91845W        W61660  32.071   2.376  13.837
91846W        W61661  38.829  22.701   3.643
91847W        W61662  31.564  34.038  11.976
91848W        W61663  36.577   4.447   3.649
91849W        W61664  19.619  44.410  10.901
91850W        W61665  30.576  12.210  14.405
91851W        W61666  13.320  31.495   2.237
91852W        W61667  31.526  13.699  11.125
91853W        W61668  25.070  26.033  11.013
91854W        W61669  41.957   8.742  13.390
91855W        W61670  30.531  35.573   1.360
91856W        W61671  22.648  23.095  14.345
91857W        W61672  29.574  26.480  10.628
91858W        W61673  23.172  23.078  14.801
91859W        W61674  34.081  12.648  10.890
91860W        W61675  34.056  19.168  13.815
91861W        W61676   2.893  19.100  12.010
91862W        W61677  14.597   3.853  13.797
91863W        W61678   5.913  41.425  12.069
91864W        W61679   4.741   9.681  12.007
91865W        W61680  11.643  33.878   3.799
91866W        W61681  11.790  24.141  11.507
91867W        W61682  31.924  25.531  12.897
91868W        W61683  23.094  27.028   2.277
91869W        W61684  44.346  23.206  10.520
91870W        W61685  24.654  25.592   3.733
91871W        W61686  10.162  20.148  14.801
91872W        W61687  15.303  12.346  11.398
91873W        W61688  27.011  14.274   4.668
91874W        W61689  17.078  33.016  11.937
91875W        W61690  17.776  36.347   1.220
91876W        W61691  30.075  33.129  13.004
91877W        W61692  25.984  34.988  13.960
91878W        W61693  44.848  28.443   4.709
91879W        W61694  22.070  29.131   3.176
91880W        W61695  40.935  11.231  12.926
91881W        W61696  25.693   7.905  11.089
91882W        W61697  41.834  13.801  12.530
91883W        W61698  20.258  24.065  14.845
91884W        W61699  14.606  38.015   4.828
91885W        W61700  20.637   6.273  14.429
91886W        W61701  15.202  17.626  14.328
91887W        W61702   4.325  10.189   3.322
91888W        W61703   3.243  44.410   3.708
91889W        W61704  15.113   0.864   0.294
91890W        W61705  34.453  33.442   3.339
91891W        W61706  20.735  30.135  11.606
91892W        W61707   2.391  18.170  14.432
91893W        W61708  22.659  13.695  12.371
91894W        W61709   1.788  39.474  14.924
91895W        W61710   2.286   1.350  13.852
91896W        W61711  16.807  12.760  10.569
91897W        W61712  36.418  35.569   1.272
91898W        W61713  40.974  29.145   0.350
91899W        W61714   7.778   1.331  10.485
91900W        W61715  44.844  34.559  12.885
91901W        W61716  27.989  44.377  10.115
91902W        W61717  18.709  19.197  11.592
91903W        W61718  18.548  10.722   4.752
91904W        W61719  42.915   4.291   1.285
91905W        W61720   8.258  23.135   3.801
91906W        W61721  25.161  35.497   3.225
91907W        W61722  43.858  29.630  11.489
91908W        W61723  44.343  37.555   1.751
91909W        W61724  29.064  11.240  14.873
91910W        W61725   1.419  15.713  14.350
91911W        W61726   3.898  38.436   3.786
91912W        W61727   9.298  17.743  12.939
91913W        W61728  11.313  30.542  13.404
91914W        W61729  26.594   8.381   0.957
91915W        W61730  32.517  41.519  10.155
91916W        W61731  23.621  24.494   0.818
91917W        W61732   3.865  13.254  13.827
91918W        W61733  41.833  14.675   4.293
91919W        W61734   1.338  25.976  12.535
91920W        W61735  14.770  30.007   2.192
91921W        W61736  44.350   3.896   0.295
91922W        W61737  32.524  25.962   3.272
91923W        W61738  33.466  10.669  12.036
91924W        W61739  24.696  15.706   4.753
91925W        W61740  42.470  15.784   2.885
91926W        W61741  26.134  25.965  14.785
91927W        W61742   4.365  43.870  14.969
91928W        W61743   2.325  28.647  12.435
91929W        W61744   4.911   4.407  13.312
91930W        W61745  12.783   5.354   4.665
91931W        W61746  16.808  44.297   1.388
91932W        W61747  20.638   8.315   4.346
91933W        W61748  42.433  32.582   0.406
91934W        W61749  23.544  30.415   1.833
91935W        W61750  18.749  35.512   0.967
91936W        W61751   0.916   0.317  13.934
91937W        W61752  23.528  30.069   0.765
91938W        W61753  25.978  17.180  14.873
91939W        W61754  23.994  20.209  12.894
91940W        W61755  27.093  16.290   3.802
91941W        W61756  33.609  15.685   2.396
91942W        W61757  37.382   0.305   0.825
91943W        W61758  10.308  23.656   3.166
91944W        W61759  44.900  18.611   2.371
91945W        W61760  29.556  27.532  11.003
91946W        W61761  24.013  32.052  14.870
91947W        W61762  12.836  19.686   0.400
91948W        W61763   9.730  38.915  14.020
91949W        W61764  15.815  18.144   1.421
91950W        W61765  36.440  35.569  14.890
91951W        W61766   8.659  24.665   0.377
91952W        W61767   2.330   4.222   4.607
91953W        W61768  37.437  23.552  11.976
91954W        W61769  43.294  31.152   2.828
91955W        W61770  40.406  35.104   4.133
91956W        W61771  31.121   2.818  11.905
91957W        W61772  44.337  42.439   2.376
91958W        W61773  15.189  44.293   4.623
91959W        W61774   3.406  40.316   3.754
91960W        W61775  21.263  23.590  11.058
91961W        W61776  30.990   2.738  14.355
91962W        W61777   3.732  13.304   1.859
91963W        W61778  39.502  29.487  13.378
91964W        W61779  25.079  20.695   1.257
91965W        W61780   0.387   2.310   4.139
91966W        W61781  10.839   6.684  14.875
91967W        W61782  25.216   4.320  10.480
91968W        W61783  44.441  15.328  13.509
91969W        W61784  23.083   7.705   3.841
91970W        W61785  19.722  40.823   1.276
91971W        W61786  37.460   3.272   4.269
91972W        W61787  44.333  34.046   4.284
91973W        W61788  14.240  20.190   4.802
91974W        W61789   3.217  33.001   4.221
91975W        W61790  19.642  34.990  14.373
91976W        W61791  27.099  33.430  11.488
91977W        W61792  19.140   1.331   0.397
91978W        W61793  34.004  18.128  12.903
91979W        W61794  30.048  12.207  14.905
91980W        W61795  39.384   9.186   0.387
91981W        W61796   2.252   2.860   3.772
91982W        W61797   3.913  20.602  11.462
91983W        W61798  39.810  28.519  10.525
91984W        W61799  15.805  23.632   2.187
91985W        W61800  27.149  42.451  14.915
91986W        W61801  16.642  32.111  12.465
91987W        W61802  42.998  39.332   0.328
91988W        W61803  27.045  18.051   4.839
91989W        W61804  35.975  25.617   3.202
91990W        W61805  33.476  10.152  11.420
91991W        W61806  22.108  16.265   4.154
91992W        W61807   7.321  25.710   3.237
91993W        W61808  29.103   4.286  13.485
91994W        W61809  40.893   3.328  10.487
91995W        W61810  21.650  19.610   3.833
91996W        W61811   2.916  42.796   1.775
91997W        W61812  29.999  25.695   3.656
91998W        W61813  40.047   9.786  12.925
91999W        W61814  44.812  20.580  14.932
92000W        W61815  15.799  19.570   2.375
92001W        W61816  16.263  43.469  13.898
92002W        W61817  14.712  19.136  12.490
92003W        W61818  11.709  20.695  10.988
92004W        W61819  28.573  44.317  14.296
92005W        W61820   2.869  34.926   0.473
92006W        W61821   4.768   2.825  10.938
92007W        W61822  28.619  43.470   4.791
92008W        W61823  33.917  38.351  14.007
92009W        W61824  38.365   8.163  13.422
92010W        W61825  31.908  35.494  14.504
92011W        W61826  24.619  36.415  12.930
92012W        W61827   8.238  39.946   4.604
92013W        W61828  42.293  21.073  11.373
92014W        W61829  32.051  39.391   4.315
92015W        W61830   6.696   0.859   0.334
92016W        W61831  30.127   0.786  10.910
92017W        W61832  35.987   9.768  14.418
92018W        W61833  32.466   3.932   0.290
92019W        W61834  31.456  16.790  10.587
92020W        W61835  16.107  14.308   1.699
92021W        W61836  31.150  21.624   3.828
92022W        W61837   9.303  42.992  11.966
92023W        W61838  43.512  37.949  13.831
92024W        W61839   6.422  24.134  11.982
92025W        W61840  24.509   6.278   0.737
92026W        W61841  15.779  35.938   3.272
92027W        W61842   6.833  32.038  14.881
92028W        W61843  31.092  22.626   1.419
92029W        W61844  39.054  33.586  12.472
92030W        W61845  13.126  40.326   3.759
92031W        W61846   3.307  26.695  11.607
92032W        W61847  34.874  36.940   1.749
92033W        W61848  38.895  14.693  13.508
92034W        W61849   3.790  41.318   1.397
92035W        W61850  41.007  28.545  11.382
92036W        W61851  44.900  34.566  14.850
92037W        W61852  43.018   1.808  11.920
92038W        W61853   4.787  16.797   2.234
92039W        W61854   9.770   4.350   1.223
92040W        W61855  11.348   1.331  14.317
92041W        W61856  25.148  10.686  14.904
92042W        W61857  12.749   5.210   4.270
92043W        W61858  23.673  38.350   3.836
92044W        W61859  18.708  29.994  12.057
92045W        W61860  41.385  20.253  14.385
92046W        W61861  14.812  22.502   3.147
92047W        W61862  15.821  35.891   4.215
92048W        W61863  41.469   2.758  14.897
92049W        W61864  44.870  40.962   4.259
92050W        W61865   0.982  37.443  10.918
92051W        W61866  22.139  12.826   0.416
92052W        W61867  42.398  30.010   4.308
92053W        W61868  15.725  42.896  12.887
92054W        W61869  14.737  37.343   1.276
92055W        W61870  27.571  18.600  13.831
92056W        W61871  22.733  33.113   1.725
92057W        W61872  38.546  24.037   2.733
92058W        W61873   7.185   8.843   3.148
92059W        W61874   0.373  41.450   4.342
92060W        W61875  29.159   5.730  14.366
92061W        W61876  35.069  18.778  13.913
92062W        W61877  32.391  29.444  14.811
92063W        W61878  41.405  28.111  14.793
92064W        W61879  10.782  40.386  12.007
92065W        W61880   1.898  13.219   1.811
92066W        W61881  22.042  17.289  13.483
92067W        W61882  30.947   9.313   0.856
92068W        W61883  34.976  27.989  13.913
92069W        W61884  10.196  12.839  13.052
92070W        W61885   2.811  34.943  13.879
92071W        W61886  43.347  23.705   2.823
92072W        W61887  32.552  44.313  12.973
92073W        W61888  37.536  41.421   0.405
92074W        W61889  31.612  21.628  10.621
92075W        W61890  15.762  39.048  10.526
92076W        W61891  40.382  23.192  14.953
92077W        W61892   0.248  36.346  12.885
92078W        W61893  28.000  34.051   4.682
92079W        W61894  14.772   1.844  11.488
92080W        W61895  23.584  32.600  13.988
92081W        W61896  10.823  20.544  13.424
92082W        W61897  39.318  12.132  14.416
92083W        W61898  27.097  43.462   3.848
92084W        W61899  41.483  24.102   4.317
92085W        W61900  24.670   5.332  13.435
92086W        W61901   4.847  16.764   0.444
92087W        W61902  11.655   1.387   3.859
92088W        W61903  21.193   0.321   2.847
92089W        W61904  42.367  18.741   3.707
92090W        W61905  28.615   4.888   1.311
92091W        W61906  21.717  40.504   4.623
92092W        W61907  35.539  18.288  11.068
92093W        W61908  11.696   9.701  12.906
92094W        W61909  42.470  25.008  10.567
92095W        W61910   7.361  16.746   4.117
92096W        W61911  23.648  20.692  14.945
92097W        W61912   2.891  41.512  12.856
92098W        W61913  30.929  12.241  14.313
92099W        W61914  25.963  35.962  13.460
92100W        W61915  35.528  13.675   3.368
92101W        W61916  26.607  42.387   1.909
92102W        W61917   9.745  33.399  12.934
92103W        W61918  22.510  15.308   1.345
92104W        W61919  41.865  17.631   3.819
92105W        W61920   8.296  19.048  13.989
92106W        W61921  21.584  26.652  11.912
92107W        W61922  25.198  32.082   3.819
92108W        W61923  20.724  31.949   0.762
92109W        W61924  34.435  44.413   3.340
92110W        W61925   8.200  13.322   2.745
92111W        W61926   3.405  34.588  11.107
92112W        W61927  31.438  40.538   2.254
92113W        W61928  41.329  42.456  10.448
92114W        W61929   6.711   4.227   3.709
92115W        W61930  39.543   9.859   2.825
92116W        W61931  37.407  42.406  10.973
92117W        W61932  14.673  28.482   4.301
92118W        W61933  24.004  35.853  12.895
92119W        W61934  38.883  12.617  12.379
92120W        W61935  28.460  18.729  13.400
92121W        W61936   5.867  26.668   0.254
92122W        W61937   9.877  42.926  13.880
92123W        W61938   7.199  41.372   0.297
92124W        W61939  14.681   3.937   1.402
92125W        W61940  43.307  19.182  13.486
92126W        W61941  28.507  34.436   3.299
92127W        W61942  28.551  31.413   1.753
92128W        W61943   0.924  18.195   1.714
92129W        W61944  15.299  44.972  11.512
92130W        W61945  33.089   8.835  11.048
92131W        W61946   9.763   7.398   3.323
92132W        W61947   6.422  17.303   5.304
92133W        W61948  24.701  31.414  12.071
92134W        W61949  30.584  40.852   0.730
92135W        W61950   5.709   7.889  12.987
92136W        W61951  26.019  38.543   5.126
92137W        W61952  14.708   5.212   2.800
92138W        W61953  11.254  14.223  14.970
92139W        W61954  21.650  10.804   0.770
92140W        W61955  10.644   8.172  14.422
92141W        W61956  15.622  38.474  13.869
92142W        W61957  10.770  33.900  12.405
92143W        W61958  28.063  40.842  10.101
92144W        W61959  10.316  30.447  10.564
92145W        W61960  15.099  16.629   2.847
92146W        W61961  12.195  37.921   0.937
92147W        W61962  43.446  30.075   4.224
92148W        W61963   5.397   7.731  10.507
92149W        W61964  20.099  20.044  13.026
92150W        W61965  22.586  27.095   2.244
92151W        W61966   7.410   8.832   5.284
92152W        W61967  14.244   9.164   1.351
92153W        W61968   0.937  16.310   2.252
92154W        W61969   4.208  29.536   0.336
92155W        W61970  24.158  33.018  12.563
92156W        W61971  24.035  18.675   1.414
92157W        W61972  13.329   7.255   2.186
92158W        W61973  24.553   8.685  11.484
92159W        W61974   7.266  16.212  14.776
92160W        W61975  16.804  27.546  13.495
92161W        W61976  14.209  25.986   0.315
92162W        W61977  19.542  40.445  14.909
92163W        W61978   9.828  39.530  11.499
92164W        W61979  39.541  26.141   3.732
92165W        W61980  20.220  43.386   9.645
92166W        W61981  19.649  27.118  11.944
92167W        W61982  34.569  37.081   3.800
92168W        W61983  33.953   7.189  12.066
92169W        W61984  15.289  26.030   3.806
92170W        W61985  17.263  43.391  11.538
92171W        W61986  39.441   3.849  13.519
92172W        W61987   4.368  24.555   2.266
92173W        W61988   0.879   2.936  14.408
92174W        W61989  30.138  38.074  13.312
92175W        W61990   2.319  39.817  14.305
92176W        W61991  14.201  34.455   0.952
92177W        W61992  33.115  24.217   0.902
92178W        W61993  25.536  23.178   0.758
92179W        W61994  16.583   7.729  14.482
92180W        W61995  28.057  32.462   3.183
92181W        W61996  27.482  38.904   0.835
92182W        W61997  25.499   8.392  11.983
92183W        W61998  18.714   7.805  13.815
92184W        W61999  30.564  35.475   4.336
92185W        W62000  26.495  12.134   2.286
92186W        W62001  13.693  24.701  14.415
92187W        W62002  21.213   2.829   4.320
92188W        W62003  28.618  18.644   4.695
92189W        W62004  35.073  33.077   3.730
92190W        W62005  33.615  19.213   2.805
92191W        W62006   1.260  36.453  12.547
92192W        W62007   3.873   3.818   2.899
92193W        W62008  12.159  25.665   2.358
92194W        W62009  23.727  19.044   9.496
92195W        W62010   1.928  14.784  11.046
92196W        W62011  23.989  44.983   0.889
92197W        W62012  23.715  22.059  13.924
92198W        W62013   2.960  22.548  14.456
92199W        W62014  26.701  22.137  12.510
92200W        W62015  13.263  28.071  14.300
92201W        W62016  26.000  40.026   4.233
92202W        W62017  36.484   9.723   4.193
92203W        W62018  11.312   8.319  14.796
92204W        W62019  30.093  23.719  10.475
92205W        W62020  10.312   5.236  13.316
92206W        W62021   9.324  36.587   3.191
92207W        W62022  43.270  34.919   3.652
92208W        W62023  21.734  44.494  11.559
92209W        W62024  18.565  18.210  13.007
92210W        W62025  28.603   7.268  13.951
92211W        W62026  36.457   7.382  10.483
92212W        W62027  23.194  19.215   2.669
92213W        W62028  11.295  23.531   3.684
92214W        W62029   3.248  21.607  12.052
92215W        W62030  21.257  15.210   0.933
92216W        W62031   3.774  14.234  12.526
92217W        W62032  43.785  37.840   3.673
92218W        W62033  28.538  17.723  14.314
92219W        W62034  23.072  35.526  12.493
92220W        W62035  31.951   5.386  12.981
92221W        W62036  38.894  44.383  12.370
92222W        W62037  11.692  33.517   1.899
92223W        W62038   0.325   5.893  14.311
92224W        W62039  23.592  28.649   2.245
92225W        W62040  23.021  39.832  12.025
92226W        W62041  14.784  32.481   3.862
92227W        W62042  36.080  32.029  10.521
92228W        W62043  21.679  20.226  11.039
92229W        W62044  30.909   6.262   0.257
92230W        W62045  44.862  43.949  12.373
92231W        W62046  30.041  30.046  13.326
92232W        W62047   8.215   1.270   3.338
92233W        W62048  26.957  14.620  13.036
92234W        W62049  44.871  33.515   2.792
92235W        W62050  40.478  36.889  11.557
92236W        W62051   1.342   0.886  14.323
92237W        W62052  11.336  35.365  11.104
92238W        W62053  29.485  18.061   3.706
92239W        W62054  15.124  31.102  13.927
92240W        W62055  21.565  11.650   2.385
92241W        W62056  44.791   0.399   2.258
92242W        W62057  21.197   4.296   2.807
92243W        W62058  41.465  28.008  11.875
92244W        W62059  39.502  43.973   1.773
92245W        W62060  23.605  30.961  13.517
92246W        W62061  18.109  18.714  14.834
92247W        W62062  32.472   6.265  14.920
92248W        W62063  43.341  11.165  12.926
92249W        W62064   7.873  25.132   1.246
92250W        W62065  44.803   8.769  12.427
92251W        W62066  26.996   9.255   9.938
92252W        W62067  36.078   2.754  10.940
92253W        W62068  36.980   9.188   4.349
92254W        W62069  26.692  13.752   4.744
92255W        W62070  24.620  42.313   0.394
92256W        W62071   2.290  34.867  12.841
92257W        W62072  20.145  32.986  13.472
92258W        W62073  10.876  13.350  10.517
92259W        W62074   5.223  38.355  12.981
92260W        W62075  16.199  18.115  14.797
92261W        W62076  38.334   2.798   2.339
92262W        W62077   1.795  17.768   3.746
92263W        W62078  29.976   8.342  11.551
92264W        W62079  33.454  10.258   1.811
92265W        W62080  20.032  32.038   1.229
92266W        W62081  37.926  21.736   1.863
92267W        W62082  41.354  10.303   4.710
92268W        W62083  20.203  16.632   0.937
92269W        W62084  41.984  16.168  11.495
92270W        W62085  10.197   3.738  13.048
92271W        W62086   5.281   2.451  11.578
92272W        W62087   5.338  39.350  11.577
92273W        W62088  38.989  27.531   4.212
92274W        W62089  39.812  23.154   1.758
92275W        W62090  16.121  35.106  12.869
92276W        W62091  25.586   2.309   4.642
92277W        W62092  37.989  31.143  13.548
92278W        W62093  34.055   0.285   4.169
92279W        W62094   0.291  15.212  12.345
92280W        W62095  22.501  36.015  10.959
92281W        W62096   6.892  12.319   0.869
92282W        W62097  33.051  26.505   4.698
92283W        W62098  38.841   2.359   0.876
92284W        W62099  10.157   0.946   0.933
92285W        W62100   2.374  37.468  13.978
92286W        W62101   3.372  10.156   0.890
92287W        W62102  42.387   3.283  10.925
92288W        W62103  32.396  11.209  11.969
92289W        W62104  21.520   4.250  14.897
92290W        W62105  38.546  34.953   3.147
92291W        W62106  39.810   7.871   0.877
92292W        W62107  32.906  26.045   1.344
92293W        W62108  43.017   4.710  14.301
92294W        W62109  25.572   2.878   1.894
92295W        W62110  34.065   2.295   2.665
92296W        W62111   4.759  38.004  10.032
92297W        W62112   4.347  19.060  13.917
92298W        W62113  23.998  37.427   4.781
92299W        W62114  13.214   8.296   2.720
92300W        W62115  43.926  10.674  13.850
92301W        W62116  26.196  44.886   0.267
92302W        W62117   4.792  32.993  12.011
92303W        W62118  26.524  40.354   1.872
92304W        W62119   4.373  38.363  14.289
92305W        W62120  42.988  25.497   0.389
92306W        W62121  19.765  22.085  14.342
92307W        W62122  38.426  29.073  12.539
92308W        W62123  12.181  24.485  14.802
92309W        W62124  24.683  20.672   4.828
92310W        W62125   6.817  35.868  14.928
92311W        W62126  27.954   5.747   4.831
92312W        W62127  27.640  29.497   4.710
92313W        W62128  23.174  34.440   2.197
92314W        W62129   4.391  33.464  11.985
92315W        W62130  25.585  30.523  14.971
92316W        W62131  30.993  19.639   3.708
92317W        W62132   2.366   1.879   1.911
92318W        W62133  12.285  42.501   2.311
92319W        W62134  41.344  30.509   3.759
92320W        W62135  11.298   3.409  13.470
92321W        W62136   4.875  35.596  11.978
92322W        W62137  32.136   9.777  12.451
92323W        W62138  30.023  13.222   1.362
92324W        W62139  24.526  38.448   4.663
92325W        W62140  30.470  44.816   4.609
92326W        W62141   3.418  30.461   3.296
92327W        W62142  10.804  27.124  14.865
92328W        W62143  25.549  14.192  12.368
92329W        W62144   4.719  33.517  12.992
92330W        W62145  11.679  28.643   1.289
92331W        W62146   0.820  34.866   0.271
92332W        W62147  25.594  44.971   4.161
92333W        W62148  18.787  34.495   0.285
92334W        W62149  20.543  37.042   3.274
92335W        W62150  42.965   9.871  11.603
92336W        W62151  44.464  25.638   5.150
92337W        W62152  22.073  19.675   1.728
92338W        W62153  37.888  32.606  10.037
92339W        W62154   6.223  27.079  11.603
92340W        W62155   8.305  42.411   1.378
92341W        W62156  43.022  14.649  14.464
92342W        W62157  36.848  27.594   2.382
92343W        W62158  24.126  13.628  13.482
92344W        W62159   9.846  28.056   0.803
92345W        W62160  30.021  14.190  11.506
92346W        W62161   1.260  24.586  12.097
92347W        W62162  25.087  43.394  13.898
92348W        W62163  31.000  44.494  11.510
92349W        W62164   7.306  14.601  10.634
92350W        W62165  39.503  40.431   2.663
92351W        W62166  15.711  39.463  14.791
92352W        W62167   5.773   4.269  14.999
92353W        W62168  39.966  12.203  11.385
92354W        W62169  22.141  12.127   3.814
92355W        W62170   5.366  31.001   4.278
92356W        W62171  24.172  20.145   4.667
92357W        W62172  37.378  41.477  14.492
92358W        W62173  17.702  35.898   3.731
92359W        W62174  29.467  12.664   2.306
92360W        W62175  26.085  32.601   0.857
92361W        W62176   1.358  36.942  13.926
92362W        W62177  36.557  42.421  12.049
92363W        W62178  31.588   5.270   1.737
92364W        W62179  18.245  18.594  11.398
92365W        W62180  25.207  27.460  12.049
92366W        W62181  25.705  30.449  13.851
92367W        W62182  14.110  34.503   4.316
92368W        W62183  24.722   3.785  10.424
92369W        W62184  13.777   6.420  12.576
92370W        W62185  18.209  14.601  12.519
92371W        W62186   4.721  13.283   0.819
92372W        W62187  26.117  44.347   0.407
92373W        W62188  12.810  12.856   3.760
92374W        W62189  18.607  27.476   0.398
92375W        W62190   6.710  37.485  11.863
92376W        W62191  32.105  44.465   1.783
92377W        W62192  33.099  12.633   4.242
92378W        W62193  34.589   1.751  11.049
92379W        W62194  19.543   1.857   3.266
92380W        W62195  28.121  10.212  11.939
92381W        W62196   1.308  40.367   2.401
92382W        W62197  26.571  32.104  13.938
92383W        W62198  41.488  41.935  10.967
92384W        W62199  16.738  35.604  14.386
92385W        W62200   8.751   8.384   2.839
92386W        W62201  44.485  32.039   3.736
92387W        W62202  29.919  38.952  13.523
92388W        W62203  17.620  41.320  14.856
92389W        W62204  22.520  38.965  10.630
92390W        W62205  38.914  43.870   4.224
92391W        W62206  43.948  20.255  13.479
92392W        W62207  28.489  40.838   3.163
92393W        W62208  29.528  31.973   2.856
92394W        W62209  24.994  14.707   2.688
92395W        W62210  30.558  14.821  11.917
92396W        W62211  34.401   4.287  13.315
92397W        W62212  37.582   2.440  13.919
92398W        W62213  24.676  37.543   3.246
92399W        W62214  39.992   1.483   2.672
92400W        W62215  30.105  42.332   3.376
92401W        W62216  15.786   4.388   4.303
92402W        W62217  21.134  24.009   4.741
92403W        W62218  13.220  30.086   2.842
92404W        W62219  32.123   7.737  13.035
92405W        W62220  30.131  15.772   1.348
92406W        W62221  27.553  38.475   2.893
92407W        W62222  19.725  41.934   2.370
92408W        W62223   2.794  21.524   4.326
92409W        W62224  33.899  25.628   3.868
92410W        W62225  32.406   9.269   4.614
92411W        W62226  29.592  40.987   2.361
92412W        W62227  38.563  31.427  11.422
92413W        W62228  20.092   5.846  10.436
92414W        W62229  25.962  25.678  12.351
92415W        W62230  20.722  42.953   0.306
92416W        W62231  15.179  14.326   0.457
92417W        W62232  16.122   5.911   1.874
92418W        W62233  27.603  30.108   2.699
92419W        W62234  24.656   4.743   3.782
92420W        W62235  40.948   9.777  12.903
92421W        W62236  38.489   0.746   2.867
92422W        W62237  28.544   7.888  12.015
92423W        W62238   2.730   0.938  10.994
92424W        W62239   9.310   7.772   3.357
92425W        W62240  30.089  26.476   2.712
92426W        W62241  12.790  23.023   1.228
92427W        W62242  25.086  25.146   4.205
92428W        W62243  14.741  44.838   1.231
92429W        W62244  21.692  15.647  11.887
92430W        W62245  25.635   4.254  10.999
92431W        W62246   1.825  44.430   2.762
92432W        W62247   3.911  33.594  12.515
92433W        W62248  39.919   6.392   2.830
92434W        W62249  16.594   4.837  11.553
92435W        W62250  30.120  29.055  11.397
92436W        W62251  34.097   1.325   0.422
92437W        W62252  38.854  21.735  14.336
92438W        W62253  11.720   8.258  10.597
92439W        W62254  20.549  17.628  14.309
92440W        W62255  29.945  24.060  11.003
92441W        W62256  17.628  20.274  11.507
92442W        W62257  14.667  21.194   5.201
92443W        W62258  34.877  31.144   3.849
92444W        W62259  39.808   1.258   5.215
92445W        W62260  10.711  21.257  11.090
92446W        W62261  27.657   8.712   2.225
92447W        W62262  10.341   6.407   3.780
92448W        W62263   6.814  39.980  12.490
92449W        W62264  16.801  36.508  13.477
92450W        W62265  31.062  32.916  11.577
92451W        W62266  10.340  17.592  14.324
92452W        W62267  43.466  35.473   0.253
92453W        W62268  21.597  20.221   4.116
92454W        W62269  22.706  21.557  11.114
92455W        W62270  40.892   7.408   0.447
92456W        W62271  12.226  15.788   3.193
92457W        W62272  38.026   5.839  13.395
92458W        W62273   8.899   3.426   3.862
92459W        W62274  35.517  41.997   2.882
92460W        W62275  15.324  42.472   3.855
92461W        W62276  25.654  34.896  12.495
92462W        W62277  15.255  16.246   3.218
92463W        W62278  22.086   7.266  13.484
92464W        W62279  33.005  10.687   4.784
92465W        W62280  26.995  34.924  12.369
92466W        W62281  30.019  44.264  14.365
92467W        W62282  34.579   3.819  11.411
92468W        W62283   8.313   5.267   1.296
92469W        W62284   2.365  28.142  14.282
92470W        W62285  16.316  41.355   0.477
92471W        W62286  11.350  39.038  13.897
92472W        W62287  37.074  44.413  11.069
92473W        W62288  43.503   8.213  14.513
92474W        W62289  21.163  24.702  13.047
92475W        W62290   9.821  27.155   0.345
92476W        W62291  18.598  30.417   1.415
92477W        W62292   2.281  24.225  11.868
92478W        W62293  11.147  33.112   1.265
92479W        W62294  29.477  32.945  14.799
92480W        W62295   1.803   4.924   4.187
92481W        W62296  40.476  19.689   5.239
92482W        W62297  27.537  42.314   2.245
92483W        W62298  27.586  40.853   0.457
92484W        W62299  31.114   4.299   2.891
92485W        W62300  35.600  22.244  14.490
92486W        W62301  14.320  14.606   4.168
92487W        W62302  21.163   0.363   5.291
92488W        W62303  24.670  28.546  13.366
92489W        W62304  20.065  11.147   2.787
92490W        W62305  41.391  12.739   1.436
92491W        W62306  34.401  28.040  14.011
92492W        W62307  11.760  14.673  11.116
92493W        W62308  26.155  35.038   4.602
92494W        W62309  11.285  42.834   2.881
92495W        W62310  29.076   2.956   0.322
92496W        W62311  10.823  37.948  11.903
92497W        W62312  16.258  38.857  13.902
92498W        W62313  42.445   9.240  12.019
92499W        W62314   0.325  30.985   4.182
92500W        W62315   5.392  27.180  14.371
92501W        W62316  22.729  37.919  11.538
92502W        W62317  36.516  42.893  14.816
92503W        W62318  12.207  24.658   1.840
92504W        W62319  25.102  29.165   2.683
92505W        W62320  15.133  27.139  11.990
92506W        W62321  35.475   8.330  10.604
92507W        W62322   4.227  41.475  10.622
92508W        W62323  41.310  26.595  11.403
92509W        W62324   5.229  22.633  14.966
92510W        W62325   3.817  15.266  11.890
92511W        W62326  13.642  44.336   2.314
92512W        W62327  40.413   0.838   3.161
92513W        W62328   6.327  17.085   4.751
92514W        W62329  24.205   0.811   1.246
92515W        W62330  16.748   7.802  11.440
92516W        W62331  33.917  40.953  11.877
92517W        W62332   0.918   4.396   2.753
92518W        W62333  32.023  37.943   4.638
92519W        W62334   6.292  30.459  12.925
92520W        W62335   5.257   8.773   4.202
92521W        W62336  13.798  32.029  11.006
92522W        W62337  20.137  41.438  10.584
92523W        W62338  28.578   6.343  10.000
92524W        W62339  23.096   7.337  10.499
92525W        W62340  14.697  23.563   0.282
92526W        W62341   5.330  27.498   1.746
92527W        W62342  19.567  18.572   2.395
92528W        W62343  20.129  42.029   0.359
92529W        W62344  43.351  41.958  14.327
92530W        W62345  11.328   2.893  10.534
92531W        W62346   6.299  22.651   2.876
92532W        W62347  32.001   8.749   0.791
92533W        W62348   3.876  18.075  14.471
92534W        W62349  28.659  26.631   4.211
92535W        W62350  41.856  20.578   2.737
92536W        W62351  11.784   4.386   1.240
92537W        W62352  15.583  32.122  10.562
92538W        W62353  21.217  18.656  13.016
92539W        W62354  12.362   9.185  10.453
92540W        W62355  10.757  42.906   3.152
92541W        W62356  20.565  43.450   1.315
92542W        W62357  34.971  15.739  12.920
92543W        W62358  33.073  36.925  12.448
92544W        W62359   5.417  37.445   2.802
92545W        W62360  35.975  19.700  11.580
92546W        W62361   8.225  29.615   4.160
92547W        W62362  26.478  28.677  13.308
92548W        W62363  19.700  39.504   3.720
92549W        W62364  34.025  10.338  10.409
92550W        W62365  10.739  17.791   4.253
92551W        W62366   7.764  20.705  14.858
92552W        W62367  23.041  29.555  11.038
92553W        W62368  35.428  33.957   0.349
92554W        W62369  10.351  12.118   0.819
92555W        W62370  39.870  40.504  12.564
92556W        W62371  19.564  38.330   4.823
92557W        W62372  35.410  34.888  13.987
92558W        W62373  37.551  33.879   1.731
92559W        W62374  36.424  44.331   3.367
92560W        W62375   8.655  17.254   2.223
92561W        W62376  12.362  11.691   1.261
92562W        W62377  35.368  19.206  14.438
92563W        W62378  17.299  26.646   9.995
92564W        W62379  39.902  17.685   4.173
92565W        W62380  41.393   7.761  13.538
92566W        W62381  26.037  16.190  13.316
92567W        W62382  21.261  36.399   3.741
92568W        W62383  19.755  26.147  10.617
92569W        W62384  22.147   5.747  12.527
92570W        W62385   3.366  38.378  12.358
92571W        W62386  29.443  14.303   4.632
92572W        W62387  22.617  41.794  10.578
92573W        W62388  39.828   8.229   2.383
92574W        W62389  43.771   4.380  12.991
92575W        W62390  36.014  42.417   1.704
92576W        W62391  31.915  15.729   4.229
92577W        W62392  28.960  27.522  14.906
92578W        W62393  26.137  43.395   1.238
92579W        W62394  15.119  34.378  12.381
92580W        W62395   7.745  14.792   2.745
92581W        W62396   3.715  12.173   3.171
92582W        W62397  16.212  41.293   4.637
92583W        W62398  16.797   8.661  12.339
92584W        W62399   3.438  42.412  10.643
92585W        W62400  12.306  32.485  13.500
92586W        W62401  27.955  41.919  11.563
92587W        W62402  41.035   1.316   0.740
92588W        W62403   7.702   4.863   3.746
92589W        W62404  41.787   4.337   4.320
92590W        W62405  16.646  37.911  11.593
92591W        W62406   9.880  18.785  10.478
92592W        W62407  21.747  16.693  12.502
92593W        W62408  25.561  26.484   5.216
92594W        W62409  42.475  34.869   4.774
92595W        W62410  29.659  35.512  13.547
92596W        W62411  23.144  40.037   2.902
92597W        W62412  40.489  13.324  10.508
92598W        W62413  12.815  23.065   1.818
92599W        W62414   1.855   0.953  11.991
92600W        W62415  10.180  41.306  10.611
92601W        W62416  33.614  28.940  13.366
92602W        W62417  12.202   3.797   0.313
92603W        W62418  10.873  37.391   4.699
92604W        W62419  15.302  21.674   2.328
92605W        W62420   9.845  10.232   4.327
92606W        W62421  17.080   7.240   2.781
92607W        W62422  13.809  31.623  14.416
92608W        W62423   7.344   8.836   4.164
92609W        W62424  19.679  23.186  11.586
92610W        W62425   6.810  27.509   2.872
92611W        W62426  33.624   4.278   0.844
92612W        W62427  36.571  20.151  10.923
92613W        W62428  25.586  14.338   4.197
92614W        W62429  33.583  44.911  12.093
92615W        W62430  25.592   6.259  10.449
92616W        W62431  13.324  21.655   3.367
92617W        W62432  43.281  13.727  13.468
92618W        W62433  30.643   4.356  12.944
92619W        W62434  40.862  28.040   3.339
92620W        W62435  41.503   0.897   1.371
92621W        W62436  42.292   3.308  12.982
92622W        W62437  37.561  36.044   3.315
92623W        W62438  38.415  44.444   1.894
92624W        W62439   7.769  37.844   3.682
92625W        W62440  24.479  21.670   1.794
92626W        W62441  28.169   4.717  11.578
92627W        W62442   4.819  16.659  10.966
92628W        W62443  20.047  29.046   1.782
92629W        W62444  22.543  20.254   1.907
92630W        W62445  23.119   1.778   3.195
92631W        W62446   8.220  23.697  11.938
92632W        W62447   4.305   6.817  13.339
92633W        W62448  15.699  41.353  10.572
92634W        W62449   3.399  10.300  13.892
92635W        W62450  13.707   5.911  11.576
92636W        W62451  25.634  43.450  12.838
92637W        W62452  39.463  24.078   1.282
92638W        W62453  34.982   9.249  10.587
92639W        W62454   3.929   4.856  13.827
92640W        W62455  41.999  21.244  13.848
92641W        W62456  25.994  31.983   1.369
92642W        W62457  42.935  35.926   3.369
92643W        W62458  13.350  12.736   4.784
92644W        W62459   5.202  44.393  11.897
92645W        W62460  35.454  29.121   1.238
92646W        W62461  40.506  33.501  13.907
92647W        W62462  27.108  37.087   3.659
92648W        W62463   3.399  23.127  13.836
92649W        W62464   6.883  13.819  14.367
92650W        W62465   3.331  30.106  13.953
92651W        W62466  16.648   9.709   4.627
92652W        W62467  28.615  31.101  14.435
92653W        W62468  18.631   1.898  14.927
92654W        W62469   9.372  10.138   2.286
92655W        W62470  12.314  15.767  14.506
92656W        W62471  30.525  30.137   1.368
92657W        W62472   6.922   0.964   3.849
92658W        W62473  43.372  44.283   4.803
92659W        W62474  21.197  15.699  13.472
92660W        W62475   4.282  37.499   1.356
92661W        W62476  37.888  37.074  11.496
92662W        W62477  13.811  18.574   3.366
92663W        W62478  19.682   2.274  14.957
92664W        W62479  20.744   8.807   1.768
92665W        W62480  38.374  16.790  11.882
92666W        W62481  41.963   5.716  11.386
92667W        W62482  30.933   2.898   0.443
92668W        W62483  35.013  23.025  13.410
92669W        W62484  13.126  15.682  14.307
92670W        W62485   2.967  37.029   1.925
92671W        W62486  36.087  30.530  13.833
92672W        W62487  18.652  26.515   5.284
92673W        W62488  27.139   7.712   1.822
92674W        W62489  40.012  30.979  12.357
92675W        W62490  17.304  17.257  13.528
92676W        W62491  17.626  39.487  12.425
92677W        W62492  18.155  29.001  14.947
92678W        W62493   1.437  27.079   0.954
92679W        W62494  38.424  42.291   1.731
92680W        W62495   1.405  43.004   0.941
92681W        W62496  27.669  29.558   2.749
92682W        W62497  25.177  34.560   0.414
92683W        W62498   4.922  39.896   5.139
92684W        W62499  41.426  29.000   1.719
92685W        W62500  19.593  33.387  10.925
92686W        W62501  17.676  31.421   3.798
92687W        W62502  27.083   4.739   4.761
92688W        W62503  43.877  21.081  14.346
92689W        W62504   6.741  25.063  11.442
92690W        W62505  31.461  44.338  14.810
92691W        W62506  25.491  26.025   3.631
92692W        W62507  30.474  43.406  14.277
92693W        W62508  15.196  27.481   4.319
92694W        W62509   9.724  20.175   0.847
92695W        W62510  22.132  19.694  14.298
92696W        W62511   4.887   3.404  11.909
92697W        W62512  15.777   7.845  13.062
92698W        W62513  26.111  29.525   4.169
92699W        W62514  35.083  27.986  13.528
92700W        W62515  22.203  14.253  13.962
92701W        W62516  40.412   5.280  14.320
92702W        W62517  13.232  20.559  14.766
92703W        W62518  41.947  33.940   4.174
92704W        W62519   1.316  16.709   4.827
92705W        W62520  37.892  37.866   2.413
92706W        W62521  28.979  37.341  10.464
92707W        W62522  32.900  42.864   0.366
92708W        W62523  32.006  20.123   1.246
92709W        W62524  35.951   3.268   3.842
92710W        W62525   8.773  42.364  13.801
92711W        W62526  38.491   8.326  10.105
92712W        W62527  24.976  21.023   1.908
92713W        W62528  17.610   7.865   0.907
92714W        W62529  10.338  22.240   4.312
92715W        W62530   0.924  32.455   3.211
92716W        W62531  18.677   5.253  14.960
92717W        W62532  25.597  12.716  14.389
92718W        W62533  26.576  23.126  14.030
92719W        W62534  14.153   0.478  13.878
92720W        W62535  40.500   3.866   1.931
92721W        W62536  11.178  42.437  13.328
92722W        W62537  33.531  24.642  13.964
92723W        W62538   6.283  27.092  14.478
92724W        W62539   3.710  28.674   4.145
92725W        W62540  24.643  20.046  13.443
92726W        W62541  42.372  26.148   0.427
92727W        W62542  23.115  32.415   2.771
92728W        W62543  10.820  25.113   4.321
92729W        W62544   7.365  41.381   4.266
92730W        W62545  28.565  17.581   4.666
92731W        W62546  27.060   0.787  11.441
92732W        W62547  37.896   8.371   4.630
92733W        W62548  38.470  36.402  14.441
92734W        W62549  24.056  10.374  11.439
92735W        W62550  26.056  38.530  11.492
92736W        W62551   8.334  42.430  13.397
92737W        W62552   1.931  18.620  13.539
92738W        W62553  16.807  15.805  11.860
92739W        W62554  31.461  25.585   3.757
92740W        W62555  36.485  19.187   2.338
92741W        W62556  37.887   4.396   0.424
92742W        W62557   9.782  10.144  14.346
92743W        W62558  11.196   4.336   2.792
92744W        W62559  21.535  24.579   4.768
92745W        W62560  17.220  44.496  13.991
92746W        W62561  15.185   5.302   0.832
92747W        W62562  36.424  10.642  11.016
92748W        W62563  32.552   6.700   4.661
92749W        W62564  22.192  35.389   2.399
92750W        W62565  35.461   7.190  11.504
92751W        W62566  38.400  41.308   2.258
92752W        W62567  20.666  20.727  12.827
92753W        W62568   7.312  21.582  10.597
92754W        W62569  43.336  19.169  11.590
92755W        W62570   8.842  40.977  13.366
92756W        W62571  39.062  35.392   2.768
92757W        W62572   0.249  36.366  11.089
92758W        W62573  41.408  24.975  13.816
92759W        W62574   3.385  25.531  12.403
92760W        W62575   8.668  21.064  11.955
92761W        W62576  22.010  23.193  13.344
92762W        W62577  12.197   5.370  10.406
92763W        W62578  19.563  11.344  13.366
92764W        W62579  33.615  27.988  12.961
92765W        W62580   1.790  19.275   4.351
92766W        W62581  40.359   8.208   2.252
92767W        W62582  12.757   0.326   4.725
92768W        W62583   9.699  27.690   2.668
92769W        W62584  32.914  42.393   0.773
92770W        W62585  44.795  38.537  12.889
92771W        W62586  15.775  37.932  11.970
92772W        W62587  34.504   1.335   1.387
92773W        W62588  37.347  35.103  12.458
92774W        W62589   7.195  44.881  11.610
92775W        W62590  12.748  36.424   4.638
92776W        W62591  19.591  10.876   2.217
92777W        W62592  42.410  30.588  11.126
92778W        W62593  27.576  40.834   2.830
92779W        W62594  31.905  31.546   2.418
92780W        W62595  32.046  12.841  14.495
92781W        W62596  13.772  41.437  13.917
92782W        W62597   8.259   2.311   3.801
92783W        W62598  39.890  42.334  13.525
92784W        W62599  21.718  31.994  12.554
92785W        W62600  29.943   5.418   0.869
92786W        W62601  21.593  21.027  10.496
92787W        W62602   0.450   7.720  10.626
92788W        W62603   3.935  29.157   3.329
92789W        W62604  42.004   0.307  10.026
92790W        W62605   6.295  37.543   0.837
92791W        W62606  33.948  32.596  12.502
92792W        W62607  11.177  27.042   3.698
92793W        W62608  14.675  10.641  14.002
92794W        W62609  17.193  35.062  12.518
92795W        W62610   8.205  24.492   3.815
92796W        W62611  32.630  10.784  13.876
92797W        W62612  14.691  30.624   4.127
92798W        W62613   4.786  16.670  10.001
92799W        W62614  19.590  33.984   0.917
92800W        W62615  28.623  27.196  13.309
92801W        W62616   8.760   7.888   1.874
92802W        W62617  15.659  44.325  10.439
92803W        W62618   3.359   9.647   0.372
92804W        W62619  27.623  24.525   4.196
92805W        W62620  28.987   1.318   3.365
92806W        W62621  29.115  34.897  13.047
92807W        W62622  14.260  18.274  12.998
92808W        W62623  23.619  41.829  11.470
92809W        W62624  24.592  38.938  12.982
92810W        W62625  27.999  33.978  14.931
92811W        W62626  44.466  41.873  11.045
92812W        W62627  20.058  20.075   2.715
92813W        W62628  12.684  21.115  10.505
92814W        W62629  41.007   1.253   9.924
92815W        W62630  11.322  15.218   0.478
92816W        W62631  41.933  36.506   1.265
92817W        W62632  18.209  19.177  12.471
92818W        W62633  24.498  44.317  13.347
92819W        W62634  26.521   9.738   1.375
92820W        W62635  25.095  43.446  14.299
92821W        W62636   5.403   6.763   4.158
92822W        W62637  23.184  44.935  14.023
92823W        W62638  12.300  26.703   1.852
92824W        W62639   0.334   0.442  13.998
92825W        W62640  28.606  17.571   0.858
92826W        W62641  25.628   5.717   2.754
92827W        W62642  33.126  23.500  10.459
92828W        W62643  39.362  26.127   4.177
92829W        W62644   0.833  24.540   1.884
92830W        W62645  27.002  38.906   4.690
92831W        W62646  30.511  28.930  14.869
92832W        W62647  35.374  28.977   0.788
92833W        W62648  31.930  19.230   4.775
92834W        W62649   8.790  40.484   1.233
92835W        W62650  43.445  21.688   2.333
92836W        W62651  29.050  31.095  11.474
92837W        W62652  11.813  31.096   2.201
92838W        W62653  13.302   3.440   3.820
92839W        W62654  27.655  23.025   3.370
92840W        W62655  32.984  31.134  11.072
92841W        W62656  34.475  30.075   3.842
92842W        W62657  19.276   8.352  13.540
92843W        W62658  43.937  29.161  14.759
92844W        W62659  31.980  21.198   3.770
92845W        W62660  25.023  34.918   4.810
92846W        W62661  43.424  42.487  11.589
92847W        W62662  36.390   1.349  11.039
92848W        W62663  15.245  18.788  13.873
92849W        W62664  21.256   9.731  14.958
92850W        W62665  35.396  30.482   3.189
92851W        W62666  32.521  18.666  14.961
92852W        W62667  14.281  39.319   3.828
92853W        W62668   4.808  44.964  11.534
92854W        W62669  26.999  39.908  10.948
92855W        W62670  30.117  38.045   1.336
92856W        W62671  35.369   2.838  14.778
92857W        W62672  23.112  39.345  13.893
92858W        W62673  24.069   5.283  11.498
92859W        W62674   4.781  12.354   1.733
92860W        W62675  34.498  36.454   3.347
92861W        W62676   1.811  27.507  14.378
92862W        W62677   2.405  19.041   4.212
92863W        W62678  42.453  31.577   4.130
92864W        W62679  25.994   4.448  11.452
92865W        W62680   3.218  40.900   4.600
92866W        W62681  18.284  18.177  12.894
92867W        W62682  12.211   5.200  13.997
92868W        W62683  38.935  36.534  13.971
92869W        W62684  40.954   0.439  14.394
92870W        W62685   7.283  22.615   1.751
92871W        W62686  25.672  37.520   3.229
92872W        W62687  24.041  15.745   4.765
92873W        W62688   9.293  30.626  13.537
92874W        W62689  29.440  19.546   0.356
92875W        W62690  41.469  30.117  13.497
92876W        W62691  10.152  36.539  14.427
92877W        W62692  12.842   6.201   0.884
92878W        W62693  43.785  36.953   1.284
92879W        W62694   9.787  19.279  12.458
92880W        W62695   6.258  30.493  10.556
92881W        W62696  39.390  18.261  14.972
92882W        W62697   2.286  17.656  11.515
92883W        W62698  31.509  24.076  12.430
92884W        W62699  17.230  21.552   1.872
92885W        W62700  19.085  11.721   4.674
92886W        W62701  21.246  44.341  11.961
92887W        W62702  30.085  11.358   2.269
92888W        W62703  28.945  31.972  13.360
92889W        W62704   1.410  13.613   1.398
92890W        W62705   2.330  21.216  12.932
92891W        W62706   3.792  36.528   2.704
92892W        W62707   3.710  33.434   0.362
92893W        W62708   0.275   3.368   4.700
92894W        W62709  20.601  21.525  11.126
92895W        W62710  28.052   3.373   4.308
92896W        W62711  26.088  37.832  14.465
92897W        W62712  37.575  10.787  12.845
92898W        W62713  39.502   5.420   3.381
92899W        W62714  23.180   7.794   0.361
92900W        W62715   7.322  26.611   2.187
92901W        W62716   3.858  39.993   3.829
92902W        W62717  11.653  17.567   3.285
92903W        W62718  29.659  24.148   4.132
92904W        W62719  34.423  41.000  12.041
92905W        W62720   9.765   7.876  13.437
92906W        W62721  24.521   3.276  13.055
92907W        W62722   7.317  14.617  11.926
92908W        W62723  41.010  15.232   2.232
92909W        W62724  16.203   8.753   0.903
92910W        W62725  17.802  28.469   4.676
92911W        W62726  32.062  12.191   3.195
92912W        W62727  20.536  18.211  12.952
92913W        W62728  20.665   8.769   0.889
92914W        W62729  38.377   7.342   0.288
92915W        W62730   9.761  36.453  10.942
92916W        W62731   6.802   1.459  10.500
92917W        W62732  12.278  30.480   3.640
92918W        W62733  34.082  23.196  14.021
92919W        W62734   5.195  24.576   2.738
92920W        W62735  43.504   6.198   1.420
92921W        W62736   3.424  12.283  12.469
92922W        W62737  24.217  39.324   1.362
92923W        W62738  12.723  14.200   3.239
92924W        W62739   9.159  35.457  10.469
92925W        W62740  16.730   4.900   4.809
92926W        W62741  38.550  19.637  12.552
92927W        W62742  39.323  26.680  13.966
92928W        W62743   9.716  17.067  10.982
92929W        W62744  38.043  43.996  13.336
92930W        W62745  35.966  37.419   3.816
92931W        W62746  16.798  11.728  14.767
92932W        W62747   2.432  30.429   0.809
92933W        W62748   1.447  16.619   2.850
92934W        W62749  10.288  33.044   0.421
92935W        W62750  44.401  19.213   5.153
92936W        W62751  41.433  18.142  10.414
92937W        W62752   5.328  23.037  14.766
92938W        W62753  23.232  24.002  11.484
92939W        W62754  42.892  42.902  11.591
92940W        W62755   7.332  23.200   3.381
92941W        W62756   1.300   6.691   3.226
92942W        W62757  36.977  31.638  13.535
92943W        W62758  30.587  41.450  12.484
92944W        W62759   4.205  25.599   0.774
92945W        W62760  16.299  28.479   2.203
92946W        W62761  43.943   0.256  13.311
92947W        W62762  21.713   3.806  12.931
92948W        W62763  30.095   5.692   1.801
92949W        W62764  22.660   3.906  14.391
92950W        W62765  23.051  23.068   2.356
92951W        W62766  39.385  39.924  14.938
92952W        W62767  36.371   5.348  11.595
92953W        W62768  20.559  42.991  12.892
92954W        W62769  29.053  41.389   3.173
92955W        W62770  11.746  34.981  13.456
92956W        W62771  32.475  28.603  11.569
92957W        W62772  20.758  28.674  12.458
92958W        W62773  30.089  44.397   4.160
92959W        W62774  28.460  25.199   0.269
92960W        W62775  32.023  10.331   1.291
92961W        W62776   0.494  13.243   3.745
92962W        W62777   1.938   0.322  14.799
92963W        W62778  33.600  33.517  11.403
92964W        W62779   7.686  21.528  14.802
92965W        W62780  11.824   8.739   1.262
92966W        W62781  42.962  28.659   3.685
92967W        W62782  27.638  12.631   4.325
92968W        W62783  34.999  29.084  14.278
92969W        W62784  44.836  10.156   0.368
92970W        W62785   3.297  18.584   2.304
92971W        W62786   5.378  20.713   2.801
92972W        W62787  39.053  24.530  14.954
92973W        W62788  42.905  33.936   1.319
92974W        W62789  21.204  34.005  13.494
92975W        W62790  37.043  11.261  12.574
92976W        W62791  10.265  39.968  13.822
92977W        W62792  25.175  34.085   1.926
92978W        W62793  35.571  34.377  13.885
92979W        W62794  27.661  41.015  12.434
92980W        W62795  27.012  36.356   4.293
92981W        W62796  44.872  40.848  11.598
92982W        W62797  24.590  33.950  12.404
92983W        W62798  27.582  44.314  11.434
92984W        W62799  22.191  38.865  10.934
92985W        W62800  36.908   4.300   1.242
92986W        W62801   4.267  12.222  12.541
92987W        W62802  27.083  26.461   0.290
92988W        W62803  44.997  44.332   4.312
92989W        W62804   8.886  40.974   3.289
92990W        W62805  43.349  15.238   0.321
92991W        W62806   0.294   8.842  13.052
92992W        W62807  23.226  43.423   1.844
92993W        W62808  41.023   8.860   1.929
92994W        W62809  17.248  42.492   3.340
92995W        W62810  20.124   3.267  13.823
92996W        W62811  15.286  23.990  11.021
92997W        W62812   1.750   7.733  11.560
92998W        W62813  38.893  15.159   3.640
92999W        W62814  17.120  13.736  14.796
93000W        W62815  16.663   2.238  10.938
93001W        W62816   3.269  21.112  14.366
93002W        W62817   6.284  32.404   1.795
93003W        W62818  14.751   9.253  11.058
93004W        W62819   6.832  31.050  12.367
93005W        W62820   6.404  11.233   2.256
93006W        W62821  22.503  21.064  14.433
93007W        W62822   9.321  41.449   0.476
93008W        W62823  44.982  20.032   0.837
93009W        W62824  43.300   6.425   4.266
93010W        W62825  40.863  44.900   1.897
93011W        W62826  10.828  36.356  14.806
93012W        W62827  11.239   8.247   4.674
93013W        W62828   6.260  19.247  13.466
93014W        W62829  22.648  14.219  13.541
93015W        W62830  10.321   3.889  13.443
93016W        W62831  30.137  17.240   3.689
93017W        W62832  29.425  44.437  14.833
93018W        W62833  39.533  19.241  10.500
93019W        W62834  43.994   9.889  12.050
93020W        W62835  40.818   1.381  14.882
93021W        W62836  14.311  23.213  13.343
93022W        W62837  17.281  42.496  13.421
93023W        W62838  14.109  31.054   2.696
93024W        W62839   0.787   5.892   4.279
93025W        W62840   0.888  15.194  12.042
93026W        W62841  14.167  19.595  12.949
93027W        W62842  27.546   1.799   1.383
93028W        W62843  37.449  36.501  11.578
93029W        W62844   9.714  30.093  14.803
93030W        W62845  28.966   6.379   4.826
93031W        W62846   6.696  11.298  14.291
93032W        W62847  13.685  31.947  14.320
93033W        W62848  17.647   1.242  12.411
93034W        W62849  20.673  18.144   1.736
93035W        W62850   5.225  34.914   3.281
93036W        W62851  35.090  20.216  14.894
93037W        W62852  18.220  26.021   4.619
93038W        W62853   8.742  29.029   2.742
93039W        W62854  21.260  33.421   4.644
93040W        W62855  28.063  20.237  11.009
93041W        W62856  33.892   4.405   4.752
93042W        W62857  40.323   8.764   3.839
93043W        W62858  33.971  22.225  13.815
93044W        W62859  44.999  16.753  12.491
93045W        W62860   4.774  17.663   0.883
93046W        W62861  35.001  16.628   3.856
93047W        W62862  29.660  11.273   3.184
93048W        W62863  30.645  30.639   1.786
93049W        W62864  12.669   7.259   3.346
93050W        W62865   1.909  16.776  13.033
93051W        W62866  25.966  33.510  14.000
93052W        W62867  23.666   0.494   3.191
93053W        W62868  38.848  19.175   4.250
93054W        W62869  34.938  18.771  10.938
93055W        W62870   9.230  16.279  10.450
93056W        W62871   4.825   7.405   3.677
93057W        W62872  40.476  41.832   4.221
93058W        W62873   4.399  12.326  12.038
93059W        W62874  13.826  22.192   3.266
93060W        W62875   4.729  11.247  11.855
93061W        W62876  36.843  29.588  10.530
93062W        W62877   3.277  32.981  12.574
93063W        W62878  41.520  23.045  12.009
93064W        W62879  17.213  12.759  12.399
93065W        W62880  26.135  22.561  10.497
93066W        W62881  19.266   4.322   0.733
93067W        W62882  33.562  13.112  14.279
93068W        W62883  11.755  24.522   3.159
93069W        W62884  34.079  27.948  14.309
93070W        W62885   5.859  17.599   0.903
93071W        W62886  42.018  27.003  12.421
93072W        W62887   5.861   7.207   3.731
93073W        W62888  30.423  14.799   3.146
93074W        W62889   2.472  26.483   2.790
93075W        W62890  43.881  39.501  14.847
93076W        W62891  17.171  27.096   0.435
93077W        W62892  34.990  12.843  14.284
93078W        W62893  10.228   9.873   2.397
93079W        W62894  27.647  40.441  12.897
93080W        W62895  22.508  38.919   4.340
93081W        W62896  27.020  24.228  13.900
93082W        W62897   8.666  17.717  12.428
93083W        W62898  38.416  19.167  10.957
93084W        W62899  28.994  38.507   1.900
93085W        W62900  31.974  14.809   2.402
93086W        W62901  19.209  13.686  11.477
93087W        W62902   8.197   4.726   4.810
93088W        W62903  44.837  22.618   4.273
93089W        W62904   9.197  33.398  12.089
93090W        W62905  23.515  24.556  13.901
93091W        W62906  36.028  20.720   2.386
93092W        W62907  23.502   8.667  11.870
93093W        W62908  17.239  33.620   4.601
93094W        W62909   5.211  37.841   4.618
93095W        W62910  42.796  42.982  13.944
93096W        W62911  41.529  27.625  12.975
93097W        W62912  13.271  11.639   1.219
93098W        W62913  30.496  36.380  13.510
93099W        W62914  43.943  29.640  12.503
93100W        W62915  13.707  13.127   2.696
93101W        W62916  31.488  26.201   4.789
93102W        W62917  12.784   2.302   4.639
93103W        W62918  40.953  16.247   2.896
93104W        W62919  36.471  25.697   2.192
93105W        W62920  18.088   3.349   2.225
93106W        W62921   0.458  28.462   4.315
93107W        W62922  39.421  40.495  12.927
93108W        W62923  30.584  21.109  13.369
93109W        W62924  37.942   6.906  10.892
93110W        W62925  31.010  16.209   3.370
93111W        W62926  36.052  22.214  14.380
93112W        W62927  14.315   9.802  14.369
93113W        W62928  31.149  17.235   4.802
93114W        W62929  20.703  29.929   4.740
93115W        W62930  35.602  15.799   4.173
93116W        W62931   9.179  36.515  12.007
93117W        W62932  10.247  13.262   3.689
93118W        W62933  27.005  24.054   3.290
93119W        W62934   5.826  16.599  14.000
93120W        W62935  21.694  38.061   0.465
93121W        W62936  20.689  32.991   1.710
93122W        W62937  44.337  13.658   0.384
93123W        W62938  25.159  25.040   3.174
93124W        W62939  17.152  41.310   4.211
93125W        W62940  26.526  10.156   1.705
93126W        W62941  37.063  23.025  11.035
93127W        W62942  17.717   7.751   1.853
93128W        W62943  36.977  31.589  10.433
93129W        W62944  40.355  18.201  10.982
93130W        W62945  14.716  44.269  11.583
93131W        W62946  13.161   7.719  11.935
93132W        W62947  14.820  13.168   0.282
93133W        W62948  12.274  31.000  10.967
93134W        W62949   2.816  40.305  12.997
93135W        W62950  20.703  34.099   0.869
93136W        W62951  33.538  12.828  13.474
93137W        W62952   0.948  34.448  13.797
93138W        W62953  10.652  35.105  12.545
93139W        W62954  26.653  29.453   5.194
93140W        W62955  17.557  15.680  12.488
93141W        W62956  21.672  41.495  11.461
93142W        W62957  12.840  23.703   1.855
93143W        W62958   1.923  38.867   1.772
93144W        W62959  19.731  21.572  14.486
93145W        W62960  33.104   5.331  14.310
93146W        W62961   7.345  16.628  11.405
93147W        W62962  40.440  31.456  13.986
93148W        W62963  39.987  21.674  13.878
93149W        W62964  19.196  18.757  12.885
93150W        W62965  24.524  38.870   1.350
93151W        W62966  17.298  26.974   4.115
93152W        W62967   4.437   1.940   0.307
93153W        W62968   1.280   5.926  14.983
93154W        W62969  43.010  35.981   1.735
93155W        W62970   1.792  18.191   2.860
93156W        W62971  31.415  34.446  13.335
93157W        W62972   4.727  41.004   0.343
93158W        W62973  26.206  24.483   1.760
93159W        W62974  16.605   6.910  10.479
93160W        W62975  31.498  16.110   4.238
93161W        W62976  23.032  18.763   4.136
93162W        W62977  21.720  27.501  13.428
93163W        W62978  19.705  35.387  11.427
93164W        W62979  36.518  22.162  14.990
93165W        W62980  26.618  20.621   5.103
93166W        W62981  19.045  19.126  13.535
93167W        W62982  37.502  20.541   3.707
93168W        W62983  12.637  39.825   0.812
93169W        W62984  39.427  44.488   3.273
93170W        W62985  14.257  38.385   3.221
93171W        W62986   2.400  12.728  13.533
93172W        W62987  13.131  28.054   2.683
93173W        W62988  28.045  11.236  14.779
93174W        W62989   0.805  28.163   3.382
93175W        W62990   8.327  23.073  14.477
93176W        W62991  12.615   3.726  13.395
93177W        W62992  24.195  25.214  10.947
93178W        W62993  44.973  41.399   2.245
93179W        W62994  15.196   9.689   4.651
93180W        W62995   1.416  14.617  14.964
93181W        W62996  19.603  35.037  12.868
93182W        W62997   8.663  14.759   3.685
93183W        W62998  34.915  11.364  12.022
93184W        W62999  40.938  15.590   4.816
93185W        W63000   0.820  44.483  10.518
93186W        W63001  12.802  10.869   2.851
93187W        W63002  21.691  38.354  13.315
93188W        W63003  25.637  42.794  12.016
93189W        W63004  37.854  37.075  12.979
93190W        W63005  21.623  21.103   2.839
93191W        W63006  26.100  40.380  10.131
93192W        W63007  22.548  30.913   2.889
93193W        W63008  42.983  22.632  11.568
93194W        W63009   2.778  31.085  11.079
93195W        W63010   7.756  30.525  11.463
93196W        W63011  14.170  33.000  10.638
93197W        W63012  17.146  16.590   4.662
93198W        W63013  39.818  10.756  14.956
93199W        W63014  33.504  17.606   2.708
93200W        W63015  25.491  22.107   9.955
93201W        W63016  12.198  18.106   4.835
93202W        W63017  44.004   1.745   1.783
93203W        W63018   0.891  13.831   1.278
93204W        W63019  17.240   0.404  13.896
93205W        W63020  29.039  37.911   1.424
93206W        W63021  36.007  40.386  10.999
93207W        W63022  43.798  23.654  11.472
93208W        W63023   9.835   1.239  11.418
93209W        W63024  27.622  40.464   4.278
93210W        W63025   7.333  17.640  11.505
93211W        W63026   0.425  20.076  12.581
93212W        W63027   1.464  14.119   0.856
93213W        W63028   1.946   8.778   0.907
93214W        W63029  39.834  34.044  11.475
93215W        W63030  13.840  27.061  13.925
93216W        W63031  23.227  31.144  11.889
93217W        W63032  26.093   8.330   2.701
93218W        W63033  25.597   4.314  11.552
93219W        W63034  17.568   0.943   0.457
93220W        W63035  28.108  17.594  13.385
93221W        W63036  10.641  42.927  13.900
93222W        W63037   3.892  16.211  13.534
93223W        W63038  14.225  30.633  12.538
93224W        W63039  13.246  33.035   3.794
93225W        W63040  14.816   2.899  13.928
93226W        W63041   3.768  42.477   3.379
93227W        W63042  17.645  11.293   2.376
93228W        W63043  22.141  41.862  10.584
93229W        W63044  30.957   8.755   0.832
93230W        W63045   2.851  26.598  12.897
93231W        W63046   0.927  11.368  13.981
93232W        W63047  22.019  19.060  11.007
93233W        W63048  12.635  12.627  12.086
93234W        W63049   0.317  26.648   4.229
93235W        W63050  38.060  13.720   4.734
93236W        W63051  11.700  35.474  14.399
93237W        W63052  26.063  10.833   3.733
93238W        W63053   5.735  13.192   3.741
93239W        W63054  38.983  27.661   4.733
93240W        W63055  17.106  31.993  13.523
93241W        W63056  23.710  17.171  12.044
93242W        W63057  24.031  26.013   0.924
93243W        W63058  44.983  29.937  13.843
93244W        W63059  12.688  36.095  13.346
93245W        W63060  43.849  29.112   2.343
93246W        W63061  17.580  40.853   2.382
93247W        W63062  23.542  38.502  10.559
93248W        W63063  42.310  44.309   1.866
93249W        W63064  13.223   3.865   4.263
93250W        W63065   2.228  16.232  14.946
93251W        W63066  10.259  13.301  13.996
93252W        W63067   0.312  30.456  13.909
93253W        W63068  44.887  10.229  10.521
93254W        W63069  11.286   2.960  11.402
93255W        W63070  14.744  13.649  12.911
93256W        W63071  17.182  41.506   2.294
93257W        W63072  33.040  30.912   3.740
93258W        W63073  26.478  33.596   3.180
93259W        W63074  13.750  19.268  11.907
93260W        W63075  33.887  13.656  14.442
93261W        W63076   9.332  26.456  12.527
93262W        W63077  34.379   6.416  10.475
93263W        W63078  29.452  36.454   1.848
93264W        W63079  25.633  22.105   3.867
93265W        W63080  41.526  12.675  13.035
93266W        W63081   6.781  40.532  11.924
93267W        W63082  43.939  17.196   1.810
93268W        W63083  37.348  15.602  13.928
93269W        W63084  24.207   9.731  12.526
93270W        W63085  13.134  12.854   3.277
93271W        W63086  17.664   1.389  13.375
93272W        W63087   5.333  19.276   4.182
93273W        W63088  13.251   4.262  11.114
93274W        W63089  42.298   1.787   4.145
93275W        W63090   9.279  18.724   0.404
93276W        W63091  23.621  28.572   4.187
93277W        W63092  43.971  36.378  10.450
93278W        W63093  17.771  16.217  13.815
93279W        W63094  40.305   2.757  12.438
93280W        W63095   9.760  14.281  12.032
93281W        W63096  10.384  30.566   1.749
93282W        W63097   9.862  17.288  10.542
93283W        W63098  26.699  43.357  13.954
93284W        W63099   2.269  22.047   1.699
93285W        W63100  18.707   9.662   3.677
93286W        W63101  33.121  37.945   0.460
93287W        W63102  42.419  25.574   1.394
93288W        W63103  41.942   6.858   3.676
93289W        W63104  18.654  16.269  11.379
93290W        W63105  15.820   8.687  14.342
93291W        W63106  14.170   3.371  13.824
93292W        W63107   0.819   1.756   3.284
93293W        W63108  20.240  14.274  13.856
93294W        W63109   2.862  23.529  12.895
93295W        W63110   5.296  28.514  12.459
93296W        W63111  27.943  38.449   2.340
93297W        W63112   6.782  17.306  11.472
93298W        W63113  37.955  26.153   4.808
93299W        W63114  24.498  43.354  11.978
93300W        W63115   3.754  23.550  10.494
93301W        W63116  33.068  27.085   3.219
93302W        W63117  43.432  41.307   3.766
93303W        W63118  31.126  15.262   0.283
93304W        W63119  42.354  26.554  12.510
93305W        W63120  11.246   7.337  14.400
93306W        W63121  17.729   9.303   3.674
93307W        W63122  30.431  36.422  13.866
93308W        W63123  15.226  28.001   3.657
93309W        W63124   4.910  43.481   4.832
93310W        W63125  22.234  17.185  12.903
93311W        W63126  16.758  19.120   1.896
93312W        W63127  30.521  25.620   1.430
93313W        W63128  21.060  40.896  13.437
93314W        W63129  43.364   9.745   2.246
93315W        W63130   0.965  39.900   0.449
93316W        W63131   5.752  41.961  14.471
93317W        W63132  41.890  14.700  11.969
93318W        W63133   0.333  26.514   1.716
93319W        W63134  30.995   4.914  11.919
93320W        W63135  39.843  10.792  13.506
93321W        W63136   7.876  19.206   2.292
93322W        W63137  23.220   6.784   4.709
93323W        W63138  32.559   2.328  14.854
93324W        W63139  15.145  39.324  12.447
93325W        W63140  38.051  34.888   3.669
93326W        W63141   2.363   8.304   1.853
93327W        W63142   9.368  13.687   3.267
93328W        W63143  20.571   9.360  12.537
93329W        W63144  35.904  17.598   3.352
93330W        W63145  24.165  23.588   0.407
93331W        W63146   3.307  42.380  11.097
93332W        W63147  43.950  11.339   2.893
93333W        W63148  44.810  18.051  11.399
93334W        W63149  18.570  20.763  10.949
93335W        W63150   6.818  29.042   0.787
93336W        W63151  33.384  18.223   2.756
93337W        W63152  10.664   2.724   3.785
93338W        W63153   8.770  43.400  13.478
93339W        W63154  25.122  24.148   3.706
93340W        W63155  35.932   6.345  11.479
93341W        W63156  38.350   0.285  14.830
93342W        W63157  36.444  23.601  13.955
93343W        W63158   3.375  16.140  10.498
93344W        W63159  24.523  22.202   0.926
93345W        W63160  41.922  11.787   9.974
93346W        W63161   9.303  36.370  13.817
93347W        W63162  25.606   6.256  11.078
93348W        W63163  34.081  38.839   4.740
93349W        W63164  11.820  18.050  12.854
93350W        W63165  17.255  25.156   2.277
93351W        W63166  16.221   1.349   1.717
93352W        W63167  41.381   5.759  12.974
93353W        W63168  14.645  16.761   3.325
93354W        W63169   6.721  28.550   4.191
93355W        W63170  11.671  37.957   1.211
93356W        W63171  34.095  44.758   1.403
93357W        W63172  28.080  31.413  14.910
93358W        W63173  23.621  14.124   4.201
93359W        W63174  41.388  23.234   3.212
93360W        W63175   8.834  44.005  13.372
93361W        W63176  22.527  44.763   1.261
93362W        W63177  13.613  11.146   1.444
93363W        W63178  23.038  18.675   5.108
93364W        W63179  21.227   5.697  14.012
93365W        W63180  26.520  13.331   3.755
93366W        W63181  14.697  15.195  12.472
93367W        W63182  35.558   4.422  11.610
93368W        W63183  31.120  43.464   0.475
93369W        W63184  21.152   6.806   1.329
93370W        W63185   4.892  10.864   4.730
93371W        W63186   4.930  27.131   4.317
93372W        W63187   7.706  26.961  11.989
93373W        W63188  15.207  22.188  10.956
93374W        W63189  22.053  43.992  10.560
93375W        W63190  18.638  43.412  13.479
93376W        W63191  33.051  26.088  14.031
93377W        W63192  33.042   9.686   1.291
93378W        W63193  24.142  36.921   4.692
93379W        W63194   0.982  30.656   0.817
93380W        W63195  32.485  31.584   4.257
93381W        W63196  16.802  15.750   2.276
93382W        W63197  24.518   7.867   1.258
93383W        W63198   4.266   3.247   2.303
93384W        W63199  27.171  14.599   3.273
93385W        W63200   2.392  19.057  12.396
93386W        W63201  17.117  37.855  10.587
93387W        W63202  12.792  20.232   0.433
93388W        W63203   4.792  43.993  13.426
93389W        W63204  23.143   5.435  11.468
93390W        W63205  20.597  29.583  13.474
93391W        W63206  29.941   5.724  13.042
93392W        W63207   3.220  13.258   2.411
93393W        W63208   3.237  38.948  13.979
93394W        W63209  12.357  12.335  13.358
93395W        W63210  22.647  17.168   4.688
93396W        W63211  41.996  28.439   0.297
93397W        W63212  30.964  12.652   4.787
93398W        W63213  32.913  27.096   2.348
93399W        W63214  42.991  24.702   3.737
93400W        W63215  32.569  20.536   0.419
93401W        W63216   5.931  37.369  11.075
93402W        W63217  42.845   8.276  13.541
93403W        W63218  33.914  40.043  13.450
93404W        W63219  35.587  35.368  11.115
93405W        W63220  40.848  39.378   4.635
93406W        W63221   0.468   7.861  11.573
93407W        W63222  43.797   5.204  12.366
93408W        W63223   0.389  25.594   3.638
93409W        W63224  31.007  18.285   4.685
93410W        W63225  33.438  44.418   4.126
93411W        W63226  12.816  18.568   9.924
93412W        W63227  26.074  42.462   4.786
93413W        W63228  14.156   4.910   0.794
93414W        W63229   1.752  41.867   2.367
93415W        W63230  15.671   6.379   1.443
93416W        W63231  15.290   0.836   0.776
93417W        W63232   0.384  19.055   0.296
93418W        W63233   1.433  12.352  13.320
93419W        W63234   4.308  24.602   3.182
93420W        W63235  24.007   2.951   2.848
93421W        W63236  16.142  25.987  10.547
93422W        W63237  10.226  44.932   1.917
93423W        W63238  30.537  20.073  14.956
93424W        W63239   9.780  40.803  13.874
93425W        W63240  34.930  38.946  11.473
93426W        W63241  11.852  12.337  13.408
93427W        W63242  18.114   8.846   0.304
93428W        W63243  42.347  21.637   3.255
93429W        W63244  44.406  18.631  10.009
93430W        W63245  34.612   5.386   0.328
93431W        W63246  18.181  30.979   4.160
93432W        W63247  29.924  18.572   2.417
93433W        W63248  14.118  41.434   0.262
93434W        W63249  18.266  38.329  11.572
93435W        W63250  34.989  11.652   0.430
93436W        W63251  29.948  27.570   1.803
93437W        W63252  21.122  35.457  12.017
93438W        W63253  12.295  22.539  14.015
93439W        W63254  28.456  37.495   3.719
93440W        W63255  41.929  11.845   1.850
93441W        W63256   8.162  42.304  14.493
93442W        W63257   6.873  25.613   1.806
93443W        W63258   3.230  41.291   3.239
93444W        W63259   9.149   7.693   3.658
93445W        W63260  14.683  24.544  13.399
93446W        W63261  22.149  25.168  13.495
93447W        W63262  12.362  10.246   0.279
93448W        W63263  17.101  31.081  10.940
93449W        W63264  12.730  18.572  13.935
93450W        W63265  16.794  42.812   4.214
93451W        W63266   4.222  19.612  13.393
93452W        W63267  12.322  14.290  10.549
93453W        W63268  30.595  42.300  14.009
93454W        W63269  13.248   7.864  10.590
93455W        W63270   2.423   5.244  14.860
93456W        W63271  14.315   3.915  11.086
93457W        W63272  38.829  21.128  13.022
93458W        W63273  41.879  21.643   2.810
93459W        W63274  12.146  16.285   1.223
93460W        W63275  31.425  14.616  14.328
93461W        W63276  11.302  19.235  14.903
93462W        W63277   9.314  42.897   4.170
93463W        W63278  19.672   7.188  10.974
93464W        W63279  19.559  38.477   0.954
93465W        W63280  36.864  28.094   1.800
93466W        W63281  18.120   6.713  11.009
93467W        W63282  39.994   2.845   4.187
93468W        W63283  27.101  38.361  12.989
93469W        W63284   7.681  27.091   4.315
93470W        W63285  14.720  28.628   0.476
93471W        W63286   3.290  43.305  11.476
93472W        W63287   6.327  33.892   1.851
93473W        W63288  26.598  44.962  13.400
93474W        W63289  28.484  24.977   1.853
93475W        W63290   1.870  16.793   4.776
93476W        W63291  29.965  42.497   4.716
93477W        W63292  21.105  35.889   3.182
93478W        W63293   2.761   4.318  14.992
93479W        W63294  43.354  17.742   2.413
93480W        W63295  31.922  38.051  10.966
93481W        W63296  29.549  14.291   1.416
93482W        W63297  43.323  28.168  10.527
93483W        W63298  27.118  39.815  14.975
93484W        W63299  11.233  43.767  11.409
93485W        W63300  34.042  21.089   3.264
93486W        W63301   7.317  21.736   0.939
93487W        W63302  18.716  43.409   1.359
93488W        W63303   1.323  32.414  14.827
93489W        W63304  22.654  36.457  14.489
93490W        W63305  11.210   3.375  11.058
93491W        W63306  44.789  15.638  10.537
93492W        W63307  19.195   1.438  13.459
93493W        W63308   8.869  26.956   0.467
93494W        W63309  22.091   9.393   0.852
93495W        W63310   6.278  20.672  11.076
93496W        W63311  36.448   6.193  13.365
93497W        W63312   3.923  34.996  14.397
93498W        W63313  21.582   6.730  10.518
93499W        W63314   7.389  22.078  12.982
93500W        W63315  18.126  20.709   4.626
93501W        W63316  28.139  36.073   0.409
93502W        W63317  32.942   9.879  11.561
93503W        W63318  17.624   9.867  10.480
93504W        W63319   0.892   3.869  13.022
93505W        W63320  13.743   9.782  12.910
93506W        W63321  10.656  28.571  13.343
93507W        W63322  23.121  29.048   3.641
93508W        W63323  25.080  40.505  14.403
93509W        W63324  16.222  37.051  10.612
93510W        W63325  32.133   1.372  12.914
93511W        W63326  29.530  36.485   1.409
93512W        W63327   3.766  17.226  12.493
93513W        W63328  13.825  36.415   2.879
93514W        W63329  42.925  32.046  13.317
93515W        W63330  10.251  42.381   1.899
93516W        W63331  38.324  29.022  11.393
93517W        W63332  35.459  29.100  11.553
93518W        W63333  41.824  10.859  12.018
93519W        W63334   0.485  14.323   5.207
93520W        W63335  40.309  44.269   1.857
93521W        W63336  33.127  38.356  12.536
93522W        W63337  26.519  33.945   2.409
93523W        W63338  41.419  30.953  14.494
93524W        W63339   0.453  21.581   3.246
93525W        W63340  19.615   1.772  13.058
93526W        W63341  11.241  13.732  13.919
93527W        W63342   1.777  42.862   0.373
93528W        W63343  26.481  40.013   3.647
93529W        W63344  44.370   0.868   2.759
93530W        W63345  26.012  32.457   3.869
93531W        W63346  32.018  31.583   2.861
93532W        W63347  40.021   6.828  13.056
93533W        W63348  21.660  25.070   0.405
93534W        W63349  26.032   2.922   2.893
93535W        W63350   7.174  22.042   2.792
93536W        W63351  25.101  29.599  11.452
93537W        W63352  15.608  44.412   0.751
93538W        W63353  25.133  22.557  12.941
93539W        W63354  24.487  41.878   4.724
93540W        W63355  38.822  24.099   1.226
93541W        W63356  23.089  18.740   9.992
93542W        W63357  20.711   9.373  11.007
93543W        W63358  10.810  34.947  11.939
93544W        W63359  11.671  44.804  14.836
93545W        W63360  13.694   2.909   2.774
93546W        W63361   4.928  40.308   5.267
93547W        W63362  16.113  38.821   1.922
93548W        W63363  33.471   8.886   4.763
93549W        W63364   2.930  24.219   2.831
93550W        W63365  38.431   5.852   0.739
93551W        W63366  11.173  42.013  13.865
93552W        W63367  30.134  20.170   0.945
93553W        W63368  22.582  44.973  11.128
93554W        W63369  34.898   0.344   2.274
93555W        W63370  12.810  13.845   2.721
93556W        W63371  28.997  26.563   2.754
93557W        W63372  33.615  15.175   3.297
93558W        W63373  27.160  22.691  10.943
93559W        W63374  33.543   9.655   0.303
93560W        W63375  24.146  23.703   1.445
93561W        W63376  40.047  13.183   0.250
93562W        W63377  29.564  15.112   0.953
93563W        W63378  28.976  14.742   0.834
93564W        W63379  29.653  12.785   0.458
93565W        W63380  22.585  39.027  13.014
93566W        W63381  37.080  24.975  12.476
93567W        W63382  36.578  11.833   2.680
93568W        W63383  20.124  44.500  14.802
93569W        W63384  26.204  21.692  13.474
93570W        W63385  42.465  10.753   3.709
93571W        W63386   9.177   8.699  14.908
93572W        W63387  33.515  41.481   1.238
93573W        W63388   1.757  27.186   3.642
93574W        W63389  33.418  30.647  14.443
93575W        W63390   5.781  21.531  11.984
93576W        W63391  42.777  20.209  14.414
93577W        W63392   4.836   6.781   2.283
93578W        W63393  20.698  10.706  13.478
93579W        W63394   5.293   8.355   3.383
93580W        W63395   5.742  41.907  14.908
93581W        W63396  19.272  20.537   3.256
93582W        W63397  10.727   1.839  13.038
93583W        W63398   4.843  11.769   0.875
93584W        W63399  29.103  36.492   3.366
93585W        W63400  14.650  24.106   4.799
93586W        W63401   8.301  35.107  11.079
93587W        W63402  21.116   8.349  11.461
93588W        W63403  10.378  40.904  10.925
93589W        W63404   4.922  31.612  11.097
93590W        W63405  20.075  32.092  11.889
93591W        W63406  20.546  18.281  12.520
93592W        W63407  33.901  19.183   0.777
93593W        W63408  29.470   5.817   2.743
93594W        W63409  36.429  10.696   3.691
93595W        W63410  30.030  15.295  11.443
93596W        W63411  37.001   5.434   0.826
93597W        W63412  13.659  41.997   2.405
93598W        W63413   3.325  11.720   0.265
93599W        W63414  12.633  15.289  12.873
93600W        W63415  24.683  12.194  14.894
93601W        W63416  39.347  18.123  13.956
93602W        W63417   5.844  27.992  13.921
93603W        W63418  28.087  30.142   4.750
93604W        W63419  41.310   6.904   2.238
93605W        W63420  35.970  21.186  11.890
93606W        W63421  25.213  16.770  13.950
93607W        W63422  11.294  16.701   1.347
93608W        W63423  25.135  19.573  10.977
93609W        W63424  20.712   6.782  14.502
93610W        W63425  42.328   6.901  13.873
93611W        W63426  31.972   0.790  13.408
93612W        W63427  13.151  44.460  10.040
93613W        W63428  27.492  40.015   3.340
93614W        W63429  20.759   8.845   2.368
93615W        W63430  25.972  31.542   3.240
93616W        W63431   3.769  15.633  14.478
93617W        W63432  38.358   3.753  12.373
93618W        W63433  38.957  15.754   3.701
93619W        W63434  25.507  16.661  13.943
93620W        W63435  39.371  10.261  14.779
93621W        W63436   5.360  44.756   1.788
93622W        W63437  28.975  37.486   0.421
93623W        W63438   2.827  33.109  12.378
93624W        W63439  39.046  19.145   0.896
93625W        W63440   2.399   4.205   2.806
93626W        W63441  34.388   9.168  10.914
93627W        W63442  22.050  17.188  14.843
93628W        W63443   6.303  29.164   4.160
93629W        W63444  14.688  32.905   0.243
93630W        W63445  11.836  34.080   3.241
93631W        W63446   3.806  25.689   1.237
93632W        W63447  25.012  30.069   3.751
93633W        W63448  44.271   7.900   4.716
93634W        W63449   8.765  14.336  10.530
93635W        W63450  36.852  16.716  11.925
93636W        W63451  34.426  22.653  14.395
93637W        W63452  33.464  40.939  10.624
93638W        W63453  29.064  38.490   4.231
93639W        W63454  10.270   4.800  10.571
93640W        W63455  26.553  21.623  14.385
93641W        W63456  30.918   4.819   5.163
93642W        W63457  37.571  37.475   0.780
93643W        W63458  22.156  16.591   9.543
93644W        W63459  39.325   3.217  14.312
93645W        W63460  28.538  43.318   0.910
93646W        W63461  23.088  44.989  12.038
93647W        W63462   9.309  20.713   4.770
93648W        W63463  10.825  39.847  14.795
93649W        W63464  26.152  32.486  14.764
93650W        W63465  20.043  10.344  11.877
93651W        W63466  29.481   6.905   2.668
93652W        W63467  23.006  22.627   4.656
93653W        W63468  41.516  21.647   4.213
93654W        W63469  20.199  27.454   0.382
93655W        W63470  15.221  43.815   4.698
93656W        W63471  38.909  36.954   1.825
93657W        W63472  18.216  32.636  14.855
93658W        W63473   9.833  17.661   4.654
93659W        W63474  20.693  32.997   4.796
93660W        W63475  13.240   8.791  13.431
93661W        W63476  27.504  25.646   0.327
93662W        W63477  12.271  17.768   3.746
93663W        W63478   6.825  22.044  14.397
93664W        W63479  34.418  18.675   0.828
93665W        W63480   5.855   9.255  10.512
93666W        W63481  31.145  11.234   0.922
93667W        W63482  36.964  36.370   2.391
93668W        W63483  13.131  15.670  11.960
93669W        W63484   6.232  20.116  14.768
93670W        W63485  36.043  32.976   2.899
93671W        W63486  24.484  38.347  12.926
93672W        W63487  21.204   4.812   2.366
93673W        W63488  29.106  17.692   1.708
93674W        W63489  31.083   1.841   5.170
93675W        W63490   6.845  26.618  11.529
93676W        W63491  29.041  40.328  11.119
93677W        W63492   8.685  25.578  12.438
93678W        W63493  39.478   5.923  13.055
93679W        W63494  39.351  11.698   1.723
93680W        W63495  29.523  40.030  14.770
93681W        W63496  11.860  17.072   2.876
93682W        W63497  31.145  29.580   1.395
93683W        W63498  24.641  44.377  14.455
93684W        W63499  13.638  35.878  13.043
93685W        W63500   5.437   7.765  10.900
93686W        W63501  18.684   9.174   1.213
93687W        W63502  10.756   7.260  11.073
93688W        W63503  31.042   8.266  11.981
93689W        W63504   9.315  29.122  14.008
93690W        W63505  39.384  26.666  12.881
93691W        W63506  31.090  22.740  10.587
93692W        W63507  43.314  13.773   0.479
93693W        W63508  44.914  38.556  11.605
93694W        W63509  34.897  25.129  11.868
93695W        W63510  42.855  30.005   3.751
93696W        W63511   1.918  30.416  10.632
93697W        W63512   6.914  11.335   3.188
93698W        W63513  34.593  13.735   2.191
93699W        W63514  27.577   6.231  12.459
93700W        W63515  38.369   6.296  11.018
93701W        W63516  44.305  10.784  12.840
93702W        W63517  31.118   5.885   0.303
93703W        W63518  43.501  24.025  12.518
93704W        W63519   0.871  29.045  14.788
93705W        W63520  14.271  43.332  10.999
93706W        W63521  41.501  28.134   2.854
93707W        W63522  12.170   8.313   3.785
93708W        W63523  28.027   9.685   2.741
93709W        W63524  40.863  42.497  11.090
93710W        W63525  16.777  17.572   0.343
93711W        W63526  38.433  11.692  11.862
93712W        W63527   3.921   9.814  11.866
93713W        W63528  10.713  39.542   2.369
93714W        W63529  16.239  21.220  14.879
93715W        W63530   6.408  14.317  11.993
93716W        W63531  27.028  11.759  12.044
93717W        W63532   5.336  16.744   1.337
93718W        W63533  21.056  32.413   2.678
93719W        W63534  25.017  18.281  11.399
93720W        W63535  28.076   4.422   1.865
93721W        W63536  26.556  28.097   0.468
93722W        W63537  22.697  29.946  10.467
93723W        W63538  32.420   9.882   2.349
93724W        W63539  32.974   5.892   4.722
93725W        W63540  36.541  28.479   4.163
93726W        W63541  39.349  22.653   0.788
93727W        W63542   1.901  15.656  10.490
93728W        W63543  24.659   7.839  11.925
93729W        W63544   5.223   3.719  13.464
93730W        W63545  35.023  30.580  10.941
93731W        W63546  10.179   6.811  12.514
93732W        W63547  38.516  36.879  11.052
93733W        W63548  44.458  43.968  12.406
93734W        W63549   5.341  28.549  10.493
93735W        W63550  19.675   1.843   4.631
93736W        W63551  25.015  37.931  11.985
93737W        W63552   5.700  16.214  13.356
93738W        W63553  38.529  18.547  13.486
93739W        W63554  43.277  22.057  14.866
93740W        W63555  22.141  19.079   0.920
93741W        W63556  11.741  21.693  13.334
93742W        W63557  16.072  38.547  13.328
93743W        W63558  44.821  15.170   1.840
93744W        W63559  14.776  43.822  13.852
93745W        W63560  42.996  36.891   0.274
93746W        W63561  30.091  34.977  10.555
93747W        W63562  30.054  16.712  13.487
93748W        W63563  44.772  15.777   2.718
93749W        W63564   4.288  38.865  10.897
93750W        W63565  42.795  13.744  12.974
93751W        W63566  14.597  22.036  13.920
93752W        W63567  42.303  34.996  13.379
93753W        W63568  27.053   6.795  13.432
93754W        W63569  10.752  23.011  11.106
93755W        W63570  27.664  21.643   2.817
93756W        W63571  25.626   6.281  13.001
93757W        W63572  22.720   0.276  13.505
93758W        W63573  11.700  26.093   4.716
93759W        W63574   0.465   7.248   1.411
93760W        W63575  40.393  25.481   2.260
93761W        W63576  32.015  10.786   1.279
93762W        W63577  28.988  24.587  12.347
93763W        W63578  29.987  21.602  13.955
93764W        W63579  35.980  41.022  12.532
93765W        W63580  27.579  11.367   0.409
93766W        W63581  31.137  23.175   4.705
93767W        W63582  17.219  32.477   3.204
93768W        W63583  44.953  42.858  10.488
93769W        W63584   1.951   7.747  13.935
93770W        W63585  11.798  38.070  13.030
93771W        W63586   4.717  25.595   1.912
93772W        W63587  35.474  17.072   4.678
93773W        W63588   9.373  25.087   2.199
93774W        W63589  33.419  42.788  13.421
93775W        W63590   8.753  14.309  14.451
93776W        W63591  39.868  11.176   1.710
93777W        W63592  13.821  15.684   3.323
93778W        W63593  21.117  37.024  10.933
93779W        W63594  31.569  36.937  11.590
93780W        W63595  19.707   9.302   4.319
93781W        W63596   4.320  33.533   1.308
93782W        W63597  12.334  39.883   0.854
93783W        W63598  23.604  19.681  14.456
93784W        W63599  38.070  26.126   1.822
93785W        W63600   6.287   8.801   0.249
93786W        W63601  10.162  26.465   1.355
93787W        W63602  33.073   0.957   0.410
93788W        W63603  19.655  40.365   2.278
93789W        W63604  24.524   0.749   1.431
93790W        W63605   6.905   8.895  14.979
93791W        W63606  43.511  30.139  11.535
93792W        W63607  16.304  22.656  13.427
93793W        W63608  43.983  36.968  13.499
93794W        W63609  29.022  25.474   0.422
93795W        W63610  17.269  10.685  10.012
93796W        W63611  17.605  21.715  12.837
93797W        W63612  25.062  43.882  14.454
93798W        W63613  32.464   5.275   0.277
93799W        W63614   2.455   0.972  12.085
93800W        W63615  28.610  14.716   4.736
93801W        W63616   1.271  29.099   3.784
93802W        W63617  30.986  41.790  11.536
93803W        W63618  43.434  44.947  13.924
93804W        W63619   6.337  19.149   0.951
93805W        W63620  38.872   9.253   2.193
93806W        W63621  42.401  10.839   1.343
93807W        W63622   4.846  38.421  14.794
93808W        W63623  10.198  26.076   1.773
93809W        W63624  25.712  38.494   4.787
93810W        W63625  43.892  31.952  12.864
93811W        W63626   4.439  13.146  14.420
93812W        W63627  21.695  37.052  13.502
93813W        W63628  44.478  18.176   3.822
93814W        W63629  25.596  10.208   2.204
93815W        W63630  41.329   2.720   4.220
93816W        W63631  41.533  20.555   1.266
93817W        W63632  15.801   9.680  10.481
93818W        W63633  32.499  13.599   1.903
93819W        W63634  42.419  30.441  11.507
93820W        W63635  10.218  31.507  14.920
93821W        W63636  26.657  25.118  14.500
93822W        W63637  25.605  39.826  13.423
93823W        W63638  23.705  22.722  11.572
93824W        W63639  35.039  14.624  13.844
93825W        W63640   4.783  32.519   3.734
93826W        W63641  37.510  30.428  12.928
93827W        W63642  18.735  10.739   2.325
93828W        W63643   0.966   6.325  11.861
93829W        W63644  13.731  11.134  14.769
93830W        W63645  20.589  41.529   0.927
93831W        W63646  21.718   1.300  14.844
93832W        W63647   3.772  44.385  13.976
93833W        W63648  31.629  15.782  10.463
93834W        W63649  14.302  18.745   0.860
93835W        W63650   4.329  34.482  10.624
93836W        W63651  12.783  34.868  12.413
93837W        W63652  28.593  16.691  12.551
93838W        W63653  35.429  32.986  14.515
93839W        W63654   0.405  21.205  14.440
93840W        W63655   0.986  25.114   3.823
93841W        W63656   2.819  41.461   0.310
93842W        W63657   7.856  38.358   0.882
93843W        W63658  26.184  17.296  13.913
93844W        W63659  17.125  26.639   2.222
93845W        W63660   1.847  16.708  11.905
93846W        W63661  21.198  28.519   4.704
93847W        W63662  35.421  14.122  13.930
93848W        W63663  10.808  33.907  12.934
93849W        W63664  40.423   3.298   0.429
93850W        W63665  27.611  39.811   2.260
93851W        W63666  40.993  12.718   5.319
93852W        W63667  43.778   1.890  12.866
93853W        W63668  34.549  40.384   1.377
93854W        W63669   9.229   1.926  12.917
93855W        W63670  38.069  39.865  11.586
93856W        W63671  44.485  18.738  14.891
93857W        W63672   0.748  43.277   2.740
93858W        W63673  31.993  15.215   2.746
93859W        W63674  21.721  22.708  11.954
93860W        W63675  22.157  31.540   3.870
93861W        W63676  25.170  36.850   4.684
93862W        W63677  20.100  40.515  14.954
93863W        W63678  35.514   6.771   4.354
93864W        W63679  44.376  32.547   4.318
93865W        W63680  14.167  42.027  10.465
93866W        W63681  37.452  21.053   2.664
93867W        W63682  43.849  14.655  14.828
93868W        W63683  33.543  39.527  12.025
93869W        W63684  32.403  44.495   4.189
93870W        W63685  28.958  26.686  10.904
93871W        W63686  42.447   4.859  13.061
93872W        W63687  15.711   0.362  14.431
93873W        W63688  27.610  30.422  11.421
93874W        W63689  11.635  23.606  10.599
93875W        W63690  33.967  10.358   2.759
93876W        W63691  21.676  33.875   2.379
93877W        W63692   9.747  37.988   1.211
93878W        W63693   5.270   3.841   1.826
93879W        W63694  39.866  42.353  14.481
93880W        W63695  28.588   0.335  10.488
93881W        W63696  32.391   1.767  14.922
93882W        W63697  44.270  24.222   1.931
93883W        W63698  26.077   1.244  12.844
93884W        W63699  14.198  25.966   2.200
93885W        W63700   1.891   3.445   3.380
93886W        W63701  35.877   9.346   4.173
93887W        W63702  43.273  10.810  10.923
93888W        W63703   9.656  26.566   4.157
93889W        W63704  43.434  42.315  12.029
93890W        W63705  13.709  42.870  14.855
93891W        W63706  20.141  22.128   4.352
93892W        W63707  28.586   6.691   2.691
93893W        W63708  30.461   7.690   4.754
93894W        W63709  32.885  28.537  10.430
93895W        W63710  38.436  33.947  13.013
93896W        W63711  23.698  23.545  12.474
93897W        W63712  34.438  25.963  11.496
93898W        W63713  10.295  11.728  12.926
93899W        W63714  43.410  31.467   1.426
93900W        W63715  15.728  25.026   0.434
93901W        W63716  39.545  25.506  10.568
93902W        W63717   2.337   3.422   1.392
93903W        W63718  37.081  43.334  14.461
93904W        W63719  44.945   7.207   2.297
93905W        W63720   8.866  23.612   0.466
93906W        W63721  28.487  12.319  13.838
93907W        W63722  21.703  34.026  14.928
93908W        W63723  14.107   1.398   2.223
93909W        W63724   0.968  14.209  14.770
93910W        W63725  42.380  25.091  14.862
93911W        W63726   2.390   3.460   3.812
93912W        W63727  42.320   2.456  13.973
93913W        W63728  31.452   2.878  10.589
93914W        W63729  12.808  21.757   3.673
93915W        W63730  23.191  18.672   3.769
93916W        W63731  35.930   8.681   2.294
93917W        W63732  24.984  44.879  10.494
93918W        W63733  29.031   4.397   4.684
93919W        W63734  34.452  25.663   2.684
93920W        W63735  15.753  39.442   4.313
93921W        W63736   0.812  26.181   1.306
93922W        W63737  17.233   2.744  12.070
93923W        W63738   0.485  17.306  11.115
93924W        W63739  19.562  31.455  14.982
93925W        W63740  34.422  36.376   0.298
93926W        W63741  38.875  36.930  13.806
93927W        W63742   2.421  31.095  14.417
93928W        W63743   7.200  17.179  12.084
93929W        W63744  31.133  37.026  14.451
93930W        W63745   1.738  10.334  12.867
93931W        W63746  17.276  43.897   0.733
93932W        W63747   2.741  15.652  12.479
93933W        W63748   5.269  38.076   0.811
93934W        W63749  12.721  13.752  12.558
93935W        W63750  35.912   9.155   0.468
93936W        W63751  11.353  33.464   0.264
93937W        W63752  10.254   9.371  10.932
93938W        W63753  13.685  22.629   3.633
93939W        W63754  20.048  19.547   5.147
93940W        W63755  33.118  28.032  10.925
93941W        W63756  31.581  32.461   4.290
93942W        W63757  23.234  30.081   2.344
93943W        W63758  32.093  27.660   1.443
93944W        W63759  34.397  11.816   2.198
93945W        W63760  22.521   8.221  13.310
93946W        W63761  43.827  32.528   2.793
93947W        W63762  14.293  34.471  13.038
93948W        W63763  26.513  27.566   3.203
93949W        W63764   1.848  18.296   0.826
93950W        W63765  32.989  41.306   1.243
93951W        W63766   7.396   8.402  13.973
93952W        W63767  29.067   6.392  14.888
93953W        W63768  31.471  42.973  12.461
93954W        W63769  42.461  19.722  13.969
93955W        W63770  12.667  35.888   1.854
93956W        W63771   6.716  36.022   1.716
93957W        W63772  38.899   8.850   2.817
93958W        W63773  22.678  29.969   4.732
93959W        W63774  43.516  42.366   1.390
93960W        W63775   4.885  29.506   0.311
93961W        W63776  29.170  12.757  14.443
93962W        W63777   0.335  37.556  13.034
93963W        W63778  32.089  39.000  12.980
93964W        W63779  30.474  20.709   0.912
93965W        W63780  35.530  25.048   0.745
93966W        W63781  30.586   1.755   4.689
93967W        W63782   6.813   6.209   2.232
93968W        W63783  24.154  23.520  10.472
93969W        W63784   4.888   1.312  11.490
93970W        W63785  28.482   5.262  13.319
93971W        W63786   2.351  34.420   0.393
93972W        W63787  10.702  33.482  13.509
93973W        W63788  10.842  33.883   3.251
93974W        W63789   1.442   3.247  14.974
93975W        W63790  38.982  22.085  11.506
93976W        W63791   2.298  34.932  12.030
93977W        W63792  39.026  34.401  13.391
93978W        W63793  40.326  11.697   2.662
93979W        W63794  32.099  12.206   0.811
93980W        W63795  13.788  10.653  13.838
93981W        W63796  35.529  26.648  12.857
93982W        W63797   7.728  44.786  11.522
93983W        W63798  42.881  40.439   3.762
93984W        W63799   5.908   4.903  10.591
93985W        W63800  34.470   3.743  10.632
93986W        W63801   3.775  28.614   0.342
93987W        W63802   2.782   2.790   3.256
93988W        W63803   6.375   6.873  11.884
93989W        W63804  35.551   0.470  12.523
93990W        W63805  25.109  44.271   0.967
93991W        W63806  32.033   5.317   1.797
93992W        W63807  32.027  34.931  12.002
93993W        W63808   5.843  28.529   0.845
93994W        W63809  32.969  38.500   4.259
93995W        W63810  40.492  39.469   3.800
93996W        W63811  25.114  36.997   5.102
93997W        W63812   9.272  28.522  13.341
93998W        W63813   1.838  25.994  14.513
93999W        W63814  38.366   2.373   3.313
94000W        W63815   8.866  42.904   0.412
94001W        W63816  14.622  17.706   1.395
94002W        W63817   2.739  26.153  12.515
94003W        W63818   7.855  11.851   4.254
94004W        W63819  33.503  30.158  14.933
94005W        W63820  11.688  31.997   2.298
94006W        W63821  13.278  12.320  11.895
94007W        W63822  15.324  28.100   4.751
94008W        W63823  24.975  38.029   3.826
94009W        W63824  26.191  18.706   3.180
94010W        W63825  10.300  28.461  12.847
94011W        W63826   9.339  10.873   2.229
94012W        W63827   3.934  29.592   4.605
94013W        W63828  41.986  32.407   1.264
94014W        W63829  29.468  14.690  13.046
94015W        W63830  12.285  27.570   4.322
94016W        W63831   8.330  15.667   0.760
94017W        W63832  18.252  15.203  12.520
94018W        W63833   6.803  20.551   2.712
94019W        W63834  22.185  14.615   1.265
94020W        W63835  38.494  40.309   4.716
94021W        W63836  11.228  17.744   0.267
94022W        W63837  14.596  21.246  14.309
94023W        W63838  36.034  19.668  14.327
94024W        W63839  35.091  40.465  11.499
94025W        W63840   6.269  29.584   2.692
94026W        W63841  20.554  32.421   3.682
94027W        W63842  42.406  13.840   2.184
94028W        W63843  14.135  11.631   2.237
94029W        W63844  14.747   2.378  10.580
94030W        W63845  26.503  35.528   3.652
94031W        W63846  33.462  13.693   0.965
94032W        W63847  36.422  28.975  11.114
94033W        W63848   7.291  12.854   3.797
94034W        W63849  43.900  30.593  14.986
94035W        W63850  22.125  33.115  12.858
94036W        W63851   7.731  39.516  12.046
94037W        W63852  33.106  12.827   2.882
94038W        W63853   3.880  15.289   2.849
94039W        W63854  43.952  28.071  14.919
94040W        W63855  21.111   6.898   4.756
94041W        W63856  40.027   6.718   5.135
94042W        W63857   2.286  30.062   4.207
94043W        W63858  36.384  35.970   5.103
94044W        W63859  14.181  26.657   0.961
94045W        W63860  15.152  11.273   0.408
94046W        W63861  25.516  13.298  12.360
94047W        W63862  27.612  22.057  14.404
94048W        W63863  32.035   7.818   3.814
94049W        W63864  28.948   5.399   0.753
94050W        W63865  23.201  13.268  10.565
94051W        W63866   2.310  15.305  12.945
94052W        W63867  12.720  14.681  11.906
94053W        W63868  32.091  18.611  12.003
94054W        W63869  30.116  17.741  15.000
94055W        W63870  26.092   8.375   0.856
94056W        W63871  19.122   7.750  13.849
94057W        W63872  11.783  30.591   0.438
94058W        W63873  29.173   0.279  11.565
94059W        W63874  36.475  22.664  11.559
94060W        W63875  15.644  40.364   3.796
94061W        W63876  17.277  35.563  11.923
94062W        W63877  28.102  43.505   3.299
94063W        W63878  29.576  37.477   4.763
94064W        W63879   2.725  31.007   4.270
94065W        W63880   8.322   6.789   2.203
94066W        W63881   4.419   8.375  13.839
94067W        W63882  27.063  44.375  13.916
94068W        W63883  12.744  15.319  10.477
94069W        W63884  13.239  18.104   5.170
94070W        W63885  10.701  33.889   2.387
94071W        W63886   2.282  10.649   4.695
94072W        W63887   5.314  32.398   0.442
94073W        W63888  40.505   2.249  14.501
94074W        W63889  21.730  33.025   2.764
94075W        W63890  13.652  32.557   4.743
94076W        W63891   5.887  43.836   2.263
94077W        W63892  26.963  17.606  12.457
94078W        W63893  13.699   9.668  14.954
94079W        W63894  43.944  12.201   1.310
94080W        W63895   0.421  26.190  12.355
94081W        W63896   6.738  19.677   3.215
94082W        W63897  24.509  18.258  12.859
94083W        W63898  28.488  42.013  13.341
94084W        W63899  13.733  41.431   0.814
94085W        W63900  22.046  30.145  14.843
94086W        W63901   6.870  42.356   2.798
94087W        W63902  10.276  11.243  10.503
94088W        W63903  44.845  32.969  13.963
94089W        W63904  43.273   7.185  13.546
94090W        W63905  31.077  30.524   4.319
94091W        W63906  27.967  17.588  14.002
94092W        W63907   8.667  29.639  13.490
94093W        W63908  16.223  39.560  11.940
94094W        W63909   0.366  36.349   4.269
94095W        W63910   9.167   8.834  14.409
94096W        W63911   1.885  24.168   1.930
94097W        W63912  19.640  10.781   1.306
94098W        W63913   6.196   6.725  14.800
94099W        W63914  10.273   6.247  12.025
94100W        W63915  29.490  15.325  12.426
94101W        W63916  20.034  37.974  11.394
94102W        W63917  20.174   4.328  13.347
94103W        W63918   4.875   9.280  13.352
94104W        W63919  21.245  32.070   1.387
94105W        W63920  36.987  25.104  13.362
94106W        W63921  30.022  30.637   4.779
94107W        W63922  35.404  20.663  13.002
94108W        W63923   3.264  17.663   3.147
94109W        W63924   8.823  38.457   2.807
94110W        W63925   1.828  34.506   1.226
94111W        W63926  24.500  12.199  13.987
94112W        W63927  19.114   7.412  13.525
94113W        W63928  11.759  31.092   3.295
94114W        W63929  16.582   3.423   3.355
94115W        W63930  30.554  18.115   3.658
94116W        W63931  33.924  26.123  10.594
94117W        W63932  20.240  20.646   3.261
94118W        W63933  33.510  37.958   2.232
94119W        W63934  33.093  36.359   4.802
94120W        W63935  27.166  36.095  14.894
94121W        W63936  12.627  32.029   4.179
94122W        W63937  33.423  29.663  14.816
94123W        W63938  44.833  44.355  11.935
94124W        W63939  31.951   9.831   1.865
94125W        W63940  40.863  23.001   3.180
94126W        W63941  28.930  44.834   0.484
94127W        W63942  11.670  28.496   2.754
94128W        W63943  23.592   2.333  10.445
94129W        W63944   7.828  36.012  14.809
94130W        W63945  27.117  37.518   1.365
94131W        W63946  13.826  41.789   4.302
94132W        W63947  35.988   5.784  14.515
94133W        W63948  21.728   0.797  13.521
94134W        W63949   4.302  19.137  11.555
94135W        W63950  12.715  10.360  12.968
94136W        W63951  44.287   6.309  11.373
94137W        W63952  19.263   9.840  11.065
94138W        W63953  12.667  37.579   5.240
94139W        W63954  37.547   5.910   4.779
94140W        W63955  20.643  18.697  11.125
94141W        W63956   4.421  43.938  13.542
94142W        W63957  43.423  40.483   1.310
94143W        W63958  21.209  44.422   3.214
94144W        W63959   7.862  31.477  12.548
94145W        W63960   7.873  32.000   2.821
94146W        W63961  26.977  41.436  14.010
94147W        W63962  38.943  14.200  10.118
94148W        W63963  35.494  30.501  13.808
94149W        W63964  20.259  12.673  10.491
94150W        W63965  20.766  18.192   0.942
94151W        W63966  29.470  26.601  12.970
94152W        W63967  20.253  38.986  10.040
94153W        W63968  44.794  21.155   2.664
94154W        W63969   9.201   9.669  14.465
94155W        W63970   6.857  28.993   1.859
94156W        W63971  30.641  20.055  11.858
94157W        W63972  15.307  29.602  11.535
94158W        W63973  39.380   6.292  12.434
94159W        W63974  26.620  25.712  10.495
94160W        W63975  24.223  40.315  14.436
94161W        W63976  16.572  14.289   2.307
94162W        W63977  25.558  34.474  14.833
94163W        W63978  38.819  26.564   0.739
94164W        W63979  39.909   5.798  10.597
94165W        W63980  31.630  15.196  10.931
94166W        W63981  12.335  28.679   4.115
94167W        W63982  38.502  21.242  11.556
94168W        W63983   1.329  34.053  10.960
94169W        W63984  39.997  33.469   2.317
94170W        W63985  15.154  20.709   2.225
94171W        W63986  36.567  37.537   3.260
94172W        W63987  44.962   2.314  12.528
94173W        W63988   8.223  43.382   4.722
94174W        W63989   9.674   7.780  12.520
94175W        W63990   5.924  11.664  13.962
94176W        W63991  41.316  15.222  13.935
94177W        W63992  12.831  42.936   0.955
94178W        W63993   3.942   0.821   1.217
94179W        W63994  40.020  17.066   1.869
94180W        W63995  37.386  41.453  13.829
94181W        W63996   9.723  44.851   0.862
94182W        W63997  30.463  20.708  10.546
94183W        W63998   9.712   3.868   2.886
94184W        W63999  22.161  39.921  11.455
94185W        W64000  26.680  32.439   1.781
94186W        W64001  28.453  21.113   1.322
94187W        W64002  41.852  36.077  10.137
94188W        W64003  27.056  33.026   3.809
94189W        W64004  35.465  40.509  14.976
94190W        W64005  36.911  23.560   0.811
94191W        W64006  26.044  39.019  13.064
94192W        W64007   1.978  20.638  13.961
94193W        W64008  26.569  24.521  12.499
94194W        W64009  42.912  32.105  12.427
94195W        W64010  44.985  31.622   2.401
94196W        W64011   5.401  28.043  10.576
94197W        W64012  23.708  19.613  12.029
94198W        W64013  20.535  33.497  14.433
94199W        W64014  11.246  15.759  12.362
94200W        W64015   9.698  23.207   0.895
94201W        W64016   2.390  11.203  11.516
94202W        W64017  24.708  18.547   1.735
94203W        W64018  19.254  20.220  12.065
94204W        W64019  43.291  24.712  10.999
94205W        W64020  37.421   2.863  11.038
94206W        W64021   4.387  27.542  11.048
94207W        W64022   6.894  12.265  10.973
94208W        W64023  22.747  44.262   3.199
94209W        W64024  22.241  12.122   1.333
94210W        W64025  34.057  39.999  12.026
94211W        W64026  10.206   1.352  12.831
94212W        W64027  35.444  24.094   4.666
94213W        W64028  12.315  42.283   1.399
94214W        W64029  10.297  40.844  12.042
94215W        W64030  31.584  26.175  10.591
94216W        W64031  34.864  35.357   4.608
94217W        W64032   0.454  38.842   0.925
94218W        W64033  10.695  25.637   1.878
94219W        W64034  17.118  35.498   4.197
94220W        W64035  21.544  31.411  13.842
94221W        W64036  14.290   7.224   3.360
94222W        W64037   0.430  17.241  10.450
94223W        W64038  30.431  12.343  10.453
94224W        W64039   7.335  40.860  11.110
94225W        W64040  20.185  43.967   2.298
94226W        W64041  44.864  40.049   2.402
94227W        W64042  37.560  36.086   2.730
94228W        W64043  37.420  33.015   4.724
94229W        W64044  24.666   8.702   0.811
94230W        W64045  12.362  35.914  11.602
94231W        W64046  31.539   2.232  10.577
94232W        W64047   2.886  31.029  10.409
94233W        W64048   9.861  23.062  14.485
94234W        W64049  34.488  32.451  13.887
94235W        W64050  32.594  10.342  12.445
94236W        W64051  27.495  20.175   3.682
94237W        W64052   1.785  14.780   4.719
94238W        W64053  10.275   7.899  12.408
94239W        W64054  20.074  23.122   3.165
94240W        W64055   6.876   4.408  14.767
94241W        W64056   9.679  40.336  11.067
94242W        W64057  18.069  28.111   3.221
94243W        W64058   1.945  37.998  14.331
94244W        W64059  14.141  14.162  13.357
94245W        W64060  22.035  11.127  11.860
94246W        W64061   2.438   4.714  10.607
94247W        W64062  37.009   0.839   2.299
94248W        W64063  22.124  12.681  11.121
94249W        W64064  28.023  33.462  13.901
94250W        W64065   7.286  14.730   2.742
94251W        W64066  21.133  16.274   2.742
94252W        W64067  33.085   5.345   2.262
94253W        W64068  19.094  31.956  12.502
94254W        W64069  42.003   2.304  12.836
94255W        W64070  40.837  15.669  13.419
94256W        W64071  13.756  28.940   4.121
94257W        W64072  28.458  21.096   1.760
94258W        W64073  38.890  41.355   2.202
94259W        W64074  10.208   8.744   2.270
94260W        W64075  30.608  21.122   2.201
94261W        W64076  35.869  18.656  14.760
94262W        W64077   0.382  36.071   2.318
94263W        W64078  14.791  10.677   4.291
94264W        W64079   8.681  21.034   4.650
94265W        W64080  38.028   1.812  11.898
94266W        W64081   8.363   9.302   1.334
94267W        W64082  32.625  40.867   2.692
94268W        W64083  38.546   7.865   4.636
94269W        W64084  29.580   9.774  14.452
94270W        W64085   3.776  38.353   4.666
94271W        W64086  32.926   4.373  10.464
94272W        W64087  34.458  32.893  12.973
94273W        W64088  30.152  18.206   2.417
94274W        W64089  30.118  20.205  11.915
94275W        W64090  38.521  28.144  14.901
94276W        W64091   1.853  44.266  14.874
94277W        W64092  39.040   9.842  14.971
94278W        W64093  10.373  19.132   1.441
94279W        W64094   3.427  10.316  11.882
94280W        W64095   4.795  40.864  11.060
94281W        W64096  17.162  24.605  11.575
94282W        W64097   8.878  33.068  11.490
94283W        W64098  41.508  16.314  13.352
94284W        W64099  13.266  44.761   2.735
94285W        W64100  27.637  29.534  11.438
94286W        W64101  33.118   5.323   2.766
94287W        W64102  44.313  42.844   1.424
94288W        W64103  36.851  36.084   1.930
94289W        W64104  29.108  23.164  12.546
94290W        W64105  10.740  40.047  12.834
94291W        W64106   7.174  35.369   0.871
94292W        W64107   4.259  20.064  12.430
94293W        W64108  43.010   1.749   4.183
94294W        W64109  16.303  10.695  13.412
94295W        W64110  44.309   1.780  13.863
94296W        W64111  13.293  18.058   0.732
94297W        W64112  44.889  22.673   1.827
94298W        W64113  13.306  21.596   4.256
94299W        W64114  40.398   8.706  13.037
94300W        W64115  44.482  32.559   0.904
94301W        W64116  22.051  41.937  14.309
94302W        W64117  44.821   6.270  11.903
94303W        W64118   6.788   4.374   2.740
94304W        W64119  25.530  19.770   0.936
94305W        W64120  14.734   4.271  14.503
94306W        W64121   0.463  39.532  13.367
94307W        W64122  27.622  43.483  14.942
94308W        W64123   6.907  30.141   1.905
94309W        W64124  43.444  15.719   4.210
94310W        W64125  10.327  10.235   0.404
94311W        W64126  38.377  22.621  12.380
94312W        W64127  27.175  15.580   4.243
94313W        W64128  36.520  28.469  11.452
94314W        W64129  40.480   7.234   0.743
94315W        W64130   7.352   2.818  11.503
94316W        W64131   3.458  29.662   3.171
94317W        W64132  35.873  17.264  13.537
94318W        W64133   6.808  40.364   2.363
94319W        W64134  11.210  11.854  11.989
94320W        W64135  25.026  31.077  14.357
94321W        W64136  35.432  29.940   4.799
94322W        W64137  17.744  25.977  14.466
94323W        W64138  35.541  16.607  13.865
94324W        W64139  27.146  28.590  13.816
94325W        W64140  36.979  18.760  12.845
94326W        W64141  23.178  32.408  12.843
94327W        W64142   4.258  34.495   0.457
94328W        W64143  22.066  24.656  11.506
94329W        W64144  11.327  21.243  10.590
94330W        W64145   3.726  22.104   1.934
94331W        W64146  40.412  38.001   3.200
94332W        W64147  38.977  39.982  14.417
94333W        W64148  35.499   4.820  10.534
94334W        W64149  42.410  24.131  14.942
94335W        W64150   1.441  11.335  12.004
94336W        W64151  33.085  31.522   0.962
94337W        W64152  14.821  15.617   4.232
94338W        W64153  30.642  18.765  12.461
94339W        W64154  26.479  16.805  14.453
94340W        W64155  13.166   2.343  12.983
94341W        W64156  10.694  19.764  14.940
94342W        W64157  15.820   2.879   0.830
94343W        W64158  22.217  36.500  13.046
94344W        W64159  36.870   7.329   2.738
94345W        W64160  26.048  43.287  12.972
94346W        W64161   7.232   0.467   1.776
94347W        W64162  36.875  22.154  12.504
94348W        W64163   4.282  13.223   1.444
94349W        W64164  30.105  20.566  13.407
94350W        W64165  32.096  40.878   3.293
94351W        W64166  43.496  17.111  11.482
94352W        W64167  18.235   1.978  14.296
94353W        W64168  30.592  21.096  11.011
94354W        W64169  34.959   9.887  13.815
94355W        W64170  37.481   6.427  14.437
94356W        W64171  23.555  26.463   1.743
94357W        W64172  40.828  25.138   3.685
94358W        W64173  18.635  41.977   0.776
94359W        W64174   3.870   2.271   3.229
94360W        W64175  24.494  39.964   0.408
94361W        W64176  31.466  13.759  12.987
94362W        W64177  17.561  42.458  13.984
94363W        W64178  12.177  23.204  14.839
94364W        W64179  12.153  37.884   3.867
94365W        W64180  23.561  18.269   9.955
94366W        W64181  17.092  32.017  12.006
94367W        W64182  11.310  18.143  10.513
94368W        W64183  40.321  41.978  13.336
94369W        W64184  15.086  39.418  10.928
94370W        W64185   4.419  24.215   2.184
94371W        W64186   5.896  40.943  14.356
94372W        W64187   3.395  33.498  13.791
94373W        W64188   7.728   6.389  11.015
94374W        W64189  19.632  12.156  14.482
94375W        W64190  43.949  25.171   3.383
94376W        W64191  11.324  11.826  13.870
94377W        W64192   7.673   3.852   0.789
94378W        W64193  38.026  36.921  13.873
94379W        W64194   5.280  27.453   3.715
94380W        W64195  19.074  40.881  11.010
94381W        W64196  36.987  25.981  11.939
94382W        W64197  42.871  22.596  13.916
94383W        W64198   4.719  23.164  13.991
94384W        W64199  26.156  19.182  13.402
94385W        W64200  10.817  10.185  14.282
94386W        W64201   4.885  18.193  11.037
94387W        W64202   9.662  17.672  13.950
94388W        W64203   1.473  26.180  10.460
94389W        W64204   8.819   1.359   3.724
94390W        W64205  16.590  40.303   2.677
94391W        W64206  27.525  19.046  10.953
94392W        W64207  43.499  33.560  14.861
94393W        W64208  20.746  44.906   1.291
94394W        W64209  41.989  40.323  14.834
94395W        W64210   9.709  35.934   3.639
94396W        W64211  19.102  24.481   4.734
94397W        W64212  25.656  12.316  12.570
94398W        W64213  31.639  37.566   3.789
94399W        W64214   7.333   6.817   0.395
94400W        W64215   2.365  37.886  13.534
94401W        W64216  31.136  26.467  14.513
94402W        W64217  30.060  39.887  10.975
94403W        W64218  25.031  17.703   2.340
94404W        W64219   4.292  32.488   3.801
94405W        W64220  24.025  31.137  11.406
94406W        W64221  10.351  41.510  11.500
94407W        W64222   7.213   5.839  13.337
94408W        W64223  32.392  10.167  11.512
94409W        W64224  44.488  23.693   3.679
94410W        W64225  18.678  36.943   1.912
94411W        W64226  25.492  31.483  13.391
94412W        W64227  12.749  13.607   1.694
94413W        W64228   3.350  15.280   0.793
94414W        W64229  33.990  36.561   0.733
94415W        W64230  40.885  43.502  13.932
94416W        W64231  15.651  28.507   2.295
94417W        W64232  32.073  23.563  14.872
94418W        W64233  27.647  40.338   4.709
94419W        W64234  24.719  42.964  14.339
94420W        W64235  12.730  39.486   4.177
94421W        W64236   5.932  41.947   0.255
94422W        W64237  11.855  40.931   2.902
94423W        W64238  28.462  32.516   0.327
94424W        W64239  25.170  21.657   4.832
94425W        W64240  22.698   5.825   3.681
94426W        W64241   4.902  33.903   1.238
94427W        W64242   1.241  38.999  12.079
94428W        W64243  38.881  14.727   4.725
94429W        W64244  32.546   8.343  11.544
94430W        W64245  34.449  41.997  14.812
94431W        W64246  40.419  14.162  13.449
94432W        W64247   2.873  34.376  14.821
94433W        W64248   3.778  21.211  13.985
94434W        W64249  37.897  36.064   5.159
94435W        W64250  41.038  15.324  10.901
94436W        W64251  25.656   5.278  13.481
94437W        W64252   9.832  36.890  10.945
94438W        W64253  22.160  11.834   2.750
94439W        W64254  13.726  23.001  13.009
94440W        W64255  35.996  16.249  10.447
94441W        W64256  18.164  19.690   1.826
94442W        W64257   1.483  27.645  10.890
94443W        W64258  25.706  11.655  14.778
94444W        W64259  17.761  20.093   4.307
94445W        W64260  21.657  43.868   3.204
94446W        W64261   3.757  24.553  11.489
94447W        W64262  18.262  25.122  12.530
94448W        W64263  27.123   9.391  13.923
94449W        W64264  23.065   8.707  11.998
94450W        W64265  13.610  16.309  10.494
94451W        W64266   3.364  26.570  12.995
94452W        W64267  25.540  26.018   1.290
94453W        W64268   1.751   0.300   1.311
94454W        W64269  12.744  11.725  11.993
94455W        W64270  33.117  30.992   2.191
94456W        W64271  26.701  38.948  14.841
94457W        W64272   9.162  33.501   2.898
94458W        W64273   1.315  37.871  12.022
94459W        W64274  44.917  33.498   2.372
94460W        W64275  16.718  40.876   1.800
94461W        W64276   1.768   9.709  14.441
94462W        W64277   3.812  15.683  12.879
94463W        W64278  29.169   1.741   4.682
94464W        W64279  35.092  37.982  13.359
94465W        W64280   2.410  39.548  12.376
94466W        W64281  33.511  31.983   3.224
94467W        W64282  15.316  15.212   0.303
94468W        W64283  16.606  36.886  14.328
94469W        W64284   2.913  16.600   1.884
94470W        W64285  21.638  26.596   4.235
94471W        W64286   5.702  25.681  14.415
94472W        W64287   8.315  11.257   4.809
94473W        W64288   9.300  40.481  13.859
94474W        W64289   9.360   1.872  11.911
94475W        W64290   2.852  12.151  14.917
94476W        W64291   5.225  43.282   3.329
94477W        W64292  28.051  18.161   4.175
94478W        W64293  30.055   7.820  10.529
94479W        W64294  34.088  27.662   4.660
94480W        W64295  43.948  28.595   0.934
94481W        W64296  26.147  26.477  12.895
94482W        W64297  40.917   9.868   3.285
94483W        W64298  39.960   7.751   3.798
94484W        W64299  12.711  41.795  14.004
94485W        W64300   8.288  44.384   4.190
94486W        W64301  35.934   6.915  12.539
94487W        W64302  29.456  42.812   1.275
94488W        W64303  27.091  12.354   3.749
94489W        W64304  27.571  41.941  12.897
94490W        W64305  40.842  36.083  14.837
94491W        W64306  16.295   1.390   0.345
94492W        W64307  16.296  33.076  11.987
94493W        W64308   3.271  13.762   3.328
94494W        W64309  13.149  19.641  11.105
94495W        W64310   4.359  42.977  11.956
94496W        W64311  37.394   3.360   1.300
94497W        W64312  27.961  21.591  11.399
94498W        W64313  27.656   9.212  11.855
94499W        W64314  35.487  32.515   3.191
94500W        W64315  16.742  44.816   0.865
94501W        W64316  12.780  12.121  13.423
94502W        W64317  34.520  12.734   2.355
94503W        W64318   0.377  41.365   1.808
94504W        W64319  36.463   1.428  13.364
94505W        W64320  30.153  37.966   2.320
94506W        W64321  34.532  24.037   0.858
94507W        W64322  12.175   7.377  10.410
94508W        W64323   1.313   9.867  12.440
94509W        W64324  36.861   1.933  14.443
94510W        W64325   1.271  34.447  14.920
94511W        W64326  21.146  39.964  13.413
94512W        W64327  28.518  37.087  14.366
94513W        W64328   3.300  12.792   3.308
94514W        W64329   6.272   5.424   1.805
94515W        W64330  39.931   2.336   1.399
94516W        W64331  23.155  22.216  11.572
94517W        W64332   7.886  39.960   0.807
94518W        W64333   5.719  44.261   0.455
94519W        W64334   2.751  35.481   3.804
94520W        W64335  21.747  14.813   1.313
94521W        W64336  18.241  29.488  14.441
94522W        W64337  21.577  29.431  13.980
94523W        W64338  25.653  13.187   3.351
94524W        W64339  22.501  37.428   1.893
94525W        W64340  39.909   2.787   2.860
94526W        W64341  13.192  14.637   1.334
94527W        W64342  35.977   9.390   2.179
94528W        W64343  35.415  25.694   0.922
94529W        W64344   7.708  31.438   3.713
94530W        W64345   6.295  21.098   3.239
94531W        W64346  23.654  19.166   3.213
94532W        W64347   9.653   2.923   2.342
94533W        W64348  23.724  30.422   4.744
94534W        W64349   7.336  25.102   0.430
94535W        W64350   2.463  29.433  14.939
94536W        W64351  10.680  19.672   4.818
94537W        W64352  27.094  30.488   4.264
94538W        W64353  14.312  44.356  12.369
94539W        W64354  29.077   3.823  12.509
94540W        W64355  24.519  19.285  13.985
94541W        W64356  29.060  35.507   3.304
94542W        W64357   4.920  24.591   4.800
94543W        W64358   0.985  37.383  14.343
94544W        W64359  15.672   5.703  10.157
94545W        W64360  33.901  20.626  13.015
94546W        W64361  13.836  27.078   1.389
94547W        W64362  14.220  39.054  13.911
94548W        W64363  42.883  13.735  14.928
94549W        W64364  33.427   6.831   2.384
94550W        W64365  26.159   7.178   4.170
94551W        W64366  10.315  21.134   5.263
94552W        W64367  34.979  23.651  12.364
94553W        W64368  32.558   8.247  12.505
94554W        W64369  20.585  35.411  12.441
94555W        W64370   0.927  31.911  14.415
94556W        W64371  39.351   3.939   4.609
94557W        W64372   9.166  29.465   4.346
94558W        W64373  29.963   2.894  13.414
94559W        W64374  16.130  44.805   1.307
94560W        W64375  28.521  18.670   4.169
94561W        W64376  44.774   2.917   0.912
94562W        W64377  13.194  21.050   1.854
94563W        W64378  38.336  43.004  12.080
94564W        W64379  15.326  41.792   0.246
94565W        W64380  41.360  13.739  13.525
94566W        W64381   2.302  32.468   1.433
94567W        W64382   6.903  27.467  14.771
94568W        W64383  20.556   4.207   4.646
94569W        W64384  31.068  23.213   3.159
94570W        W64385  42.500   9.265  12.989
94571W        W64386   8.829  30.031  14.312
94572W        W64387  10.270  32.052   4.723
94573W        W64388  24.496   9.312   0.376
94574W        W64389  33.986  39.485  11.979
94575W        W64390  40.376   5.710  11.562
94576W        W64391  27.130  22.596   2.191
94577W        W64392  27.540  42.371   4.645
94578W        W64393  36.521   1.399   2.275
94579W        W64394   1.881   3.431   1.888
94580W        W64395   7.343  37.059   4.602
94581W        W64396  40.051  25.012  10.565
94582W        W64397  44.431   6.831  10.606
94583W        W64398  26.684  15.192  10.584
94584W        W64399  10.237  26.954   0.335
94585W        W64400  29.454  17.667  13.328
94586W        W64401  39.318  35.039  11.097
94587W        W64402  14.635   2.469  12.066
94588W        W64403   5.782   6.290   3.302
94589W        W64404   5.360  23.515   2.737
94590W        W64405  23.146  28.107  14.896
94591W        W64406  30.114  15.207   1.824
94592W        W64407  44.366  31.006  13.793
94593W        W64408   7.774  10.706   3.651
94594W        W64409  12.683   0.819  14.955
94595W        W64410   7.738  14.660   4.304
94596W        W64411  44.332  42.878  14.014
94597W        W64412  23.702  13.811  10.575
94598W        W64413  39.899  10.786   3.851
94599W        W64414  13.322  38.967  12.535
94600W        W64415  30.649  10.333   4.114
94601W        W64416  42.875   1.865  10.480
94602W        W64417   1.397  13.189  12.073
94603W        W64418  44.489  10.299   5.089
94604W        W64419  30.977  19.103   0.306
94605W        W64420  12.734   9.711   4.686
94606W        W64421   7.829  22.685  11.957
94607W        W64422  35.037  23.986  12.858
94608W        W64423  16.203  26.994  11.592
94609W        W64424  27.182  18.767   2.818
94610W        W64425  40.529   3.737  12.492
94611W        W64426  39.808  25.587   2.677
94612W        W64427   7.211  38.965  13.058
94613W        W64428  25.015  34.573  12.081
94614W        W64429  24.211  36.514  13.453
94615W        W64430  11.736  13.258   1.353
94616W        W64431  14.745   3.276  12.430
94617W        W64432  21.746  29.059  10.531
94618W        W64433  18.741  15.583  14.967
94619W        W64434  21.077   0.742  14.407
94620W        W64435  17.638  26.193  12.496
94621W        W64436  32.958  13.669  10.973
94622W        W64437  21.086  14.194   2.249
94623W        W64438  12.338  29.433   4.334
94624W        W64439   0.367  43.931   1.416
94625W        W64440  24.218   4.433  11.877
94626W        W64441  34.900   1.338   2.687
94627W        W64442   8.285   6.397  13.934
94628W        W64443  43.510   9.354   2.194
94629W        W64444  41.431   0.428   0.848
94630W        W64445  25.004  11.793  14.463
94631W        W64446  17.575  23.712  11.556
94632W        W64447   3.259  20.589  12.542
94633W        W64448  28.595  33.094   0.265
94634W        W64449  27.073   8.728   4.644
94635W        W64450  19.583  17.248  11.876
94636W        W64451  26.633  23.014  14.514
94637W        W64452  18.701  20.752   1.774
94638W        W64453  27.686   9.270   1.800
94639W        W64454  13.153  19.216  10.154
94640W        W64455  27.161   0.878  13.499
94641W        W64456  24.629  27.585  14.987
94642W        W64457   8.864  38.871   1.697
94643W        W64458  16.105  40.443  14.014
94644W        W64459   1.754  24.005   2.416
94645W        W64460  22.084   8.254  12.401
94646W        W64461  40.847  22.133   3.689
94647W        W64462  34.418  37.958   1.700
94648W        W64463   1.873  25.694  12.563
94649W        W64464   6.769   5.422   4.628
94650W        W64465  18.727  43.362   1.869
94651W        W64466  40.798  41.398   2.790
94652W        W64467  43.830  29.145   3.155
94653W        W64468  23.002  26.100  10.643
94654W        W64469   4.305  22.213  11.991
94655W        W64470  36.879  34.057  13.481
94656W        W64471   4.448   1.286   3.234
94657W        W64472   6.345  24.573  12.992
94658W        W64473  34.096  40.876   0.929
94659W        W64474   4.906   6.688  14.355
94660W        W64475  14.177   0.870   2.774
94661W        W64476   4.822  37.932   2.761
94662W        W64477   7.770  13.131   1.403
94663W        W64478  34.018  40.535  14.453
94664W        W64479   0.818  26.106   2.840
94665W        W64480  34.472  41.467  14.970
94666W        W64481  38.965  26.535  12.051
94667W        W64482  24.696  22.041  10.536
94668W        W64483  42.315  18.714   4.269
94669W        W64484   6.316  13.648  11.001
94670W        W64485  44.357  29.135   4.138
94671W        W64486  26.085  12.707   4.768
94672W        W64487  31.507  37.386  11.009
94673W        W64488  19.760  35.864  12.571
94674W        W64489   3.855  34.103  11.573
94675W        W64490  19.057  44.766   2.367
94676W        W64491  22.578  40.379  12.993
94677W        W64492  32.586  31.018  12.033
94678W        W64493  12.806  40.500  14.791
94679W        W64494  17.774  40.466  13.974
94680W        W64495   7.765  12.619  11.914
94681W        W64496  16.735   1.753  10.893
94682W        W64497  21.153  18.596   3.751
94683W        W64498  25.598  39.021   2.292
94684W        W64499  37.047  35.903  13.326
94685W        W64500  32.987   9.847  14.891
94686W        W64501  24.222  35.396   0.442
94687W        W64502   4.431  34.438  11.596
94688W        W64503  22.086  37.047  11.988
94689W        W64504  44.402  12.337   3.691
94690W        W64505  15.270   9.834   1.801
94691W        W64506   0.315  21.724  12.032
94692W        W64507  44.444  43.883   0.251
94693W        W64508  22.697  20.254   2.293
94694W        W64509  23.534  43.388   4.622
94695W        W64510  14.622  11.664  11.511
94696W        W64511  31.152  26.089   0.964
94697W        W64512   4.385   5.697  13.325
94698W        W64513  30.637  33.613   4.781
94699W        W64514  20.634   7.808   0.254
94700W        W64515  10.183  17.299   0.319
94701W        W64516  16.172  10.353   4.192
94702W        W64517   3.902  38.055  13.984
94703W        W64518  35.494  27.642  13.427
94704W        W64519  13.269  19.073  10.907
94705W        W64520  18.140  22.666   0.292
94706W        W64521  22.633  13.219   3.670
94707W        W64522   2.267  25.516  13.938
94708W        W64523   4.817  19.056  14.467
94709W        W64524  44.333   4.214   1.910
94710W        W64525   5.235  24.549   0.765
94711W        W64526  14.312  21.512  12.365
94712W        W64527   8.844  36.548   4.734
94713W        W64528  26.697  31.001   0.749
94714W        W64529  16.087  31.122   4.642
94715W        W64530  34.586  30.577   1.925
94716W        W64531  31.007  11.621   0.251
94717W        W64532  33.507  12.128   3.242
94718W        W64533   6.417  42.987   0.431
94719W        W64534  39.468   9.833   1.828
94720W        W64535   9.773  21.251  12.558
94721W        W64536  11.793  32.405   1.924
94722W        W64537  39.530  28.156   2.732
94723W        W64538  29.991  44.406   0.333
94724W        W64539   6.716  21.172  13.888
94725W        W64540  12.276  13.268  12.407
94726W        W64541   8.341   0.330  10.917
94727W        W64542  40.927  43.400  11.385
94728W        W64543  10.188  11.265   4.733
94729W        W64544   5.870  34.591  14.796
94730W        W64545  12.749  22.738  14.510
94731W        W64546  42.862  12.270   2.748
94732W        W64547   6.746  19.096   0.316
94733W        W64548   2.831   4.794   0.310
94734W        W64549  30.011   7.305  11.123
94735W        W64550   6.277   2.429   2.212
94736W        W64551  22.608  23.228   1.809
94737W        W64552   1.976  39.550  12.450
94738W        W64553  25.701  38.051   0.865
94739W        W64554  10.205   5.706  11.982
94740W        W64555  35.945  26.032   1.754
94741W        W64556  12.137  39.406   1.241
94742W        W64557  40.000  38.451  12.358
94743W        W64558  21.037   4.255   4.144
94744W        W64559  32.420  38.840   1.722
94745W        W64560   8.395  33.461   1.397
94746W        W64561  39.323   6.427   2.368
94747W        W64562  42.880  44.831  11.555
94748W        W64563  31.419  31.931   5.265
94749W        W64564  42.407  34.042  13.010
94750W        W64565  19.111  22.545  10.481
94751W        W64566  16.082  20.734   2.761
94752W        W64567  34.458   7.352  14.471
94753W        W64568   4.327  19.159   3.731
94754W        W64569  40.962  42.462   3.835
94755W        W64570  26.645  12.736   4.641
94756W        W64571  26.069  19.251  10.427
94757W        W64572   3.871  40.046  13.994
94758W        W64573  13.619  17.736   2.790
94759W        W64574  15.223  42.801  10.548
94760W        W64575  42.965  15.607   5.253
94761W        W64576  28.134  40.333   3.726
94762W        W64577  34.879  23.199   2.408
94763W        W64578  26.497  22.582   0.905
94764W        W64579  39.847  31.132  14.295
94765W        W64580  21.587  18.214   2.288
94766W        W64581  26.102  41.966   4.808
94767W        W64582  40.048  16.572   1.432
94768W        W64583  29.596  21.263   5.223
94769W        W64584  44.445   0.284   0.754
94770W        W64585   5.864   8.169  13.017
94771W        W64586  44.840  23.037  11.090
94772W        W64587   4.444  14.641  10.948
94773W        W64588  29.922   4.376  13.846
94774W        W64589  43.825  29.601   2.370
94775W        W64590  41.463  25.111   2.211
94776W        W64591  15.633  24.216   4.130
94777W        W64592  14.739  28.105   2.791
94778W        W64593   8.824  18.580   3.238
94779W        W64594  34.377   0.842   4.151
94780W        W64595   4.271   3.244   2.771
94781W        W64596  31.908  11.187  14.344
94782W        W64597  21.630   3.912  11.592
94783W        W64598  24.131  17.236   1.346
94784W        W64599   5.789  35.005  13.509
94785W        W64600  34.985   8.363  14.424
94786W        W64601  22.152  41.510   3.331
94787W        W64602   4.823  11.677  13.329
94788W        W64603  30.573   0.828  14.493
94789W        W64604  23.693  16.579  11.033
94790W        W64605   9.258  24.086   0.330
94791W        W64606  25.670  24.525   3.687
94792W        W64607  18.782  26.659  12.434
94793W        W64608  26.971  36.559   2.285
94794W        W64609   5.763   3.225  13.394
94795W        W64610  19.706   9.819   4.351
94796W        W64611  21.632   1.340   5.752
94797W        W64612  30.964  30.521   1.423
94798W        W64613   2.237  29.542   2.348
94799W        W64614  27.987  28.658   4.674
94800W        W64615  40.921  39.922  13.547
94801W        W64616  29.965   9.247   2.666
94802W        W64617   9.787  33.405   3.343
94803W        W64618  39.957   1.288  14.002
94804W        W64619  42.826  23.529   2.832
94805W        W64620  30.993  35.859  14.308
94806W        W64621  21.667   0.933  12.565
94807W        W64622  20.045  43.454   1.833
94808W        W64623  36.964   3.260   4.821
94809W        W64624  15.288  29.650  14.998
94810W        W64625   4.390   4.440   3.661
94811W        W64626  32.108  34.963  14.817
94812W        W64627  16.741  44.411   2.819
94813W        W64628  32.076  36.953   2.217
94814W        W64629  36.578  41.915   0.357
94815W        W64630  39.977  31.646   3.734
94816W        W64631  44.990  15.189  11.101
94817W        W64632  31.144  29.046   1.423
94818W        W64633  20.159  30.492  13.371
94819W        W64634  44.303  20.736   2.777
94820W        W64635  43.985  32.892   4.182
94821W        W64636  44.991  42.911   0.255
94822W        W64637  32.460  22.558  11.414
94823W        W64638   8.845  38.465   3.813
94824W        W64639  44.824   6.335   0.277
94825W        W64640  32.080  33.507  14.893
94826W        W64641  43.476  14.646   3.651
94827W        W64642  21.194  10.862   4.123
94828W        W64643   3.309  27.656  12.387
94829W        W64644   5.207  14.699   4.602
94830W        W64645  34.966  15.125  10.562
94831W        W64646  30.974  37.343   5.188
94832W        W64647  43.894  23.204   0.849
94833W        W64648   4.885  40.399  14.926
94834W        W64649   9.840  19.220   4.766
94835W        W64650  22.093  32.446  13.049
94836W        W64651  19.084  37.087   3.148
94837W        W64652   9.168  38.531  14.867
94838W        W64653  27.946  25.504   4.837
94839W        W64654  39.966  25.677  11.610
94840W        W64655  11.834   9.772  11.383
94841W        W64656   3.363  23.655  12.824
94842W        W64657  27.615  40.370   3.763
94843W        W64658   8.718  43.461   4.669
94844W        W64659  25.663  11.719   9.517
94845W        W64660  17.623  21.740   0.765
94846W        W64661  44.983  20.525  11.885
94847W        W64662   2.964  16.278  14.461
94848W        W64663   2.230  13.200  13.838
94849W        W64664  21.562  22.156   0.357
94850W        W64665  13.818  14.249   2.181
94851W        W64666  22.729   0.804   0.749
94852W        W64667  24.700  26.510  11.536
94853W        W64668   3.867  25.986   4.259
94854W        W64669  43.018  36.501   1.728
94855W        W64670  27.011   3.774  11.038
94856W        W64671  43.923  21.130   4.248
94857W        W64672  31.961  32.429   1.439
94858W        W64673  22.710  30.622  10.511
94859W        W64674  28.566  42.781   3.201
94860W        W64675  28.571   9.693   2.267
94861W        W64676  35.396   3.355  10.542
94862W        W64677  33.122  10.270   0.267
94863W        W64678  38.989  20.175   3.378
94864W        W64679   8.388  37.462   1.290
94865W        W64680  13.257  16.607  12.404
94866W        W64681  14.137  11.863   3.769
94867W        W64682  15.581  16.227   4.303
94868W        W64683  21.675  29.503  14.411
94869W        W64684  43.871   0.787   2.881
94870W        W64685  21.064  17.697   4.813
94871W        W64686  11.766  17.695   2.405
94872W        W64687   6.822  20.533  12.496
94873W        W64688  39.526   4.296  14.446
94874W        W64689   0.312  37.834   1.844
94875W        W64690  22.644  22.242   1.875
94876W        W64691   8.253  20.049  12.468
94877W        W64692  25.486   0.352   0.951
94878W        W64693  41.874   3.394   2.349
94879W        W64694  19.636   8.211   3.310
94880W        W64695  36.459  42.901  14.344
94881W        W64696   3.896  21.679  12.987
94882W        W64697  31.037  16.752   1.283
94883W        W64698  18.547  39.489  10.437
94884W        W64699   6.843  18.222  13.815
94885W        W64700  23.516  18.698  13.856
94886W        W64701   3.780  32.075  13.817
94887W        W64702   0.401  20.620   4.787
94888W        W64703  11.748  19.555   2.693
94889W        W64704  21.216  37.423   1.376
94890W        W64705   1.877  31.431   0.961
94891W        W64706   0.374  11.823   4.712
94892W        W64707  40.481  42.379   4.307
94893W        W64708  44.325  41.869   3.183
94894W        W64709  14.265  36.388   2.364
94895W        W64710  38.907  36.548  12.020
94896W        W64711  25.974  41.970  13.887
94897W        W64712  32.467  12.775  11.058
94898W        W64713  38.934   9.301  10.982
94899W        W64714  35.880  27.527  12.500
94900W        W64715  37.936   1.247  14.010
94901W        W64716  40.335   3.311   4.811
94902W        W64717  30.932  27.141   2.726
94903W        W64718  43.488  14.278   1.699
94904W        W64719  40.373  11.149   1.903
94905W        W64720  35.886   1.371   0.370
94906W        W64721  37.366   4.234   1.921
94907W        W64722  37.076   2.850   1.211
94908W        W64723   4.902  35.440   0.891
94909W        W64724  28.461  23.096   1.298
94910W        W64725   0.762  40.380   5.082
94911W        W64726  18.062  44.861   2.321
94912W        W64727  31.090  21.225  13.958
94913W        W64728  37.041   0.478  14.888
94914W        W64729  27.076  37.046   2.820
94915W        W64730  35.536  30.912  11.993
94916W        W64731   1.756   2.323   4.339
94917W        W64732  16.688  42.993  10.915
94918W        W64733  22.703   6.829   0.808
94919W        W64734  28.531  10.828  10.412
94920W        W64735  41.420  43.857   4.346
94921W        W64736  12.743  39.833   2.763
94922W        W64737  14.823  44.807  13.339
94923W        W64738   4.324  23.489  11.867
94924W        W64739  15.634  37.992  11.086
94925W        W64740  36.861  12.163   3.798
94926W        W64741   1.400   4.843   3.260
94927W        W64742  24.710  25.632  12.360
94928W        W64743  37.478  31.620  12.421
94929W        W64744  44.430  17.216   1.768
94930W        W64745   7.392   6.211   3.746
94931W        W64746   6.765   1.308   2.797
94932W        W64747  13.313  23.048  12.903
94933W        W64748  39.345   8.803  12.398
94934W        W64749  43.871   8.695   3.305
94935W        W64750  24.067  13.312   3.198
94936W        W64751  23.008  28.507  14.779
94937W        W64752  35.449   9.375   3.661
94938W        W64753  33.035  23.091  11.410
94939W        W64754  10.222  29.078   1.778
94940W        W64755  12.148  35.070   2.235
94941W        W64756  34.575  16.773   0.754
94942W        W64757  13.224   1.466   4.122
94943W        W64758  11.131  37.891  12.085
94944W        W64759  38.520  21.050   3.771
94945W        W64760  38.527  39.034   2.325
94946W        W64761  14.776  23.074   1.313
94947W        W64762  13.142  26.656   1.749
94948W        W64763  33.994  23.137  12.960
94949W        W64764  35.383  27.620   2.244
94950W        W64765  36.969  17.284  12.879
94951W        W64766  40.043  43.863   2.238
94952W        W64767  42.344  22.245  12.467
94953W        W64768   8.729  21.227  12.511
94954W        W64769   3.906  40.988  11.946
94955W        W64770   1.392   9.849  13.916
94956W        W64771  17.176  29.611   0.922
94957W        W64772  36.973  14.198  14.394
94958W        W64773  34.989  36.502   0.436
94959W        W64774  13.332  17.776   0.446
94960W        W64775   1.845   6.873   3.368
94961W        W64776   9.778  42.355  11.996
94962W        W64777  10.759  40.856   4.215
94963W        W64778  28.068  24.195   2.237
94964W        W64779  41.299  38.891   4.671
94965W        W64780   6.875  38.385  11.586
94966W        W64781  43.992  18.782   1.398
94967W        W64782  33.092   6.705   1.362
94968W        W64783  10.695  11.272  13.796
94969W        W64784  36.411  19.081   3.848
94970W        W64785  32.142  19.091   0.733
94971W        W64786  28.455  15.712  12.091
94972W        W64787  21.623  17.691  12.475
94973W        W64788  16.286  38.051  14.379
94974W        W64789  22.555  37.074  12.854
94975W        W64790  11.802  17.635   3.713
94976W        W64791  11.811  23.553   5.122
94977W        W64792  18.229   4.260  11.986
94978W        W64793  41.317  29.669   0.310
94979W        W64794  29.582  44.450  11.917
94980W        W64795  41.312  34.887  13.059
94981W        W64796   3.928  38.473  12.837
94982W        W64797  25.698  40.524   4.750
94983W        W64798   2.448  30.511  14.849
94984W        W64799  10.181  18.196   2.285
94985W        W64800   0.368  19.220  14.910
94986W        W64801  38.427  14.615   3.675
94987W        W64802  33.542  34.882   3.211
94988W        W64803  32.484  11.302  11.084
94989W        W64804  23.610  20.042  11.588
94990W        W64805  11.213  35.101   4.747
94991W        W64806  36.945  26.574  14.409
94992W        W64807  29.078  36.993   4.150
94993W        W64808  19.223  39.838   1.323
94994W        W64809   9.643  33.623  12.039
94995W        W64810   6.698   3.287   4.676
94996W        W64811  36.375   0.369  12.838
94997W        W64812   2.883  42.284   4.117
94998W        W64813  27.974  28.163  13.403
94999W        W64814   5.393  14.752   3.663
95000W        W64815  25.521  29.485  14.359
95001W        W64816  15.130   9.256   3.831
95002W        W64817  22.627  26.569   4.114
95003W        W64818  41.894  18.765   2.209
95004W        W64819  23.027   1.873  11.096
95005W        W64820  34.561  19.639   4.690
95006W        W64821   0.781  41.826   3.152
95007W        W64822  38.434  40.012  10.933
95008W        W64823  35.982  40.797  13.957
95009W        W64824   6.753  25.023  13.391
95010W        W64825  25.530  10.307   1.297
95011W        W64826   3.352   6.182   1.387
95012W        W64827   4.742  21.043  10.509
95013W        W64828  13.140   4.280   3.688
95014W        W64829  19.651  14.229   0.336
95015W        W64830  28.567  27.551   0.881
95016W        W64831   9.863  11.822  10.975
95017W        W64832  15.680   8.295   3.699
95018W        W64833  20.708  22.528   2.329
95019W        W64834   5.377   6.258  12.529
95020W        W64835   0.261  37.576  11.961
95021W        W64836  20.252   3.327  11.025
95022W        W64837   5.868  44.002   3.722
95023W        W64838   0.482  30.653  11.063
95024W        W64839  44.432  30.630  11.438
95025W        W64840  38.971  18.596  13.448
95026W        W64841  31.029  34.397  10.944
95027W        W64842  18.635  44.502  13.338
95028W        W64843  39.887  30.078   4.704
95029W        W64844   0.270  14.803  11.444
95030W        W64845  27.624  42.421   3.289
95031W        W64846  24.612  37.079  14.783
95032W        W64847  13.255  21.661  14.337
95033W        W64848   5.276   4.850  12.553
95034W        W64849  32.904  39.937   2.399
95035W        W64850  27.020  40.536  14.427
95036W        W64851  37.391  10.339  12.911
95037W        W64852   2.403  32.506  10.463
95038W        W64853  12.293  27.021   2.312
95039W        W64854  25.015  25.603   3.157
95040W        W64855  44.970  29.556  12.398
95041W        W64856   9.171  37.457  12.466
95042W        W64857  25.032  39.835   1.755
95043W        W64858  13.173  17.215   0.767
95044W        W64859  38.521  11.254  14.022
95045W        W64860  41.805  18.171  12.074
95046W        W64861  20.691  40.900  13.995
95047W        W64862  41.969  32.033  12.540
95048W        W64863  12.612  36.421   2.831
95049W        W64864  25.218  33.483   4.665
95050W        W64865  40.496   8.856  10.584
95051W        W64866   6.726  11.650   4.200
95052W        W64867   0.878   0.960   2.752
95053W        W64868  13.644  22.587   4.148
95054W        W64869  12.157  41.404  13.530
95055W        W64870  16.103  39.014   0.398
95056W        W64871  25.571  11.717  10.080
95057W        W64872  10.236  19.114  10.067
95058W        W64873  39.052  22.047   3.251
95059W        W64874  37.965   2.863   2.284
95060W        W64875  13.115  11.238   2.900
95061W        W64876  25.506  30.602  14.303
95062W        W64877  27.613  11.707  11.957
95063W        W64878  41.002  28.148  11.445
95064W        W64879  29.565  39.556   4.294
95065W        W64880  34.427  10.248  14.900
95066W        W64881  44.470  40.820   1.781
95067W        W64882  26.641   0.904  12.491
95068W        W64883  21.530  12.344   3.339
95069W        W64884  14.154  42.480   3.360
95070W        W64885  31.896  28.011   4.829
95071W        W64886  23.530  25.123  13.898
95072W        W64887   3.939   6.835  10.954
95073W        W64888  23.996  21.213  13.026
95074W        W64889  23.167  33.876   3.765
95075W        W64890  17.127  43.944   3.730
95076W        W64891  34.972  30.473  13.392
95077W        W64892  34.090  30.086  11.981
95078W        W64893  24.984  19.276   1.694
95079W        W64894  37.895  12.214  14.980
95080W        W64895  30.938  36.043   2.326
95081W        W64896  25.045  40.359   5.097
95082W        W64897  35.870  24.980   3.778
95083W        W64898  15.305  12.766   3.149
95084W        W64899  44.285  36.549  10.049
95085W        W64900   9.839  41.898  10.031
95086W        W64901  31.401  29.151  13.451
95087W        W64902   4.423   6.739  13.996
95088W        W64903   4.265   5.718   3.835
95089W        W64904  42.880  37.064   2.812
95090W        W64905  18.718  20.271   0.279
95091W        W64906  28.510  32.091  10.636
95092W        W64907  42.448   0.791  14.404
95093W        W64908  40.970   8.693  13.036
95094W        W64909  28.633  40.860  11.924
95095W        W64910  25.085  22.120  13.495
95096W        W64911  19.644  12.770   0.253
95097W        W64912  21.090  26.011  14.375
95098W        W64913  20.201  34.048   1.806
95099W        W64914  35.379  12.686   4.689
95100W        W64915  42.512  34.455   3.642
95101W        W64916   5.880   8.807  11.114
95102W        W64917  27.474  27.616   3.659
95103W        W64918  23.117   5.931   2.373
95104W        W64919  27.504  41.921   2.889
95105W        W64920  36.414  31.078   3.269
95106W        W64921  25.045   5.310  11.066
95107W        W64922  25.162  16.601   3.203
95108W        W64923  18.691  18.247   1.432
95109W        W64924  22.246  14.241   2.781
95110W        W64925  37.468  33.489  10.423
95111W        W64926   6.757   3.273  11.959
95112W        W64927  33.923   7.257   2.822
95113W        W64928  19.204  28.548  12.051
95114W        W64929  31.478   0.334   1.741
95115W        W64930  40.024  20.089   2.317
95116W        W64931  23.644   1.371  13.450
95117W        W64932  26.961  16.116   2.675
95118W        W64933  24.074  37.978  10.498
95119W        W64934  35.007  12.353  13.938
95120W        W64935  31.896   4.878   1.764
95121W        W64936  39.990  22.065   3.245
95122W        W64937  40.374   7.787   9.559
95123W        W64938  15.197  15.812  11.081
95124W        W64939  18.585   0.798   3.225
95125W        W64940  44.489  21.165   2.719
95126W        W64941  44.485  15.781   3.353
95127W        W64942   5.343  41.884   1.300
95128W        W64943  26.052  32.908  12.398
95129W        W64944  10.814  18.050   1.834
95130W        W64945  38.946  19.603  10.898
95131W        W64946  43.514  27.065  13.801
95132W        W64947  28.019  30.587   1.701
95133W        W64948  28.985  42.793   0.420
95134W        W64949  20.613  28.452   1.246
95135W        W64950  25.988  12.334  10.034
95136W        W64951  31.614   4.257  13.311
95137W        W64952   6.794  28.438  13.494
95138W        W64953  23.556  29.084   4.114
95139W        W64954  22.676  13.234  10.574
95140W        W64955   3.241  24.488   1.266
95141W        W64956  16.692   2.739  14.905
95142W        W64957  39.903  13.126   2.284
95143W        W64958  12.721  39.035   0.785
95144W        W64959  44.373  35.492  12.479
95145W        W64960  29.101   3.334   3.782
95146W        W64961  27.452   9.785  10.497
95147W        W64962  26.458  39.420   4.354
95148W        W64963  30.001  29.583   2.889
95149W        W64964  42.372  11.850   4.196
95150W        W64965   4.887  10.379   5.232
95151W        W64966  44.829  38.823  10.915
95152W        W64967  11.300  15.106  12.350
95153W        W64968  32.121  18.138  11.613
95154W        W64969  21.047  32.085  10.568
95155W        W64970   7.894  33.970  11.861
95156W        W64971  11.773   3.411  14.507
95157W        W64972   4.280   3.849   1.796
95158W        W64973  21.072   2.392  14.959
95159W        W64974  20.725  25.708  11.950
95160W        W64975   4.271  27.623  12.473
95161W        W64976  31.483  18.183   0.355
95162W        W64977  43.317  34.506  10.113
95163W        W64978   7.391  15.119   2.220
95164W        W64979  29.996   3.936   3.181
95165W        W64980   7.892   9.874  13.946
95166W        W64981  27.055  19.635  11.993
95167W        W64982  34.576  31.061  13.467
95168W        W64983  31.985  28.953  12.076
95169W        W64984  36.521  21.113  14.379
95170W        W64985   3.717  23.584  11.421
95171W        W64986  37.959  25.156  13.856
95172W        W64987   0.479  10.272   0.280
95173W        W64988  44.964  39.498  12.904
95174W        W64989  22.743  13.205   0.848
95175W        W64990  17.080  41.323   0.337
95176W        W64991  32.132  22.153  11.454
95177W        W64992  21.251  42.873   1.427
95178W        W64993  37.555  44.853   3.159
95179W        W64994   8.385  14.617   1.350
95180W        W64995  12.323  29.943   0.783
95181W        W64996  43.958  16.807   0.867
95182W        W64997   4.835  27.523   3.741
95183W        W64998  34.608  27.074  13.838
95184W        W64999  41.322  21.659   1.428
95185W        W65000  21.631  29.070   4.257
95186W        W65001  10.294  31.638  13.953
95187W        W65002  32.132  39.552   3.366
95188W        W65003   6.361   8.339  13.002
95189W        W65004  38.332  14.672   2.310
95190W        W65005  36.576   3.328  10.979
95191W        W65006  17.095  17.274  12.854
95192W        W65007   8.350   7.812   1.298
95193W        W65008  27.193  42.804   3.760
95194W        W65009  24.643  31.573   1.268
95195W        W65010  36.535  21.755  12.494
95196W        W65011  44.857  21.141  14.442
95197W        W65012  34.372  31.479   0.939
95198W        W65013  28.126  28.040  14.296
95199W        W65014  12.187  18.575  11.096
95200W        W65015   1.810   5.225  11.115
95201W        W65016   4.224  23.650  10.456
95202W        W65017  26.680  20.088   4.801
95203W        W65018  10.221   6.735  14.410
95204W        W65019  11.640  13.669  14.925
95205W        W65020  25.572  11.329   3.324
95206W        W65021  18.619  38.977   1.263
95207W        W65022  32.948  31.121  14.386
95208W        W65023  17.065   8.197  10.894
95209W        W65024   7.687  39.418   3.717
95210W        W65025  44.899  26.577  11.584
95211W        W65026  37.351  27.053  10.446
95212W        W65027   1.869   0.986   2.823
95213W        W65028  32.128  31.416  12.862
95214W        W65029  23.688  38.884  11.594
95215W        W65030  34.953  41.332  11.029
95216W        W65031  32.427  23.085   4.837
95217W        W65032  32.011  26.092   0.964
95218W        W65033  28.149  38.395   2.665
95219W        W65034   4.713  43.820  11.597
95220W        W65035  11.363  38.984  10.411
95221W        W65036  44.315  33.440   2.743
95222W        W65037  29.579  16.697   3.211
95223W        W65038  22.692  34.988   4.648
95224W        W65039   7.210  23.161   0.874
95225W        W65040  20.137  24.976   3.694
95226W        W65041  20.145  12.739   3.702
95227W        W65042   7.700  21.581   2.416
95228W        W65043  44.860  15.206   2.344
95229W        W65044  30.967  24.620   4.314
95230W        W65045   5.235  17.683  14.814
95231W        W65046  10.349  39.013   0.779
95232W        W65047  31.123  17.299  14.766
95233W        W65048   0.747  24.014   2.837
95234W        W65049  11.687  37.074  11.434
95235W        W65050  14.233   5.761  14.367
95236W        W65051  26.072  43.859  14.848
95237W        W65052  14.659  26.200   4.710
95238W        W65053   0.790   7.890   2.198
95239W        W65054   7.354  23.656  14.858
95240W        W65055  16.259  26.643  13.941
95241W        W65056  36.511   8.796  12.828
95242W        W65057  19.534  41.380   0.407
95243W        W65058  24.709  15.113   4.212
95244W        W65059  43.880  30.481  12.060
95245W        W65060  17.566  14.635  11.501
95246W        W65061  25.155  29.458  13.995
95247W        W65062  11.173  36.542   3.788
95248W        W65063  35.539  31.515  11.068
95249W        W65064  40.489  20.666  10.420
95250W        W65065  17.602  12.747  13.484
95251W        W65066  28.047  18.085  11.084
95252W        W65067  38.034  26.032   0.455
95253W        W65068   6.325  22.247   2.860
95254W        W65069  29.011  10.233   2.864
95255W        W65070   0.270   6.351   2.325
95256W        W65071  25.592  34.003  10.592
95257W        W65072  42.969   3.362   5.262
95258W        W65073   0.306  19.562   4.310
95259W        W65074   4.215  33.617   1.740
95260W        W65075  41.025  10.712  13.993
95261W        W65076  10.682  19.778   4.350
95262W        W65077  21.044   8.884  12.877
95263W        W65078   0.980  20.130   2.205
95264W        W65079  44.784  17.725   3.248
95265W        W65080  27.618  18.688  11.939
95266W        W65081   6.869   9.823   4.815
95267W        W65082  41.790  37.989  13.450
95268W        W65083  42.451  12.841  11.906
95269W        W65084   4.765  22.140   3.805
95270W        W65085   4.293   5.764  12.927
95271W        W65086  34.368   9.365  12.033
95272W        W65087   8.288  29.103  10.499
95273W        W65088  24.501  42.982  14.811
95274W        W65089  24.978  32.637   1.712
95275W        W65090  21.052   3.866  11.372
95276W        W65091  36.386   8.228  13.997
95277W        W65092   1.835  16.111   0.727
95278W        W65093  30.642  27.143   1.354
95279W        W65094   0.918  28.084   4.752
95280W        W65095  35.502  10.319  14.933
95281W        W65096  14.815  26.975   2.274
95282W        W65097   2.768  43.826   3.675
95283W        W65098  29.456  28.022   2.752
95284W        W65099  41.966   5.700   1.245
95285W        W65100  11.688  30.153  10.965
95286W        W65101   1.247   6.746  13.369
95287W        W65102  19.085  20.219  14.494
95288W        W65103  29.970  18.734   1.709
95289W        W65104   4.405   4.419  10.468
95290W        W65105  21.159  12.614   4.670
95291W        W65106   2.434   4.846  14.005
95292W        W65107   8.281   3.386  14.465
95293W        W65108  11.135   2.278   4.680
95294W        W65109  22.110   1.863  13.825
95295W        W65110  22.236  33.050  14.346
95296W        W65111   5.434  30.573   1.764
95297W        W65112  33.593  23.526  10.099
95298W        W65113  33.946   3.317  12.007
95299W        W65114  14.712  11.356   2.697
95300W        W65115  14.821   2.794  12.558
95301W        W65116  11.151  26.614   5.086
95302W        W65117  19.534  13.108  13.323
95303W        W65118   8.854  37.442   2.385
95304W        W65119  30.134   5.229   4.121
95305W        W65120  40.999  14.699  11.916
95306W        W65121  32.972   2.916   0.263
95307W        W65122  20.209   9.877   4.636
95308W        W65123   7.693  13.676   2.220
95309W        W65124  36.050   8.378   4.118
95310W        W65125   6.704  34.396   2.720
95311W        W65126  43.894   7.405   3.264
95312W        W65127   4.864   9.178   4.783
95313W        W65128  29.651  43.001  12.497
95314W        W65129  41.828  19.637  13.833
95315W        W65130  10.315  29.444  14.295
95316W        W65131  43.924  14.704  13.005
95317W        W65132  37.899   3.283   5.084
95318W        W65133  41.380  31.498  14.314
95319W        W65134  19.078   9.334  14.275
95320W        W65135  20.153  14.338   0.421
95321W        W65136  44.783   9.748  14.015
95322W        W65137  18.555  30.071   2.846
95323W        W65138  21.616   8.862  11.538
95324W        W65139  42.813  23.158   0.780
95325W        W65140   2.795  17.584  12.384
95326W        W65141  39.537  19.578  14.997
95327W        W65142  13.678  30.015   0.296
95328W        W65143   1.382  11.858  12.546
95329W        W65144  43.005  21.703  11.413
95330W        W65145  10.159  20.636  11.492
95331W        W65146  10.235  25.513  11.055
95332W        W65147  23.034  23.690   4.194
95333W        W65148   7.241   6.421   4.750
95334W        W65149  44.847  18.202  11.907
95335W        W65150   7.862   8.199  13.901
95336W        W65151  32.551   6.785  13.864
95337W        W65152  30.947  30.607  12.477
95338W        W65153  14.141  37.884   0.452
95339W        W65154   1.286  16.089   2.203
95340W        W65155  18.275   6.723   3.162
95341W        W65156   9.849  43.462   1.924
95342W        W65157   7.880  44.450   2.333
95343W        W65158  28.138   5.414   3.756
95344W        W65159  31.415  35.992   2.750
95345W        W65160   9.262  26.537  11.928
95346W        W65161  25.017   7.392  12.571
95347W        W65162  29.139  26.534   4.643
95348W        W65163   8.400   2.911  12.433
95349W        W65164  25.026  37.965  11.034
95350W        W65165  44.298   8.398  12.360
95351W        W65166   0.972  18.641   3.648
95352W        W65167   2.425   0.491   2.362
95353W        W65168   9.366  34.037   2.864
95354W        W65169  21.561  38.947  14.305
95355W        W65170  28.640  18.291  10.488
95356W        W65171  21.607   1.413   1.710
95357W        W65172  21.563  15.271   0.781
95358W        W65173  41.826  40.920   0.861
95359W        W65174   1.820  32.609   2.675
95360W        W65175   0.288  42.523  10.599
95361W        W65176   0.248  34.916  14.830
95362W        W65177  26.534   2.290   1.873
95363W        W65178  40.411   0.856   4.633
95364W        W65179   4.393   9.766   1.861
95365W        W65180  29.660  22.238   4.737
95366W        W65181   5.230   0.896   2.228
95367W        W65182  24.704  29.616  10.505
95368W        W65183  34.452  39.064   0.360
95369W        W65184  18.670  21.200  14.515
95370W        W65185   9.250  35.550   4.169
95371W        W65186  10.142  27.084  13.467
95372W        W65187  34.603   4.244  11.003
95373W        W65188  27.185  12.220  10.079
95374W        W65189  26.662  23.029  12.578
95375W        W65190  43.872  22.563   0.355
95376W        W65191  31.413  33.888  11.010
95377W        W65192  24.223  33.017   1.900
95378W        W65193  24.153   2.431   0.299
95379W        W65194  28.109  19.561  11.897
95380W        W65195  22.708  18.255  13.518
95381W        W65196  31.465  43.850   0.259
95382W        W65197  42.378  30.642   2.762
95383W        W65198  41.341  28.620   2.263
95384W        W65199  21.230   9.362   1.283
95385W        W65200  34.026  30.992  10.480
95386W        W65201  11.827  38.995  14.429
95387W        W65202  37.487  32.483  11.430
95388W        W65203  15.289  29.551   0.880
95389W        W65204  11.202  15.252  12.029
95390W        W65205  43.339  31.620   0.750
95391W        W65206  25.209  14.776   1.882
95392W        W65207   2.905  44.964  12.957
95393W        W65208  28.459  13.326  13.531
95394W        W65209  28.016  42.438  11.076
95395W        W65210  14.196  43.286  10.529
95396W        W65211   2.466  11.131   1.929
95397W        W65212  22.055  15.754  13.376
95398W        W65213  10.195  31.985   3.306
95399W        W65214  26.619  12.251  14.878
95400W        W65215  21.667  11.356   1.926
95401W        W65216   4.794  19.701   0.892
95402W        W65217  34.469   8.336  10.633
95403W        W65218  40.054  40.470  14.941
95404W        W65219  42.943   7.352  11.586
95405W        W65220   1.264  36.946   0.917
95406W        W65221  33.450  19.613  14.796
95407W        W65222   8.318  30.480   0.798
95408W        W65223  14.776  43.888   2.192
95409W        W65224  28.980  36.012  10.444
95410W        W65225   0.376   0.988  12.513
95411W        W65226  18.710  30.915  10.977
95412W        W65227  22.567   6.224   1.232
95413W        W65228   8.398  33.076   0.783
95414W        W65229  34.052   8.847   0.355
95415W        W65230  12.724  15.232  12.075
95416W        W65231  28.996  25.022  11.093
95417W        W65232  30.069  22.021  10.580
95418W        W65233  18.258  21.245   3.314
95419W        W65234  18.675  21.129   2.877
95420W        W65235  34.055   3.865  10.955
95421W        W65236  41.004  17.583   4.658
95422W        W65237  27.062   5.766  11.864
95423W        W65238  40.047  10.844  12.083
95424W        W65239  44.915  25.994   1.844
95425W        W65240  19.156   2.902  14.455
95426W        W65241   3.830  19.044  14.861
95427W        W65242  40.888  14.767  14.383
95428W        W65243  26.659  35.461  13.371
95429W        W65244  31.440  41.871  10.411
95430W        W65245   0.422  27.614  13.058
95431W        W65246  22.501  38.555  11.387
95432W        W65247  42.880  33.522   1.828
95433W        W65248  27.093   4.855   3.806
95434W        W65249  34.111  33.095   0.755
95435W        W65250  27.618  33.453  12.484
95436W        W65251  27.971  25.662   0.846
95437W        W65252  28.116  29.148   3.756
95438W        W65253  18.130   7.782  12.832
95439W        W65254  13.298  36.040  14.827
95440W        W65255   2.838  20.628  12.369
95441W        W65256  39.320  37.915  12.070
95442W        W65257  15.086  38.895  13.545
95443W        W65258  41.343   5.884  11.384
95444W        W65259  25.162   0.970   2.682
95445W        W65260  40.403  12.784   4.194
95446W        W65261  15.805   3.826   2.342
95447W        W65262  28.622   7.414  14.358
95448W        W65263  14.266   2.381   1.395
95449W        W65264  44.911  23.206  10.617
95450W        W65265   7.290  19.187   2.414
95451W        W65266  29.534  23.154  14.848
95452W        W65267  25.675  34.037   3.808
95453W        W65268  24.217   3.817   2.196
95454W        W65269  43.999   5.323   3.217
95455W        W65270  23.528   1.762  12.371
95456W        W65271  39.398  19.538   3.724
95457W        W65272   6.749   8.782  11.371
95458W        W65273  40.952  38.937  14.280
95459W        W65274  18.199  26.168  12.878
95460W        W65275   4.399  10.793   2.800
95461W        W65276  32.613  40.408  11.500
95462W        W65277  44.302  13.699  14.439
95463W        W65278  30.127  43.294  11.479
95464W        W65279  37.512  28.060   5.254
95465W        W65280  36.401   0.282  10.016
95466W        W65281  19.774  20.669  12.389
95467W        W65282  26.202  33.455  12.395
95468W        W65283  33.884  43.393   4.153
95469W        W65284  42.836  25.211   1.412
95470W        W65285  37.902  43.802  12.551
95471W        W65286  19.663  44.832   5.167
95472W        W65287  15.230  30.424   4.155
95473W        W65288   6.885  20.155  11.978
95474W        W65289  36.546   4.280   0.963
95475W        W65290  37.534  27.118   5.170
95476W        W65291  12.240  38.550  12.389
95477W        W65292   4.817  24.060   1.720
95478W        W65293  38.449  31.060   3.337
95479W        W65294  13.118  40.004  11.022
95480W        W65295  15.688   9.664  11.500
95481W        W65296  20.606  28.953   4.768
95482W        W65297  23.174  19.130  13.374
95483W        W65298   9.256  14.332   1.802
95484W        W65299  34.118  32.072   1.879
95485W        W65300  18.639  17.647  13.401
95486W        W65301  10.198  43.955   1.734
95487W        W65302  10.206   3.805  14.411
95488W        W65303  18.064  20.586   2.390
95489W        W65304   9.311  18.677   3.158
95490W        W65305  40.418  16.101   4.136
95491W        W65306  37.495  35.870  13.961
95492W        W65307   1.252  31.123  12.873
95493W        W65308  39.403  24.725   0.266
95494W        W65309  31.081   5.337  11.544
95495W        W65310  17.626  32.129  11.900
95496W        W65311  39.887  17.202   4.245
95497W        W65312  27.518  32.011  10.966
95498W        W65313  26.670   8.758  14.989
95499W        W65314   8.718   5.209  13.483
95500W        W65315   2.339  21.639  14.854
95501W        W65316  34.461  40.444  11.916
95502W        W65317  22.065  40.955  13.891
95503W        W65318   6.249  35.890   0.291
95504W        W65319  34.392  27.630  14.808
95505W        W65320  17.156  16.258  10.111
95506W        W65321  26.486  44.782  12.910
95507W        W65322  44.908   7.822  13.463
95508W        W65323   9.219  25.551   0.791
95509W        W65324  44.910  27.006  12.017
95510W        W65325  21.591   0.298   3.219
95511W        W65326  27.590  37.344  10.602
95512W        W65327  36.030  40.487   0.455
95513W        W65328  26.190   3.330  14.985
95514W        W65329  39.324  35.877   1.774
95515W        W65330  40.045   5.772   9.592
95516W        W65331  27.154  31.055   2.197
95517W        W65332  33.902  26.703   3.740
95518W        W65333  39.851  44.482  14.917
95519W        W65334  12.192  32.952  12.576
95520W        W65335  40.858  12.353   2.899
95521W        W65336  30.114  22.696   2.827
95522W        W65337   9.802  19.235   4.264
95523W        W65338  20.188  37.389   0.916
95524W        W65339  31.610  44.885   4.134
95525W        W65340  12.282  31.924  14.896
95526W        W65341  43.465  19.094   2.664
95527W        W65342  43.310  27.942  14.372
95528W        W65343   5.707  27.108  14.455
95529W        W65344  15.316  43.890  12.019
95530W        W65345  27.664  36.547   2.837
95531W        W65346  40.512   9.392   1.714
95532W        W65347  17.654  38.336  14.461
95533W        W65348  13.603  20.158  12.939
95534W        W65349  24.664   2.276   4.793
95535W        W65350  26.188  32.969  13.495
95536W        W65351  41.898  14.666   0.303
95537W        W65352  23.163  34.037  14.299
95538W        W65353   5.866   9.808  14.900
95539W        W65354   1.348  39.902   3.361
95540W        W65355   3.219  27.610   3.694
95541W        W65356  11.675   1.886   0.941
95542W        W65357   8.372  28.513  10.561
95543W        W65358  38.859  39.517   4.315
95544W        W65359   1.274   8.372   4.745
95545W        W65360   5.220  19.600   4.747
95546W        W65361  43.912  35.580   4.788
95547W        W65362  41.824  36.995   2.377
95548W        W65363  24.057   3.722   4.646
95549W        W65364  40.016  30.442   0.754
95550W        W65365  44.474  28.668   0.745
95551W        W65366  34.600  23.694   1.694
95552W        W65367  16.806  10.269  13.421
95553W        W65368  22.109  40.046   1.267
95554W        W65369  44.355   4.837   4.282
95555W        W65370  20.704  31.129   3.168
95556W        W65371   4.392  20.736  10.942
95557W        W65372  41.468  35.376  12.951
95558W        W65373  30.002  17.615  13.381
95559W        W65374  16.190  23.203   0.418
95560W        W65375  37.917   1.765  11.581
95561W        W65376   3.821  18.139  14.893
95562W        W65377   4.208   2.388  11.544
95563W        W65378  11.159   5.699   2.178
95564W        W65379   7.758  10.306  11.124
95565W        W65380  24.562  17.208   1.239
95566W        W65381   6.788  23.696   2.852
95567W        W65382  30.468  26.071  11.413
95568W        W65383  13.799  30.933  13.998
95569W        W65384  27.472  10.638  13.444
95570W        W65385  32.563  22.187  11.976
95571W        W65386  15.101  36.023  10.901
95572W        W65387  37.368  19.133  14.999
95573W        W65388  14.754  41.882  13.813
95574W        W65389  15.802  30.517  10.595
95575W        W65390  31.098  44.844  12.836
95576W        W65391   4.408   9.191   3.761
95577W        W65392  33.523   5.795  12.042
95578W        W65393  20.626  27.035   3.324
95579W        W65394  43.866  31.914  14.452
95580W        W65395   4.828  41.471   1.214
95581W        W65396   5.374  31.149  14.340
95582W        W65397  32.637  29.429   2.387
95583W        W65398  10.655  27.043   2.356
95584W        W65399   8.215  38.567  12.442
95585W        W65400  23.545  41.405   3.145
95586W        W65401  41.034   0.776   1.309
95587W        W65402  10.271  19.284   0.845
95588W        W65403  39.433  29.435   0.885
95589W        W65404  40.814  40.851  12.048
95590W        W65405  40.876   7.317  11.528
95591W        W65406  35.005   4.756   2.777
95592W        W65407  17.115  14.721   4.347
95593W        W65408  12.660  10.633  12.921
95594W        W65409  25.189  43.002  12.857
95595W        W65410  43.827  15.656  10.964
95596W        W65411   0.288   2.779   2.797
95597W        W65412   2.802  26.148  13.321
95598W        W65413   1.461  33.602  12.944
95599W        W65414  28.005  29.113  12.886
95600W        W65415  36.875  21.191  14.971
95601W        W65416  13.631  10.764   1.864
95602W        W65417  17.565   8.718  12.354
95603W        W65418  28.678  12.142   1.771
95604W        W65419  16.787  27.473  12.041
95605W        W65420  32.601   9.285  10.444
95606W        W65421  10.341  39.358  11.092
95607W        W65422  13.154  14.242   0.893
95608W        W65423  31.066  41.040  11.947
95609W        W65424  11.861  30.413   2.360
95610W        W65425  27.651   8.394   1.273
95611W        W65426  31.505  33.902  11.483
95612W        W65427  30.485   4.827   4.788
95613W        W65428  23.127  43.888   0.339
95614W        W65429   0.949  10.734   3.822
95615W        W65430   8.687   2.817   1.223
95616W        W65431   0.964  24.064   0.289
95617W        W65432   8.317  43.455   2.419
95618W        W65433   5.349  35.985   2.388
95619W        W65434  42.940   3.809   3.853
95620W        W65435  14.338  10.367  13.362
95621W        W65436  21.593  19.188  11.891
95622W        W65437  31.573  22.029   2.723
95623W        W65438  28.534  25.636  10.551
95624W        W65439  23.007  35.007   4.633
95625W        W65440   1.240  27.989  12.994
95626W        W65441  11.140  19.630  12.899
95627W        W65442  27.502   0.278  10.576
95628W        W65443   3.728  31.630   2.772
95629W        W65444   2.730  29.508  12.835
95630W        W65445  34.027  17.137  11.951
95631W        W65446   1.856   3.349   4.742
95632W        W65447   6.390  32.935  10.611
95633W        W65448  40.001  11.865   2.744
95634W        W65449  11.133  22.168  14.839
95635W        W65450  14.166   7.857  10.542
95636W        W65451  32.037  10.211   4.210
95637W        W65452  27.469  30.042  10.535
95638W        W65453  39.877   6.819   2.189
95639W        W65454   9.833  26.088   4.812
95640W        W65455   0.903  32.089  13.369
95641W        W65456  14.768  28.059   5.099
95642W        W65457  40.863  28.567  10.632
95643W        W65458   0.941  31.101   1.865
95644W        W65459  29.495  31.425  10.589
95645W        W65460  35.415   0.926  11.918
95646W        W65461  35.003  10.147   1.291
95647W        W65462  13.344  35.522  12.058
95648W        W65463   4.741  23.620  11.087
95649W        W65464   1.309   4.788   4.123
95650W        W65465  34.080  44.378  14.997
95651W        W65466  10.234  12.614  10.640
95652W        W65467   0.927  34.384  10.610
95653W        W65468  33.497  24.708   0.385
95654W        W65469  37.418  35.418  11.427
95655W        W65470  44.784  22.699  10.529
95656W        W65471  31.408  28.176   4.733
95657W        W65472  20.551  22.542  13.367
95658W        W65473   6.344   8.682  13.900
95659W        W65474  31.121   4.804   0.812
95660W        W65475  22.706  24.622  11.973
95661W        W65476   4.264  14.649   0.461
95662W        W65477   8.265  12.162  10.983
95663W        W65478  12.146   4.862   0.251
95664W        W65479  35.528  41.945  10.422
95665W        W65480  10.799  23.533   2.683
95666W        W65481   5.852  40.901  13.999
95667W        W65482   5.731  31.918   3.204
95668W        W65483   7.394  38.960  13.455
95669W        W65484  11.832   4.436  10.898
95670W        W65485  32.917  41.960   4.723
95671W        W65486  12.128  12.735  12.955
95672W        W65487   6.792  29.485   2.339
95673W        W65488  27.472  36.361   3.638
95674W        W65489  25.615  22.067  14.469
95675W        W65490  30.433   3.935   0.323
95676W        W65491  12.214  28.596   3.155
95677W        W65492  21.035  19.536  10.409
95678W        W65493  44.895   1.386   2.352
95679W        W65494  35.042  16.125   4.209
95680W        W65495   1.313   2.815   1.743
95681W        W65496  16.605  21.131  10.527
95682W        W65497  22.141  22.118   4.317
95683W        W65498  39.423  35.050  12.964
95684W        W65499   5.356  32.397  11.391
95685W        W65500   5.225  11.670  14.389
95686W        W65501  24.036  29.119   4.823
95687W        W65502   0.284   5.360   1.825
95688W        W65503   4.744  23.054  12.891
95689W        W65504  32.479  40.534   2.814
95690W        W65505  11.329  27.041  12.891
95691W        W65506  11.670  21.251   2.398
95692W        W65507  30.143  21.221   1.716
95693W        W65508   5.327  35.030   0.339
95694W        W65509  36.897  20.218   3.265
95695W        W65510  41.470   0.280   9.588
95696W        W65511  18.578  30.030   0.288
95697W        W65512   8.198  33.038   3.779
95698W        W65513  19.264   7.699   2.720
95699W        W65514   0.356   7.406  14.495
95700W        W65515  26.592  22.501   3.779
95701W        W65516  28.120  17.282   4.269
95702W        W65517   2.308  41.988   1.395
95703W        W65518  22.612  38.957  14.278
95704W        W65519  14.238  42.786  11.991
95705W        W65520  14.663  18.232  12.428
95706W        W65521  26.117  13.818   4.647
95707W        W65522  35.971  14.283  14.313
95708W        W65523   4.358   3.440   4.177
95709W        W65524  30.132  38.569  12.905
95710W        W65525   2.856  38.476  12.830
95711W        W65526  27.993  23.159  11.864
95712W        W65527  41.835  18.254  12.368
95713W        W65528  13.828  24.607  10.524
95714W        W65529  23.209   3.845  13.009
95715W        W65530  42.396  36.486  14.877
95716W        W65531  13.608  16.685   4.174
95717W        W65532  31.447  41.788   4.323
95718W        W65533  41.927  18.754   1.218
95719W        W65534  39.963   3.302  13.905
95720W        W65535  13.338  34.396  11.587
95721W        W65536  43.887  36.035   1.732
95722W        W65537  15.167  40.024  11.858
95723W        W65538  35.516  14.797   1.449
95724W        W65539  24.569  18.092   3.636
95725W        W65540  42.400  36.891  12.348
95726W        W65541  16.671  20.216  12.991
95727W        W65542  22.516  26.689  11.385
95728W        W65543  37.007  26.151  11.609
95729W        W65544   1.249  39.971   0.451
95730W        W65545  12.314  34.594   0.299
95731W        W65546  10.757  12.127   2.328
95732W        W65547  32.122  33.385  11.988
95733W        W65548  29.064  43.817   3.830
95734W        W65549   3.239  22.054   2.861
95735W        W65550  25.003  28.563  11.950
95736W        W65551  33.609   6.303  12.067
95737W        W65552   3.259  39.974  12.522
95738W        W65553   6.751   9.380   4.797
95739W        W65554   3.341  16.789   3.647
95740W        W65555  21.549  18.669  12.455
95741W        W65556   6.394  40.372  10.135
95742W        W65557   7.752  33.065  14.483
95743W        W65558  16.801   4.711  11.918
95744W        W65559  12.218   8.826  12.430
95745W        W65560  17.592  15.622   1.248
95746W        W65561  28.075  32.571  14.388
95747W        W65562   2.855   6.911   4.779
95748W        W65563  28.556   8.866   4.258
95749W        W65564  36.409  14.670   1.234
95750W        W65565  44.424  11.189   1.838
95751W        W65566   6.356  19.762  10.903
95752W        W65567  16.577  18.654  13.868
95753W        W65568  27.092  25.000   3.827
95754W        W65569  37.904  17.787  12.546
95755W        W65570  42.434  38.553   3.302
95756W        W65571   8.767  41.478   5.285
95757W        W65572  17.644  29.492  12.925
95758W        W65573   6.345  44.761  14.360
95759W        W65574  42.798   3.757  11.383
95760W        W65575   5.835   4.841  12.570
95761W        W65576  22.591  32.063   4.173
95762W        W65577  28.135  25.167   5.252
95763W        W65578  21.158   7.910  13.942
95764W        W65579  29.619  30.517   0.267
95765W        W65580  30.162  36.043  13.838
95766W        W65581  10.821  11.371   3.785
95767W        W65582  38.984  38.524  10.624
95768W        W65583   0.356  33.626   4.616
95769W        W65584  17.106   0.854   5.263
95770W        W65585  27.638  11.346  11.575
95771W        W65586  38.502  32.101  10.988
95772W        W65587  18.697   5.430   3.214
95773W        W65588  13.201  36.922   0.257
95774W        W65589   3.953  10.733   1.409
95775W        W65590   1.969   4.286  12.356
95776W        W65591  22.159   1.860  10.970
95777W        W65592  11.686   6.387   4.624
95778W        W65593  23.216  11.666   2.848
95779W        W65594  31.039  44.345   0.420
95780W        W65595  14.319  30.422   4.296
95781W        W65596   3.790  31.496  11.425
95782W        W65597  15.738  29.469  11.097
95783W        W65598  32.577   1.943   5.153
95784W        W65599   1.908  35.048  12.085
95785W        W65600   7.381   3.437  12.846
95786W        W65601  35.905  28.036  12.563
95787W        W65602  33.568   7.290   5.114
95788W        W65603  10.789  18.579   0.940
95789W        W65604  22.063   3.326   1.880
95790W        W65605   1.342   8.871  13.814
95791W        W65606  10.190  26.011   3.730
95792W        W65607  17.102  31.944   4.185
95793W        W65608  15.597  31.004   1.772
95794W        W65609  37.467  24.038  10.570
95795W        W65610   0.793  19.582  10.480
95796W        W65611  10.767  25.171  12.386
95797W        W65612  18.768  43.769  13.468
95798W        W65613  35.073  36.361  14.792
95799W        W65614  13.210   7.804  13.813
95800W        W65615  27.663  31.553  12.351
95801W        W65616   3.241   6.922   4.809
95802W        W65617  41.894  36.447   4.744
95803W        W65618  21.717  28.007  12.428
95804W        W65619  24.997  34.117   1.260
95805W        W65620   9.353   5.192  13.055
95806W        W65621  28.026  21.201   4.265
95807W        W65622  25.118  37.014  11.541
95808W        W65623   0.419   8.779  13.458
95809W        W65624  15.093  24.181   2.883
95810W        W65625   1.301  38.992   1.899
95811W        W65626  22.078  31.135  12.433
95812W        W65627  18.084  31.461   4.120
95813W        W65628  26.136  32.509   4.246
95814W        W65629  12.231  10.270  12.037
95815W        W65630  36.918  36.904  11.911
95816W        W65631   7.185  23.148  10.558
95817W        W65632  32.044  28.681  14.962
95818W        W65633   1.305  17.307  13.887
95819W        W65634  36.846  32.116   1.829
95820W        W65635   2.376  35.956  11.900
95821W        W65636   9.335  19.153  12.938
95822W        W65637  44.360  12.119  12.958
95823W        W65638  38.000  16.246   0.407
95824W        W65639  38.859   9.687  12.339
95825W        W65640  42.777  27.192  11.888
95826W        W65641  31.591  36.076  13.003
95827W        W65642  42.896  12.137  14.021
95828W        W65643  27.540  23.217   0.402
95829W        W65644  22.121  22.161  12.065
95830W        W65645   6.299   5.237  10.136
95831W        W65646  11.251  26.178  10.591
95832W        W65647   8.220  41.835   0.266
95833W        W65648  20.079  43.283  13.791
95834W        W65649  33.898  25.471  12.441
95835W        W65650  10.865  33.598  11.476
95836W        W65651  13.837  26.962   3.316
95837W        W65652   0.875   4.342   0.450
95838W        W65653  41.790   4.800   1.842
95839W        W65654  31.487  12.262  11.524
95840W        W65655  35.986  13.214   0.908
95841W        W65656   7.275  14.816   1.702
95842W        W65657  34.433   0.472  11.856
95843W        W65658  26.136  37.003   4.766
95844W        W65659   8.871  17.740   1.290
95845W        W65660  16.209   7.333   2.886
95846W        W65661  40.000  26.066  11.527
95847W        W65662  40.337  29.668  13.925
95848W        W65663  21.096  14.199   4.691
95849W        W65664   5.835  38.028   2.849
95850W        W65665   8.753  18.668  12.557
95851W        W65666  21.695  35.865   0.330
95852W        W65667   9.230  28.153   1.731
95853W        W65668  44.434  12.189   3.217
95854W        W65669  26.038  40.486  14.455
95855W        W65670  44.950  13.740   4.670
95856W        W65671  25.089   3.363   1.796
95857W        W65672  31.616  20.168   1.852
95858W        W65673   7.190   9.288   4.597
95859W        W65674  18.629  29.496  10.490
95860W        W65675  36.006   0.339  14.934
95861W        W65676  18.050  16.646  10.458
95862W        W65677   0.258  29.434  13.844
95863W        W65678   0.344  42.352  11.466
95864W        W65679  43.021  25.211   4.171
95865W        W65680  34.008  43.308   0.744
95866W        W65681   7.305  15.747   1.252
95867W        W65682  13.713  20.265   0.801
95868W        W65683  39.330  19.257   1.406
95869W        W65684  43.838  29.502   1.720
95870W        W65685  32.016  13.131   3.326
95871W        W65686  10.793  21.570  10.968
95872W        W65687  30.048  25.628   2.733
95873W        W65688  32.081  12.757   4.678
95874W        W65689  33.054  10.879  13.972
95875W        W65690  20.526   7.720   4.696
95876W        W65691  38.385  13.312   0.913
95877W        W65692  32.471  39.056  12.067
95878W        W65693  43.328  17.714  13.403
95879W        W65694  11.208   9.780   0.375
95880W        W65695  12.169   8.759   1.916
95881W        W65696  17.663  26.598   2.720
95882W        W65697  22.664  33.898   0.338
95883W        W65698  38.406  41.396  13.943
95884W        W65699  21.242  13.762   4.178
95885W        W65700  42.882  41.927  12.954
95886W        W65701   8.874  41.516   1.698
95887W        W65702  15.329  28.174   1.837
95888W        W65703  18.606   9.351  13.395
95889W        W65704  38.512  31.487  12.526
95890W        W65705  28.556  14.244  14.510
95891W        W65706  28.617  42.500  14.888
95892W        W65707  13.647  31.546   4.188
95893W        W65708  29.002  29.002   2.327
95894W        W65709  31.948  30.649   2.218
95895W        W65710  28.462  41.490   2.696
95896W        W65711  38.884  10.194  14.795
95897W        W65712  16.741  34.531  11.536
95898W        W65713  19.578  31.542   0.390
95899W        W65714  31.445  22.241   1.289
95900W        W65715  29.133  11.275  14.386
95901W        W65716  30.629  31.091  11.981
95902W        W65717  40.814  39.810   2.242
95903W        W65718   5.846  30.969  12.835
95904W        W65719  36.853   8.777   4.676
95905W        W65720  20.767  43.772   4.194
95906W        W65721  33.006  19.561  11.556
95907W        W65722  42.521  31.982  12.463
95908W        W65723  14.149   8.183   4.310
95909W        W65724  11.643  25.017  10.550
95910W        W65725  31.140  18.101   2.799
95911W        W65726  14.659   8.658  14.386
95912W        W65727  16.696  25.995   2.395
95913W        W65728  36.498  10.779  11.921
95914W        W65729  37.362  39.957   4.702
95915W        W65730  23.594   4.299  10.925
95916W        W65731   9.659  23.057   1.792
95917W        W65732  20.269   5.243   3.689
95918W        W65733  28.006  35.531  11.507
95919W        W65734   7.842   1.335  13.500
95920W        W65735  12.292  39.971  14.306
95921W        W65736   8.383  39.350  12.372
95922W        W65737   3.780  10.653   2.252
95923W        W65738  12.135  17.157   5.289
95924W        W65739  28.500   3.394  12.859
95925W        W65740  19.046  12.268  12.012
95926W        W65741   6.728  31.592   3.275
95927W        W65742  44.969  14.624   1.731
95928W        W65743  10.711  23.201  13.914
95929W        W65744  22.043  21.740  12.924
95930W        W65745   6.679  41.926  11.463
95931W        W65746  24.504   7.280  12.876
95932W        W65747   8.285  42.935  11.926
95933W        W65748   6.882  29.002   2.718
95934W        W65749   3.272   5.873   0.392
95935W        W65750  32.611  24.088   2.259
95936W        W65751   6.733  32.637   4.242
95937W        W65752  33.443  17.130   2.785
95938W        W65753  21.241  10.249   1.415
95939W        W65754  26.983  23.018   1.210
95940W        W65755  21.729  42.917  11.858
95941W        W65756   4.775  26.520  10.496
95942W        W65757  16.216   4.805   4.171
95943W        W65758  12.666   6.788   2.667
95944W        W65759  26.088   8.670   4.146
95945W        W65760  26.479  39.063  11.021
95946W        W65761  15.108  39.528   0.852
95947W        W65762  32.139  34.883  10.611
95948W        W65763  20.717  30.549   1.375
95949W        W65764  36.980  34.530   1.907
95950W        W65765  25.062  42.510   0.764
95951W        W65766   7.289  14.741   3.786
95952W        W65767  20.037  36.392  11.608
95953W        W65768  38.829  22.055  11.029
95954W        W65769  23.587   7.769  10.473
95955W        W65770   9.849  16.622  14.390
95956W        W65771  12.163   0.443   0.836
95957W        W65772  35.935  27.686   0.915
95958W        W65773  25.991  25.207   1.752
95959W        W65774  34.474  19.603   1.449
95960W        W65775  43.451   0.819   1.248
95961W        W65776  34.073  37.055   4.349
95962W        W65777  28.460  16.640   3.778
95963W        W65778   4.311  36.077   4.760
95964W        W65779  15.591   9.218  13.006
95965W        W65780  12.661  28.468   4.267
95966W        W65781  25.136   3.806   2.789
95967W        W65782  32.507  34.376   3.753
95968W        W65783   7.768   8.329   3.761
95969W        W65784   1.396  21.152   0.359
95970W        W65785  21.052  27.105  11.467
95971W        W65786  41.464  27.160  12.936
95972W        W65787  31.447  21.028  13.431
95973W        W65788  34.089  11.764   4.184
95974W        W65789  43.834  14.158  11.085
95975W        W65790  32.577  30.532   4.161
95976W        W65791  43.358  40.384   4.601
95977W        W65792   5.214   3.818   1.413
95978W        W65793  13.234  38.025  13.485
95979W        W65794   5.699  25.562   1.312
95980W        W65795  21.067  39.974   4.340
95981W        W65796   8.348   8.227  11.117
95982W        W65797  43.303  29.478  14.773
95983W        W65798  15.636   2.741   3.309
95984W        W65799  32.104   8.716   4.779
95985W        W65800   2.757   6.922   2.751
95986W        W65801  14.304   3.792   3.854
95987W        W65802  43.814  38.920   1.890
95988W        W65803  42.807  16.705   1.371
95989W        W65804  26.119  39.509   5.117
95990W        W65805  44.423  29.626   3.265
95991W        W65806  14.594  31.531   2.315
95992W        W65807  14.734  22.164   0.800
95993W        W65808   8.724  13.147   4.811
95994W        W65809   9.257   6.225  11.905
95995W        W65810  24.977   8.171  13.416
95996W        W65811   0.809  17.185   3.714
95997W        W65812  21.691  37.981   0.851
95998W        W65813  43.400  42.416  14.996
95999W        W65814   3.786   3.777   0.854
96000W        W65815  40.862   4.931  13.831
96001W        W65816  44.873  38.076   2.373
96002W        W65817  11.247   7.775   4.291
96003W        W65818  28.620  31.408   2.210
96004W        W65819  44.882  19.128   0.399
96005W        W65820  14.635  17.758  13.997
96006W        W65821  32.901  23.054  13.978
96007W        W65822  40.022  21.045  12.957
96008W        W65823  28.107   3.950   1.336
96009W        W65824  25.019   4.889   3.293
96010W        W65825   9.217  43.850  12.016
96011W        W65826  27.081   7.895  11.927
96012W        W65827  24.520  28.670  14.457
96013W        W65828  34.078  18.133  10.915
96014W        W65829  32.426   9.757  14.356
96015W        W65830  38.422  22.074   3.322
96016W        W65831  31.153  37.841   3.220
96017W        W65832  36.098  15.655   3.841
96018W        W65833  29.926  39.464   0.471
96019W        W65834  35.981  41.978   4.164
96020W        W65835   3.229  13.249  13.019
96021W        W65836   6.745  14.743  11.580
96022W        W65837  37.563   0.759   3.350
96023W        W65838  43.375  34.514   0.390
96024W        W65839  12.773  17.612  14.949
96025W        W65840  14.094   7.281   2.333
96026W        W65841  23.057  16.602   1.258
96027W        W65842  17.199  28.984  13.393
96028W        W65843   7.690  12.317  13.815
96029W        W65844  35.471  35.375  14.005
96030W        W65845  25.975  14.269  12.550
96031W        W65846  43.966  41.329   0.945
96032W        W65847   2.731   7.899   0.461
96033W        W65848  38.074  26.487   5.090
96034W        W65849   0.847   8.265  10.029
96035W        W65850  39.904  32.946  12.454
96036W        W65851  42.490   0.305  10.902
96037W        W65852   6.281   6.328   5.288
96038W        W65853  13.291  28.082  13.900
96039W        W65854  28.103  13.183   4.223
96040W        W65855  26.643  11.134  10.593
96041W        W65856  43.321  24.549   0.379
96042W        W65857   3.734   3.928   1.327
96043W        W65858   9.236   4.701  14.437
96044W        W65859  22.590  44.291   3.782
96045W        W65860  27.613  29.962   0.825
96046W        W65861  15.214   2.401  13.457
96047W        W65862  27.158  35.018  13.998
96048W        W65863  20.748   7.346   1.375
96049W        W65864  15.705  29.935   1.785
96050W        W65865  39.396  31.540   1.315
96051W        W65866  44.464   7.342  11.898
96052W        W65867  31.585   7.183  12.045
96053W        W65868  20.542  33.409   2.710
96054W        W65869  12.630   3.305   3.307
96055W        W65870   3.244  12.784  13.380
96056W        W65871  27.691  26.463  14.900
96057W        W65872  34.987  19.639   4.166
96058W        W65873  28.118  30.598  14.780
96059W        W65874  38.065  15.088   1.259
96060W        W65875  44.985  38.475  11.890
96061W        W65876  32.931  35.521   2.409
96062W        W65877  20.696   7.298   3.171
96063W        W65878   9.851  41.018  12.921
96064W        W65879  25.711  24.213   3.278
96065W        W65880  22.232  33.980  11.469
96066W        W65881   4.250  34.024  13.483
96067W        W65882  40.379  37.544  12.088
96068W        W65883  37.908   0.809   2.881
96069W        W65884   4.749  40.350   2.892
96070W        W65885  18.777  37.003   2.314
96071W        W65886  28.165  16.150   2.899
96072W        W65887  41.787  20.709   0.318
96073W        W65888  37.901  10.695  10.429
96074W        W65889   1.952  27.677  13.839
96075W        W65890  39.992  24.973   1.903
96076W        W65891  39.545  13.129  14.931
96077W        W65892  27.449  37.061  11.570
96078W        W65893  22.044   0.876   3.331
96079W        W65894   1.430  11.188   1.856
96080W        W65895  12.694  24.097   2.845
96081W        W65896  44.820  26.661   9.977
96082W        W65897   4.416  21.134  11.039
96083W        W65898  12.673  12.280   1.737
96084W        W65899   6.369  42.390  13.808
96085W        W65900  31.052   0.335  14.329
96086W        W65901  36.505  30.063  13.044
96087W        W65902  20.589  35.875  11.050
96088W        W65903  36.522   6.263   0.780
96089W        W65904  43.900  19.046  14.277
96090W        W65905  25.035   1.380   4.778
96091W        W65906  29.170  37.937  11.936
96092W        W65907   3.457  19.216   4.633
96093W        W65908  40.980  25.495  11.115
96094W        W65909   9.794  35.506   4.309
96095W        W65910   9.857  32.080   3.278
96096W        W65911   0.457   0.811   4.211
96097W        W65912  38.333  42.392  13.944
96098W        W65913  27.498  38.881  12.440
96099W        W65914  35.058  13.658   1.716
96100W        W65915  10.649   2.463  13.499
96101W        W65916   8.287  24.682  13.453
96102W        W65917  40.912  12.273  12.052
96103W        W65918  12.643  13.109   4.716
96104W        W65919  17.756  11.323   1.343
96105W        W65920  27.622   8.655   1.342
96106W        W65921  42.031  37.070   1.845
96107W        W65922  13.308  18.053  14.513
96108W        W65923  12.710  16.625   2.318
96109W        W65924  32.073  34.380   3.696
96110W        W65925  18.621  23.590   9.934
96111W        W65926  39.371  28.058   0.280
96112W        W65927  44.365  38.546   3.791
96113W        W65928   2.416  21.723  10.970
96114W        W65929   3.294  37.527  12.478
96115W        W65930  10.278  24.661  11.993
96116W        W65931  29.050  20.136   0.804
96117W        W65932  22.047  13.137  10.515
96118W        W65933  17.568  29.446  13.931
96119W        W65934  12.641  25.489   2.321
96120W        W65935  40.304  26.104   2.760
96121W        W65936  33.475  38.033   0.376
96122W        W65937   3.455  30.560   0.415
96123W        W65938   6.738   9.304   1.229
96124W        W65939  28.463  24.192  14.948
96125W        W65940  30.431  42.392   0.778
96126W        W65941  42.509  27.656  12.075
96127W        W65942  27.988  11.822  10.606
96128W        W65943   6.817   4.303  13.793
96129W        W65944  14.126  30.155  14.012
96130W        W65945  30.141  33.428   0.344
96131W        W65946  22.742   6.196  14.794
96132W        W65947   4.828  18.060   0.903
96133W        W65948   6.736  39.423  11.072
96134W        W65949  12.161  43.782  14.824
96135W        W65950  11.826   6.317   1.716
96136W        W65951  14.291  15.240   1.267
96137W        W65952  10.818   6.882   3.224
96138W        W65953   6.306   4.732   2.811
96139W        W65954  15.285   0.360  11.086
96140W        W65955  31.493   3.842  10.977
96141W        W65956  20.163  23.067   4.267
96142W        W65957  13.610   4.919  14.960
96143W        W65958  29.977  23.162   3.814
96144W        W65959  11.816   6.203   0.286
96145W        W65960  14.328  41.872   2.756
96146W        W65961  28.124  38.554  14.842
96147W        W65962  27.061  15.687   2.234
96148W        W65963  25.640  10.227   0.333
96149W        W65964  36.048  20.726  10.502
96150W        W65965  29.013  14.744   4.810
96151W        W65966   4.823  26.951   1.225
96152W        W65967  30.637  37.840  13.822
96153W        W65968   4.232  29.168  13.475
96154W        W65969  10.683   4.885  10.102
96155W        W65970  11.291  39.341  10.460
96156W        W65971  31.059  35.369  12.340
96157W        W65972  10.210  36.012   4.687
96158W        W65973  44.972   0.856   3.746
96159W        W65974  44.410   0.845   4.672
96160W        W65975  42.452  14.734   5.284
96161W        W65976  43.353  12.255   1.761
96162W        W65977  32.439   6.427   3.786
96163W        W65978  19.677   4.428   3.821
96164W        W65979  32.904   7.706  14.843
96165W        W65980  10.683  15.790  14.292
96166W        W65981  25.216  43.331  11.456
96167W        W65982  14.253  44.788   3.638
96168W        W65983  37.077   0.304   2.747
96169W        W65984  34.596  43.934  10.422
96170W        W65985  29.123  36.550   0.477
96171W        W65986  23.180  29.617   1.439
96172W        W65987  14.634  23.622  13.042
96173W        W65988   9.253  33.050  10.487
96174W        W65989  14.653  13.820   4.266
96175W        W65990  10.226  16.778   2.844
96176W        W65991  18.768  12.661  13.010
96177W        W65992  22.198  37.058  10.466
96178W        W65993  28.580  18.286   1.232
96179W        W65994   5.311  41.830  11.123
96180W        W65995  36.499  32.518  11.966
96181W        W65996  31.096  44.397  13.819
96182W        W65997  19.264   9.824   2.709
96183W        W65998  42.914  27.983  13.330
96184W        W65999   5.274  15.298  11.074
96185W        W66000   7.745  19.612  14.367
96186W        W66001   6.808  17.793   3.668
96187W        W66002  16.696  34.017   0.297
96188W        W66003  25.196  24.512  11.098
96189W        W66004  35.393  18.734  12.910
96190W        W66005  41.428  31.513   2.877
96191W        W66006  43.850  10.717  13.024
96192W        W66007  12.764   9.240   4.708
96193W        W66008  11.732   0.757   1.309
96194W        W66009  29.462  23.584  12.057
96195W        W66010   9.857  30.933   2.719
96196W        W66011  35.868  40.371  13.419
96197W        W66012   8.837  29.514  14.505
96198W        W66013  12.676  11.250   1.909
96199W        W66014  37.408   4.390   3.641
96200W        W66015  42.866  35.382   0.764
96201W        W66016   1.472  29.076   1.388
96202W        W66017  32.391  15.600   4.199
96203W        W66018  10.831  35.546   4.326
96204W        W66019  37.352   4.233   2.774
96205W        W66020  32.597  36.435  13.322
96206W        W66021   1.830  41.929   0.421
96207W        W66022  38.014  22.054  11.945
96208W        W66023  33.612  35.924  12.028
96209W        W66024  32.912  18.129  14.900
96210W        W66025  42.364   2.738  14.843
96211W        W66026  34.449  40.339  12.477
96212W        W66027  29.434  25.995  13.508
96213W        W66028  11.311  44.412   1.326
96214W        W66029  28.998  27.645   1.934
96215W        W66030  33.559  19.602   3.663
96216W        W66031  38.510  17.067  12.349
96217W        W66032  30.504  12.665   0.817
96218W        W66033  28.134  15.280  12.445
96219W        W66034  40.928  24.725  10.493
96220W        W66035  27.632   1.806   4.165
96221W        W66036   3.724  32.114   9.923
96222W        W66037  34.890   8.205   2.886
96223W        W66038  32.523   6.240   2.723
96224W        W66039  25.990  24.056   0.963
96225W        W66040  30.050  27.031   3.173
96226W        W66041  30.476   4.421   2.789
96227W        W66042  39.906  35.443  11.056
96228W        W66043   6.207   4.858   0.461
96229W        W66044   1.923   5.382  14.988
96230W        W66045  26.522  12.154   1.334
96231W        W66046  14.797   4.870   4.334
96232W        W66047  21.169  33.438   0.305
96233W        W66048  42.934  40.049   4.643
96234W        W66049  17.184  32.897  11.480
96235W        W66050  36.546  27.195   1.760
96236W        W66051   7.236  18.075  14.006
96237W        W66052  14.255  43.443  11.597
96238W        W66053  40.039  40.534  12.978
96239W        W66054  24.020   4.393   4.766
96240W        W66055  12.309  18.673  12.433
96241W        W66056  33.588  29.014   1.836
96242W        W66057  24.685  37.401   0.861
96243W        W66058   7.416   2.350  11.528
96244W        W66059  39.987   7.235   2.820
96245W        W66060   1.968  23.540   3.669
96246W        W66061  31.944  30.658  10.950
96247W        W66062  30.503  40.912  14.888
96248W        W66063  19.059  44.768   3.344
96249W        W66064   6.294  10.778  12.902
96250W        W66065  15.149   4.302   2.695
96251W        W66066   0.423  27.519   0.276
96252W        W66067  16.263  12.849   4.662
96253W        W66068  29.644  11.161  11.089
96254W        W66069   6.833   8.675  14.423
96255W        W66070  30.938  15.263   1.339
96256W        W66071   6.805   2.325   0.266
96257W        W66072  19.581  21.712  11.384
96258W        W66073  25.642  26.467  12.884
96259W        W66074  43.442  25.570  13.833
96260W        W66075  17.625  23.540  14.782
96261W        W66076  22.032   0.446   9.983
96262W        W66077  23.105  41.422  10.454
96263W        W66078  43.431  37.879  10.505
96264W        W66079  20.544  39.037  11.876
96265W        W66080  11.228  14.677  10.541
96266W        W66081   4.240   1.945  11.454
96267W        W66082  30.611  20.064  12.886
96268W        W66083  39.816  41.409  12.921
96269W        W66084   0.250  35.359   4.838
96270W        W66085  29.424  17.111  12.883
96271W        W66086  28.647  23.717   2.256
96272W        W66087  37.979  22.052  13.444
96273W        W66088  42.857  25.084   4.748
96274W        W66089   9.821  43.512  12.839
96275W        W66090  10.662  16.756  12.968
96276W        W66091  31.910  10.223  12.568
96277W        W66092   0.280  41.936   2.902
96278W        W66093  29.022  36.881  14.437
96279W        W66094  43.947  37.085  12.040
96280W        W66095   8.325  40.812  11.492
96281W        W66096  43.795  15.758  11.406
96282W        W66097  19.642  30.500   4.809
96283W        W66098  22.733  15.739  11.956
96284W        W66099   8.171  35.361  12.561
96285W        W66100  19.666   9.345  12.018
96286W        W66101  41.462   6.780  10.970
96287W        W66102  16.758  29.094   3.691
96288W        W66103  23.618  15.606  10.488
96289W        W66104  31.500  24.038   4.598
96290W        W66105  43.397  18.166   3.308
96291W        W66106  34.905   2.313  12.844
96292W        W66107  33.579  25.485   4.715
96293W        W66108  17.714  32.451  12.988
96294W        W66109   4.760  26.123  11.436
96295W        W66110  38.394  32.535   0.243
96296W        W66111   4.944  32.048   2.253
96297W        W66112   4.942  12.823  10.151
96298W        W66113   2.881  33.032  14.359
96299W        W66114  19.051  21.090   2.192
96300W        W66115  16.304  12.184   3.173
96301W        W66116  10.312  35.521  13.975
96302W        W66117  29.152   0.275  14.827
96303W        W66118  22.120  18.651  14.291
96304W        W66119   3.329  30.996   3.813
96305W        W66120   6.736  18.145  14.462
96306W        W66121  14.144  13.714  14.281
96307W        W66122  12.653  20.189  14.328
96308W        W66123  14.139  22.640   0.967
96309W        W66124   5.710  21.711  10.515
96310W        W66125  35.423  30.564   3.771
96311W        W66126  28.106  22.112  11.461
96312W        W66127   1.460  29.111  13.468
96313W        W66128   5.212  22.209   4.687
96314W        W66129  38.530  43.408   2.706
96315W        W66130  26.159  17.286   4.331
96316W        W66131  11.744  24.982  13.356
96317W        W66132  27.588   7.800  13.973
96318W        W66133  26.459  40.831   4.127
96319W        W66134   6.316   7.785   0.370
96320W        W66135  31.024  27.011   0.760
96321W        W66136  37.448  19.128   1.706
96322W        W66137  10.634  41.910   2.712
96323W        W66138  41.958  20.206   0.851
96324W        W66139   3.869  16.646   4.615
96325W        W66140   7.188  22.224   0.265
96326W        W66141  17.785  30.101   1.364
96327W        W66142  17.663  19.615   2.848
96328W        W66143  12.706   3.742  10.962
96329W        W66144   8.354   6.301   2.787
96330W        W66145  30.081  34.482   4.814
96331W        W66146  11.644  16.767  13.831
96332W        W66147  38.050  42.831   0.261
96333W        W66148  13.221   0.782   2.881
96334W        W66149   5.246  16.702  10.519
96335W        W66150  26.693  35.467  14.304
96336W        W66151   2.768   3.267   3.260
96337W        W66152  44.879  13.145   3.352
96338W        W66153  10.230  28.054   4.677
96339W        W66154   5.813  32.515   3.844
96340W        W66155  37.833   5.841  14.494
96341W        W66156  40.367  33.131   3.355
96342W        W66157  35.985  21.547  11.568
96343W        W66158  22.150  31.612  14.867
96344W        W66159  43.891  21.017   3.863
96345W        W66160  40.902  17.132   0.317
96346W        W66161   3.786  17.696  12.017
96347W        W66162  43.396  15.612  13.821
96348W        W66163  41.337   2.829   1.825
96349W        W66164  11.639  18.760  12.833
96350W        W66165  19.563  27.083  14.800
96351W        W66166  41.294  37.573   0.261
96352W        W66167  44.834  37.854  14.462
96353W        W66168   1.800  24.179  12.476
96354W        W66169  22.675  26.699  11.970
96355W        W66170  14.319  35.872   0.288
96356W        W66171  12.174  42.852  11.551
96357W        W66172  29.056  36.475  12.495
96358W        W66173  10.735  26.994   0.940
96359W        W66174   8.829  35.971  13.835
96360W        W66175   8.354  21.115  10.513
96361W        W66176  11.657  19.779   1.274
96362W        W66177  23.185   5.796   4.223
96363W        W66178  16.155  10.685   3.715
96364W        W66179   3.757  33.901   2.248
96365W        W66180  18.709  21.519  14.375
96366W        W66181  16.594  15.630  10.148
96367W        W66182  42.017  27.161   4.205
96368W        W66183  28.033  27.084   4.172
96369W        W66184  25.211  12.275   0.340
96370W        W66185  33.961  17.778   4.177
96371W        W66186   7.266  24.204  11.951
96372W        W66187   9.812  24.021   2.864
96373W        W66188   3.923  28.128  12.972
96374W        W66189  29.952  12.827   2.714
96375W        W66190  32.536  21.554   2.316
96376W        W66191   1.966   9.161   3.292
96377W        W66192  23.572  17.652   4.611
96378W        W66193  20.605  27.615  13.338
96379W        W66194  38.978  29.927  13.893
96380W        W66195  24.125  26.613  10.535
96381W        W66196  34.412  21.143   2.350
96382W        W66197  33.584  37.580   2.872
96383W        W66198  16.141   7.667  13.402
96384W        W66199  29.061   8.800  12.960
96385W        W66200  10.812  38.419   1.276
96386W        W66201  16.254  10.276   3.735
96387W        W66202   0.280  24.019  13.036
96388W        W66203   3.915   4.742   4.352
96389W        W66204   9.665   1.391  10.615
96390W        W66205  32.595  29.052  12.447
96391W        W66206  10.721  40.837   3.238
96392W        W66207  42.887   8.306   1.368
96393W        W66208  11.158  10.744  11.033
96394W        W66209  32.589  37.925   4.830
96395W        W66210  39.501  10.787   4.342
96396W        W66211  21.545  33.387  10.111
96397W        W66212  21.661  25.591  12.444
96398W        W66213   4.940  26.052  12.436
96399W        W66214  22.647  16.188   0.446
96400W        W66215  10.207  26.979  10.518
96401W        W66216  40.480  23.548   2.259
96402W        W66217   8.254  39.314  13.838
96403W        W66218   6.404  19.231  13.838
96404W        W66219  44.387  41.801  13.517
96405W        W66220   1.431  22.176   3.751
96406W        W66221  38.880   5.857   3.826
96407W        W66222  28.582  17.062  13.890
96408W        W66223  22.070  15.262   4.128
96409W        W66224   5.220  37.986   0.445
96410W        W66225  42.313  38.014  14.391
96411W        W66226  17.122  11.633  12.885
96412W        W66227  21.593  42.383  13.962
96413W        W66228   0.882  31.604  11.458
96414W        W66229   9.732  17.071  13.932
96415W        W66230   8.813   6.678  14.383
96416W        W66231  33.941  16.742  10.942
96417W        W66232  28.658  19.578   2.344
96418W        W66233   8.716   4.892   3.264
96419W        W66234   1.898  41.795  11.937
96420W        W66235   2.256  12.682   2.398
96421W        W66236  16.277  40.541   0.774
96422W        W66237   0.977  11.319  12.402
96423W        W66238   0.470  36.357  13.863
96424W        W66239  35.899   2.763  10.526
96425W        W66240  38.928   2.782  13.978
96426W        W66241  37.987   0.951   2.398
96427W        W66242   4.235  30.077  13.840
96428W        W66243  43.326   6.700  13.368
96429W        W66244  15.126   1.849   0.368
96430W        W66245   6.330  17.200   3.284
96431W        W66246   6.258   0.486  11.931
96432W        W66247   2.371  17.220   4.834
96433W        W66248   4.728   8.884  13.986
96434W        W66249   0.354  18.175  12.849
96435W        W66250   5.701   3.277   1.832
96436W        W66251  35.060  16.666   2.285
96437W        W66252  41.455   7.676  12.031
96438W        W66253  18.738  18.588  10.554
96439W        W66254  26.192  24.550   1.348
96440W        W66255  35.445  24.647  11.920
96441W        W66256  13.133  31.524  13.445
96442W        W66257  38.830  34.403  12.844
96443W        W66258   6.739  24.199   4.118
96444W        W66259   2.297  15.091   3.729
96445W        W66260  37.996  16.072  13.008
96446W        W66261  17.292  18.203  11.449
96447W        W66262  26.635   7.321  11.111
96448W        W66263   0.370  21.158  10.430
96449W        W66264   1.928   4.746  12.068
96450W        W66265  34.498  20.258  10.930
96451W        W66266   2.409  31.402   3.842
96452W        W66267  16.309  27.691  10.634
96453W        W66268  17.150  21.131  13.798
96454W        W66269  31.584   6.883   2.729
96455W        W66270  35.097  19.710   0.963
96456W        W66271  23.085   8.235   4.827
96457W        W66272   3.402  28.513   2.878
96458W        W66273  37.350  29.969  13.467
96459W        W66274  40.303   2.853  14.296
96460W        W66275  15.686  44.308  11.401
96461W        W66276  22.602  33.078  13.345
96462W        W66277  42.022  34.431   3.643
96463W        W66278  32.082  29.114  10.553
96464W        W66279  17.664   1.748   3.717
96465W        W66280   9.694   8.803   2.846
96466W        W66281  43.470  12.727  13.863
96467W        W66282  31.526  34.051   4.675
96468W        W66283  12.797  17.124   1.851
96469W        W66284   8.797  25.055   2.199
96470W        W66285   2.248  40.846  14.454
96471W        W66286  19.244   6.794   4.130
96472W        W66287  33.539  18.173  14.302
96473W        W66288  16.655  26.567   2.819
96474W        W66289  42.479  44.279  14.356
96475W        W66290   1.249   1.476  10.631
96476W        W66291  16.210  13.632   3.647
96477W        W66292  29.163  19.259  12.393
96478W        W66293  23.653  34.480   1.409
96479W        W66294  26.504  11.865   4.729
96480W        W66295  25.026  42.877   1.878
96481W        W66296  32.123  31.998  11.575
96482W        W66297   1.388  32.980   4.767
96483W        W66298  14.795  27.661   4.304
96484W        W66299  37.489  24.543  13.813
96485W        W66300  43.825   9.717  11.047
96486W        W66301  12.764   7.864  14.376
96487W        W66302  35.054  30.030   4.304
96488W        W66303   5.687  33.397  14.386
96489W        W66304  24.080  10.711  12.064
96490W        W66305  42.971  23.713  11.009
96491W        W66306  41.801  20.582  11.901
96492W        W66307   6.886   9.795  13.403
96493W        W66308   3.841  33.595  11.949
96494W        W66309   6.713  20.274  13.392
96495W        W66310  18.176  21.186   0.941
96496W        W66311  22.612   1.895   3.855
96497W        W66312  34.080  33.072   2.331
96498W        W66313   6.226  25.691  12.826
96499W        W66314   0.782  38.370   0.805
96500W        W66315  31.102  25.186  13.916
96501W        W66316  37.420  44.490   3.310
96502W        W66317  24.203   6.416  11.024
96503W        W66318  26.065  28.174   0.751
96504W        W66319   2.472   9.802   3.218
96505W        W66320  20.171  19.044  11.995
96506W        W66321  37.048   5.811   3.201
96507W        W66322  18.196  35.970   1.256
96508W        W66323  11.790  31.928   1.439
96509W        W66324  26.172  34.891  12.927
96510W        W66325   6.693  39.542   3.655
96511W        W66326  13.777  29.951   2.403
96512W        W66327  33.129  29.602  13.490
96513W        W66328   3.863   8.741   9.962
96514W        W66329  39.821  15.130  11.945
96515W        W66330  13.110  12.151   4.761
96516W        W66331  44.892  10.831  14.417
96517W        W66332  16.273   1.957   1.776
96518W        W66333  43.808   0.355  11.878
96519W        W66334  39.388  33.967  14.515
96520W        W66335  32.475  39.035   0.428
96521W        W66336  23.149  13.172  12.864
96522W        W66337  21.537   2.748   4.783
96523W        W66338  25.169   2.825  11.070
96524W        W66339  16.677  38.368   1.418
96525W        W66340  39.337   6.220  12.947
96526W        W66341   7.901  17.572  12.462
96527W        W66342  31.962  16.167   2.189
96528W        W66343  35.557  28.668   0.780
96529W        W66344  26.617   0.986  10.632
96530W        W66345  40.401  19.627  13.902
96531W        W66346   2.811  12.213  12.550
96532W        W66347  11.643  19.588  14.878
96533W        W66348  21.615  18.740   2.765
96534W        W66349  11.659  22.115  10.471
96535W        W66350   9.834  29.984   1.898
96536W        W66351  24.153   1.850   2.789
96537W        W66352  41.795  15.815  12.027
96538W        W66353  28.676   8.672   2.873
96539W        W66354  19.246  15.255   3.845
96540W        W66355   8.240   7.199  12.356
96541W        W66356  34.466  15.664   0.941
96542W        W66357  18.765  16.712  10.419
96543W        W66358  25.043  11.735   0.474
96544W        W66359   2.830  25.062  10.615
96545W        W66360  23.016  13.729   4.344
96546W        W66361  11.677  10.850   0.847
96547W        W66362  42.423  23.564   2.735
96548W        W66363  27.100  11.181   0.382
96549W        W66364  15.200  41.939   0.801
96550W        W66365  34.460  42.957   2.834
96551W        W66366  26.635  22.118   2.849
96552W        W66367  42.377  19.769  10.613
96553W        W66368  30.102  40.514  13.823
96554W        W66369   1.284  19.096  13.862
96555W        W66370  23.133  42.438   2.333
96556W        W66371   4.838  25.981  10.942
96557W        W66372  13.697  34.424   0.349
96558W        W66373  14.319  28.976   3.247
96559W        W66374  15.741  26.549  13.976
96560W        W66375  41.980  28.088  11.482
96561W        W66376  22.619   8.299   1.366
96562W        W66377   1.918  31.524  14.022
96563W        W66378   2.299  41.865  10.614
96564W        W66379  40.387  11.237   2.235
96565W        W66380  21.053  26.700   1.312
96566W        W66381   7.844  17.688   2.245
96567W        W66382   0.875  37.405   2.371
96568W        W66383  14.214   0.828  12.451
96569W        W66384  10.232  43.451  14.483
96570W        W66385  29.937   4.927   4.172
96571W        W66386  39.340  24.020  13.818
96572W        W66387  20.642   3.394  14.905
96573W        W66388  14.653  18.713   2.363
96574W        W66389  40.834  11.793  12.430
96575W        W66390  19.284  28.109  12.086
96576W        W66391  36.984  42.847   0.278
96577W        W66392  11.844  14.271   0.865
96578W        W66393  31.420  38.407   4.834
96579W        W66394  40.883  19.061  14.931
96580W        W66395  43.503  37.028  14.967
96581W        W66396  11.352  33.111  12.352
96582W        W66397  22.669   0.743   4.683
96583W        W66398  12.742   1.253   3.256
96584W        W66399  11.160  20.161  12.948
96585W        W66400  43.421  27.182   2.739
96586W        W66401  24.072  34.400  13.402
96587W        W66402  20.132  31.606   1.301
96588W        W66403  22.588   6.736   4.336
96589W        W66404   0.858  23.605  10.991
96590W        W66405  25.035  26.508   2.392
96591W        W66406  36.491  41.499  14.994
96592W        W66407   3.841  21.031   4.663
96593W        W66408  26.591  24.567  13.061
96594W        W66409  28.100   0.487   3.652
96595W        W66410  15.612  23.551  12.886
96596W        W66411  40.437  28.565  11.875
96597W        W66412  14.233  27.091   0.418
96598W        W66413   6.696  38.858  13.400
96599W        W66414   5.817  44.992   1.737
96600W        W66415  10.353  27.097  10.976
96601W        W66416  32.063   9.329  13.838
96602W        W66417  34.606  22.543   0.283
96603W        W66418  16.659  18.589   1.371
96604W        W66419   4.400  41.393  13.826
96605W        W66420  20.146  37.949   0.899
96606W        W66421   1.733   3.830  13.017
96607W        W66422  15.256   1.794   2.254
96608W        W66423  22.070  34.460   3.780
96609W        W66424  23.674  36.981   0.429
96610W        W66425  24.203  28.006   0.418
96611W        W66426  18.067   4.316   2.314
96612W        W66427  22.155  16.793  12.994
96613W        W66428  28.546   6.352  13.805
96614W        W66429  31.081  34.901  13.832
96615W        W66430   5.760  41.389   0.941
96616W        W66431  38.548   8.676   0.407
96617W        W66432  27.628  17.169  11.967
96618W        W66433  35.022  42.801  13.805
96619W        W66434  33.447  38.834   4.597
96620W        W66435  23.540  17.624   1.222
96621W        W66436   2.397  33.507   4.679
96622W        W66437   6.716  34.990   0.730
96623W        W66438  37.009   0.869  12.888
96624W        W66439  21.250   0.765   5.118
96625W        W66440  30.091   7.332   0.244
96626W        W66441  34.468  30.622   4.650
96627W        W66442  31.989   4.428  10.581
96628W        W66443  24.002  17.702   4.769
96629W        W66444  36.917  36.051   2.297
96630W        W66445  26.609  22.681  12.537
96631W        W66446  39.884  41.300  11.894
96632W        W66447   7.217  17.778   3.352
96633W        W66448  35.378  43.374  14.765
96634W        W66449  26.191  37.043   1.441
96635W        W66450  24.192  20.074   5.684
96636W        W66451   2.785   2.792  10.557
96637W        W66452  43.808  32.566  14.490
96638W        W66453  27.954  10.796   4.771
96639W        W66454  31.425  28.495  13.342
96640W        W66455  15.164  42.981  11.496
96641W        W66456   7.253  16.794   2.385
96642W        W66457  41.855   2.298   3.825
96643W        W66458  43.432  16.134  14.370
96644W        W66459  21.250  21.667   2.414
96645W        W66460  15.237  39.924  11.554
96646W        W66461  12.763  20.677   1.362
96647W        W66462  21.218  30.104  12.097
96648W        W66463  14.729   8.847  11.016
96649W        W66464  32.905  29.447  14.298
96650W        W66465  28.487  28.465   4.792
96651W        W66466  43.397  39.466   2.310
96652W        W66467  42.980  43.270   0.480
96653W        W66468  43.966  18.636  11.089
96654W        W66469   4.751  22.028   3.298
96655W        W66470  19.777  15.097   1.268
96656W        W66471  14.702  31.010  12.542
96657W        W66472  38.347  11.175   0.771
96658W        W66473  25.480  41.031   1.427
96659W        W66474  31.446  19.282  12.413
96660W        W66475  24.118   0.869   3.230
96661W        W66476  24.663  40.305  13.803
96662W        W66477  44.937  40.507   0.920
96663W        W66478   6.825  27.074   3.671
96664W        W66479  12.841  29.070   0.384
96665W        W66480   5.838  10.787   3.218
96666W        W66481  18.208  43.994   0.744
96667W        W66482  14.269  42.780  11.050
96668W        W66483   3.914  19.648   4.137
96669W        W66484  12.621   7.892  13.043
96670W        W66485   2.255  37.949  14.927
96671W        W66486  33.931  19.674  14.020
96672W        W66487  37.937  40.334  10.061
96673W        W66488  22.111  34.525  12.925
96674W        W66489  34.995  19.041  13.386
96675W        W66490  35.590  32.065   0.361
96676W        W66491  31.938  34.117   3.723
96677W        W66492  34.546   7.777   4.122
96678W        W66493   1.334  27.944   1.746
96679W        W66494  42.002  22.639   1.288
96680W        W66495  34.009  35.039  10.559
96681W        W66496  44.492  41.319   3.712
96682W        W66497  37.564   5.354   0.936
96683W        W66498  36.517   6.417   2.686
96684W        W66499  22.611  31.049   0.961
96685W        W66500  44.901  16.140   2.733
96686W        W66501  31.921  19.772   1.336
96687W        W66502  43.013  36.558  13.446
96688W        W66503  17.738  40.430  14.352
96689W        W66504  10.248  28.039   3.817
96690W        W66505  31.479   8.664   1.815
96691W        W66506  36.521   4.321  13.339
96692W        W66507   9.781  23.085  11.128
96693W        W66508  35.513  36.437  12.989
96694W        W66509  36.080  34.478   4.146
96695W        W66510  26.150   7.275   0.330
96696W        W66511  20.734  43.459  12.986
96697W        W66512  32.936  35.508   4.735
96698W        W66513  18.102   8.778   2.241
96699W        W66514  15.142  11.276   2.827
96700W        W66515  25.095   0.968  10.576
96701W        W66516   3.216   3.267  10.469
96702W        W66517  12.838  20.159  12.009
96703W        W66518   2.462  36.884   4.193
96704W        W66519  13.262   7.758   5.299
96705W        W66520  25.003  33.600  11.552
96706W        W66521  36.460  20.751   4.756
96707W        W66522   3.245  18.751   4.149
96708W        W66523  32.024  38.058  13.947
96709W        W66524  34.404   9.677   3.306
96710W        W66525   7.784  26.043   0.260
96711W        W66526  11.769  18.702  10.438
96712W        W66527  42.308  40.378  12.513
96713W        W66528  15.279  12.214   0.745
96714W        W66529  18.572  12.258   2.385
96715W        W66530  16.093  37.422   3.326
96716W        W66531   8.779  40.363   0.936
96717W        W66532  11.800   6.715  10.906
96718W        W66533  16.075  10.279   0.470
96719W        W66534  13.608  15.144  14.913
96720W        W66535  37.042  36.391   4.163
96721W        W66536  13.210  16.080   4.755
96722W        W66537  12.217   5.933   3.781
96723W        W66538  42.469  33.904   0.472
96724W        W66539  19.709  32.135   5.255
96725W        W66540  22.039  26.577   3.730
96726W        W66541  28.050  11.759  10.014
96727W        W66542   6.876  40.977  13.957
96728W        W66543  25.180   1.759  13.402
96729W        W66544  40.333  33.486  13.448
96730W        W66545  15.738   5.332  13.876
96731W        W66546   5.246  38.870   0.244
96732W        W66547  41.886  40.480   2.710
96733W        W66548  24.557  21.062   1.270
96734W        W66549  37.012  17.656  12.570
96735W        W66550  13.719  20.717   3.666
96736W        W66551  18.068  19.595   3.848
96737W        W66552  21.725  28.097   3.354
96738W        W66553  24.117   3.916   3.236
96739W        W66554  11.663  15.297   1.793
96740W        W66555  20.655  12.641  12.522
96741W        W66556   8.682  39.834   1.338
96742W        W66557  17.676  34.425  13.859
96743W        W66558   4.907  40.928  12.357
96744W        W66559  28.171  41.939   2.759
96745W        W66560   8.733  31.146   2.347
96746W        W66561  23.582  17.570   5.102
96747W        W66562  14.596   7.827   0.847
96748W        W66563  36.876  30.618   2.213
96749W        W66564   2.793  32.126  11.086
96750W        W66565  41.345  29.505  12.865
96751W        W66566   3.358  29.169   3.352
96752W        W66567  27.120  18.651  11.024
96753W        W66568  19.636   3.869   1.334
96754W        W66569  22.092   0.486   9.470
96755W        W66570   7.353  18.579   4.152
96756W        W66571  42.912   2.368  10.559
96757W        W66572  21.180   0.837   5.707
96758W        W66573  31.635  37.436  13.521
96759W        W66574  39.820  35.487  12.846
96760W        W66575  17.723  22.242   2.358
96761W        W66576  39.018  37.028   2.839
96762W        W66577  26.085  11.633  14.760
96763W        W66578   1.977  39.839   2.278
96764W        W66579  30.530   4.802  13.007
96765W        W66580  19.571  32.005  11.489
96766W        W66581  22.736   1.925   1.782
96767W        W66582  18.589   9.659  14.464
96768W        W66583  17.283  26.625  11.030
96769W        W66584  41.360   6.205   3.159
96770W        W66585  28.135  25.531  13.826
96771W        W66586  40.026  13.688   4.206
96772W        W66587   0.948  26.537   2.409
96773W        W66588  42.293  20.662   3.695
96774W        W66589  27.117  44.421  12.031
96775W        W66590  38.885  26.099   1.284
96776W        W66591  40.311  13.627   1.718
96777W        W66592  26.510   2.295  13.996
96778W        W66593  33.920   3.905   0.900
96779W        W66594  24.513  12.181  10.482
96780W        W66595  44.475   5.707   0.762
96781W        W66596  37.411  39.531   4.719
96782W        W66597  13.800   5.785   4.598
96783W        W66598  10.864  40.983  11.911
96784W        W66599  41.912  19.696  14.903
96785W        W66600  10.834  39.337  12.902
96786W        W66601  11.669   1.769   1.231
96787W        W66602   7.195  22.249  12.574
96788W        W66603  36.585  44.324   1.907
96789W        W66604  39.415  10.745  10.561
96790W        W66605   3.840   2.722  12.408
96791W        W66606  29.138  24.715   1.416
96792W        W66607  23.532  20.144   3.734
96793W        W66608  10.372  44.856   0.339
96794W        W66609  32.592  13.311   1.362
96795W        W66610   6.850  38.985  12.022
96796W        W66611  21.040   6.880  13.403
96797W        W66612  32.457  15.099   3.347
96798W        W66613  43.497  24.557  12.893
96799W        W66614  28.610  41.834  11.091
96800W        W66615  14.717  35.560   4.242
96801W        W66616  43.866  19.117  11.040
96802W        W66617  13.308  26.975  11.975
96803W        W66618  37.000  42.504  12.844
96804W        W66619  10.677  42.343  11.985
96805W        W66620   9.730  37.037  12.840
96806W        W66621  43.874  44.861   2.405
96807W        W66622  37.513  34.115  11.881
96808W        W66623   1.950  19.061   3.769
96809W        W66624  17.166  36.398  10.636
96810W        W66625  22.733   0.419   3.275
96811W        W66626  27.132  14.709  14.428
96812W        W66627  37.395  27.469   9.981
96813W        W66628  32.452  21.661  14.020
96814W        W66629  41.515  21.687   2.811
96815W        W66630  15.595   7.190   4.658
96816W        W66631  14.823  13.667   1.713
96817W        W66632   4.927   4.302  12.493
96818W        W66633  36.051  19.231  14.308
96819W        W66634  25.646  22.060  13.409
96820W        W66635  28.622  20.031   4.803
96821W        W66636  18.667  27.678  14.825
96822W        W66637  40.307   6.688   3.742
96823W        W66638  27.147   6.318  14.319
96824W        W66639  17.707  27.990  14.888
96825W        W66640  36.352  18.117   0.481
96826W        W66641  43.436  33.057  13.894
96827W        W66642   8.694  32.620  12.068
96828W        W66643   0.947  36.380   2.720
96829W        W66644   7.392  15.227   4.603
96830W        W66645  19.638  31.642   0.910
96831W        W66646  16.165  35.884   1.906
96832W        W66647   8.772  33.084   2.183
96833W        W66648  42.926   7.672  13.874
96834W        W66649  42.426  35.454   0.268
96835W        W66650  38.869  39.916   0.810
96836W        W66651  41.479  27.089  13.938
96837W        W66652   8.800  43.919  11.108
96838W        W66653  27.197  22.231   1.793
96839W        W66654  14.109  33.388   1.767
96840W        W66655  23.991  34.596  14.362
96841W        W66656  33.089   7.779  13.827
96842W        W66657  43.971  17.232   3.785
96843W        W66658  15.746  13.140  13.485
96844W        W66659  42.302   8.360  14.415
96845W        W66660  10.370  25.187  13.996
96846W        W66661  17.220   6.898  10.931
96847W        W66662  44.486  26.132   3.312
96848W        W66663  11.163   9.360   3.272
96849W        W66664   8.396  41.471  10.488
96850W        W66665  20.062  42.883   5.186
96851W        W66666  18.760   4.763   3.830
96852W        W66667  38.071  28.548   0.364
96853W        W66668  38.843  12.353  13.538
96854W        W66669  12.259  41.980   2.669
96855W        W66670  22.740   4.261   1.304
96856W        W66671  34.968  34.475   3.802
96857W        W66672   7.227  12.704   3.335
96858W        W66673  13.164   2.855  13.834
96859W        W66674  36.563  37.851  14.299
96860W        W66675  15.745  38.328   3.837
96861W        W66676  10.834  30.540  13.793
96862W        W66677  41.345  11.239  12.962
96863W        W66678  16.630  30.539   4.307
96864W        W66679  10.779  23.123   2.845
96865W        W66680  39.027  31.065   0.855
96866W        W66681  41.309  37.888  11.576
96867W        W66682  41.475   5.863  14.855
96868W        W66683  27.177  21.705  14.478
96869W        W66684  29.567  15.271   3.636
96870W        W66685   9.151  44.935   3.824
96871W        W66686  20.692  13.638  12.489
96872W        W66687  32.060  41.871   2.386
96873W        W66688  16.768   1.803   2.235
96874W        W66689  21.226  38.503   0.449
96875W        W66690  17.734  13.271   4.211
96876W        W66691  28.121  29.021   1.256
96877W        W66692  27.550  41.020  13.369
96878W        W66693  11.249  39.983  14.952
96879W        W66694  41.997  26.178   4.813
96880W        W66695  32.020   0.450  14.328
96881W        W66696   8.792  25.481   3.187
96882W        W66697  27.684  13.246   4.223
96883W        W66698  42.512   2.328   3.710
96884W        W66699   7.344  32.467  13.017
96885W        W66700  29.570  11.814  12.945
96886W        W66701  36.368  14.781   0.950
96887W        W66702  10.228  44.272   5.096
96888W        W66703  16.291   8.347   1.369
96889W        W66704  42.526  38.400   4.805
96890W        W66705  34.613  13.219  12.886
96891W        W66706  36.877  18.645   4.231
96892W        W66707  39.978  28.006  10.419
96893W        W66708   0.972  22.188  12.369
96894W        W66709  35.405  34.019   2.391
96895W        W66710  28.138  27.122  13.820
96896W        W66711  11.863   4.274   2.666
96897W        W66712   9.264   0.775   2.872
96898W        W66713  17.574  34.481   1.916
96899W        W66714  28.076  41.419   4.771
96900W        W66715  43.846  14.242  14.957
96901W        W66716  17.237  21.576   2.768
96902W        W66717  37.472   1.464  12.533
96903W        W66718  22.219  42.448   0.413
96904W        W66719  30.005  40.473   4.258
96905W        W66720  25.066   8.177   2.808
96906W        W66721  29.147  22.664  10.642
96907W        W66722  15.114  42.291  12.960
96908W        W66723  28.511  19.546   2.745
96909W        W66724  26.164  34.451   1.249
96910W        W66725  22.623   1.895   2.722
96911W        W66726  23.618  11.292   3.732
96912W        W66727   2.891  13.330   1.232
96913W        W66728  12.162  38.014   1.316
96914W        W66729  40.508  30.084  13.403
96915W        W66730  12.166   6.393   2.332
96916W        W66731  14.673  12.617  10.078
96917W        W66732  10.336   5.779   3.196
96918W        W66733   4.417  18.702   0.950
96919W        W66734  34.912   9.278  14.446
96920W        W66735  17.101  26.546   0.253
96921W        W66736  29.512   2.791  14.830
96922W        W66737   7.743   0.492   3.197
96923W        W66738  12.712  17.751  14.021
96924W        W66739   0.418  13.721  14.402
96925W        W66740  44.351  43.806   1.242
96926W        W66741  40.836  29.456   1.304
96927W        W66742  17.128  40.878  13.016
96928W        W66743  39.943  28.446  14.347
96929W        W66744  38.372  23.668   0.398
96930W        W66745  25.621  16.188  11.990
96931W        W66746  30.419  12.315   4.662
96932W        W66747  22.525  37.447   1.283
96933W        W66748   3.251  19.774   3.783
96934W        W66749  32.606   0.339  14.877
96935W        W66750  17.611  25.582   1.797
96936W        W66751  19.227  40.928  10.535
96937W        W66752  25.621  32.919   4.229
96938W        W66753  38.418  28.954  10.943
96939W        W66754   7.205  25.547   4.308
96940W        W66755  15.154  43.391  14.810
96941W        W66756  36.503   1.346  12.854
96942W        W66757  39.448  14.163   3.156
96943W        W66758   3.373  21.716  13.494
96944W        W66759  20.640  10.249  13.814
96945W        W66760  43.319   8.371   1.721
96946W        W66761  33.387  25.557   2.375
96947W        W66762   8.835   0.888  12.883
96948W        W66763   6.741  12.719   1.291
96949W        W66764  19.135  41.959   3.237
96950W        W66765  44.945  41.909  13.843
96951W        W66766   9.737   6.419   4.832
96952W        W66767   8.800  27.497   4.795
96953W        W66768  21.098  25.969   2.374
96954W        W66769  39.524  27.543  11.503
96955W        W66770   0.922  33.487  12.529
96956W        W66771  39.507  14.623  11.546
96957W        W66772   3.793  35.372  12.926
96958W        W66773  38.960  30.912  14.929
96959W        W66774  31.591   3.932   0.889
96960W        W66775  12.615  29.561   2.873
96961W        W66776  31.974  39.825   0.892
96962W        W66777  30.475  28.974  13.356
96963W        W66778  15.691  32.560  11.462
96964W        W66779  24.191  28.657  13.537
96965W        W66780  26.664   9.295  10.591
96966W        W66781  26.981   1.942  10.628
96967W        W66782  26.671  38.355  10.515
96968W        W66783  31.547  16.706  13.801
96969W        W66784  33.405  38.946   1.243
96970W        W66785  41.466  38.976   1.216
96971W        W66786  16.216  31.913   2.665
96972W        W66787  43.924  20.138  10.631
96973W        W66788  10.268   5.246   2.314
96974W        W66789   9.841  28.146   3.858
96975W        W66790   4.267   3.263  13.905
96976W        W66791  18.580  28.069   1.762
96977W        W66792  12.296   3.342  10.550
96978W        W66793  13.667  27.676   1.236
96979W        W66794  30.998  29.934  10.558
96980W        W66795   2.282  39.315  12.978
96981W        W66796  44.935  37.338   4.768
96982W        W66797  41.986   6.352   3.293
96983W        W66798  14.214  30.616  11.861
96984W        W66799  28.503   6.211   1.366
96985W        W66800  40.803  34.491   1.907
96986W        W66801  21.210  20.210   3.299
96987W        W66802  35.856  44.986  11.096
96988W        W66803  13.795  36.933  12.536
96989W        W66804  11.627  28.079   2.823
96990W        W66805  42.377  18.695  12.939
96991W        W66806  38.008  19.206   0.818
96992W        W66807  27.680  35.899   3.197
96993W        W66808  10.185  14.800   1.820
96994W        W66809   4.933   8.399  14.970
96995W        W66810   8.892   4.409  12.562
96996W        W66811  21.576  10.264   4.663
96997W        W66812  36.359   6.207   3.219
96998W        W66813  20.526   9.341  13.891
96999W        W66814  44.997  17.745   4.830
97000W        W66815   9.381   1.327  12.077
97001W        W66816  32.992  17.202   4.270
97002W        W66817   8.180   9.371   0.917
97003W        W66818  23.224   5.744   1.333
97004W        W66819  20.687  41.488   2.716
97005W        W66820  37.067   7.878   3.385
97006W        W66821  16.592  13.722  14.023
97007W        W66822  25.092  16.104   4.603
97008W        W66823   7.817  36.902   0.807
97009W        W66824   0.288  32.016  12.965
97010W        W66825  20.125  11.182   2.293
97011W        W66826  30.596  21.597   4.194
97012W        W66827   3.861   7.302   4.600
97013W        W66828   0.774  18.687  11.477
97014W        W66829  41.419  17.149   3.647
97015W        W66830  34.073  29.163   4.263
97016W        W66831  32.055  25.120   3.750
97017W        W66832  25.675  41.827  10.435
97018W        W66833   2.398  43.932  11.576
97019W        W66834   9.750  38.497  13.463
97020W        W66835  23.665  41.821   3.713
97021W        W66836  19.602  23.131   4.181
97022W        W66837  20.680   8.177  14.380
97023W        W66838  19.543   0.440   3.839
97024W        W66839  32.116  42.396   1.809
97025W        W66840  30.647   2.849   4.245
97026W        W66841  14.312  24.149  10.452
97027W        W66842  18.226   7.395   1.274
97028W        W66843   7.329  31.104   0.734
97029W        W66844  36.880  14.627   1.368
97030W        W66845  16.110  13.291  10.421
97031W        W66846  35.975   6.332  10.566
97032W        W66847  23.223   2.750   3.817
97033W        W66848  22.093   0.870   1.407
97034W        W66849   3.445   4.358   3.818
97035W        W66850   4.719   9.208  14.767
97036W        W66851  25.215  30.128   2.805
97037W        W66852   1.403  25.180  12.918
97038W        W66853   1.450  39.390  14.774
97039W        W66854  35.874   1.471  11.103
97040W        W66855  18.562  39.043   4.267
97041W        W66856  16.295  32.129  10.565
97042W        W66857   1.272  24.574  11.452
97043W        W66858  11.730  31.445   2.383
97044W        W66859  44.980  39.928  10.553
97045W        W66860  15.744  38.956   2.374
97046W        W66861  30.073  10.266  11.926
97047W        W66862   8.856  41.897   9.593
97048W        W66863  27.457  18.244   0.369
97049W        W66864   7.385  33.919   1.278
97050W        W66865  20.029  21.521   0.332
97051W        W66866  22.077  10.638   4.184
97052W        W66867  11.243   9.820   1.310
97053W        W66868   4.294  25.992  10.898
97054W        W66869  24.559   2.253  13.941
97055W        W66870  10.740  27.078  14.012
97056W        W66871  22.010   2.856  14.759
97057W        W66872   6.690  17.583  13.008
97058W        W66873  33.565  13.629   2.773
97059W        W66874  26.199  19.545  14.392
97060W        W66875  42.282  24.720  12.920
97061W        W66876  18.762  20.142   1.326
97062W        W66877  39.962  26.673   3.787
97063W        W66878  23.182  10.297  14.408
97064W        W66879  42.281  39.342   0.833
97065W        W66880  34.949  29.002   1.898
97066W        W66881  32.138  23.233  11.857
97067W        W66882  31.101  17.799   2.234
97068W        W66883  29.524  33.054  10.464
97069W        W66884  38.325   1.898  12.560
97070W        W66885  39.519  14.231  10.959
97071W        W66886  32.480  19.607  11.995
97072W        W66887  34.407   2.302  14.861
97073W        W66888  27.603  23.679   4.229
97074W        W66889  39.480   7.323   9.972
97075W        W66890  43.850  30.566   0.451
97076W        W66891   1.928  17.652   4.664
97077W        W66892  18.548  34.005   3.691
97078W        W66893  34.881   8.858  14.416
97079W        W66894   0.400  38.436   2.675
97080W        W66895  32.987  36.399   3.299
97081W        W66896  31.987  21.748   3.259
97082W        W66897   4.940  36.056  13.375
97083W        W66898  26.982  15.773   0.455
97084W        W66899  24.985   3.936   4.779
97085W        W66900  15.087  31.144  10.585
97086W        W66901  10.707  12.808  14.993
97087W        W66902  40.994  11.732  11.461
97088W        W66903  36.050  33.935  11.529
97089W        W66904  10.747  13.706  11.046
97090W        W66905  23.069   9.787   1.441
97091W        W66906  18.786  37.433  10.099
97092W        W66907   9.340   1.413   1.297
97093W        W66908  33.562  22.547   4.126
97094W        W66909  22.047  12.311   4.804
97095W        W66910   9.190  16.779   2.792
97096W        W66911  35.962  25.698   0.444
97097W        W66912   1.749  23.646   4.163
97098W        W66913   7.678  14.733  14.799
97099W        W66914  24.068  36.937   0.916
97100W        W66915   1.408  26.085  11.579
97101W        W66916  40.880   5.706  12.966
97102W        W66917   7.329  33.459   0.920
97103W        W66918  33.115   2.863   1.857
97104W        W66919  33.894  25.695  10.526
97105W        W66920  14.158  35.080   0.442
97106W        W66921  25.552   8.223  11.498
97107W        W66922  30.591  17.273  10.472
97108W        W66923  25.669  12.716   4.639
97109W        W66924  24.180  40.985  10.490
97110W        W66925  16.223  16.127   1.318
97111W        W66926   4.828  29.170  10.917
97112W        W66927   0.465  32.896   2.897
97113W        W66928  31.625  31.453  11.425
97114W        W66929  16.218  22.034   4.143
97115W        W66930   5.360   7.842   4.285
97116W        W66931  31.462  44.823  10.633
97117W        W66932  34.532   3.446  14.806
97118W        W66933   8.219  20.199  14.881
97119W        W66934  12.736  26.029   1.933
97120W        W66935  40.372  32.633  10.934
97121W        W66936  23.727  31.989  13.427
97122W        W66937  25.137   2.466  10.889
97123W        W66938  18.649  40.975   3.771
97124W        W66939   0.963  28.130   3.810
97125W        W66940  23.709  22.678   3.148
97126W        W66941   9.375  37.045   3.213
97127W        W66942  39.509  41.394   1.916
97128W        W66943   9.781   4.944  12.500
97129W        W66944   3.826  39.918   4.732
97130W        W66945  26.087   9.769   9.570
97131W        W66946  10.336  31.580   4.226
97132W        W66947  43.269  29.070  13.801
97133W        W66948  42.457  31.918  10.040
97134W        W66949  44.965  35.377   3.146
97135W        W66950  12.756   1.352   3.750
97136W        W66951  21.531  36.987   2.228
97137W        W66952  25.159  25.490  14.326
97138W        W66953   6.884  37.534   0.959
97139W        W66954  32.512  26.051   2.322
97140W        W66955  21.146   6.231   3.228
97141W        W66956  13.309   7.194  13.953
97142W        W66957  33.056  41.425  10.419
97143W        W66958   4.811  18.080   3.372
97144W        W66959  22.592  21.242   1.927
97145W        W66960  31.624  30.929  12.499
97146W        W66961   1.391  33.420   0.923
97147W        W66962  31.923  17.179   0.901
97148W        W66963  20.045  21.162   1.414
97149W        W66964   0.983  38.997  13.888
97150W        W66965  24.618  11.232   1.250
97151W        W66966   6.358  34.979   1.366
97152W        W66967  19.240   1.385  11.968
97153W        W66968  25.622   0.798  12.435
97154W        W66969   0.783  24.495  10.620
97155W        W66970  21.575  38.000  10.607
97156W        W66971   7.846  29.174   2.385
97157W        W66972   3.716  18.699  14.894
97158W        W66973   4.852  15.281   3.864
97159W        W66974  11.228  22.671  13.535
97160W        W66975  43.902   0.447   2.277
97161W        W66976  18.745  14.119   4.280
97162W        W66977  16.228  31.084  13.871
97163W        W66978  29.988  37.981  13.794
97164W        W66979  31.646  10.795   3.253
97165W        W66980  38.551   4.423   3.806
97166W        W66981  32.049  40.452   3.160
97167W        W66982  24.049  22.022  14.329
97168W        W66983  35.567  43.341   3.753
97169W        W66984  17.225  20.140   2.277
97170W        W66985  39.321   1.734  10.451
97171W        W66986  34.585  23.583  11.435
97172W        W66987  44.380   8.283   3.230
97173W        W66988  21.622   6.915   1.366
97174W        W66989   5.434  21.695  12.825
97175W        W66990  13.159  35.448  11.590
97176W        W66991   4.842  23.081   1.852
97177W        W66992  30.988   7.412   4.664
97178W        W66993  41.862  11.633   0.415
97179W        W66994  16.119  42.381   1.853
97180W        W66995   0.376   0.898   2.271
97181W        W66996   6.258  38.387  10.920
97182W        W66997  29.449   9.771   3.635
97183W        W66998  34.369  22.582  14.855
97184W        W66999   9.730  44.984   4.616
97185W        W67000  22.528  43.821  13.899
97186W        W67001   8.714   1.241   1.843
97187W        W67002  13.813  40.818  13.324
97188W        W67003  17.231  38.544  12.467
97189W        W67004  38.914  28.111   4.625
97190W        W67005  17.088  31.489   3.207
97191W        W67006  20.228  13.734  13.829
97192W        W67007  22.206  33.996  12.889
97193W        W67008   1.320  18.675  13.058
97194W        W67009  16.192   9.856   3.209
97195W        W67010   6.422  18.561   2.700
97196W        W67011  19.594  11.242  10.915
97197W        W67012  17.687  37.551   4.194
97198W        W67013  21.154   2.735   0.318
97199W        W67014  13.767   4.359  14.835
97200W        W67015  12.614  11.698  13.369
97201W        W67016  23.618  35.104   0.859
97202W        W67017  13.167  19.696  11.387
97203W        W67018  29.943   7.843   0.758
97204W        W67019  37.369  27.972   3.315
97205W        W67020  33.470  39.927   1.927
97206W        W67021  32.593  18.228   2.183
97207W        W67022  37.421   3.949   0.813
97208W        W67023  21.687  12.160  13.036
97209W        W67024   8.314  42.493   2.865
97210W        W67025   6.778  20.089   1.816
97211W        W67026  15.822  17.562   0.333
97212W        W67027   9.760  23.237  10.539
97213W        W67028  13.345  29.044  13.978
97214W        W67029  28.123  26.628  14.853
97215W        W67030  23.670   8.808  14.871
97216W        W67031  29.603  16.313   4.667
97217W        W67032  11.200  22.584   2.415
97218W        W67033  40.896  26.000   1.297
97219W        W67034  29.564  11.287   2.802
97220W        W67035  33.954  42.902  14.985
97221W        W67036  30.626  21.719   1.314
97222W        W67037  23.501  28.626  11.892
97223W        W67038  31.461  42.514   3.242
97224W        W67039   0.964  30.506   2.729
97225W        W67040   4.833   0.757  14.760
97226W        W67041   2.831  31.622   2.783
97227W        W67042  28.608  20.542   1.236
97228W        W67043  19.566  36.561   1.781
97229W        W67044  39.375  14.797   4.617
97230W        W67045  31.484  25.574   4.264
97231W        W67046   0.450  28.613  13.470
97232W        W67047  40.458  12.760   5.261
97233W        W67048  27.134  26.037   0.752
97234W        W67049   9.852  14.146   5.205
97235W        W67050  30.956  31.075   2.727
97236W        W67051  44.402  29.544  12.534
97237W        W67052  10.682  17.275   0.265
97238W        W67053  36.549   8.708   3.349
97239W        W67054  36.373  42.446  10.616
97240W        W67055  21.236  20.760  10.042
97241W        W67056  29.427  33.488   4.734
97242W        W67057  14.299   2.309   1.715
97243W        W67058  15.197  15.794  14.304
97244W        W67059  26.587  24.673  13.506
97245W        W67060  20.683  14.649  13.928
97246W        W67061  28.437  11.322  12.512
97247W        W67062  44.459   9.274   4.158
97248W        W67063  44.267   0.814  13.497
97249W        W67064   2.871   7.731  12.523
97250W        W67065   9.178  32.395  14.764
97251W        W67066  12.685  25.670   4.815
97252W        W67067  12.130  38.006   0.402
97253W        W67068  40.325   7.307  14.776
97254W        W67069   8.709  21.136  14.462
97255W        W67070   0.879  19.763   4.324
97256W        W67071   1.418  16.317   0.942
97257W        W67072  31.518   4.366  13.051
97258W        W67073  39.022  33.413  10.531
97259W        W67074  41.392   7.774   3.809
97260W        W67075  41.900  42.507   1.285
97261W        W67076  31.589  12.634  12.460
97262W        W67077  31.405   7.862   1.915
97263W        W67078  29.636  24.620   0.260
97264W        W67079   5.799  15.792  11.896
97265W        W67080  39.864  15.812   1.836
97266W        W67081  18.559  17.734   3.641
97267W        W67082  31.119  39.539  13.916
97268W        W67083  18.662   4.214  13.900
97269W        W67084  26.123  27.947  12.452
97270W        W67085  32.030  31.418   3.744
97271W        W67086  43.829  36.402  11.532
97272W        W67087  18.708   9.213  12.407
97273W        W67088  37.890  12.825   2.695
97274W        W67089  10.248   9.827  12.567
97275W        W67090  40.430   3.304   0.729
97276W        W67091  14.741  42.910   3.794
97277W        W67092  36.488   3.942   4.657
97278W        W67093   6.851  22.086   0.472
97279W        W67094  41.513  36.973  12.858
97280W        W67095  11.800  34.882   5.236
97281W        W67096  11.369  11.353  11.397
97282W        W67097  33.128  14.099   1.305
97283W        W67098  27.449  18.181   0.832
97284W        W67099  17.682  35.456  11.013
97285W        W67100  41.397  36.432   4.302
97286W        W67101  12.215  43.975   0.421
97287W        W67102  22.144   9.314   1.808
97288W        W67103  22.216  22.720  12.539
97289W        W67104  38.942  35.515   1.766
97290W        W67105  23.142  35.427   4.685
97291W        W67106  40.832  36.361  13.488
97292W        W67107  25.192  31.618   3.691
97293W        W67108   2.757   1.886   3.717
97294W        W67109  41.442  43.936  11.557
97295W        W67110  20.732  30.000  13.388
97296W        W67111  17.667   8.819   0.338
97297W        W67112  39.884  24.174   1.837
97298W        W67113  17.210  41.407   3.674
97299W        W67114  22.549  42.915   3.753
97300W        W67115  12.336  20.153   3.666
97301W        W67116  14.298  20.679  12.391
97302W        W67117  19.268  31.913   4.303
97303W        W67118  10.267   4.294  13.416
97304W        W67119  38.062  38.504  13.932
97305W        W67120  31.987  21.740  14.931
97306W        W67121  28.182  14.300  14.463
97307W        W67122  11.839  23.233   3.148
97308W        W67123  44.978  25.536  12.856
97309W        W67124  13.799  16.633   1.841
97310W        W67125  30.611  43.340   0.244
97311W        W67126  10.838  38.823   3.301
97312W        W67127  27.530  16.769  11.085
97313W        W67128   7.741  40.857   4.232
97314W        W67129   8.771  13.689   4.761
97315W        W67130  37.455   9.161  12.007
97316W        W67131  32.524  44.883  11.029
97317W        W67132   6.273  27.038   4.612
97318W        W67133   3.868  30.575   1.404
97319W        W67134  12.117  25.710   0.941
97320W        W67135  10.714  23.165   4.773
97321W        W67136   3.918  43.978  13.954
97322W        W67137  25.685  25.514   4.716
97323W        W67138  26.957  27.462   4.804
97324W        W67139  34.878  35.905  10.940
97325W        W67140   6.353  26.059  10.512
97326W        W67141  40.847  36.018  13.978
97327W        W67142   2.773  38.914  11.905
97328W        W67143   6.778  10.296   4.836
97329W        W67144   2.285  34.463  11.595
97330W        W67145  14.627  42.796  14.413
97331W        W67146  18.572  28.503  11.478
97332W        W67147  33.389  42.003  11.548
97333W        W67148  24.698  13.252   2.671
97334W        W67149  17.214  29.005   3.373
97335W        W67150  25.582   9.179  10.495
97336W        W67151   1.384  11.709  14.860
97337W        W67152  17.776  28.655   0.443
97338W        W67153  11.689  32.073   2.873
97339W        W67154  36.091  22.708   0.865
97340W        W67155  41.891   8.240   1.389
97341W        W67156  11.667   7.328   1.873
97342W        W67157  31.083  37.575  14.440
97343W        W67158  26.535   5.228   4.114
97344W        W67159  27.662  37.983   1.812
97345W        W67160  29.061  42.393  14.011
97346W        W67161  14.107  16.239  10.507
97347W        W67162  28.026  38.506   1.291
97348W        W67163   5.731  39.385   1.928
97349W        W67164  19.045  35.412   2.343
97350W        W67165  39.033  35.463  13.351
97351W        W67166  11.866  40.042   1.714
97352W        W67167  28.133  10.866  12.916
97353W        W67168   1.755  10.645  10.540
97354W        W67169  42.315  30.975  14.895
97355W        W67170  33.576   9.695   1.886
97356W        W67171   7.236  27.630  12.096
97357W        W67172  16.808  10.707  11.075
97358W        W67173  12.657  38.840   0.395
97359W        W67174  12.116  43.941   1.428
97360W        W67175  42.329  28.623  14.853
97361W        W67176  33.913  38.014  10.978
97362W        W67177  42.317  27.446  14.879
97363W        W67178  17.073  41.302  12.990
97364W        W67179  10.639  35.908   2.770
97365W        W67180   0.251  43.829  13.479
97366W        W67181  20.560  11.727  14.488
97367W        W67182  37.562  19.273  12.502
97368W        W67183  18.743  14.724  14.444
97369W        W67184  22.634  27.014  14.357
97370W        W67185  41.920  13.315  13.368
97371W        W67186  36.476  35.548  11.964
97372W        W67187   6.218   1.439   1.298
97373W        W67188  27.468  38.826   1.359
97374W        W67189   6.346   7.899   2.712
97375W        W67190  10.738  12.721  14.516
97376W        W67191  16.197  19.110  13.963
97377W        W67192  12.162  28.167  13.883
97378W        W67193  37.053  13.183  12.402
97379W        W67194  19.141   1.830   0.410
97380W        W67195  43.417  16.095  12.496
97381W        W67196  26.049  25.981  13.019
97382W        W67197  35.557   7.313   0.821
97383W        W67198   3.316  22.696  10.587
97384W        W67199  18.564  11.158  14.398
97385W        W67200  44.921  11.658  12.362
97386W        W67201  29.469   4.896  14.832
97387W        W67202  43.301  11.631  14.902
97388W        W67203  24.710  23.017  10.954
97389W        W67204  31.026  32.457   4.619
97390W        W67205  20.626  42.514   4.298
97391W        W67206  44.935  18.637   0.836
97392W        W67207  29.153  27.161   0.458
97393W        W67208   6.695   6.754   4.272
97394W        W67209   3.340  15.293  10.591
97395W        W67210  34.555  28.454   2.213
97396W        W67211   2.879  32.059   1.216
97397W        W67212  30.934  18.705  12.015
97398W        W67213  12.320  32.926  13.538
97399W        W67214  20.552   9.663   3.840
97400W        W67215  31.982  32.601   2.192
97401W        W67216  24.521  41.863   2.837
97402W        W67217  16.156  40.873  14.984
97403W        W67218   7.408   2.801  12.039
97404W        W67219   2.867  33.465   0.380
97405W        W67220  37.380   8.749  12.048
97406W        W67221  37.425  16.284  10.925
97407W        W67222  31.014  18.257  10.905
97408W        W67223   6.287  11.635   2.889
97409W        W67224  16.672  13.105  13.953
97410W        W67225  44.968  43.305   2.730
97411W        W67226  16.108  28.144  14.444
97412W        W67227  27.532  35.364  14.356
97413W        W67228  15.668   2.766   1.719
97414W        W67229   5.853  42.905  10.574
97415W        W67230  37.843  31.126   3.682
97416W        W67231   2.846  37.478  12.573
97417W        W67232  34.035  43.370  13.540
97418W        W67233   9.865  21.548   4.251
97419W        W67234  18.290  21.699  12.543
97420W        W67235  37.854  35.007  10.151
97421W        W67236  15.662  12.653  10.077
97422W        W67237  23.493  34.931  10.600
97423W        W67238  11.675  36.418  14.357
97424W        W67239  10.765   0.781   2.414
97425W        W67240  43.507  29.984  13.998
97426W        W67241  22.031  13.817   1.272
97427W        W67242  40.008   3.790   1.715
97428W        W67243  21.634   9.321  14.348
97429W        W67244  18.245  12.740  14.831
97430W        W67245  44.002  21.063  12.838
97431W        W67246  42.344  11.852   2.727
97432W        W67247  28.619  32.101   0.814
97433W        W67248  34.411  38.430   4.332
97434W        W67249  15.612  18.680   0.919
97435W        W67250   8.760  29.490   5.109
97436W        W67251  10.860   6.732   2.696
97437W        W67252  34.052  27.631  13.870
97438W        W67253  42.489  37.074   4.731
97439W        W67254  13.343  25.169   4.649
97440W        W67255   2.908  36.510  12.418
97441W        W67256  13.735   5.328   1.395
97442W        W67257  34.903  33.558  11.445
97443W        W67258  23.665  14.233  13.495
97444W        W67259  13.844  41.438   0.324
97445W        W67260   3.350  29.432  11.996
97446W        W67261   5.926  14.612  14.322
97447W        W67262  13.329  18.580  11.880
97448W        W67263  42.371  28.010   3.196
97449W        W67264  14.645  33.471  14.419
97450W        W67265  37.571  43.367  12.991
97451W        W67266  26.165   8.757  14.819
97452W        W67267  42.955  39.948   3.157
97453W        W67268  36.456  44.258  14.381
97454W        W67269  40.827   3.825  14.862
97455W        W67270  13.625  22.665  13.897
97456W        W67271  37.380  25.102  11.084
97457W        W67272  29.455  22.542   4.353
97458W        W67273  31.131   5.418   4.632
97459W        W67274  30.537   0.907   4.336
97460W        W67275  41.039   9.249   3.685
97461W        W67276  20.588  35.959  13.475
97462W        W67277  19.043  31.041   3.371
97463W        W67278  34.522  38.494   1.763
97464W        W67279  43.820   3.411   5.191
97465W        W67280  34.940  24.007   1.851
97466W        W67281   7.319  22.622  12.416
97467W        W67282  11.145   5.762  11.528
97468W        W67283   5.244  21.720  13.472
97469W        W67284  34.000   7.294  14.490
97470W        W67285  22.606   3.279   2.329
97471W        W67286   4.439   0.266  12.471
97472W        W67287  44.324   4.306  12.882
97473W        W67288  33.498   2.959  13.846
97474W        W67289   7.356   3.793  14.492
97475W        W67290  42.959  42.001   2.311
97476W        W67291   6.681  21.716   1.715
97477W        W67292  24.523   0.491  11.010
97478W        W67293  37.496  25.558   0.419
97479W        W67294   7.859   8.197  13.311
97480W        W67295  10.682  26.170  13.390
97481W        W67296  33.039  15.789  11.388
97482W        W67297  14.681  32.921  14.350
97483W        W67298   8.290   2.275   0.258
97484W        W67299  15.812  41.792   1.898
97485W        W67300  24.691  27.976  10.958
97486W        W67301  37.845   0.255   1.390
97487W        W67302  26.050  16.570  12.346
97488W        W67303  36.580   8.721   0.469
97489W        W67304  15.751  12.187  11.505
97490W        W67305  10.242   1.819   0.450
97491W        W67306  18.745   2.459  13.413
97492W        W67307  32.119  13.120   4.798
97493W        W67308  35.424   5.865  12.970
97494W        W67309  34.024  23.119  11.930
97495W        W67310  23.998  34.565   1.782
97496W        W67311  27.616   5.205   3.189
97497W        W67312  33.593  20.723   1.223
97498W        W67313  39.913  27.990  14.020
97499W        W67314  19.266  21.597   2.694
97500W        W67315  11.303  15.583   3.720
97501W        W67316   4.827  28.049   3.785
97502W        W67317   7.833   1.250   3.667
97503W        W67318   8.163  36.513  10.899
97504W        W67319  39.818  28.946   3.190
97505W        W67320  38.561  28.479  13.831
97506W        W67321  10.687  12.631  10.556
97507W        W67322  37.482  17.198   3.273
97508W        W67323  37.853  29.564  10.964
97509W        W67324   0.899  14.217   3.228
97510W        W67325  37.008   5.797  13.506
97511W        W67326  34.553  32.553  13.431
97512W        W67327  14.213   3.915   0.341
97513W        W67328  28.449  19.176  13.806
97514W        W67329  12.633  23.239   4.266
97515W        W67330   3.894  31.020  10.511
97516W        W67331  15.751   4.316   5.169
97517W        W67332   2.267  26.489   1.821
97518W        W67333   9.658   9.888  12.983
97519W        W67334  15.662  27.945   0.851
97520W        W67335  36.391  38.517  12.861
97521W        W67336  44.968  31.551   3.244
97522W        W67337  30.923  18.770   3.270
97523W        W67338   6.428  15.179  14.027
97524W        W67339   3.406  20.554   4.343
97525W        W67340  42.341   4.760   1.233
97526W        W67341  21.134   3.269   9.957
97527W        W67342  34.443  38.492   4.834
97528W        W67343  24.489   8.819  11.883
97529W        W67344   6.811   2.382   4.715
97530W        W67345  21.156  40.427   4.236
97531W        W67346  35.395  40.439  13.841
97532W        W67347  32.908  17.094  13.015
97533W        W67348  25.202   7.316  10.552
97534W        W67349  14.203  25.706   3.724
97535W        W67350  28.179  13.679   3.750
97536W        W67351   0.359   5.436   2.876
97537W        W67352  37.932  36.073  13.367
97538W        W67353   4.743  12.133  10.889
97539W        W67354  38.970  36.461   3.194
97540W        W67355   7.343   6.197   0.952
97541W        W67356  14.599  26.956  12.486
97542W        W67357  24.511  44.423   3.791
97543W        W67358  11.810  35.095  14.446
97544W        W67359  42.859  18.562  14.426
97545W        W67360  14.224  41.825   4.641
97546W        W67361   4.397  20.038   4.169
97547W        W67362  43.846  14.646   4.253
97548W        W67363   9.318  35.931  13.833
97549W        W67364   4.405  19.628   2.875
97550W        W67365  23.658   8.810   0.848
97551W        W67366  12.689   8.256  10.484
97552W        W67367  21.713  17.242   3.254
97553W        W67368  16.194  27.055  11.976
97554W        W67369   4.391  41.042  11.875
97555W        W67370  28.135  23.553  12.021
97556W        W67371  20.198  25.131   5.082
97557W        W67372  37.554  35.955  10.980
97558W        W67373  32.954   0.397  13.481
97559W        W67374  18.554  11.868   3.234
97560W        W67375  30.957   8.249   3.345
97561W        W67376  22.030   4.891   1.857
97562W        W67377   1.437   9.372  11.604
97563W        W67378  31.534   9.737   4.728
97564W        W67379  40.437  28.940   2.734
97565W        W67380   2.264  24.185   1.761
97566W        W67381  17.226  11.765  11.379
97567W        W67382  38.332  20.182   0.462
97568W        W67383   6.884  38.846  11.580
97569W        W67384  32.998  42.494  10.436
97570W        W67385   0.320  37.502  10.405
97571W        W67386  30.461  29.027   0.449
97572W        W67387  18.287  37.921   3.297
97573W        W67388   1.481  16.646   1.720
97574W        W67389  29.124   4.788   3.342
97575W        W67390   4.393  38.877   4.142
97576W        W67391  29.589  40.315   2.672
97577W        W67392   6.185  20.553  11.932
97578W        W67393   5.245  25.174  12.879
97579W        W67394  20.235  22.065   2.397
97580W        W67395  16.078   6.893   3.636
97581W        W67396   7.317  16.628  13.468
97582W        W67397  39.940  36.586  14.433
97583W        W67398   9.889  11.792  12.516
97584W        W67399   5.929  36.385  13.891
97585W        W67400  39.391  38.048   2.767
97586W        W67401  33.622  18.783  14.360
97587W        W67402  41.409  26.600  11.975
97588W        W67403  16.647  32.533  10.563
97589W        W67404   7.236  41.456  14.988
97590W        W67405   5.769   6.313  10.464
97591W        W67406  30.970  19.681  13.022
97592W        W67407  11.724  41.844   0.396
97593W        W67408   1.903  19.632   2.839
97594W        W67409  16.090  15.219  12.006
97595W        W67410  29.999  21.153  12.963
97596W        W67411   7.187  23.511  12.881
97597W        W67412  20.098  31.638   2.737
97598W        W67413  33.925  33.052  11.943
97599W        W67414  39.533  28.642   2.718
97600W        W67415  43.817  40.459  13.388
97601W        W67416  20.043  34.498   3.150
97602W        W67417  13.234   2.890   1.427
97603W        W67418  14.652  39.342  11.493
97604W        W67419  40.974  41.920   3.303
97605W        W67420   6.872  26.516   3.155
97606W        W67421  42.496  20.054  12.417
97607W        W67422  37.477  10.708   1.276
97608W        W67423   9.201  32.459  11.878
97609W        W67424  12.738  19.135   5.179
97610W        W67425  30.556   2.427  11.061
97611W        W67426  38.819  27.022   1.362
97612W        W67427  12.216  22.573   3.843
97613W        W67428  35.881  40.947  12.844
97614W        W67429  21.638  28.029   3.795
97615W        W67430  30.080   8.859   0.744
97616W        W67431  22.669  28.457  13.060
97617W        W67432  38.559  17.761   3.367
97618W        W67433  34.993  35.077   1.338
97619W        W67434   6.383  23.607  11.084
97620W        W67435  36.438  28.464  13.461
97621W        W67436  37.082  31.126   4.797
97622W        W67437  41.880  43.860   0.853
97623W        W67438  28.092  13.621  13.948
97624W        W67439   0.805  38.561   3.785
97625W        W67440  26.678  31.602  14.436
97626W        W67441  16.255   8.344  14.882
97627W        W67442  17.615  21.145  11.449
97628W        W67443  40.826  34.530  10.615
97629W        W67444  38.345  29.471   1.227
97630W        W67445  31.113   6.814  10.449
97631W        W67446  39.836  27.127   1.335
97632W        W67447  18.106  17.268  14.463
97633W        W67448   5.816  21.562   3.864
97634W        W67449  42.898  39.858  14.811
97635W        W67450  19.064  12.703  14.311
97636W        W67451   3.856   1.240   0.289
97637W        W67452   4.447  14.326   2.734
97638W        W67453  15.177  42.412  14.288
97639W        W67454  26.682   9.234  11.939
97640W        W67455   3.417  21.211  12.974
97641W        W67456  10.726  10.246  11.598
97642W        W67457  42.474  24.192  10.407
97643W        W67458  20.657  35.939  12.086
97644W        W67459  25.605  21.178   0.443
97645W        W67460  42.444  36.455  12.051
97646W        W67461  13.330  39.928   0.331
97647W        W67462  23.535  23.219  13.362
97648W        W67463   7.865   6.324   4.277
97649W        W67464  39.342  12.717   1.262
97650W        W67465   7.172  25.073  13.979
97651W        W67466  14.191  35.409  11.123
97652W        W67467  24.534  19.137   0.909
97653W        W67468  44.976  43.782  13.898
97654W        W67469  40.970  11.737  13.000
97655W        W67470  21.100  11.217  10.080
97656W        W67471   7.741  28.612   2.182
97657W        W67472  23.630  19.752   4.352
97658W        W67473  38.475  20.234  11.416
97659W        W67474   0.767  42.788  11.457
97660W        W67475  34.410  29.448   4.760
97661W        W67476  29.513   7.325   2.902
97662W        W67477  14.329  14.303  11.379
97663W        W67478   3.321  12.362   0.786
97664W        W67479  19.181   7.417   2.669
97665W        W67480  37.877  32.949  14.990
97666W        W67481  25.178  29.567  10.429
97667W        W67482  38.027   7.805  14.001
97668W        W67483  36.998   4.776  10.642
97669W        W67484  44.888  25.620  11.109
97670W        W67485  40.003  22.179  12.372
97671W        W67486  43.355  22.680   4.796
97672W        W67487  43.344   4.710   0.928
97673W        W67488  11.761  21.081   4.165
97674W        W67489  44.770  35.986   1.828
97675W        W67490   7.752  25.557  10.954
97676W        W67491  22.204  35.393  12.523
97677W        W67492  42.285  27.585   3.646
97678W        W67493  21.255   9.760  10.582
97679W        W67494  20.053  25.697  11.397
97680W        W67495  27.564  11.300   3.780
97681W        W67496  31.924  35.525   3.825
97682W        W67497   6.323  18.617  14.952
97683W        W67498   4.779  32.085  13.033
97684W        W67499  18.156   3.356  13.820
97685W        W67500  21.021   9.252   4.778
97686W        W67501  36.938  15.149   3.861
97687W        W67502  39.329  38.839  11.372
97688W        W67503   2.764  33.612   0.793
97689W        W67504  37.498  12.784  12.350
97690W        W67505  40.963  28.460   0.795
97691W        W67506   9.390  19.634  14.508
97692W        W67507  23.104  11.760  10.620
97693W        W67508  44.000  16.624   3.666
97694W        W67509   9.242  28.089  12.446
97695W        W67510   2.311  28.681  13.485
97696W        W67511  38.564  42.983   4.805
97697W        W67512  44.416  39.998  14.786
97698W        W67513  11.304  14.229   3.851
97699W        W67514   3.318  40.391  12.490
97700W        W67515  28.110   9.647   0.845
97701W        W67516  21.106   6.267  14.362
97702W        W67517  22.157   1.455  11.449
97703W        W67518  17.303  29.544   2.379
97704W        W67519  23.152  37.042   1.307
97705W        W67520  34.482  41.983   3.648
97706W        W67521  10.318  30.420  11.937
97707W        W67522  12.300  25.122  10.952
97708W        W67523  42.903  40.836   4.729
97709W        W67524  41.887   3.874  13.936
97710W        W67525  20.564  25.661   0.319
97711W        W67526   5.695  19.045  12.006
97712W        W67527  33.937  15.721   0.385
97713W        W67528  12.178  33.615   4.683
97714W        W67529  38.348  22.140   3.660
97715W        W67530  38.435   3.257   1.444
97716W        W67531   8.811   3.937  11.479
97717W        W67532   8.209  23.044  10.470
97718W        W67533  34.065  21.714  12.439
97719W        W67534  32.593  14.332   3.694
97720W        W67535  17.777  19.071  14.376
97721W        W67536  31.896  14.650   1.393
97722W        W67537  37.402   5.798   5.086
97723W        W67538   9.169  22.682  10.445
97724W        W67539  31.906   0.748  10.924
97725W        W67540  22.235  28.102   1.380
97726W        W67541   4.257  18.287  11.940
97727W        W67542  28.141  15.299  14.779
97728W        W67543  21.044  35.577  12.439
97729W        W67544  34.020  20.079  14.503
97730W        W67545  34.558  22.591   2.684
97731W        W67546  41.465   7.277   3.835
97732W        W67547  10.755  19.209   0.879
97733W        W67548  18.191   2.875  13.843
97734W        W67549  36.351  24.063   1.888
97735W        W67550  30.052  11.830  10.549
97736W        W67551  43.794  22.136  10.973
97737W        W67552  37.454  40.526   2.691
97738W        W67553  22.560   4.855  12.408
97739W        W67554  20.605   9.330  11.383
97740W        W67555  12.849  16.307  10.449
97741W        W67556  15.711  34.052   1.759
97742W        W67557  38.037   2.843  12.569
97743W        W67558   3.895  40.460  12.556
97744W        W67559  12.755  35.075   3.718
97745W        W67560   0.769  27.067   4.809
97746W        W67561   2.226  26.660  11.603
97747W        W67562  41.796   8.852   2.278
97748W        W67563  29.015  27.070  14.454
97749W        W67564  21.757   9.164  11.543
97750W        W67565  27.567  39.829   1.322
97751W        W67566  19.713  34.444  10.552
97752W        W67567  35.889   0.840   0.742
97753W        W67568  38.962  25.217   0.904
97754W        W67569  22.033   9.833   0.961
97755W        W67570  41.498  38.026   2.760
97756W        W67571  34.991  18.064   3.347
97757W        W67572  13.335  24.138  11.950
97758W        W67573  21.129  38.460  12.462
97759W        W67574  13.131  44.365  12.000
97760W        W67575  17.774  44.808   1.748
97761W        W67576  43.347  32.471  13.368
97762W        W67577  36.924  23.015   1.445
97763W        W67578   3.228   9.388   0.769
97764W        W67579  38.037  32.921   2.226
97765W        W67580  37.420  26.032  13.948
97766W        W67581   6.394  15.274  11.125
97767W        W67582  19.675  17.281   1.293
97768W        W67583  27.095  26.977  11.601
97769W        W67584   5.855  37.385   9.929
97770W        W67585  30.968  22.186  12.388
97771W        W67586  34.477  33.564  12.553
97772W        W67587   2.465  15.625  12.919
97773W        W67588  10.822  42.809   1.703
97774W        W67589  36.986  16.809  10.553
97775W        W67590  34.073  37.045   0.782
97776W        W67591   5.848  28.581   3.175
97777W        W67592  27.942   0.822   1.908
97778W        W67593  28.051   7.675   1.317
97779W        W67594  22.539  40.979  14.504
97780W        W67595  17.286   6.313   4.799
97781W        W67596  11.791   7.739   1.895
97782W        W67597  28.170  23.605  13.407
97783W        W67598   7.832   3.368  10.568
97784W        W67599  24.597   9.827  11.526
97785W        W67600   9.229  43.870  10.410
97786W        W67601   6.904  15.811  10.930
97787W        W67602  24.130  14.784  11.495
97788W        W67603  34.448  27.514  13.317
97789W        W67604  19.635  39.816  13.901
97790W        W67605  24.024   5.377  13.461
97791W        W67606  19.644  33.877  12.872
97792W        W67607  10.681  12.159   0.754
97793W        W67608  25.698  21.661  11.033
97794W        W67609  26.105  26.687  14.461
97795W        W67610  10.327  25.099  10.061
97796W        W67611  41.320   1.300  14.405
97797W        W67612  22.566  18.652   4.127
97798W        W67613  39.040  36.562  14.953
97799W        W67614  27.043  23.024   3.700
97800W        W67615   8.314  44.807  12.855
97801W        W67616  34.411  29.090   1.237
97802W        W67617  31.064  40.988   0.961
97803W        W67618  23.644  17.257  11.589
97804W        W67619  41.452  32.975  11.479
97805W        W67620  40.002  22.519  13.505
97806W        W67621  14.662  19.127   3.360
97807W        W67622  31.487  24.127   3.223
97808W        W67623  24.694  14.630   3.734
97809W        W67624  12.654  32.057  13.055
97810W        W67625   7.708  21.743  11.605
97811W        W67626  42.930  34.989   3.704
97812W        W67627  17.576  19.163  12.495
97813W        W67628  16.692  16.584   4.158
97814W        W67629  44.784  31.504   1.705
97815W        W67630  18.783  18.199   0.263
97816W        W67631  37.373  36.361  14.326
97817W        W67632  20.599  12.275   3.284
97818W        W67633  38.036   6.835   4.787
97819W        W67634   4.230  33.389   2.211
97820W        W67635  44.883  11.794   2.206
97821W        W67636   9.269  20.150   2.399
97822W        W67637  43.778  44.788  12.437
97823W        W67638  22.600  36.064   4.141
97824W        W67639   8.227  16.149   2.879
97825W        W67640  12.157  12.308   2.874
97826W        W67641  33.486   1.959   1.325
97827W        W67642  12.782  16.652  13.871
97828W        W67643   9.735  11.784  11.978
97829W        W67644  27.524  41.885  10.481
97830W        W67645  40.930  34.070   3.176
97831W        W67646  22.621   5.353  10.604
97832W        W67647  26.524  37.379   2.803
97833W        W67648  14.334  29.636   0.750
97834W        W67649  10.338  20.134  14.480
97835W        W67650  14.726  42.799   0.326
97836W        W67651  13.772  29.119  12.357
97837W        W67652  10.860   3.715  11.096
97838W        W67653   1.397  44.304  13.329
97839W        W67654  37.836  11.364   4.643
97840W        W67655  37.044  41.474   4.249
97841W        W67656  32.614  14.208  14.760
97842W        W67657  17.796  26.997   4.196
97843W        W67658  40.945  43.834   2.405
97844W        W67659   6.898  26.141   4.665
97845W        W67660  12.725  14.799  14.406
97846W        W67661   4.904  28.116  13.343
97847W        W67662   8.374   2.728  11.510
97848W        W67663  39.330  42.866  13.508
97849W        W67664  19.598  44.309   1.406
97850W        W67665  38.952  18.602   4.804
97851W        W67666  23.020  43.941  13.894
97852W        W67667  43.842  33.087   0.261
97853W        W67668  18.639  28.988   2.811
97854W        W67669  44.309  42.398   4.707
97855W        W67670  19.043   9.206   0.396
97856W        W67671   3.319   1.347  11.430
97857W        W67672  16.661  34.589   0.907
97858W        W67673   8.829  30.545  11.506
97859W        W67674  26.978  13.672  12.563
97860W        W67675  12.253  44.766  10.513
97861W        W67676  32.461  11.762  13.512
97862W        W67677  35.887  20.706  14.428
97863W        W67678  21.091  29.475  12.578
97864W        W67679  26.032   6.421  12.975
97865W        W67680  38.444  16.199  11.425
97866W        W67681  33.539   5.377  12.077
97867W        W67682   0.885   9.714  13.991
97868W        W67683   7.187  43.477   4.225
97869W        W67684  16.175  21.026   3.676
97870W        W67685  18.633  44.427  13.015
97871W        W67686  25.472   2.812  14.452
97872W        W67687  26.189   5.332   1.330
97873W        W67688  14.231  31.146  10.945
97874W        W67689  40.492  29.622   2.369
97875W        W67690  20.036   2.790  11.556
97876W        W67691  21.550  33.623   1.836
97877W        W67692  12.347  22.025   0.936
97878W        W67693   3.906  25.131   4.806
97879W        W67694  32.507   7.807   1.439
97880W        W67695  29.119  41.873  11.470
97881W        W67696  26.012  42.856  14.464
97882W        W67697  37.962  24.619  12.441
97883W        W67698  27.976   7.365   5.180
97884W        W67699  44.962  35.034  10.555
97885W        W67700  17.727   9.289   4.725
97886W        W67701  43.888  18.201  11.868
97887W        W67702  14.185  14.170   4.315
97888W        W67703  23.641  16.209  12.867
97889W        W67704  21.232  15.233  12.393
97890W        W67705  10.339  38.907  12.866
97891W        W67706  16.180  11.139   2.355
97892W        W67707  22.612   6.894  11.045
97893W        W67708  10.757  27.656  13.414
97894W        W67709   1.789  19.231  13.985
97895W        W67710  39.814  34.571   4.664
97896W        W67711  36.496  21.625  13.459
97897W        W67712  39.930  41.912  14.995
97898W        W67713  10.853  39.973  11.969
97899W        W67714  35.503   0.763   3.377
97900W        W67715  44.340  37.010  11.007
97901W        W67716  12.243  38.556  10.416
97902W        W67717  38.053  36.999  12.377
97903W        W67718  29.598   8.279  10.453
97904W        W67719  23.002  16.142   1.801
97905W        W67720  35.855   1.897   2.360
97906W        W67721  15.609  18.094   4.209
97907W        W67722   7.395  11.659   4.745
97908W        W67723  30.584  43.405  11.094
97909W        W67724  29.085  14.795  13.392
97910W        W67725  44.449   3.369  14.863
97911W        W67726   4.355  27.528  14.441
97912W        W67727   1.354   7.332  14.896
97913W        W67728  20.225   1.939  14.503
97914W        W67729   8.899  25.568  13.952
97915W        W67730  32.990  15.090   2.239
97916W        W67731  21.651  44.960  14.833
97917W        W67732  29.943   0.882  12.516
97918W        W67733  39.537  38.970   4.200
97919W        W67734  23.574  32.615   4.603
97920W        W67735  32.632  39.883  10.570
97921W        W67736  11.367  14.181   1.876
97922W        W67737  21.023  19.045  12.436
97923W        W67738  30.104  14.152  14.445
97924W        W67739  38.454   3.894   4.702
97925W        W67740  22.133   4.425   1.919
97926W        W67741  31.631  34.449   1.244
97927W        W67742   4.300  37.989  12.998
97928W        W67743  17.663  36.889   3.160
97929W        W67744  37.448   9.761  11.412
97930W        W67745  30.044  23.494   1.900
97931W        W67746  18.585  33.610   2.312
97932W        W67747  31.529  22.629   4.227
97933W        W67748  14.734  31.042   1.339
97934W        W67749  11.771  15.593  11.929
97935W        W67750  44.963  44.783  13.794
97936W        W67751  20.077   5.690   0.312
97937W        W67752  21.087  39.477  12.011
97938W        W67753  33.978   7.879  10.903
97939W        W67754  33.594  29.092  13.854
97940W        W67755  41.027  27.679  11.118
97941W        W67756  27.539  18.615   3.194
97942W        W67757   2.858   9.316   2.324
97943W        W67758   9.324   8.164  12.556
97944W        W67759  29.610   0.747  10.588
97945W        W67760   3.712  42.503  12.574
97946W        W67761  24.700  20.043   2.757
97947W        W67762  15.723  33.558   0.344
97948W        W67763  39.514  20.672   4.825
97949W        W67764   6.360  25.507  11.885
97950W        W67765  21.577   6.184   3.824
97951W        W67766  35.509   8.358   3.189
97952W        W67767  26.595  39.395   1.854
97953W        W67768  33.419   0.771  13.941
97954W        W67769  19.680   3.312  10.982
97955W        W67770  36.394  42.853   0.424
97956W        W67771  22.628  22.529   0.464
97957W        W67772  39.866  30.659  12.530
97958W        W67773  20.762   4.273  12.384
97959W        W67774  15.165  43.323  12.434
97960W        W67775  27.109  17.664  13.534
97961W        W67776   0.311  20.107   2.280
97962W        W67777  11.719  39.551   4.614
97963W        W67778   6.829   9.171   0.292
97964W        W67779  31.991  24.088   2.316
97965W        W67780  25.652   5.718  12.057
97966W        W67781  38.966   0.387   0.338
97967W        W67782  38.406  28.155  13.505
97968W        W67783  35.549   6.285   4.715
97969W        W67784  16.251  29.050   5.322
97970W        W67785  11.650   0.395   4.115
97971W        W67786  26.536   2.775   3.688
97972W        W67787  25.626  38.946  11.081
97973W        W67788  22.166  18.182  10.073
97974W        W67789  43.456   1.483  12.406
97975W        W67790   8.377  24.679  14.302
97976W        W67791  41.489   9.270  13.419
97977W        W67792  30.593  11.132  13.904
97978W        W67793  32.913  30.434  12.981
97979W        W67794  12.662  38.439  13.989
97980W        W67795   7.370  38.517   3.693
97981W        W67796  44.983  38.374   0.357
97982W        W67797   2.453  18.670  10.927
97983W        W67798  28.455  22.119  11.940
97984W        W67799  39.558   8.831  13.871
97985W        W67800  38.933  41.489   0.306
97986W        W67801  27.565   1.327   2.346
97987W        W67802  10.260  36.535   2.317
97988W        W67803  13.831  20.115   1.739
97989W        W67804  35.930  14.311  10.439
97990W        W67805  33.011  29.566  13.920
97991W        W67806   6.897  10.222   3.333
97992W        W67807  29.664  34.924  12.468
97993W        W67808   2.337  26.026   3.372
97994W        W67809  24.034  25.035   9.997
97995W        W67810   7.185  39.010  14.838
97996W        W67811   3.783  34.613   2.757
97997W        W67812  29.578  20.574  11.416
97998W        W67813  40.396  31.591  14.982
97999W        W67814  18.583  29.072   3.168
98000W        W67815  34.067  43.429  12.079
98001W        W67816  15.115   4.803  11.075
98002W        W67817   2.411   1.285  14.303
98003W        W67818  25.500  36.473  12.005
98004W        W67819  16.258  34.066   1.927
98005W        W67820  38.514  32.008   2.303
98006W        W67821   8.744  20.736   3.755
98007W        W67822   6.855  40.342  14.019
98008W        W67823  30.955  15.275  11.122
98009W        W67824  35.048  31.964   3.707
98010W        W67825  23.628  39.405   4.745
98011W        W67826   4.387   4.781  12.049
98012W        W67827  43.355  27.156   1.783
98013W        W67828  36.945  34.096  12.556
98014W        W67829  10.176  11.783   3.731
98015W        W67830  19.767  39.440  13.875
98016W        W67831  13.818  33.965   2.854
98017W        W67832  21.242  24.555   4.610
98018W        W67833  40.535   4.792  12.074
98019W        W67834  11.237  24.682  13.420
98020W        W67835   9.334  30.152  14.973
98021W        W67836   2.313  37.002   4.770
98022W        W67837  28.453   4.211   3.152
98023W        W67838  32.998  24.183  13.936
98024W        W67839  25.971  25.138   0.889
98025W        W67840  43.479  14.333  12.880
98026W        W67841  40.904  15.584   1.382
98027W        W67842  38.891  36.047  14.880
98028W        W67843  19.626  19.549  13.812
98029W        W67844  18.630  17.201  13.885
98030W        W67845   4.728  14.605  11.442
98031W        W67846  41.991   6.379  10.420
98032W        W67847   5.340  43.867  12.423
98033W        W67848  14.111  10.141   3.858
98034W        W67849  20.103  42.999  12.837
98035W        W67850  37.930  21.033   4.328
98036W        W67851  37.342  32.047  13.524
98037W        W67852  36.039   1.871  13.944
98038W        W67853  44.333  14.614   0.334
98039W        W67854   2.738   7.198  13.928
98040W        W67855  32.900  28.963   3.840
98041W        W67856  14.143  40.019   4.799
98042W        W67857   8.896  37.520   1.909
98043W        W67858  34.114  15.329   3.693
98044W        W67859  27.547  20.722   3.794
98045W        W67860   1.330   5.404   4.172
98046W        W67861  19.747   9.318   3.795
98047W        W67862  18.068  11.238  11.899
98048W        W67863   4.432  15.727  10.404
98049W        W67864   5.932  26.025   0.763
98050W        W67865   1.434  37.007   4.132
98051W        W67866   6.903  42.477  10.456
98052W        W67867   2.395  25.181  14.007
98053W        W67868  30.119  42.318   1.722
98054W        W67869  23.711  10.270   4.348
98055W        W67870   7.251  30.473   2.367
98056W        W67871  13.272  15.216   3.252
98057W        W67872   0.342  36.577   1.435
98058W        W67873  13.312  14.301  12.065
98059W        W67874  38.425  18.587   0.772
98060W        W67875  14.322  43.776  10.520
98061W        W67876  18.771  32.067   3.844
98062W        W67877  33.424  41.850  12.844
98063W        W67878  21.179   2.272  12.933
98064W        W67879   5.706  19.129  14.324
98065W        W67880   9.214  29.970   3.853
98066W        W67881  41.843  42.907   5.217
98067W        W67882  28.648  16.706  14.763
98068W        W67883  19.730  21.072  12.006
98069W        W67884   2.965  43.309   0.788
98070W        W67885   2.754  17.304   1.717
98071W        W67886  16.738  18.149   1.231
98072W        W67887  24.073  26.963  12.449
98073W        W67888  15.818   7.676   0.791
98074W        W67889  16.612  28.947  14.849
98075W        W67890  12.642  30.067  13.321
98076W        W67891  42.450   7.874  11.923
98077W        W67892  30.635  10.349  13.450
98078W        W67893  19.696  11.135   3.183
98079W        W67894  11.846  23.184   4.675
98080W        W67895   8.836  44.760  14.823
98081W        W67896  39.467  40.854   3.260
98082W        W67897  38.864   6.871  12.529
98083W        W67898   9.765  26.689   2.797
98084W        W67899  31.942  18.761   3.163
98085W        W67900   1.407  19.258  10.446
98086W        W67901  10.191  25.700   1.789
98087W        W67902  11.704   2.373  11.552
98088W        W67903  23.144  24.638   1.410
98089W        W67904  38.958  14.254  11.458
98090W        W67905  22.546  10.669   0.733
98091W        W67906  37.567  26.687   4.121
98092W        W67907  13.741   7.803  13.350
98093W        W67908   4.426   5.895   1.853
98094W        W67909  43.780   0.396   4.668
98095W        W67910   7.357   3.897   3.727
98096W        W67911  22.566  19.112   0.424
98097W        W67912   4.910  44.295   0.355
98098W        W67913  32.612  22.606  14.838
98099W        W67914  11.254  34.397  13.535
98100W        W67915  26.973  20.086   4.336
98101W        W67916  15.674  25.035  12.472
98102W        W67917  39.882  41.342   0.741
98103W        W67918   3.416  32.441  12.062
98104W        W67919  28.137   3.244   3.322
98105W        W67920  12.785  23.166   2.858
98106W        W67921  10.763  14.160   4.608
98107W        W67922  17.664  33.481  12.022
98108W        W67923  12.703   8.220   3.779
98109W        W67924  17.797  29.617   0.861
98110W        W67925  42.413  29.050  13.529
98111W        W67926  22.028  13.795  11.583
98112W        W67927  23.235  41.391   0.369
98113W        W67928  20.225   8.661   4.285
98114W        W67929  14.165   7.212   2.765
98115W        W67930  36.885  29.503  11.448
98116W        W67931  35.955  35.904   2.774
98117W        W67932  12.289  18.641   0.778
98118W        W67933  13.814   7.339   2.671
98119W        W67934  13.824  25.010   0.328
98120W        W67935  31.017  31.645   4.815
98121W        W67936  17.193  33.397  13.472
98122W        W67937  23.642  22.731  13.504
98123W        W67938   2.962  43.279   4.332
98124W        W67939  29.631  40.518   0.418
98125W        W67940  37.981  34.055  12.019
98126W        W67941  13.274  40.827  10.920
98127W        W67942  31.460  43.976  12.873
98128W        W67943  34.911   9.324  13.424
98129W        W67944   0.897  41.502  10.569
98130W        W67945  28.598  16.195   0.472
98131W        W67946  12.274  27.008   0.895
98132W        W67947  24.599  16.720   0.778
98133W        W67948   2.864  40.482   1.242
98134W        W67949  25.650  21.540   1.729
98135W        W67950  12.764  15.100  13.908
98136W        W67951  14.180  32.953   1.443
98137W        W67952   4.799  28.970   3.170
98138W        W67953  13.271  25.058  14.957
98139W        W67954  41.833  39.369   2.824
98140W        W67955   3.710  16.292  10.926
98141W        W67956  15.699  26.151   3.381
98142W        W67957  37.954  27.133   3.701
98143W        W67958  20.573  23.144  10.618
98144W        W67959  37.015   9.358  12.981
98145W        W67960  31.106  28.091  13.833
98146W        W67961   6.353  18.781   0.786
98147W        W67962  26.176  32.632   4.778
98148W        W67963   7.326  39.508  14.961
98149W        W67964  44.404  40.543   3.785
98150W        W67965  28.043  20.245  14.500
98151W        W67966  10.381  29.025   9.962
98152W        W67967  22.997  19.191  12.519
98153W        W67968  33.113  36.485  14.984
98154W        W67969  12.301  39.549   3.227
98155W        W67970   9.287  41.932  10.612
98156W        W67971   1.377  32.628   1.417
98157W        W67972  17.594  11.795  10.117
98158W        W67973   2.839   9.686  14.823
98159W        W67974   8.206  37.868   1.916
98160W        W67975  19.105  25.619   2.354
98161W        W67976  23.086  33.061   0.726
98162W        W67977   0.795   6.353   0.253
98163W        W67978  22.212  36.073  11.017
98164W        W67979  43.988  23.199  13.964
98165W        W67980  19.769   7.384   1.878
98166W        W67981  18.625  13.612   4.310
98167W        W67982   3.439  41.800   4.332
98168W        W67983  25.204  37.912   3.370
98169W        W67984  12.700  32.586  13.838
98170W        W67985   8.721   1.759   1.411
98171W        W67986  20.053  37.055  13.952
98172W        W67987  24.154  24.201   3.786
98173W        W67988  23.039   4.755   9.939
98174W        W67989   1.899  25.586   1.275
98175W        W67990   8.215  26.080  14.497
98176W        W67991  10.650   6.826  14.010
98177W        W67992  26.597  20.139   3.662
98178W        W67993  23.671   8.203   2.339
98179W        W67994  43.294  31.580  13.803
98180W        W67995  34.581  21.688  10.495
98181W        W67996  12.128  26.494   4.219
98182W        W67997  12.636   7.343  14.923
98183W        W67998  10.283  13.711   3.318
98184W        W67999  10.664  10.692  11.530
98185W        W68000  32.400  13.794  13.414
98186W        W68001  10.358  23.566   3.802
98187W        W68002   7.312  26.499  12.506
98188W        W68003  22.693   1.395   4.152
98189W        W68004   1.304   5.429  12.357
98190W        W68005  15.110  44.804  10.617
98191W        W68006  10.240  10.262   1.322
98192W        W68007   9.836   8.179  14.957
98193W        W68008  24.099   1.273  10.888
98194W        W68009  22.664   9.677  12.845
98195W        W68010  22.027  40.415  11.064
98196W        W68011  35.522  43.013   1.395
98197W        W68012  32.471  30.604   3.796
98198W        W68013  16.092   6.796   4.298
98199W        W68014  24.008  23.519   2.815
98200W        W68015  41.954   2.939  13.457
98201W        W68016   5.245  16.204   1.922
98202W        W68017  27.457  39.059   1.772
98203W        W68018  23.653  23.239  11.109
98204W        W68019  21.242  22.547   3.163
98205W        W68020  20.224  40.508  13.412
98206W        W68021  30.161  39.998  13.957
98207W        W68022  19.780  25.178  14.459
98208W        W68023  36.507  33.461  10.626
98209W        W68024  44.760  33.069   4.288
98210W        W68025  27.179  38.849  12.532
98211W        W68026  37.965  17.249  13.498
98212W        W68027   0.392  42.493  13.540
98213W        W68028   0.329  21.636   1.807
98214W        W68029  35.361  12.767  12.439
98215W        W68030  11.697  14.621   3.236
98216W        W68031  11.719   0.879   2.288
98217W        W68032  15.173   7.726   4.334
98218W        W68033  16.673  10.848   1.727
98219W        W68034  14.180  13.206   2.744
98220W        W68035  16.286  28.621  11.894
98221W        W68036   6.233   4.755  13.358
98222W        W68037  29.986   6.250   4.672
98223W        W68038  20.058  19.231  14.462
98224W        W68039  20.205  14.783  13.348
98225W        W68040  40.474  26.490   0.822
98226W        W68041  44.896  30.465   0.947
98227W        W68042   2.424  12.799   3.150
98228W        W68043   0.478  13.702   3.261
98229W        W68044   4.832   8.190   0.941
98230W        W68045   2.443  40.959   4.630
98231W        W68046  35.600  22.177   4.271
98232W        W68047  36.890  31.561   0.334
98233W        W68048  18.153  40.885  11.000
98234W        W68049  30.489  31.947   3.648
98235W        W68050  22.743   0.289  14.812
98236W        W68051  42.458  28.524   1.366
98237W        W68052  12.788  40.884  11.896
98238W        W68053  32.539  11.732   3.868
98239W        W68054  26.543  19.775   2.757
98240W        W68055  24.550  12.243  13.370
98241W        W68056   5.301  18.747  14.379
98242W        W68057  32.960   2.747   1.228
98243W        W68058  32.904  33.410   0.802
98244W        W68059  32.610   5.780  13.313
98245W        W68060  30.136  34.097   3.366
98246W        W68061  38.391  15.140   3.793
98247W        W68062  26.057   6.827  13.343
98248W        W68063  44.430   4.772   0.337
98249W        W68064  22.140  42.926  10.539
98250W        W68065  31.420  43.942   2.306
98251W        W68066   2.261  43.413  13.437
98252W        W68067  24.565  20.104   4.291
98253W        W68068  10.673   3.364   5.096
98254W        W68069  44.947  30.611   3.351
98255W        W68070  28.987  29.978  14.928
98256W        W68071  10.382   7.761   5.240
98257W        W68072  40.409   5.913  14.844
98258W        W68073  38.853   4.368  11.510
98259W        W68074  22.583  35.908   4.628
98260W        W68075  43.861  27.477  11.931
98261W        W68076   4.882  24.099   1.316
98262W        W68077  38.934  18.775  13.022
98263W        W68078  40.448  36.043   0.785
98264W        W68079   6.759  40.036   5.711
98265W        W68080  32.529  32.576  12.536
98266W        W68081   8.343  19.653   3.832
98267W        W68082  10.199  22.553   2.348
98268W        W68083   9.326  31.470   3.778
98269W        W68084  19.671  43.791   9.535
98270W        W68085  37.862   3.911  13.990
98271W        W68086  23.622  26.189  12.467
98272W        W68087  11.642  11.720   1.894
98273W        W68088  12.808  13.618   4.648
98274W        W68089  42.342  38.883   3.381
98275W        W68090  18.213   4.210   0.742
98276W        W68091   1.457  44.314   4.137
98277W        W68092  32.608  29.532   1.336
98278W        W68093  21.521  25.096   2.283
98279W        W68094  12.291  37.373  13.875
98280W        W68095  42.485  15.801   9.970
98281W        W68096   2.889  31.943   3.295
98282W        W68097  44.350  44.817  14.891
98283W        W68098   7.348  36.538  11.065
98284W        W68099  39.847  24.214  13.477
98285W        W68100  25.599   8.382   0.897
98286W        W68101  20.092  11.212  13.443
98287W        W68102   5.397  43.412   0.347
98288W        W68103  19.242  13.614   3.716
98289W        W68104  13.158  11.795   0.401
98290W        W68105   6.218  38.456  11.534
98291W        W68106  21.547   9.395   2.720
98292W        W68107  25.087  27.457  13.916
98293W        W68108  37.476  26.549  14.465
98294W        W68109  21.616  43.334   1.811
98295W        W68110   8.281  32.090   4.834
98296W        W68111  18.080  21.634   4.802
98297W        W68112  13.818  36.424  12.377
98298W        W68113  16.608  10.688   0.729
98299W        W68114  13.262  44.445   1.883
98300W        W68115  22.705  37.536  12.881
98301W        W68116  37.016  12.745   4.331
98302W        W68117  22.552  12.668   2.871
98303W        W68118  11.127  26.636   3.772
98304W        W68119  29.632  29.536   1.771
98305W        W68120   1.767  29.968   2.405
98306W        W68121  27.469  41.920  11.096
98307W        W68122  42.858   4.733   3.817
98308W        W68123   1.924  34.507  14.900
98309W        W68124  23.644   0.958  14.464
98310W        W68125   1.436  27.635   2.335
98311W        W68126  32.562   7.321   4.610
98312W        W68127  13.648  37.994   3.177
98313W        W68128   6.697  23.709   0.310
98314W        W68129  34.607   3.410  10.572
98315W        W68130  42.991  25.968   4.653
98316W        W68131  21.752  22.189   3.191
98317W        W68132  14.201   2.898  12.503
98318W        W68133  37.028  33.877  12.884
98319W        W68134   7.678  41.538   0.333
98320W        W68135   5.415  40.461   3.170
98321W        W68136  26.160  43.934  14.283
98322W        W68137  41.332  40.945  11.861
98323W        W68138  21.123  43.852   0.431
98324W        W68139  44.494   1.262  13.061
98325W        W68140   5.732  34.090  14.501
98326W        W68141   7.327  10.220  11.982
98327W        W68142  38.412   5.858  14.291
98328W        W68143   0.489  34.419   1.884
98329W        W68144  22.197  15.299  13.967
98330W        W68145  24.161  27.035  14.970
98331W        W68146  32.004  21.734   2.287
98332W        W68147  37.082  23.522  11.033
98333W        W68148   5.807   4.926   4.120
98334W        W68149   0.951  35.089  11.540
98335W        W68150  43.949   1.922   3.206
98336W        W68151  36.349  24.025  14.333
98337W        W68152  14.193  20.137  10.637
98338W        W68153   7.679  27.614  11.381
98339W        W68154  19.098   5.207  14.029
98340W        W68155  33.616  27.543   4.821
98341W        W68156   4.756   3.859   1.375
98342W        W68157  19.748  41.934  13.441
98343W        W68158  39.054  34.898   0.418
98344W        W68159  29.450   9.843  11.053
98345W        W68160  32.627  20.191  11.999
98346W        W68161  21.615  33.531   0.767
98347W        W68162  25.982  39.856  14.515
98348W        W68163  10.711  38.417   1.811
98349W        W68164   0.968  30.449   4.231
98350W        W68165  41.344  36.856   0.958
98351W        W68166   0.833  22.548  13.463
98352W        W68167  26.143  44.947   1.291
98353W        W68168  29.131  26.169  11.065
98354W        W68169   0.444  41.294   2.703
98355W        W68170   4.737  17.569  14.023
98356W        W68171  30.969   2.320  11.969
98357W        W68172  39.815  44.394  10.892
98358W        W68173  22.520  36.385   2.876
98359W        W68174  37.446  34.590   1.219
98360W        W68175  16.668  13.679  12.437
98361W        W68176  25.157   8.268   0.730
98362W        W68177  44.902  24.696   3.774
98363W        W68178  25.577  21.241  13.325
98364W        W68179  17.610  22.544   1.882
98365W        W68180  34.451  17.159   2.330
98366W        W68181  32.018  36.454   0.795
98367W        W68182  12.739  24.167  12.091
98368W        W68183   1.875  13.794   0.851
98369W        W68184  44.980  17.134  13.506
98370W        W68185   0.882   9.319   1.407
98371W        W68186  37.428   1.467   3.171
98372W        W68187  34.039  26.579  11.476
98373W        W68188  12.227   3.895   2.737
98374W        W68189   2.957  16.717   3.736
98375W        W68190  10.336  19.776   3.183
98376W        W68191  34.072   4.370   3.376
98377W        W68192  32.448  22.175   0.835
98378W        W68193  19.705  22.686  12.998
98379W        W68194  34.541  11.218   2.892
98380W        W68195  24.498   5.812   0.810
98381W        W68196  44.420  36.970  11.464
98382W        W68197  30.960  25.483  14.485
98383W        W68198  34.096  17.138  10.039
98384W        W68199   8.390  41.820  11.590
98385W        W68200  44.329  16.177   1.228
98386W        W68201  42.999  11.779  11.925
98387W        W68202   0.280   2.943  12.067
98388W        W68203   6.867  30.597   2.729
98389W        W68204  26.666  32.925   2.837
98390W        W68205  34.872  26.063  13.968
98391W        W68206  24.032   6.316  11.888
98392W        W68207   9.274  26.990   3.202
98393W        W68208  17.641  10.791  11.440
98394W        W68209  13.846  10.644   2.728
98395W        W68210  16.599  21.095   3.863
98396W        W68211  28.182  31.580  14.405
98397W        W68212  37.526  37.884   2.837
98398W        W68213  20.753  18.590  11.892
98399W        W68214  25.620  18.628   4.252
98400W        W68215  16.307  26.024   1.352
98401W        W68216  25.709  28.487   0.868
98402W        W68217   2.306  23.543   2.847
98403W        W68218  14.726  37.860  14.999
98404W        W68219  26.168   2.898  13.377
98405W        W68220  14.162  22.175  11.585
98406W        W68221  39.479  37.495   1.796
98407W        W68222  13.202   2.898   4.700
98408W        W68223  29.107  31.061  13.058
98409W        W68224  11.335  13.114   3.179
98410W        W68225  39.355  20.571   0.306
98411W        W68226  41.306  35.414  14.318
98412W        W68227  12.117  41.458   1.294
98413W        W68228   8.182  40.032  14.821
98414W        W68229   6.904  23.123  13.064
98415W        W68230  42.419  23.501  14.004
98416W        W68231   0.461   4.394  11.485
98417W        W68232  28.099  14.663  14.276
98418W        W68233  26.956   4.433  13.884
98419W        W68234   2.287  35.469   1.767
98420W        W68235  19.763  16.114  13.523
98421W        W68236   1.807  12.673   1.906
98422W        W68237  27.668  31.420   3.216
98423W        W68238   2.789  18.259  12.531
98424W        W68239  21.018   8.220   3.380
98425W        W68240   2.838  27.532  12.484
98426W        W68241  44.935  30.632   1.359
98427W        W68242  40.880  41.788   3.774
98428W        W68243   0.276  43.992   2.803
98429W        W68244  43.853  13.648   0.812
98430W        W68245  23.538  28.517   0.248
98431W        W68246  15.165   1.943   1.401
98432W        W68247  13.337  30.634   0.851
98433W        W68248  29.091  37.542   3.806
98434W        W68249   5.295  12.278   0.810
98435W        W68250  23.658  42.956   3.791
98436W        W68251  39.325  33.036   3.859
98437W        W68252   5.380  21.168   0.480
98438W        W68253   8.291  10.822   2.763
98439W        W68254  37.836  36.866  10.969
98440W        W68255  19.714  41.001  11.391
98441W        W68256  10.724  18.052   4.231
98442W        W68257  17.761  10.821   2.810
98443W        W68258  25.981   3.747  14.027
98444W        W68259  40.965  40.019   0.280
98445W        W68260   2.954   4.221   2.251
98446W        W68261  17.799  31.453   2.190
98447W        W68262  11.181  34.501  11.429
98448W        W68263  23.106   7.748  13.439
98449W        W68264  40.918  31.908   1.811
98450W        W68265  41.848  35.448   3.282
98451W        W68266  32.086   2.383   3.159
98452W        W68267  32.915   6.185  13.888
98453W        W68268  28.055  13.736   0.478
98454W        W68269   6.221  39.846  11.476
98455W        W68270   7.871  10.781   2.414
98456W        W68271  43.308  25.163  10.907
98457W        W68272  42.836  39.466   1.868
98458W        W68273  22.592  25.103  13.374
98459W        W68274  34.437  18.629   0.270
98460W        W68275  23.695  20.602  10.897
98461W        W68276   9.227  40.385   0.334
98462W        W68277  29.063   7.753  14.325
98463W        W68278   8.290  17.616  13.894
98464W        W68279  20.658  44.993   0.789
98465W        W68280   4.429  25.206  13.458
98466W        W68281  42.445  41.794   0.287
98467W        W68282  29.043  28.475  11.866
98468W        W68283  21.523  40.000   4.154
98469W        W68284  28.538  13.337  12.030
98470W        W68285   8.199  35.539  13.828
98471W        W68286  27.617  39.488  12.518
98472W        W68287  29.662  40.486  11.454
98473W        W68288  19.127  36.853   2.267
98474W        W68289  27.106  28.443  12.915
98475W        W68290  16.612  14.817  13.503
98476W        W68291  39.890  36.089   0.958
98477W        W68292  41.863  16.200  12.475
98478W        W68293  35.598  32.997   0.399
98479W        W68294  13.205  28.035   5.274
98480W        W68295   3.872  40.988   2.354
98481W        W68296  32.427  31.045   3.718
98482W        W68297  23.493   6.384   4.273
98483W        W68298   0.767   9.817  14.893
98484W        W68299  30.474  36.917   0.862
98485W        W68300  24.685  31.574   3.816
98486W        W68301  32.039   6.851  11.026
98487W        W68302  15.196  41.999   2.863
98488W        W68303  33.525  30.999   0.360
98489W        W68304  30.911  24.058  13.884
98490W        W68305  13.807  24.164  10.440
98491W        W68306  20.767   5.871   1.373
98492W        W68307   7.784  30.125  13.454
98493W        W68308  33.610  43.386   1.826
98494W        W68309  10.761  32.412  13.397
98495W        W68310  30.018  21.727   3.226
98496W        W68311   7.665  28.176  14.972
98497W        W68312   3.267  26.618  14.496
98498W        W68313  27.451  10.640  11.936
98499W        W68314  40.900  33.905  14.874
98500W        W68315  27.650  16.742   3.801
98501W        W68316  17.098   5.439   1.294
98502W        W68317  41.916  22.071  11.859
98503W        W68318  22.694  22.028   0.915
98504W        W68319  28.504  19.236  14.814
98505W        W68320  39.432  12.271   3.235
98506W        W68321   4.351  44.965  12.040
98507W        W68322  42.973  43.455  12.867
98508W        W68323   1.912  12.228  11.909
98509W        W68324   8.779  23.180  12.560
98510W        W68325   9.371  24.487  14.439
98511W        W68326  28.455  28.058  10.581
98512W        W68327   8.268  44.493   1.283
98513W        W68328   0.437  42.823   3.866
98514W        W68329  27.008   6.285   3.205
98515W        W68330  10.876  40.051   2.891
98516W        W68331  31.567  21.682  13.919
98517W        W68332  18.658  22.598   2.857
98518W        W68333  34.496  36.367  14.395
98519W        W68334  43.280  22.630   1.768
98520W        W68335  36.033  16.590   1.392
98521W        W68336  26.579   1.283   1.864
98522W        W68337  25.207  27.037  11.012
98523W        W68338  10.343   7.371   3.163
98524W        W68339  33.435  29.162   4.787
98525W        W68340  30.550  18.228  10.912
98526W        W68341  32.394  21.544  11.402
98527W        W68342  28.635  27.555   2.823
98528W        W68343   6.753  44.763   2.695
98529W        W68344  40.536  44.269   2.735
98530W        W68345  17.154   6.739  10.034
98531W        W68346   0.493  44.773  10.442
98532W        W68347   5.851  15.191  14.988
98533W        W68348  21.173  11.718  10.573
98534W        W68349  11.288  40.468   0.314
98535W        W68350   8.403   0.320  13.423
98536W        W68351  40.403   5.270  10.974
98537W        W68352   8.735  12.205   0.812
98538W        W68353  29.570   6.909  12.889
98539W        W68354  30.631  27.197   3.871
98540W        W68355  16.243   7.860  12.428
98541W        W68356  17.163   4.327   0.915
98542W        W68357  31.133  14.740   0.433
98543W        W68358  14.264  12.737   0.384
98544W        W68359   4.829  44.905   0.745
98545W        W68360  13.130  37.344   1.930
98546W        W68361  39.866  26.184   3.859
98547W        W68362  27.658  27.635   2.719
98548W        W68363  13.239   5.358  11.374
98549W        W68364   6.245  39.493  12.362
98550W        W68365  18.791  24.672   3.193
98551W        W68366  19.671  21.075  12.476
98552W        W68367  10.735  44.891  14.936
98553W        W68368  40.017   4.757   3.304
98554W        W68369  30.002   8.790  10.986
98555W        W68370   1.920  24.015  11.532
98556W        W68371  31.151  20.236   3.838
98557W        W68372   6.759  35.906   3.827
98558W        W68373  31.521  34.433  13.847
98559W        W68374   7.784  41.348  12.572
98560W        W68375   6.237  12.268   4.310
98561W        W68376  13.179  44.762  14.964
98562W        W68377  25.008  27.002  14.484
98563W        W68378  21.114  19.059   0.272
98564W        W68379  27.531  26.635   3.745
98565W        W68380  18.051  41.516  10.517
98566W        W68381  31.534   4.407  14.994
98567W        W68382  32.986  42.433   0.474
98568W        W68383  27.102  24.586  12.575
98569W        W68384  39.910  16.133  10.015
98570W        W68385  29.172  24.989   4.657
98571W        W68386  34.614  23.187   2.210
98572W        W68387  42.857  19.165   1.732
98573W        W68388  26.129  11.140  14.426
98574W        W68389  21.677  40.990  13.345
98575W        W68390  38.555   8.399   3.654
98576W        W68391  36.970  17.295   1.713
98577W        W68392  23.164   8.830  10.928
98578W        W68393  35.452  20.610   4.646
98579W        W68394  44.911  39.524  11.395
98580W        W68395  20.547   2.725  11.580
98581W        W68396  22.193   4.738   2.852
98582W        W68397  32.637  40.886  11.396
98583W        W68398  19.119   4.246   1.704
98584W        W68399  24.592  14.295   1.277
98585W        W68400   1.460  33.017   0.941
98586W        W68401   7.192  11.287  10.891
98587W        W68402  32.897  42.813   1.424
98588W        W68403  40.436   2.846   3.825
98589W        W68404   3.289  18.682   2.670
98590W        W68405  37.994  15.722   0.836
98591W        W68406   2.868   9.686  14.325
98592W        W68407   9.158   9.262   0.423
98593W        W68408   5.697   6.709   4.621
98594W        W68409   7.222  10.722  11.982
98595W        W68410  33.942  21.730   1.225
98596W        W68411  33.450  17.700  10.142
98597W        W68412  25.711   0.294   3.247
98598W        W68413  42.355   0.461  13.431
98599W        W68414  22.179  22.540  13.346
98600W        W68415  10.330   5.812   2.757
98601W        W68416  39.840  35.383  14.378
98602W        W68417   4.395  31.127   3.632
98603W        W68418  12.842  27.161  13.824
98604W        W68419   8.843  33.438  12.041
98605W        W68420  17.681   1.859  10.932
98606W        W68421  25.688  21.684   4.674
98607W        W68422  39.546  31.930   3.643
98608W        W68423  10.808  17.716   1.917
98609W        W68424   3.299  11.356   3.817
98610W        W68425  38.353  41.882  13.524
98611W        W68426  20.053   9.254   1.334
98612W        W68427  16.686  40.492   0.947
98613W        W68428   4.257   8.698   1.925
98614W        W68429  10.745  17.294   0.863
98615W        W68430  24.555  38.400  14.393
98616W        W68431   4.339  16.290   0.435
98617W        W68432  31.468  37.868  14.768
98618W        W68433  25.207   9.235   3.792
98619W        W68434  24.677  21.049  14.380
98620W        W68435   8.391  26.980  14.470
98621W        W68436  44.449  16.617   4.658
98622W        W68437   2.310  15.634  14.461
98623W        W68438  32.077  23.136  14.781
98624W        W68439  33.129  18.131  13.448
98625W        W68440  35.600   5.409   2.397
98626W        W68441  12.776  17.125  14.391
98627W        W68442  21.674   9.290  13.980
98628W        W68443  10.149  38.043   0.912
98629W        W68444  21.258  16.747  10.501
98630W        W68445  30.990  44.369  11.026
98631W        W68446  19.101   5.237   3.827
98632W        W68447  24.570  24.512  12.970
98633W        W68448  44.375   7.366  12.448
98634W        W68449  39.328  26.993  11.902
98635W        W68450  24.533  27.193   2.344
98636W        W68451  28.180  33.507  13.057
98637W        W68452  17.291  17.607   3.853
98638W        W68453  25.658  32.087   0.731
98639W        W68454  28.128  42.281  12.929
98640W        W68455  22.579  32.617   3.724
98641W        W68456   1.383  25.639   2.733
98642W        W68457  35.441  24.618  14.360
98643W        W68458  32.038   0.819  12.579
98644W        W68459  34.888  27.168  13.009
98645W        W68460  42.292  12.352  13.025
98646W        W68461  24.202  10.874   0.907
98647W        W68462  37.920  27.628  14.449
98648W        W68463  39.011  39.543  11.877
98649W        W68464   6.736   7.707  11.039
98650W        W68465  12.648  34.550   3.805
98651W        W68466  17.646   6.827  14.394
98652W        W68467   0.349  24.497   3.777
98653W        W68468   9.676  44.280   2.695
98654W        W68469  11.795  26.620  13.027
98655W        W68470  16.792  36.472  13.877
98656W        W68471  34.488  29.014  11.576
98657W        W68472  40.034  13.194   1.902
98658W        W68473  35.861  43.357  11.121
98659W        W68474  41.956  19.251   4.625
98660W        W68475  12.825   4.259  11.466
98661W        W68476  41.299   3.724   4.237
98662W        W68477  19.148  10.384   4.296
98663W        W68478  36.097   6.325  13.938
98664W        W68479   6.273  15.730  13.453
98665W        W68480  12.752  21.580   2.690
98666W        W68481   6.906  12.645  13.435
98667W        W68482   8.759  32.017  12.032
98668W        W68483  10.164   7.899   3.185
98669W        W68484  40.924  29.982   4.681
98670W        W68485   4.337  20.053  13.987
98671W        W68486  12.207  35.944  14.495
98672W        W68487  12.732  28.062   4.144
98673W        W68488  24.657  24.995  12.532
98674W        W68489   4.433  35.599  12.080
98675W        W68490  12.341  44.352  10.636
98676W        W68491  36.553  24.666   3.317
98677W        W68492  42.488  36.010  13.468
98678W        W68493  26.054  21.658  11.524
98679W        W68494  33.411  27.040  14.911
98680W        W68495  36.920  32.559   0.334
98681W        W68496  29.555  30.959  13.513
98682W        W68497   4.429  24.097  14.330
98683W        W68498  40.488  12.254  10.541
98684W        W68499   7.329   1.261   4.788
98685W        W68500  23.055  27.518  12.854
98686W        W68501  38.819  30.051   3.675
98687W        W68502  24.136  20.587   0.816
98688W        W68503  26.058  20.547  14.464
98689W        W68504   0.369  25.576   3.257
98690W        W68505   5.847   8.725  12.995
98691W        W68506  18.073  32.122  11.449
98692W        W68507   9.716   5.370  10.456
98693W        W68508  38.560  16.307  13.444
98694W        W68509  12.727  41.803   4.610
98695W        W68510  11.314  43.479  12.068
98696W        W68511  43.334   8.826  12.558
98697W        W68512  42.961  41.874   2.838
98698W        W68513  32.630  20.742  12.008
98699W        W68514  26.665   8.657  11.865
98700W        W68515   7.785  19.563   1.697
98701W        W68516   7.788  11.713  10.990
98702W        W68517  32.994   9.270   4.311
98703W        W68518  11.339  26.665   0.477
98704W        W68519  26.149   3.377  10.407
98705W        W68520  18.292  30.447   2.868
98706W        W68521  23.988  30.152   0.301
98707W        W68522  19.617  32.087  14.856
98708W        W68523   2.798  19.587  11.094
98709W        W68524   5.829  35.090  13.933
98710W        W68525  27.127   9.663  11.594
98711W        W68526   2.919  12.794   0.966
98712W        W68527  40.470  25.154  10.013
98713W        W68528  34.516  19.101   2.790
98714W        W68529  19.075  26.513   0.901
98715W        W68530   0.273  28.978  14.022
98716W        W68531  39.976   6.365   9.576
98717W        W68532   6.380  29.154   5.252
98718W        W68533  41.878   0.926   2.810
98719W        W68534  44.438  36.848  14.381
98720W        W68535  41.462   8.800   2.300
98721W        W68536  12.129  10.856  13.367
98722W        W68537   2.930  24.563   0.854
98723W        W68538  24.196  23.128  13.895
98724W        W68539  35.358  36.014   0.949
98725W        W68540  13.201   5.707  10.953
98726W        W68541  31.038  25.021  11.480
98727W        W68542  17.165  41.324  13.384
98728W        W68543  41.925  32.591  12.416
98729W        W68544  30.490  22.057  14.509
98730W        W68545   0.777  12.168   1.760
98731W        W68546  42.502  23.202  14.922
98732W        W68547   9.823  23.106   4.716
98733W        W68548   5.744  33.095  12.473
98734W        W68549  19.081  35.889   4.642
98735W        W68550   2.826  34.013   4.808
98736W        W68551  19.591  43.906  10.486
98737W        W68552   1.949  30.145  10.624
98738W        W68553  23.629   6.824   3.208
98739W        W68554  37.398   6.247  11.437
98740W        W68555  39.823  25.663  12.036
98741W        W68556  24.014  28.548   1.902
98742W        W68557  16.164  30.479  10.550
98743W        W68558  40.995  11.762   0.798
98744W        W68559  18.577  25.211   4.224
98745W        W68560  21.207  16.775   9.988
98746W        W68561   7.179   1.398   3.646
98747W        W68562  27.493  13.284   0.291
98748W        W68563   1.387   1.881   2.189
98749W        W68564  20.069  18.239  10.145
98750W        W68565  21.546   9.812  13.944
98751W        W68566  26.671  22.594   3.360
98752W        W68567  27.650  44.400   1.717
98753W        W68568  40.838   1.278   1.743
98754W        W68569  22.613  10.378   1.234
98755W        W68570  25.117  37.452   9.455
98756W        W68571  22.214  44.920  13.477
98757W        W68572  20.245  30.419  11.573
98758W        W68573  29.466  12.212   4.351
98759W        W68574   7.395  41.840  14.503
98760W        W68575  13.653  30.563   3.772
98761W        W68576   6.908   0.352  12.434
98762W        W68577  35.942  37.901   2.816
98763W        W68578  24.580  15.317  13.060
98764W        W68579  43.799  33.528  14.445
98765W        W68580  18.099  20.684   3.835
98766W        W68581  24.073  42.885   1.878
98767W        W68582  16.703  24.993   0.960
98768W        W68583  28.474  38.973  14.345
98769W        W68584   0.783  28.093   1.787
98770W        W68585  29.534  19.285   2.203
98771W        W68586  11.365  32.565  12.574
98772W        W68587   8.775   3.713   1.796
98773W        W68588  22.025   9.323   3.749
98774W        W68589  33.479  35.504  14.387
98775W        W68590  11.645  30.153   0.731
98776W        W68591  29.660  40.891  10.943
98777W        W68592  21.591  17.716  14.870
98778W        W68593   0.926  43.363  10.574
98779W        W68594  18.779  25.561   1.392
98780W        W68595  25.046   3.923  10.627
98781W        W68596   9.333  20.656   2.266
98782W        W68597  31.066  42.851   3.681
98783W        W68598  27.633   3.732  13.329
98784W        W68599   2.297  30.083   4.664
98785W        W68600  20.136   2.230  11.528
98786W        W68601   4.444  17.575  11.053
98787W        W68602   3.239   2.808  11.998
98788W        W68603  15.719  18.254   0.374
98789W        W68604  37.501   3.390  14.770
98790W        W68605  42.791  19.764   2.182
98791W        W68606   8.304  18.669  14.331
98792W        W68607  20.731  18.576   0.297
98793W        W68608  31.418   8.396  11.967
98794W        W68609  42.994  18.707   4.262
98795W        W68610  20.255  25.591   0.878
98796W        W68611  23.548  29.936   2.835
98797W        W68612  28.109  25.594   2.193
98798W        W68613  22.195   3.713  10.467
98799W        W68614  24.177  18.552   4.751
98800W        W68615   0.956  40.322  10.555
98801W        W68616  20.565  44.768  13.496
98802W        W68617   1.448  41.498  10.624
98803W        W68618  22.222   0.745  12.456
98804W        W68619  27.580  37.395   4.752
98805W        W68620  13.602  39.473  11.117
98806W        W68621  18.119  16.582  14.938
98807W        W68622  17.168  27.004   0.814
98808W        W68623  16.754   6.724  13.548
98809W        W68624  35.580  15.096  13.365
98810W        W68625  18.765  24.208   3.185
98811W        W68626  20.126   3.885   4.614
98812W        W68627  39.900  18.142   2.663
98813W        W68628  18.710  33.986  11.071
98814W        W68629  42.332  20.563  13.000
98815W        W68630  14.807  31.087  14.841
98816W        W68631  26.519   9.309  12.343
98817W        W68632   6.219  13.178  11.903
98818W        W68633  15.822  38.929  11.128
98819W        W68634  26.675  43.273  11.414
98820W        W68635  26.648  33.993   2.862
98821W        W68636  31.616   4.753   2.408
98822W        W68637   8.665  10.299   3.852
98823W        W68638   2.913  15.307   0.829
98824W        W68639  32.464  16.654   0.386
98825W        W68640  33.534  41.932  11.868
98826W        W68641  10.746   5.829  12.904
98827W        W68642  12.139  40.400  14.492
98828W        W68643  27.009   8.239  14.334
98829W        W68644  19.632  33.977   3.163
98830W        W68645  34.612  43.354  10.962
98831W        W68646  40.513   6.398   5.292
98832W        W68647  25.528  43.400  10.542
98833W        W68648  15.706   3.943  10.920
98834W        W68649  13.166   6.810   1.322
98835W        W68650  41.400  20.644  12.519
98836W        W68651  25.148  12.786  14.953
98837W        W68652  29.517  43.488  10.999
98838W        W68653  33.993   0.981  11.045
98839W        W68654  20.704  19.283   1.877
98840W        W68655   0.387   6.295   0.735
98841W        W68656  19.239   4.931   3.293
98842W        W68657   8.208  42.354  14.998
98843W        W68658  29.163  32.609   2.325
98844W        W68659  16.136  13.161  12.978
98845W        W68660  22.502   9.244  10.461
98846W        W68661  13.783   4.272  10.575
98847W        W68662  23.134  43.850  11.872
98848W        W68663  11.154  17.722   5.310
98849W        W68664  16.231  18.709  13.389
98850W        W68665   8.273  13.335  12.430
98851W        W68666  12.827  38.832   1.276
98852W        W68667  37.942  39.374   0.731
98853W        W68668  41.294   2.863  12.470
98854W        W68669  44.824  35.503  11.865
98855W        W68670  36.479  39.914   3.213
98856W        W68671  25.694  28.930  12.022
98857W        W68672   1.798  22.152   0.397
98858W        W68673  11.350   4.362   1.413
98859W        W68674  17.076  44.282   1.699
98860W        W68675  40.303  34.913  10.986
98861W        W68676   2.879  11.684  11.113
98862W        W68677  10.668  29.166  14.768
98863W        W68678  15.238  26.185  11.914
98864W        W68679  10.348  33.615  11.118
98865W        W68680  17.735  29.084   0.340
98866W        W68681  34.471   1.899   3.751
98867W        W68682   6.259  37.025  12.374
98868W        W68683  41.444  20.250   4.121
98869W        W68684  13.152  39.542  11.537
98870W        W68685   3.722  43.354   4.780
98871W        W68686  37.363  18.602   4.136
98872W        W68687  31.541   4.801   3.771
98873W        W68688  34.863  34.442  11.458
98874W        W68689  41.989  25.123  12.029
98875W        W68690  37.391   5.777  14.778
98876W        W68691  38.903   3.268  13.470
98877W        W68692  43.298   5.355  13.800
98878W        W68693  36.006  26.581   4.204
98879W        W68694  42.793  15.112   0.963
98880W        W68695   9.880  27.008   4.778
98881W        W68696   7.358  26.149  11.020
98882W        W68697  17.630   1.470   1.889
98883W        W68698  39.931  13.774  12.419
98884W        W68699  25.046  17.178  12.501
98885W        W68700  28.434   1.387  14.432
98886W        W68701   0.937  21.088   0.853
98887W        W68702  28.657  27.556   4.781
98888W        W68703   5.210  18.609   0.350
98889W        W68704   3.259  29.451  14.928
98890W        W68705   1.792   0.416   2.812
98891W        W68706  11.324  13.351   3.703
98892W        W68707  36.415   5.423  13.043
98893W        W68708  23.726  29.664  12.533
98894W        W68709  19.218  38.409  11.548
98895W        W68710  36.083  23.174  10.416
98896W        W68711  34.525  22.663  13.372
98897W        W68712  42.787  38.969   3.366
98898W        W68713  33.909  40.531  12.084
98899W        W68714   9.391  43.285   1.341
98900W        W68715  22.122   9.652  13.997
98901W        W68716  40.992   7.283   0.898
98902W        W68717  12.631   5.723  11.041
98903W        W68718  23.696   1.789  14.767
98904W        W68719  42.524  19.719  13.536
98905W        W68720   1.967  19.621   1.705
98906W        W68721   5.824  39.867   0.301
98907W        W68722  40.481  33.975   3.175
98908W        W68723  31.438  39.549  10.405
98909W        W68724   1.315  30.115   0.307
98910W        W68725  10.264  39.022   2.719
98911W        W68726  29.083  20.527  12.361
98912W        W68727  40.331  38.953   1.898
98913W        W68728  36.482  24.106  10.126
98914W        W68729  23.523   9.878   3.745
98915W        W68730  10.310  33.935  11.436
98916W        W68731  30.515  15.168   4.604
98917W        W68732  23.531  17.119  10.442
98918W        W68733   9.306  21.580  13.030
98919W        W68734  30.503  35.032   2.864
98920W        W68735   6.756   0.855   4.286
98921W        W68736  29.663  30.647   4.653
98922W        W68737   7.702  38.484   4.294
98923W        W68738  21.682  39.820   3.859
98924W        W68739  17.589  14.155   4.165
98925W        W68740  43.843   0.908  13.402
98926W        W68741  35.071  34.526   2.727
98927W        W68742  39.390  39.407  14.276
98928W        W68743  33.544  11.650   0.961
98929W        W68744  30.509   2.400   3.168
98930W        W68745  22.190  16.569   3.794
98931W        W68746  40.520   8.761   2.735
98932W        W68747  14.782   7.665   4.802
98933W        W68748  41.510  20.611  13.977
98934W        W68749   5.403  19.065  13.544
98935W        W68750  14.821  29.169   3.721
98936W        W68751  13.203  31.906   9.995
98937W        W68752  20.115   2.380  13.351
98938W        W68753  30.579  36.580   3.323
98939W        W68754   4.702  30.522   0.961
98940W        W68755  21.144   6.879  12.011
98941W        W68756  22.022   4.854  13.344
98942W        W68757   6.210  11.190   4.780
98943W        W68758  25.636  41.850  13.421
98944W        W68759  36.902   2.851  12.511
98945W        W68760  18.687  25.193  13.817
98946W        W68761   9.778   4.383   3.785
98947W        W68762  12.667  30.978   2.321
98948W        W68763  14.626  18.594  12.854
98949W        W68764  28.662  19.088   2.375
98950W        W68765  14.699  32.021   2.389
98951W        W68766  25.163   9.149  14.849
98952W        W68767  44.989  41.936   2.887
98953W        W68768  25.701  38.924  12.446
98954W        W68769  16.639  30.939   0.480
98955W        W68770  24.479  28.625  12.421
98956W        W68771  40.425  21.197   1.753
98957W        W68772  33.523   5.861  13.794
98958W        W68773  20.220  17.069  12.475
98959W        W68774  31.518  18.091  11.889
98960W        W68775  40.860  12.647  14.476
98961W        W68776  11.636  35.976  12.567
98962W        W68777  23.668  42.825   2.693
98963W        W68778  34.906  41.347   3.678
98964W        W68779  36.047  30.025   2.754
98965W        W68780  14.215  20.046  12.992
98966W        W68781  11.330  24.563   1.253
98967W        W68782  39.898  35.887   0.375
98968W        W68783  39.533  34.020  10.602
98969W        W68784  13.343  41.847   2.343
98970W        W68785   0.826  36.461  12.838
98971W        W68786  40.909  17.790  12.566
98972W        W68787  25.127  23.178   4.293
98973W        W68788   5.897  18.205   1.295
98974W        W68789   9.658  41.469   5.277
98975W        W68790  40.368  31.129  12.388
98976W        W68791  33.438  39.873   1.247
98977W        W68792  33.432  12.835   1.911
98978W        W68793  13.722  12.656  12.914
98979W        W68794  36.412  11.794  13.376
98980W        W68795  19.039  17.787   4.242
98981W        W68796   8.722  27.961   3.730
98982W        W68797   5.256  37.349   1.765
98983W        W68798  15.722   6.783   4.223
98984W        W68799  29.067  34.078   2.836
98985W        W68800   6.683  15.180   3.647
98986W        W68801   9.246  34.024  12.964
98987W        W68802   1.318  31.111   3.179
98988W        W68803  32.057   6.359  13.431
98989W        W68804   1.315  25.611  10.459
98990W        W68805  31.460  17.179  14.009
98991W        W68806  31.630   4.750  14.363
98992W        W68807  33.022  11.649  10.908
98993W        W68808  33.483   0.467   0.319
98994W        W68809  18.680  40.517   0.906
98995W        W68810  18.077  28.938  11.005
98996W        W68811  30.064  20.531   4.633
98997W        W68812   7.747  36.927  12.992
98998W        W68813   7.381  17.791   4.316
98999W        W68814  13.314  29.639  12.508
99000W        W68815   1.262  32.539  14.317
99001W        W68816  30.460  34.472   4.317
99002W        W68817  43.331  35.049  12.370
99003W        W68818  26.482  44.984   0.309
99004W        W68819   1.341  28.038   2.893
99005W        W68820  25.475  21.711  12.448
99006W        W68821   9.666  14.320   4.633
99007W        W68822  34.594  22.697   4.257
99008W        W68823  24.568   1.842   2.715
99009W        W68824  28.537  32.457  13.798
99010W        W68825  33.065  12.251  13.481
99011W        W68826  38.863  28.991   0.956
99012W        W68827  40.389   9.721   4.789
99013W        W68828  19.213   1.882  10.951
99014W        W68829  37.869  12.173   3.726
99015W        W68830  15.112  39.949   2.708
99016W        W68831  13.667  31.015   2.746
99017W        W68832  36.931  20.738  10.570
99018W        W68833   6.245  23.496  11.410
99019W        W68834   0.917  32.453   0.731
99020W        W68835  40.923  22.150   1.296
99021W        W68836  36.892  25.984  10.901
99022W        W68837  44.912  28.582   2.772
99023W        W68838  26.587  41.408   4.152
99024W        W68839  33.516  26.624   2.828
99025W        W68840   9.308  19.056  11.996
99026W        W68841   7.312  29.084  11.106
99027W        W68842  37.017  44.263  13.539
99028W        W68843  15.326   3.313  14.394
99029W        W68844  22.193   3.255  12.512
99030W        W68845  13.323  43.010  12.978
99031W        W68846  15.284  19.735  11.975
99032W        W68847  37.965  34.978  12.961
99033W        W68848  35.945   8.754  11.507
99034W        W68849  19.173  27.121   0.455
99035W        W68850  16.572  40.981   2.679
99036W        W68851  29.082  19.092  14.430
99037W        W68852   2.900  26.514   3.685
99038W        W68853   9.687  19.614   3.208
99039W        W68854   8.174  39.486  11.996
99040W        W68855  28.546  26.629  12.388
99041W        W68856  16.621  41.924   2.731
99042W        W68857  20.743  29.576  10.892
99043W        W68858  20.569  36.590   4.643
99044W        W68859  25.623  23.085   2.823
99045W        W68860  44.449  25.145  12.824
99046W        W68861   0.770   9.808   2.788
99047W        W68862  14.721  25.092  13.354
99048W        W68863   9.783  14.597  14.917
99049W        W68864  10.646  11.333  13.449
99050W        W68865  30.480  38.424  14.018
99051W        W68866  14.757   4.864   4.675
99052W        W68867  20.255  33.388   0.919
99053W        W68868  25.551  40.951   2.223
99054W        W68869   4.431   2.448  13.949
99055W        W68870  13.824  18.588  14.315
99056W        W68871  10.795  29.627   0.263
99057W        W68872  25.090   1.384   3.279
99058W        W68873   4.406  21.685  12.914
99059W        W68874  12.305  23.138  13.845
99060W        W68875  32.049   4.767  11.501
99061W        W68876  26.617  25.014   1.261
99062W        W68877  41.964  35.060   0.404
99063W        W68878  12.317  33.496  11.940
99064W        W68879  12.167  33.888   4.286
99065W        W68880   8.287   5.268  12.437
99066W        W68881  34.871   6.335  12.023
99067W        W68882   1.265  37.427   2.768
99068W        W68883  32.138  11.168  13.340
99069W        W68884  35.956  31.402   1.787
99070W        W68885  43.783  16.232  11.077
99071W        W68886   5.274  44.396  13.036
99072W        W68887  16.578   0.405   1.364
99073W        W68888  17.212   0.876   3.267
99074W        W68889  30.611  18.274   2.876
99075W        W68890   3.884  25.523  13.453
99076W        W68891   1.285  30.128  12.056
99077W        W68892  15.277  16.314   2.879
99078W        W68893   5.862   2.295   3.867
99079W        W68894  21.248  21.040   4.603
99080W        W68895  35.372  26.005  14.840
99081W        W68896  38.350  31.006   1.703
99082W        W68897  29.669  11.626  10.064
99083W        W68898  36.517  44.379  13.528
99084W        W68899   8.820   4.934  10.537
99085W        W68900  16.721  40.041   0.752
99086W        W68901   8.801  24.149   0.832
99087W        W68902   5.732  22.662  10.939
99088W        W68903  14.158   7.703   3.348
99089W        W68904  36.976  11.290   2.393
99090W        W68905  41.984  40.952   4.120
99091W        W68906   0.869   4.275   3.152
99092W        W68907  40.314  23.523  11.095
99093W        W68908  28.115  14.788  12.481
99094W        W68909  20.682  10.219   3.151
99095W        W68910  26.517  31.560   0.865
99096W        W68911   7.826  10.654   1.305
99097W        W68912  42.994  17.683   2.704
99098W        W68913  17.102  33.393  14.287
99099W        W68914   1.735   0.875  12.539
99100W        W68915   7.746   8.845  10.942
99101W        W68916  23.682   8.397   4.258
99102W        W68917  31.132  21.534   3.360
99103W        W68918  41.949  43.374   3.849
99104W        W68919  30.971  20.076  11.465
99105W        W68920  35.363  43.351  12.046
99106W        W68921  41.326  26.658  10.920
99107W        W68922  43.482  33.456   2.898
99108W        W68923  10.711  23.653   3.714
99109W        W68924  43.803   3.304  10.418
99110W        W68925  36.494   7.399   4.346
99111W        W68926  23.992  13.730  11.899
99112W        W68927   6.285  26.552  14.767
99113W        W68928  36.369  32.916  12.019
99114W        W68929   7.282  33.976  14.412
99115W        W68930  29.012  16.173  13.960
99116W        W68931   1.951   5.801  13.967
99117W        W68932   2.748  15.724   0.263
99118W        W68933  37.399  24.646   2.406
99119W        W68934   0.393  35.523   1.252
99120W        W68935  34.021  41.492  11.082
99121W        W68936  13.784  33.402   2.268
99122W        W68937  20.725  19.633  11.915
99123W        W68938   4.402   4.748   4.195
99124W        W68939  25.028  29.465  12.970
99125W        W68940  26.504   8.212  13.819
99126W        W68941  33.546   2.423   2.771
99127W        W68942   5.867  26.677   4.807
99128W        W68943  27.010  19.770  12.895
99129W        W68944  15.656  25.657   2.253
99130W        W68945  33.591  35.526  10.511
99131W        W68946  35.071  40.880   3.317
99132W        W68947   0.450  17.304   1.398
99133W        W68948  25.557   4.266   4.821
99134W        W68949  39.959  17.119  11.883
99135W        W68950  33.039  21.600   2.299
99136W        W68951  11.238  18.722   0.810
99137W        W68952   3.884  29.649  13.936
99138W        W68953  35.009  20.546   0.253
99139W        W68954   5.312  31.094   0.813
99140W        W68955  41.005  21.136   0.473
99141W        W68956  14.692   1.313   1.359
99142W        W68957  25.514  34.916   2.698
99143W        W68958  28.584   2.253   4.685
99144W        W68959  29.054   3.722   0.277
99145W        W68960   2.771  25.655  11.900
99146W        W68961   2.359   5.789  14.951
99147W        W68962  27.971  20.675  13.990
99148W        W68963  31.988   9.333   3.801
99149W        W68964  21.655  29.440  10.967
99150W        W68965  16.672  18.183  10.420
99151W        W68966   6.231  24.520  10.936
99152W        W68967  15.652  18.160  11.930
99153W        W68968  23.047  14.222  11.538
99154W        W68969  11.679  15.629  14.844
99155W        W68970   7.671  27.964   5.148
99156W        W68971  25.143  11.296   5.285
99157W        W68972   1.839  13.142  14.346
99158W        W68973  42.455   9.198   3.242
99159W        W68974  32.089  12.654   1.910
99160W        W68975  21.219  14.161  13.961
99161W        W68976  38.903  23.667   2.396
99162W        W68977  23.519   9.335  11.383
99163W        W68978  33.456  10.340   2.684
99164W        W68979  30.584   6.800   3.672
99165W        W68980  15.180  18.701  14.280
99166W        W68981  29.093  39.557  13.886
99167W        W68982  20.266   7.370  13.344
99168W        W68983  23.725  35.046   4.834
99169W        W68984   4.425  10.848  14.353
99170W        W68985   5.196  23.047  11.574
99171W        W68986  23.592  13.830  11.513
99172W        W68987  42.816   0.258  12.390
99173W        W68988  40.424  36.979   0.276
99174W        W68989   8.362  11.768  12.912
99175W        W68990  30.586  25.040  10.538
99176W        W68991  32.966  15.599   1.302
99177W        W68992  25.980  19.717   1.436
99178W        W68993  14.206  31.404  14.408
99179W        W68994  24.016  19.539  10.519
99180W        W68995   2.916   3.764  10.557
99181W        W68996  15.268  16.284  11.593
99182W        W68997  37.858   9.242   1.870
99183W        W68998   8.833  26.079   2.739
99184W        W68999   9.166   9.322   4.654
99185W        W69000  20.251   1.960   3.819
99186W        W69001  17.230  19.148   1.851
99187W        W69002  26.700  43.789  11.942
99188W        W69003  34.034  29.604   4.770
99189W        W69004  24.054  36.422   2.873
99190W        W69005   9.762   4.235   4.329
99191W        W69006  43.951  16.652  14.808
99192W        W69007  28.445  35.497   2.319
99193W        W69008  26.694  37.421   4.792
99194W        W69009   3.370   3.444   0.836
99195W        W69010  20.593   9.652  14.282
99196W        W69011  39.876  30.617  14.346
99197W        W69012  17.784  21.727  13.323
99198W        W69013  44.924  35.599   2.698
99199W        W69014  27.953  23.627   0.763
99200W        W69015  24.623  19.757   0.731
99201W        W69016  17.173   3.948  11.045
99202W        W69017  11.287   0.870  11.510
99203W        W69018  10.239   3.438   0.327
99204W        W69019  28.956  35.956  12.998
99205W        W69020  20.103  24.184   1.931
99206W        W69021  38.418  39.833   3.636
99207W        W69022  26.593   6.425   0.782
99208W        W69023  23.042   6.297  13.059
99209W        W69024  11.824  11.697  14.359
99210W        W69025  14.220  27.060  13.382
99211W        W69026  11.788  32.993  12.412
99212W        W69027  11.211  24.541   2.413
99213W        W69028  34.080  34.040  14.505
99214W        W69029  29.645   5.769   4.296
99215W        W69030  13.248  16.651  11.396
99216W        W69031  44.269  35.363  14.504
99217W        W69032  24.040  41.916   3.146
99218W        W69033  25.208  12.279  14.997
99219W        W69034  43.998  11.133  13.522
99220W        W69035   3.407   0.322   1.370
99221W        W69036  37.941  38.415   1.451
99222W        W69037  36.437  35.549  13.919
99223W        W69038  20.692  38.387  13.959
99224W        W69039  23.997  38.842   4.307
99225W        W69040  36.392  15.317  14.792
99226W        W69041  40.027  13.116   4.616
99227W        W69042  37.944  34.875  13.809
99228W        W69043  25.621  32.574  14.386
99229W        W69044  12.718  13.120   3.772
99230W        W69045   9.290  26.183   0.908
99231W        W69046   7.375  15.705  14.781
99232W        W69047  21.123   2.271  13.389
99233W        W69048  13.311  40.514  13.322
99234W        W69049  39.959  34.544  14.514
99235W        W69050  29.587  10.851  12.505
99236W        W69051  28.617  29.581  11.464
99237W        W69052   5.805  14.606  10.942
99238W        W69053  14.301   6.203   2.876
99239W        W69054   3.362   9.395  13.011
99240W        W69055  20.708  23.641  13.995
99241W        W69056   4.701  13.750  13.917
99242W        W69057   1.904  13.793  14.983
99243W        W69058  25.667   9.710  12.865
99244W        W69059  13.230  29.436   0.334
99245W        W69060  23.173  39.468  10.917
99246W        W69061  39.320   7.724   1.226
99247W        W69062  20.676  22.201   3.206
99248W        W69063  31.071  26.568   3.183
99249W        W69064  12.117  43.870   2.793
99250W        W69065  16.214  30.978   2.394
99251W        W69066  41.328  31.405   2.336
99252W        W69067  10.251   1.463   3.727
99253W        W69068  15.618  12.807   0.456
99254W        W69069  25.081  20.697  14.429
99255W        W69070  24.219   4.836  11.867
99256W        W69071   9.732  43.498  14.971
99257W        W69072   1.909  11.714  11.070
99258W        W69073  28.468  38.530  13.461
99259W        W69074   5.298  27.025   4.282
99260W        W69075  36.492  24.628  10.950
99261W        W69076  33.925  34.118  13.414
99262W        W69077  13.235  36.903  11.609
99263W        W69078  38.953  32.413  12.043
99264W        W69079   6.838  41.368   4.655
99265W        W69080  13.682  32.975   4.786
99266W        W69081  25.144  40.012  12.554
99267W        W69082  43.340  20.163  10.894
99268W        W69083  29.987  16.723  11.063
99269W        W69084   0.958  26.000   4.291
99270W        W69085  27.024  24.007   0.275
99271W        W69086  39.056  27.463   0.295
99272W        W69087  39.334  18.219  10.487
99273W        W69088   8.289   8.793  11.557
99274W        W69089  30.426  37.975   1.840
99275W        W69090   4.827  29.624  13.864
99276W        W69091  25.162   1.269  12.552
99277W        W69092  30.109  38.556  14.005
99278W        W69093  26.544  14.725  14.984
99279W        W69094  13.199  34.400   2.671
99280W        W69095  38.523  10.767   1.825
99281W        W69096   7.772  27.996   4.149
99282W        W69097   8.788  27.669   3.640
99283W        W69098  39.963   5.414  12.478
99284W        W69099   8.840  42.294   2.250
99285W        W69100  19.682  36.070   0.262
99286W        W69101  36.553   3.924  11.061
99287W        W69102  37.970  33.501  11.857
99288W        W69103  20.569   9.153   0.865
99289W        W69104  29.002  33.058  12.472
99290W        W69105  22.035  33.390  14.006
99291W        W69106   7.386  29.166  14.760
99292W        W69107   7.733  34.493   0.298
99293W        W69108  26.656  11.145  13.810
99294W        W69109  44.427   0.282   3.733
99295W        W69110  34.040   8.749   3.257
99296W        W69111  11.305  13.779  11.507
99297W        W69112  24.119   5.412   3.807
99298W        W69113  13.237  34.442   0.301
99299W        W69114  23.986  13.788  12.420
99300W        W69115  10.219  24.006  14.393
99301W        W69116  17.158  39.898  11.424
99302W        W69117  36.882  32.897   4.302
99303W        W69118   8.283  18.064   3.725
99304W        W69119  17.127  27.121  10.053
99305W        W69120  33.390   2.884   1.765
99306W        W69121  41.918  27.640  13.321
99307W        W69122  36.039  33.589  10.622
99308W        W69123   6.222  44.864  14.953
99309W        W69124  27.641  30.033  12.969
99310W        W69125  38.830  21.059   0.912
99311W        W69126   1.463  25.104  12.479
99312W        W69127  32.065  20.632  12.874
99313W        W69128  27.673  20.174  14.343
99314W        W69129  20.266  24.722   4.250
99315W        W69130  38.550  24.166   3.790
99316W        W69131  10.140  14.324   4.649
99317W        W69132   3.297   3.885   3.845
99318W        W69133  15.105   6.787  11.561
99319W        W69134  25.163  40.425  13.382
99320W        W69135  34.420  11.293  13.353
99321W        W69136   3.411   0.968  14.514
99322W        W69137  36.591  14.774  11.999
99323W        W69138   8.284   2.289  12.533
99324W        W69139  18.163  34.527  11.495
99325W        W69140   9.273   6.202   3.202
99326W        W69141   3.907  21.712   4.353
99327W        W69142  23.143  19.534  11.024
99328W        W69143  41.969  11.291   3.160
99329W        W69144  10.662   2.951  11.464
99330W        W69145  36.871  21.148   0.818
99331W        W69146  22.553  38.945  13.812
99332W        W69147   5.263   8.287  14.803
99333W        W69148  36.852   4.337   2.284
99334W        W69149   7.263  42.982  10.535
99335W        W69150  38.920   4.798  14.765
99336W        W69151  27.473   7.890  11.992
99337W        W69152  13.613  42.993   3.754
99338W        W69153  28.609  36.071   2.778
99339W        W69154  13.613   7.288  14.951
99340W        W69155   6.718  34.369   1.784
99341W        W69156   2.804   4.729   1.776
99342W        W69157  38.474  30.983  12.996
99343W        W69158  17.767  35.444  11.474
99344W        W69159  38.031  29.610  14.817
99345W        W69160  25.042  35.062   2.179
99346W        W69161  22.147  44.791   3.677
99347W        W69162  12.843  18.254   2.400
99348W        W69163  40.041  20.210   4.281
99349W        W69164  14.290  33.523  12.432
99350W        W69165  11.847  14.336   3.644
99351W        W69166   9.344  32.906   4.210
99352W        W69167  15.161  16.252  14.480
99353W        W69168  17.210  35.965   5.310
99354W        W69169   9.234  41.002  10.997
99355W        W69170  39.962   7.402   5.305
99356W        W69171   4.875  12.205  14.831
99357W        W69172  23.648  19.554   3.307
99358W        W69173  33.923  19.068  12.064
99359W        W69174  13.746  22.148  14.456
99360W        W69175  34.390  18.122  13.399
99361W        W69176  43.766   7.705  11.085
99362W        W69177  22.513  26.524   0.365
99363W        W69178  13.664  30.454   3.263
99364W        W69179  29.070  36.018   3.146
99365W        W69180   8.734   9.365  14.890
99366W        W69181   0.260   6.370  13.317
99367W        W69182  12.826  39.340   2.867
99368W        W69183  36.452  19.177  13.002
99369W        W69184  19.708  26.100  11.112
99370W        W69185  27.583  14.168   3.157
99371W        W69186  39.490  40.910   1.225
99372W        W69187  21.067  19.215   4.837
99373W        W69188  28.112  43.815  10.405
99374W        W69189   8.271  27.082  13.832
99375W        W69190  43.445  32.538   2.710
99376W        W69191  40.932  42.946   4.256
99377W        W69192  30.621  36.849  13.364
99378W        W69193   7.758  33.525   2.851
99379W        W69194  13.672  44.432  14.826
99380W        W69195  38.886  29.962  13.483
99381W        W69196  29.572  14.631   4.229
99382W        W69197  39.949  13.342  11.411
99383W        W69198  38.429   6.712   3.842
99384W        W69199   7.808  33.487  12.429
99385W        W69200  34.093  37.978   0.953
99386W        W69201  31.513  25.157  13.816
99387W        W69202  26.200  16.129   0.824
99388W        W69203  38.548  27.032   2.681
99389W        W69204  43.311  28.047   1.752
99390W        W69205   1.429  10.205  11.004
99391W        W69206  42.425  42.964   3.146
99392W        W69207  19.230   3.255  13.833
99393W        W69208  19.745  40.452  11.556
99394W        W69209  30.526  23.157  14.958
99395W        W69210  26.016  23.050   2.729
99396W        W69211  39.414  27.635   1.325
99397W        W69212  27.660  21.059   1.413
99398W        W69213  26.033  27.641   2.313
99399W        W69214  35.428  40.434  12.435
99400W        W69215  19.250  26.005  10.559
99401W        W69216  11.821  10.752   3.175
99402W        W69217  26.962  28.668   2.407
99403W        W69218  34.570  18.722  11.968
99404W        W69219  24.017  18.612  11.039
99405W        W69220  13.276  38.359   4.306
99406W        W69221  23.653   7.182   4.184
99407W        W69222  13.749   3.225  10.982
99408W        W69223  13.741   2.230   2.296
99409W        W69224  35.392   4.736   0.782
99410W        W69225  39.412  15.608  14.984
99411W        W69226  20.581  24.609  12.562
99412W        W69227   4.232  42.811   3.850
99413W        W69228  27.980  44.006   1.215
99414W        W69229  15.165   7.274  13.511
99415W        W69230  20.743   7.401  12.877
99416W        W69231  41.398  10.358   2.751
99417W        W69232   2.841  21.218   3.346
99418W        W69233  32.448  24.713   2.372
99419W        W69234  21.197  23.510   1.263
99420W        W69235  16.172   9.152  10.937
99421W        W69236  21.194   1.390   4.130
99422W        W69237  15.725  20.638  11.558
99423W        W69238  14.229   4.381   4.763
99424W        W69239  17.688  36.571  12.905
99425W        W69240  39.496  16.202  10.474
99426W        W69241  18.278  24.601  13.353
99427W        W69242  13.155  41.537   4.310
99428W        W69243  17.637  34.463  12.358
99429W        W69244  37.493  12.669   1.212
99430W        W69245  43.862  42.820   3.329
99431W        W69246  39.417   1.479  13.865
99432W        W69247  38.821  13.642  11.500
99433W        W69248  33.485  15.271   0.405
99434W        W69249  37.907  16.641   2.721
99435W        W69250  10.243  25.610  14.840
99436W        W69251   6.870  15.735   2.752
99437W        W69252  26.167  12.619   2.674
99438W        W69253   2.380  13.257  11.962
99439W        W69254  30.565  24.511   4.307
99440W        W69255   7.353   4.241   0.422
99441W        W69256  15.752  13.268  11.586
99442W        W69257  21.638  43.458   2.797
99443W        W69258  14.601  42.351  14.889
99444W        W69259  27.946  34.468  10.606
99445W        W69260  14.167  35.580   0.301
99446W        W69261  19.549  34.958  14.980
99447W        W69262   6.923  13.305  13.336
99448W        W69263  23.061  38.960   0.374
99449W        W69264  31.544  14.123   4.742
99450W        W69265   0.377  14.592  13.977
99451W        W69266  15.278  38.907   2.703
99452W        W69267   6.860  36.410  11.548
99453W        W69268   6.779  41.466   0.743
99454W        W69269  44.330   4.789   3.376
99455W        W69270  25.103  13.262   3.248
99456W        W69271  27.629  41.377  11.979
99457W        W69272  12.135  21.134  14.452
99458W        W69273  24.575  10.744  14.391
99459W        W69274  22.071  38.427   1.345
99460W        W69275  35.431  14.620   3.273
99461W        W69276  19.673  11.676   2.676
99462W        W69277  38.453  43.767   1.831
99463W        W69278  29.452  15.307   2.295
99464W        W69279  17.654  19.141  10.411
99465W        W69280  13.246   7.293  11.414
99466W        W69281  15.096  25.047  12.823
99467W        W69282  16.567  35.379   0.849
99468W        W69283  20.118  31.553  11.018
99469W        W69284  41.490   4.863  14.869
99470W        W69285   3.234  42.992   1.883
99471W        W69286   1.967  13.815  11.012
99472W        W69287   5.921  31.646  12.026
99473W        W69288  18.191  44.322   0.758
99474W        W69289  29.618  40.501   1.363
99475W        W69290   8.318  38.877   0.804
99476W        W69291  39.810  29.115   3.861
99477W        W69292   7.907  41.291  13.460
99478W        W69293  33.910   3.745  11.473
99479W        W69294   2.731  22.094   0.925
99480W        W69295   6.263  21.090   9.968
99481W        W69296  13.810  15.699  11.425
99482W        W69297   3.320  14.732   2.855
99483W        W69298  19.158  14.625   1.246
99484W        W69299  44.344   0.968   1.347
99485W        W69300  19.098  35.947   2.881
99486W        W69301  38.440  19.115   1.902
99487W        W69302  15.603  21.245   4.669
99488W        W69303  35.416  22.718   0.381
99489W        W69304  43.784  44.864   1.360
99490W        W69305  31.532  28.022  11.945
99491W        W69306   6.900  10.803  13.021
99492W        W69307  18.189   7.825  13.952
99493W        W69308   5.256   0.465  12.457
99494W        W69309  19.090  44.379   1.289
99495W        W69310  43.326  19.131   3.222
99496W        W69311  42.887  30.491   3.336
99497W        W69312   2.271   1.892  14.785
99498W        W69313  15.193  30.151   0.735
99499W        W69314  43.874  18.671  13.402
99500W        W69315  24.016  21.671   4.303
99501W        W69316  14.116   2.419  11.038
99502W        W69317  30.536  25.635   2.313
99503W        W69318  19.534   8.389  12.503
99504W        W69319   6.241  44.003   3.180
99505W        W69320  29.016  42.977  10.974
99506W        W69321  17.636   5.306  14.479
99507W        W69322  23.661   2.822   4.725
99508W        W69323  30.012  31.932  10.564
99509W        W69324  23.543  13.762   3.332
99510W        W69325   5.842  27.165  12.573
99511W        W69326  39.967   7.293   1.717
99512W        W69327  27.592  40.385  14.871
99513W        W69328  19.089  35.962  11.525
99514W        W69329  43.999  13.620  13.999
99515W        W69330   6.758  22.206   2.280
99516W        W69331   2.905  12.337   0.447
99517W        W69332  25.551  26.135  10.548
99518W        W69333  19.072  25.038  13.890
99519W        W69334   2.455  41.297   0.766
99520W        W69335  37.891  26.178  14.500
99521W        W69336  32.113  14.287   3.688
99522W        W69337  30.056  10.783   2.245
99523W        W69338   6.400  26.481   3.675
99524W        W69339  24.221  34.968   5.166
99525W        W69340  30.959  30.468   4.794
99526W        W69341   7.826  14.599  11.960
99527W        W69342   1.815  27.983   2.863
99528W        W69343  21.612  42.377   3.186
99529W        W69344  17.243  34.608   1.260
99530W        W69345  11.828  30.089  14.030
99531W        W69346  17.192  20.033  11.082
99532W        W69347  40.865  32.091   0.752
99533W        W69348  40.490  12.800  13.481
99534W        W69349  24.005  14.201   1.890
99535W        W69350   9.843  13.308   0.405
99536W        W69351  43.964  19.063  10.613
99537W        W69352  22.714  25.995   2.684
99538W        W69353  13.805  41.483   3.226
99539W        W69354   2.918  16.715  12.015
99540W        W69355  39.027  28.940   2.814
99541W        W69356  18.720  33.611   4.254
99542W        W69357  35.567  23.587   4.116
99543W        W69358  44.973  44.503   3.688
99544W        W69359  15.218  36.842   3.864
99545W        W69360   4.268  33.542   4.641
99546W        W69361  29.099  36.426   0.788
99547W        W69362  23.003  16.137  12.041
99548W        W69363  39.826  29.099  12.933
99549W        W69364   4.268  39.476   1.724
99550W        W69365  39.376  43.920  10.452
99551W        W69366  33.423  15.308   4.805
99552W        W69367   4.300  26.958   1.823
99553W        W69368  28.980  27.583  11.556
99554W        W69369   9.344   1.839   0.408
99555W        W69370   2.966  13.654   0.350
99556W        W69371  23.703  43.362  13.913
99557W        W69372  42.339  26.550  11.553
99558W        W69373  25.065  12.336   3.170
99559W        W69374  22.684  35.878   1.286
99560W        W69375  10.278  12.126  13.903
99561W        W69376  36.930  35.541  10.631
99562W        W69377  44.947   3.316   2.358
99563W        W69378  16.724  43.924  10.513
99564W        W69379  24.692   6.235   4.171
99565W        W69380   7.374  33.008  12.847
99566W        W69381  12.650   8.197   2.335
99567W        W69382  10.321  11.168  11.126
99568W        W69383  39.363  11.633   4.176
99569W        W69384  15.643  19.177  10.939
99570W        W69385  29.466  33.579  11.857
99571W        W69386  40.344   6.726   1.876
99572W        W69387  13.784  19.051   1.258
99573W        W69388  13.214  26.629  10.593
99574W        W69389  13.764  23.145  12.568
99575W        W69390  18.156   6.259  13.838
99576W        W69391  41.451  40.954  11.495
99577W        W69392  29.644  18.690   3.833
99578W        W69393  15.248  13.255  14.275
99579W        W69394  35.998  15.764   0.291
99580W        W69395  22.519  17.751   1.832
99581W        W69396  16.294  27.562   3.644
99582W        W69397  18.274  20.128   4.253
99583W        W69398   2.863   9.726  12.829
99584W        W69399  31.075  36.842   1.288
99585W        W69400  27.011  22.644   2.775
99586W        W69401  22.029  29.506  13.350
99587W        W69402  37.388  25.676  12.939
99588W        W69403   7.697  22.567  13.466
99589W        W69404  34.105   0.480   3.707
99590W        W69405  21.699  13.664  13.898
99591W        W69406   9.676  42.495  12.851
99592W        W69407  30.918  34.999  10.484
99593W        W69408   2.721  31.609  14.939
99594W        W69409   6.881  26.516  14.392
99595W        W69410  24.043  38.404   0.896
99596W        W69411  30.651  44.411  12.553
99597W        W69412  33.883  11.637  11.388
99598W        W69413   3.408  29.068  13.861
99599W        W69414  32.053  15.708  13.412
99600W        W69415  36.389  16.742   4.728
99601W        W69416  38.008   9.884   4.750
99602W        W69417  15.587   2.872  10.954
99603W        W69418  10.738  34.577  14.885
99604W        W69419   5.194  31.919  10.131
99605W        W69420  32.012  14.629  14.767
99606W        W69421  27.956  38.842   1.811
99607W        W69422  14.246  32.943  14.493
99608W        W69423  30.919  17.175  12.570
99609W        W69424  36.963  24.062  11.003
99610W        W69425  13.608  14.599   3.754
99611W        W69426  36.019  24.115   0.823
99612W        W69427  25.646   6.912  13.860
99613W        W69428  34.023  17.775  12.036
99614W        W69429  20.570   3.382   3.709
99615W        W69430  44.766  28.142  13.976
99616W        W69431  33.110  35.862  12.485
99617W        W69432  23.989  17.781   3.313
99618W        W69433  10.181   2.919  10.541
99619W        W69434  40.429  38.450   0.878
99620W        W69435  25.043  22.017   2.882
99621W        W69436  37.836   3.276   0.367
99622W        W69437  18.706  25.522  14.390
99623W        W69438  24.150  17.257  10.583
99624W        W69439   3.842   5.419  11.610
99625W        W69440  41.795  27.509  11.441
99626W        W69441  33.457  18.788  13.310
99627W        W69442   5.431  31.612   0.728
99628W        W69443  44.471   4.232  10.539
99629W        W69444  31.428   6.728   3.711
99630W        W69445  27.053  41.531   3.301
99631W        W69446  11.647   4.719  11.044
99632W        W69447   6.683  33.904   0.851
99633W        W69448  42.472   9.362   4.722
99634W        W69449  26.109   2.836  12.021
99635W        W69450  19.282  38.408   1.754
99636W        W69451  21.747  29.656   3.708
99637W        W69452   6.777  19.040  13.376
99638W        W69453   8.243   9.770   4.773
99639W        W69454  16.279  39.032   1.410
99640W        W69455   4.403  30.101  11.940
99641W        W69456   4.749  23.095  14.411
99642W        W69457  31.969  32.033   4.128
99643W        W69458  36.944  40.445  13.920
99644W        W69459  26.566  11.347  11.950
99645W        W69460  31.449  43.917  14.502
99646W        W69461  31.958  14.591   3.871
99647W        W69462  17.733  35.552   4.786
99648W        W69463  41.314  42.899   4.645
99649W        W69464   6.324  21.647   0.868
99650W        W69465  15.595   1.335   2.284
99651W        W69466  35.031  32.508  14.805
99652W        W69467   0.352  18.221   0.734
99653W        W69468  10.663  18.561   1.301
99654W        W69469  31.974  10.650  13.319
99655W        W69470  21.635   7.814   4.124
99656W        W69471  31.103  26.566  10.452
99657W        W69472   6.875   7.734   4.665
99658W        W69473  34.586   5.783  11.108
99659W        W69474  40.942  26.164  14.794
99660W        W69475   5.892  11.829   0.335
99661W        W69476  43.476  14.264   1.377
99662W        W69477   4.822  38.821  14.808
99663W        W69478  12.652  21.092  12.578
99664W        W69479  21.235  10.197   4.741
99665W        W69480  21.628  41.913   4.799
99666W        W69481  40.311  25.710  10.619
99667W        W69482  29.432  41.855   0.291
99668W        W69483  15.326  17.657   2.308
99669W        W69484   1.338   8.730   0.332
99670W        W69485  25.158  30.425  11.391
99671W        W69486   8.679  39.002  14.777
99672W        W69487  12.754  10.676  13.837
99673W        W69488  42.923  22.082  14.421
99674W        W69489  15.687  26.514  10.571
99675W        W69490   7.348  25.661  11.377
99676W        W69491  23.005  44.922   2.370
99677W        W69492  27.172  20.726  12.945
99678W        W69493   6.328  44.421   4.350
99679W        W69494  17.099  20.571  11.976
99680W        W69495  43.325  39.332   0.292
99681W        W69496  20.222   6.385   3.870
99682W        W69497  31.975  40.511  10.959
99683W        W69498  25.143  26.063  12.884
99684W        W69499   3.861   4.798   3.324
99685W        W69500   8.216  13.836   2.380
99686W        W69501  24.684   8.376  13.470
99687W        W69502  28.091  41.341   5.247
99688W        W69503  40.386  26.127   4.824
99689W        W69504   1.862  41.031   3.750
99690W        W69505   2.318  43.781   4.229
99691W        W69506  19.055  41.351  13.930
99692W        W69507   5.825  40.951   4.773
99693W        W69508  22.072  24.160   3.369
99694W        W69509  34.397  31.112  12.958
99695W        W69510   1.341  26.490  12.374
99696W        W69511  35.568  28.110  14.857
99697W        W69512  22.659  24.105  11.058
99698W        W69513  16.247  15.093   1.346
99699W        W69514  17.268  14.789  12.411
99700W        W69515  19.575  26.122   1.363
99701W        W69516  15.604  25.564  10.455
99702W        W69517   6.402   9.673   4.647
99703W        W69518  19.165  30.418   4.702
99704W        W69519  22.548  20.712  12.513
99705W        W69520  27.599  14.111  10.555
99706W        W69521  30.594  21.592   3.773
99707W        W69522  24.230  32.021   0.825
99708W        W69523  19.616  19.144  13.849
99709W        W69524   9.652  39.811   4.714
99710W        W69525  44.351  30.581   9.985
99711W        W69526  14.119  29.140  14.285
99712W        W69527  29.635   2.438   4.826
99713W        W69528  19.103  22.651   4.293
99714W        W69529  17.619  32.893  12.914
99715W        W69530  31.501   3.303   4.230
99716W        W69531  42.962  38.825  14.423
99717W        W69532  33.493  32.624   1.314
99718W        W69533   9.780  44.365   1.877
99719W        W69534  10.694  42.518   0.757
99720W        W69535   5.818   5.739  13.960
99721W        W69536   6.224  15.609   4.735
99722W        W69537  40.806   0.319  12.960
99723W        W69538  28.004  13.798  14.904
99724W        W69539   4.895  16.572   1.280
99725W        W69540  28.177  42.857  12.505
99726W        W69541   9.730  31.027   0.760
99727W        W69542  39.991  11.698   0.258
99728W        W69543  18.753  15.721  11.460
99729W        W69544   0.957  14.137   2.248
99730W        W69545   9.172  10.315  14.376
99731W        W69546  23.127  11.298  11.606
99732W        W69547   9.365  29.114   1.386
99733W        W69548  10.807  37.510   3.851
99734W        W69549  44.994  28.643  13.833
99735W        W69550  14.257  21.031  14.860
99736W        W69551  16.580  39.363  13.032
99737W        W69552  17.169   9.244   0.798
99738W        W69553  24.674  20.187  14.440
99739W        W69554  28.585   9.815   3.325
99740W        W69555  23.506  21.051   4.132
99741W        W69556  36.060  33.061   2.254
99742W        W69557  26.957   8.714   0.386
99743W        W69558  14.816  27.060  10.507
99744W        W69559  11.835  26.039  10.919
99745W        W69560   2.407  16.276  12.032
99746W        W69561   5.213  26.190  11.918
99747W        W69562  19.555  11.169   2.810
99748W        W69563  37.058  23.999  14.277
99749W        W69564  10.322  18.557  13.407
99750W        W69565  13.664  16.153   1.301
99751W        W69566  24.135  42.319   4.809
99752W        W69567  26.053  29.068  13.448
99753W        W69568  38.870  35.092   3.381
99754W        W69569  11.674  26.118   4.235
99755W        W69570  21.513   7.354   1.250
99756W        W69571   2.818  13.637  12.829
99757W        W69572  39.873  23.056   0.264
99758W        W69573  30.443  41.039   4.243
99759W        W69574  36.030  12.730   3.796
99760W        W69575  29.617  19.211  14.377
99761W        W69576  43.940   9.266  11.964
99762W        W69577   8.830  14.629  14.031
99763W        W69578  20.654  18.591   2.730
99764W        W69579  42.913  15.756   1.893
99765W        W69580   6.743  27.486  13.906
99766W        W69581  14.154  44.470  14.970
99767W        W69582  14.315  24.663   2.744
99768W        W69583  41.436  22.021  10.642
99769W        W69584  22.595  21.150  11.446
99770W        W69585  25.004  32.893   3.353
99771W        W69586  15.704  25.182  11.920
99772W        W69587  36.916  31.044  11.920
99773W        W69588  37.348  23.062   3.709
99774W        W69589  42.520  26.540   2.766
99775W        W69590  19.106  44.854   4.825
99776W        W69591  22.712  41.361   3.744
99777W        W69592  41.449  28.139   0.361
99778W        W69593  37.351  31.636   0.866
99779W        W69594  25.149   6.728   2.715
99780W        W69595  19.766   9.687  12.909
99781W        W69596  15.095  10.847  11.427
99782W        W69597  38.546  18.545   2.292
99783W        W69598  28.441  37.446  12.014
99784W        W69599  30.148  33.090  14.898
99785W        W69600  24.552   7.752  12.975
99786W        W69601  37.965  27.991  10.896
99787W        W69602  41.811  27.646   0.403
99788W        W69603  19.151   0.888  10.426
99789W        W69604   1.372  30.593  12.035
99790W        W69605  39.480  11.811  10.042
99791W        W69606  37.429  26.546   2.766
99792W        W69607   3.219  17.275   4.334
99793W        W69608  17.183  39.881  10.600
99794W        W69609  19.090  42.859   1.798
99795W        W69610   5.845   5.776   1.707
99796W        W69611  28.609  12.637   1.782
99797W        W69612  35.058  20.757  14.371
99798W        W69613  24.188  44.883   2.877
99799W        W69614  16.698  28.012  13.011
99800W        W69615  11.233  23.236   3.755
99801W        W69616  12.782  29.139  12.070
99802W        W69617  41.801  12.656  13.448
99803W        W69618  28.115  42.946   0.817
99804W        W69619  33.383  18.113   0.474
99805W        W69620  44.468  15.646   0.284
99806W        W69621  17.165  28.959   1.748
99807W        W69622  36.978  43.344  12.992
99808W        W69623  39.433  19.070   2.824
99809W        W69624  41.527   5.705   2.356
99810W        W69625   5.422  18.734  10.444
99811W        W69626  36.882  17.609  11.872
99812W        W69627  38.034  15.792   1.374
99813W        W69628  36.450  35.064  14.342
99814W        W69629   3.354  25.060  11.871
99815W        W69630  20.149  29.114  14.908
99816W        W69631  36.933  42.981  14.805
99817W        W69632  28.588  19.094   1.707
99818W        W69633  20.554  38.948   1.220
99819W        W69634   3.390  36.352  13.888
99820W        W69635   4.390  24.079   2.807
99821W        W69636  30.621   3.928   3.851
99822W        W69637  27.474  35.512   3.868
99823W        W69638  38.529  40.538   3.301
99824W        W69639   0.925  42.020   1.863
99825W        W69640  24.670  39.478   2.282
99826W        W69641   2.358  22.523  12.883
99827W        W69642  22.571  26.575  13.870
99828W        W69643  22.032  38.049  10.626
99829W        W69644  11.278   0.370   4.725
99830W        W69645  13.742  23.221  11.898
99831W        W69646  34.509  18.164   1.391
99832W        W69647  18.146   2.278   1.791
99833W        W69648  33.499  21.113  11.586
99834W        W69649  31.425  29.587  11.974
99835W        W69650   3.381  39.056   1.859
99836W        W69651  12.804  41.977  10.455
99837W        W69652  28.064   9.200  12.872
99838W        W69653  23.203  30.631  10.430
99839W        W69654  23.159  29.091   4.136
99840W        W69655  27.480  36.464  11.012
99841W        W69656  39.503  20.643  14.802
99842W        W69657  42.778  27.095   3.793
99843W        W69658  31.105  38.470   0.836
99844W        W69659  41.493   8.753  13.495
99845W        W69660  37.983  35.923   0.421
99846W        W69661  31.629   3.358   2.773
99847W        W69662  23.174  32.990   3.298
99848W        W69663  24.499   6.307  13.462
99849W        W69664   7.417  17.265   4.289
99850W        W69665  25.476  18.087   2.225
99851W        W69666   5.218  33.067   4.798
99852W        W69667  34.002  43.840   2.389
99853W        W69668   6.274  31.985   5.231
99854W        W69669  13.151  33.012   4.793
99855W        W69670  29.102  14.281  10.515
99856W        W69671   1.910  11.700   1.435
99857W        W69672   9.696  39.529  10.489
99858W        W69673  20.093  32.461   2.357
99859W        W69674  35.560  15.321  12.090
99860W        W69675  30.066  37.499  14.931
99861W        W69676   6.374  31.471  12.359
99862W        W69677  15.786  16.775   1.921
99863W        W69678  18.548  25.045   3.658
99864W        W69679  30.924  32.413  10.491
99865W        W69680  32.037  34.613  14.974
99866W        W69681  10.692  38.931  14.975
99867W        W69682  34.483  43.961   4.183
99868W        W69683  26.049  38.503   3.701
99869W        W69684   1.456   4.247  13.847
99870W        W69685   2.365  36.898   2.891
99871W        W69686  23.637   0.870   3.683
99872W        W69687  44.922  20.532  11.378
99873W        W69688  26.179  36.866  13.502
99874W        W69689  19.224   2.808  11.106
99875W        W69690   1.928  26.586   0.458
99876W        W69691  38.480  29.618  11.053
99877W        W69692  30.914  39.033  10.441
99878W        W69693  26.647  30.451   0.905
99879W        W69694  30.029  36.493   0.265
99880W        W69695  22.141   6.253  13.448
99881W        W69696   7.244  10.696   1.214
99882W        W69697  40.825  16.798   1.856
99883W        W69698  42.967   8.826  12.855
99884W        W69699  31.412  18.741   0.359
99885W        W69700  25.098  35.040  13.881
99886W        W69701  11.276   9.657   3.760
99887W        W69702   4.286  38.496   3.369
99888W        W69703  41.006  15.284  12.512
99889W        W69704  32.011  36.556  11.125
99890W        W69705  39.993  44.809   4.180
99891W        W69706  24.717  33.527  12.391
99892W        W69707  12.193  23.157  12.442
99893W        W69708  23.169  38.931   4.616
99894W        W69709  17.222  11.361  11.041
99895W        W69710  27.981   1.338   2.278
99896W        W69711  11.726   8.381   3.285
99897W        W69712  17.714  13.145  12.497
99898W        W69713  27.616  14.271  13.921
99899W        W69714  17.577  16.679  14.950
99900W        W69715  32.591  41.453  11.026
99901W        W69716  40.813  20.219  11.464
99902W        W69717   8.837  37.938  14.888
99903W        W69718   1.947  29.147   1.898
99904W        W69719  35.901  35.380  12.071
99905W        W69720  11.685  39.383  13.911
99906W        W69721  26.978  24.669   1.434
99907W        W69722  43.514  41.512   0.733
99908W        W69723  23.722  37.383   3.213
99909W        W69724  39.319  17.156  14.415
99910W        W69725  40.314  36.973   0.951
99911W        W69726   6.363  21.566   2.187
99912W        W69727  23.236  23.666  10.461
99913W        W69728  13.175  32.626  13.892
99914W        W69729   4.392   8.689  12.885
99915W        W69730   3.833  41.802  12.981
99916W        W69731  37.064  43.346  11.590
99917W        W69732   9.346  40.948   0.417
99918W        W69733  21.717  32.586  10.563
99919W        W69734  32.449  27.595  11.895
99920W        W69735  27.508  15.734  12.025
99921W        W69736   2.274  31.997   3.682
99922W        W69737  12.131  41.346  12.001
99923W        W69738  12.819  33.553   4.633
99924W        W69739  35.925  12.730   2.682
99925W        W69740  14.135   7.849  13.044
99926W        W69741  31.076  28.947  14.764
99927W        W69742   2.461  33.090   0.830
99928W        W69743   8.885  36.053  10.120
99929W        W69744   7.784  40.984   1.806
99930W        W69745  35.048  29.650  12.961
99931W        W69746  22.222  10.854   2.251
99932W        W69747  22.211  16.714   0.449
99933W        W69748   2.925  35.992   4.633
99934W        W69749  14.602  21.564   4.641
99935W        W69750   4.838  20.700  10.069
99936W        W69751   9.386   9.853   2.283
99937W        W69752  23.203  35.962   3.357
99938W        W69753  42.775  26.525  10.464
99939W        W69754  44.382  27.079   0.876
99940W        W69755   2.822  44.986  13.801
99941W        W69756   5.752  38.388   0.380
99942W        W69757  35.058  13.741  11.100
99943W        W69758   5.348  13.229   3.715
99944W        W69759  33.095  20.106   2.302
99945W        W69760  35.536  11.790   1.225
99946W        W69761  31.930  27.692  10.606
99947W        W69762  26.645  32.440  14.282
99948W        W69763  36.057  10.298   3.240
99949W        W69764  20.667  26.538   3.179
99950W        W69765  40.886  33.119  13.353
99951W        W69766  34.905  32.459  13.020
99952W        W69767  10.657  40.312   3.672
99953W        W69768  29.597  42.023   0.839
99954W        W69769  20.032  25.212   2.207
99955W        W69770  11.811  27.597   4.323
99956W        W69771   4.287  16.581  11.387
99957W        W69772  17.721  21.549   0.453
99958W        W69773   7.197  30.627   4.150
99959W        W69774  27.482  42.472  11.903
99960W        W69775  28.963  41.367   2.217
99961W        W69776  38.417  43.767   0.420
99962W        W69777  20.151  12.292  12.877
99963W        W69778   8.220  10.751   0.251
99964W        W69779   6.884  27.678  12.903
99965W        W69780  30.158  30.015  14.291
99966W        W69781  30.554  44.395  11.949
99967W        W69782  14.132   5.782   2.369
99968W        W69783  10.683  26.469  11.060
99969W        W69784  12.227   6.283   1.721
99970W        W69785   0.347   2.312   3.703
99971W        W69786  36.467  23.496  10.942
99972W        W69787   8.844  28.508   0.916
99973W        W69788  33.496  28.522  11.443
99974W        W69789  12.653   7.816   4.809
99975W        W69790  13.233  40.429   2.283
99976W        W69791   2.726  33.576  12.468
99977W        W69792  38.964  11.717   0.322
99978W        W69793  18.253  39.861   3.856
99979W        W69794  41.825  37.892  14.785
99980W        W69795  19.142   5.282   4.273
99981W        W69796  10.235  28.538  13.340
99982W        W69797   2.364   7.805  10.949
99983W        W69798   4.386  35.855  13.504
99984W        W69799   8.269  22.683   0.323
99985W        W69800   5.419   1.819  12.919
99986W        W69801  17.203  22.590   1.392
99987W        W69802  32.487   4.724  14.447
99988W        W69803   8.795  32.534  12.560
99989W        W69804  17.086  34.389  10.632
99990W        W69805  29.997  24.569  10.501
99991W        W69806  25.596  15.718  14.442
99992W        W69807  41.044  36.936   2.198
99993W        W69808  43.874  28.050  12.411
99994W        W69809  17.181   8.405   3.697
99995W        W69810  24.564  16.596  13.919
99996W        W69811  44.298   6.861   1.929
99997W        W69812   6.285   8.337   0.372
99998W        W69813  25.601  11.194   4.795
99999W        W69814  30.492  34.420  13.323
    0W        W69815  16.786   7.258   4.776
    1W        W69816   5.813  12.279   3.662
    2W        W69817  32.398   6.395  11.603
    3W        W69818  11.805  25.151  13.947
    4W        W69819  33.490   0.927   0.457
    5W        W69820  25.712  16.763  12.056
    6W        W69821   0.974  40.333   0.860
    7W        W69822  34.454   8.840  14.318
    8W        W69823   5.283  19.053  13.985
    9W        W69824  27.464   9.198   3.748
   10W        W69825   1.404   7.848   2.709
   11W        W69826   2.783   8.817  11.064
   12W        W69827  18.641  33.408   5.105
   13W        W69828  18.060   9.751   0.871
   14W        W69829  25.471  34.575   9.951
   15W        W69830  18.050  27.942   0.473
   16W        W69831  13.638  41.497   3.809
   17W        W69832  33.444  15.597   4.187
   18W        W69833  23.588  37.912  13.841
   19W        W69834   5.911   7.672  11.570
   20W        W69835   4.887  38.446   1.300
   21W        W69836  29.099  15.321  13.461
   22W        W69837  39.934   3.397   3.366
   23W        W69838  41.505   6.834  11.574
   24W        W69839   9.738  12.137   1.333
   25W        W69840  43.494   1.466   1.357
   26W        W69841  22.586  16.110  14.926
   27W        W69842   1.319  13.122   3.169
   28W        W69843  18.750  12.354  12.976
   29W        W69844  15.606  12.743  13.979
   30W        W69845  30.128  36.906   2.869
   31W        W69846  20.038  14.604   1.707
   32W        W69847  29.168  23.518  14.878
   33W        W69848   7.285  10.657  12.511
   34W        W69849   5.900  18.784  14.515
   35W        W69850  35.051  28.133  14.298
   36W        W69851   6.801  16.139   1.288
   37W        W69852  40.988   7.190   9.591
   38W        W69853  39.817   8.244   0.820
   39W        W69854   6.402  17.182  12.857
   40W        W69855  23.094  12.181   4.295
   41W        W69856   1.303  27.052  13.336
   42W        W69857  14.711  16.216  12.369
   43W        W69858  23.497   8.323   1.767
   44W        W69859  33.499  24.222   1.740
   45W        W69860  28.055  25.043  12.837
   46W        W69861  10.354  38.867   1.715
   47W        W69862  26.686  23.515  14.427
   48W        W69863   6.315   3.795  13.364
   49W        W69864  39.995   4.790   3.689
   50W        W69865  34.118  37.572  13.343
   51W        W69866  19.535  24.706   2.271
   52W        W69867   4.867   6.197   1.387
   53W        W69868   9.304   8.768   4.146
   54W        W69869  33.459   8.314   2.719
   55W        W69870  11.173   4.338   3.152
   56W        W69871  15.577   7.836   0.331
   57W        W69872   5.833   2.267   1.425
   58W        W69873  23.195  32.395  13.528
   59W        W69874  33.583  29.502  12.503
   60W        W69875  21.744  30.643  10.477
   61W        W69876  28.155   2.909   3.361
   62W        W69877   9.749  38.916   1.294
   63W        W69878  30.449  31.533  11.939
   64W        W69879   8.793  13.779  13.940
   65W        W69880  34.921  31.606  10.593
   66W        W69881   3.866  17.156  13.428
   67W        W69882  15.675  17.209   4.809
   68W        W69883   6.413  17.609  13.829
   69W        W69884   1.905  17.567   0.420
   70W        W69885  31.016  11.127  13.525
   71W        W69886  12.234  18.689   3.768
   72W        W69887  43.768   1.766   4.196
   73W        W69888  22.023  29.459   1.335
   74W        W69889   4.267  36.562  10.442
   75W        W69890  37.877  11.763   0.464
   76W        W69891  18.090  10.153   2.900
   77W        W69892  42.862   6.353   3.769
   78W        W69893   0.283  22.241   0.299
   79W        W69894  32.108  15.121  11.568
   80W        W69895  27.195  41.320   1.786
   81W        W69896  30.505  10.197   1.435
   82W        W69897  44.369  13.760   1.221
   83W        W69898  15.096  27.621  14.980
   84W        W69899  29.481   0.895   2.398
   85W        W69900   8.746  39.954  10.449
   86W        W69901  23.614  40.487  14.456
   87W        W69902  11.685  23.063  12.033
   88W        W69903  37.450  33.032  11.497
   89W        W69904  17.671   2.791  12.347
   90W        W69905  38.958  22.673   0.295
   91W        W69906  43.368  33.564   1.912
   92W        W69907  26.456  32.427   2.741
   93W        W69908  35.882   8.217   3.649
   94W        W69909  37.477  23.554  14.389
   95W        W69910  29.920  23.571   2.731
   96W        W69911  21.038   4.753   2.797
   97W        W69912  41.415   7.390  11.530
   98W        W69913  27.065  41.970   2.848
   99W        W69914  24.724   7.840  14.984
  100W        W69915  12.682  43.908   2.769
  101W        W69916  28.101  15.667  13.534
  102W        W69917  42.945   2.794  12.929
  103W        W69918   4.205  14.726   2.722
  104W        W69919  32.121  25.612   2.272
  105W        W69920  39.348  20.525  10.928
  106W        W69921  30.618  19.276  13.001
  107W        W69922   4.814  33.981  11.936
  108W        W69923  33.995  19.226  11.083
  109W        W69924  44.492  40.490  14.493
  110W        W69925  10.315  41.850  14.406
  111W        W69926  36.451  43.017   2.303
  112W        W69927  13.637  38.972  14.809
  113W        W69928  33.589   6.417  13.444
  114W        W69929  22.116   2.449  13.349
  115W        W69930  10.867  32.562   1.344
  116W        W69931  12.650   2.780  12.841
  117W        W69932   9.222   7.182   3.685
  118W        W69933  22.546  40.857  13.824
  119W        W69934  34.428  43.486   1.799
  120W        W69935  11.841  23.576   3.216
  121W        W69936   4.942  11.683   2.243
  122W        W69937  25.089  16.710  14.454
  123W        W69938  12.685  15.114   1.306
  124W        W69939   2.835  37.044   0.965
  125W        W69940  12.181  14.107  14.302
  126W        W69941  40.358  20.586   1.261
  127W        W69942  10.855  11.284   1.869
  128W        W69943  11.308  39.918   1.431
  129W        W69944  21.066   6.203   0.860
  130W        W69945  19.177  32.974  13.852
  131W        W69946   8.712  17.588  11.857
  132W        W69947  33.539  15.266  14.966
  133W        W69948  30.497   4.853  11.995
  134W        W69949  21.578  12.738  14.937
  135W        W69950   0.482  29.090  14.500
  136W        W69951  14.190   6.735  13.942
  137W        W69952  40.852  26.578  13.358
  138W        W69953   6.417   2.299   2.899
  139W        W69954  22.746  38.336  14.828
  140W        W69955  16.192  17.650   0.314
  141W        W69956  26.168  23.171   4.817
  142W        W69957  28.089  13.721   3.203
  143W        W69958   1.766   6.230  14.026
  144W        W69959  25.638  37.533  11.969
  145W        W69960  29.092  15.234   0.345
  146W        W69961  27.594  23.225  12.920
  147W        W69962   3.335  13.825  12.864
  148W        W69963   3.238  23.138   0.248
  149W        W69964  33.590  39.814  11.940
  150W        W69965  40.410   6.195  12.431
  151W        W69966   1.402  22.155   1.765
  152W        W69967  11.716  32.046  12.579
  153W        W69968  30.081  24.576   0.877
  154W        W69969   1.915   5.405  10.626
  155W        W69970  14.664   1.756  13.433
  156W        W69971  43.428  14.661  12.839
  157W        W69972  42.994   6.389   1.243
  158W        W69973  10.320  42.464  13.495
  159W        W69974  24.635  35.452   0.448
  160W        W69975   1.816   9.842   1.269
  161W        W69976  44.302   3.936   1.788
  162W        W69977  20.685   0.311   2.318
  163W        W69978   3.718  42.887   4.132
  164W        W69979   7.757  17.113   4.669
  165W        W69980  28.167   5.213  11.913
  166W        W69981  29.647  17.679   2.192
  167W        W69982   4.282  41.974   0.740
  168W        W69983   9.677   8.712  11.527
  169W        W69984  39.552  42.942  11.463
  170W        W69985  15.586   7.356   3.200
  171W        W69986  19.709  30.152   2.240
  172W        W69987   6.235  23.607   3.152
  173W        W69988  18.170  14.691  14.981
  174W        W69989  33.469  24.673  12.872
  175W        W69990   1.445  41.864   1.286
  176W        W69991  43.998  35.425  12.945
  177W        W69992  10.216  43.810  11.884
  178W        W69993   4.807  24.586   3.737
  179W        W69994  11.133   2.824   2.419
  180W        W69995   2.285  20.032  11.045
  181W        W69996  19.542  20.605   0.284
  182W        W69997  20.149   5.743  14.821
  183W        W69998  28.105  25.471  14.383
  184W        W69999  31.643  28.445  14.510
  185W        W70000   5.796  25.674  13.806
  186W        W70001  30.019  14.590  12.888
  187W        W70002  35.449   5.711  14.425
  188W        W70003  13.817  31.470  12.393
  189W        W70004  41.801  13.686   1.816
  190W        W70005  36.521  36.052  14.315
  191W        W70006  39.016  34.033  14.877
  192W        W70007  43.421  27.508   4.192
  193W        W70008  39.043   7.345   1.296
  194W        W70009  40.389  28.153   3.742
  195W        W70010  33.921  15.787  10.905
  196W        W70011  29.479   5.805   0.347
  197W        W70012  28.004  27.512  14.500
  198W        W70013  22.188  26.461  13.501
  199W        W70014  22.584  13.819   2.286
  200W        W70015  42.939  17.300   2.710
  201W        W70016  31.106  23.039   4.270
  202W        W70017  13.304   4.265  14.853
  203W        W70018   5.807  33.549   0.467
  204W        W70019  24.697   4.267   2.703
  205W        W70020   4.705  44.448  14.926
  206W        W70021  12.322  35.465   3.637
  207W        W70022  35.436  37.569   2.849
  208W        W70023   0.954  22.119  13.407
  209W        W70024  12.293  14.675  12.830
  210W        W70025   8.748  43.413   1.303
  211W        W70026   9.205  36.513   4.338
  212W        W70027  33.445  11.315   4.741
  213W        W70028  31.063  24.086   4.833
  214W        W70029   6.394  42.942  13.467
  215W        W70030  17.097  41.836   3.351
  216W        W70031  26.140  39.027  11.991
  217W        W70032  30.937   3.284  10.156
  218W        W70033  36.593  30.431  10.582
  219W        W70034   0.341  25.086   3.766
  220W        W70035  14.313  18.256  13.849
  221W        W70036   0.840  42.997   5.280
  222W        W70037  13.828  25.164   3.629
  223W        W70038  41.371  26.542   1.847
  224W        W70039  24.695  34.430  12.454
  225W        W70040  12.345  11.141   3.190
  226W        W70041   2.728  32.020   4.190
  227W        W70042  12.767  30.648  13.366
  228W        W70043  29.523  41.368  13.412
  229W        W70044  19.254  38.913  10.919
  230W        W70045  15.261   2.865  14.364
  231W        W70046  30.638  30.637  12.011
  232W        W70047  22.524   9.229  12.946
  233W        W70048  38.983  37.427  14.357
  234W        W70049   4.313  22.021   3.194
  235W        W70050   1.370  17.304   0.825
  236W        W70051  37.405  35.412   2.202
  237W        W70052  13.714   2.423   2.787
  238W        W70053   4.327   6.859  11.865
  239W        W70054   4.828  27.654   1.381
  240W        W70055  15.133  28.950   2.377
  241W        W70056   2.739  36.497   0.287
  242W        W70057   7.325  10.140  10.605
  243W        W70058   8.679  42.848  10.956
  244W        W70059   4.279   0.761   4.298
  245W        W70060  13.697  36.417  10.486
  246W        W70061  12.358  30.556  10.887
  247W        W70062  18.100   4.923  12.527
  248W        W70063  17.773  25.487  12.350
  249W        W70064  30.581  11.135  12.020
  250W        W70065  17.693  38.031   4.735
  251W        W70066  25.099  35.423  14.474
  252W        W70067   1.297  44.394   1.278
  253W        W70068  19.158  12.827   4.167
  254W        W70069   5.363  18.121  12.484
  255W        W70070  41.880  20.599  13.964
  256W        W70071  12.263  10.733  13.997
  257W        W70072  23.724   8.800  14.449
  258W        W70073  43.432  29.562   2.771
  259W        W70074  19.695  28.437  13.412
  260W        W70075  29.045  14.695   1.284
  261W        W70076  17.074   5.194   0.466
  262W        W70077  42.483  41.350   0.311
  263W        W70078  37.955  26.989  11.090
  264W        W70079  32.038  23.058  11.023
  265W        W70080  43.404   9.315  14.310
  266W        W70081  33.471  38.412  12.911
  267W        W70082  22.015  36.079   4.213
  268W        W70083  23.567  25.014  13.489
  269W        W70084  41.916  41.954   2.758
  270W        W70085  25.654   4.327   1.407
  271W        W70086  21.239  25.015  12.878
  272W        W70087  23.624  32.090  11.110
  273W        W70088   6.833  22.570   3.200
  274W        W70089  24.973   7.808   3.728
  275W        W70090  31.965  33.607  13.892
  276W        W70091  39.355  27.951   0.885
  277W        W70092  33.388  39.951  14.830
  278W        W70093   5.934  17.126  11.010
  279W        W70094   3.258   6.866   3.851
  280W        W70095  32.131   8.398   2.356
  281W        W70096  43.790   8.179  12.540
  282W        W70097  11.738  24.153   4.179
  283W        W70098   3.441  12.307  11.882
  284W        W70099  33.103  44.315  14.807
  285W        W70100  32.009  32.970   1.417
  286W        W70101  38.440  23.169   4.333
  287W        W70102  29.542   2.784   0.308
  288W        W70103   8.847  24.480   1.838
  289W        W70104  43.973   6.803   3.725
  290W        W70105   4.228  44.967   0.250
  291W        W70106  20.205  42.291   2.758
  292W        W70107  23.176  29.033  13.433
  293W        W70108   2.776  22.252   3.352
  294W        W70109  44.399   5.391   3.158
  295W        W70110  15.684  31.900  10.105
  296W        W70111   1.312  41.318  10.896
  297W        W70112  26.642   7.262  10.627
  298W        W70113  41.866  44.500   5.243
  299W        W70114  15.280   8.736   0.445
  300W        W70115   5.855  29.636   3.793
  301W        W70116  21.147   7.205  12.365
  302W        W70117  35.926  10.254  13.330
  303W        W70118  35.432  13.185   3.343
  304W        W70119  12.621   1.898  12.986
  305W        W70120  25.084  30.520   0.366
  306W        W70121  30.918  28.969  10.138
  307W        W70122  27.026  10.670   2.180
  308W        W70123  31.025  25.481   2.415
  309W        W70124  30.554  26.652   4.785
  310W        W70125  39.943  23.707  12.456
  311W        W70126   8.258  31.140  14.332
  312W        W70127   4.369  14.323  12.928
  313W        W70128  26.679  25.496  13.442
  314W        W70129  42.005  11.323  11.897
  315W        W70130  33.486  22.194  14.450
  316W        W70131  16.257   9.360   4.831
  317W        W70132  28.025  43.844  14.823
  318W        W70133  16.804  23.998  14.768
  319W        W70134   6.786  12.289  13.912
  320W        W70135  21.109  14.697   0.813
  321W        W70136  34.445  38.562   2.304
  322W        W70137  11.260   8.833   0.824
  323W        W70138  16.718  36.508  12.006
  324W        W70139  19.193  43.849  10.020
  325W        W70140  25.161  18.766   4.792
  326W        W70141  18.632  35.034   1.212
  327W        W70142   8.681  16.164  14.367
  328W        W70143  11.833  11.371  11.578
  329W        W70144  19.183  24.601  13.890
  330W        W70145  22.135  32.569  14.851
  331W        W70146  33.031   4.212  14.283
  332W        W70147   4.274  12.780  14.311
  333W        W70148  38.988  12.176  12.406
  334W        W70149  17.635  36.843   2.797
  335W        W70150   5.789  19.599  12.382
  336W        W70151  26.207  26.979  12.529
  337W        W70152   4.439  20.229  14.873
  338W        W70153  30.414  17.240   4.704
  339W        W70154   4.411  43.891  10.407
  340W        W70155  23.617  42.375  14.412
  341W        W70156  35.082  34.985  10.070
  342W        W70157  30.160  41.817  14.423
  343W        W70158  16.214  34.881  10.967
  344W        W70159  14.823   2.743   1.356
  345W        W70160  28.123  38.484  13.915
  346W        W70161  30.909  38.350  14.355
  347W        W70162  17.070  40.382  13.061
  348W        W70163  19.739  12.805  14.865
  349W        W70164  26.606  29.652   3.338
  350W        W70165  25.503  36.841  11.904
  351W        W70166  18.710  32.061  12.852
  352W        W70167  31.448  26.959  10.467
  353W        W70168  26.527  23.037   2.682
  354W        W70169  41.508   2.371   2.698
  355W        W70170  43.852  17.705  10.919
  356W        W70171  13.790  19.715  13.359
  357W        W70172  42.864   6.850   2.237
  358W        W70173  44.757  12.301   4.158
  359W        W70174  27.686  21.560   4.301
  360W        W70175  12.263  29.974   1.303
  361W        W70176  38.068  24.029   4.690
  362W        W70177   7.359  14.125   1.723
  363W        W70178  34.047  13.248  11.990
  364W        W70179  13.141  42.944  14.923
  365W        W70180  28.952  21.531  10.542
  366W        W70181  24.675   0.793  10.614
  367W        W70182  37.964   6.367   0.452
  368W        W70183  28.149  20.738  13.466
  369W        W70184   1.263  10.765  13.858
  370W        W70185  19.239  24.082   2.317
  371W        W70186  15.626  39.426  13.809
  372W        W70187  21.197   5.919   2.183
  373W        W70188  34.924  38.960   3.856
  374W        W70189   9.237  14.238   2.187
  375W        W70190   5.376  15.789  14.821
  376W        W70191  14.111  43.986  14.764
  377W        W70192  18.570  10.248   4.349
  378W        W70193  18.158  14.144   2.326
  379W        W70194  36.480  44.972   0.477
  380W        W70195  26.584  29.539  11.896
  381W        W70196  37.353  10.749  14.884
  382W        W70197  38.458   9.766   1.863
  383W        W70198  11.352  28.576   1.750
  384W        W70199  27.606   5.732  13.967
  385W        W70200  23.025  30.070  14.898
  386W        W70201  12.218   6.335   3.825
  387W        W70202  24.645  32.472  14.017
  388W        W70203  33.120  34.470  12.844
  389W        W70204  16.631  33.418   2.793
  390W        W70205  23.208  26.633   4.601
  391W        W70206  19.095   2.385  12.378
  392W        W70207  37.347  24.515   1.818
  393W        W70208  36.430  34.614  10.919
  394W        W70209   4.735  12.791  11.017
  395W        W70210  43.884  12.208  13.459
  396W        W70211  43.513  33.574  11.055
  397W        W70212  41.478  43.433   3.284
  398W        W70213  29.624  42.975   0.811
  399W        W70214  40.013  11.278   3.328
  400W        W70215  37.079   6.770   3.263
  401W        W70216  15.258   1.759   3.745
  402W        W70217  37.031   2.879   3.206
  403W        W70218  42.456  34.905  10.483
  404W        W70219  32.394  27.532   3.352
  405W        W70220  32.556  27.667   2.187
  406W        W70221  30.058  18.101  12.488
  407W        W70222  20.626  19.202  14.860
  408W        W70223   7.674  20.718  12.034
  409W        W70224  30.577   5.429   3.151
  410W        W70225  43.912   6.723   1.384
  411W        W70226   6.881   1.894  13.328
  412W        W70227  38.561  22.569   0.449
  413W        W70228   4.869  14.245   4.113
  414W        W70229   8.665  19.570   1.865
  415W        W70230  13.757  34.017   3.168
  416W        W70231  33.589  36.583  13.859
  417W        W70232  30.587  38.898   1.863
  418W        W70233  13.236  17.214  14.438
  419W        W70234  26.110  10.765   1.761
  420W        W70235   1.373  33.439  10.510
  421W        W70236   3.790  11.752   1.270
  422W        W70237   1.331   1.911  12.529
  423W        W70238  25.607  30.071   2.220
  424W        W70239  38.880   2.862  10.586
  425W        W70240  35.548  42.419  14.998
  426W        W70241  25.156  31.066   1.245
  427W        W70242  29.930  12.330   1.438
  428W        W70243  11.652  19.265  14.388
  429W        W70244  20.101   3.326  10.161
  430W        W70245   4.815  14.619   2.693
  431W        W70246   0.288  13.154  11.069
  432W        W70247   9.163  42.354  12.070
  433W        W70248  43.829  37.913   2.785
  434W        W70249  17.190  27.010   2.408
  435W        W70250   3.290   8.178  13.419
  436W        W70251  11.172  44.768   0.940
  437W        W70252  12.155  10.312  14.871
  438W        W70253  26.542  44.955   0.800
  439W        W70254  16.235  40.005   0.317
  440W        W70255  39.911  24.092   2.823
  441W        W70256   7.749  44.864   1.787
  442W        W70257  12.335   8.875  12.072
  443W        W70258  19.555  29.931  13.418
  444W        W70259  37.007  27.078   1.797
  445W        W70260  34.595  39.340  12.345
  446W        W70261  33.611  42.983  10.972
  447W        W70262  32.578  43.481  14.832
  448W        W70263   4.235  34.457   1.269
  449W        W70264   1.332  14.302  12.555
  450W        W70265   0.289  25.700   2.270
  451W        W70266  21.247  13.159   4.787
  452W        W70267  40.393   1.269   1.220
  453W        W70268  25.055   8.730  14.822
  454W        W70269   4.940  32.080   2.849
  455W        W70270  30.512  36.569  12.869
  456W        W70271  22.508  18.201   0.945
  457W        W70272  39.896  21.181   3.192
  458W        W70273  15.669  28.115  11.929
  459W        W70274  37.994  25.092  10.589
  460W        W70275   6.774   8.300   1.789
  461W        W70276   9.351  10.379   2.731
  462W        W70277   8.163  30.045  11.482
  463W        W70278   4.764   7.909  14.966
  464W        W70279   4.863  41.418  13.892
  465W        W70280   9.676  27.104  14.350
  466W        W70281   7.700  38.423  14.907
  467W        W70282  36.059  39.849   2.661
  468W        W70283  27.472  32.619   0.762
  469W        W70284  26.198  24.080   1.916
  470W        W70285  13.728   8.699   1.837
  471W        W70286  19.605  44.949   3.294
  472W        W70287  35.559  37.019  12.437
  473W        W70288   9.319  20.158  14.381
  474W        W70289  19.669  27.951   1.221
  475W        W70290  39.390  32.919  10.570
  476W        W70291  38.825   5.802  10.061
  477W        W70292   0.377  34.960   2.684
  478W        W70293  31.021  11.166   4.197
  479W        W70294  35.442  10.283   3.373
  480W        W70295  15.285  34.479   3.151
  481W        W70296  20.736  40.320   4.208
  482W        W70297   3.856  17.562  10.893
  483W        W70298   7.724  24.578   2.764
  484W        W70299  24.111  15.669  11.943
  485W        W70300  39.417  20.524  14.280
  486W        W70301  10.365  25.714  13.509
  487W        W70302  15.214  28.165  12.987
  488W        W70303  13.222  35.056  14.961
  489W        W70304  26.045  15.239  14.385
  490W        W70305  27.577  11.668   4.178
  491W        W70306   5.222  30.976  14.851
  492W        W70307  22.045   6.721  12.530
  493W        W70308  27.633  25.514  14.887
  494W        W70309   5.361  39.958   1.319
  495W        W70310  38.433  37.524  14.961
  496W        W70311   4.395  27.558   0.448
  497W        W70312  24.545  39.995  14.372
  498W        W70313  14.812   6.423  14.861
  499W        W70314  13.632  15.100   2.258
  500W        W70315  10.285  29.990  10.422
  501W        W70316  13.786  28.162   4.817
  502W        W70317  35.022  44.398   0.919
  503W        W70318  15.238  19.208  14.426
  504W        W70319   1.275  44.306  11.399
  505W        W70320   4.412  23.127  13.360
  506W        W70321  39.547   2.301   0.864
  507W        W70322  33.413  32.140   2.244
  508W        W70323  11.240   0.271  14.314
  509W        W70324  26.511  36.355   2.404
  510W        W70325  40.946  23.124  11.445
  511W        W70326   9.793  35.038   3.699
  512W        W70327  34.397   8.804   5.231
  513W        W70328  39.009  29.980   2.347
  514W        W70329  18.764  36.977   4.642
  515W        W70330  22.158  34.422   2.333
  516W        W70331   9.660   0.877  12.075
  517W        W70332  27.098  44.774  13.352
  518W        W70333  19.587   7.686  14.856
  519W        W70334  11.270   5.418  13.925
  520W        W70335  30.951  22.500   3.839
  521W        W70336  33.531  41.403  11.446
  522W        W70337   4.221  26.150  12.026
  523W        W70338  35.100  32.075  13.793
  524W        W70339   0.377  43.794  10.601
  525W        W70340  14.588  24.039   3.860
  526W        W70341   8.663  33.069   0.477
  527W        W70342  39.003  19.161  14.767
  528W        W70343  37.016  37.453   4.704
  529W        W70344  40.436  19.073   2.284
  530W        W70345   4.929  25.677   0.269
  531W        W70346  12.693  31.060   3.320
  532W        W70347  16.187   3.405  14.817
  533W        W70348  11.678  38.333  12.993
  534W        W70349  30.915  26.542   2.694
  535W        W70350  26.589  44.450  14.419
  536W        W70351   3.288   7.854   1.369
  537W        W70352   7.395  21.579   3.815
  538W        W70353  16.086  23.652  11.385
  539W        W70354  39.045   1.847  10.082
  540W        W70355   5.402   4.801   0.366
  541W        W70356  43.490  35.529  12.901
  542W        W70357   9.864  38.847   1.819
  543W        W70358  10.762  29.560  14.934
  544W        W70359  24.026  43.413  14.922
  545W        W70360  11.137  33.458  14.317
  546W        W70361  10.228  11.659  10.958
  547W        W70362  14.125  24.703  12.853
  548W        W70363  33.077  17.169  12.433
  549W        W70364   4.437  22.182   1.744
  550W        W70365  23.511  10.680   2.758
  551W        W70366  11.837  12.837  10.910
  552W        W70367  19.153  16.205   1.744
  553W        W70368  35.545  21.754  14.792
  554W        W70369  34.968  32.469   2.272
  555W        W70370  26.565   7.239  10.005
  556W        W70371  12.707  43.892  13.916
  557W        W70372  10.163  24.024  13.447
  558W        W70373  19.139  41.337  10.596
  559W        W70374  15.719  44.801   4.314
  560W        W70375  24.522  35.027  12.042
  561W        W70376  15.653  27.086  12.485
  562W        W70377  16.574  39.530  10.410
  563W        W70378  30.073   9.804  14.500
  564W        W70379   5.307   0.395  12.941
  565W        W70380  36.402  29.439  12.907
  566W        W70381  25.500  22.599  13.972
  567W        W70382   3.355  32.027  10.892
  568W        W70383  14.832  11.190  13.922
  569W        W70384  41.298  13.267   4.716
  570W        W70385  19.218  36.916   1.728
  571W        W70386  24.084  30.128  10.539
  572W        W70387  14.642  41.927   4.639
  573W        W70388  31.465  30.473   3.277
  574W        W70389  32.464  29.104   1.920
  575W        W70390  37.426  16.259   4.821
  576W        W70391  26.952  23.503   3.325
  577W        W70392  42.491  37.439   3.325
  578W        W70393  18.673  17.273   1.718
  579W        W70394   4.295  26.586  10.116
  580W        W70395  31.604  20.746  14.762
  581W        W70396  16.183  18.105  13.031
  582W        W70397   5.748  43.475   2.298
  583W        W70398  21.069   6.311  14.801
  584W        W70399  23.680   9.255  12.829
  585W        W70400  20.191   0.297  13.013
  586W        W70401  23.544  29.012   3.306
  587W        W70402  34.872  32.547  13.946
  588W        W70403  37.942  27.148  13.837
  589W        W70404   9.720   5.832   1.854
  590W        W70405  19.229   1.376   4.237
  591W        W70406  42.007  41.892  11.459
  592W        W70407  24.660  21.699   0.919
  593W        W70408   6.806  40.484  11.060
  594W        W70409  29.451   2.364   2.182
  595W        W70410  28.480  44.288  11.071
  596W        W70411  29.115  31.095   2.321
  597W        W70412  37.530  28.170  11.018
  598W        W70413  44.858  13.610   1.888
  599W        W70414  34.974  32.138  10.895
  600W        W70415  15.189  16.799  14.491
  601W        W70416  30.954  30.609   5.261
  602W        W70417   2.437  44.802   3.716
  603W        W70418  31.947  10.269   2.686
  604W        W70419  32.496   1.885   3.736
  605W        W70420   1.421  30.626  13.008
  606W        W70421  21.607  40.887  11.502
  607W        W70422  44.356   6.765  13.369
  608W        W70423  37.433  10.843   3.865
  609W        W70424  30.521  19.767  12.945
  610W        W70425  38.038  23.988  14.278
  611W        W70426   9.237  10.820  10.933
  612W        W70427  13.285  24.043   3.695
  613W        W70428  37.922  31.406   2.833
  614W        W70429  14.315  26.481  12.002
  615W        W70430  40.012  19.235   1.777
  616W        W70431  24.993  26.480  13.004
  617W        W70432  17.166  27.044  12.413
  618W        W70433  41.379   0.852   3.275
  619W        W70434   3.340  26.044  10.409
  620W        W70435  14.325  10.683  10.549
  621W        W70436  30.613  39.440  12.087
  622W        W70437   0.988  26.488  10.485
  623W        W70438  43.792  27.491   3.633
  624W        W70439  28.155  15.125   0.385
  625W        W70440  27.990   5.380  11.117
  626W        W70441   0.442  34.904  11.372
  627W        W70442  43.356  36.072   2.839
  628W        W70443  34.491  19.168  13.533
  629W        W70444  15.820  39.924  12.823
  630W        W70445   4.357   9.832   0.289
  631W        W70446  44.906  20.217   1.785
  632W        W70447  35.091  33.979   2.853
  633W        W70448  37.492   9.319  11.557
  634W        W70449  44.286  32.600  12.541
  635W        W70450  41.901  38.021   3.302
  636W        W70451  16.184   8.200   3.187
  637W        W70452  12.825  25.966  13.359
  638W        W70453   1.826  41.945   2.802
  639W        W70454  36.530  28.930  10.546
  640W        W70455  19.694  17.180  14.012
  641W        W70456  23.240  15.095   2.687
  642W        W70457   6.333  27.970  14.841
  643W        W70458   6.809  27.104  12.057
  644W        W70459  12.667  10.873  10.425
  645W        W70460   4.728  31.584   5.244
  646W        W70461  36.875  12.832  13.489
  647W        W70462  25.651  13.689  12.038
  648W        W70463   9.800  39.826  12.558
  649W        W70464  37.527   2.871   1.696
  650W        W70465  21.748   1.400   3.171
  651W        W70466  14.300  22.523   4.308
  652W        W70467   6.420  21.248   0.910
  653W        W70468  27.466  35.421  12.004
  654W        W70469  20.095  16.757  11.556
  655W        W70470   2.748  33.564   1.837
  656W        W70471  43.899  39.841  14.859
  657W        W70472  11.177  10.760   1.256
  658W        W70473  34.885  35.511   4.169
  659W        W70474  11.826  37.060  11.083
  660W        W70475  37.994  17.087  14.817
  661W        W70476  13.327   1.289   1.407
  662W        W70477  25.571  42.781  10.982
  663W        W70478  16.576  14.611  14.868
  664W        W70479  19.203  22.556   2.856
  665W        W70480  33.896  22.601   2.790
  666W        W70481  29.148  23.526   4.173
  667W        W70482  22.686  19.141  11.492
  668W        W70483   4.754  34.903  10.544
  669W        W70484  41.349  17.752   4.303
  670W        W70485  16.741  40.315   2.331
  671W        W70486  16.249  19.180  13.474
  672W        W70487  15.212   9.862   0.882
  673W        W70488   2.772  28.966   4.161
  674W        W70489  31.948  36.420   1.324
  675W        W70490  15.640   9.654   4.121
  676W        W70491  26.193  43.401  14.816
  677W        W70492   8.824  39.895  12.090
  678W        W70493  39.379  16.317   3.256
  679W        W70494  16.269  11.866   1.888
  680W        W70495  24.194  32.126   1.768
  681W        W70496  17.667  13.794   4.309
  682W        W70497  14.334  29.059  10.451
  683W        W70498  11.272  23.240   2.808
  684W        W70499   5.217  43.797  13.486
  685W        W70500  13.821  18.655  11.057
  686W        W70501  32.969  31.130   1.789
  687W        W70502  16.245  11.158   1.316
  688W        W70503  23.237   4.878   1.318
  689W        W70504  17.575  44.391  11.050
  690W        W70505  41.966  43.825  14.439
  691W        W70506   5.930  24.545  10.551
  692W        W70507  12.668   0.979   1.759
  693W        W70508   7.791  38.436   2.677
  694W        W70509  27.658  16.649   0.890
  695W        W70510  29.493   7.411   4.324
  696W        W70511  11.272   1.902   0.454
  697W        W70512   0.353  19.554   0.730
  698W        W70513   9.318  17.188  14.511
  699W        W70514  42.309   0.884  12.533
  700W        W70515   3.243  14.605  11.431
  701W        W70516  23.019   2.791   0.950
  702W        W70517  22.607  12.682   4.120
  703W        W70518   2.466  26.155   2.857
  704W        W70519   2.239   4.707  12.917
  705W        W70520  43.305  44.902   3.191
  706W        W70521  12.350   6.281  14.494
  707W        W70522  41.029   7.400  14.378
  708W        W70523  24.515   9.790   3.365
  709W        W70524  20.191  18.294  12.874
  710W        W70525  28.447  29.496   3.644
  711W        W70526  33.520  37.553   4.339
  712W        W70527  41.474  26.134  12.919
  713W        W70528  44.478   3.306   2.843
  714W        W70529  21.596  41.505   4.673
  715W        W70530  19.540  11.810   2.263
  716W        W70531  42.942  17.565  14.899
  717W        W70532  15.276  12.701   0.255
  718W        W70533  17.137   1.846  13.923
  719W        W70534  28.955  13.251  11.076
  720W        W70535  34.451  37.045  10.990
  721W        W70536   4.368   7.329  11.381
  722W        W70537  43.978  22.079  14.791
  723W        W70538  37.394  24.127  12.468
  724W        W70539  13.650  15.258  13.860
  725W        W70540  42.402  19.569   3.295
  726W        W70541   7.875  13.153   2.228
  727W        W70542  33.053  14.253  14.986
  728W        W70543  39.829   5.404  11.546
  729W        W70544   6.815   3.457  11.506
  730W        W70545  33.607   2.874   2.381
  731W        W70546  23.663  15.119  12.006
  732W        W70547  30.027  25.591  11.984
  733W        W70548  43.498  25.215  13.869
  734W        W70549   6.319  33.407   1.230
  735W        W70550  27.482  39.957   4.797
  736W        W70551  38.021  29.128   2.280
  737W        W70552   8.796  12.801  10.439
  738W        W70553   3.431   2.337  13.058
  739W        W70554  42.924  24.186  14.006
  740W        W70555  27.648   7.403  14.363
  741W        W70556  29.662  38.359   3.326
  742W        W70557   5.927  30.122   3.669
  743W        W70558   0.430   0.293   3.825
  744W        W70559   8.254  35.872  14.959
  745W        W70560   5.412  38.515   0.831
  746W        W70561  29.072  16.688  12.357
  747W        W70562  11.365  18.729   1.901
  748W        W70563  44.408  10.324   3.289
  749W        W70564  35.394  29.946  11.427
  750W        W70565  41.353  14.752  14.993
  751W        W70566  29.175   3.815  11.095
  752W        W70567  35.915   8.296   0.851
  753W        W70568  36.507  24.720   1.698
  754W        W70569  31.553  11.758   3.217
  755W        W70570  44.359  29.128  10.079
  756W        W70571  41.889   2.298   4.639
  757W        W70572  20.615  40.869  11.388
  758W        W70573  40.840  36.515  14.851
  759W        W70574   7.186  13.215   2.693
  760W        W70575  37.999  43.853   3.655
  761W        W70576  43.503  34.966   2.215
  762W        W70577  17.276  44.331  12.932
  763W        W70578  39.334  20.229   4.753
  764W        W70579   2.770   5.750  13.505
  765W        W70580  22.631  11.663  14.301
  766W        W70581   2.318  38.904   4.723
  767W        W70582  25.089  25.029   3.665
  768W        W70583  44.874  28.624  12.491
  769W        W70584  19.224  40.471  11.026
  770W        W70585  40.393  22.007  10.543
  771W        W70586  43.806  23.020   1.278
  772W        W70587   1.472   2.926  12.388
  773W        W70588  38.843  30.639   4.671
  774W        W70589  40.314  20.680  14.946
  775W        W70590  31.481  30.078   2.396
  776W        W70591  39.019   4.698  12.489
  777W        W70592  12.678  34.535   1.342
  778W        W70593  16.290   3.834   2.357
  779W        W70594  42.392  42.969  13.380
  780W        W70595   1.265  15.171  14.921
  781W        W70596  25.687  30.154  13.405
  782W        W70597  11.726  23.677  10.075
  783W        W70598  11.240  36.570   4.648
  784W        W70599  19.767  28.616  14.353
  785W        W70600  34.987  24.669   0.362
  786W        W70601  43.936  21.024  13.366
  787W        W70602  31.051  30.969  10.536
  788W        W70603  22.139  27.039   1.754
  789W        W70604  29.923  39.482  14.505
  790W        W70605  19.692  14.228   3.183
  791W        W70606  38.396   4.846  13.905
  792W        W70607  29.013  39.528   3.652
  793W        W70608  43.345  11.244  14.011
  794W        W70609  44.453  41.804   0.244
  795W        W70610  33.601  41.002  11.435
  796W        W70611  41.513  32.624   3.659
  797W        W70612  25.050  14.101   0.289
  798W        W70613  23.504  30.085  13.960
  799W        W70614  38.513  18.247   2.749
  800W        W70615  29.973  13.329   2.356
  801W        W70616  11.642  30.018  12.042
  802W        W70617   9.696  21.580  13.005
  803W        W70618  18.139   8.781  12.077
  804W        W70619  25.488   2.433   2.825
  805W        W70620   1.742  27.180   3.185
  806W        W70621  38.554  10.375  14.390
  807W        W70622   4.835  24.203  14.301
  808W        W70623  37.362  29.979   0.797
  809W        W70624  39.852  26.038  13.409
  810W        W70625  43.388  32.918  14.934
  811W        W70626   7.401  35.007   1.434
  812W        W70627  32.395  13.763  12.962
  813W        W70628   8.713  36.862   1.718
  814W        W70629   0.285   6.814   4.331
  815W        W70630  29.513  42.315  10.897
  816W        W70631   5.739  28.115  11.994
  817W        W70632   4.905  38.916   3.861
  818W        W70633  10.215  35.513  14.444
  819W        W70634  12.678  19.686  14.467
  820W        W70635  13.662  10.265   0.473
  821W        W70636  40.826  44.414   4.815
  822W        W70637  40.510   9.153   2.887
  823W        W70638   5.218   6.337   2.889
  824W        W70639  38.347  39.898  13.922
  825W        W70640  29.092   4.309   3.773
  826W        W70641  11.817  20.273  13.994
  827W        W70642  24.115  20.717  12.930
  828W        W70643  11.303  27.606   0.387
  829W        W70644  19.153  33.019  14.306
  830W        W70645  15.683  10.260  13.026
  831W        W70646  16.807  36.055  10.417
  832W        W70647   6.392   9.237  14.950
  833W        W70648  22.689  43.498   0.380
  834W        W70649  30.419  25.624  11.609
  835W        W70650  10.360  36.440  11.041
  836W        W70651  13.812  17.664   1.883
  837W        W70652  40.411  17.074  14.862
  838W        W70653   4.346   5.751  12.014
  839W        W70654  14.096  41.441  13.488
  840W        W70655  20.676  15.585   4.781
  841W        W70656   5.345  30.044  13.468
  842W        W70657  30.131   5.748   3.759
  843W        W70658   8.386  18.604  10.439
  844W        W70659  28.654  27.100   2.224
  845W        W70660  36.923  36.055   0.930
  846W        W70661  41.514  42.453  12.469
  847W        W70662  32.625  43.845   2.396
  848W        W70663  18.277   9.836   1.738
  849W        W70664  35.504  35.465  14.493
  850W        W70665  26.665  17.204  12.512
  851W        W70666  28.551  25.013  12.525
  852W        W70667  44.425  44.261  14.012
  853W        W70668  39.431  20.255  13.897
  854W        W70669  38.987  44.431   2.206
  855W        W70670  38.525  21.139   4.294
  856W        W70671  35.109   9.827  12.350
  857W        W70672   1.970  42.860   3.184
  858W        W70673  32.417  17.133   3.364
  859W        W70674  38.501  26.201   2.333
  860W        W70675  23.133  35.434   1.415
  861W        W70676   4.790   0.311  14.871
  862W        W70677  20.063  24.600   4.745
  863W        W70678   5.420  41.408   3.268
  864W        W70679   0.973  31.541  13.898
  865W        W70680   7.199  28.489  11.908
  866W        W70681   4.277  31.483   3.222
  867W        W70682   0.756  25.039   4.662
  868W        W70683  17.761  17.275   3.249
  869W        W70684  43.813  31.516   4.730
  870W        W70685  31.439  38.478   0.277
  871W        W70686  34.060  18.652  12.916
  872W        W70687  31.426   1.261   0.408
  873W        W70688  17.161  37.958  14.280
  874W        W70689  23.990  36.841  11.938
  875W        W70690  20.690  44.378   5.219
  876W        W70691  39.548  38.507   1.448
  877W        W70692  27.109  19.186  14.978
  878W        W70693  15.119  13.792  11.028
  879W        W70694  42.501  36.088  14.802
  880W        W70695  22.162  19.542   2.277
  881W        W70696  40.808  36.506   0.737
  882W        W70697  36.356  35.400   1.840
  883W        W70698   9.856  37.492  12.940
  884W        W70699  16.624  34.392   2.232
  885W        W70700  32.543  40.533  12.052
  886W        W70701  32.398   3.437   1.916
  887W        W70702  35.892  36.434   2.267
  888W        W70703  20.207  40.979   4.765
  889W        W70704  16.204  31.588   1.276
  890W        W70705  44.394  24.602   4.632
  891W        W70706  26.192  36.525   3.773
  892W        W70707   7.693   3.913  13.863
  893W        W70708  37.439   6.846   0.854
  894W        W70709  21.750   6.372   0.311
  895W        W70710   5.308  41.419  11.985
  896W        W70711  27.115  41.874   1.377
  897W        W70712  28.475  31.025  12.366
  898W        W70713   9.169  41.305   1.849
  899W        W70714  42.809  37.852   3.368
  900W        W70715  25.149  34.046  14.373
  901W        W70716  28.006  35.080  13.436
  902W        W70717  36.096  19.158   1.717
  903W        W70718  33.461  24.200   2.859
  904W        W70719   3.224  21.585  11.048
  905W        W70720   2.881  15.158  10.433
  906W        W70721   7.269  13.664  11.472
  907W        W70722  41.974  41.354  14.364
  908W        W70723  21.623  13.694   2.674
  909W        W70724   6.320   9.212  13.494
  910W        W70725  38.913  19.227  10.637
  911W        W70726  16.570  34.949  12.928
  912W        W70727  19.654  10.297   5.296
  913W        W70728  41.993  27.157  14.855
  914W        W70729  35.409   3.298   3.194
  915W        W70730  23.591   7.209   4.832
  916W        W70731  23.168  34.894   4.339
  917W        W70732  28.150   3.796  13.474
  918W        W70733  31.060  17.732   1.372
  919W        W70734  17.558  18.085   4.250
  920W        W70735  35.478  43.422  12.840
  921W        W70736  22.544   2.798  13.053
  922W        W70737  26.112  19.077   2.857
  923W        W70738   6.344  15.160  14.867
  924W        W70739   0.305  43.959   0.837
  925W        W70740  30.907  14.729  14.870
  926W        W70741  11.854   5.270  14.467
  927W        W70742   3.434  28.487   0.346
  928W        W70743  23.504  30.482  13.915
  929W        W70744  38.057  14.225   4.654
  930W        W70745  43.956  17.636   2.272
  931W        W70746  30.495   7.812   1.703
  932W        W70747  31.546  20.658   3.656
  933W        W70748  16.274   5.439   0.478
  934W        W70749   2.461  39.824   2.343
  935W        W70750   6.805  15.758   4.219
  936W        W70751   3.724  42.335  11.983
  937W        W70752  10.725  28.642   1.890
  938W        W70753  44.318  10.693   1.783
  939W        W70754  16.659  13.822   1.256
  940W        W70755  28.171   3.401  12.431
  941W        W70756  38.960  40.508  12.528
  942W        W70757   9.232  37.977  14.764
  943W        W70758  36.489  16.636  13.343
  944W        W70759  43.461  30.553   2.217
  945W        W70760   9.747   2.850   2.770
  946W        W70761  38.044  10.743   1.751
  947W        W70762  19.683  17.666   1.217
  948W        W70763  34.447  24.150  10.541
  949W        W70764  38.879  25.702  13.974
  950W        W70765  23.659  41.791   1.425
  951W        W70766  23.987  29.574   4.598
  952W        W70767   2.256  14.156   3.289
  953W        W70768  20.695  22.560  12.954
  954W        W70769  13.837  11.368  12.488
  955W        W70770  13.702  33.595   4.725
  956W        W70771  33.902  15.644  12.450
  957W        W70772   1.262  17.798   4.302
  958W        W70773  36.570  36.021   1.867
  959W        W70774  31.139   5.717   2.677
  960W        W70775  42.786   9.645  14.996
  961W        W70776  28.646  34.590   1.778
  962W        W70777  18.728  12.238   1.798
  963W        W70778  41.453   2.812   0.863
  964W        W70779   6.757  33.480   4.236
  965W        W70780  23.519   3.420   9.994
  966W        W70781  26.050  23.169  11.448
  967W        W70782  21.700   5.227  10.981
  968W        W70783  35.576  28.987  12.359
  969W        W70784   0.773  15.596  10.634
  970W        W70785  10.261  18.236  10.100
  971W        W70786   2.859  30.129  12.095
  972W        W70787   4.755  20.101   2.196
  973W        W70788  11.751  36.365  14.884
  974W        W70789  32.624  35.403  13.374
  975W        W70790   1.910  12.647   1.296
  976W        W70791  21.233  15.748   3.178
  977W        W70792  37.350  14.221  13.362
  978W        W70793  30.926  15.777   0.920
  979W        W70794  31.587  32.409  13.326
  980W        W70795  21.226  37.839   0.400
  981W        W70796  22.686  15.707   3.771
  982W        W70797  43.403   3.718  14.477
  983W        W70798  12.848  27.194   3.650
  984W        W70799   7.754  12.129   2.759
  985W        W70800  16.145   9.222   3.756
  986W        W70801   0.986  32.927   2.735
  987W        W70802  25.978  16.740  14.458
  988W        W70803  19.558  25.667  10.983
  989W        W70804  14.146   6.390  11.534
  990W        W70805  24.204  13.181   1.241
  991W        W70806  28.467  16.801  13.505
  992W        W70807  36.417  36.882   4.250
  993W        W70808   5.854  21.064   2.257
  994W        W70809  43.811   4.921  14.836
  995W        W70810  33.992  10.689   0.918
  996W        W70811  34.505  41.380   0.338
  997W        W70812   8.338  22.181  13.940
  998W        W70813  34.550   0.345   4.156
  999W        W70814  33.534  10.205  14.806
 1000W        W70815  14.750   9.883   3.242
 1001W        W70816  28.942  22.579   0.774
 1002W        W70817   7.394   4.351  13.796
 1003W        W70818  30.907  31.626  11.909
 1004W        W70819  29.154  32.019  10.634
 1005W        W70820  27.067  33.881  11.378
 1006W        W70821  12.747  38.837   2.770
 1007W        W70822  11.765   8.176  11.124
 1008W        W70823   8.735  15.640  14.318
 1009W        W70824  27.559  40.051  14.472
 1010W        W70825   2.332   9.214  14.800
 1011W        W70826  37.896   4.232  10.632
 1012W        W70827   7.391  14.174  11.065
 1013W        W70828   7.853  29.531   2.287
 1014W        W70829  15.104  10.161  13.436
 1015W        W70830  11.828  10.288   4.659
 1016W        W70831  41.834  30.086  11.881
 1017W        W70832   5.205  35.077  10.948
 1018W        W70833  41.446   4.755  12.935
 1019W        W70834   4.355  44.897  12.974
 1020W        W70835   1.324  43.272  14.461
 1021W        W70836  32.009  35.493   4.338
 1022W        W70837  30.132  35.535   3.333
 1023W        W70838  34.469  39.984   0.358
 1024W        W70839  32.445  44.783   3.715
 1025W        W70840  37.427  30.061   4.798
 1026W        W70841  13.258   9.774   2.822
 1027W        W70842   6.875  13.243  13.971
 1028W        W70843  13.813  29.476   4.615
 1029W        W70844   9.196  28.111  14.373
 1030W        W70845  20.102   0.478   2.707
 1031W        W70846  26.164   3.784   3.687
 1032W        W70847  23.199  21.757   2.405
 1033W        W70848   6.877  17.646   0.280
 1034W        W70849   7.300  42.920  11.441
 1035W        W70850  31.021  26.174  12.486
 1036W        W70851  15.242  44.924  12.048
 1037W        W70852  17.259  35.919   3.743
 1038W        W70853  38.061  25.646  11.955
 1039W        W70854   6.396  18.215   4.837
 1040W        W70855  30.920  42.844   2.357
 1041W        W70856  43.966  13.840   2.215
 1042W        W70857  23.573   5.333  11.387
 1043W        W70858  15.182  31.084  12.844
 1044W        W70859  13.771  44.417   0.837
 1045W        W70860  19.622  10.385  11.062
 1046W        W70861  29.128  44.347  13.481
 1047W        W70862  26.461   8.267  12.887
 1048W        W70863  11.128  25.152  10.515
 1049W        W70864  33.472   7.411   0.400
 1050W        W70865  15.787  36.463   1.301
 1051W        W70866  32.485   1.800  14.401
 1052W        W70867  30.483  18.710  14.994
 1053W        W70868  16.252  13.224   0.272
 1054W        W70869  36.992   7.349  14.312
 1055W        W70870  44.853   9.213   0.309
 1056W        W70871   9.250  27.975   4.114
 1057W        W70872  31.146  10.262   0.441
 1058W        W70873  14.258  10.266  11.066
 1059W        W70874  11.203   6.730   4.142
 1060W        W70875  19.046  15.168  11.409
 1061W        W70876  15.314   0.772   2.825
 1062W        W70877  43.804   0.844   4.706
 1063W        W70878  26.577  41.845  14.925
 1064W        W70879  38.550  24.143   4.734
 1065W        W70880  21.703   9.371   4.289
 1066W        W70881  40.904  27.003  14.943
 1067W        W70882   0.876  30.108   3.240
 1068W        W70883   4.353  31.071  13.029
 1069W        W70884  19.778  25.994   2.887
 1070W        W70885  37.362  28.133  10.544
 1071W        W70886  25.502   8.260   2.267
 1072W        W70887  41.017  24.989  14.944
 1073W        W70888  29.011  32.983  14.498
 1074W        W70889  15.624  37.861  13.479
 1075W        W70890  26.566   7.350   0.337
 1076W        W70891  42.980  11.634   4.723
 1077W        W70892   8.682  34.600  11.965
 1078W        W70893  13.345   5.904  11.878
 1079W        W70894  17.677  25.132   0.850
 1080W        W70895  18.694   3.860   4.312
 1081W        W70896  15.197   5.736   2.271
 1082W        W70897  32.976   9.745  14.446
 1083W        W70898  12.336  29.061  13.380
 1084W        W70899  32.633  11.712   4.631
 1085W        W70900  36.847  29.664  13.933
 1086W        W70901  23.618  40.967   2.737
 1087W        W70902  42.477  39.874  10.584
 1088W        W70903  13.747   1.908   3.741
 1089W        W70904  19.653  31.415  13.830
 1090W        W70905  33.924  27.678   3.192
 1091W        W70906   4.206   3.362   4.734
 1092W        W70907  14.247  25.010  12.406
 1093W        W70908  17.171   9.303   2.726
 1094W        W70909  24.071   5.243  12.863
 1095W        W70910  18.625  23.652   1.806
 1096W        W70911  43.438  32.889  11.098
 1097W        W70912   8.767  16.786   2.293
 1098W        W70913   3.826  20.611   4.811
 1099W        W70914  25.629  30.938   3.770
 1100W        W70915  25.990   5.410   4.150
 1101W        W70916  37.470   8.677  13.477
 1102W        W70917  10.851  36.407  10.403
 1103W        W70918  12.266  34.594   2.765
 1104W        W70919  11.662  10.208   3.728
 1105W        W70920   0.877   4.330   3.666
 1106W        W70921  17.193  38.936   0.745
 1107W        W70922  25.499  20.110   1.750
 1108W        W70923  13.809   2.470  13.821
 1109W        W70924  22.177  13.292  11.541
 1110W        W70925  27.032  30.486   4.784
 1111W        W70926  20.076  30.122  12.840
 1112W        W70927  21.207  37.462   9.941
 1113W        W70928  38.835  43.019  13.354
 1114W        W70929  19.623  24.552  10.470
 1115W        W70930  27.447  23.697   3.308
 1116W        W70931  22.040  28.628  14.386
 1117W        W70932  26.625  41.828   4.320
 1118W        W70933   8.161  15.281  13.842
 1119W        W70934  14.825   7.306  11.050
 1120W        W70935  30.452  39.855   0.765
 1121W        W70936  15.784  36.374  12.545
 1122W        W70937  12.750  15.603  11.030
 1123W        W70938  33.924   7.180  11.559
 1124W        W70939  40.435  36.493   3.365
 1125W        W70940  13.676  19.259  11.055
 1126W        W70941  21.686  34.891   4.123
 1127W        W70942  15.751   4.297   4.631
 1128W        W70943  33.398  42.428  13.340
 1129W        W70944  25.177  16.244  13.311
 1130W        W70945  42.859  11.643  13.412
 1131W        W70946   7.235   1.883  11.111
 1132W        W70947   6.265   6.371  11.586
 1133W        W70948  27.018   4.928  12.842
 1134W        W70949  19.080   9.643  11.882
 1135W        W70950   5.270  10.218  10.476
 1136W        W70951   5.328   2.243   0.380
 1137W        W70952  22.040  18.273   0.262
 1138W        W70953  44.777   9.256  13.448
 1139W        W70954  23.547  19.210  11.105
 1140W        W70955  37.082  24.575   2.388
 1141W        W70956  31.108  33.532  13.963
 1142W        W70957  39.005  44.490   5.262
 1143W        W70958  26.202   6.369   0.814
 1144W        W70959   9.771  38.528   2.837
 1145W        W70960  29.436  28.182   4.325
 1146W        W70961  26.484  29.091  14.796
 1147W        W70962  43.883  32.604  12.488
 1148W        W70963  44.426  19.565  13.339
 1149W        W70964  12.647  28.180  11.928
 1150W        W70965  23.535  13.694  12.013
 1151W        W70966  14.195   2.938   1.212
 1152W        W70967   7.815  17.144  13.894
 1153W        W70968  40.857  21.695   2.878
 1154W        W70969   7.341  37.907  11.933
 1155W        W70970  31.964  16.570   0.326
 1156W        W70971  10.657   5.203   1.840
 1157W        W70972   4.354  36.982  13.354
 1158W        W70973  41.359  29.498  12.458
 1159W        W70974  23.724   0.920  11.860
 1160W        W70975  20.196   1.385   1.843
 1161W        W70976   6.313  43.380   3.811
 1162W        W70977  39.989   1.261   5.700
 1163W        W70978  13.788  38.538  12.901
 1164W        W70979   4.293  14.330   3.631
 1165W        W70980  31.115   3.846   1.843
 1166W        W70981   3.730  40.861   3.270
 1167W        W70982  19.572  32.140   4.177
 1168W        W70983   9.332  26.174  12.356
 1169W        W70984  44.495   5.930   3.195
 1170W        W70985   4.905   1.973  11.401
 1171W        W70986  33.902  22.584   4.828
 1172W        W70987   9.353   3.870  12.382
 1173W        W70988   5.202  23.611   3.704
 1174W        W70989  17.797   3.357   2.888
 1175W        W70990   1.261  15.295  12.948
 1176W        W70991  42.354  23.735  12.001
 1177W        W70992  23.232  22.193  14.429
 1178W        W70993  30.603  39.053   3.792
 1179W        W70994  19.279  40.357   2.182
 1180W        W70995  25.056  15.758  13.905
 1181W        W70996  12.756  29.552   0.851
 1182W        W70997  40.946  42.858   0.383
 1183W        W70998   4.740  14.649   0.747
 1184W        W70999  31.053  40.033  13.428
 1185W        W71000  42.875  36.969  13.792
 1186W        W71001  23.491  39.811   0.404
 1187W        W71002  16.741  42.343  10.956
 1188W        W71003   0.835  12.689   1.438
 1189W        W71004  38.836  43.837   3.315
 1190W        W71005  15.272   1.878  12.960
 1191W        W71006  36.035  28.124   2.880
 1192W        W71007  31.595   4.759  10.624
 1193W        W71008  16.619  15.198  14.006
 1194W        W71009  43.362   7.289  13.868
 1195W        W71010   1.468  43.903  12.909
 1196W        W71011  33.612  42.836  12.000
 1197W        W71012  44.499   0.871   5.280
 1198W        W71013   4.409  41.831   0.254
 1199W        W71014   5.218  43.343  14.465
 1200W        W71015  32.433  37.971  14.332
 1201W        W71016   0.883  15.165   2.757
 1202W        W71017  19.040  37.055   0.246
 1203W        W71018  30.543  25.488  12.521
 1204W        W71019   6.321  23.018  11.919
 1205W        W71020  24.502  30.623   4.821
 1206W        W71021  19.540  10.220  13.872
 1207W        W71022   6.339   7.232   4.751
 1208W        W71023  42.855  27.552  14.448
 1209W        W71024  16.114  28.160  11.053
 1210W        W71025  20.695  24.561   3.313
 1211W        W71026  13.698  38.392   2.352
 1212W        W71027   2.463  26.565   2.224
 1213W        W71028  28.962  37.898   0.849
 1214W        W71029  40.426  29.074   0.962
 1215W        W71030   4.923   0.983  12.966
 1216W        W71031  12.644  40.410  14.436
 1217W        W71032  39.942  18.600  10.621
 1218W        W71033  37.563  11.257  14.964
 1219W        W71034  12.793  40.450   2.844
 1220W        W71035  31.562  30.556   4.347
 1221W        W71036  30.433   9.797   4.292
 1222W        W71037   9.752   3.826   0.848
 1223W        W71038  28.105  16.202   2.365
 1224W        W71039  42.396  17.738  11.022
 1225W        W71040  12.349   8.826   0.283
 1226W        W71041   5.391  38.536   0.483
 1227W        W71042  37.468  27.683  13.992
 1228W        W71043  18.116  26.561  14.013
 1229W        W71044  31.414  11.745  12.376
 1230W        W71045  16.791  35.004  11.112
 1231W        W71046   7.766  16.178   4.308
 1232W        W71047  15.823  33.045  11.374
 1233W        W71048  18.788   2.421  12.903
 1234W        W71049  37.562  36.980   1.770
 1235W        W71050   6.414  37.412   3.676
 1236W        W71051  35.985   5.744   2.841
 1237W        W71052  42.931  36.496   2.794
 1238W        W71053  30.960   1.248   1.211
 1239W        W71054  34.408  33.448   0.336
 1240W        W71055  34.866  23.171  12.889
 1241W        W71056  19.043  35.382   0.379
 1242W        W71057  17.635  34.932   0.738
 1243W        W71058  31.602  16.793  11.993
 1244W        W71059  32.478  31.455   2.754
 1245W        W71060   4.927  28.475   2.343
 1246W        W71061  34.039  10.747  12.406
 1247W        W71062  22.663  22.021  13.850
 1248W        W71063   0.921  25.536  11.376
 1249W        W71064  20.136  40.886  12.845
 1250W        W71065  43.375  39.367  12.488
 1251W        W71066   1.766  38.521   2.737
 1252W        W71067  29.631  42.883   2.257
 1253W        W71068  35.513  15.767   0.463
 1254W        W71069  36.403   8.695   0.804
 1255W        W71070   1.357   4.313   3.630
 1256W        W71071   8.850  20.183  12.830
 1257W        W71072  21.562  16.273  10.891
 1258W        W71073  10.782  38.450   2.890
 1259W        W71074  26.164  11.631  12.418
 1260W        W71075  21.096   0.470  10.984
 1261W        W71076   6.710  16.214  11.896
 1262W        W71077  38.348  19.639  13.017
 1263W        W71078  29.498  41.486   1.228
 1264W        W71079  11.625  16.644   3.233
 1265W        W71080  26.646  27.039  13.859
 1266W        W71081  41.992  43.498  14.476
 1267W        W71082   2.385  41.037  13.358
 1268W        W71083   0.748  14.133  12.358
 1269W        W71084  30.982  16.745   3.211
 1270W        W71085  35.869   4.879  11.392
 1271W        W71086  38.968  28.977  10.431
 1272W        W71087  35.386  20.664  14.351
 1273W        W71088  43.909  22.103  12.944
 1274W        W71089  11.758   3.428   3.690
 1275W        W71090  37.368  42.879   3.762
 1276W        W71091  42.918   6.259   3.248
 1277W        W71092  13.723  27.134  12.489
 1278W        W71093  17.198  21.098   4.180
 1279W        W71094  24.675  26.966   4.173
 1280W        W71095  31.498  13.145  12.860
 1281W        W71096  43.274  41.970   2.270
 1282W        W71097  34.615  37.008  14.922
 1283W        W71098  23.104  15.242  11.491
 1284W        W71099   8.684   9.231  11.602
 1285W        W71100  29.480  27.630  14.327
 1286W        W71101  37.413   3.422   4.699
 1287W        W71102   4.243  33.558   3.252
 1288W        W71103   9.708  33.497   1.786
 1289W        W71104  40.429  20.705   3.746
 1290W        W71105  16.744  33.934   0.833
 1291W        W71106  33.062  20.627   0.892
 1292W        W71107   9.732   3.777  10.553
 1293W        W71108  12.146  41.537  10.638
 1294W        W71109  19.181   4.751   5.190
 1295W        W71110   3.268  40.902   1.800
 1296W        W71111  34.489   9.351   3.831
 1297W        W71112  33.925  18.153  14.022
 1298W        W71113   7.345  22.061   4.620
 1299W        W71114   2.399  13.268   2.254
 1300W        W71115  42.876  29.169  12.996
 1301W        W71116  44.966  26.185  13.992
 1302W        W71117  10.332  10.359  11.578
 1303W        W71118  43.765  22.556  10.585
 1304W        W71119  41.425  26.953  12.015
 1305W        W71120  11.135  27.640  13.919
 1306W        W71121  12.129  20.705  14.479
 1307W        W71122  41.363  43.956   2.668
 1308W        W71123  20.753  21.151   2.211
 1309W        W71124  19.704  43.382  13.022
 1310W        W71125  35.530  38.989  12.076
 1311W        W71126  36.549  21.602   2.310
 1312W        W71127  31.942  36.900   1.423
 1313W        W71128   1.968   4.754  10.940
 1314W        W71129  36.489  39.040   3.300
 1315W        W71130  27.072  38.063  12.987
 1316W        W71131  16.279  24.609   1.887
 1317W        W71132  43.849  26.690  11.928
 1318W        W71133  37.989  15.718  12.981
 1319W        W71134  16.205  24.003  11.977
 1320W        W71135  18.696   4.807  11.570
 1321W        W71136  27.669  31.027   3.172
 1322W        W71137  33.445  32.583  12.496
 1323W        W71138   2.442  10.715  11.016
 1324W        W71139  31.452  11.252  11.526
 1325W        W71140  29.585  23.159   4.122
 1326W        W71141  30.477  39.827  14.359
 1327W        W71142   5.194  14.802   2.395
 1328W        W71143   9.813  31.503  14.803
 1329W        W71144  16.673  26.208  12.008
 1330W        W71145  22.056  16.072  12.057
 1331W        W71146  31.632  14.762   2.298
 1332W        W71147  36.025  27.092  11.040
 1333W        W71148  17.565  41.999  11.432
 1334W        W71149  10.656  27.604  11.488
 1335W        W71150  25.010  20.583   2.772
 1336W        W71151  34.594  30.071   4.173
 1337W        W71152   0.467  22.555  10.619
 1338W        W71153   2.469  35.093   1.880
 1339W        W71154  31.056  36.442   4.344
 1340W        W71155  14.157  19.178   4.235
 1341W        W71156  20.732  32.123  14.768
 1342W        W71157  44.399   8.758  12.077
 1343W        W71158  23.038  18.685   0.751
 1344W        W71159  41.872  31.575   3.339
 1345W        W71160  12.700  23.699   0.476
 1346W        W71161  29.067  23.537   0.272
 1347W        W71162  17.115   1.918  10.547
 1348W        W71163   4.773   6.724  10.634
 1349W        W71164  36.008  21.754  13.412
 1350W        W71165  24.533  10.789   3.153
 1351W        W71166  35.936  34.404  13.330
 1352W        W71167   0.817  24.502   4.178
 1353W        W71168  36.901   5.207   4.813
 1354W        W71169  44.401  21.103  10.972
 1355W        W71170  39.332  24.714  13.530
 1356W        W71171   5.202  44.476  13.917
 1357W        W71172  43.452  23.577   0.774
 1358W        W71173   8.737   3.766   0.480
 1359W        W71174  35.000  30.158  11.430
 1360W        W71175   9.230  14.096   0.356
 1361W        W71176  10.220  26.513   3.305
 1362W        W71177  10.672   3.934   1.299
 1363W        W71178  14.727  20.151   0.962
 1364W        W71179   0.797   2.795  13.907
 1365W        W71180  34.953  35.022  13.488
 1366W        W71181  35.367   3.925  10.917
 1367W        W71182  18.711  39.976  11.386
 1368W        W71183  10.162  25.641  11.962
 1369W        W71184  31.088  24.525   1.274
 1370W        W71185  15.209  24.680   0.859
 1371W        W71186  16.699  35.012  14.896
 1372W        W71187  29.148  41.985   3.776
 1373W        W71188   2.814   7.806   2.336
 1374W        W71189   7.690  38.009   1.320
 1375W        W71190   4.320  22.728  13.828
 1376W        W71191  31.454  43.333  10.527
 1377W        W71192  13.112  33.581  13.496
 1378W        W71193  12.774  14.139  13.946
 1379W        W71194  20.664  11.248  12.902
 1380W        W71195  21.600  21.145  12.904
 1381W        W71196  40.836  12.343   4.610
 1382W        W71197   7.391   8.376   1.385
 1383W        W71198  16.089  33.562   2.853
 1384W        W71199  33.507  20.035  14.488
 1385W        W71200  20.135   5.347   0.280
 1386W        W71201  39.923  24.146   2.396
 1387W        W71202  22.217  30.995  11.417
 1388W        W71203  19.110  18.097  13.372
 1389W        W71204  38.430   8.344   4.273
 1390W        W71205  24.606  39.447   4.764
 1391W        W71206  36.857  44.405  14.913
 1392W        W71207  16.310  40.390   4.264
 1393W        W71208   8.687   8.805   1.882
 1394W        W71209  15.214  30.552  12.914
 1395W        W71210   7.832  42.482   2.772
 1396W        W71211   8.270  12.158   2.758
 1397W        W71212  31.003   1.740   3.373
 1398W        W71213  29.948  24.720  13.829
 1399W        W71214  11.685  24.482   2.310
 1400W        W71215  24.135  12.657  10.613
 1401W        W71216  35.589  22.674  12.927
 1402W        W71217  32.443   1.929   2.816
 1403W        W71218  30.500  31.537   2.231
 1404W        W71219  27.036   5.360  11.111
 1405W        W71220  18.231  33.466  10.993
 1406W        W71221  10.263  39.430   1.783
 1407W        W71222  36.362  29.461  11.067
 1408W        W71223   9.349  16.206  11.476
 1409W        W71224  22.511  18.600  10.148
 1410W        W71225   1.336  37.959   4.720
 1411W        W71226   0.286   4.702   3.273
 1412W        W71227  30.924  13.709   3.186
 1413W        W71228  14.312  11.222  13.350
 1414W        W71229  16.803  27.571   4.757
 1415W        W71230  36.446  17.604  11.002
 1416W        W71231   0.400  21.043  11.502
 1417W        W71232  36.024  34.578   0.915
 1418W        W71233   6.386  27.684   0.959
 1419W        W71234  17.581  35.876   3.223
 1420W        W71235  10.717   7.407   4.131
 1421W        W71236   1.454  17.635  10.543
 1422W        W71237   2.752  39.558   4.313
 1423W        W71238  38.557  35.395   3.272
 1424W        W71239   9.162  14.329   4.132
 1425W        W71240   4.369  21.026   4.756
 1426W        W71241  43.307  17.116  14.894
 1427W        W71242  40.863   8.704  14.897
 1428W        W71243   2.908  20.210  14.868
 1429W        W71244  37.057  41.832   3.692
 1430W        W71245  13.800  23.169  14.282
 1431W        W71246   3.723   0.884  11.506
 1432W        W71247  18.737  13.333   0.253
 1433W        W71248  11.343  19.573   2.753
 1434W        W71249  24.091  14.311   2.673
 1435W        W71250  37.402  40.983  11.465
 1436W        W71251  38.554  36.503  12.891
 1437W        W71252   8.779  38.968   5.283
 1438W        W71253  42.859   4.884  13.976
 1439W        W71254   1.955  21.027   2.670
 1440W        W71255  44.827  26.657  11.024
 1441W        W71256  38.454  30.129  11.870
 1442W        W71257  38.336   6.864   3.376
 1443W        W71258  12.832  36.522  11.467
 1444W        W71259  13.138   5.216  14.005
 1445W        W71260  38.386  16.608   3.851
 1446W        W71261  11.313  37.381   1.384
 1447W        W71262  30.657  29.582  14.431
 1448W        W71263   5.775  40.340  14.843
 1449W        W71264   2.796  34.078  13.925
 1450W        W71265  44.757  43.433  11.566
 1451W        W71266  37.063   2.860  11.430
 1452W        W71267   6.298  22.194  13.427
 1453W        W71268  30.946   6.211  10.548
 1454W        W71269  30.492  25.067   1.730
 1455W        W71270  21.669   4.423   2.363
 1456W        W71271   6.757  29.962  14.365
 1457W        W71272  37.509   4.710   5.262
 1458W        W71273  39.405   2.419   0.479
 1459W        W71274   2.814  33.000   1.220
 1460W        W71275   4.295  16.645   3.791
 1461W        W71276  33.124  12.350   0.398
 1462W        W71277  15.738   0.349  13.513
 1463W        W71278  26.049  17.643   2.896
 1464W        W71279  39.556  22.572   1.344
 1465W        W71280   7.321  41.887  11.444
 1466W        W71281  10.773  43.813   3.273
 1467W        W71282  31.413  31.068  14.909
 1468W        W71283   4.439  35.919   2.332
 1469W        W71284  25.043  40.856   4.278
 1470W        W71285  35.557  36.582  12.459
 1471W        W71286  19.140  35.956   1.371
 1472W        W71287  29.653  15.798  14.470
 1473W        W71288  34.000  14.624  12.948
 1474W        W71289  24.226  10.847  10.513
 1475W        W71290  35.969   6.922  13.024
 1476W        W71291  22.566  14.175  13.856
 1477W        W71292  17.162  25.132   0.291
 1478W        W71293  44.408  23.664  10.951
 1479W        W71294  10.304  22.112   3.726
 1480W        W71295  26.157  42.402  11.420
 1481W        W71296   3.410  11.143  13.477
 1482W        W71297  13.759   2.737  13.877
 1483W        W71298   8.808  11.860   3.147
 1484W        W71299  32.498   9.243  13.061
 1485W        W71300  28.515  42.386  14.429
 1486W        W71301   7.726  36.951  12.060
 1487W        W71302   2.763  24.553  10.986
 1488W        W71303  23.578  38.916  10.958
 1489W        W71304  25.160  32.518   0.265
 1490W        W71305  32.540  16.212  14.371
 1491W        W71306   9.343  40.392  12.344
 1492W        W71307  26.009  44.312   0.967
 1493W        W71308  26.572  42.291   0.320
 1494W        W71309  33.488   9.733   2.868
 1495W        W71310  26.556  27.555   4.636
 1496W        W71311  44.754  32.918  11.514
 1497W        W71312  30.116  43.975   4.305
 1498W        W71313   3.236   1.776   0.818
 1499W        W71314   0.963  25.033   1.762
 1500W        W71315  42.913  13.799  11.890
 1501W        W71316  43.949  26.490  10.442
 1502W        W71317   9.273  36.500   1.315
 1503W        W71318   8.823  32.565   3.282
 1504W        W71319  44.278  28.019   2.269
 1505W        W71320  31.545   2.872  14.445
 1506W        W71321  19.178  19.089  12.982
 1507W        W71322  27.008  33.899  13.320
 1508W        W71323  38.067   4.719  10.579
 1509W        W71324  43.384  23.016  13.919
 1510W        W71325   1.468   6.708  13.032
 1511W        W71326  34.074  14.756  10.422
 1512W        W71327  21.077   4.316  12.869
 1513W        W71328  18.693   1.927   4.706
 1514W        W71329   7.246   9.227   3.772
 1515W        W71330  28.473  10.805   3.379
 1516W        W71331   6.407   3.355   5.255
 1517W        W71332   3.805   2.888  11.057
 1518W        W71333  38.830  22.689   5.181
 1519W        W71334  24.140  30.438   1.242
 1520W        W71335  10.673  23.222  14.777
 1521W        W71336  35.072  27.054  10.967
 1522W        W71337  35.415  44.771  12.922
 1523W        W71338   5.714  14.136  12.570
 1524W        W71339   6.743  43.290   4.762
 1525W        W71340   4.297  22.692   4.340
 1526W        W71341   7.776  12.718  14.800
 1527W        W71342   6.752   7.376   2.819
 1528W        W71343  16.192   9.879  13.971
 1529W        W71344  28.141   7.292   0.742
 1530W        W71345  14.793   7.413   5.091
 1531W        W71346  21.196  12.183   2.787
 1532W        W71347  18.787  20.588  11.911
 1533W        W71348  37.525  31.928  13.874
 1534W        W71349  29.097  23.005  12.833
 1535W        W71350  32.959  18.631   1.756
 1536W        W71351  11.297  16.586  13.422
 1537W        W71352   3.929   7.361  12.474
 1538W        W71353  10.643  21.104  12.371
 1539W        W71354  36.477  27.941  14.332
 1540W        W71355   0.849  12.281   0.904
 1541W        W71356  21.691   2.757  12.872
 1542W        W71357  11.214   3.335   5.267
 1543W        W71358  19.056  26.545   3.691
 1544W        W71359  12.282  39.004   0.386
 1545W        W71360  19.676  27.604  12.059
 1546W        W71361  22.072   9.847   2.799
 1547W        W71362  24.725  40.834  10.470
 1548W        W71363  32.003  21.672   2.716
 1549W        W71364  33.459   7.287  13.013
 1550W        W71365  22.554  42.829   4.215
 1551W        W71366   2.384   8.780   0.343
 1552W        W71367  20.600  32.079   0.424
 1553W        W71368   6.369  18.276  13.928
 1554W        W71369   7.213   3.266   3.262
 1555W        W71370  20.620  13.677  10.429
 1556W        W71371  30.153  40.862   2.774
 1557W        W71372   6.282  17.721   2.875
 1558W        W71373  39.867   7.719   1.392
 1559W        W71374  19.585  18.780   1.265
 1560W        W71375  43.476  16.637   4.353
 1561W        W71376  40.930  44.005   4.221
 1562W        W71377   9.360  23.715  11.007
 1563W        W71378  34.893  42.468   0.451
 1564W        W71379   5.390   2.862  10.918
 1565W        W71380  31.625  36.081  14.015
 1566W        W71381  42.817  24.046  11.995
 1567W        W71382  11.688  35.933   5.278
 1568W        W71383   3.403   2.293  11.089
 1569W        W71384  10.321  29.441   0.948
 1570W        W71385  39.876  27.016   2.274
 1571W        W71386  39.808  37.019   1.829
 1572W        W71387  15.674  10.861   2.679
 1573W        W71388   9.856  21.247  11.388
 1574W        W71389   8.319  12.700   2.751
 1575W        W71390  35.439   2.912   2.230
 1576W        W71391  21.153  32.066  13.492
 1577W        W71392  40.971  34.953  10.596
 1578W        W71393   4.371  16.096  11.509
 1579W        W71394  39.866  10.140  11.956
 1580W        W71395   8.821  34.985   3.763
 1581W        W71396  32.474  17.277  14.007
 1582W        W71397   3.312  18.172  13.417
 1583W        W71398  34.098  27.612  11.460
 1584W        W71399   2.451  24.716  12.896
 1585W        W71400  31.898   3.430  10.462
 1586W        W71401  25.181   3.234  12.968
 1587W        W71402  16.208  36.848   4.693
 1588W        W71403  44.405  10.223   3.691
 1589W        W71404  27.036  21.585  13.019
 1590W        W71405  19.701   3.879   3.712
 1591W        W71406  42.909  40.907  10.571
 1592W        W71407  27.662  36.407   2.322
 1593W        W71408   7.356  14.257   4.618
 1594W        W71409  37.018  36.077  11.388
 1595W        W71410  15.189   9.360  11.100
 1596W        W71411  26.207  17.636   0.910
 1597W        W71412  14.283  23.572  12.518
 1598W        W71413   0.466   6.190   3.707
 1599W        W71414  19.103  22.647  13.943
 1600W        W71415  26.648  38.449  13.391
 1601W        W71416  14.732   1.746   5.166
 1602W        W71417  17.290  22.567   5.218
 1603W        W71418   5.837  24.651  11.556
 1604W        W71419  10.287  18.650   0.815
 1605W        W71420  32.593   7.282   1.694
 1606W        W71421  25.670  22.181  14.902
 1607W        W71422  33.889  28.944   2.692
 1608W        W71423  18.139   8.888   3.697
 1609W        W71424  30.631  26.514  12.974
 1610W        W71425  26.017  21.205   4.253
 1611W        W71426  17.595   4.841  11.429
 1612W        W71427   2.227   3.811   4.264
 1613W        W71428  32.119  41.037   0.338
 1614W        W71429   2.916  25.995   2.255
 1615W        W71430  18.558  37.916   4.242
 1616W        W71431  12.788  16.273   0.373
 1617W        W71432  22.121  14.728  14.502
 1618W        W71433   9.232  30.510  14.421
 1619W        W71434  29.018  40.305  10.551
 1620W        W71435  23.207  40.391   2.271
 1621W        W71436  26.583  30.944   1.250
 1622W        W71437  24.171  36.026   2.358
 1623W        W71438  33.930  37.513   3.706
 1624W        W71439  20.555   4.349   3.711
 1625W        W71440  23.505  29.455   3.810
 1626W        W71441   2.954  38.882   2.310
 1627W        W71442  32.566  37.456  13.820
 1628W        W71443   5.304  21.709   2.684
 1629W        W71444   4.835   9.371   4.176
 1630W        W71445  44.290   5.811  14.780
 1631W        W71446  14.819  21.085   3.761
 1632W        W71447  11.682   2.432   1.352
 1633W        W71448  41.462  25.674  14.347
 1634W        W71449   6.873  33.081   3.700
 1635W        W71450  26.958  33.495  12.534
 1636W        W71451  36.424  18.250  11.864
 1637W        W71452  30.507  32.057  10.588
 1638W        W71453  12.133  42.299   0.774
 1639W        W71454  39.033  40.365   2.716
 1640W        W71455  40.874  16.314  13.329
 1641W        W71456  30.529  18.137   4.284
 1642W        W71457   5.827   3.883  11.399
 1643W        W71458  11.731  28.982   3.665
 1644W        W71459  42.993   9.873  11.042
 1645W        W71460  37.887   8.694  11.377
 1646W        W71461  20.260  32.435   1.232
 1647W        W71462  37.358  15.230  14.802
 1648W        W71463   1.411  27.620   0.318
 1649W        W71464  44.350  29.083  11.434
 1650W        W71465   3.808  20.127   2.894
 1651W        W71466  27.007  36.350  14.815
 1652W        W71467   3.309  27.186  10.466
 1653W        W71468   8.748   0.429   0.862
 1654W        W71469  36.026  31.425  14.018
 1655W        W71470  24.221  13.656   3.234
 1656W        W71471   3.881  16.751   0.414
 1657W        W71472  36.056  28.067   0.954
 1658W        W71473   9.151   3.855   4.837
 1659W        W71474   6.384  10.165   9.941
 1660W        W71475  13.175  21.183  12.550
 1661W        W71476   6.228   5.347  13.793
 1662W        W71477   8.659  38.882   0.402
 1663W        W71478   7.183   6.347   2.351
 1664W        W71479  38.336  17.220  11.372
 1665W        W71480  31.419  30.581  14.006
 1666W        W71481  27.124  25.476  12.009
 1667W        W71482  16.782  33.125   1.219
 1668W        W71483  29.634  35.546  10.455
 1669W        W71484  21.631  41.019   2.745
 1670W        W71485  10.658  28.062   2.400
 1671W        W71486  26.559  24.104   1.416
 1672W        W71487  20.630  12.625  14.924
 1673W        W71488  34.404  30.546  14.861
 1674W        W71489  22.604  20.160   4.657
 1675W        W71490  35.995   9.377  13.436
 1676W        W71491  44.505  36.482  13.469
 1677W        W71492  33.994  27.616  13.485
 1678W        W71493  40.849   5.724   3.293
 1679W        W71494  14.598   6.842  12.497
 1680W        W71495  24.650  39.342  12.076
 1681W        W71496  35.457   2.232  11.949
 1682W        W71497  19.094  23.010  14.317
 1683W        W71498  40.020  35.509   0.412
 1684W        W71499  18.257  24.068  11.084
 1685W        W71500  19.704   4.302  12.568
 1686W        W71501   7.407  22.523   4.343
 1687W        W71502  24.573  43.820  12.930
 1688W        W71503  25.708  11.678  11.911
 1689W        W71504   5.742  33.570  13.478
 1690W        W71505  17.223  23.086   2.882
 1691W        W71506  10.824  19.216   2.266
 1692W        W71507   8.241  26.969  11.087
 1693W        W71508   3.743  31.442  13.875
 1694W        W71509  10.715  41.925  10.937
 1695W        W71510  31.520  22.041  13.317
 1696W        W71511  34.072   8.828  11.549
 1697W        W71512  25.101  14.157  14.511
 1698W        W71513  27.050  30.999  11.443
 1699W        W71514  28.624  12.207   3.289
 1700W        W71515  40.919  44.902   0.865
 1701W        W71516  42.982  14.153   3.836
 1702W        W71517   5.315  21.532  10.895
 1703W        W71518  15.606  14.665   0.816
 1704W        W71519  18.266  22.566  14.391
 1705W        W71520   4.708   8.363  12.952
 1706W        W71521  22.012  32.617  12.466
 1707W        W71522   4.818  31.474   0.418
 1708W        W71523  21.600  22.124  11.475
 1709W        W71524  44.297   4.398   3.862
 1710W        W71525  27.092   1.302   3.342
 1711W        W71526  26.969   1.867   4.320
 1712W        W71527  41.418  25.561   2.255
 1713W        W71528  11.671  26.635   2.213
 1714W        W71529  37.520  25.682   1.761
 1715W        W71530   6.917  41.968  10.536
 1716W        W71531  34.513  15.740  10.599
 1717W        W71532   8.856   7.876  14.961
 1718W        W71533  15.184  15.229  14.974
 1719W        W71534   3.240   0.944  11.469
 1720W        W71535   6.686  15.749   4.727
 1721W        W71536  44.316  18.773   2.394
 1722W        W71537  36.041  16.806  12.042
 1723W        W71538  19.714   1.293   0.857
 1724W        W71539  28.990  22.572   4.705
 1725W        W71540  44.293   1.970  14.759
 1726W        W71541  34.448  28.995   4.689
 1727W        W71542   2.432   1.919  10.541
 1728W        W71543  27.980  34.976  13.940
 1729W        W71544  24.055  36.975  12.860
 1730W        W71545  27.038  15.160  13.380
 1731W        W71546  25.567  39.517   4.698
 1732W        W71547   4.326  36.450   1.387
 1733W        W71548  36.497  21.256  10.056
 1734W        W71549   5.426  30.537  13.970
 1735W        W71550  10.644  10.181   0.476
 1736W        W71551  43.395  13.159   2.397
 1737W        W71552  12.786  13.154   2.413
 1738W        W71553  31.588  24.510  12.463
 1739W        W71554  21.638   1.952   3.871
 1740W        W71555   9.834   6.864   2.370
 1741W        W71556  38.563  14.161  14.441
 1742W        W71557  19.703  37.414  10.479
 1743W        W71558  10.169  42.288  10.920
 1744W        W71559  42.912   0.784   3.768
 1745W        W71560  19.559  42.309   1.438
 1746W        W71561  22.097  21.665  11.444
 1747W        W71562  40.968  23.509   4.691
 1748W        W71563  22.075  26.527  12.424
 1749W        W71564  20.555  33.947   4.161
 1750W        W71565  15.136   8.379  12.093
 1751W        W71566   4.884  33.022   1.325
 1752W        W71567  22.213  36.473   3.730
 1753W        W71568  19.054  22.612  12.345
 1754W        W71569  14.199  34.104  12.051
 1755W        W71570   7.193  44.874   1.777
 1756W        W71571   1.958   5.272   4.735
 1757W        W71572   2.931  44.439   3.381
 1758W        W71573  23.538  44.369  11.993
 1759W        W71574  19.158  21.145   3.720
 1760W        W71575  42.777   7.298  12.496
 1761W        W71576  17.185  33.436   1.877
 1762W        W71577  27.008  10.741  10.447
 1763W        W71578   9.689  14.737   4.741
 1764W        W71579  23.549  19.607   5.319
 1765W        W71580  36.455  34.585   5.137
 1766W        W71581   8.405   4.219   3.327
 1767W        W71582  38.055  19.165   1.214
 1768W        W71583   8.163  40.323  11.607
 1769W        W71584   4.371  35.030   1.696
 1770W        W71585  18.118  30.626   0.910
 1771W        W71586  14.166  12.719   0.851
 1772W        W71587   9.843  34.877   0.344
 1773W        W71588   6.284  42.998   4.344
 1774W        W71589  21.119  10.656  12.056
 1775W        W71590  42.834  43.974   0.759
 1776W        W71591  30.068  28.939  12.375
 1777W        W71592   2.892  16.143  14.984
 1778W        W71593  11.709   2.962  10.603
 1779W        W71594  21.105  32.015   2.893
 1780W        W71595  28.086  20.714   1.934
 1781W        W71596  35.025  12.833   4.687
 1782W        W71597   5.228  38.478  12.566
 1783W        W71598   0.361  22.998  12.953
 1784W        W71599  14.124   0.759   5.082
 1785W        W71600  11.219  21.253  11.960
 1786W        W71601   5.922  33.097  14.774
 1787W        W71602  32.036  12.144  10.512
 1788W        W71603  22.680   2.795   2.780
 1789W        W71604  29.610   8.885  13.502
 1790W        W71605  31.042  31.088   3.375
 1791W        W71606  22.628  32.472  13.823
 1792W        W71607  17.121  44.424   3.156
 1793W        W71608  38.966   3.779   4.656
 1794W        W71609   9.646   6.763   1.314
 1795W        W71610  35.379  30.928   3.374
 1796W        W71611   1.432  15.211  12.486
 1797W        W71612  31.911  39.966  12.852
 1798W        W71613   9.191  11.343   1.797
 1799W        W71614  11.237  28.541  11.467
 1800W        W71615  31.406  34.453   4.804
 1801W        W71616   6.395   2.733  13.871
 1802W        W71617  26.055  13.309   4.772
 1803W        W71618  40.491   7.392   0.362
 1804W        W71619   6.749  32.514  12.479
 1805W        W71620  37.930  33.035  10.460
 1806W        W71621  30.940  33.410  10.931
 1807W        W71622  34.893  18.155   4.807
 1808W        W71623  23.505  11.822   0.272
 1809W        W71624  36.946  33.587  10.066
 1810W        W71625  37.881  22.083  13.006
 1811W        W71626  32.914   8.189  13.971
 1812W        W71627   4.711  13.668   2.731
 1813W        W71628  44.354  22.090  10.154
 1814W        W71629   8.173  10.715  11.495
 1815W        W71630  33.067   1.364   1.725
 1816W        W71631  15.696  17.173   2.787
 1817W        W71632  22.656   0.461   4.642
 1818W        W71633   9.348  41.929   3.859
 1819W        W71634  31.414  26.475  10.417
 1820W        W71635  36.877  38.893  12.527
 1821W        W71636  26.035  19.279  11.038
 1822W        W71637  13.328  11.222   1.750
 1823W        W71638  39.020  26.191  12.068
 1824W        W71639  21.647  25.041  13.382
 1825W        W71640   1.820   0.770   2.363
 1826W        W71641  43.772  25.005   1.370
 1827W        W71642  20.197   0.316   3.340
 1828W        W71643  18.660  11.824  10.633
 1829W        W71644  14.777  27.559   0.425
 1830W        W71645   0.278  32.107  11.484
 1831W        W71646  23.546  43.008   0.432
 1832W        W71647  17.145  20.218   0.383
 1833W        W71648  33.602  22.165   2.353
 1834W        W71649  31.406   2.469   1.695
 1835W        W71650  21.233   8.264   2.199
 1836W        W71651  22.148  30.014  10.409
 1837W        W71652  29.617   3.430  14.925
 1838W        W71653  13.755  28.635  11.003
 1839W        W71654   6.223  16.130  13.417
 1840W        W71655  28.565   5.373  12.515
 1841W        W71656  14.283   6.709  11.445
 1842W        W71657  32.627  33.527   9.947
 1843W        W71658  14.628  21.632   2.718
 1844W        W71659  16.672  41.892  12.369
 1845W        W71660  43.772  30.958  11.949
 1846W        W71661  12.769  22.543   2.893
 1847W        W71662   3.414  10.635   2.287
 1848W        W71663  29.067  39.428  11.480
 1849W        W71664  20.701  23.239   0.352
 1850W        W71665  13.769  33.483  12.858
 1851W        W71666   7.817  44.938  13.951
 1852W        W71667  12.643  39.047  14.974
 1853W        W71668  20.530  44.259   1.883
 1854W        W71669  36.544  14.148  10.445
 1855W        W71670  26.199  39.975   0.754
 1856W        W71671  41.034   8.339   3.754
 1857W        W71672  35.431  27.558   4.126
 1858W        W71673  29.116  23.998  10.901
 1859W        W71674   6.403  21.657  14.932
 1860W        W71675  44.943  26.128  10.914
 1861W        W71676   0.913  28.534   3.726
 1862W        W71677  32.020  23.662  13.874
 1863W        W71678  22.120  19.204   2.697
 1864W        W71679  31.437   0.988  14.357
 1865W        W71680  19.074  25.176   1.346
 1866W        W71681  21.131  16.630   1.312
 1867W        W71682  43.403  27.610  13.822
 1868W        W71683  36.026   6.257   2.186
 1869W        W71684   6.198  34.553   0.768
 1870W        W71685  15.695  44.259   2.738
 1871W        W71686  18.690   8.750  11.476
 1872W        W71687  29.986  13.730   3.255
 1873W        W71688   0.911  40.807   3.220
 1874W        W71689   3.331   4.825   0.933
 1875W        W71690  16.125  25.008   2.670
 1876W        W71691  10.701  34.435   2.731
 1877W        W71692  33.406  38.545   4.754
 1878W        W71693  30.033  43.956   0.875
 1879W        W71694  31.148  40.046  11.954
 1880W        W71695   0.346   0.929  14.279
 1881W        W71696  13.191  15.740   2.385
 1882W        W71697  40.933  10.670   1.773
 1883W        W71698  37.442  22.673  13.855
 1884W        W71699   4.306   1.955   3.828
 1885W        W71700   9.166  17.125   1.790
 1886W        W71701   5.317  33.410  14.337
 1887W        W71702  31.567  23.719  13.795
 1888W        W71703   1.459  10.264   4.809
 1889W        W71704  11.191  14.283  10.531
 1890W        W71705  17.709  25.595  14.894
 1891W        W71706  15.695  37.376   4.164
 1892W        W71707  29.645  17.193   3.867
 1893W        W71708  38.446  43.770   3.841
 1894W        W71709  38.899  39.343   0.413
 1895W        W71710   5.793  35.957   1.355
 1896W        W71711  14.114  25.657   5.292
 1897W        W71712  26.200  13.748   3.794
 1898W        W71713  20.728  44.395  11.417
 1899W        W71714  19.261  32.592  14.488
 1900W        W71715   2.441  41.798  13.798
 1901W        W71716  18.675   4.295   4.195
 1902W        W71717  41.938  27.007   0.744
 1903W        W71718   4.847  25.610   4.700
 1904W        W71719  44.825   2.415   0.320
 1905W        W71720  43.282  41.016   2.370
 1906W        W71721   8.340  40.840   1.225
 1907W        W71722  40.453   1.795  10.096
 1908W        W71723  26.149  15.634   4.164
 1909W        W71724  28.465  19.759  12.877
 1910W        W71725  36.354  41.885  12.401
 1911W        W71726  44.884  22.532   3.336
 1912W        W71727  19.221   3.273   1.808
 1913W        W71728   1.316  25.131  10.631
 1914W        W71729  40.393  42.318   1.250
 1915W        W71730  30.918  38.349   2.840
 1916W        W71731   4.778  44.430   5.205
 1917W        W71732   4.815   1.404  13.403
 1918W        W71733   9.159  23.708   2.409
 1919W        W71734   5.915   1.254   3.862
 1920W        W71735   5.691  10.663   0.918
 1921W        W71736   0.298  32.396   0.458
 1922W        W71737  21.529  41.908  13.421
 1923W        W71738  33.950  30.520   0.304
 1924W        W71739  20.159  34.570   2.198
 1925W        W71740  26.498  26.645  12.555
 1926W        W71741  19.166  40.484   4.137
 1927W        W71742  26.064   9.838   4.327
 1928W        W71743   7.344   9.818   1.418
 1929W        W71744  31.083  10.828  14.468
 1930W        W71745  14.129  28.532  11.050
 1931W        W71746  11.253   9.329   4.296
 1932W        W71747  44.912  25.136  12.083
 1933W        W71748  19.572  26.959   1.865
 1934W        W71749  43.914  29.037  12.000
 1935W        W71750  28.093   9.165   1.729
 1936W        W71751  25.711  18.646  12.494
 1937W        W71752  41.531  22.139   4.252
 1938W        W71753   6.204  12.308   4.755
 1939W        W71754  35.865  24.080  11.114
 1940W        W71755  12.674   6.875   3.202
 1941W        W71756  30.006  17.694  11.066
 1942W        W71757  39.336  16.626   2.395
 1943W        W71758   5.258  27.189  11.998
 1944W        W71759  35.869  37.575  13.899
 1945W        W71760  14.204   7.892   1.311
 1946W        W71761  24.684  42.897   0.346
 1947W        W71762  35.390  44.780  12.559
 1948W        W71763  15.640  24.991   3.668
 1949W        W71764  37.524  10.770   2.207
 1950W        W71765  10.294  13.345  10.554
 1951W        W71766  31.948  31.574  14.497
 1952W        W71767  25.504  42.987   1.758
 1953W        W71768  43.435  28.536  12.571
 1954W        W71769  24.022   6.224   3.649
 1955W        W71770  23.205  40.303   4.143
 1956W        W71771   1.920  15.645   3.225
 1957W        W71772   1.969  42.884  14.300
 1958W        W71773  31.099  36.997   1.836
 1959W        W71774  38.994  13.689   4.612
 1960W        W71775  14.759  22.541  12.924
 1961W        W71776  25.711  33.118   3.816
 1962W        W71777  23.680   7.184  10.471
 1963W        W71778  14.770  29.059   3.322
 1964W        W71779   2.776   6.712  13.341
 1965W        W71780  21.172  27.198  12.433
 1966W        W71781  42.941  42.874   0.265
 1967W        W71782   4.204  37.968   1.250
 1968W        W71783   4.414  20.071   0.848
 1969W        W71784  21.569   1.363  12.916
 1970W        W71785  35.033  23.724  12.897
 1971W        W71786  36.904  43.847   4.192
 1972W        W71787  29.020  30.919  10.902
 1973W        W71788  19.586  29.447   0.450
 1974W        W71789  25.494   5.236   4.739
 1975W        W71790  18.210  13.766   2.754
 1976W        W71791  34.066  43.433  14.797
 1977W        W71792  38.960  18.708  12.424
 1978W        W71793  27.669  38.490  10.607
 1979W        W71794  44.902   0.368   1.287
 1980W        W71795  32.044  41.981  12.891
 1981W        W71796  32.624   9.836   0.846
 1982W        W71797   0.341  36.483  10.608
 1983W        W71798   3.789  11.243   0.474
 1984W        W71799  16.570  15.762   3.350
 1985W        W71800  25.175   1.387   3.862
 1986W        W71801  16.122  22.084  11.080
 1987W        W71802  30.640  16.597  14.470
 1988W        W71803  44.276  11.713  10.578
 1989W        W71804  34.398  44.340   0.916
 1990W        W71805  39.401   5.808  11.396
 1991W        W71806  25.153  43.878  14.907
 1992W        W71807  23.235   6.862  11.865
 1993W        W71808  36.504   1.972   0.269
 1994W        W71809  31.539  28.490   3.737
 1995W        W71810  40.332  22.145  11.396
 1996W        W71811  43.979  43.513  10.940
 1997W        W71812  17.183  21.754   1.364
 1998W        W71813   6.752  28.999  11.913
 1999W        W71814   8.885   0.260   1.843
 2000W        W71815   9.810  33.937  13.796
 2001W        W71816  20.752   8.234  10.537
 2002W        W71817  26.538  41.355  12.475
 2003W        W71818  19.560  34.370   3.801
 2004W        W71819  35.588  18.747  11.892
 2005W        W71820  24.659  18.670  14.492
 2006W        W71821  17.640  12.726  11.589
 2007W        W71822  16.650   2.855   3.226
 2008W        W71823  42.299  24.064   4.226
 2009W        W71824  19.116   7.228  10.558
 2010W        W71825  26.554  43.867   3.665
 2011W        W71826  25.139  42.972  14.883
 2012W        W71827  19.181  20.604   4.803
 2013W        W71828  18.758   6.266   4.116
 2014W        W71829  21.122  26.022  14.856
 2015W        W71830  29.119  14.170   3.769
 2016W        W71831   6.328  26.478  12.363
 2017W        W71832  27.107   7.319  10.461
 2018W        W71833  20.740  34.915   0.911
 2019W        W71834  27.512  10.710  11.062
 2020W        W71835  13.198  27.635  14.842
 2021W        W71836  18.233  13.347   3.292
 2022W        W71837   7.696  38.329  14.415
 2023W        W71838  34.459  28.042  12.544
 2024W        W71839  39.549  17.644  11.065
 2025W        W71840  13.265  37.535  14.881
 2026W        W71841  30.456  39.019   4.188
 2027W        W71842  43.484  40.999   3.655
 2028W        W71843  11.241  35.463   2.250
 2029W        W71844  34.614  41.798  14.390
 2030W        W71845  27.156  26.047   4.261
 2031W        W71846  43.772  12.793   0.796
 2032W        W71847   3.406  31.031   0.443
 2033W        W71848  18.197  18.781   2.205
 2034W        W71849  38.532  31.637  14.282
 2035W        W71850  10.336  36.074   1.796
 2036W        W71851  24.222  30.610   5.089
 2037W        W71852  40.495  29.955  12.965
 2038W        W71853   1.423   2.807  13.904
 2039W        W71854  37.379  29.130  11.955
 2040W        W71855   2.371  20.649  10.627
 2041W        W71856   7.855  13.604  11.118
 2042W        W71857  24.589  23.572  11.526
 2043W        W71858  43.302  20.149  14.984
 2044W        W71859  31.509   5.813   1.338
 2045W        W71860  30.491  20.524   3.255
 2046W        W71861  37.492  34.989  11.409
 2047W        W71862   8.180  22.740  11.405
 2048W        W71863  40.318  19.770   4.131
 2049W        W71864  37.034  22.145   1.727
 2050W        W71865  35.431  41.382   1.894
 2051W        W71866  20.213  24.096   2.665
 2052W        W71867  21.159  33.013   2.194
 2053W        W71868  31.114  12.706  14.990
 2054W        W71869   0.860  30.611  11.018
 2055W        W71870  41.786   1.349   1.224
 2056W        W71871  39.032   4.776   9.998
 2057W        W71872  13.285   8.215  12.016
 2058W        W71873  23.677   4.726   2.302
 2059W        W71874  13.298   8.705   5.266
 2060W        W71875  30.473  18.640   4.603
 2061W        W71876  26.130  21.204  10.454
 2062W        W71877  38.501  37.342  11.004
 2063W        W71878  11.675  40.846  12.451
 2064W        W71879  31.902  42.492  13.942
 2065W        W71880  38.463  36.922   0.311
 2066W        W71881  35.912  12.819   2.267
 2067W        W71882  25.595  10.270  10.102
 2068W        W71883   9.819  44.996  13.025
 2069W        W71884  42.486  20.537   4.123
 2070W        W71885  41.923   9.796  13.871
 2071W        W71886  28.931  35.987  12.008
 2072W        W71887  14.337  17.783   1.720
 2073W        W71888  39.400  29.548  14.835
 2074W        W71889   8.778   9.820  10.490
 2075W        W71890  17.208  37.009  13.327
 2076W        W71891  36.021  39.489  14.996
 2077W        W71892  32.985  17.559  12.558
 2078W        W71893  41.307   0.257   3.673
 2079W        W71894  28.931  16.690  13.537
 2080W        W71895  43.323  38.896   2.346
 2081W        W71896  33.073   1.768   4.625
 2082W        W71897  14.203  28.170   2.732
 2083W        W71898  19.099  13.721   0.727
 2084W        W71899  27.034  13.149   9.956
 2085W        W71900  25.482  31.581   1.921
 2086W        W71901  23.543  19.712  13.002
 2087W        W71902   7.275  30.126   2.266
 2088W        W71903  36.451  43.919  13.360
 2089W        W71904  38.504  43.392  12.899
 2090W        W71905  15.644  22.558   5.192
 2091W        W71906  16.794   6.242   0.965
 2092W        W71907   2.919  36.490  14.853
 2093W        W71908  11.711   6.735  11.502
 2094W        W71909  33.990  43.969   4.813
 2095W        W71910  41.043  39.442  12.832
 2096W        W71911   8.285  25.635  13.505
 2097W        W71912  35.088  41.001  14.472
 2098W        W71913  29.467  19.219  10.444
 2099W        W71914  11.316   2.904  14.923
 2100W        W71915  15.177  43.321  10.617
 2101W        W71916   9.727  19.277   0.751
 2102W        W71917  44.859  37.942   0.414
 2103W        W71918  34.081  27.476   1.253
 2104W        W71919  28.119  16.599   1.708
 2105W        W71920  19.725  14.676   4.337
 2106W        W71921  11.694  28.946   1.436
 2107W        W71922   3.776  24.004  13.860
 2108W        W71923   1.293  38.531  14.969
 2109W        W71924  22.554  21.719  11.522
 2110W        W71925   2.859   3.381   0.323
 2111W        W71926  39.396  43.459   0.410
 2112W        W71927  30.438  42.506   3.228
 2113W        W71928  27.135  32.610  13.010
 2114W        W71929  17.557  31.626  12.094
 2115W        W71930   5.225   8.843  14.299
 2116W        W71931   3.953  42.284   4.303
 2117W        W71932  36.067  16.074   2.763
 2118W        W71933  24.693  44.981   3.378
 2119W        W71934  24.987  18.629  14.005
 2120W        W71935   7.416  41.477   2.712
 2121W        W71936  27.132  29.492  12.343
 2122W        W71937  18.148  29.923   3.784
 2123W        W71938  26.172  25.585   4.719
 2124W        W71939  27.026  12.637   2.891
 2125W        W71940  24.190   8.357  10.539
 2126W        W71941   0.398  25.134  11.088
 2127W        W71942  39.496  12.279  13.931
 2128W        W71943  28.141  44.938   0.313
 2129W        W71944  35.432  29.936   1.704
 2130W        W71945  38.915  20.710   4.641
 2131W        W71946  41.820  25.695   4.149
 2132W        W71947  44.357  21.214  14.886
 2133W        W71948  25.142   7.359   3.794
 2134W        W71949  22.048  15.268   0.868
 2135W        W71950  40.027  37.417   1.414
 2136W        W71951  41.400   4.872   4.346
 2137W        W71952   1.293   9.819  13.063
 2138W        W71953  27.644  29.085  13.344
 2139W        W71954   5.309  11.760   0.451
 2140W        W71955   9.880   6.185  13.977
 2141W        W71956  27.688   2.236   3.792
 2142W        W71957  28.601  35.065   4.650
 2143W        W71958  25.470  20.526  12.903
 2144W        W71959  40.999   2.294  11.959
 2145W        W71960  32.415   7.694   3.840
 2146W        W71961   6.267  33.593  14.413
 2147W        W71962  19.663  33.952  13.790
 2148W        W71963  32.571  28.054   3.865
 2149W        W71964   6.366  33.120   1.345
 2150W        W71965   5.390  40.440  11.375
 2151W        W71966   7.887  17.138   3.673
 2152W        W71967  43.481  26.519  10.527
 2153W        W71968  15.636  22.202  13.515
 2154W        W71969   2.390  34.025  12.574
 2155W        W71970  36.569  25.619  10.971
 2156W        W71971  29.561  30.458   1.905
 2157W        W71972  19.623  28.518  10.583
 2158W        W71973  37.070  28.121  13.888
 2159W        W71974  28.660  40.983   1.253
 2160W        W71975   7.200  29.444  14.953
 2161W        W71976   0.848  34.892  13.486
 2162W        W71977  30.581  35.423  14.426
 2163W        W71978  43.845  24.694  13.005
 2164W        W71979   8.869  12.338   3.765
 2165W        W71980  15.699  16.230   1.393
 2166W        W71981   8.806  41.453   0.344
 2167W        W71982  38.880  38.872  13.493
 2168W        W71983  20.064  30.037  13.373
 2169W        W71984  10.227  44.491   1.812
 2170W        W71985  27.090  41.406   5.151
 2171W        W71986  16.181  18.563  10.422
 2172W        W71987   9.351  17.164   4.241
 2173W        W71988  20.211  21.530  14.274
 2174W        W71989  30.488  40.425   2.256
 2175W        W71990  33.900  40.905   2.899
 2176W        W71991  34.935   6.395  14.322
 2177W        W71992  28.568  19.666  11.870
 2178W        W71993   3.392  40.400   1.377
 2179W        W71994   8.738  15.122  11.093
 2180W        W71995  28.512  16.304  12.535
 2181W        W71996  22.127  39.900  12.384
 2182W        W71997  31.912  10.830   1.932
 2183W        W71998   0.316  11.699  14.506
 2184W        W71999  23.182  41.939   0.934
 2185W        W72000   9.649  33.481  13.865
 2186W        W72001   0.959  17.677  13.950
 2187W        W72002  23.498   8.226  13.850
 2188W        W72003  38.554  35.553  11.531
 2189W        W72004  20.079  30.090  11.608
 2190W        W72005  21.230   8.700  10.075
 2191W        W72006  15.206  24.506  13.868
 2192W        W72007  16.723   5.280  12.343
 2193W        W72008  31.962  35.905   0.272
 2194W        W72009  11.290   7.688   3.631
 2195W        W72010  21.146   5.289  14.297
 2196W        W72011  22.153  24.565  11.015
 2197W        W72012  23.214  20.029   0.261
 2198W        W72013  34.564   4.417  11.563
 2199W        W72014  36.557  29.102   4.312
 2200W        W72015  37.915  24.649  11.889
 2201W        W72016  42.296   9.889  11.610
 2202W        W72017  10.741  33.501  10.486
 2203W        W72018  38.499  10.272   1.221
 2204W        W72019  20.725   2.385   4.138
 2205W        W72020  35.488  19.270  13.891
 2206W        W72021   7.811  31.936   3.659
 2207W        W72022  28.581  10.786  11.049
 2208W        W72023   3.947  25.703  10.448
 2209W        W72024  29.596   2.343  12.476
 2210W        W72025  39.818  12.200  14.325
 2211W        W72026  41.815  39.442  10.625
 2212W        W72027   7.720  32.004   1.799
 2213W        W72028  11.682  41.991  14.770
 2214W        W72029  18.173   8.766   4.830
 2215W        W72030  41.928   8.765   0.432
 2216W        W72031  10.162  29.040   3.655
 2217W        W72032  19.133  10.833   0.951
 2218W        W72033  18.641   1.791   4.313
 2219W        W72034  11.275  39.001  12.834
 2220W        W72035   3.840  21.194   3.347
 2221W        W72036  29.575  18.069   1.304
 2222W        W72037  14.210   5.877   1.926
 2223W        W72038   3.817  35.499  10.493
 2224W        W72039  32.623  11.361  14.805
 2225W        W72040   1.420  37.467  11.990
 2226W        W72041   9.348  18.083  11.606
 2227W        W72042  15.706  23.607  13.946
 2228W        W72043  19.044  35.591  12.011
 2229W        W72044  38.550  35.100   0.433
 2230W        W72045  34.932  24.988  11.480
 2231W        W72046  12.818  43.340  11.547
 2232W        W72047  36.351   7.778  13.473
 2233W        W72048  19.571  39.939  14.918
 2234W        W72049  14.678  17.744   4.353
 2235W        W72050  23.187  36.418   3.213
 2236W        W72051  44.414  16.212  10.421
 2237W        W72052  24.139  24.045  12.466
 2238W        W72053   3.300   5.290   0.808
 2239W        W72054  32.996  37.000  11.006
 2240W        W72055  20.038  43.823  13.535
 2241W        W72056   1.305  25.168  11.974
 2242W        W72057   2.870  42.775  11.534
 2243W        W72058  25.986  13.291   0.371
 2244W        W72059  39.521  30.085  11.120
 2245W        W72060  21.080  27.163   2.366
 2246W        W72061  35.370  34.980   1.707
 2247W        W72062   0.271  10.853  14.302
 2248W        W72063  35.506  23.994   2.816
 2249W        W72064  22.741  26.016  14.275
 2250W        W72065   2.940  37.541   0.832
 2251W        W72066  33.893  34.459   4.779
 2252W        W72067  24.029  34.019   4.650
 2253W        W72068  30.079  22.037   3.782
 2254W        W72069  11.238   7.236   2.665
 2255W        W72070  28.007  20.042  13.460
 2256W        W72071  40.963  31.494   0.793
 2257W        W72072  20.258  26.181  13.387
 2258W        W72073  16.674  24.016  10.573
 2259W        W72074  29.660  31.473  13.335
 2260W        W72075  29.061  39.978  12.849
 2261W        W72076  39.536  37.048  13.391
 2262W        W72077  20.180  33.037  14.334
 2263W        W72078  12.707   1.809   1.235
 2264W        W72079   3.460  35.492  13.355
 2265W        W72080  27.580  30.448   3.734
 2266W        W72081  26.566   9.820   5.210
 2267W        W72082  43.314  35.912  14.916
 2268W        W72083   4.420  34.014   1.778
 2269W        W72084  11.740  28.086  13.543
 2270W        W72085   7.323  22.567  10.925
 2271W        W72086   9.182  27.174  14.944
 2272W        W72087  35.030  13.778   1.332
 2273W        W72088  38.918  12.841  12.981
 2274W        W72089  40.344  34.380   1.227
 2275W        W72090  10.764  20.127   4.233
 2276W        W72091  34.452  15.187   4.196
 2277W        W72092  34.892  19.137   0.945
 2278W        W72093  17.091  40.046  13.848
 2279W        W72094   6.367  16.699  14.887
 2280W        W72095  41.357   5.387   3.248
 2281W        W72096  38.439  21.595   3.222
 2282W        W72097   0.964   5.857   2.414
 2283W        W72098   9.168   1.801   4.185
 2284W        W72099  16.711  43.411  13.939
 2285W        W72100  11.792  16.294   2.776
 2286W        W72101  37.526   0.845   5.260
 2287W        W72102  19.641  31.419  10.896
 2288W        W72103  19.674  13.222   0.445
 2289W        W72104  12.315   3.829  10.565
 2290W        W72105  20.601  44.350  11.970
 2291W        W72106  26.470  23.513  13.903
 2292W        W72107  37.478   4.849   4.213
 2293W        W72108  10.206  25.111  11.965
 2294W        W72109  26.602  17.708  12.399
 2295W        W72110  18.168   5.812  13.521
 2296W        W72111   1.395   9.786   2.796
 2297W        W72112  36.593  35.485   3.302
 2298W        W72113  33.478  20.190  12.013
 2299W        W72114  11.281  17.607   0.884
 2300W        W72115  12.774  32.458  10.467
 2301W        W72116  27.141  12.254   4.828
 2302W        W72117  26.042   2.386   4.208
 2303W        W72118  39.981   2.241   1.918
 2304W        W72119  34.511  39.447  10.974
 2305W        W72120  11.155  19.244  12.389
 2306W        W72121  44.941   5.223  10.958
 2307W        W72122  31.635   5.385   0.730
 2308W        W72123  33.010  26.687  11.573
 2309W        W72124  26.177  13.314  14.344
 2310W        W72125  31.947  10.808  14.334
 2311W        W72126  18.706   5.405   2.378
 2312W        W72127  30.588  23.090  12.972
 2313W        W72128  44.842  36.068  13.872
 2314W        W72129  21.747  27.660  10.989
 2315W        W72130  34.471  24.213   4.765
 2316W        W72131   7.386  31.925   4.316
 2317W        W72132  43.850   0.984   3.267
 2318W        W72133  22.535  16.678  12.971
 2319W        W72134   7.269   7.882  11.861
 2320W        W72135  16.783  23.171   3.684
 2321W        W72136  26.103  44.367  13.046
 2322W        W72137  20.696  19.193   0.424
 2323W        W72138   2.754  40.009   0.453
 2324W        W72139   8.842  36.457  13.961
 2325W        W72140  34.984  25.160  10.077
 2326W        W72141  11.209  13.636   1.428
 2327W        W72142  15.310  31.548  11.074
 2328W        W72143  25.973  40.955  11.467
 2329W        W72144   2.818  30.581  13.045
 2330W        W72145  18.223   5.375  12.467
 2331W        W72146  13.724  36.844   0.453
 2332W        W72147  16.728  25.643   4.829
 2333W        W72148  40.506  17.787  13.880
 2334W        W72149  26.586  31.144  13.792
 2335W        W72150   8.265  25.649   0.476
 2336W        W72151  16.095   5.398  10.584
 2337W        W72152  28.011  14.276  11.931
 2338W        W72153  20.646  18.727   1.336
 2339W        W72154  20.714   7.887  14.869
 2340W        W72155   7.386  39.447  12.996
 2341W        W72156  26.112  43.961  13.048
 2342W        W72157  41.941  25.026   0.833
 2343W        W72158  39.057  18.150   4.345
 2344W        W72159  35.004   3.930  12.412
 2345W        W72160  42.301  28.437  14.032
 2346W        W72161  22.122  28.952  11.604
 2347W        W72162  27.511  10.862  10.434
 2348W        W72163   8.277  31.990  12.446
 2349W        W72164  26.980  12.333   2.193
 2350W        W72165  23.012  19.227  11.479
 2351W        W72166  38.830  32.077  12.834
 2352W        W72167  38.388  30.447  11.036
 2353W        W72168  25.158  40.962  10.548
 2354W        W72169  24.011   6.784  13.321
 2355W        W72170  36.854  18.076  13.439
 2356W        W72171  25.988  44.307   4.345
 2357W        W72172  10.842  33.511   3.331
 2358W        W72173  38.357  36.540   2.885
 2359W        W72174  41.823  44.290   2.304
 2360W        W72175  24.171  43.490  11.923
 2361W        W72176  19.074  22.241  14.794
 2362W        W72177  26.006  17.170   0.945
 2363W        W72178   8.877  14.637   0.353
 2364W        W72179  38.024  42.806   3.180
 2365W        W72180  25.656  44.903  13.459
 2366W        W72181   5.221  36.071  12.061
 2367W        W72182   1.328  24.119  11.937
 2368W        W72183  34.979   0.743  14.415
 2369W        W72184  32.631  17.137   3.645
 2370W        W72185  21.674  34.006  11.972
 2371W        W72186   7.671  19.539  12.402
 2372W        W72187  11.735  10.366  10.159
 2373W        W72188   2.409   3.221  12.830
 2374W        W72189  10.183   2.957  14.431
 2375W        W72190   3.714  44.833  13.381
 2376W        W72191  31.493  42.397  12.047
 2377W        W72192   8.812  40.525  12.856
 2378W        W72193   3.252  14.834  12.454
 2379W        W72194  41.945  21.074   0.327
 2380W        W72195  37.475   8.370   3.254
 2381W        W72196  29.629   6.220   4.319
 2382W        W72197   2.371  40.418  12.076
 2383W        W72198  27.974  13.235   0.405
 2384W        W72199  44.944  12.722  14.889
 2385W        W72200  39.399  32.576   2.836
 2386W        W72201  33.034   7.173  13.532
 2387W        W72202   0.371  20.153  10.910
 2388W        W72203  39.865  23.604   3.775
 2389W        W72204  36.005  18.696   1.868
 2390W        W72205  27.101  11.700  14.429
 2391W        W72206  12.358   4.372   1.447
 2392W        W72207  20.057  27.627   3.870
 2393W        W72208  39.982  11.259  12.569
 2394W        W72209  35.079  34.613  10.895
 2395W        W72210  34.011  33.593   3.756
 2396W        W72211  35.946   4.210   0.750
 2397W        W72212   6.251   9.690  10.983
 2398W        W72213  17.178  30.431  12.559
 2399W        W72214  20.051  26.171  10.552
 2400W        W72215  35.502  15.808   1.861
 2401W        W72216  33.004  16.100   2.854
 2402W        W72217  36.455  30.553   2.217
 2403W        W72218  20.548   9.653   3.249
 2404W        W72219  10.698  16.161   2.718
 2405W        W72220  42.323  37.876   3.751
 2406W        W72221  21.079  39.007   0.293
 2407W        W72222  23.693  39.870  10.041
 2408W        W72223   9.821   6.334   0.473
 2409W        W72224  37.383  44.466   1.240
 2410W        W72225  35.578  27.150  14.370
 2411W        W72226   2.889  27.561  14.901
 2412W        W72227  31.456  43.313   1.824
 2413W        W72228  37.473  27.516   4.273
 2414W        W72229  19.284  33.091  11.114
 2415W        W72230  20.262  25.615  10.889
 2416W        W72231   2.900  29.543   1.264
 2417W        W72232  41.029   4.925   0.292
 2418W        W72233  32.430  16.124  10.986
 2419W        W72234  13.731   0.969   1.883
 2420W        W72235  33.025  13.838  12.941
 2421W        W72236  19.163  11.129  12.368
 2422W        W72237  26.523  13.110   2.814
 2423W        W72238  29.569  39.987   4.184
 2424W        W72239  11.811  19.050  10.913
 2425W        W72240  24.108  22.229  10.517
 2426W        W72241  24.112  37.010  14.438
 2427W        W72242  44.885  33.117  10.501
 2428W        W72243  14.307   3.943  12.922
 2429W        W72244  34.917  18.677  14.377
 2430W        W72245  30.486  23.668  13.346
 2431W        W72246   4.406  16.795  10.993
 2432W        W72247  33.620  23.056  10.409
 2433W        W72248  33.593  14.139  14.411
 2434W        W72249  22.591  43.791  12.386
 2435W        W72250  12.810  24.231  14.005
 2436W        W72251  32.412   3.786  10.914
 2437W        W72252  32.064   4.277   0.443
 2438W        W72253  11.725  18.088   2.669
 2439W        W72254  16.179   7.374   4.833
 2440W        W72255  30.432  32.040   2.311
 2441W        W72256  21.167  23.140  11.931
 2442W        W72257   3.860  32.465   4.679
 2443W        W72258  38.500  14.097  14.825
 2444W        W72259  39.878  27.643  14.438
 2445W        W72260  19.148  30.538  11.112
 2446W        W72261  18.211  36.860  10.493
 2447W        W72262   3.884  22.706  14.389
 2448W        W72263  44.917  19.182  11.478
 2449W        W72264  38.983  25.127   4.617
 2450W        W72265  25.475  10.219  11.431
 2451W        W72266  39.018  25.114   2.901
 2452W        W72267  12.173  14.302   0.345
 2453W        W72268  14.253  33.065   4.772
 2454W        W72269  15.189   4.829   1.410
 2455W        W72270  44.318   9.222   3.783
 2456W        W72271  17.599  24.006  10.471
 2457W        W72272  22.610  11.206  10.550
 2458W        W72273   4.701  42.016   5.233
 2459W        W72274  26.059  32.543  13.940
 2460W        W72275  19.113  12.281   4.192
 2461W        W72276  30.598  39.927  13.443
 2462W        W72277  32.930  13.775   3.694
 2463W        W72278   8.226   3.729   1.425
 2464W        W72279  21.057  30.426   4.205
 2465W        W72280  18.246  29.967  13.477
 2466W        W72281   7.741  16.630   1.254
 2467W        W72282  23.023  30.949  12.847
 2468W        W72283  30.567  12.305   1.226
 2469W        W72284  15.790   7.217   0.839
 2470W        W72285  16.318  39.838   4.335
 2471W        W72286  28.668  43.922  13.955
 2472W        W72287  32.460   4.833  12.469
 2473W        W72288  42.803   2.808   3.798
 2474W        W72289  35.514  26.046   2.269
 2475W        W72290   4.402  44.442  10.989
 2476W        W72291  33.988  17.134  13.009
 2477W        W72292   0.437  28.096   4.730
 2478W        W72293   0.367  40.030  12.881
 2479W        W72294  31.564  27.531   4.736
 2480W        W72295   7.373  42.871  10.902
 2481W        W72296   7.202  27.587   4.194
 2482W        W72297  44.288  23.627   2.790
 2483W        W72298   2.464  30.523   1.829
 2484W        W72299  25.048  14.252   3.269
 2485W        W72300  34.896   1.913  12.852
 2486W        W72301  21.060  22.560   2.217
 2487W        W72302  35.550  20.113  11.930
 2488W        W72303  40.441  25.626   1.247
 2489W        W72304  14.284  30.990  11.953
 2490W        W72305  10.268  13.233   2.383
 2491W        W72306  44.772   8.667   0.357
 2492W        W72307   4.702   4.857   4.163
 2493W        W72308  13.321  18.583  14.371
 2494W        W72309   3.341  15.171  13.818
 2495W        W72310  35.407  39.988  14.927
 2496W        W72311   9.667  25.190  12.563
 2497W        W72312  32.049  18.731   2.392
 2498W        W72313  39.878  34.031   4.224
 2499W        W72314  16.126  16.130   0.242
 2500W        W72315  41.005  25.138   0.890
 2501W        W72316  26.547   6.373  13.872
 2502W        W72317   0.289  31.953  12.347
 2503W        W72318   4.361   9.286  10.529
 2504W        W72319  33.957  15.638   3.825
 2505W        W72320   2.235   5.277   2.742
 2506W        W72321   2.748   9.826  13.958
 2507W        W72322  30.995  31.575  14.821
 2508W        W72323   6.828  32.142   3.823
 2509W        W72324  16.165  14.117  12.013
 2510W        W72325  43.406  38.475   3.812
 2511W        W72326  25.603  13.250  14.490
 2512W        W72327  21.608  43.513  11.930
 2513W        W72328   6.262   9.704  12.994
 2514W        W72329  25.034  15.619   2.855
 2515W        W72330  21.546  25.685   0.386
 2516W        W72331  34.474  23.224  12.460
 2517W        W72332  12.327  37.056   2.872
 2518W        W72333   3.303  16.197  11.862
 2519W        W72334  31.020  32.629  14.773
 2520W        W72335  40.957  29.002  13.506
 2521W        W72336  41.882  19.126  12.062
 2522W        W72337  20.227  30.160  14.007
 2523W        W72338  13.208  15.255   3.815
 2524W        W72339  18.686  16.800  14.861
 2525W        W72340  16.625   3.953   1.295
 2526W        W72341  10.192  26.085  10.036
 2527W        W72342  10.862  34.551  10.640
 2528W        W72343  16.299  23.139   3.350
 2529W        W72344  23.001  21.158   3.715
 2530W        W72345  24.583  33.438  10.579
 2531W        W72346  21.042  17.721  12.425
 2532W        W72347  36.848  24.090   3.798
 2533W        W72348  12.186  14.289  12.530
 2534W        W72349  43.416  10.672  12.082
 2535W        W72350   9.270  39.022  11.600
 2536W        W72351  26.198  38.446   3.260
 2537W        W72352  36.543   5.381   0.872
 2538W        W72353  44.783  14.148   2.371
 2539W        W72354  31.908  11.847  10.939
 2540W        W72355  10.641   8.740  11.047
 2541W        W72356   7.693  43.925  13.895
 2542W        W72357  33.910  29.947   4.609
 2543W        W72358  12.747  22.626  14.804
 2544W        W72359  39.980  41.879   1.422
 2545W        W72360   1.733  12.327  11.045
 2546W        W72361   4.215  18.170   3.212
 2547W        W72362  42.467  40.917   1.369
 2548W        W72363   1.802  43.420   3.375
 2549W        W72364  32.452  23.634  13.876
 2550W        W72365  37.358  32.523   0.931
 2551W        W72366  44.271  43.472  10.588
 2552W        W72367  38.565   6.716   4.170
 2553W        W72368  12.124  34.558  14.024
 2554W        W72369  27.947  13.247   1.811
 2555W        W72370  43.340  10.153  14.882
 2556W        W72371  31.485  33.467   1.719
 2557W        W72372  31.946  23.644  10.447
 2558W        W72373  32.615  33.566   0.366
 2559W        W72374  32.619  33.894   0.458
 2560W        W72375  32.112   5.886   3.703
 2561W        W72376  24.041  41.019   2.395
 2562W        W72377  41.010  24.682  13.971
 2563W        W72378  10.791  26.633  12.525
 2564W        W72379  41.308  35.017  12.501
 2565W        W72380  27.638  28.168  13.945
 2566W        W72381  28.162  41.424   0.454
 2567W        W72382  42.008  30.910   3.786
 2568W        W72383  31.994  28.940   0.308
 2569W        W72384  30.937  41.390  12.971
 2570W        W72385  40.898   1.902   4.170
 2571W        W72386  27.475  16.647  13.419
 2572W        W72387  35.563   3.451   2.287
 2573W        W72388  22.588  35.857   5.096
 2574W        W72389  38.034  31.404   3.146
 2575W        W72390  36.516   9.358   2.799
 2576W        W72391  33.579   0.413  13.406
 2577W        W72392   1.970  22.119   1.913
 2578W        W72393  33.036  10.854   3.335
 2579W        W72394  33.907  30.464  11.586
 2580W        W72395  14.200  41.787  14.900
 2581W        W72396  15.674   1.761  13.998
 2582W        W72397  35.858  39.880  10.481
 2583W        W72398  12.758  38.073   3.163
 2584W        W72399  34.879  38.073   3.761
 2585W        W72400  37.338  38.041  13.844
 2586W        W72401  25.106  12.233  13.428
 2587W        W72402  18.225  27.602  13.041
 2588W        W72403  18.554   9.351  11.077
 2589W        W72404  24.133   2.339  11.490
 2590W        W72405  34.486  27.608  13.835
 2591W        W72406  26.112   8.809  14.387
 2592W        W72407  18.093  26.485  11.895
 2593W        W72408   9.810  17.671   5.184
 2594W        W72409   3.730  32.450  11.921
 2595W        W72410  29.095   4.760  11.870
 2596W        W72411  14.592  11.670   0.279
 2597W        W72412   2.267  36.538   1.363
 2598W        W72413  34.586  16.077  12.015
 2599W        W72414  44.763  36.090   3.360
 2600W        W72415  34.608   9.875  11.959
 2601W        W72416   0.346   1.758  13.518
 2602W        W72417  44.362  41.536  11.522
 2603W        W72418  23.538  44.787   2.728
 2604W        W72419  32.432  10.337  14.931
 2605W        W72420  10.648   3.913   3.169
 2606W        W72421  28.662  41.526  10.471
 2607W        W72422  39.885  21.555   2.732
 2608W        W72423  24.099  44.370   2.264
 2609W        W72424   2.441  19.107   1.899
 2610W        W72425  19.718   2.895  12.823
 2611W        W72426  17.651  11.181  13.933
 2612W        W72427  40.427  38.421   3.768
 2613W        W72428   2.350  43.475  12.046
 2614W        W72429  33.541  13.763  11.954
 2615W        W72430  20.637  38.952   0.947
 2616W        W72431  16.792  23.732  11.947
 2617W        W72432  10.175   1.396   3.159
 2618W        W72433  15.196  16.148   1.864
 2619W        W72434  20.107  21.092  13.877
 2620W        W72435  31.599  42.444  13.377
 2621W        W72436  29.023   1.949   3.642
 2622W        W72437  36.408   3.951   4.328
 2623W        W72438   2.900  25.681   0.898
 2624W        W72439   4.287  27.085  10.412
 2625W        W72440  18.741  10.257   5.175
 2626W        W72441  14.271  25.605  10.477
 2627W        W72442  39.348  26.033  11.861
 2628W        W72443  12.357   9.727  11.519
 2629W        W72444  27.637  14.310  14.886
 2630W        W72445  43.009  17.243   1.313
 2631W        W72446  35.587   2.938   2.728
 2632W        W72447  34.392  28.523  14.477
 2633W        W72448  25.981  23.032   2.308
 2634W        W72449  39.892  41.354  11.086
 2635W        W72450   4.881  13.767  11.948
 2636W        W72451  15.317  37.075  13.390
 2637W        W72452   0.964  35.562  14.801
 2638W        W72453  39.540  30.564  11.394
 2639W        W72454  20.740  41.387  12.439
 2640W        W72455  10.309  37.540  14.338
 2641W        W72456  19.106  27.196  13.890
 2642W        W72457   7.855   0.880   0.395
 2643W        W72458  40.403  35.464   4.296
 2644W        W72459  33.046  27.168  12.915
 2645W        W72460   9.884  30.531   4.329
 2646W        W72461  27.975   2.865  10.527
 2647W        W72462   9.823  30.510  12.565
 2648W        W72463   7.209  26.052  10.601
 2649W        W72464  33.520  38.482   4.224
 2650W        W72465  17.256  35.547   0.752
 2651W        W72466  12.209  43.376  14.834
 2652W        W72467  39.040  13.127   2.290
 2653W        W72468  14.686  25.572  12.377
 2654W        W72469  35.928  32.619   1.220
 2655W        W72470  23.234   8.862  13.527
 2656W        W72471  39.363  27.553  14.508
 2657W        W72472  21.133  10.700  12.520
 2658W        W72473  41.517  31.950  14.337
 2659W        W72474  17.159  15.162  14.340
 2660W        W72475  38.066  33.122  11.074
 2661W        W72476  28.444  21.082  10.453
 2662W        W72477  44.490  20.135  14.393
 2663W        W72478  20.542  36.423  11.068
 2664W        W72479  35.104  39.363   1.428
 2665W        W72480  39.401   8.172  10.104
 2666W        W72481  16.228  38.563  13.910
 2667W        W72482  24.593  22.057  13.984
 2668W        W72483  28.465   0.418  11.051
 2669W        W72484   8.803   2.722   3.783
 2670W        W72485  15.183  35.498   4.806
 2671W        W72486   7.281  30.940   2.759
 2672W        W72487  17.170   5.367   2.239
 2673W        W72488   0.989   4.824  13.972
 2674W        W72489  37.351  29.042  11.517
 2675W        W72490   1.329  12.310   1.826
 2676W        W72491  23.580  26.992  12.459
 2677W        W72492  18.051  10.172  12.000
 2678W        W72493  38.844  42.962   5.153
 2679W        W72494  14.307  32.926  11.382
 2680W        W72495  18.115  14.812   4.681
 2681W        W72496  43.012  33.985  14.954
 2682W        W72497  39.517  10.767   0.803
 2683W        W72498  38.483   3.461  13.950
 2684W        W72499  28.605  34.588   4.691
 2685W        W72500  33.084  13.734  13.827
 2686W        W72501  43.363  14.124  11.124
 2687W        W72502  40.449   2.869   2.778
 2688W        W72503  18.292  25.081   3.823
 2689W        W72504  17.650  34.914   1.268
 2690W        W72505  11.216  16.588   3.156
 2691W        W72506  44.464  37.077   4.729
 2692W        W72507   0.948  37.957   4.264
 2693W        W72508  26.494   9.692   3.823
 2694W        W72509   2.323  10.201   3.739
 2695W        W72510  10.272  38.335   2.673
 2696W        W72511   2.420  39.011  11.055
 2697W        W72512  27.568   6.270   2.276
 2698W        W72513  27.131  33.919   2.180
 2699W        W72514  20.719  42.976  13.912
 2700W        W72515  43.871  38.927  11.414
 2701W        W72516   9.275  37.831   2.229
 2702W        W72517  38.469  39.375   0.478
 2703W        W72518  40.385  25.002   1.353
 2704W        W72519   2.461  31.492  13.851
 2705W        W72520  33.578  34.440   9.950
 2706W        W72521  42.403  34.413   1.773
 2707W        W72522  42.520   6.401   4.320
 2708W        W72523  15.165  34.421  14.971
 2709W        W72524   0.946   6.744   0.945
 2710W        W72525   3.437  34.011   1.774
 2711W        W72526  11.812  29.620  13.848
 2712W        W72527  12.180   9.382  12.857
 2713W        W72528  43.288  41.342   4.825
 2714W        W72529  19.749  17.791  13.815
 2715W        W72530  21.580  13.186   4.733
 2716W        W72531  38.503   8.698   4.834
 2717W        W72532  44.480  37.340   1.379
 2718W        W72533  15.284  29.056  12.998
 2719W        W72534  36.870  17.675   1.356
 2720W        W72535  41.996  12.275  11.581
 2721W        W72536  19.675  24.533   3.149
 2722W        W72537  37.940   9.781  13.318
 2723W        W72538  33.976   1.463   4.173
 2724W        W72539  14.726  13.653   2.717
 2725W        W72540  38.457   3.384  14.445
 2726W        W72541  22.066  33.552   3.200
 2727W        W72542  42.987  26.502  14.766
 2728W        W72543  40.436  21.596   4.606
 2729W        W72544  31.914  42.374   4.770
 2730W        W72545   2.366  16.246   2.751
 2731W        W72546  17.723  19.080  11.499
 2732W        W72547  16.713  23.659  12.429
 2733W        W72548  30.143  23.550   0.946
 2734W        W72549  16.576   3.406  12.437
 2735W        W72550  42.939  32.034  14.943
 2736W        W72551  26.631  41.921  13.389
 2737W        W72552  40.046   1.454   4.746
 2738W        W72553  14.637  34.959   0.414
 2739W        W72554  20.210   9.267   0.244
 2740W        W72555  33.946  36.475  13.932
 2741W        W72556   6.869   1.384   3.869
 2742W        W72557  32.012  16.804  14.486
 2743W        W72558  22.666  13.170   1.260
 2744W        W72559   0.328   0.835  10.406
 2745W        W72560  40.405  43.908   0.466
 2746W        W72561  40.396   1.302   2.203
 2747W        W72562  12.193  43.372   4.647
 2748W        W72563  24.688   9.212  12.871
 2749W        W72564  17.235  40.418   0.855
 2750W        W72565  34.062  15.123  12.512
 2751W        W72566   2.342  31.559  10.475
 2752W        W72567   0.821  14.189  14.434
 2753W        W72568  23.580  37.430  12.429
 2754W        W72569  24.580  29.062  11.084
 2755W        W72570  14.680  36.842   3.176
 2756W        W72571  40.880   6.867  14.884
 2757W        W72572  10.178  18.679  10.445
 2758W        W72573   4.415   6.271  10.497
 2759W        W72574  39.415  16.271   4.801
 2760W        W72575  25.151  30.456   2.825
 2761W        W72576  17.747  42.518   2.344
 2762W        W72577   4.735  23.633  14.854
 2763W        W72578   4.303  43.873   4.724
 2764W        W72579  32.402  31.069  11.071
 2765W        W72580  44.913   5.718  12.533
 2766W        W72581   5.197  44.385   0.809
 2767W        W72582  16.133  38.903   4.339
 2768W        W72583   4.342   3.302  11.072
 2769W        W72584  38.064  37.496   2.786
 2770W        W72585  14.704  42.003  13.513
 2771W        W72586  12.349  34.578   3.839
 2772W        W72587  24.124  15.785  12.826
 2773W        W72588  31.580  41.865   1.876
 2774W        W72589  28.484  28.656   2.200
 2775W        W72590   0.346  37.078  13.992
 2776W        W72591  18.141  12.237  10.415
 2777W        W72592  32.980  38.932  10.902
 2778W        W72593  22.024  41.920  12.428
 2779W        W72594  13.310   3.908   0.414
 2780W        W72595  35.575   9.835  11.403
 2781W        W72596   9.298  32.986   1.246
 2782W        W72597   6.765  27.672   1.339
 2783W        W72598  23.575  11.758  12.001
 2784W        W72599   2.358   6.777   4.750
 2785W        W72600  18.259  13.763  11.512
 2786W        W72601  33.391  21.597  12.930
 2787W        W72602  22.696   8.832   1.795
 2788W        W72603  22.540  27.945  12.526
 2789W        W72604  31.078   3.904  12.362
 2790W        W72605  30.499  13.147   0.264
 2791W        W72606  15.268  31.997  11.393
 2792W        W72607  17.082   5.718   3.367
 2793W        W72608  19.063  44.407   2.202
 2794W        W72609  40.360  43.333  11.971
 2795W        W72610  30.931  11.748  12.848
 2796W        W72611   7.387  15.632  14.313
 2797W        W72612  40.344   7.393  12.405
 2798W        W72613   8.743  14.665   4.248
 2799W        W72614  39.055  39.877  12.398
 2800W        W72615  12.834  42.951   2.892
 2801W        W72616   2.415   6.244  12.511
 2802W        W72617  29.484  25.111   4.284
 2803W        W72618  12.814  42.973  12.027
 2804W        W72619  37.471   2.377   4.756
 2805W        W72620  37.396   0.921   1.731
 2806W        W72621  35.959  24.601   3.863
 2807W        W72622   0.796  13.133  14.997
 2808W        W72623  32.947   8.663   2.779
 2809W        W72624   7.219  40.397   0.831
 2810W        W72625  40.836  11.846  14.991
 2811W        W72626   6.213  19.535   2.843
 2812W        W72627  14.800   2.803   3.182
 2813W        W72628  38.825  23.151   0.811
 2814W        W72629  31.104  22.147   1.427
 2815W        W72630  14.226  35.038  13.958
 2816W        W72631  39.461  33.464   4.608
 2817W        W72632   6.281  36.581   0.848
 2818W        W72633  35.958  39.039  14.900
 2819W        W72634  19.543  11.823   0.799
 2820W        W72635  30.141  32.061   3.344
 2821W        W72636  37.943   4.873  13.044
 2822W        W72637  23.989  28.487  13.045
 2823W        W72638  34.521  36.989  12.077
 2824W        W72639  41.851  30.977   4.750
 2825W        W72640  42.319  22.542  12.903
 2826W        W72641   4.882   8.714   5.140
 2827W        W72642  17.308  14.600  10.058
 2828W        W72643  11.649  28.436  13.442
 2829W        W72644   6.414  42.434  10.997
 2830W        W72645   0.771   4.801   3.260
 2831W        W72646  36.977  17.271   1.434
 2832W        W72647  15.163   6.369   1.269
 2833W        W72648   2.827   7.295  14.500
 2834W        W72649  36.565  41.309  12.464
 2835W        W72650  44.829  34.506   0.394
 2836W        W72651  19.193   4.917  11.586
 2837W        W72652   0.858  37.355   4.186
 2838W        W72653  30.925  40.986   4.685
 2839W        W72654  29.017  19.653  10.498
 2840W        W72655  13.803  43.864  11.994
 2841W        W72656  20.255  13.678  13.526
 2842W        W72657  15.722  18.699  11.000
 2843W        W72658   2.345  12.655   4.665
 2844W        W72659  36.064  42.841  12.914
 2845W        W72660  21.526  22.042  14.018
 2846W        W72661  35.595  29.163  13.995
 2847W        W72662  35.598  17.097  12.419
 2848W        W72663   0.952  10.210  11.469
 2849W        W72664  30.523  18.755   3.166
 2850W        W72665  38.354   3.290  14.798
 2851W        W72666   2.452  13.273   0.378
 2852W        W72667   1.331  36.902  11.476
 2853W        W72668  44.329  29.576   4.313
 2854W        W72669   2.771  21.539   1.227
 2855W        W72670   1.736   8.749  12.930
 2856W        W72671  25.024   3.263  11.005
 2857W        W72672  25.173  42.443   1.373
 2858W        W72673  25.546  36.403  11.380
 2859W        W72674  42.018  32.913  13.845
 2860W        W72675  16.104   7.902   4.765
 2861W        W72676   4.724   8.674   1.883
 2862W        W72677  42.909  17.777  10.978
 2863W        W72678  41.929  19.068  12.359
 2864W        W72679  44.353  37.511   2.835
 2865W        W72680  30.110  38.905   4.281
 2866W        W72681  14.821  27.447   4.784
 2867W        W72682  36.481   4.869   1.270
 2868W        W72683   6.837  27.451  12.466
 2869W        W72684  42.891  30.027  14.441
 2870W        W72685  34.592  37.953  14.854
 2871W        W72686   1.355   0.371   4.656
 2872W        W72687   4.834  22.747   0.899
 2873W        W72688   8.280  30.918  14.944
 2874W        W72689  39.323  30.139  11.555
 2875W        W72690  21.138  35.542  10.466
 2876W        W72691  37.383  12.729  12.089
 2877W        W72692  33.127  18.128  14.300
 2878W        W72693  28.670  26.628  13.951
 2879W        W72694   2.936   8.701  13.842
 2880W        W72695  28.490  44.398   3.361
 2881W        W72696  26.964  18.633  10.630
 2882W        W72697   5.338  17.217   4.116
 2883W        W72698  22.730  28.482   3.172
 2884W        W72699  25.188  31.117   5.232
 2885W        W72700  28.157  20.137   2.357
 2886W        W72701   6.749  21.546   3.290
 2887W        W72702  21.042  36.580   1.322
 2888W        W72703  35.598  12.839   3.348
 2889W        W72704   5.262  41.433  13.376
 2890W        W72705  25.160  23.507   4.254
 2891W        W72706  10.636  15.798   1.828
 2892W        W72707  38.073  32.970   3.172
 2893W        W72708  22.699  38.448   0.920
 2894W        W72709   7.845  35.560  11.395
 2895W        W72710  38.546  10.843  12.018
 2896W        W72711  41.001  27.654  13.471
 2897W        W72712  11.780  23.643   2.794
 2898W        W72713  37.005  44.380  11.427
 2899W        W72714  15.141  35.876  13.880
 2900W        W72715   1.964  31.076  13.488
 2901W        W72716  25.611  15.320  14.894
 2902W        W72717  18.196   4.419   4.264
 2903W        W72718  12.624  36.558   0.399
 2904W        W72719  27.084   3.268  13.499
 2905W        W72720  24.575  28.010  14.310
 2906W        W72721  10.855  26.040  13.877
 2907W        W72722  28.071  40.001   0.437
 2908W        W72723  36.921  11.853  13.034
 2909W        W72724  31.423  10.140  14.816
 2910W        W72725   1.772  37.454   1.919
 2911W        W72726  22.687  31.553   3.731
 2912W        W72727  44.407  31.110   1.237
 2913W        W72728  29.619  40.854  12.577
 2914W        W72729   9.670  22.021   3.807
 2915W        W72730  13.724  35.977   3.681
 2916W        W72731  21.519  35.459   4.809
 2917W        W72732  14.681  16.313   2.218
 2918W        W72733  23.061  33.436  13.523
 2919W        W72734  36.924   9.150  12.344
 2920W        W72735  13.801  24.601  13.829
 2921W        W72736  39.916  16.575   0.380
 2922W        W72737  44.758  28.541  14.808
 2923W        W72738  18.096   9.336   0.777
 2924W        W72739  33.931  43.476   1.888
 2925W        W72740  19.183  18.129   0.801
 2926W        W72741  15.823  16.760  13.855
 2927W        W72742  15.724  38.833   3.777
 2928W        W72743  28.475   3.252   0.822
 2929W        W72744  28.573   7.291   1.894
 2930W        W72745  38.993  24.056   4.281
 2931W        W72746   3.868  14.731  11.448
 2932W        W72747  43.883  24.630   0.270
 2933W        W72748  10.735  36.499  14.403
 2934W        W72749  18.707  26.987   1.292
 2935W        W72750  20.543  40.406   3.324
 2936W        W72751   7.250  13.637   1.813
 2937W        W72752  24.558   6.343   4.628
 2938W        W72753  30.612  32.026   4.323
 2939W        W72754  42.818  27.628  13.519
 2940W        W72755  32.984  27.048  10.546
 2941W        W72756  29.626  32.008   9.959
 2942W        W72757  26.967   9.772  13.416
 2943W        W72758  44.983  28.079  14.514
 2944W        W72759  11.312   1.376  12.430
 2945W        W72760   6.335  35.868   2.903
 2946W        W72761   3.824  14.295  13.477
 2947W        W72762   5.195  27.063   4.683
 2948W        W72763  43.322  29.659  13.999
 2949W        W72764   5.333  41.471  14.847
 2950W        W72765   7.354  33.052   3.766
 2951W        W72766   4.349  25.219  12.064
 2952W        W72767  23.208   9.778  11.422
 2953W        W72768  13.297  21.206   1.340
 2954W        W72769   1.239  28.935  14.900
 2955W        W72770  29.475  44.955   1.447
 2956W        W72771  12.770  44.455  11.500
 2957W        W72772  43.450   1.759  11.592
 2958W        W72773  22.163  38.504   2.194
 2959W        W72774  19.135  34.874  13.909
 2960W        W72775  12.725  16.766   4.824
 2961W        W72776   9.695  39.023  13.012
 2962W        W72777  13.626  20.192   0.328
 2963W        W72778  38.443   7.694  11.870
 2964W        W72779   9.241   8.845  10.147
 2965W        W72780   1.974  34.543  11.534
 2966W        W72781  36.870  26.694   4.656
 2967W        W72782  15.194  39.370   4.315
 2968W        W72783  36.489  42.432  11.419
 2969W        W72784  41.910  10.347  10.910
 2970W        W72785  30.427  23.191  12.552
 2971W        W72786  15.121  38.487  12.954
 2972W        W72787  12.313  16.093   1.885
 2973W        W72788  17.601  37.552  11.100
 2974W        W72789  38.535  16.766   0.818
 2975W        W72790  25.162  21.059   2.741
 2976W        W72791  16.137  41.510  11.908
 2977W        W72792  42.397  28.107  14.879
 2978W        W72793   7.879  30.455   3.667
 2979W        W72794  33.888   4.445  13.049
 2980W        W72795  12.690   3.275  10.571
 2981W        W72796  28.957  36.349  12.994
 2982W        W72797   4.779  13.686  14.345
 2983W        W72798   2.819  39.422   1.764
 2984W        W72799   8.799  16.190   4.605
 2985W        W72800  16.073  42.362  14.906
 2986W        W72801  30.517  18.206   4.757
 2987W        W72802  42.426  31.609  13.896
 2988W        W72803  32.003  23.632   3.796
 2989W        W72804  29.596  12.707  14.999
 2990W        W72805  13.649  33.448   1.381
 2991W        W72806  37.533  18.706   1.824
 2992W        W72807  19.715   9.302   2.829
 2993W        W72808  38.407  15.232  12.020
 2994W        W72809  14.604  40.495   3.855
 2995W        W72810  30.013   8.268  13.448
 2996W        W72811  13.306  42.006  14.815
 2997W        W72812  22.621   9.834  13.354
 2998W        W72813  33.456  13.787  10.906
 2999W        W72814   4.253  25.003  13.808
 3000W        W72815   8.734   8.692  13.525
 3001W        W72816  20.037   9.222  10.991
 3002W        W72817  17.270   9.851   4.665
 3003W        W72818  41.400  30.995   0.358
 3004W        W72819   2.941  21.203   3.828
 3005W        W72820  21.231  28.626  14.385
 3006W        W72821   8.257  13.812   4.242
 3007W        W72822  29.019  23.990   0.328
 3008W        W72823   0.261  35.576  13.792
 3009W        W72824  10.379   5.698   3.686
 3010W        W72825   2.894   2.397  11.859
 3011W        W72826  11.776  38.877   1.312
 3012W        W72827   6.342   8.347   4.722
 3013W        W72828  15.104  37.350   3.804
 3014W        W72829  34.550  38.858   4.191
 3015W        W72830  37.977  17.607  14.390
 3016W        W72831  17.575  31.069   2.232
 3017W        W72832  32.028   4.449  11.459
 3018W        W72833  33.943  44.350   2.203
 3019W        W72834  32.070  18.660  11.434
 3020W        W72835  14.831  40.041   1.419
 3021W        W72836  18.227  23.093   1.287
 3022W        W72837  43.883   3.897   1.280
 3023W        W72838  26.653  41.002  11.453
 3024W        W72839  17.303  37.444   2.278
 3025W        W72840   4.320  24.207  11.477
 3026W        W72841  25.057  10.769   4.638
 3027W        W72842  33.890   0.390  12.988
 3028W        W72843  15.626  31.014   0.424
 3029W        W72844   6.420  10.864  13.377
 3030W        W72845   2.324  44.404   0.898
 3031W        W72846  32.521  39.994  12.518
 3032W        W72847  15.181  13.787  13.856
 3033W        W72848  38.892   5.759   4.219
 3034W        W72849  43.993  16.081  13.353
 3035W        W72850  36.895   3.715   4.294
 3036W        W72851  44.388   1.314  11.897
 3037W        W72852  25.614  23.211  10.507
 3038W        W72853  30.539  44.776   3.774
 3039W        W72854  37.444  27.980  11.378
 3040W        W72855  21.675  27.069  13.517
 3041W        W72856  16.234   5.348  14.321
 3042W        W72857   9.819  35.485  11.392
 3043W        W72858   4.828  41.387   2.662
 3044W        W72859  23.160  14.208  12.949
 3045W        W72860   2.337  44.481   3.788
 3046W        W72861  29.016  17.285   4.701
 3047W        W72862  11.264   6.268   0.780
 3048W        W72863  35.515  32.916   2.387
 3049W        W72864   3.835  25.711  11.856
 3050W        W72865  38.349   4.740   1.424
 3051W        W72866  13.312  15.581  13.381
 3052W        W72867  15.814   3.924  13.326
 3053W        W72868  24.714  42.316  10.599
 3054W        W72869  29.427  28.080   5.255
 3055W        W72870  18.667   3.315  11.945
 3056W        W72871  10.287  32.621  14.791
 3057W        W72872  18.591  42.408  11.106
 3058W        W72873  43.920  40.906  11.124
 3059W        W72874  19.653  28.049   3.214
 3060W        W72875  33.541  22.022   1.410
 3061W        W72876  20.630  10.360   1.260
 3062W        W72877   4.317   7.383  13.387
 3063W        W72878  36.911  18.140   1.236
 3064W        W72879  39.484  32.046   1.229
 3065W        W72880  28.569  27.186  10.949
 3066W        W72881  14.208   8.867   2.245
 3067W        W72882  14.674  11.151   2.249
 3068W        W72883  16.316  27.668   0.895
 3069W        W72884   6.242  37.446  13.422
 3070W        W72885  44.807  11.690   0.899
 3071W        W72886  34.015  25.705  14.352
 3072W        W72887  19.089  11.789  14.978
 3073W        W72888  12.640  28.657  14.285
 3074W        W72889  19.053  10.690  11.491
 3075W        W72890  32.901  32.555  11.880
 3076W        W72891  41.434  40.960   1.444
 3077W        W72892  18.237  38.483  12.843
 3078W        W72893  35.036   9.377   3.665
 3079W        W72894  25.519  18.099  12.409
 3080W        W72895  42.971  38.462   2.725
 3081W        W72896  38.008   3.293   2.795
 3082W        W72897  37.061  19.072   2.336
 3083W        W72898  22.629  26.630  14.830
 3084W        W72899  14.816   8.822   1.731
 3085W        W72900  16.100  28.503   3.294
 3086W        W72901  13.247  22.173   1.803
 3087W        W72902  39.902  25.184  12.424
 3088W        W72903  23.144   7.209   3.244
 3089W        W72904   6.843   9.386  14.816
 3090W        W72905  24.125  15.819  10.016
 3091W        W72906  12.129  11.271   4.723
 3092W        W72907   6.229  30.095  11.537
 3093W        W72908   0.755   6.835   4.231
 3094W        W72909  18.695  13.291  11.451
 3095W        W72910  39.060   4.702  10.947
 3096W        W72911  32.085  41.832  12.026
 3097W        W72912  40.951  42.850   3.361
 3098W        W72913   4.858  40.913   1.215
 3099W        W72914  36.873  13.163   0.956
 3100W        W72915  11.677  30.093  12.367
 3101W        W72916   7.728   6.862  12.350
 3102W        W72917   2.299  23.230   3.786
 3103W        W72918  14.686   4.942   0.824
 3104W        W72919  22.657  11.212   2.723
 3105W        W72920  38.019  17.734   0.445
 3106W        W72921  31.081   2.933   1.756
 3107W        W72922  20.731   6.726  13.420
 3108W        W72923   3.887  37.989  13.038
 3109W        W72924  24.540  16.654   2.264
 3110W        W72925  24.603  29.011  13.056
 3111W        W72926  35.367  16.754  13.462
 3112W        W72927  43.332  35.006  11.901
 3113W        W72928  36.845  27.471   2.761
 3114W        W72929  20.212  39.038   1.424
 3115W        W72930   8.666   9.665  12.358
 3116W        W72931  11.181  12.796   3.351
 3117W        W72932  40.975  24.635   0.419
 3118W        W72933   4.384  44.386  11.606
 3119W        W72934  23.091   4.827  13.970
 3120W        W72935  36.071   4.406  12.531
 3121W        W72936  39.833  40.884  14.295
 3122W        W72937  39.404  20.211  12.450
 3123W        W72938  35.005  40.973   3.747
 3124W        W72939  21.145  42.380   1.916
 3125W        W72940  29.541  39.528   3.199
 3126W        W72941  39.460  26.034   4.751
 3127W        W72942  43.765  14.297  13.023
 3128W        W72943  32.969  25.564  14.001
 3129W        W72944  34.948   6.866   0.320
 3130W        W72945   7.843  43.991  11.494
 3131W        W72946  10.281   1.338   1.366
 3132W        W72947  10.311  15.218  13.990
 3133W        W72948  16.096  21.642  10.507
 3134W        W72949  14.203  24.153   3.862
 3135W        W72950  37.020  20.062  11.994
 3136W        W72951  22.238  35.898  10.450
 3137W        W72952  33.876  24.009  11.532
 3138W        W72953   0.786  37.929   2.800
 3139W        W72954  28.954  15.237  14.763
 3140W        W72955  24.656  22.538  12.926
 3141W        W72956  24.022   8.802   3.711
 3142W        W72957  23.499  33.890   4.206
 3143W        W72958  42.026  30.920   2.245
 3144W        W72959  20.672  17.795  11.570
 3145W        W72960  35.542  26.102  13.530
 3146W        W72961  39.937  13.345  12.940
 3147W        W72962  29.579   5.809  14.319
 3148W        W72963  34.427  36.892   1.318
 3149W        W72964  33.611  25.646  13.420
 3150W        W72965   7.816  17.253   1.366
 3151W        W72966  10.206  41.465   4.129
 3152W        W72967  28.543   0.462   2.402
 3153W        W72968  13.801  10.740  10.412
 3154W        W72969  26.041  31.017   0.727
 3155W        W72970  11.149  23.173  10.417
 3156W        W72971  22.231  43.947   9.651
 3157W        W72972  31.921  15.645  10.493
 3158W        W72973  40.423  33.456   5.142
 3159W        W72974  23.193   3.716   4.233
 3160W        W72975  40.459   3.244   2.710
 3161W        W72976   0.423  18.694  10.988
 3162W        W72977  19.550  21.685   1.703
 3163W        W72978   9.350   4.847   2.376
 3164W        W72979  37.940  22.247  14.868
 3165W        W72980  24.559  18.669  14.009
 3166W        W72981  20.140  33.901  11.087
 3167W        W72982  19.603  36.498   1.378
 3168W        W72983   8.869  42.025  11.123
 3169W        W72984  13.839  34.571  10.899
 3170W        W72985   8.366  33.982  13.006
 3171W        W72986  32.107  36.866  14.503
 3172W        W72987  23.570  23.601   2.755
 3173W        W72988  26.022   2.757   3.159
 3174W        W72989  38.545  44.412   4.725
 3175W        W72990  43.390   4.915  11.982
 3176W        W72991  12.760   7.865   2.223
 3177W        W72992  18.195  37.943   2.364
 3178W        W72993  24.131   5.410  14.455
 3179W        W72994   8.687   5.284   0.830
 3180W        W72995  20.042  42.861  10.078
 3181W        W72996  37.970  39.041  10.577
 3182W        W72997  16.204  28.136   1.394
 3183W        W72998  39.464  29.082   1.843
 3184W        W72999  38.074   9.676  12.430
 3185W        W73000  10.869  17.719  11.931
 3186W        W73001  12.677  38.516   4.203
 3187W        W73002  37.505  21.128  11.604
 3188W        W73003   8.766  21.263   2.402
 3189W        W73004   7.847  28.674  14.978
 3190W        W73005  28.557  21.257   2.760
 3191W        W73006  17.626   3.406   2.359
 3192W        W73007  32.041   5.266   0.316
 3193W        W73008   6.874   8.863  10.938
 3194W        W73009   7.840   2.776   1.805
 3195W        W73010   0.976  12.252   2.869
 3196W        W73011  11.188   2.451   2.703
 3197W        W73012  13.163  15.817  10.155
 3198W        W73013   5.776  11.632  12.834
 3199W        W73014  11.274  35.059   0.460
 3200W        W73015   8.333  35.436  12.829
 3201W        W73016  12.246  11.684  13.828
 3202W        W73017  19.635   3.906   0.409
 3203W        W73018  29.596  39.545  10.433
 3204W        W73019  13.615  36.529   4.114
 3205W        W73020  34.983  43.309   0.460
 3206W        W73021  17.717  15.211   3.649
 3207W        W73022  33.940   6.203  14.436
 3208W        W73023  32.465  42.489  11.891
 3209W        W73024  32.131  15.586  11.565
 3210W        W73025  40.538  35.357  14.280
 3211W        W73026  19.551   6.691  12.446
 3212W        W73027   5.246  14.689   1.301
 3213W        W73028  43.322  31.016  11.395
 3214W        W73029  17.111  13.296  13.987
 3215W        W73030   9.321  10.870   1.920
 3216W        W73031  29.986  36.058   2.193
 3217W        W73032  32.105  34.461   4.609
 3218W        W73033  19.108  14.772  11.930
 3219W        W73034  15.651   5.751  10.450
 3220W        W73035   2.279  15.712   3.191
 3221W        W73036  42.412  11.304  11.610
 3222W        W73037  30.132  38.927   2.381
 3223W        W73038  28.971  10.236   3.728
 3224W        W73039  27.104   7.692  11.529
 3225W        W73040  13.314  37.408   0.368
 3226W        W73041  27.984  15.190  11.122
 3227W        W73042  37.522  34.046   3.373
 3228W        W73043  16.631  39.469  11.072
 3229W        W73044  23.612  11.733   3.310
 3230W        W73045  43.410   6.777   2.679
 3231W        W73046   0.395  30.616   2.870
 3232W        W73047  35.425  42.326   1.761
 3233W        W73048  22.643  41.974  11.084
 3234W        W73049  18.118  28.538  11.401
 3235W        W73050  40.443  39.043  14.970
 3236W        W73051  28.162   3.792   3.170
 3237W        W73052  37.915  25.528  14.417
 3238W        W73053  19.128  31.445  13.010
 3239W        W73054  44.321  36.970   2.757
 3240W        W73055  39.893  11.181  10.902
 3241W        W73056  17.223   7.729   4.144
 3242W        W73057  11.750  17.779  14.497
 3243W        W73058  15.642  14.259  13.996
 3244W        W73059  13.186  23.016   0.342
 3245W        W73060   7.807  15.773   1.372
 3246W        W73061  30.996  42.874   1.896
 3247W        W73062   2.759   4.907   4.778
 3248W        W73063  31.439  19.578   4.603
 3249W        W73064  14.124  32.073  12.860
 3250W        W73065  10.814  21.070  12.082
 3251W        W73066  15.594  38.553   2.283
 3252W        W73067  33.079  18.226   4.258
 3253W        W73068  39.858   5.218   3.185
 3254W        W73069  26.180  36.567  12.880
 3255W        W73070  14.251  21.579  14.419
 3256W        W73071   4.783  30.052   4.344
 3257W        W73072  34.538  24.520  13.979
 3258W        W73073   8.189   8.719  14.849
 3259W        W73074  14.134  32.427   5.266
 3260W        W73075   6.191  14.740   1.700
 3261W        W73076  18.263  30.067   1.749
 3262W        W73077  22.509  16.801  13.863
 3263W        W73078  22.664  23.116  10.083
 3264W        W73079  21.140  14.163   0.921
 3265W        W73080  44.839  14.278  13.504
 3266W        W73081  41.325  12.216  10.526
 3267W        W73082   8.847  35.556   0.251
 3268W        W73083  29.538  13.281   3.189
 3269W        W73084  12.837  24.722   0.797
 3270W        W73085  18.775  10.807  11.011
 3271W        W73086  33.986  32.068   0.901
 3272W        W73087   8.368  10.774   1.390
 3273W        W73088  17.105  39.820   4.638
 3274W        W73089  33.024  11.284  13.980
 3275W        W73090  22.140   3.786   0.952
 3276W        W73091  21.701  39.863   2.180
 3277W        W73092  21.685   4.884   2.796
 3278W        W73093  38.490  30.584   0.376
 3279W        W73094  35.463  32.939  13.395
 3280W        W73095  11.188  35.409  11.858
 3281W        W73096  43.482  25.204   1.894
 3282W        W73097  42.429  40.432   4.797
 3283W        W73098  43.847   7.766   3.759
 3284W        W73099  19.574  31.520  12.557
 3285W        W73100   0.964  18.156   2.895
 3286W        W73101  36.919  43.481   2.776
 3287W        W73102  43.310  35.985  14.299
 3288W        W73103  42.483  11.673  14.449
 3289W        W73104   2.437   0.416   0.946
 3290W        W73105   8.796  40.050  13.319
 3291W        W73106  31.907  33.958  14.908
 3292W        W73107  34.468   4.393   0.929
 3293W        W73108  36.563  19.554   3.289
 3294W        W73109  39.384  39.541  13.844
 3295W        W73110  26.989  39.808   0.395
 3296W        W73111   3.875  17.279   0.961
 3297W        W73112  39.549  35.893   4.348
 3298W        W73113  40.861  33.084  14.502
 3299W        W73114  44.467  30.962  11.077
 3300W        W73115  20.737  43.975   4.718
 3301W        W73116   1.958  38.021   3.222
 3302W        W73117  10.663  37.899  14.291
 3303W        W73118  11.239  16.295   9.546
 3304W        W73119  31.543   6.273   1.767
 3305W        W73120  43.796  36.496   2.261
 3306W        W73121  19.538   9.159  14.859
 3307W        W73122   7.785  31.942   2.351
 3308W        W73123  37.924  22.735   1.827
 3309W        W73124   8.795  12.846   2.815
 3310W        W73125  28.109  35.057  12.371
 3311W        W73126  38.036  14.673  10.951
 3312W        W73127  15.148  24.499   2.800
 3313W        W73128   0.275  13.307   3.222
 3314W        W73129  35.469  29.445   3.699
 3315W        W73130  26.462  19.259   3.704
 3316W        W73131  41.460  39.010  13.013
 3317W        W73132  31.610  41.315   0.467
 3318W        W73133  29.106   3.419  14.779
 3319W        W73134  36.933  34.967   1.912
 3320W        W73135  37.442  32.934  10.486
 3321W        W73136  18.175  33.486  10.423
 3322W        W73137  33.388  26.636   1.340
 3323W        W73138   5.427   3.320  13.884
 3324W        W73139  28.443   6.290  14.442
 3325W        W73140  31.145  15.097  10.609
 3326W        W73141   1.856   2.744  11.919
 3327W        W73142   0.349   1.878  11.428
 3328W        W73143  16.143  23.520  11.989
 3329W        W73144  31.076  37.530  10.027
 3330W        W73145  22.738   2.377  14.996
 3331W        W73146  10.831  12.297  12.517
 3332W        W73147  15.786  22.117  14.862
 3333W        W73148  29.619  28.041  12.058
 3334W        W73149   1.777  42.494   4.351
 3335W        W73150  11.786  19.647  10.964
 3336W        W73151  16.129  38.571  11.932
 3337W        W73152  22.619   3.405   0.872
 3338W        W73153   6.295  42.300   2.781
 3339W        W73154   7.846   8.859  12.546
 3340W        W73155  41.882   6.757   1.751
 3341W        W73156  40.953   2.410   3.365
 3342W        W73157  27.685  42.495   0.375
 3343W        W73158  34.063   0.822  12.005
 3344W        W73159  18.791   8.862   1.347
 3345W        W73160  22.238  32.885  12.566
 3346W        W73161  44.810   4.226   2.292
 3347W        W73162  21.225  32.080   2.282
 3348W        W73163  32.085   9.800  11.422
 3349W        W73164   6.356   6.834  10.917
 3350W        W73165  13.321  21.702  11.014
 3351W        W73166   3.273  42.949  13.974
 3352W        W73167  17.770  41.036  13.992
 3353W        W73168  36.958  32.890  14.442
 3354W        W73169  34.084  15.136   0.751
 3355W        W73170  30.516   2.441   1.802
 3356W        W73171  26.032  23.630  13.822
 3357W        W73172  43.813  32.449  11.035
 3358W        W73173  35.363   5.432  11.374
 3359W        W73174   1.922   6.379  12.513
 3360W        W73175  31.919  37.365  14.341
 3361W        W73176  34.391   2.948   2.410
 3362W        W73177  32.522   6.893   3.706
 3363W        W73178  29.052  30.549  13.967
 3364W        W73179  30.918  22.094  13.911
 3365W        W73180  33.087  15.637  10.091
 3366W        W73181  31.120  32.067   9.923
 3367W        W73182  10.293   0.844  11.102
 3368W        W73183   6.411  30.625   5.096
 3369W        W73184  23.625  34.044   1.696
 3370W        W73185  14.625  27.130  14.987
 3371W        W73186  11.851  21.110  11.514
 3372W        W73187  42.382  32.065   2.670
 3373W        W73188   4.851  23.677   0.797
 3374W        W73189  42.910   7.174  13.052
 3375W        W73190  29.457  16.247  14.393
 3376W        W73191  15.110   0.390  14.325
 3377W        W73192  23.078  14.218   4.160
 3378W        W73193  34.013   9.264  12.877
 3379W        W73194  15.200   8.898  12.985
 3380W        W73195  41.293  22.635  13.957
 3381W        W73196  41.439  16.695   2.281
 3382W        W73197  33.085  23.129   3.800
 3383W        W73198  42.340   2.965   2.769
 3384W        W73199  15.223  22.033  12.429
 3385W        W73200  29.513   2.830   2.357
 3386W        W73201  25.468  26.649   4.187
 3387W        W73202  19.227  19.652  12.999
 3388W        W73203   3.949  28.658  14.331
 3389W        W73204  23.194  10.157  11.378
 3390W        W73205   5.900   9.152  13.895
 3391W        W73206  26.588  18.629  11.440
 3392W        W73207   7.751  23.702  12.394
 3393W        W73208   8.260  10.144   4.713
 3394W        W73209   0.755   7.688  12.031
 3395W        W73210  11.784  43.445  11.384
 3396W        W73211  24.488   6.738   3.854
 3397W        W73212  31.007   8.342   0.388
 3398W        W73213   9.803  38.454   0.439
 3399W        W73214  36.868  29.108  12.427
 3400W        W73215  42.810  24.582   1.744
 3401W        W73216   7.255   9.369  11.490
 3402W        W73217  43.796  14.649   3.272
 3403W        W73218  38.960  28.166  12.044
 3404W        W73219  26.693  19.082  10.419
 3405W        W73220  32.094   5.723  14.863
 3406W        W73221  24.713  41.994  12.022
 3407W        W73222  14.174  23.695  13.851
 3408W        W73223  27.458  33.537   4.834
 3409W        W73224  24.548  17.749  14.480
 3410W        W73225  31.897   4.273  14.874
 3411W        W73226   6.261  44.944  10.609
 3412W        W73227   7.860  28.579   1.259
 3413W        W73228  20.675  14.321  14.894
 3414W        W73229  40.879  40.542   4.191
 3415W        W73230  43.815   1.912  11.111
 3416W        W73231   9.830   3.256  11.910
 3417W        W73232   6.831  20.733  14.348
 3418W        W73233  14.593  23.504   1.763
 3419W        W73234   5.223  43.312   2.210
 3420W        W73235   0.806  20.533   1.823
 3421W        W73236  33.533  19.717  14.279
 3422W        W73237  38.570  33.944  12.347
 3423W        W73238  22.157  15.098   1.926
 3424W        W73239  36.520  30.576   9.920
 3425W        W73240  22.133  36.495   3.366
 3426W        W73241  38.926   7.191   0.762
 3427W        W73242  20.767  43.416  13.342
 3428W        W73243  18.223  28.645   1.827
 3429W        W73244  16.245   1.748   2.263
 3430W        W73245  20.582  43.972   3.715
 3431W        W73246   4.311  26.480   2.902
 3432W        W73247  42.435  22.686  11.471
 3433W        W73248  36.451  16.134  11.438
 3434W        W73249  31.040  14.305   1.885
 3435W        W73250   5.690   6.744   3.865
 3436W        W73251  38.430   5.219  12.442
 3437W        W73252  40.915  28.012  14.426
 3438W        W73253  17.678  19.083   1.901
 3439W        W73254  10.147  22.742  13.811
 3440W        W73255  24.057  38.912   5.130
 3441W        W73256  26.968  10.853  14.959
 3442W        W73257  33.489  13.759   1.755
 3443W        W73258  29.440  41.401  11.429
 3444W        W73259   5.206  34.600  13.050
 3445W        W73260   9.261  29.025  12.060
 3446W        W73261  39.502   1.880   3.666
 3447W        W73262   3.426  43.334  12.545
 3448W        W73263   1.804  11.639   2.264
 3449W        W73264  11.736  12.164   1.443
 3450W        W73265   8.399  30.033   4.241
 3451W        W73266   6.748  40.997  14.514
 3452W        W73267  40.856  23.088  14.432
 3453W        W73268  28.065  43.802   2.240
 3454W        W73269  43.294  33.026  13.387
 3455W        W73270  21.531  31.968  10.911
 3456W        W73271  25.988   0.252   4.170
 3457W        W73272  26.467  25.499  12.491
 3458W        W73273  36.348  22.726   0.393
 3459W        W73274  35.499  20.128   3.821
 3460W        W73275  19.185  44.342  14.516
 3461W        W73276  36.510  36.568   2.772
 3462W        W73277  21.723  33.388   0.361
 3463W        W73278   7.333   9.811   3.148
 3464W        W73279   8.347  33.084  11.383
 3465W        W73280  26.076  39.953  13.922
 3466W        W73281  32.921  32.479  12.411
 3467W        W73282  19.182  27.485   2.279
 3468W        W73283  22.625  39.339  10.564
 3469W        W73284  25.978  31.130  13.833
 3470W        W73285  33.896  19.717   0.445
 3471W        W73286  13.685  18.555   4.738
 3472W        W73287  11.193   5.771   1.366
 3473W        W73288   4.234  44.405   4.325
 3474W        W73289  31.521  39.337   4.792
 3475W        W73290  15.200  42.827  11.015
 3476W        W73291   0.284  10.356   3.805
 3477W        W73292  27.455  11.177   2.706
 3478W        W73293  11.251  20.766  10.427
 3479W        W73294  33.432  28.627   4.234
 3480W        W73295  26.054  43.866  12.492
 3481W        W73296  12.341  30.942  14.991
 3482W        W73297   6.342   9.772  11.482
 3483W        W73298   9.356  11.674  10.638
 3484W        W73299  23.503  25.666  12.932
 3485W        W73300  18.610  29.025   4.754
 3486W        W73301  17.282  11.329   4.698
 3487W        W73302  26.960  16.305  14.335
 3488W        W73303  11.279  41.798   0.355
 3489W        W73304  15.617   6.264  12.421
 3490W        W73305  17.655  32.027  13.870
 3491W        W73306  35.943  38.377   0.751
 3492W        W73307  17.251   9.787  13.926
 3493W        W73308  15.632  31.982  14.837
 3494W        W73309  25.520  41.942   0.476
 3495W        W73310  33.503  42.490  13.018
 3496W        W73311  40.370  29.531  12.927
 3497W        W73312  13.730   0.968  14.318
 3498W        W73313  37.372  32.476  11.960
 3499W        W73314  20.571   1.310   0.956
 3500W        W73315  23.115   0.420  12.380
 3501W        W73316  31.044  27.956  12.843
 3502W        W73317  20.572   2.291   2.216
 3503W        W73318  25.143  39.962  10.499
 3504W        W73319  26.667  21.067   2.788
 3505W        W73320  23.198  26.570   1.731
 3506W        W73321  20.243  11.312  14.510
 3507W        W73322   1.792  16.257   0.394
 3508W        W73323  20.169  39.934   4.673
 3509W        W73324   6.311  41.329  13.906
 3510W        W73325  26.996   2.945   4.179
 3511W        W73326  32.991   9.393   0.467
 3512W        W73327   1.441  38.864  14.420
 3513W        W73328  44.483  36.532   1.733
 3514W        W73329   4.927  18.231   5.278
 3515W        W73330  16.180  24.182   2.892
 3516W        W73331  11.176  39.389  11.593
 3517W        W73332  20.222   1.975  12.368
 3518W        W73333  15.083  25.706  13.040
 3519W        W73334  25.628  44.482   3.200
 3520W        W73335  30.475  23.499   0.401
 3521W        W73336  16.610  39.415   2.218
 3522W        W73337  32.490  21.205   0.753
 3523W        W73338  39.546  26.591  13.372
 3524W        W73339  35.946  17.710  14.984
 3525W        W73340  30.072  14.749   1.323
 3526W        W73341  38.486  20.129   4.215
 3527W        W73342  42.367  36.043  14.450
 3528W        W73343  15.590  31.969  12.496
 3529W        W73344  16.097  42.829  13.415
 3530W        W73345  39.031   5.914   2.341
 3531W        W73346   0.436  25.017  12.457
 3532W        W73347  42.434  31.446   1.780
 3533W        W73348  44.311  23.209   3.288
 3534W        W73349  23.659   4.440   1.300
 3535W        W73350   1.476  19.116   1.417
 3536W        W73351  16.299  38.957  14.802
 3537W        W73352   1.481   4.358   4.787
 3538W        W73353   7.711   9.355   1.812
 3539W        W73354   4.390  35.519   3.176
 3540W        W73355  43.020  10.788   2.786
 3541W        W73356   2.937  31.601   3.345
 3542W        W73357  10.205  35.454   2.401
 3543W        W73358  37.497  25.031   4.248
 3544W        W73359  25.047  21.612  13.312
 3545W        W73360  23.597  25.550   4.749
 3546W        W73361  43.015  38.842  13.962
 3547W        W73362  33.915  41.981  12.878
 3548W        W73363   4.784  15.088  10.091
 3549W        W73364  29.515  30.959   0.824
 3550W        W73365   6.197  43.974   4.340
 3551W        W73366   5.890  36.863   0.351
 3552W        W73367   9.877  41.483   4.236
 3553W        W73368  21.707  14.685   2.328
 3554W        W73369  20.575  23.605  11.444
 3555W        W73370  12.269  27.177  11.006
 3556W        W73371  15.668  11.317  11.077
 3557W        W73372  33.418  13.776   1.321
 3558W        W73373  25.646   4.700  12.012
 3559W        W73374   5.341  37.831   1.233
 3560W        W73375   7.763  38.954   2.728
 3561W        W73376  24.617  44.274  12.912
 3562W        W73377   1.304  21.650   3.735
 3563W        W73378  19.219  35.107   3.675
 3564W        W73379  22.575  26.050  12.060
 3565W        W73380  38.503  40.317  11.981
 3566W        W73381  27.606   7.826  13.385
 3567W        W73382   0.479  41.019   0.913
 3568W        W73383  43.352  17.783  14.969
 3569W        W73384   7.212  41.872  11.030
 3570W        W73385  18.149  12.136   1.737
 3571W        W73386  26.108  10.166   2.250
 3572W        W73387  16.287  40.932   0.327
 3573W        W73388  27.180  11.221   0.915
 3574W        W73389  20.051  15.150  14.993
 3575W        W73390  33.931   7.879   3.661
 3576W        W73391  38.008  21.521   2.251
 3577W        W73392  33.534   5.737  12.487
 3578W        W73393   4.790  24.059  12.440
 3579W        W73394  22.620  44.887  14.982
 3580W        W73395  20.200   9.762  11.939
 3581W        W73396   3.832   7.681  11.116
 3582W        W73397  12.238  29.030   0.824
 3583W        W73398  42.838  25.195  11.896
 3584W        W73399  23.720  27.656  13.468
 3585W        W73400  27.047  38.370   4.629
 3586W        W73401   4.701  14.815   0.432
 3587W        W73402  38.449   2.229  13.981
 3588W        W73403  36.377  32.560   4.304
 3589W        W73404  39.026  35.501   4.825
 3590W        W73405  31.926  39.332  12.351
 3591W        W73406  12.621   1.955   1.710
 3592W        W73407   5.695   6.862   2.378
 3593W        W73408  17.729  30.949   0.943
 3594W        W73409  33.928  39.051  14.967
 3595W        W73410  34.985  14.805   4.756
 3596W        W73411  39.380   7.262   1.907
 3597W        W73412  35.867   0.435  11.057
 3598W        W73413  30.621  24.499  11.563
 3599W        W73414   6.729   7.760   1.829
 3600W        W73415  12.223  17.225   2.415
 3601W        W73416  16.621  41.494   1.402
 3602W        W73417   4.437  44.356  13.510
 3603W        W73418  18.205  29.060  13.320
 3604W        W73419   0.824  15.661   1.695
 3605W        W73420  21.163  17.219   0.469
 3606W        W73421  13.217   8.218  13.462
 3607W        W73422  22.701  35.435  14.507
 3608W        W73423  26.553  29.169  10.153
 3609W        W73424  39.919  25.644   0.741
 3610W        W73425  44.948   8.688   3.837
 3611W        W73426  13.317  44.899   1.863
 3612W        W73427  28.132  30.137  10.565
 3613W        W73428  35.057   6.730   0.777
 3614W        W73429  25.533  42.458   1.797
 3615W        W73430  12.279  11.231  11.083
 3616W        W73431  41.397  29.983  14.509
 3617W        W73432  15.216  41.512  11.090
 3618W        W73433  14.314  10.174   2.891
 3619W        W73434   4.874   5.844  12.950
 3620W        W73435  42.375   8.343  10.424
 3621W        W73436  18.110  11.673  14.470
 3622W        W73437  37.941  41.041  11.543
 3623W        W73438  22.514  30.052  13.330
 3624W        W73439  44.469  34.393   2.230
 3625W        W73440   2.949   8.657   1.357
 3626W        W73441  13.639  31.476  13.424
 3627W        W73442  43.410  40.486  14.508
 3628W        W73443  15.122   8.356  12.507
 3629W        W73444  15.683   4.276  14.906
 3630W        W73445  43.809   1.848  12.560
 3631W        W73446  32.469  27.690   1.798
 3632W        W73447  34.018  43.892  13.823
 3633W        W73448   3.277  21.685   2.695
 3634W        W73449  14.171  10.357   3.258
 3635W        W73450  32.113  20.163   2.278
 3636W        W73451  29.429  37.852   4.601
 3637W        W73452  26.637   6.684  11.544
 3638W        W73453  26.684  13.275   3.251
 3639W        W73454  25.968  40.413   3.381
 3640W        W73455  33.125  42.362  13.995
 3641W        W73456  42.440   7.772  12.985
 3642W        W73457  44.331   6.776   0.431
 3643W        W73458  14.787  12.773  11.474
 3644W        W73459  12.680  19.658  11.591
 3645W        W73460  42.806  11.789   2.408
 3646W        W73461  27.148  21.564   4.772
 3647W        W73462  22.110  35.075  12.892
 3648W        W73463   2.305  41.500   1.750
 3649W        W73464  38.043   1.348   2.373
 3650W        W73465  23.162  19.720  12.459
 3651W        W73466   7.180   6.399  13.952
 3652W        W73467  44.459  16.746  11.503
 3653W        W73468   6.909  24.041  12.009
 3654W        W73469   0.482  18.207  12.076
 3655W        W73470   5.420  19.088   0.327
 3656W        W73471  19.592  22.238  14.961
 3657W        W73472  33.494  21.258   0.340
 3658W        W73473  28.020  11.695   4.232
 3659W        W73474  11.362  10.750  14.774
 3660W        W73475  15.686  15.239   3.187
 3661W        W73476  44.774  39.843   2.866
 3662W        W73477  19.063  39.847  14.373
 3663W        W73478  37.955  16.080   4.785
 3664W        W73479  14.276  42.414   1.894
 3665W        W73480  10.792  12.631  11.035
 3666W        W73481  20.595   8.335   4.618
 3667W        W73482  35.919   4.402   2.224
 3668W        W73483  36.011  10.868  13.049
 3669W        W73484  38.901  13.136   3.782
 3670W        W73485  34.389  43.403   0.762
 3671W        W73486  39.431  37.848   3.260
 3672W        W73487  12.222  13.727   4.292
 3673W        W73488  38.046  20.669   0.360
 3674W        W73489  41.426  44.392   0.830
 3675W        W73490  30.959  22.714   4.721
 3676W        W73491  26.086  35.083   1.920
 3677W        W73492  37.576  15.716  14.396
 3678W        W73493   9.276  22.083  13.829
 3679W        W73494   1.249  20.726  14.489
 3680W        W73495  29.014  16.662   4.204
 3681W        W73496  10.779   5.423   3.830
 3682W        W73497  32.463  36.019   0.734
 3683W        W73498   0.746  41.863   1.366
 3684W        W73499  29.939  37.346  11.588
 3685W        W73500  13.228  24.555   0.940
 3686W        W73501  25.573  44.773   4.774
 3687W        W73502  11.324   1.295   1.412
 3688W        W73503  26.989  28.037   2.706
 3689W        W73504  35.569  36.349  10.902
 3690W        W73505   2.270   3.954   3.702
 3691W        W73506  26.129   9.675  14.931
 3692W        W73507   7.819  28.446  12.958
 3693W        W73508   9.162  40.318  13.460
 3694W        W73509   7.817   7.313   1.901
 3695W        W73510  22.586  33.444   2.337
 3696W        W73511  35.021  41.346   0.452
 3697W        W73512  23.206   2.741  11.875
 3698W        W73513   6.298   2.771   0.370
 3699W        W73514  40.050  38.547  10.523
 3700W        W73515  41.816   5.809   3.334
 3701W        W73516  36.904  22.735  11.930
 3702W        W73517  31.620   7.384   1.425
 3703W        W73518  27.497  22.611  12.370
 3704W        W73519  14.835  35.544  12.044
 3705W        W73520  29.114  41.508  13.474
 3706W        W73521  35.376   2.459  13.468
 3707W        W73522  10.691   2.325   2.688
 3708W        W73523  22.537  42.888  11.504
 3709W        W73524   3.235   7.185   2.178
 3710W        W73525  42.493  23.540   2.345
 3711W        W73526  25.622   1.781  12.070
 3712W        W73527  13.631  36.388  11.578
 3713W        W73528  17.228   5.327  13.518
 3714W        W73529  13.128   9.263   2.367
 3715W        W73530  40.383  31.038  10.642
 3716W        W73531  32.421  22.118   4.215
 3717W        W73532  16.087   2.409   3.767
 3718W        W73533  36.485   9.203   4.599
 3719W        W73534  17.156   0.494  11.127
 3720W        W73535  34.553   1.334   2.744
 3721W        W73536  12.168  34.592   4.251
 3722W        W73537  29.049  24.136  14.796
 3723W        W73538  13.699  39.001   1.764
 3724W        W73539  12.176   0.399   3.839
 3725W        W73540  38.970  25.968   0.742
 3726W        W73541  30.617  30.618  11.060
 3727W        W73542  28.488   4.699  12.464
 3728W        W73543  13.756   0.897   4.144
 3729W        W73544  42.508  29.130   2.789
 3730W        W73545  40.391  27.054   1.257
 3731W        W73546  31.911  33.401  14.279
 3732W        W73547   8.351  21.210  12.033
 3733W        W73548  20.707  30.954  10.559
 3734W        W73549   8.744  41.469  10.028
 3735W        W73550  39.548  23.053  14.839
 3736W        W73551  15.224   6.390  14.942
 3737W        W73552  15.159  38.426   2.877
 3738W        W73553  21.568  22.528   3.214
 3739W        W73554  15.218  11.134  10.527
 3740W        W73555  36.547  40.547   0.366
 3741W        W73556  18.230  13.600  12.399
 3742W        W73557   0.805   5.362  13.479
 3743W        W73558   7.213  30.032   1.429
 3744W        W73559  37.003  15.729  12.832
 3745W        W73560  35.389  15.717  11.964
 3746W        W73561  33.916  42.309  14.380
 3747W        W73562  20.529  22.506   3.803
 3748W        W73563  44.867  28.073  12.883
 3749W        W73564  33.579  40.501   9.927
 3750W        W73565  19.703  12.254  11.882
 3751W        W73566  30.447  36.939   4.789
 3752W        W73567  26.169  44.424   4.820
 3753W        W73568   6.224  40.464   3.350
 3754W        W73569   9.299  22.230  14.826
 3755W        W73570  21.242   3.833   1.901
 3756W        W73571  18.288  14.681   2.716
 3757W        W73572  39.329  24.129  11.058
 3758W        W73573  17.687  11.244   4.677
 3759W        W73574  32.004  10.698  13.879
 3760W        W73575  37.406  16.583  13.378
 3761W        W73576  40.923  17.660   2.387
 3762W        W73577  21.512   2.831   0.427
 3763W        W73578  12.179  42.282  11.586
 3764W        W73579  12.802  40.811  12.510
 3765W        W73580  39.356  38.032  12.872
 3766W        W73581  16.248   6.364  11.559
 3767W        W73582  32.068  28.612   0.406
 3768W        W73583   3.378   6.291   4.656
 3769W        W73584  32.070  26.559   2.735
 3770W        W73585  29.936  22.503  14.373
 3771W        W73586  39.386  37.441  10.414
 3772W        W73587  44.774  19.543   1.317
 3773W        W73588  44.818  22.592   0.306
 3774W        W73589   9.662  44.001  12.861
 3775W        W73590  18.704  37.872  14.283
 3776W        W73591  10.854  35.879  11.575
 3777W        W73592  42.978  22.158  10.429
 3778W        W73593  23.514   6.256   4.616
 3779W        W73594   6.293  33.398  11.036
 3780W        W73595   2.343  42.424  10.549
 3781W        W73596   7.681  41.913  13.986
 3782W        W73597  12.611  42.403  14.440
 3783W        W73598  20.037  31.568   3.789
 3784W        W73599  26.571  20.655   1.772
 3785W        W73600  25.621  32.898  11.127
 3786W        W73601  40.046  14.715  12.521
 3787W        W73602  11.677   1.900   2.353
 3788W        W73603  23.705   4.226  11.546
 3789W        W73604   8.201  41.432   5.148
 3790W        W73605   0.365  39.488  14.815
 3791W        W73606   3.954  38.327  14.361
 3792W        W73607  24.087  18.154  10.593
 3793W        W73608   5.918  16.297  13.845
 3794W        W73609  32.928  10.684  12.043
 3795W        W73610   5.792  26.097  13.795
 3796W        W73611  40.522   6.215  11.428
 3797W        W73612  22.602  15.203  12.363
 3798W        W73613   0.841  29.979  13.037
 3799W        W73614  43.482  35.062   4.763
 3800W        W73615  21.181  27.487  13.534
 3801W        W73616  39.479   5.777   1.759
 3802W        W73617  32.980  26.099  10.598
 3803W        W73618  43.466  40.857   0.358
 3804W        W73619  26.605  38.386   3.867
 3805W        W73620   6.731  14.218   4.218
 3806W        W73621  26.962  18.160  14.411
 3807W        W73622  39.819  30.103  12.067
 3808W        W73623  19.594  18.096   1.868
 3809W        W73624  30.038  38.496  11.490
 3810W        W73625  16.294   8.833   0.386
 3811W        W73626  33.485   1.976   3.316
 3812W        W73627   3.953  38.535  14.998
 3813W        W73628  33.074  22.588   1.353
 3814W        W73629  38.377   4.869   3.658
 3815W        W73630  27.488  10.308  10.470
 3816W        W73631  35.546  44.349   9.974
 3817W        W73632  16.225   4.737   3.697
 3818W        W73633  40.379  38.537   2.828
 3819W        W73634  15.720  22.142  13.929
 3820W        W73635   1.237  10.744  10.544
 3821W        W73636  42.795  13.261  14.846
 3822W        W73637  43.493  10.352   4.162
 3823W        W73638   8.726  10.677   3.777
 3824W        W73639  18.764  38.471   1.842
 3825W        W73640   4.332   6.884  10.451
 3826W        W73641  38.862  24.593  14.378
 3827W        W73642  28.528  24.160   3.764
 3828W        W73643  22.236  27.631   0.848
 3829W        W73644  11.308   6.836   2.345
 3830W        W73645  27.058  23.639  10.516
 3831W        W73646  40.037  21.544   4.676
 3832W        W73647  40.899  39.023  11.379
 3833W        W73648  19.646  40.446   1.814
 3834W        W73649  36.959  11.742   2.903
 3835W        W73650   1.973  13.326  11.486
 3836W        W73651  40.871   6.781  12.004
 3837W        W73652   7.788   5.722  12.895
 3838W        W73653  12.123  18.649   5.242
 3839W        W73654   8.274   5.740   2.401
 3840W        W73655  37.889  40.492   1.910
 3841W        W73656  19.616  15.818   3.237
 3842W        W73657  22.024  10.170  14.030
 3843W        W73658  13.669  14.643  10.640
 3844W        W73659  43.939  24.507   4.214
 3845W        W73660  14.122  21.135  14.287
 3846W        W73661   7.802  26.597  12.522
 3847W        W73662  30.455  33.573   3.153
 3848W        W73663  42.407  23.663  12.980
 3849W        W73664  23.527  37.032  10.503
 3850W        W73665  16.277  25.185   4.121
 3851W        W73666  19.039  38.424   3.865
 3852W        W73667  23.630  13.304  14.981
 3853W        W73668   9.212  38.510  10.977
 3854W        W73669   0.878  33.988   3.802
 3855W        W73670   0.971  12.362  11.066
 3856W        W73671  10.751   3.884  14.025
 3857W        W73672   7.296  27.023   3.725
 3858W        W73673  44.941   2.343  14.872
 3859W        W73674  29.950  32.601   4.716
 3860W        W73675  12.684  11.844   4.639
 3861W        W73676  21.584  27.040  11.121
 3862W        W73677  18.718   9.888  12.031
 3863W        W73678  28.611  40.800  13.508
 3864W        W73679  34.994  38.558  11.571
 3865W        W73680   5.439  41.861   2.337
 3866W        W73681   6.281  12.683  11.442
 3867W        W73682   6.363  13.712  12.012
 3868W        W73683  39.014  13.248  12.446
 3869W        W73684  22.160  34.395   4.335
 3870W        W73685   7.749  13.672   4.302
 3871W        W73686   8.162  33.953  10.486
 3872W        W73687  37.422  31.008   2.262
 3873W        W73688  32.557   3.910  14.435
 3874W        W73689  42.983   9.696   1.795
 3875W        W73690  27.574   3.377   0.902
 3876W        W73691  39.840  27.014  12.947
 3877W        W73692  44.335  26.016  14.364
 3878W        W73693  28.967  30.452   2.276
 3879W        W73694  23.111  28.971   3.274
 3880W        W73695  19.280  37.959   3.645
 3881W        W73696  32.977   3.808   3.244
 3882W        W73697   0.328  40.347  10.414
 3883W        W73698  37.536   0.288  12.993
 3884W        W73699  41.840   4.778   1.295
 3885W        W73700  40.837  15.612   9.591
 3886W        W73701  21.186  40.418  13.414
 3887W        W73702   1.274  42.413  12.365
 3888W        W73703  38.060   5.373   3.296
 3889W        W73704  39.333  23.496  10.469
 3890W        W73705  34.485  12.769  13.911
 3891W        W73706  13.827  10.340  13.547
 3892W        W73707  27.111   5.215   0.767
 3893W        W73708  15.153  15.190   3.316
 3894W        W73709  34.033   9.841  11.045
 3895W        W73710  11.344   1.455  10.629
 3896W        W73711   8.307   4.931  13.054
 3897W        W73712   6.680  20.112  10.559
 3898W        W73713   5.251   3.301   4.719
 3899W        W73714  30.485  30.015  10.427
 3900W        W73715  36.590  15.801  14.992
 3901W        W73716  34.082  34.898   4.323
 3902W        W73717  23.507  24.088  11.571
 3903W        W73718  35.537   6.219  13.496
 3904W        W73719  12.217  15.293  13.063
 3905W        W73720   2.821  39.423   1.446
 3906W        W73721  43.319  32.088   2.846
 3907W        W73722  22.633  38.828   3.175
 3908W        W73723  30.968  25.548  14.773
 3909W        W73724  24.522  41.339  14.292
 3910W        W73725  31.403  13.772  12.372
 3911W        W73726  29.511  36.555   3.291
 3912W        W73727  34.093  22.738   3.644
 3913W        W73728   1.253  32.981  12.866
 3914W        W73729  42.855  32.928   3.734
 3915W        W73730  28.484  42.913   4.235
 3916W        W73731  23.641  22.035   3.656
 3917W        W73732  12.654   6.185  12.470
 3918W        W73733  21.199  41.367  12.021
 3919W        W73734  27.665  13.342   3.324
 3920W        W73735  35.896   0.767  14.983
 3921W        W73736  18.142  23.587   0.940
 3922W        W73737  40.521  21.586   1.723
 3923W        W73738  26.674  21.136   0.794
 3924W        W73739  14.717  16.230   0.935
 3925W        W73740   9.771  13.154   4.617
 3926W        W73741   0.373  38.895  12.475
 3927W        W73742  42.880   8.898  12.380
 3928W        W73743   6.908   4.218   0.267
 3929W        W73744  41.522  24.119   3.788
 3930W        W73745  44.443  22.644  14.308
 3931W        W73746  44.796  13.193  10.553
 3932W        W73747  11.157   9.686  14.868
 3933W        W73748  10.797   0.438  12.064
 3934W        W73749  28.529  43.373   2.179
 3935W        W73750   8.671  14.167   3.235
 3936W        W73751  31.578   9.253  14.347
 3937W        W73752  17.733  12.703   3.683
 3938W        W73753  21.248  26.619  13.530
 3939W        W73754  17.272   1.244  13.390
 3940W        W73755   2.469  26.606  11.112
 3941W        W73756  40.948  17.725   2.742
 3942W        W73757  33.405   0.744   2.182
 3943W        W73758  40.356  20.573  11.483
 3944W        W73759  23.703  25.658  10.481
 3945W        W73760  36.541   0.863   4.273
 3946W        W73761   7.395  15.786   3.705
 3947W        W73762  22.675  22.507   4.611
 3948W        W73763   4.921  28.012  10.508
 3949W        W73764   5.394  31.145  12.057
 3950W        W73765  41.914  18.755   0.315
 3951W        W73766  43.912  12.809  14.941
 3952W        W73767  28.950   0.922   0.922
 3953W        W73768  31.973  19.565  13.350
 3954W        W73769   9.794  32.621   2.896
 3955W        W73770  10.191  12.225   3.303
 3956W        W73771  25.158   9.707   2.310
 3957W        W73772  26.698  27.599   2.407
 3958W        W73773  34.935  20.179  12.378
 3959W        W73774   5.802  38.035   2.385
 3960W        W73775  23.089  32.505  10.505
 3961W        W73776  10.300   8.351  14.908
 3962W        W73777  31.923  11.806  14.890
 3963W        W73778  41.928  44.279  12.000
 3964W        W73779  20.241  44.329   2.225
 3965W        W73780   5.335   9.732  12.435
 3966W        W73781  37.866   8.838  13.856
 3967W        W73782   4.251  24.494   1.284
 3968W        W73783  35.090  22.160   0.945
 3969W        W73784   8.801   2.809  10.937
 3970W        W73785  20.252  33.924   4.836
 3971W        W73786  11.721  24.055   4.737
 3972W        W73787  20.059  34.606   3.731
 3973W        W73788   3.807  34.517   1.761
 3974W        W73789  31.509  24.597  13.899
 3975W        W73790  42.396  16.084   3.871
 3976W        W73791   0.376   6.868  11.402
 3977W        W73792  19.553   0.760  13.899
 3978W        W73793   0.264  41.827  11.521
 3979W        W73794  12.217   3.800  14.940
 3980W        W73795  14.231  21.194   5.175
 3981W        W73796  32.080  11.310  10.506
 3982W        W73797  38.861   8.223  11.078
 3983W        W73798  12.216  36.482   4.205
 3984W        W73799  15.761  10.341  10.107
 3985W        W73800  17.607  37.368   2.321
 3986W        W73801  19.764  34.443  11.124
 3987W        W73802  44.356  10.684   3.346
 3988W        W73803   2.435  41.872   3.210
 3989W        W73804   3.938  15.666  13.998
 3990W        W73805  10.821  14.292   0.275
 3991W        W73806   0.261  23.988  11.997
 3992W        W73807   9.848  36.439   3.794
 3993W        W73808  19.603  20.629   4.673
 3994W        W73809  39.817  36.916  11.045
 3995W        W73810   0.287  23.213   2.205
 3996W        W73811  27.556   1.247   0.773
 3997W        W73812  24.979  24.187  11.056
 3998W        W73813  22.121  24.173   1.794
 3999W        W73814  43.317   3.449  14.807
 4000W        W73815  15.104  24.634  12.548
 4001W        W73816   2.770  18.286  11.917
 4002W        W73817  35.432  16.682   0.430
 4003W        W73818  17.653   3.218   0.966
 4004W        W73819   1.771  19.164  10.414
 4005W        W73820  33.523  26.147  14.388
 4006W        W73821  18.222   4.326  12.920
 4007W        W73822  26.575   0.490  10.453
 4008W        W73823  13.770  43.453   1.755
 4009W        W73824   8.258  10.279   0.251
 4010W        W73825  41.447   8.740  10.627
 4011W        W73826  43.301  29.959  14.832
 4012W        W73827  11.667   0.416  10.496
 4013W        W73828   3.420  38.506   0.408
 4014W        W73829   9.836  29.479  14.498
 4015W        W73830  15.581  11.669   3.722
 4016W        W73831  23.618  10.653   4.616
 4017W        W73832  20.202  20.173   3.631
 4018W        W73833  30.431   4.417   3.287
 4019W        W73834  35.027  11.821  14.934
 4020W        W73835   3.450  26.623   1.382
 4021W        W73836  32.996   9.333  11.026
 4022W        W73837  32.617  18.116   3.723
 4023W        W73838  27.666  44.356   3.829
 4024W        W73839  16.608  15.803  14.770
 4025W        W73840  40.322  42.929  11.381
 4026W        W73841  18.237  41.874  13.400
 4027W        W73842  10.703  12.637  11.427
 4028W        W73843  28.440  31.580   3.725
 4029W        W73844  26.158  18.068   4.282
 4030W        W73845  18.742  17.172   4.150
 4031W        W73846  33.543  36.882  14.943
 4032W        W73847  41.501   0.949   4.813
 4033W        W73848  36.402  18.562  11.011
 4034W        W73849  32.062   0.883  11.876
 4035W        W73850  37.558  36.019  14.449
 4036W        W73851  35.879  10.690   1.314
 4037W        W73852  13.801  26.090   0.829
 4038W        W73853  27.075  29.930   0.926
 4039W        W73854   3.242  42.968  12.988
 4040W        W73855  14.709  21.584   3.773
 4041W        W73856  30.910  16.075  12.993
 4042W        W73857   1.434  20.569  13.326
 4043W        W73858  22.188  31.592   3.381
 4044W        W73859  38.868   4.866   2.688
 4045W        W73860  36.881   5.916  14.300
 4046W        W73861  43.435  44.481   0.864
 4047W        W73862  29.166  19.090   3.194
 4048W        W73863  31.921  19.276  14.774
 4049W        W73864  13.272  11.129   4.768
 4050W        W73865  38.993  33.006  12.550
 4051W        W73866  14.302   5.786  12.424
 4052W        W73867   1.454  16.720   3.751
 4053W        W73868  34.506  42.870   4.327
 4054W        W73869  31.416  36.967  12.501
 4055W        W73870  24.498  16.074  10.565
 4056W        W73871  20.267  24.630  14.440
 4057W        W73872  26.541  25.511   3.368
 4058W        W73873   4.745  20.769   3.318
 4059W        W73874  14.143  15.672  11.970
 4060W        W73875   3.820  20.656   3.867
 4061W        W73876  44.975  25.471   3.352
 4062W        W73877  29.571  34.942   0.375
 4063W        W73878  23.013  40.469  10.536
 4064W        W73879   2.863  25.002  14.885
 4065W        W73880  37.866   1.280   1.392
 4066W        W73881  20.165  26.659   1.866
 4067W        W73882  34.048  35.437  14.031
 4068W        W73883   7.814  30.521  11.011
 4069W        W73884  29.513  44.798   2.896
 4070W        W73885   0.887   0.347  12.086
 4071W        W73886  30.635   2.381  13.418
 4072W        W73887  30.418  33.410  12.526
 4073W        W73888  41.376  43.465  14.990
 4074W        W73889  25.129   2.724  14.995
 4075W        W73890  39.373  40.372  14.889
 4076W        W73891  44.822  36.848  11.126
 4077W        W73892   6.377  40.008  11.911
 4078W        W73893  20.694  37.367  12.960
 4079W        W73894   6.363  10.380  13.434
 4080W        W73895  13.753  25.017   4.234
 4081W        W73896  44.466   6.847   2.337
 4082W        W73897  38.472  34.424  10.893
 4083W        W73898  27.192  24.173  11.125
 4084W        W73899  28.986  19.040  13.365
 4085W        W73900  19.584  40.888   4.192
 4086W        W73901  29.466  26.150  14.876
 4087W        W73902   0.328  14.139  13.547
 4088W        W73903  18.678  21.721   3.245
 4089W        W73904   4.350  36.020   3.253
 4090W        W73905  12.153  22.583  13.535
 4091W        W73906  38.938  12.264  14.019
 4092W        W73907  13.252  11.648   0.795
 4093W        W73908  19.062  42.363  12.041
 4094W        W73909  33.443  18.194  10.415
 4095W        W73910  18.570  13.344  10.945
 4096W        W73911   9.280  43.962  13.403
 4097W        W73912  32.028  31.498   0.910
 4098W        W73913  21.559  40.487   0.942
 4099W        W73914  36.073  41.827   2.266
 4100W        W73915  20.221   0.778  12.897
 4101W        W73916  29.136   8.857   2.685
 4102W        W73917  34.583  31.424  12.573
 4103W        W73918  27.565  40.932  10.933
 4104W        W73919  24.028  17.099  11.031
 4105W        W73920  33.130  18.737  10.966
 4106W        W73921   9.159  33.089  11.941
 4107W        W73922   4.258   7.668   4.120
 4108W        W73923   6.840  22.018  10.455
 4109W        W73924  14.259  16.285  13.491
 4110W        W73925   9.158  40.836  10.117
 4111W        W73926  13.287  43.898   1.326
 4112W        W73927   8.350  33.881   1.890
 4113W        W73928  36.056  25.064  14.779
 4114W        W73929  10.330  29.645  11.562
 4115W        W73930   9.652  20.198  12.491
 4116W        W73931  22.178  14.794  12.091
 4117W        W73932  26.053  36.916   2.244
 4118W        W73933  41.343  39.895   4.693
 4119W        W73934   9.842  31.590   4.184
 4120W        W73935  15.720   8.189   2.386
 4121W        W73936  23.152  23.135  11.990
 4122W        W73937  20.681   8.873  13.022
 4123W        W73938   6.184  41.834   2.870
 4124W        W73939   4.377  38.869  11.856
 4125W        W73940  24.196  23.543   2.232
 4126W        W73941   6.891  41.343  14.962
 4127W        W73942   7.749  25.107  12.428
 4128W        W73943  38.553  27.488  14.492
 4129W        W73944  33.066  36.080   4.669
 4130W        W73945  41.016  20.543   0.376
 4131W        W73946  27.042   1.900   3.356
 4132W        W73947  34.898  14.705  14.884
 4133W        W73948   3.805  15.293   0.850
 4134W        W73949   7.891  33.064   4.236
 4135W        W73950  36.546   4.407  11.480
 4136W        W73951  15.091   1.737   4.766
 4137W        W73952  12.765  25.647   3.862
 4138W        W73953  26.104   0.291   3.651
 4139W        W73954  35.999  12.280  14.358
 4140W        W73955  15.323  34.478  12.041
 4141W        W73956   4.763  34.428  11.552
 4142W        W73957  26.686  41.334   0.308
 4143W        W73958   4.346  41.857  11.890
 4144W        W73959   3.454  10.308  12.552
 4145W        W73960  29.127   6.313  10.443
 4146W        W73961  44.902  30.459   0.252
 4147W        W73962  44.361   3.452  11.547
 4148W        W73963  10.661  27.961   2.732
 4149W        W73964  18.216  20.062   0.383
 4150W        W73965   5.239   4.404  14.882
 4151W        W73966  41.451   2.398  10.634
 4152W        W73967  17.743  15.811  11.559
 4153W        W73968   1.962  19.734   0.463
 4154W        W73969  25.137  38.529   2.699
 4155W        W73970  10.244   5.289  12.042
 4156W        W73971  39.512  39.544   1.897
 4157W        W73972  19.271  29.058   4.345
 4158W        W73973  31.586  22.133   4.278
 4159W        W73974  36.877   6.249   1.785
 4160W        W73975   5.307   2.862  12.052
 4161W        W73976  15.158   8.872  11.533
 4162W        W73977  40.358  31.465   4.130
 4163W        W73978  17.155  10.306   2.788
 4164W        W73979   2.856  16.597  12.528
 4165W        W73980  21.558  42.797   4.322
 4166W        W73981  27.489  10.371  13.862
 4167W        W73982   0.763   5.280  14.793
 4168W        W73983   3.938  13.144  11.604
 4169W        W73984   1.869  23.077  14.990
 4170W        W73985   8.177   9.276   3.326
 4171W        W73986  29.049  27.180  12.414
 4172W        W73987   9.721  32.903   0.409
 4173W        W73988  20.714  43.994  12.874
 4174W        W73989  41.355  28.480   0.342
 4175W        W73990  28.934   0.395  13.009
 4176W        W73991   8.684  20.149  13.996
 4177W        W73992  27.080  27.464  14.919
 4178W        W73993  19.227  13.168  10.941
 4179W        W73994  43.281  17.572  12.376
 4180W        W73995  34.487  36.452  11.970
 4181W        W73996  41.455  22.143   1.720
 4182W        W73997  29.136  24.723   2.345
 4183W        W73998  38.341   4.422  14.810
 4184W        W73999  18.151  17.756  10.511
 4185W        W74000   0.758  25.122  12.393
 4186W        W74001  24.702  38.931  11.102
 4187W        W74002  37.531  41.826  10.501
 4188W        W74003   0.975  18.788   2.876
 4189W        W74004  14.688  17.558  11.382
 4190W        W74005   1.947  21.106   1.383
 4191W        W74006  10.252  31.148   2.663
 4192W        W74007   3.368  25.106   5.305
 4193W        W74008  36.898  11.807  13.872
 4194W        W74009  28.936  39.474  14.819
 4195W        W74010  30.433  40.025  11.033
 4196W        W74011  38.343  37.948  11.450
 4197W        W74012  36.002  27.176  12.459
 4198W        W74013  34.463  18.158  12.884
 4199W        W74014   0.846  27.155  10.631
 4200W        W74015  25.539   6.328  11.879
 4201W        W74016  18.587   0.262   2.178
 4202W        W74017  26.077  33.569  10.479
 4203W        W74018  37.886  21.642   1.312
 4204W        W74019   6.335  18.059  11.393
 4205W        W74020  41.449  44.799  10.546
 4206W        W74021   6.249  10.318   0.424
 4207W        W74022  20.738  28.975  12.365
 4208W        W74023  44.949  36.561   2.821
 4209W        W74024  28.597  11.152   1.410
 4210W        W74025   7.881  31.559   4.703
 4211W        W74026   3.838  43.336   3.765
 4212W        W74027  35.009  24.712  13.861
 4213W        W74028  11.270  26.057   3.233
 4214W        W74029  42.868  21.233  14.837
 4215W        W74030  16.663  32.950  13.466
 4216W        W74031  42.471   3.874  11.611
 4217W        W74032   3.451   7.404  12.371
 4218W        W74033  41.952  16.206   4.614
 4219W        W74034  10.162   2.469   0.409
 4220W        W74035  28.165   4.315   2.832
 4221W        W74036  42.446  13.166   2.850
 4222W        W74037  39.371  10.833  13.914
 4223W        W74038  18.608  23.174   1.273
 4224W        W74039  23.163  40.459   3.301
 4225W        W74040  29.165  39.000   9.930
 4226W        W74041  20.537  32.587  11.542
 4227W        W74042  18.068  27.029   3.850
 4228W        W74043  43.829  16.730  13.895
 4229W        W74044  43.350  41.983  14.008
 4230W        W74045  30.523  31.090  11.396
 4231W        W74046   7.771  31.905   0.959
 4232W        W74047  30.117  25.683  14.303
 4233W        W74048  10.742  15.112  13.324
 4234W        W74049  36.896  33.060  13.530
 4235W        W74050   6.275  26.039  11.592
 4236W        W74051   4.342   9.690  13.951
 4237W        W74052  27.682  20.647   2.405
 4238W        W74053  43.391   3.912  11.005
 4239W        W74054   6.906  31.919   4.763
 4240W        W74055  10.282  34.020  12.406
 4241W        W74056  10.754   8.316   4.651
 4242W        W74057  30.590  11.695   4.318
 4243W        W74058   8.266   9.644  12.990
 4244W        W74059  22.628  19.042   1.757
 4245W        W74060  12.844  26.988   1.215
 4246W        W74061  37.923  28.141   1.218
 4247W        W74062  34.396  31.103   2.810
 4248W        W74063   6.276  18.588   0.415
 4249W        W74064   1.433   2.434  13.504
 4250W        W74065  32.102  17.642   0.871
 4251W        W74066  39.005  18.596   5.299
 4252W        W74067  23.170  11.130   0.779
 4253W        W74068  30.044  18.203   2.836
 4254W        W74069  13.842  13.730   2.204
 4255W        W74070  26.606  18.251  12.922
 4256W        W74071  38.404  33.095  13.482
 4257W        W74072  32.397  24.548   0.769
 4258W        W74073  29.566  30.492   3.291
 4259W        W74074  43.013  23.145  13.935
 4260W        W74075   7.411  26.588   0.392
 4261W        W74076  36.068  40.333  11.943
 4262W        W74077  28.452  17.633  14.022
 4263W        W74078  36.446  42.435  13.993
 4264W        W74079   1.915  22.537   4.833
 4265W        W74080   2.406   7.830   1.776
 4266W        W74081  40.836  35.100  11.558
 4267W        W74082  34.608  12.132  14.455
 4268W        W74083  35.566  32.512   1.259
 4269W        W74084  34.106   4.817   2.419
 4270W        W74085  34.526  25.502   1.923
 4271W        W74086  36.567  32.107  10.604
 4272W        W74087  41.524  24.230   2.386
 4273W        W74088  24.150  21.260   4.746
 4274W        W74089  35.981   6.833   4.656
 4275W        W74090  31.597  12.744  13.408
 4276W        W74091   1.738  31.411  10.944
 4277W        W74092   6.236  14.135  10.973
 4278W        W74093   6.214  30.945   4.321
 4279W        W74094  34.101   1.795   3.705
 4280W        W74095  43.865  33.475   2.675
 4281W        W74096   3.456  39.912  13.832
 4282W        W74097  23.610  14.327  14.833
 4283W        W74098  38.363  32.136  14.817
 4284W        W74099   4.346  20.546   3.232
 4285W        W74100   5.867   8.662  10.632
 4286W        W74101   3.418   5.764  14.512
 4287W        W74102  41.504   1.887   0.854
 4288W        W74103  16.582  40.045   1.788
 4289W        W74104  44.988   7.324   1.877
 4290W        W74105  14.660  23.099   0.247
 4291W        W74106  38.408  29.945  10.477
 4292W        W74107  43.765  33.531   3.822
 4293W        W74108  11.335  17.707   1.733
 4294W        W74109  18.682   3.253  11.474
 4295W        W74110  37.495  31.043   3.203
 4296W        W74111  19.160  13.674   1.368
 4297W        W74112   7.322  25.171   1.247
 4298W        W74113   7.410  28.160   0.853
 4299W        W74114  16.674  40.516  10.515
 4300W        W74115   4.414  11.860  11.439
 4301W        W74116  39.001   0.918  10.540
 4302W        W74117  29.616  34.602  10.134
 4303W        W74118  12.212  34.512  13.508
 4304W        W74119   9.759  22.227  14.820
 4305W        W74120  41.884  17.674   2.195
 4306W        W74121   6.912  35.376  13.456
 4307W        W74122   0.901   1.243  14.026
 4308W        W74123  44.401   4.774  13.906
 4309W        W74124  12.739  19.101   0.845
 4310W        W74125  20.625  19.162  10.980
 4311W        W74126  35.060  31.500  12.041
 4312W        W74127  30.535  40.857  13.960
 4313W        W74128  17.695  10.212  14.372
 4314W        W74129  16.312   9.349  14.353
 4315W        W74130  17.073  11.240  10.542
 4316W        W74131  16.174  44.499  11.884
 4317W        W74132   5.911   8.697   4.709
 4318W        W74133  31.609   3.956  12.075
 4319W        W74134   8.847  44.854  12.483
 4320W        W74135  11.228  34.529   3.282
 4321W        W74136  34.463  23.122   0.909
 4322W        W74137  30.935   9.718  14.435
 4323W        W74138   0.867  44.978   4.130
 4324W        W74139  28.465  22.540   3.778
 4325W        W74140  15.242  31.913  14.866
 4326W        W74141   1.740  37.404  12.495
 4327W        W74142  10.142  38.950   5.242
 4328W        W74143  21.056  23.644  10.030
 4329W        W74144   1.867  12.832  11.882
 4330W        W74145  35.904   7.867  14.870
 4331W        W74146  39.009  22.735   2.189
 4332W        W74147  28.649   5.921  13.926
 4333W        W74148   1.861  20.629   0.726
 4334W        W74149  15.129  29.432  10.966
 4335W        W74150  34.048  38.964  14.009
 4336W        W74151  20.593  10.146  10.614
 4337W        W74152  26.085  26.610   4.143
 4338W        W74153  35.473  22.137  13.399
 4339W        W74154   8.312   7.360   1.777
 4340W        W74155   0.464  43.487   1.844
 4341W        W74156  40.530  10.326   1.722
 4342W        W74157   1.358  25.676   4.266
 4343W        W74158   1.844   1.817   1.754
 4344W        W74159  43.894   4.818   2.855
 4345W        W74160  41.389  21.045  11.404
 4346W        W74161  17.645  12.795  14.925
 4347W        W74162   9.355   1.907   1.773
 4348W        W74163  33.986  24.190  13.999
 4349W        W74164  42.015  26.679   2.889
 4350W        W74165   9.763  30.104  12.014
 4351W        W74166  36.449  11.738   2.253
 4352W        W74167  36.570  41.469  13.914
 4353W        W74168  30.586  19.756   0.420
 4354W        W74169   8.190  20.210   2.235
 4355W        W74170  28.109  37.058  12.358
 4356W        W74171  39.852  14.234   2.239
 4357W        W74172  43.429  13.702  14.331
 4358W        W74173  30.161  15.180  13.045
 4359W        W74174  31.554  17.094  14.335
 4360W        W74175  33.496  31.071  13.489
 4361W        W74176  37.965  33.900  13.493
 4362W        W74177   2.464  14.630  11.867
 4363W        W74178  21.730  16.173   1.802
 4364W        W74179   9.763   9.744   4.808
 4365W        W74180  18.124  29.547   4.304
 4366W        W74181  14.096  17.270  13.866
 4367W        W74182  39.912  21.674   3.665
 4368W        W74183  14.283  31.451  13.840
 4369W        W74184   2.261  25.214   3.824
 4370W        W74185  10.207   9.865  10.058
 4371W        W74186  18.227  31.583   3.362
 4372W        W74187  34.958  32.562   3.255
 4373W        W74188  33.528  11.837   1.831
 4374W        W74189   5.358  25.140   0.949
 4375W        W74190   3.841  36.046  14.803
 4376W        W74191  32.519  27.054   1.265
 4377W        W74192   5.192   3.406  10.529
 4378W        W74193  37.578   6.314   0.732
 4379W        W74194  20.540  33.567   0.355
 4380W        W74195  15.256  28.944   1.282
 4381W        W74196  24.037   9.883   0.934
 4382W        W74197  39.892  10.676   2.263
 4383W        W74198  12.159  42.310   3.752
 4384W        W74199  31.050  32.102   4.690
 4385W        W74200   2.840   9.283  12.855
 4386W        W74201  26.540  40.441  11.572
 4387W        W74202  42.863  41.852  13.820
 4388W        W74203   1.883  12.133   0.774
 4389W        W74204  24.545  19.628  12.510
 4390W        W74205  42.369   6.862  12.042
 4391W        W74206   8.395  20.155  13.850
 4392W        W74207  22.154  19.755   1.265
 4393W        W74208  26.480   6.405   0.386
 4394W        W74209  14.611  27.569   2.230
 4395W        W74210  36.563  14.305   4.749
 4396W        W74211   3.407  25.656   0.826
 4397W        W74212  31.419   1.830  13.480
 4398W        W74213   8.237  33.498   4.195
 4399W        W74214  11.174  17.613  14.477
 4400W        W74215  42.986  27.530  10.599
 4401W        W74216  27.692  17.100   2.373
 4402W        W74217  30.910  32.407   3.343
 4403W        W74218  10.299  13.749  10.558
 4404W        W74219   7.265  39.440   1.258
 4405W        W74220  30.621  21.052  13.020
 4406W        W74221  10.192   9.777   0.828
 4407W        W74222  34.959  15.604  11.501
 4408W        W74223   3.848   8.751   1.834
 4409W        W74224  44.783  37.344  14.453
 4410W        W74225  36.510  40.914   1.907
 4411W        W74226  18.731  23.065  11.548
 4412W        W74227   5.327  23.534  10.629
 4413W        W74228  32.555  39.472   3.210
 4414W        W74229  41.859  37.942  12.898
 4415W        W74230  21.591   7.864  13.057
 4416W        W74231  27.453  35.557  13.023
 4417W        W74232   6.709  11.660  14.908
 4418W        W74233  43.441  15.258  14.334
 4419W        W74234  25.507  32.109   2.856
 4420W        W74235  40.357  42.804   4.694
 4421W        W74236  15.671   7.375   1.838
 4422W        W74237  39.963  33.095  11.607
 4423W        W74238  27.180  14.696  12.018
 4424W        W74239  38.841   0.914   2.829
 4425W        W74240   5.762  32.459   4.245
 4426W        W74241  12.355  32.098  14.465
 4427W        W74242  18.602  35.021  11.534
 4428W        W74243   3.257   1.734   2.276
 4429W        W74244  12.159  29.952   4.291
 4430W        W74245  24.228   0.852  10.067
 4431W        W74246  22.158   3.787  11.538
 4432W        W74247   7.319  35.939  10.492
 4433W        W74248  37.379  32.140  11.019
 4434W        W74249   8.170  12.176  11.960
 4435W        W74250  14.696  36.034  10.592
 4436W        W74251  44.440  33.478   0.801
 4437W        W74252  41.826  12.209  14.763
 4438W        W74253   8.797  31.048   3.848
 4439W        W74254  20.758  20.556  14.819
 4440W        W74255   7.773  15.169  14.405
 4441W        W74256  44.877  35.944  12.981
 4442W        W74257  17.576  29.582  11.921
 4443W        W74258  22.526  30.512   3.160
 4444W        W74259  19.233   8.687  14.336
 4445W        W74260  33.966  24.083   3.352
 4446W        W74261  37.873   0.810  14.435
 4447W        W74262  39.066  20.542   1.302
 4448W        W74263   4.817  39.451  13.402
 4449W        W74264  25.971  23.656   0.823
 4450W        W74265  29.115   2.903   4.206
 4451W        W74266  41.948  22.564  12.933
 4452W        W74267   1.794   5.797   0.424
 4453W        W74268  44.834  42.470   1.920
 4454W        W74269  10.860  44.421  13.811
 4455W        W74270  17.264   9.336  13.831
 4456W        W74271  41.816  12.164  13.334
 4457W        W74272  41.465  23.226   4.655
 4458W        W74273  11.668  22.698   3.729
 4459W        W74274  30.500  11.816   0.955
 4460W        W74275  42.508  39.527  11.576
 4461W        W74276  35.443  27.948  11.897
 4462W        W74277   5.877  43.895   4.115
 4463W        W74278  33.433  36.045   2.371
 4464W        W74279  38.863  19.161   2.753
 4465W        W74280  36.580  19.671  13.856
 4466W        W74281   9.726  41.997  14.000
 4467W        W74282  35.862  32.931  12.398
 4468W        W74283  34.022  32.526   0.379
 4469W        W74284  39.450  22.637  13.985
 4470W        W74285  30.065   5.264  13.987
 4471W        W74286  29.438   4.405  12.401
 4472W        W74287  11.139  11.256   4.807
 4473W        W74288   0.309  40.539  11.468
 4474W        W74289   9.273  29.566  13.501
 4475W        W74290   9.835  40.385   1.291
 4476W        W74291  27.662   8.706   3.289
 4477W        W74292  31.600   3.288   3.295
 4478W        W74293  15.166  39.417  12.964
 4479W        W74294   9.166  31.049  14.855
 4480W        W74295  26.564   0.410  12.559
 4481W        W74296  15.289  18.170   3.308
 4482W        W74297  25.124  24.629   1.317
 4483W        W74298  26.178   7.692   1.404
 4484W        W74299   9.658  32.487  12.093
 4485W        W74300  30.991  38.346   3.235
 4486W        W74301  14.094  15.247  10.419
 4487W        W74302  34.062  21.083  11.473
 4488W        W74303  44.313  23.120  12.873
 4489W        W74304   8.284  17.306   0.825
 4490W        W74305  11.849  27.990  14.876
 4491W        W74306  27.581  29.607   3.233
 4492W        W74307   0.277  30.519   4.836
 4493W        W74308  40.515  23.620  11.880
 4494W        W74309  16.231  38.473  14.367
 4495W        W74310  37.858  16.304   2.873
 4496W        W74311  19.593  17.113  14.809
 4497W        W74312  30.543  22.111   3.694
 4498W        W74313  20.710  31.110   3.861
 4499W        W74314  32.960  12.226  12.402
 4500W        W74315  31.513  15.226   1.321
 4501W        W74316   9.380  27.572  12.045
 4502W        W74317  31.927  14.254   1.212
 4503W        W74318   4.707  10.648   0.452
 4504W        W74319  41.440  37.972  14.921
 4505W        W74320  42.366   0.794  11.860
 4506W        W74321  40.886  29.654  14.991
 4507W        W74322   9.168  36.004   5.196
 4508W        W74323  43.508  20.608   1.243
 4509W        W74324  24.518  43.479  11.004
 4510W        W74325  23.190  40.846  11.391
 4511W        W74326  41.889  33.014  10.620
 4512W        W74327  36.056  34.391   3.797
 4513W        W74328  29.124  22.163   4.796
 4514W        W74329  43.889  23.647   2.319
 4515W        W74330  31.423  41.319   3.695
 4516W        W74331  12.202   6.893   1.337
 4517W        W74332   6.706  34.441  11.423
 4518W        W74333  44.809  36.967  10.459
 4519W        W74334   7.882  30.923   4.297
 4520W        W74335   0.968  12.633  14.997
 4521W        W74336  19.224   1.387  14.805
 4522W        W74337  10.702  43.460  11.108
 4523W        W74338  31.041  38.559   4.303
 4524W        W74339  20.104   0.414  11.086
 4525W        W74340  24.088  32.457  13.386
 4526W        W74341  23.152  41.923   2.416
 4527W        W74342   3.321  19.164   0.472
 4528W        W74343   8.753  43.940   1.823
 4529W        W74344  29.174  38.491   0.830
 4530W        W74345  11.839  38.031   1.696
 4531W        W74346   2.902  17.746  11.518
 4532W        W74347  29.592  11.800  13.365
 4533W        W74348  31.923   0.308  14.852
 4534W        W74349  14.188  34.531   1.792
 4535W        W74350  34.064  30.165  13.517
 4536W        W74351   5.254  11.142  14.988
 4537W        W74352  17.188  38.327  13.954
 4538W        W74353  27.628  27.035   2.701
 4539W        W74354   4.299  28.074  10.449
 4540W        W74355  21.117  25.636   0.394
 4541W        W74356  40.463  40.028  13.417
 4542W        W74357  43.966  38.364  14.484
 4543W        W74358  17.664  44.007  14.407
 4544W        W74359  23.162  22.238   4.171
 4545W        W74360   5.268  36.370   0.765
 4546W        W74361   0.318  18.599   0.758
 4547W        W74362   1.418  34.573  11.126
 4548W        W74363  27.613  27.649   1.902
 4549W        W74364  18.761  32.116  12.342
 4550W        W74365  38.360   1.818  11.068
 4551W        W74366  17.128  12.686   0.774
 4552W        W74367  10.837  30.915   3.762
 4553W        W74368   3.807  34.492  13.975
 4554W        W74369  14.122  39.979  10.442
 4555W        W74370  10.723  15.178  11.571
 4556W        W74371  34.010  14.663  10.987
 4557W        W74372  23.166  35.009  13.474
 4558W        W74373  36.054  36.573   5.155
 4559W        W74374   5.375  42.913   3.640
 4560W        W74375  38.472  33.916  11.528
 4561W        W74376   8.329  22.571   2.755
 4562W        W74377  41.444  21.647   3.663
 4563W        W74378  29.448  25.544  10.626
 4564W        W74379  16.292  31.908  13.319
 4565W        W74380  23.552  21.548   1.714
 4566W        W74381   2.940  17.565  14.024
 4567W        W74382  25.651  33.539  13.799
 4568W        W74383  27.104   2.877   1.754
 4569W        W74384  23.600  13.843  13.309
 4570W        W74385   1.425  37.432   0.734
 4571W        W74386   2.410  34.543  10.939
 4572W        W74387  23.145  44.322   3.809
 4573W        W74388  30.162   6.424   1.431
 4574W        W74389  14.241  12.663   1.422
 4575W        W74390  10.725   6.921  14.499
 4576W        W74391  18.130  36.384   4.637
 4577W        W74392  31.136   8.812  14.301
 4578W        W74393   3.242  14.220   0.447
 4579W        W74394  33.044   5.825  10.538
 4580W        W74395   9.797  24.482  11.577
 4581W        W74396  29.090  44.280   3.357
 4582W        W74397  29.083   1.953   1.891
 4583W        W74398  13.177  29.930   0.804
 4584W        W74399  23.531  24.713  14.340
 4585W        W74400  29.457  44.980   3.206
 4586W        W74401  26.474  36.985  13.904
 4587W        W74402  29.589   3.397   1.410
 4588W        W74403  42.805  10.159  13.994
 4589W        W74404  29.550  40.908  13.006
 4590W        W74405  28.962  12.310  13.894
 4591W        W74406  17.102  21.715  13.939
 4592W        W74407   5.369   6.348  14.998
 4593W        W74408  28.049  33.911  10.504
 4594W        W74409  34.072  42.356   3.336
 4595W        W74410  44.774   3.887  11.527
 4596W        W74411   9.388   7.185  13.876
 4597W        W74412  34.594   4.728   4.168
 4598W        W74413  32.131  16.315  10.966
 4599W        W74414  20.646  35.555   2.891
 4600W        W74415  12.191   4.875  11.394
 4601W        W74416  32.397  13.753  13.893
 4602W        W74417   2.302  17.163   1.912
 4603W        W74418  26.965  31.574   1.221
 4604W        W74419  27.458   6.751   0.761
 4605W        W74420  20.743  33.412   4.161
 4606W        W74421   7.201  14.111  13.979
 4607W        W74422  19.720  23.077  13.839
 4608W        W74423  10.767   7.691   0.443
 4609W        W74424  17.766   3.426  13.823
 4610W        W74425  37.016  12.285   0.463
 4611W        W74426  34.961  12.226   3.361
 4612W        W74427  35.937   3.888   4.792
 4613W        W74428  20.565  29.618   3.801
 4614W        W74429   2.384  16.672  10.896
 4615W        W74430   5.817  28.939   2.695
 4616W        W74431   3.358  27.547  14.785
 4617W        W74432   9.361  36.001  11.914
 4618W        W74433  41.969  39.858   0.415
 4619W        W74434   8.686   1.966  13.308
 4620W        W74435  35.438  12.738  11.122
 4621W        W74436  25.976  42.302  14.461
 4622W        W74437   1.280   2.227   4.739
 4623W        W74438  27.617  40.837   3.773
 4624W        W74439   2.872  15.117  11.374
 4625W        W74440  37.420  42.485   3.787
 4626W        W74441  29.982  31.952  10.996
 4627W        W74442  36.529  26.585  12.384
 4628W        W74443  32.136   2.920   0.336
 4629W        W74444   1.900   2.230  12.448
 4630W        W74445  41.478  19.732  13.456
 4631W        W74446  24.035   7.870  12.515
 4632W        W74447  25.172  40.528   1.280
 4633W        W74448  29.547  40.495  12.386
 4634W        W74449  16.685  38.950   1.213
 4635W        W74450   1.359   8.320   1.278
 4636W        W74451  29.579   7.813  14.331
 4637W        W74452  35.866  43.826   3.679
 4638W        W74453  33.447  17.208   4.241
 4639W        W74454  30.494   2.465   1.359
 4640W        W74455  15.164  30.480   4.824
 4641W        W74456  16.301  17.743  14.811
 4642W        W74457  24.523   6.888  12.963
 4643W        W74458  27.510   0.937  10.496
 4644W        W74459   3.426  30.572  13.506
 4645W        W74460  29.063   3.751  12.829
 4646W        W74461  24.497  14.633   0.796
 4647W        W74462  32.927  10.159  13.523
 4648W        W74463  18.276   9.172  11.415
 4649W        W74464  41.807  16.090  13.410
 4650W        W74465  23.085   5.841  14.429
 4651W        W74466   3.892  13.240   4.231
 4652W        W74467  13.639   3.713  10.993
 4653W        W74468  22.700  36.037   0.830
 4654W        W74469  27.541  39.382   1.931
 4655W        W74470   3.736  34.869   3.194
 4656W        W74471  27.576  32.632  14.997
 4657W        W74472  26.612  20.701  14.978
 4658W        W74473  30.623  35.076   3.648
 4659W        W74474  21.092   8.307  10.618
 4660W        W74475  30.970  34.007   4.346
 4661W        W74476  10.727  11.221  11.005
 4662W        W74477   0.839  12.758  10.084
 4663W        W74478   5.247  11.801  12.346
 4664W        W74479   1.456  24.100  14.771
 4665W        W74480  17.211   1.761  11.030
 4666W        W74481  20.218  14.259   0.916
 4667W        W74482  24.629   8.801   3.747
 4668W        W74483  15.781  14.210  12.916
 4669W        W74484  18.198  29.015   2.847
 4670W        W74485  12.251  41.383   4.711
 4671W        W74486  33.944   3.313  13.386
 4672W        W74487   3.281  30.611   1.898
 4673W        W74488  34.038   9.277   3.382
 4674W        W74489   7.844  27.623  13.371
 4675W        W74490   2.369  35.003   0.347
 4676W        W74491  41.822   9.779   2.416
 4677W        W74492  10.336  18.634   0.303
 4678W        W74493  16.138  44.292  13.309
 4679W        W74494  36.502  14.292   3.808
 4680W        W74495  28.538  41.007  12.986
 4681W        W74496  15.750  30.082  11.101
 4682W        W74497   8.347  42.804   4.235
 4683W        W74498  15.791   6.282  14.911
 4684W        W74499  16.220  20.703   2.393
 4685W        W74500  32.932  36.581   1.920
 4686W        W74501  38.014  30.932  14.822
 4687W        W74502  18.287   3.296  11.097
 4688W        W74503  15.772  12.319  11.115
 4689W        W74504  19.688  41.793  10.527
 4690W        W74505  26.972   2.393   1.895
 4691W        W74506  35.445   1.819  11.059
 4692W        W74507  16.692   3.449  11.535
 4693W        W74508  20.718   2.788   2.409
 4694W        W74509  44.978  14.782   4.258
 4695W        W74510  41.978  16.091   3.372
 4696W        W74511  28.642  36.395   0.747
 4697W        W74512  16.701  26.697   1.786
 4698W        W74513   1.873  34.097  14.871
 4699W        W74514  31.010   5.373  14.337
 4700W        W74515  30.059  22.608  13.042
 4701W        W74516  13.170  42.393  14.808
 4702W        W74517  17.260  32.131  10.985
 4703W        W74518   9.190  31.471   0.799
 4704W        W74519  20.187  43.833   4.832
 4705W        W74520   3.456  13.762   0.882
 4706W        W74521  30.560  11.817   1.338
 4707W        W74522   3.751   8.313  12.359
 4708W        W74523   2.259  29.645  11.123
 4709W        W74524  42.292   5.767  12.341
 4710W        W74525   7.305  23.600  13.459
 4711W        W74526  24.188   4.382  10.420
 4712W        W74527  15.248   8.735  12.572
 4713W        W74528  39.937  35.964   3.316
 4714W        W74529  31.435  19.641   3.238
 4715W        W74530  18.072   1.412  11.513
 4716W        W74531  40.873  17.785  10.927
 4717W        W74532  31.433   7.294   2.222
 4718W        W74533  11.301  28.502   2.335
 4719W        W74534   3.919   3.365  11.958
 4720W        W74535  40.816  40.305  10.940
 4721W        W74536   7.834  39.493  14.792
 4722W        W74537  37.428  23.579  10.563
 4723W        W74538   8.345  29.956  14.836
 4724W        W74539   2.252   1.732   4.141
 4725W        W74540   9.836  36.362   1.283
 4726W        W74541  24.698  16.594  12.539
 4727W        W74542   0.781   9.235   3.187
 4728W        W74543  21.564  29.625   2.383
 4729W        W74544   0.752  32.576  14.277
 4730W        W74545   5.769  24.027  14.292
 4731W        W74546  34.064   8.230   2.663
 4732W        W74547  19.679  11.203   2.302
 4733W        W74548  20.229  24.559   0.909
 4734W        W74549   5.329  17.687  13.407
 4735W        W74550   3.372  31.480   0.439
 4736W        W74551  26.498   2.921  14.812
 4737W        W74552   4.858   2.353  12.577
 4738W        W74553  25.996   9.234   4.790
 4739W        W74554  36.517  40.852  11.063
 4740W        W74555  11.148  31.968   1.773
 4741W        W74556  31.083  36.569  14.950
 4742W        W74557  22.099  21.247   0.946
 4743W        W74558   6.368  34.028  10.506
 4744W        W74559  35.592  42.306  10.452
 4745W        W74560   9.855   4.247   4.714
 4746W        W74561  38.037  27.165   1.226
 4747W        W74562   3.774  30.521  14.390
 4748W        W74563   4.424  38.326   4.273
 4749W        W74564  36.842  28.602   3.710
 4750W        W74565  16.102  11.131  12.552
 4751W        W74566  35.526  43.298   4.157
 4752W        W74567  31.419  30.954  11.525
 4753W        W74568  40.034  43.001  11.089
 4754W        W74569   7.872  34.426  11.573
 4755W        W74570  23.541  15.662  12.938
 4756W        W74571  22.151  14.834   0.411
 4757W        W74572  27.508  25.661  11.911
 4758W        W74573  41.011   4.250  13.981
 4759W        W74574  10.209  21.035  14.420
 4760W        W74575  39.866  40.988  13.385
 4761W        W74576  26.046   9.287   4.171
 4762W        W74577  25.578   0.420   2.199
 4763W        W74578  42.852  40.423  13.421
 4764W        W74579  31.915  31.148   3.210
 4765W        W74580   5.417  33.480  11.403
 4766W        W74581  12.716  19.112  13.812
 4767W        W74582  38.391  22.030   1.220
 4768W        W74583   5.398   5.339   3.699
 4769W        W74584  12.204   6.301   3.191
 4770W        W74585  26.086  37.924   2.187
 4771W        W74586  14.686  19.237  13.336
 4772W        W74587  44.436  41.814  11.465
 4773W        W74588  10.706   5.824   0.936
 4774W        W74589  41.386  22.065  14.889
 4775W        W74590  14.167  30.539  13.815
 4776W        W74591  22.594  39.481  13.381
 4777W        W74592  26.034  14.829  14.877
 4778W        W74593   1.805  34.506  13.950
 4779W        W74594  43.952   1.266   0.243
 4780W        W74595  21.646  25.608   2.399
 4781W        W74596  27.173  35.370   1.417
 4782W        W74597  21.235  34.589   4.286
 4783W        W74598   4.236   6.230  10.941
 4784W        W74599  44.959  17.599   2.680
 4785W        W74600  27.999  26.115  13.020
 4786W        W74601  41.841  41.443  12.354
 4787W        W74602  32.018  26.628  13.793
 4788W        W74603  38.501  13.122  13.447
 4789W        W74604  38.545  17.192   0.897
 4790W        W74605  10.716  25.011  11.073
 4791W        W74606  42.794  39.549   3.633
 4792W        W74607  16.577  18.254  11.556
 4793W        W74608   2.428  15.710   1.431
 4794W        W74609  26.470  31.533  12.845
 4795W        W74610  24.554   0.989  12.833
 4796W        W74611  26.559  33.068  10.496
 4797W        W74612  30.040  33.048  10.955
 4798W        W74613  39.031  44.446  14.799
 4799W        W74614   6.735  41.006   0.359
 4800W        W74615  40.909  20.607   0.855
 4801W        W74616  25.513   1.445   0.838
 4802W        W74617  38.964  26.586   2.227
 4803W        W74618  12.747  42.394   2.813
 4804W        W74619  32.520   2.759   4.319
 4805W        W74620  38.568  21.651  10.624
 4806W        W74621  15.766  12.851   2.357
 4807W        W74622   6.822  11.816  14.321
 4808W        W74623   0.899  40.890   1.719
 4809W        W74624  33.889   5.798   0.245
 4810W        W74625   6.873  40.974   5.637
 4811W        W74626  38.005  23.140   2.368
 4812W        W74627  39.990  32.593   1.432
 4813W        W74628   3.838  33.014   4.320
 4814W        W74629  19.247  37.534  14.811
 4815W        W74630  24.641   7.330  13.430
 4816W        W74631  37.884  26.045  10.423
 4817W        W74632   5.314  41.333   1.434
 4818W        W74633  37.868  28.010  12.961
 4819W        W74634  17.647  16.087   3.818
 4820W        W74635  43.847  32.532  13.834
 4821W        W74636   1.373   6.753  13.907
 4822W        W74637  36.396  18.609   4.191
 4823W        W74638   1.795  11.233  13.512
 4824W        W74639  10.322  14.309   0.878
 4825W        W74640  26.549  32.615   0.957
 4826W        W74641  20.208  28.941  12.386
 4827W        W74642  37.045  32.905   0.907
 4828W        W74643  10.715  23.994   3.271
 4829W        W74644  20.565  36.429   1.730
 4830W        W74645  11.223  22.122  13.063
 4831W        W74646   2.905  33.013   0.369
 4832W        W74647   1.420  35.465  14.013
 4833W        W74648  12.660  41.879  13.043
 4834W        W74649  38.327  32.594   3.649
 4835W        W74650  24.672   7.333  14.924
 4836W        W74651  44.000  42.029   3.792
 4837W        W74652  29.032  38.910  13.938
 4838W        W74653   2.771   9.848   3.190
 4839W        W74654   8.241   3.362  13.479
 4840W        W74655  10.202  41.980   2.848
 4841W        W74656  35.401  30.418  11.985
 4842W        W74657  19.151  15.165   0.754
 4843W        W74658  15.664   2.793  12.872
 4844W        W74659  44.870  22.191   1.394
 4845W        W74660  19.697   3.868  13.341
 4846W        W74661   3.300  13.638   2.679
 4847W        W74662   6.814  13.286   2.393
 4848W        W74663   6.776  35.559   2.190
 4849W        W74664  24.117   0.480  13.051
 4850W        W74665  28.946  20.219  13.507
 4851W        W74666  35.085  22.705  11.964
 4852W        W74667  26.501  26.185   1.231
 4853W        W74668  32.622  12.173  10.531
 4854W        W74669   6.423  13.824   4.745
 4855W        W74670  40.845   9.733   1.892
 4856W        W74671   2.728  13.136   3.258
 4857W        W74672  17.727  23.997  13.422
 4858W        W74673  20.202  32.901   0.751
 4859W        W74674  33.456  35.358  13.422
 4860W        W74675  13.145  36.904  12.406
 4861W        W74676   2.417  25.613  14.299
 4862W        W74677  17.233   7.741  10.983
 4863W        W74678   2.819  26.173   3.202
 4864W        W74679  24.102  37.926   1.827
 4865W        W74680   0.899   1.779   0.435
 4866W        W74681  34.916  34.490  13.427
 4867W        W74682  27.558   1.307  10.994
 4868W        W74683  13.255  34.405   3.632
 4869W        W74684  36.961  35.982   1.347
 4870W        W74685  28.133  39.403   2.884
 4871W        W74686   8.888  17.266  10.952
 4872W        W74687  27.103  35.954   1.247
 4873W        W74688  19.206  29.978  10.952
 4874W        W74689   8.869   2.360   4.838
 4875W        W74690  25.657  27.101  10.539
 4876W        W74691  19.139  33.113  13.025
 4877W        W74692  29.097  18.654   4.700
 4878W        W74693  11.781  14.686   0.950
 4879W        W74694  17.784  23.043  12.880
 4880W        W74695  15.625  11.314  11.952
 4881W        W74696  39.331  15.097  12.429
 4882W        W74697  29.961  37.973  14.979
 4883W        W74698   4.440  43.938   4.320
 4884W        W74699  36.489  24.602   2.237
 4885W        W74700   8.742  16.238  13.892
 4886W        W74701  26.115  24.015  10.496
 4887W        W74702  37.402  20.039   2.196
 4888W        W74703  12.683   5.688   0.928
 4889W        W74704  29.939  26.088  12.038
 4890W        W74705   5.695  28.619   2.380
 4891W        W74706   0.356  25.681  14.873
 4892W        W74707  17.117   2.813   0.795
 4893W        W74708  37.437  33.108  13.488
 4894W        W74709  27.561  44.895   0.747
 4895W        W74710   5.743  31.956   1.351
 4896W        W74711  23.088  14.771   0.334
 4897W        W74712  35.358  43.841  12.004
 4898W        W74713  42.522  43.370  11.451
 4899W        W74714   1.379  17.679  10.897
 4900W        W74715  34.866  38.991  11.962
 4901W        W74716  15.758   9.693   3.183
 4902W        W74717  34.463  17.274   3.862
 4903W        W74718  30.054  21.021   1.229
 4904W        W74719   9.235  23.634   3.641
 4905W        W74720  14.298  31.939  10.098
 4906W        W74721  14.673  41.015   1.929
 4907W        W74722  22.097   4.847  11.501
 4908W        W74723  19.174   1.741  12.463
 4909W        W74724  34.498   8.231   2.712
 4910W        W74725  15.812  11.315   2.730
 4911W        W74726   6.742  14.174   3.772
 4912W        W74727  40.019   0.369  11.063
 4913W        W74728  37.424  29.657   3.221
 4914W        W74729   9.150  15.103  12.349
 4915W        W74730   0.890  34.970  12.082
 4916W        W74731  10.228  27.529  13.336
 4917W        W74732   2.287  18.283  11.429
 4918W        W74733  39.039  31.509   4.201
 4919W        W74734  18.139  34.039  10.414
 4920W        W74735  19.595  28.020  13.012
 4921W        W74736  44.924  19.734   0.750
 4922W        W74737   8.269   2.776  14.474
 4923W        W74738  15.783  17.790   2.691
 4924W        W74739  23.624   2.939   3.212
 4925W        W74740   0.973  23.731   1.245
 4926W        W74741  29.567   2.800   3.780
 4927W        W74742  30.108   0.280   1.899
 4928W        W74743  44.989  36.090   0.938
 4929W        W74744  23.023   7.907  10.481
 4930W        W74745  44.499  20.255  12.497
 4931W        W74746  32.116  30.053   3.825
 4932W        W74747  14.175   3.278   4.760
 4933W        W74748  26.608  21.555  14.001
 4934W        W74749  13.132  36.390  12.085
 4935W        W74750  14.593  19.562   0.884
 4936W        W74751   0.479  22.185  10.922
 4937W        W74752  11.663  22.651   4.181
 4938W        W74753  40.925  16.103   5.579
 4939W        W74754  37.386  14.835  12.495
 4940W        W74755  20.072  33.044  11.542
 4941W        W74756  39.950  26.178  11.042
 4942W        W74757   0.290   3.454  14.381
 4943W        W74758   9.344   8.338   3.196
 4944W        W74759  39.041  37.574   4.635
 4945W        W74760  26.175  25.621  10.488
 4946W        W74761  44.330  17.698   0.323
 4947W        W74762   6.409  40.862   1.409
 4948W        W74763  22.603  14.145  12.977
 4949W        W74764  16.666  19.042  11.564
 4950W        W74765  42.780  28.467  14.485
 4951W        W74766  38.037   0.775   0.483
 4952W        W74767  26.525  37.952   3.308
 4953W        W74768  30.971   0.976   2.679
 4954W        W74769  41.827   1.870  11.521
 4955W        W74770  37.441  29.984   2.326
 4956W        W74771  20.734  17.563  13.043
 4957W        W74772   8.854   4.872   4.226
 4958W        W74773  28.038  26.000  11.552
 4959W        W74774  27.536  17.063   2.806
 4960W        W74775  26.143  42.312   4.351
 4961W        W74776  23.101  35.028  14.914
 4962W        W74777  16.717  30.039   4.770
 4963W        W74778   3.834  18.648  12.953
 4964W        W74779  37.867   8.772  14.503
 4965W        W74780   9.679  29.568   3.312
 4966W        W74781  26.606   5.299  13.791
 4967W        W74782  11.663  20.640  14.837
 4968W        W74783   5.891  26.565   3.302
 4969W        W74784  35.456  36.501  12.059
 4970W        W74785  33.517  33.096   3.771
 4971W        W74786   9.657  19.534  14.009
 4972W        W74787   3.330  21.554   0.394
 4973W        W74788  11.176  29.472   3.263
 4974W        W74789  11.822  39.374   3.755
 4975W        W74790  44.782  37.918  10.906
 4976W        W74791  33.619   7.880  10.891
 4977W        W74792  36.418   0.780  14.841
 4978W        W74793  39.482  35.070  13.471
 4979W        W74794  16.173   7.187   4.140
 4980W        W74795  34.919  29.480  13.395
 4981W        W74796  40.367  33.548   0.826
 4982W        W74797  31.088   7.717  14.492
 4983W        W74798  28.046  28.045  11.485
 4984W        W74799   6.746   3.263  14.366
 4985W        W74800  38.072  30.508  12.057
 4986W        W74801  31.948  23.632   4.297
 4987W        W74802  22.091   4.217   2.791
 4988W        W74803  42.808  43.951  12.559
 4989W        W74804  17.098  35.591   1.342
 4990W        W74805  34.877  13.710   0.386
 4991W        W74806  30.138  37.950   0.389
 4992W        W74807  36.012  16.160  13.436
 4993W        W74808  18.069  22.089  12.398
 4994W        W74809   0.935   1.367   2.329
 4995W        W74810   7.697  33.421   0.840
 4996W        W74811   6.795  25.074  14.459
 4997W        W74812  13.294   1.440  13.050
 4998W        W74813  20.679   4.715   0.775
 4999W        W74814  16.600  44.388  12.379
 5000W        W74815  31.477  14.715  13.834
 5001W        W74816   7.775  18.094   0.951
 5002W        W74817  36.348  15.751  11.997
 5003W        W74818  28.040  24.599   0.427
 5004W        W74819  41.002  13.670   5.289
 5005W        W74820  22.053  37.039  12.909
 5006W        W74821   8.353  30.596   4.667
 5007W        W74822  41.891  38.558   3.770
 5008W        W74823   9.769  42.881   0.319
 5009W        W74824  30.080  15.210  14.439
 5010W        W74825  28.973   6.332  12.438
 5011W        W74826  10.360  42.309  11.514
 5012W        W74827  15.733   8.405   0.344
 5013W        W74828  16.291  32.112   4.746
 5014W        W74829  20.543  44.971  11.116
 5015W        W74830  20.752  17.283  13.976
 5016W        W74831  43.333  24.500  11.404
 5017W        W74832   9.369  23.713  13.334
 5018W        W74833  17.262   1.391   3.217
 5019W        W74834  21.147  21.157   3.264
 5020W        W74835  31.058  11.270   3.631
 5021W        W74836  29.455  28.094   1.319
 5022W        W74837  41.807   0.451   2.238
 5023W        W74838  27.466   4.735  14.344
 5024W        W74839  35.998  38.886   0.481
 5025W        W74840  44.996  16.700  14.939
 5026W        W74841  39.866  41.004   4.802
 5027W        W74842  34.482  13.197  11.923
 5028W        W74843  15.178  33.413   0.903
 5029W        W74844  43.322   7.390  14.346
 5030W        W74845  43.447   5.281  14.989
 5031W        W74846  12.781  22.643  10.991
 5032W        W74847  32.057  38.505  11.438
 5033W        W74848   7.857  41.025  14.406
 5034W        W74849  14.118  43.898  12.864
 5035W        W74850  28.675  22.166  14.912
 5036W        W74851  25.130   5.928  14.839
 5037W        W74852  22.693   4.928   3.661
 5038W        W74853  33.608  15.248   3.643
 5039W        W74854  26.526  25.681   0.879
 5040W        W74855   6.911  22.189   4.185
 5041W        W74856   4.226  43.342   0.790
 5042W        W74857  27.096   1.445  13.821
 5043W        W74858  35.023  38.890   0.405
 5044W        W74859  18.088  17.205   4.334
 5045W        W74860   4.390  15.145  11.954
 5046W        W74861  44.773   2.257   4.198
 5047W        W74862  25.983  36.418  11.923
 5048W        W74863  11.747  40.914   0.293
 5049W        W74864  26.468   5.842  14.281
 5050W        W74865   2.397  44.950   4.249
 5051W        W74866  17.676  15.302  13.802
 5052W        W74867  23.602  29.921  14.950
 5053W        W74868   2.314  17.210  12.357
 5054W        W74869  39.006   7.267  14.482
 5055W        W74870  17.120  31.009  11.442
 5056W        W74871  16.586   2.882   1.439
 5057W        W74872  29.005   1.775   4.222
 5058W        W74873  34.006  40.027  12.373
 5059W        W74874  27.978  20.710   0.350
 5060W        W74875   7.204  17.234  11.465
 5061W        W74876  38.988  21.589  10.120
 5062W        W74877  38.988  37.358   5.143
 5063W        W74878  35.985  19.736   1.871
 5064W        W74879  27.138  31.055   1.887
 5065W        W74880   1.851  24.104  10.641
 5066W        W74881   1.900  27.662   1.907
 5067W        W74882   8.243  10.193   3.765
 5068W        W74883  21.587  38.961   0.467
 5069W        W74884  22.079  19.162  12.574
 5070W        W74885  34.560  14.107  11.394
 5071W        W74886  34.943  36.956   3.335
 5072W        W74887  41.853  37.067   3.823
 5073W        W74888  25.688  42.463  13.421
 5074W        W74889  21.253  42.443   1.308
 5075W        W74890  19.281  29.022  12.420
 5076W        W74891   7.678  44.269   1.920
 5077W        W74892  32.531  18.731  13.365
 5078W        W74893  14.227  17.290  10.995
 5079W        W74894  16.301   1.963   4.837
 5080W        W74895  21.743  12.823  11.946
 5081W        W74896  11.135  22.179  14.357
 5082W        W74897  40.025  38.891  13.847
 5083W        W74898  37.909   9.777  10.525
 5084W        W74899  21.712  31.011  13.871
 5085W        W74900  39.364  33.876   1.715
 5086W        W74901  38.004  29.157   9.950
 5087W        W74902   6.258  41.457   3.634
 5088W        W74903   0.749  32.416  10.997
 5089W        W74904  23.163  15.178   2.340
 5090W        W74905  37.073  22.038  12.994
 5091W        W74906  13.329  11.229  11.397
 5092W        W74907  34.384  11.860   0.297
 5093W        W74908  20.274  33.434  10.155
 5094W        W74909  37.832  37.943   1.791
 5095W        W74910  13.650  24.500  11.386
 5096W        W74911   0.945   4.706   1.771
 5097W        W74912  23.602  44.470  14.313
 5098W        W74913   8.231   6.246  10.442
 5099W        W74914  10.307   9.697  11.119
 5100W        W74915  24.563   9.165  13.802
 5101W        W74916  15.651  27.949  14.473
 5102W        W74917   7.732   2.444   2.888
 5103W        W74918   7.911  30.063   2.882
 5104W        W74919  10.206  14.303  12.905
 5105W        W74920  36.933  19.692  13.873
 5106W        W74921  38.856  32.525  12.431
 5107W        W74922  42.869  42.957  10.998
 5108W        W74923  23.495  31.639  10.947
 5109W        W74924  24.034   2.283  14.979
 5110W        W74925  19.151  25.179   2.861
 5111W        W74926  12.854  23.566   0.814
 5112W        W74927  13.215   3.907  12.946
 5113W        W74928   8.838  23.167  11.574
 5114W        W74929  25.601  33.912   1.227
 5115W        W74930   4.215  38.480  13.879
 5116W        W74931  43.882  28.679   4.309
 5117W        W74932  13.621  44.905  14.511
 5118W        W74933   5.863  10.248   9.999
 5119W        W74934  31.485  34.965  12.580
 5120W        W74935   1.871  16.729  11.503
 5121W        W74936  16.776  32.596  14.999
 5122W        W74937  24.197  16.114   4.751
 5123W        W74938  36.908  22.042   3.176
 5124W        W74939  37.963  26.159  12.472
 5125W        W74940  23.712  31.975  10.549
 5126W        W74941  23.985   3.385   4.254
 5127W        W74942  37.050  25.063  11.529
 5128W        W74943  31.490   5.828   2.286
 5129W        W74944   4.340  41.029   0.292
 5130W        W74945  42.788  11.208  10.945
 5131W        W74946  29.124  32.405  13.340
 5132W        W74947  32.495   8.188   2.259
 5133W        W74948  14.634   5.866   4.269
 5134W        W74949  14.688   1.782  14.993
 5135W        W74950  28.956  14.799   2.261
 5136W        W74951  40.458  16.177   0.861
 5137W        W74952  29.615  36.347   2.835
 5138W        W74953  40.308  44.263  14.938
 5139W        W74954  37.461  32.057   3.157
 5140W        W74955  25.172  29.975  11.577
 5141W        W74956  24.038  30.070   2.807
 5142W        W74957  34.898   3.923  13.019
 5143W        W74958  43.362  38.364   1.812
 5144W        W74959  28.002   0.253   4.324
 5145W        W74960  34.479  23.691  12.023
 5146W        W74961  22.531   9.794   0.472
 5147W        W74962  11.721  32.076   5.261
 5148W        W74963  33.601   7.399   4.307
 5149W        W74964   4.230  44.371   3.289
 5150W        W74965   5.420   9.840  10.597
 5151W        W74966  21.545  37.044   4.204
 5152W        W74967  40.539   4.773  11.473
 5153W        W74968   4.943  26.049  11.987
 5154W        W74969   3.413   2.856   3.691
 5155W        W74970  13.775   0.286  14.972
 5156W        W74971  26.077  19.232  12.079
 5157W        W74972   3.853  28.071  13.408
 5158W        W74973  36.389  33.487   2.880
 5159W        W74974  21.148  35.908   3.836
 5160W        W74975  27.564  12.256   2.263
 5161W        W74976  37.448   9.851   3.359
 5162W        W74977  22.179  35.363  11.991
 5163W        W74978   9.748  25.995   0.823
 5164W        W74979   3.344  42.370   4.115
 5165W        W74980  34.562  29.060  13.394
 5166W        W74981   7.373   9.385  10.935
 5167W        W74982  12.342  11.291   4.115
 5168W        W74983  35.967  25.198  10.436
 5169W        W74984  35.971  11.665  14.008
 5170W        W74985   1.452  43.819   1.727
 5171W        W74986  11.212  23.172  13.472
 5172W        W74987   1.747   8.356  11.025
 5173W        W74988  23.706  39.995   4.333
 5174W        W74989  37.459  22.188  10.515
 5175W        W74990  15.179  10.234   0.923
 5176W        W74991  35.393  31.573  12.371
 5177W        W74992  11.365  12.133  11.858
 5178W        W74993   3.299  31.539   2.887
 5179W        W74994  14.298  41.015   0.883
 5180W        W74995  32.088  12.751  11.072
 5181W        W74996  11.331  17.224  14.481
 5182W        W74997  23.096  35.032  13.050
 5183W        W74998  29.490   9.666   1.866
 5184W        W74999  10.232  36.089  11.584
 5185W        W75000  24.208  17.748   2.308
 5186W        W75001  18.265  27.076  11.021
 5187W        W75002  44.363   4.863  10.483
 5188W        W75003  26.988  27.548   1.927
 5189W        W75004  32.522   6.876  12.462
 5190W        W75005  10.879  14.187  12.369
 5191W        W75006  34.485   0.821   1.383
 5192W        W75007  36.371  42.320  13.470
 5193W        W75008  22.168  31.642  13.048
 5194W        W75009   3.843  43.393   0.947
 5195W        W75010  31.954  14.598   4.212
 5196W        W75011  14.801  22.218  11.064
 5197W        W75012  23.143   0.362  12.895
 5198W        W75013  39.839   3.374  14.288
 5199W        W75014   9.813  23.600   4.806
 5200W        W75015  10.660   5.703  12.355
 5201W        W75016  44.986  36.590   2.193
 5202W        W75017  12.741   9.207   3.294
 5203W        W75018  25.504  32.606  12.554
 5204W        W75019  27.505  23.106  12.542
 5205W        W75020  23.643  10.146  13.935
 5206W        W75021  26.031  32.016  13.409
 5207W        W75022  26.561  37.860   3.707
 5208W        W75023  29.098   0.797   0.427
 5209W        W75024  15.715  36.363  14.857
 5210W        W75025  43.801   0.453  14.491
 5211W        W75026  19.219  26.688  13.478
 5212W        W75027  18.113  14.297  14.878
 5213W        W75028  34.612  21.675   2.254
 5214W        W75029   2.301  36.933  12.834
 5215W        W75030  27.556  11.154   2.374
 5216W        W75031  26.524  34.940  14.391
 5217W        W75032  10.361  15.698   2.750
 5218W        W75033  24.111  23.562   4.759
 5219W        W75034   2.953   8.310   4.733
 5220W        W75035  37.847  13.316  10.601
 5221W        W75036  44.835  21.164   2.307
 5222W        W75037  39.560  11.138  13.843
 5223W        W75038  21.169  39.030  13.855
 5224W        W75039  26.460  32.937   0.865
 5225W        W75040  29.484  43.814   3.237
 5226W        W75041  14.186  14.800  12.859
 5227W        W75042  23.987   9.696  12.036
 5228W        W75043  31.492  25.118   1.829
 5229W        W75044  33.905  33.583  13.518
 5230W        W75045  12.166  37.077  10.934
 5231W        W75046  17.219  11.728   1.782
 5232W        W75047  11.214  32.946   3.821
 5233W        W75048   9.878  19.081   9.924
 5234W        W75049  23.236   1.260  14.985
 5235W        W75050  37.574  11.169  10.434
 5236W        W75051   9.314  33.074   4.837
 5237W        W75052  16.233  17.656  10.556
 5238W        W75053   8.864  42.862   5.272
 5239W        W75054  21.662  34.024  13.466
 5240W        W75055  30.519  14.821  14.781
 5241W        W75056  40.942   5.327   1.257
 5242W        W75057  32.433   1.850  13.842
 5243W        W75058  42.504  11.157   2.309
 5244W        W75059  33.545  25.542  12.838
 5245W        W75060  24.695  43.390  12.890
 5246W        W75061  32.130  20.083  13.861
 5247W        W75062  37.972  27.052   4.800
 5248W        W75063  35.009   9.290   4.759
 5249W        W75064  30.609   8.235  13.920
 5250W        W75065  26.594  11.304  13.063
 5251W        W75066  43.961  39.017   3.309
 5252W        W75067   8.258  13.703   0.325
 5253W        W75068  13.313  42.408   4.703
 5254W        W75069  14.096   8.247  12.002
 5255W        W75070   8.702   8.206  10.510
 5256W        W75071   3.823   0.779  10.994
 5257W        W75072  14.621  37.487   5.278
 5258W        W75073   2.244  17.217  13.811
 5259W        W75074  23.223  27.540   2.699
 5260W        W75075   6.326  10.270   1.428
 5261W        W75076  24.190  37.907  14.299
 5262W        W75077   3.908  21.055  11.039
 5263W        W75078   4.857   2.895   4.277
 5264W        W75079  34.450   1.817  14.811
 5265W        W75080  41.988  19.222   4.165
 5266W        W75081  12.689   3.383  12.372
 5267W        W75082  26.041  24.600  14.856
 5268W        W75083  42.330  44.926   2.819
 5269W        W75084  36.545   7.366   2.750
 5270W        W75085   2.391   0.745   3.158
 5271W        W75086   4.700  11.295   1.831
 5272W        W75087   6.355  21.088  13.954
 5273W        W75088  23.226  15.086  12.480
 5274W        W75089   0.293  21.101  10.131
 5275W        W75090  22.724  39.527   1.863
 5276W        W75091  11.340   1.798  14.451
 5277W        W75092  30.607  36.011  12.569
 5278W        W75093  37.078  40.945  13.396
 5279W        W75094  13.599  36.540  14.006
 5280W        W75095   5.218  13.283  10.630
 5281W        W75096   6.775   2.908  11.519
 5282W        W75097  39.422  40.961  13.952
 5283W        W75098  23.680  27.011   0.877
 5284W        W75099  39.931  17.592   0.382
 5285W        W75100  14.103  11.833  13.901
 5286W        W75101  33.041  12.163   4.247
 5287W        W75102   7.348   9.794  14.942
 5288W        W75103  21.170   6.682   1.932
 5289W        W75104  16.150  29.147  10.579
 5290W        W75105   9.714  38.021  12.840
 5291W        W75106  24.131  23.687   3.867
 5292W        W75107  39.873   7.260  11.106
 5293W        W75108  31.970   7.331  10.637
 5294W        W75109   7.345   8.850  11.121
 5295W        W75110  17.181  20.621   1.449
 5296W        W75111  18.068  20.717   1.721
 5297W        W75112  25.094  30.644  13.799
 5298W        W75113  16.247  40.809   4.268
 5299W        W75114  36.082  38.883   3.229
 5300W        W75115  34.023  12.711   5.202
 5301W        W75116  11.800  32.460  11.468
 5302W        W75117  35.442  34.576   0.932
 5303W        W75118   3.917  36.048   0.869
 5304W        W75119  40.826  18.594  13.448
 5305W        W75120  15.657  40.442  12.556
 5306W        W75121  32.572  23.557  12.444
 5307W        W75122  17.698  39.487  11.998
 5308W        W75123   5.280  44.914   0.459
 5309W        W75124  32.005  44.471   0.294
 5310W        W75125  12.639  17.217   1.265
 5311W        W75126   0.865  30.592  13.888
 5312W        W75127  33.915  28.934  14.494
 5313W        W75128  10.176  32.601   2.319
 5314W        W75129  16.808  11.127  13.348
 5315W        W75130  19.127  18.707  10.440
 5316W        W75131  22.513  26.458  10.012
 5317W        W75132  31.992  39.980   2.366
 5318W        W75133  43.907  12.624   3.183
 5319W        W75134  42.912  43.875  11.123
 5320W        W75135  29.985  21.055   4.132
 5321W        W75136  12.228  22.575   2.671
 5322W        W75137  41.952  30.514  14.944
 5323W        W75138  14.754  14.261  14.760
 5324W        W75139  23.237   8.166  14.309
 5325W        W75140  34.032  23.668  13.022
 5326W        W75141   5.423  42.831  11.583
 5327W        W75142  35.957  11.647   0.450
 5328W        W75143  44.445   2.438  12.837
 5329W        W75144  20.558   0.383  14.790
 5330W        W75145   0.783  32.888   3.373
 5331W        W75146  35.446  36.935   2.304
 5332W        W75147   7.858  37.401   4.817
 5333W        W75148  42.437  24.227  13.992
 5334W        W75149  31.604  39.537  14.958
 5335W        W75150  34.474  22.225   3.712
 5336W        W75151   4.871  25.024   9.959
 5337W        W75152  41.041  31.011   0.384
 5338W        W75153  37.848  18.209   4.753
 5339W        W75154  29.667  37.918  11.037
 5340W        W75155  33.557  38.971  11.519
 5341W        W75156  14.654  38.022  12.827
 5342W        W75157  24.519   4.274   2.400
 5343W        W75158   8.266  26.633   3.713
 5344W        W75159  27.074  41.014   3.839
 5345W        W75160  14.831  30.423   3.360
 5346W        W75161   2.453   2.350  13.047
 5347W        W75162  41.021  16.122   5.089
 5348W        W75163  30.918  25.560   0.322
 5349W        W75164  26.547  32.556   4.316
 5350W        W75165  27.646  39.063  14.426
 5351W        W75166  42.925  29.596   5.213
 5352W        W75167   2.820  29.092   1.803
 5353W        W75168  12.272  32.459  12.462
 5354W        W75169   0.421   0.942  12.850
 5355W        W75170  34.411   1.436   4.827
 5356W        W75171  39.944  17.590  13.877
 5357W        W75172  11.794  11.209   1.346
 5358W        W75173  34.916  20.130  14.419
 5359W        W75174  11.844  28.596   3.338
 5360W        W75175  44.345  42.921  12.431
 5361W        W75176  22.518  37.423  14.465
 5362W        W75177  30.035  26.686  14.375
 5363W        W75178  14.790  34.000   0.937
 5364W        W75179  26.202   8.899   3.337
 5365W        W75180  38.949  21.522   3.779
 5366W        W75181  16.603  24.017  14.003
 5367W        W75182  38.005  16.190  14.909
 5368W        W75183  23.145   6.730  12.996
 5369W        W75184  38.826  10.813  11.008
 5370W        W75185  12.141  13.304   2.716
 5371W        W75186  37.952  43.411  10.574
 5372W        W75187  16.120  37.452  13.876
 5373W        W75188  22.742  24.127   5.164
 5374W        W75189  15.206  10.333  11.505
 5375W        W75190  44.434  32.551   2.265
 5376W        W75191  33.389  21.218   0.887
 5377W        W75192   1.482  20.036  12.565
 5378W        W75193   7.264   7.824  13.925
 5379W        W75194  41.521  37.564   5.285
 5380W        W75195  24.110  24.974  13.395
 5381W        W75196  38.997  42.526   1.770
 5382W        W75197  35.012  20.163  13.377
 5383W        W75198  14.235   6.818   4.684
 5384W        W75199  10.207  19.073   1.934
 5385W        W75200  15.685  23.493  14.840
 5386W        W75201  18.736  35.515   3.701
 5387W        W75202  10.311   4.259   4.668
 5388W        W75203  40.534  39.471  13.314
 5389W        W75204  41.314  41.815   3.283
 5390W        W75205  20.143   1.408  10.942
 5391W        W75206   6.344  23.197   3.838
 5392W        W75207  32.024  18.190   4.661
 5393W        W75208  35.055  37.511   1.336
 5394W        W75209  33.001   4.742  10.900
 5395W        W75210  29.105  25.208  13.337
 5396W        W75211   0.255  10.291  11.126
 5397W        W75212  39.325  34.462   2.823
 5398W        W75213   8.726   8.212  12.970
 5399W        W75214  17.112  11.734   1.375
 5400W        W75215  43.767   5.804   0.307
 5401W        W75216  12.323   5.813   0.432
 5402W        W75217  18.125  12.326  12.050
 5403W        W75218  40.326   0.391   1.304
 5404W        W75219  30.964   7.207   2.759
 5405W        W75220  43.420  10.333  12.932
 5406W        W75221   2.376  42.793  13.497
 5407W        W75222  15.129   6.288  11.454
 5408W        W75223   7.809  12.272   3.781
 5409W        W75224  15.612  16.182  11.604
 5410W        W75225  14.762  27.072   3.208
 5411W        W75226   9.685  24.979   1.219
 5412W        W75227  20.646  27.594  13.015
 5413W        W75228  20.160   1.927   1.820
 5414W        W75229   6.835  18.130   2.405
 5415W        W75230  17.070  31.424  11.097
 5416W        W75231  43.292   9.768   1.757
 5417W        W75232  40.980  29.523   2.375
 5418W        W75233   9.154   7.701  12.352
 5419W        W75234  26.030   3.934  14.900
 5420W        W75235  23.080  23.514  11.092
 5421W        W75236  14.700  21.589  11.946
 5422W        W75237  12.239   6.278   2.716
 5423W        W75238  36.446  11.160   2.861
 5424W        W75239  21.217  35.488   0.816
 5425W        W75240   6.221  29.087   4.643
 5426W        W75241   8.737  22.040  14.478
 5427W        W75242  13.345  27.583  13.405
 5428W        W75243  29.529  32.499  11.085
 5429W        W75244  37.861  32.108   0.748
 5430W        W75245  38.471  44.359   4.131
 5431W        W75246   3.259   6.881  13.944
 5432W        W75247  18.595  33.518  11.916
 5433W        W75248  23.221  42.832   0.766
 5434W        W75249  26.042  37.464  11.889
 5435W        W75250  28.569  40.445  10.548
 5436W        W75251   6.259   0.903  11.419
 5437W        W75252  43.865  38.562   3.814
 5438W        W75253  34.371  15.205   1.276
 5439W        W75254  16.584  36.570   3.277
 5440W        W75255   9.864  28.130  11.901
 5441W        W75256  16.702  11.692   1.421
 5442W        W75257   9.690  43.871   4.139
 5443W        W75258  32.997  26.141  12.908
 5444W        W75259  37.438  35.900   1.769
 5445W        W75260  36.860  11.312   4.237
 5446W        W75261  44.412  27.571   4.691
 5447W        W75262  20.651  25.585  13.508
 5448W        W75263   0.855   7.831   0.333
 5449W        W75264   4.764   0.322  11.049
 5450W        W75265  23.126  21.709   4.144
 5451W        W75266  24.003  11.640  14.365
 5452W        W75267  16.682   8.403  12.864
 5453W        W75268  43.773  37.950   4.737
 5454W        W75269   5.342   7.865  11.391
 5455W        W75270  40.014  26.071   0.778
 5456W        W75271   2.765  43.776   1.418
 5457W        W75272  12.694  23.090  12.492
 5458W        W75273  41.878  18.286  13.517
 5459W        W75274  14.701  43.459   4.762
 5460W        W75275  38.972  21.051  12.398
 5461W        W75276  10.738  37.575   0.312
 5462W        W75277  37.852  33.922   0.258
 5463W        W75278  30.949  31.421   2.785
 5464W        W75279  23.227   7.775  12.428
 5465W        W75280  19.082  18.772   2.751
 5466W        W75281   5.339  44.888  10.955
 5467W        W75282  42.950  20.135   1.404
 5468W        W75283  44.308   4.729   0.956
 5469W        W75284  18.251  40.518   4.155
 5470W        W75285  37.847   5.882   0.885
 5471W        W75286   4.866  13.169  13.411
 5472W        W75287  42.839  42.899   3.672
 5473W        W75288  42.365   8.833  14.913
 5474W        W75289  30.996   3.288   0.780
 5475W        W75290   9.173  43.813  12.421
 5476W        W75291  14.748  10.375   0.385
 5477W        W75292  21.539  11.864  12.858
 5478W        W75293  19.156  40.315  12.403
 5479W        W75294  44.449  37.868  13.358
 5480W        W75295   0.750  36.007   2.284
 5481W        W75296  39.024  36.414  11.589
 5482W        W75297  27.689  40.859   1.319
 5483W        W75298   4.368  11.344   4.760
 5484W        W75299  29.647  21.112  12.369
 5485W        W75300  17.594   1.781   1.409
 5486W        W75301  21.605  14.285  14.816
 5487W        W75302  12.635  42.322  11.602
 5488W        W75303  29.589  14.098  12.428
 5489W        W75304  14.324  23.083  13.902
 5490W        W75305   5.407  27.538   2.793
 5491W        W75306   3.808  36.434  13.044
 5492W        W75307   6.765  21.076  13.048
 5493W        W75308  21.706  36.887   3.156
 5494W        W75309  31.144  33.424  14.404
 5495W        W75310  41.352   7.777   1.934
 5496W        W75311  43.934  44.879   3.253
 5497W        W75312  35.511  33.437   3.708
 5498W        W75313  33.534  18.103   3.672
 5499W        W75314  23.677  19.136   5.110
 5500W        W75315  21.556  29.110   0.834
 5501W        W75316   9.194   7.172  12.572
 5502W        W75317   0.289  40.894  12.002
 5503W        W75318  11.742  29.070  12.386
 5504W        W75319  39.897  29.933   1.251
 5505W        W75320  44.959  10.738   4.118
 5506W        W75321  18.602  27.456   1.716
 5507W        W75322  26.169   0.868   1.416
 5508W        W75323  39.539   7.416  14.347
 5509W        W75324  38.976  14.129  13.977
 5510W        W75325  40.403  44.972  12.560
 5511W        W75326  17.204  24.492  12.406
 5512W        W75327  39.888  27.115  12.009
 5513W        W75328  31.556  34.111  12.568
 5514W        W75329  32.001  25.119  13.974
 5515W        W75330  39.509   0.958  10.931
 5516W        W75331  39.532  17.104   4.134
 5517W        W75332   5.205  18.732   2.681
 5518W        W75333  15.633  20.130   3.243
 5519W        W75334   2.265  43.458  14.515
 5520W        W75335  17.223  33.584  10.091
 5521W        W75336  14.153  26.201   0.881
 5522W        W75337  10.235  22.579   2.665
 5523W        W75338  39.868  26.478   3.301
 5524W        W75339  14.338   8.357  14.414
 5525W        W75340  18.743   5.862  13.057
 5526W        W75341   1.752   8.333   0.771
 5527W        W75342  12.273  41.824   3.774
 5528W        W75343  11.205   7.301  14.924
 5529W        W75344  38.436  16.100  14.771
 5530W        W75345  24.084  38.036   2.272
 5531W        W75346  37.943  17.288   0.840
 5532W        W75347   1.335   2.377   0.729
 5533W        W75348  40.865   6.219  11.876
 5534W        W75349  40.840  33.927  13.005
 5535W        W75350  35.877  41.944  10.587
 5536W        W75351  23.985   0.272   0.257
 5537W        W75352  32.098  26.529  11.059
 5538W        W75353   2.404  13.269   1.704
 5539W        W75354  23.643   8.899  14.027
 5540W        W75355  35.448  38.357   1.258
 5541W        W75356  35.938  18.645  12.082
 5542W        W75357  30.447  43.000  11.901
 5543W        W75358   3.368   4.927   2.887
 5544W        W75359   2.789  44.445  12.852
 5545W        W75360  29.525  44.891   1.895
 5546W        W75361   4.271  29.999  14.404
 5547W        W75362  17.798  18.568   1.758
 5548W        W75363   6.895  10.854  11.999
 5549W        W75364   3.877  17.572  13.530
 5550W        W75365  12.294   7.759  10.612
 5551W        W75366  31.565  43.815   4.295
 5552W        W75367  26.466  26.640   1.917
 5553W        W75368  16.305  43.299   3.663
 5554W        W75369  13.845  14.321  13.530
 5555W        W75370  40.365   6.292   0.385
 5556W        W75371  34.094  26.590   1.870
 5557W        W75372  30.516  37.965   3.295
 5558W        W75373  13.705  12.157   3.368
 5559W        W75374  16.214  31.089  12.353
 5560W        W75375  17.085   0.470   2.744
 5561W        W75376  39.055  27.687  13.433
 5562W        W75377  24.180   8.879  11.504
 5563W        W75378  37.909  39.865   2.871
 5564W        W75379  27.683  31.126  11.502
 5565W        W75380  42.824   4.282  10.075
 5566W        W75381  40.973  13.827   3.867
 5567W        W75382  11.797  33.417   3.352
 5568W        W75383  22.129  19.153  12.028
 5569W        W75384  27.643  41.332   3.321
 5570W        W75385   9.660  16.279  13.001
 5571W        W75386  11.790   1.757   5.105
 5572W        W75387   9.858   3.805  13.966
 5573W        W75388  40.874  25.603  14.963
 5574W        W75389  44.409  18.567  11.879
 5575W        W75390  28.137  20.178   3.791
 5576W        W75391   2.885  21.612   4.647
 5577W        W75392  25.108  32.917   4.599
 5578W        W75393  28.563  16.082   2.339
 5579W        W75394  29.028  39.856   0.799
 5580W        W75395  21.125   5.374  12.562
 5581W        W75396   8.786  15.169   3.250
 5582W        W75397  16.673  41.880  13.523
 5583W        W75398  18.544  37.432   0.261
 5584W        W75399   0.451   9.853  13.480
 5585W        W75400  17.766  24.017   0.283
 5586W        W75401  21.622  36.491  13.931
 5587W        W75402   2.877  11.705  14.483
 5588W        W75403  22.065  15.327  14.365
 5589W        W75404  44.486  11.740   0.788
 5590W        W75405  27.140  31.072   3.384
 5591W        W75406  30.913  42.982   1.442
 5592W        W75407  27.502  43.795   4.246
 5593W        W75408  31.519  35.394  10.938
 5594W        W75409  21.747  43.806   0.340
 5595W        W75410  28.507  21.034   3.723
 5596W        W75411  25.133  29.138   9.985
 5597W        W75412  14.181  44.001   3.724
 5598W        W75413  28.577   7.415   0.446
 5599W        W75414  31.553  39.053  14.018
 5600W        W75415  17.132   8.766  13.848
 5601W        W75416  18.245  16.217   2.817
 5602W        W75417  16.120  33.963   2.668
 5603W        W75418  22.608  43.851   2.199
 5604W        W75419  42.300  14.106   0.839
 5605W        W75420  19.594  22.512   4.126
 5606W        W75421  15.656  15.778  14.411
 5607W        W75422  36.048  23.524   1.697
 5608W        W75423  43.426   3.926  12.478
 5609W        W75424   7.363  28.016  13.024
 5610W        W75425  34.109  13.279  12.451
 5611W        W75426   1.906  31.089  14.413
 5612W        W75427  21.179  39.390  13.055
 5613W        W75428  44.853  39.957  11.383
 5614W        W75429  18.655   8.225  12.540
 5615W        W75430  42.301   6.396   2.710
 5616W        W75431   4.318  27.058   4.629
 5617W        W75432  35.550  27.690   0.379
 5618W        W75433   3.763  11.328   9.952
 5619W        W75434  10.227   8.210  14.302
 5620W        W75435  38.031  27.675  13.045
 5621W        W75436   1.734  30.639  13.519
 5622W        W75437  35.450  39.315   2.359
 5623W        W75438  36.445   4.288  14.505
 5624W        W75439   4.363   9.889  13.403
 5625W        W75440  35.400  18.184  14.508
 5626W        W75441  17.800  18.140   0.807
 5627W        W75442   2.960  10.749  12.916
 5628W        W75443   9.732  40.979   4.659
 5629W        W75444   0.831  27.990   2.271
 5630W        W75445  20.578  43.782  11.890
 5631W        W75446  28.106   5.367  10.007
 5632W        W75447  40.032  35.057   0.389
 5633W        W75448  39.327  32.427   0.866
 5634W        W75449  42.987  36.446   5.253
 5635W        W75450  27.119  30.563   1.921
 5636W        W75451   5.393  16.105   3.341
 5637W        W75452  35.068  24.052   0.843
 5638W        W75453  12.232  12.857   1.219
 5639W        W75454  12.149  20.154  10.897
 5640W        W75455  32.921   1.938  12.939
 5641W        W75456  26.024  28.013  12.019
 5642W        W75457  18.130  33.086  11.481
 5643W        W75458   6.853  21.040  11.887
 5644W        W75459  42.948  42.376  11.453
 5645W        W75460  11.669   8.823  11.448
 5646W        W75461   0.416  40.917  14.811
 5647W        W75462  34.417  21.201   3.263
 5648W        W75463  25.546   5.292  12.919
 5649W        W75464  36.525   4.717   0.288
 5650W        W75465  34.076   2.408   0.963
 5651W        W75466  31.085  17.305  12.831
 5652W        W75467  40.513  26.586   4.248
 5653W        W75468  30.469  22.114   0.436
 5654W        W75469  33.536  20.228  11.112
 5655W        W75470   1.881  24.665  11.940
 5656W        W75471  35.918  15.151   2.722
 5657W        W75472  40.413  40.512   2.733
 5658W        W75473  39.941  42.838   4.625
 5659W        W75474  38.536  44.857   4.638
 5660W        W75475   6.745  30.499   4.314
 5661W        W75476  29.560  34.576   4.161
 5662W        W75477   6.844   1.924  13.002
 5663W        W75478  16.228  14.678   0.326
 5664W        W75479  19.720  21.185  13.960
 5665W        W75480  29.030  28.567   3.870
 5666W        W75481  17.705  34.476  10.500
 5667W        W75482  16.682  15.159  13.527
 5668W        W75483  19.562  37.083   1.843
 5669W        W75484   1.973  33.390   2.366
 5670W        W75485  34.867   2.472   0.745
 5671W        W75486  43.783  24.190   1.313
 5672W        W75487   9.686   0.947  11.485
 5673W        W75488  20.523  37.865  10.981
 5674W        W75489  13.129  27.145  12.545
 5675W        W75490  14.631   6.849   1.354
 5676W        W75491   5.194  24.664   4.755
 5677W        W75492  21.240  16.667  11.970
 5678W        W75493  32.002  30.437  12.053
 5679W        W75494  23.609  24.153   2.184
 5680W        W75495  38.475  30.639   4.338
 5681W        W75496  36.047  23.989  12.400
 5682W        W75497  17.209  39.441   1.344
 5683W        W75498  19.209  37.013   0.913
 5684W        W75499  28.154   6.388  12.439
 5685W        W75500  35.056  35.853   0.452
 5686W        W75501  37.963  23.640  14.972
 5687W        W75502  17.595  17.625  14.759
 5688W        W75503  22.560   8.177  10.593
 5689W        W75504  31.412  14.284   1.762
 5690W        W75505   2.892  36.037   0.316
 5691W        W75506   6.901   6.863   1.706
 5692W        W75507   9.713  42.939  11.911
 5693W        W75508  30.941  32.024   5.165
 5694W        W75509  27.038   3.802  14.374
 5695W        W75510   0.475  12.754   3.840
 5696W        W75511  40.382   7.368  10.615
 5697W        W75512  31.461  20.055   3.758
 5698W        W75513  15.796   0.309  10.046
 5699W        W75514   1.322  16.157   1.253
 5700W        W75515  26.493  14.745   4.245
 5701W        W75516  41.341  37.582   0.753
 5702W        W75517   0.866  34.917   2.779
 5703W        W75518  40.899   0.828  11.005
 5704W        W75519  43.501  27.100   0.479
 5705W        W75520  24.669  31.550   4.223
 5706W        W75521  43.385   5.768   1.258
 5707W        W75522  26.985   4.336  11.998
 5708W        W75523  16.659   0.442  11.018
 5709W        W75524  10.323  38.829   3.309
 5710W        W75525  28.602  42.302   1.363
 5711W        W75526  44.427  19.208   4.741
 5712W        W75527   7.376   7.693   4.662
 5713W        W75528  21.745  19.127  10.978
 5714W        W75529  30.418  16.279   0.790
 5715W        W75530  12.819   5.778  11.556
 5716W        W75531   2.257   6.194   3.213
 5717W        W75532   0.255   4.288  10.405
 5718W        W75533  41.382  40.444  12.511
 5719W        W75534  11.825  24.220  12.831
 5720W        W75535   1.905   7.690   2.797
 5721W        W75536  23.668  27.131   1.321
 5722W        W75537   4.208  40.321  12.488
 5723W        W75538  28.551  10.287  12.060
 5724W        W75539   2.232   8.288  14.985
 5725W        W75540  36.574  23.129  13.053
 5726W        W75541  37.455  40.437  12.521
 5727W        W75542  32.988   9.234  12.374
 5728W        W75543  44.430  34.560   3.777
 5729W        W75544  39.814  24.126   4.747
 5730W        W75545  26.111  23.224  13.002
 5731W        W75546   1.286  42.396   4.700
 5732W        W75547  43.999  44.986  11.989
 5733W        W75548  41.302  39.963  13.877
 5734W        W75549  33.120  32.078  11.555
 5735W        W75550  19.711  44.262  14.981
 5736W        W75551  40.852  27.987  13.489
 5737W        W75552  18.706   2.816   1.929
 5738W        W75553  21.201  18.752   2.809
 5739W        W75554  35.951  36.454   1.375
 5740W        W75555  11.684  33.125  11.408
 5741W        W75556  31.639  29.970   3.647
 5742W        W75557  16.722  14.227   1.417
 5743W        W75558   3.438   5.215   2.707
 5744W        W75559  41.869  30.588   0.287
 5745W        W75560  22.242  40.450   4.284
 5746W        W75561  18.742   2.918   3.807
 5747W        W75562  16.081  38.978   2.684
 5748W        W75563   7.746   6.690  14.426
 5749W        W75564  28.109  12.183  12.407
 5750W        W75565   0.787  24.157   3.779
 5751W        W75566  20.612  19.235  11.978
 5752W        W75567  11.846   9.853  14.479
 5753W        W75568  20.631  38.385   2.197
 5754W        W75569   7.829  40.800   2.861
 5755W        W75570   1.290  32.567   3.867
 5756W        W75571  23.526  38.856  12.052
 5757W        W75572   3.877  16.789   0.860
 5758W        W75573  42.469   6.193  13.928
 5759W        W75574  31.492  16.133  12.947
 5760W        W75575  11.788  14.617   2.184
 5761W        W75576  16.596  18.607  12.368
 5762W        W75577  21.150   9.223  12.479
 5763W        W75578  20.264  43.481   2.302
 5764W        W75579  12.696   3.728  14.795
 5765W        W75580  14.320  43.274  12.397
 5766W        W75581  14.224  16.771  11.065
 5767W        W75582   9.876  20.154  10.964
 5768W        W75583  18.660   2.842   4.270
 5769W        W75584  13.214  26.483   4.211
 5770W        W75585  38.986  42.989   4.234
 5771W        W75586  31.066  22.602  12.882
 5772W        W75587   6.795  18.602  12.571
 5773W        W75588  33.416  14.249  13.492
 5774W        W75589  16.719  36.486  14.379
 5775W        W75590  23.165   0.781  13.536
 5776W        W75591  32.468   8.223  13.427
 5777W        W75592  29.947  21.083  14.406
 5778W        W75593  22.638  40.309  10.104
 5779W        W75594  13.670  16.760   3.244
 5780W        W75595  16.245  26.596   2.803
 5781W        W75596  27.564  27.647  10.490
 5782W        W75597   0.257  42.403   4.342
 5783W        W75598  15.112  32.934  10.898
 5784W        W75599  37.880  32.001   0.341
 5785W        W75600  34.111  22.683   3.376
 5786W        W75601  22.149  22.699  13.837
 5787W        W75602  22.066   6.853  14.480
 5788W        W75603  25.083  18.611   1.718
 5789W        W75604  43.430  15.714   2.314
 5790W        W75605   5.831  15.321  10.632
 5791W        W75606  21.529  12.683  14.420
 5792W        W75607  43.819   4.898  12.958
 5793W        W75608  37.458  37.381   1.210
 5794W        W75609  38.435  38.995  13.019
 5795W        W75610  29.141  15.299   0.937
 5796W        W75611  20.118  36.576   0.879
 5797W        W75612  36.365   6.830   2.896
 5798W        W75613  26.988  25.162   0.348
 5799W        W75614  25.496   1.264   1.409
 5800W        W75615   2.230   3.256   3.295
 5801W        W75616   3.758  36.061   5.089
 5802W        W75617  31.420   4.716  13.496
 5803W        W75618  34.454  21.620   4.720
 5804W        W75619   6.251  19.223   4.197
 5805W        W75620   4.435   2.823  11.045
 5806W        W75621  43.285   9.363  11.401
 5807W        W75622  13.135  11.722  10.459
 5808W        W75623  35.563   2.791   4.610
 5809W        W75624   9.213  13.791  12.387
 5810W        W75625   4.901  34.048   1.896
 5811W        W75626  40.004  23.512   1.831
 5812W        W75627  34.527   3.309   4.613
 5813W        W75628  18.247  43.292   0.930
 5814W        W75629  35.543  36.069  14.993
 5815W        W75630  23.693  17.712  13.015
 5816W        W75631  27.994  20.609  11.570
 5817W        W75632  26.696   2.311   2.370
 5818W        W75633   9.757  14.182   1.284
 5819W        W75634   9.821   8.716  10.906
 5820W        W75635   0.929  27.085  13.922
 5821W        W75636  31.092  15.699  11.102
 5822W        W75637  20.094  29.166   3.358
 5823W        W75638   8.376  12.154  12.980
 5824W        W75639  28.625  25.128   0.746
 5825W        W75640  27.101  35.952  13.346
 5826W        W75641   9.853   9.753  11.423
 5827W        W75642  43.366  16.722  13.532
 5828W        W75643  13.707  18.651  12.513
 5829W        W75644  27.997  20.766  13.049
 5830W        W75645  42.837   4.346  14.893
 5831W        W75646  26.131  25.209  11.449
 5832W        W75647  13.833  40.303  12.834
 5833W        W75648  28.656  37.489   1.284
 5834W        W75649  27.043  35.429   2.872
 5835W        W75650   8.283  10.378  13.428
 5836W        W75651  13.240  44.285  12.526
 5837W        W75652  14.700  26.196  10.445
 5838W        W75653  18.052  35.483   4.760
 5839W        W75654   7.272  20.554  12.402
 5840W        W75655  23.208  36.581  10.903
 5841W        W75656   4.772  37.915  14.866
 5842W        W75657  40.945  29.490   0.335
 5843W        W75658  19.697  19.110  12.354
 5844W        W75659  28.033  29.607  13.022
 5845W        W75660  44.771  37.554   0.849
 5846W        W75661  34.370  35.576  12.081
 5847W        W75662  42.939  39.555   0.830
 5848W        W75663   1.382  42.926  14.868
 5849W        W75664  18.094  27.060   2.302
 5850W        W75665  11.718  22.209   2.746
 5851W        W75666  25.691  18.240   0.749
 5852W        W75667  14.799  38.423   2.731
 5853W        W75668  19.636  24.493   3.665
 5854W        W75669  24.216  15.285   2.358
 5855W        W75670  36.400  43.407   2.245
 5856W        W75671  28.485  38.371   4.172
 5857W        W75672   7.753  23.548  13.425
 5858W        W75673   0.869  33.406   3.746
 5859W        W75674  12.127  27.942   2.760
 5860W        W75675  39.443  41.877  14.867
 5861W        W75676  32.937  36.068   1.320
 5862W        W75677  20.671   3.782  14.491
 5863W        W75678  18.249  43.999   3.320
 5864W        W75679  33.957  44.296  13.037
 5865W        W75680  24.490   7.320  12.536
 5866W        W75681  28.058  10.165   3.161
 5867W        W75682  44.764  39.041   1.451
 5868W        W75683  12.839  40.392   3.701
 5869W        W75684  10.215  12.118   4.166
 5870W        W75685  43.469  40.532  13.375
 5871W        W75686  25.165  30.161   1.255
 5872W        W75687  43.498  39.524  10.909
 5873W        W75688   2.791   0.287   0.449
 5874W        W75689  22.627  17.623  12.905
 5875W        W75690  13.165   1.870   2.210
 5876W        W75691  34.485  29.519  14.846
 5877W        W75692   5.746  39.486   0.475
 5878W        W75693  39.531  35.544  11.585
 5879W        W75694  13.823  37.000   0.826
 5880W        W75695  37.947   3.247  10.130
 5881W        W75696  35.582  39.838   0.355
 5882W        W75697  21.164  43.400   5.613
 5883W        W75698  33.981  26.136  14.897
 5884W        W75699   4.756  42.427   1.310
 5885W        W75700  10.291  10.297   2.746
 5886W        W75701   3.921  14.690  14.494
 5887W        W75702  36.015  10.345  13.880
 5888W        W75703  11.305   4.377   4.222
 5889W        W75704  33.999   5.708  12.851
 5890W        W75705  36.022  42.406  12.476
 5891W        W75706   2.316  36.099   4.612
 5892W        W75707  28.953  11.823   1.825
 5893W        W75708   2.436  27.979  11.600
 5894W        W75709  39.396  14.835  13.063
 5895W        W75710  25.040  13.832   3.209
 5896W        W75711   5.696   2.265   3.235
 5897W        W75712  42.293  17.728   3.629
 5898W        W75713   7.279  30.566  13.338
 5899W        W75714  44.781  37.841   4.620
 5900W        W75715  32.053   9.227  11.423
 5901W        W75716  17.229  36.874  12.365
 5902W        W75717  20.583  12.139  10.569
 5903W        W75718   0.418   3.421   4.255
 5904W        W75719  17.567   3.216   5.300
 5905W        W75720  44.471  17.236  13.508
 5906W        W75721  23.523  43.465  12.945
 5907W        W75722   2.336  36.098  11.377
 5908W        W75723  16.082  38.457   3.657
 5909W        W75724  32.394   5.768   4.260
 5910W        W75725   5.344  24.135  11.500
 5911W        W75726  24.623  34.590  13.954
 5912W        W75727  33.385   0.820  10.433
 5913W        W75728  41.316  32.575   4.292
 5914W        W75729  43.312  19.261   1.433
 5915W        W75730  26.044   5.270   3.233
 5916W        W75731  11.156  30.043   3.854
 5917W        W75732  12.218  25.993   4.838
 5918W        W75733   0.876  11.628  11.531
 5919W        W75734  40.308  26.557  14.929
 5920W        W75735   5.248  14.316   1.911
 5921W        W75736   6.890   7.225  10.514
 5922W        W75737  31.559  23.098   2.862
 5923W        W75738  23.641   0.356  11.062
 5924W        W75739  36.071  17.220   0.737
 5925W        W75740  33.058  17.641   0.417
 5926W        W75741  33.520   4.938  10.510
 5927W        W75742  41.334   7.249   3.263
 5928W        W75743  36.581  13.234   3.779
 5929W        W75744  30.990   8.728   4.799
 5930W        W75745  15.166  43.803  13.402
 5931W        W75746   1.965  20.099  11.014
 5932W        W75747  39.349  28.475  10.429
 5933W        W75748   1.462   9.334   0.846
 5934W        W75749  40.397  16.742   2.861
 5935W        W75750  31.972   1.862  13.818
 5936W        W75751  13.260  43.458   0.431
 5937W        W75752   1.776   4.272   1.717
 5938W        W75753  43.472  25.481   2.722
 5939W        W75754  26.974  27.498   0.782
 5940W        W75755  38.433   6.885  13.325
 5941W        W75756   7.190  27.469   3.381
 5942W        W75757  43.877  14.668   3.696
 5943W        W75758   8.690  19.211   0.383
 5944W        W75759  34.403   7.349   1.413
 5945W        W75760   7.360   9.821   0.468
 5946W        W75761  39.810  27.656   4.319
 5947W        W75762   4.266   5.295   2.812
 5948W        W75763  30.934  40.532  14.976
 5949W        W75764  33.896  37.513   1.874
 5950W        W75765  41.914  31.896  10.068
 5951W        W75766  14.271  30.948  13.822
 5952W        W75767  28.033   8.867   1.310
 5953W        W75768   8.760   2.243   3.177
 5954W        W75769  28.583  17.088   1.447
 5955W        W75770   0.392   8.278   2.368
 5956W        W75771   1.953  35.054  14.887
 5957W        W75772  35.541  24.704  12.573
 5958W        W75773  14.169   6.376   4.834
 5959W        W75774  18.675   5.428   0.860
 5960W        W75775  30.106  17.650   0.448
 5961W        W75776  38.407  31.415   1.339
 5962W        W75777   7.746  33.532  10.409
 5963W        W75778  30.641  16.172   1.277
 5964W        W75779  12.161  14.588   4.631
 5965W        W75780  29.652  35.092   3.200
 5966W        W75781  44.773  28.559  11.446
 5967W        W75782   9.226  36.485   0.403
 5968W        W75783  37.424  16.151   2.273
 5969W        W75784  34.458  10.147  13.831
 5970W        W75785  30.534   7.908  10.998
 5971W        W75786  43.486   8.369   1.434
 5972W        W75787  40.033  13.782   1.292
 5973W        W75788  16.658   8.719   2.692
 5974W        W75789  15.124   7.844   3.379
 5975W        W75790  22.045  38.850   4.168
 5976W        W75791  16.811  28.626  12.938
 5977W        W75792  27.586  37.871  11.992
 5978W        W75793  42.945  18.116  13.547
 5979W        W75794   1.897   2.315   3.803
 5980W        W75795  40.885  15.598   5.795
 5981W        W75796  19.133  37.930   0.249
 5982W        W75797  29.519  14.180   5.297
 5983W        W75798  44.895  38.928   0.848
 5984W        W75799  13.250  29.028  10.918
 5985W        W75800  32.086  37.373   0.439
 5986W        W75801  18.675  23.019  14.332
 5987W        W75802  21.032   9.860  12.867
 5988W        W75803  43.969   2.873   2.193
 5989W        W75804  41.523  18.228  12.851
 5990W        W75805  35.084  34.423  11.985
 5991W        W75806  38.907  14.776   0.735
 5992W        W75807   8.398  34.869  13.858
 5993W        W75808  27.969   2.805  13.483
 5994W        W75809  17.239  34.585  11.516
 5995W        W75810  29.446  19.183   2.725
 5996W        W75811   7.673  39.544   4.727
 5997W        W75812   1.884  29.081  14.428
 5998W        W75813  38.513  27.577  13.804
 5999W        W75814  24.131  40.487   4.598
 6000W        W75815  30.605  42.281  11.400
 6001W        W75816  37.566  14.309   2.861
 6002W        W75817   1.790  38.016   1.286
 6003W        W75818  44.291  20.057  13.821
 6004W        W75819  42.976  21.248   1.857
 6005W        W75820  15.696  27.605   4.710
 6006W        W75821   7.214  34.895  10.525
 6007W        W75822  20.679  44.422   4.636
 6008W        W75823   9.775  37.980  12.493
 6009W        W75824  26.040   1.418  12.483
 6010W        W75825  31.047  26.101   1.897
 6011W        W75826  14.656  40.926   4.338
 6012W        W75827   4.894   0.903  10.976
 6013W        W75828  33.429  12.304  14.790
 6014W        W75829  23.028  42.982   2.704
 6015W        W75830  33.081   0.769  14.334
 6016W        W75831   6.236  35.462  11.583
 6017W        W75832  31.559  38.342   0.956
 6018W        W75833   2.839  33.071  14.838
 6019W        W75834   8.209  22.008   0.267
 6020W        W75835  37.449  10.261  13.996
 6021W        W75836   3.453  27.954   4.329
 6022W        W75837  36.446   0.887   3.797
 6023W        W75838  24.050  37.377   5.125
 6024W        W75839  36.544  27.188   4.817
 6025W        W75840  14.592  32.494   2.764
 6026W        W75841   5.712  27.090   3.665
 6027W        W75842  11.743  19.131  10.074
 6028W        W75843  38.952  17.203  13.863
 6029W        W75844  20.760   3.907   2.691
 6030W        W75845  38.009  26.628  14.844
 6031W        W75846  43.953  44.343  13.463
 6032W        W75847  34.449   5.196  13.010
 6033W        W75848  37.481  21.186  14.961
 6034W        W75849  39.830  41.535  10.585
 6035W        W75850  27.940  39.362   1.812
 6036W        W75851  29.091  13.837  14.438
 6037W        W75852  31.030  12.230   1.855
 6038W        W75853  37.434  30.553  14.032
 6039W        W75854   0.953  33.417   4.309
 6040W        W75855   5.906   7.819   4.195
 6041W        W75856  20.185  37.452  11.882
 6042W        W75857  42.454   4.788  14.795
 6043W        W75858  25.691  37.996   2.193
 6044W        W75859  33.106  28.149  12.940
 6045W        W75860  42.519  26.207  10.530
 6046W        W75861  13.295  43.463  12.538
 6047W        W75862   3.340  40.897   2.870
 6048W        W75863  25.487  37.968  13.522
 6049W        W75864  34.043  18.631  10.901
 6050W        W75865  11.260  19.590   9.969
 6051W        W75866  25.972   5.280  13.015
 6052W        W75867  33.080  44.370   4.639
 6053W        W75868  39.495  30.448  13.837
 6054W        W75869  25.082  42.392  12.945
 6055W        W75870   3.408  32.140  13.025
 6056W        W75871  42.520  31.550  11.482
 6057W        W75872  44.843   6.375  10.965
 6058W        W75873  35.413  24.989   1.239
 6059W        W75874  41.356  32.133  12.397
 6060W        W75875  16.239  15.614   4.796
 6061W        W75876  23.164  35.083   0.804
 6062W        W75877  28.149  15.124  11.601
 6063W        W75878  32.996  20.196  10.599
 6064W        W75879   3.755   9.772   0.939
 6065W        W75880   9.706   5.378  14.810
 6066W        W75881  39.810  31.050   4.822
 6067W        W75882  24.024  29.573   1.922
 6068W        W75883  26.608  32.015   4.833
 6069W        W75884  12.118   8.809  14.827
 6070W        W75885  21.112  30.492  12.017
 6071W        W75886  34.502  35.919   3.829
 6072W        W75887   1.439  29.070  11.378
 6073W        W75888  25.088  24.183  14.843
 6074W        W75889  26.474  36.505  12.872
 6075W        W75890  39.494   2.439   2.896
 6076W        W75891  28.185   4.856   0.395
 6077W        W75892  30.973  32.462   4.352
 6078W        W75893  23.648  19.173  14.031
 6079W        W75894   3.430  26.608  10.907
 6080W        W75895  20.590  29.587   0.362
 6081W        W75896   6.341  29.551  12.972
 6082W        W75897  35.927   6.205  14.985
 6083W        W75898  34.515  20.255   0.326
 6084W        W75899  39.484  22.696   3.155
 6085W        W75900  43.285  21.552  12.860
 6086W        W75901  15.126  11.842  10.621
 6087W        W75902  24.101   8.802  10.532
 6088W        W75903  10.171   4.352  13.883
 6089W        W75904  24.064  17.276  13.484
 6090W        W75905   4.435   9.155  12.473
 6091W        W75906  34.434  19.547   0.415
 6092W        W75907   3.898  26.041  13.533
 6093W        W75908  32.073  38.417  12.420
 6094W        W75909  11.150  26.661   1.856
 6095W        W75910  43.488  26.069   1.769
 6096W        W75911  29.051   5.873  11.503
 6097W        W75912   9.792  28.468   0.469
 6098W        W75913   2.303  35.875  10.956
 6099W        W75914  26.526  28.114   1.726
 6100W        W75915   2.434   9.733   0.267
 6101W        W75916  24.026   2.764   0.263
 6102W        W75917  32.927  30.542  11.124
 6103W        W75918  17.132   7.846  12.839
 6104W        W75919   9.342  30.001   0.446
 6105W        W75920   3.461  23.103  10.419
 6106W        W75921  27.663  22.010   4.310
 6107W        W75922  35.898   6.881  14.950
 6108W        W75923  29.169  33.105   0.277
 6109W        W75924  37.540  35.010  12.990
 6110W        W75925  23.017  21.587  14.382
 6111W        W75926  26.181  18.740  14.953
 6112W        W75927  33.608  21.105  11.124
 6113W        W75928   8.811   7.806   2.394
 6114W        W75929   0.910  20.587  11.106
 6115W        W75930  28.101   8.883  12.379
 6116W        W75931  24.218   6.893   2.703
 6117W        W75932  20.713   1.322  10.517
 6118W        W75933  39.837  41.902   3.370
 6119W        W75934  35.065  22.199  10.985
 6120W        W75935  15.643  43.480  11.055
 6121W        W75936  26.679   1.429   5.253
 6122W        W75937   2.265  43.424  11.491
 6123W        W75938  31.066  32.967   0.913
 6124W        W75939   8.849  21.550  11.995
 6125W        W75940   3.256  33.514  12.493
 6126W        W75941   5.412  28.174   0.957
 6127W        W75942  42.504  26.701  11.950
 6128W        W75943  12.319  21.536  11.070
 6129W        W75944  19.071   9.352  10.969
 6130W        W75945  21.595  14.763  12.429
 6131W        W75946  14.775  16.715  11.439
 6132W        W75947  37.924  38.965   2.351
 6133W        W75948   7.384  16.138   0.465
 6134W        W75949  38.910  10.178  13.357
 6135W        W75950   6.738  43.794  12.970
 6136W        W75951  32.925  36.500   0.906
 6137W        W75952  39.900  33.951  13.537
 6138W        W75953  32.516  20.672  13.868
 6139W        W75954  13.609  43.932   4.732
 6140W        W75955  41.967  16.652   1.758
 6141W        W75956  22.144  24.042  14.988
 6142W        W75957  38.352  37.420  14.328
 6143W        W75958  42.865   2.794  12.561
 6144W        W75959  43.307  41.315  14.839
 6145W        W75960   5.273   7.215  13.528
 6146W        W75961  28.173  44.438   5.131
 6147W        W75962  27.471   4.282   4.303
 6148W        W75963  25.693  13.646  14.977
 6149W        W75964   3.896  31.917  10.634
 6150W        W75965  41.447  41.502   2.297
 6151W        W75966  36.963   8.384   0.424
 6152W        W75967  34.964  15.102   1.795
 6153W        W75968  39.809  28.960   2.774
 6154W        W75969  24.011  35.578   3.774
 6155W        W75970  16.596   8.334   4.656
 6156W        W75971   7.228  34.963  12.974
 6157W        W75972  21.231  26.051   1.865
 6158W        W75973  24.593  12.630  11.375
 6159W        W75974  34.052  30.032  12.968
 6160W        W75975  32.468  16.720   4.202
 6161W        W75976  21.608  42.964  13.961
 6162W        W75977  14.704  21.018   4.631
 6163W        W75978   7.173  12.698   1.338
 6164W        W75979  34.956   0.975  11.443
 6165W        W75980  39.845  31.482  12.026
 6166W        W75981  26.115  22.125  11.506
 6167W        W75982  17.702   7.897  11.580
 6168W        W75983  40.502  18.708  14.925
 6169W        W75984  26.985  36.094   3.227
 6170W        W75985  13.140  34.551   4.115
 6171W        W75986  34.467  35.517   1.858
 6172W        W75987  17.249  40.443   2.723
 6173W        W75988  24.581   2.770   1.723
 6174W        W75989   8.385  30.585   4.149
 6175W        W75990  41.942   4.206  13.440
 6176W        W75991   1.296  22.519  12.523
 6177W        W75992  29.448  23.659   1.388
 6178W        W75993   3.951   5.281  13.908
 6179W        W75994  42.408  40.958   4.235
 6180W        W75995  32.055  16.805  13.838
 6181W        W75996  18.757  24.207   0.893
 6182W        W75997  20.202  40.530   1.827
 6183W        W75998  18.696  33.097  10.537
 6184W        W75999  35.553  19.097  13.508
 6185W        W76000  41.301  14.202   5.158
 6186W        W76001   7.686  18.113   4.161
 6187W        W76002   0.490  40.530   4.222
 6188W        W76003  15.323  17.284  13.425
 6189W        W76004  41.506  20.601   4.818
 6190W        W76005  27.620  28.585   4.662
 6191W        W76006  38.998  21.709  13.366
 6192W        W76007  40.002  35.983  12.478
 6193W        W76008  36.578   6.311   1.412
 6194W        W76009  33.448  19.631   1.750
 6195W        W76010  31.030  22.660  13.988
 6196W        W76011  40.361   2.466  11.448
 6197W        W76012   5.825  36.352   3.156
 6198W        W76013  42.946   1.320   3.634
 6199W        W76014  27.167  35.984  11.381
 6200W        W76015  11.695  37.005   2.327
 6201W        W76016  28.937  31.071  10.595
 6202W        W76017  39.421   2.863   2.842
 6203W        W76018  27.067  19.269  11.920
 6204W        W76019  10.731  41.536   0.446
 6205W        W76020  32.115  20.070   4.175
 6206W        W76021  43.320   9.855  13.936
 6207W        W76022   0.959  19.231   4.273
 6208W        W76023  28.581  20.081   0.947
 6209W        W76024   5.277  23.096   0.287
 6210W        W76025   5.804  39.819  10.539
 6211W        W76026  19.733  15.609   4.153
 6212W        W76027  34.447  20.264  14.788
 6213W        W76028  32.894  37.082  13.881
 6214W        W76029   3.868  15.765  11.537
 6215W        W76030  23.691   6.417  13.501
 6216W        W76031  39.458  13.136  11.110
 6217W        W76032  34.401  38.550  13.904
 6218W        W76033  43.342  20.708   2.386
 6219W        W76034  17.267  28.673   4.352
 6220W        W76035  24.538  34.464   1.882
 6221W        W76036  38.427   9.778  13.383
 6222W        W76037  15.170   1.377   4.201
 6223W        W76038   8.827  24.148   4.327
 6224W        W76039   6.297  44.500   4.748
 6225W        W76040  32.558  20.105  13.926
 6226W        W76041  26.676  22.012   5.254
 6227W        W76042  29.576  38.453  14.943
 6228W        W76043  10.740   6.881  11.933
 6229W        W76044  16.774  24.693  13.887
 6230W        W76045  43.408   5.852  11.954
 6231W        W76046  34.567  19.171  10.541
 6232W        W76047  42.502  31.488  14.919
 6233W        W76048  34.085   2.275   3.387
 6234W        W76049  22.147  27.572  14.399
 6235W        W76050  40.896  23.641   3.306
 6236W        W76051  19.603  22.202   2.694
 6237W        W76052  36.892   3.936   2.775
 6238W        W76053  11.351  25.996  14.809
 6239W        W76054  34.939  18.207  12.471
 6240W        W76055  17.123  29.084  10.519
 6241W        W76056  31.420   6.324   2.769
 6242W        W76057  40.484  15.735   1.850
 6243W        W76058  24.668  22.043   3.701
 6244W        W76059   2.756  29.998  11.001
 6245W        W76060  39.969   7.877   4.273
 6246W        W76061  44.446  37.980   5.132
 6247W        W76062  21.677  29.539  11.514
 6248W        W76063  10.182  30.459  13.460
 6249W        W76064  25.217  26.964   0.348
 6250W        W76065  43.455  32.501  11.940
 6251W        W76066  22.132  40.314   3.751
 6252W        W76067  19.135  36.079   1.787
 6253W        W76068   1.474  34.455  12.547
 6254W        W76069   6.424  26.614   0.930
 6255W        W76070  21.101  21.143   1.217
 6256W        W76071  21.111   1.277   2.247
 6257W        W76072   6.331  34.984   2.729
 6258W        W76073  41.980  31.606   1.217
 6259W        W76074  10.691  25.613  13.943
 6260W        W76075   4.800  11.675  10.948
 6261W        W76076  18.218  44.931  14.928
 6262W        W76077  41.367  38.906  12.019
 6263W        W76078  23.605  16.675   3.661
 6264W        W76079  16.641  19.606  11.895
 6265W        W76080  27.968  11.156  13.050
 6266W        W76081  11.674  25.669   2.328
 6267W        W76082  31.096  42.899  11.095
 6268W        W76083  38.557  15.295   3.339
 6269W        W76084  22.733  31.518   4.222
 6270W        W76085  29.467  35.441   3.342
 6271W        W76086  32.958  10.230   4.267
 6272W        W76087   6.840  16.703   0.919
 6273W        W76088  15.611  20.192  11.478
 6274W        W76089  12.771  40.813   4.270
 6275W        W76090   0.357  23.072  11.452
 6276W        W76091  22.079  13.216   0.733
 6277W        W76092  15.597  27.077   5.247
 6278W        W76093   9.178  41.468   5.232
 6279W        W76094   1.789  21.605  12.091
 6280W        W76095   5.333  39.438   3.868
 6281W        W76096  17.562  44.419  13.056
 6282W        W76097   5.698  37.963   4.212
 6283W        W76098  14.191  15.761   2.664
 6284W        W76099   2.451  41.971  14.502
 6285W        W76100  12.257  43.326  12.950
 6286W        W76101  24.140  32.901   0.267
 6287W        W76102   8.796  22.581   4.756
 6288W        W76103   5.350  36.964  11.865
 6289W        W76104  41.355   6.867   3.355
 6290W        W76105  22.120   6.216   4.293
 6291W        W76106  40.501   8.217   2.704
 6292W        W76107  31.480  13.202   0.309
 6293W        W76108   0.419  40.476   3.315
 6294W        W76109  22.514   3.254   3.251
 6295W        W76110  25.014  29.074  12.999
 6296W        W76111  16.713  16.583   1.759
 6297W        W76112  14.750  22.675  12.557
 6298W        W76113   7.318  10.681   2.314
 6299W        W76114   2.279   2.891  11.455
 6300W        W76115  12.181  35.933   2.192
 6301W        W76116   1.262  32.494   2.681
 6302W        W76117  26.162  35.554  12.362
 6303W        W76118  24.066   2.750   3.852
 6304W        W76119   4.309  39.913  10.541
 6305W        W76120   6.203   9.679  13.463
 6306W        W76121  20.645  26.646   0.337
 6307W        W76122  20.270   1.244   0.351
 6308W        W76123  28.600  26.663   1.839
 6309W        W76124  41.382  43.967   2.326
 6310W        W76125  31.062  44.865  11.420
 6311W        W76126  18.624  39.374   3.654
 6312W        W76127   3.749  44.762   2.235
 6313W        W76128  16.128  40.948  14.405
 6314W        W76129  20.136  22.733   2.768
 6315W        W76130  10.795   1.802  11.096
 6316W        W76131  41.845   3.950  12.461
 6317W        W76132   3.895   7.770   0.756
 6318W        W76133  32.134  25.092  13.424
 6319W        W76134   6.420  37.080  12.903
 6320W        W76135  19.099  19.144   0.320
 6321W        W76136   0.345   7.888   4.159
 6322W        W76137  33.049   7.683  11.476
 6323W        W76138   5.884  29.153  11.431
 6324W        W76139  40.445  32.060  14.485
 6325W        W76140  41.489  19.077  12.839
 6326W        W76141  22.530  43.352  12.443
 6327W        W76142   5.782  26.084  12.563
 6328W        W76143  31.074   0.396   0.858
 6329W        W76144  25.102  21.555   2.258
 6330W        W76145  22.614  35.016   3.867
 6331W        W76146  28.045  18.166   3.252
 6332W        W76147  31.009  19.275  13.524
 6333W        W76148   5.217  29.127   4.829
 6334W        W76149  31.543  21.221  12.360
 6335W        W76150  43.787  12.742   1.788
 6336W        W76151  27.954  19.729   3.707
 6337W        W76152   2.471  17.747  12.405
 6338W        W76153  33.572  33.611   1.795
 6339W        W76154   8.678   6.219   2.178
 6340W        W76155  40.884  17.241   2.836
 6341W        W76156  41.463  26.170   3.809
 6342W        W76157   0.953   9.209  13.001
 6343W        W76158  21.043  32.443   0.347
 6344W        W76159  32.450  35.017  13.467
 6345W        W76160  21.207   5.391   2.702
 6346W        W76161  42.892  35.399   4.325
 6347W        W76162  20.202  15.806   5.198
 6348W        W76163  21.643  33.130  10.919
 6349W        W76164  41.037   3.313   4.283
 6350W        W76165   2.864  36.425   1.427
 6351W        W76166   9.153  38.841  12.422
 6352W        W76167  19.720   1.856  14.505
 6353W        W76168  21.177  23.692  13.888
 6354W        W76169   2.792  11.229   0.891
 6355W        W76170  32.404   4.203  13.358
 6356W        W76171  22.233  21.231   4.186
 6357W        W76172  38.959  29.653  10.905
 6358W        W76173  18.108   2.299   2.739
 6359W        W76174  36.447  15.218   2.290
 6360W        W76175  12.817  40.432   0.361
 6361W        W76176  25.140  18.767  14.297
 6362W        W76177  27.005  18.167  12.404
 6363W        W76178  26.014   5.918   1.375
 6364W        W76179  38.989  17.267   2.371
 6365W        W76180  34.547  12.830  11.405
 6366W        W76181  19.039  37.514  10.931
 6367W        W76182  26.081  28.588  11.964
 6368W        W76183  32.986   6.749   3.844
 6369W        W76184  11.737   6.211  11.395
 6370W        W76185  31.647   9.313   3.321
 6371W        W76186  27.586  33.100   2.386
 6372W        W76187  25.019  38.543  12.384
 6373W        W76188   6.913  26.698  12.035
 6374W        W76189   0.851  21.122  14.512
 6375W        W76190  13.216  10.819  14.852
 6376W        W76191   9.870  20.260  12.866
 6377W        W76192   6.413  41.004  11.510
 6378W        W76193  25.004  35.988  11.887
 6379W        W76194  28.180  22.581  12.413
 6380W        W76195  44.921  20.141   2.304
 6381W        W76196   8.167  20.764  10.475
 6382W        W76197  44.456  31.588   2.890
 6383W        W76198  40.053  41.004  13.034
 6384W        W76199   1.322  23.551   3.308
 6385W        W76200   0.939   9.876   3.337
 6386W        W76201  38.932   4.872   1.890
 6387W        W76202  28.621  38.875  11.949
 6388W        W76203  43.767  10.851  14.403
 6389W        W76204   8.697  30.621   1.301
 6390W        W76205  10.661   7.383  12.555
 6391W        W76206   2.770   6.209  14.485
 6392W        W76207  28.624  23.715   4.716
 6393W        W76208  37.867   8.175  13.432
 6394W        W76209  29.447  31.623   0.859
 6395W        W76210  27.599  18.573   1.220
 6396W        W76211   1.933  11.631  11.995
 6397W        W76212  37.456  40.510   3.313
 6398W        W76213  42.445   5.865   3.773
 6399W        W76214  14.199  24.647   4.606
 6400W        W76215  41.858  36.509  14.510
 6401W        W76216  34.088   8.847  11.906
 6402W        W76217  21.663  38.448   2.272
 6403W        W76218   5.379  43.830   1.415
 6404W        W76219  12.288  25.544   0.263
 6405W        W76220  18.207  34.878   4.328
 6406W        W76221   1.448   6.405   3.756
 6407W        W76222  25.522  12.164   3.861
 6408W        W76223  30.018  12.690  14.789
 6409W        W76224  14.293  14.164   1.856
 6410W        W76225  20.575  30.576  10.434
 6411W        W76226  12.216  44.396  12.574
 6412W        W76227  17.620  11.713  10.435
 6413W        W76228  11.856  27.649   3.725
 6414W        W76229  38.568  21.545  11.063
 6415W        W76230  18.659  41.533   3.828
 6416W        W76231   2.406  32.620   0.787
 6417W        W76232  27.123   5.227  14.453
 6418W        W76233  37.046  11.282   3.222
 6419W        W76234   5.225   7.673   0.261
 6420W        W76235   7.841  10.766  10.925
 6421W        W76236  13.311  11.309   3.680
 6422W        W76237  38.364  33.385   0.251
 6423W        W76238  28.013  21.623  13.063
 6424W        W76239   9.372  35.537  12.922
 6425W        W76240   7.717  28.172  13.356
 6426W        W76241  42.353   4.841   4.135
 6427W        W76242  23.629  32.476   1.432
 6428W        W76243   2.807  30.597  13.480
 6429W        W76244  42.027  23.166   3.228
 6430W        W76245   4.317  35.932   0.959
 6431W        W76246  43.508   6.877  13.952
 6432W        W76247  32.410   0.356  10.587
 6433W        W76248  20.088  42.012   4.323
 6434W        W76249  22.127   3.830   4.198
 6435W        W76250  26.186  11.276  13.989
 6436W        W76251   6.292   3.828   4.789
 6437W        W76252   5.896   5.243  10.498
 6438W        W76253  25.152  37.874   1.899
 6439W        W76254  30.434  31.450  13.868
 6440W        W76255  24.540  17.187   1.890
 6441W        W76256  35.953  16.567   4.660
 6442W        W76257  44.356   4.913  11.573
 6443W        W76258   6.772  40.432   3.226
 6444W        W76259  42.889   1.341  13.048
 6445W        W76260  21.220  34.547  12.866
 6446W        W76261   6.832  13.268  14.461
 6447W        W76262  15.150  25.156   3.147
 6448W        W76263  24.654  40.955   1.353
 6449W        W76264  15.300  14.694   4.166
 6450W        W76265  42.921  37.393  12.468
 6451W        W76266   5.780  11.688  11.047
 6452W        W76267   9.851   6.678  13.496
 6453W        W76268  42.876  16.667   3.307
 6454W        W76269   5.439   4.858   2.737
 6455W        W76270   5.247  23.678   4.186
 6456W        W76271  12.236  37.506  14.322
 6457W        W76272  44.874   8.344  11.871
 6458W        W76273  37.848   8.266  12.919
 6459W        W76274  24.220   0.906  12.396
 6460W        W76275   5.344   5.913  13.801
 6461W        W76276  19.187  22.196  11.426
 6462W        W76277  39.842   7.693  12.906
 6463W        W76278  28.504  39.525   4.343
 6464W        W76279  22.614   5.395  14.298
 6465W        W76280   1.835   3.901   0.293
 6466W        W76281   5.270   0.400  11.903
 6467W        W76282  30.039  22.112  14.368
 6468W        W76283  31.998  27.104   2.869
 6469W        W76284  26.087  36.474   1.731
 6470W        W76285  35.598  25.692   1.737
 6471W        W76286  22.654   1.889   0.779
 6472W        W76287  41.304  11.160  11.437
 6473W        W76288  28.015  34.478   2.226
 6474W        W76289  29.600  18.727   0.249
 6475W        W76290  15.307  31.410  11.957
 6476W        W76291   7.399  43.453   1.782
 6477W        W76292  29.450  41.439   9.968
 6478W        W76293  22.028  42.311   4.763
 6479W        W76294  37.940  43.435  14.892
 6480W        W76295  41.498  23.690   0.408
 6481W        W76296  25.021  34.072   4.824
 6482W        W76297  33.445   0.429   9.995
 6483W        W76298  27.002  15.650  13.337
 6484W        W76299   1.271  24.693  14.979
 6485W        W76300  44.758  40.956  12.016
 6486W        W76301  20.622  35.053  13.917
 6487W        W76302   0.869   9.791  10.980
 6488W        W76303  35.004  17.069   2.386
 6489W        W76304  25.998  12.662   0.296
 6490W        W76305  24.974  14.733  11.934
 6491W        W76306   5.924  43.922  13.027
 6492W        W76307   8.724  38.037  11.434
 6493W        W76308  23.697  22.694  14.972
 6494W        W76309  43.938   6.740   2.769
 6495W        W76310  32.472  24.612  13.819
 6496W        W76311  44.502  43.921  10.505
 6497W        W76312  38.467   9.216  14.280
 6498W        W76313   6.353  41.343  13.447
 6499W        W76314  10.842  42.478   3.714
 6500W        W76315   9.162  29.597   1.762
 6501W        W76316  26.084  39.483   2.179
 6502W        W76317   5.263  12.130  14.791
 6503W        W76318   4.715  25.043   1.760
 6504W        W76319  10.786   0.282  14.292
 6505W        W76320  37.421  41.982  13.857
 6506W        W76321  13.271  15.625   0.928
 6507W        W76322   2.325  23.530  11.410
 6508W        W76323  43.396  18.118  11.576
 6509W        W76324  12.247   2.959   4.634
 6510W        W76325  22.612  39.849  12.840
 6511W        W76326  33.534  12.170   4.182
 6512W        W76327  27.498  11.861  11.444
 6513W        W76328  38.479  15.248   0.460
 6514W        W76329  24.207   7.175  13.433
 6515W        W76330  34.477  42.957  13.342
 6516W        W76331  24.029   1.469   4.339
 6517W        W76332  24.552  22.603  14.454
 6518W        W76333  30.483  34.554  12.916
 6519W        W76334  43.370  18.741   4.216
 6520W        W76335  36.969  38.948   3.848
 6521W        W76336  34.535   8.853   3.146
 6522W        W76337  28.457  17.138  12.886
 6523W        W76338  16.178  40.928  11.411
 6524W        W76339  17.776  41.950   2.885
 6525W        W76340  33.904  28.443   2.345
 6526W        W76341  15.212  35.084   1.825
 6527W        W76342  25.470  35.031  12.994
 6528W        W76343  38.364  44.773  11.933
 6529W        W76344  44.288  16.317   2.342
 6530W        W76345  41.974  13.206   1.839
 6531W        W76346   1.241   1.901   4.121
 6532W        W76347  14.615  23.694   3.336
 6533W        W76348  24.554  18.610   9.956
 6534W        W76349  14.160  26.976   3.817
 6535W        W76350  26.553  24.550   2.321
 6536W        W76351  41.854  29.575  12.458
 6537W        W76352   4.703  30.954   1.285
 6538W        W76353   7.253  37.359   4.651
 6539W        W76354  20.529   5.788  12.414
 6540W        W76355  35.523  32.505   3.730
 6541W        W76356  44.011  35.362   0.905
 6542W        W76357   4.729   7.893   2.342
 6543W        W76358  30.912  33.914   2.761
 6544W        W76359  27.499  19.189  10.429
 6545W        W76360  37.071  14.760  11.423
 6546W        W76361  34.898  26.124  14.475
 6547W        W76362  28.641  27.146  13.989
 6548W        W76363  16.659  34.970  12.439
 6549W        W76364  30.422  17.200  12.345
 6550W        W76365  42.521  11.238  12.510
 6551W        W76366  34.960   8.869  10.599
 6552W        W76367  23.156  25.991   2.793
 6553W        W76368  39.908  14.176   0.734
 6554W        W76369   2.791  37.878   2.195
 6555W        W76370  22.243  20.763  14.470
 6556W        W76371  28.579  43.372  12.924
 6557W        W76372  22.570   0.441   2.418
 6558W        W76373  35.925  16.770  14.983
 6559W        W76374  12.636  25.029  13.342
 6560W        W76375  41.004  13.270   5.171
 6561W        W76376  26.638  27.629  14.336
 6562W        W76377  34.494  14.230   0.893
 6563W        W76378  11.369  17.228   9.552
 6564W        W76379  37.551  29.145  13.868
 6565W        W76380   9.378  36.039   0.880
 6566W        W76381  38.842  27.083   1.842
 6567W        W76382   5.206  12.196  10.920
 6568W        W76383  40.500  44.897   4.699
 6569W        W76384  37.535   8.743   3.275
 6570W        W76385  18.128  39.406   3.278
 6571W        W76386   4.751  22.529  14.001
 6572W        W76387  31.569  28.444  14.766
 6573W        W76388   7.254  35.868   1.240
 6574W        W76389  40.875   4.446  12.550
 6575W        W76390  16.277  29.093   2.888
 6576W        W76391  34.940  37.370  13.936
 6577W        W76392  29.151  25.545  14.963
 6578W        W76393  18.766   3.744  11.612
 6579W        W76394   1.330   6.363  14.490
 6580W        W76395   3.925  35.510   0.796
 6581W        W76396  37.084   0.475   2.367
 6582W        W76397   3.829  38.884   0.377
 6583W        W76398   5.400  10.354   0.288
 6584W        W76399  27.520  36.388   3.349
 6585W        W76400  24.074  13.285   2.234
 6586W        W76401  44.380  44.835  11.079
 6587W        W76402   7.792  10.213   0.309
 6588W        W76403   8.188  42.911   3.717
 6589W        W76404  40.976   2.263  10.999
 6590W        W76405  18.644  25.120   4.776
 6591W        W76406  25.152  36.454   2.279
 6592W        W76407  14.304   8.850   3.184
 6593W        W76408  13.258  40.383   0.391
 6594W        W76409  34.994   6.253   0.266
 6595W        W76410  18.102   8.749  10.926
 6596W        W76411  23.163  44.928  11.121
 6597W        W76412  23.095  25.194   2.866
 6598W        W76413  40.016  16.653   3.373
 6599W        W76414  12.203  17.777  10.014
 6600W        W76415   0.893   8.863  13.387
 6601W        W76416  43.419   7.343  10.518
 6602W        W76417  42.299  39.364  10.616
 6603W        W76418  26.132   2.401  14.405
 6604W        W76419   3.775   0.887   2.344
 6605W        W76420  12.636   7.310   4.236
 6606W        W76421  37.453   1.795  12.832
 6607W        W76422  43.372  33.054   2.301
 6608W        W76423  28.647   6.255  13.415
 6609W        W76424  41.890   5.229  12.979
 6610W        W76425   5.910  19.089   3.650
 6611W        W76426  19.629  18.098   0.907
 6612W        W76427  18.198  15.083  10.602
 6613W        W76428  20.187  29.007  11.468
 6614W        W76429  35.394  32.119  11.080
 6615W        W76430   0.472   3.915   2.327
 6616W        W76431  36.988  20.729   1.923
 6617W        W76432   3.426   0.833  12.861
 6618W        W76433  41.383  16.256   3.791
 6619W        W76434  29.504   5.828   3.242
 6620W        W76435  41.313  29.495   4.336
 6621W        W76436  40.892  13.270  12.096
 6622W        W76437  40.911  30.087  12.918
 6623W        W76438  27.977  37.444  12.462
 6624W        W76439  39.989  30.499   1.256
 6625W        W76440  17.724  40.009   4.206
 6626W        W76441  41.360  29.462  14.860
 6627W        W76442  14.248  37.400   3.655
 6628W        W76443  41.847  35.065  12.914
 6629W        W76444  30.035  14.700   2.726
 6630W        W76445  34.939  25.163  12.954
 6631W        W76446  26.466   7.340   3.264
 6632W        W76447  14.198  43.000  10.643
 6633W        W76448  38.876  23.110  11.506
 6634W        W76449  21.633  21.593  10.509
 6635W        W76450  29.122  16.632   2.411
 6636W        W76451  39.333  42.933  11.903
 6637W        W76452  12.612   6.761  14.418
 6638W        W76453  44.280  27.171  14.503
 6639W        W76454  39.840  14.787   0.762
 6640W        W76455   5.400  39.974  12.350
 6641W        W76456  32.941  43.410   4.166
 6642W        W76457  36.360  16.801   3.692
 6643W        W76458  18.065  34.585  12.551
 6644W        W76459  11.707  37.895  10.923
 6645W        W76460  40.320  44.278  10.524
 6646W        W76461  13.238   4.739   1.343
 6647W        W76462  14.302  35.392  12.559
 6648W        W76463  42.464   9.886  13.791
 6649W        W76464  36.476  38.509   0.335
 6650W        W76465  14.652  38.885  10.507
 6651W        W76466  34.959  17.262  13.420
 6652W        W76467  41.502  35.532   4.158
 6653W        W76468  11.817  35.421  12.462
 6654W        W76469  27.645  11.637  10.506
 6655W        W76470  44.312   7.692  11.868
 6656W        W76471  37.540   6.326  13.860
 6657W        W76472   9.807  29.065   2.384
 6658W        W76473  10.858   9.343  12.345
 6659W        W76474  27.641   4.884   2.888
 6660W        W76475  32.425  43.984   2.672
 6661W        W76476   9.864  42.511  12.548
 6662W        W76477  18.763  14.683  13.439
 6663W        W76478   3.368  10.231  12.912
 6664W        W76479  42.966  15.802  12.432
 6665W        W76480  19.679  10.156   3.732
 6666W        W76481  33.960  42.795  12.432
 6667W        W76482   1.877   3.768   0.927
 6668W        W76483   3.392  32.565   3.777
 6669W        W76484  43.999  31.437  14.306
 6670W        W76485  27.648  44.769  13.904
 6671W        W76486  34.435  43.798  12.028
 6672W        W76487  16.707  31.133   0.928
 6673W        W76488  20.700  34.926  12.994
 6674W        W76489  30.413   5.801  14.832
 6675W        W76490  42.370  32.970   2.351
 6676W        W76491   1.302  13.842  11.494
 6677W        W76492  33.527  40.998   4.686
 6678W        W76493   1.358  33.593   4.312
 6679W        W76494  22.625  33.519   4.335
 6680W        W76495  34.988  43.006   3.771
 6681W        W76496   6.829  35.084   4.209
 6682W        W76497  40.956  30.526  14.466
 6683W        W76498  36.034  14.692   3.749
 6684W        W76499   9.368   3.870   4.220
 6685W        W76500  33.936  41.399  14.850
 6686W        W76501  11.245  14.803  12.510
 6687W        W76502  14.673   2.250  14.806
 6688W        W76503  36.545  11.796  13.921
 6689W        W76504  36.033   6.340   1.841
 6690W        W76505   4.432  26.562  12.979
 6691W        W76506   9.365  18.119   2.357
 6692W        W76507  15.647  21.130  12.451
 6693W        W76508  25.976  35.961   4.652
 6694W        W76509  32.954  16.735  14.947
 6695W        W76510  28.971  34.116   3.324
 6696W        W76511  14.606  32.976  12.378
 6697W        W76512  44.776   4.261  14.975
 6698W        W76513  31.481  21.688   4.283
 6699W        W76514   0.348  16.297  11.923
 6700W        W76515  12.226   8.293  10.556
 6701W        W76516  10.748   8.719   1.822
 6702W        W76517  42.854  13.645   2.310
 6703W        W76518  29.104  22.660   1.757
 6704W        W76519  20.208  18.182  12.077
 6705W        W76520  35.014  11.284   9.975
 6706W        W76521  25.031  21.571   0.916
 6707W        W76522   3.247  15.593   3.650
 6708W        W76523  21.059   0.974   0.760
 6709W        W76524  26.196  17.640   3.375
 6710W        W76525  16.264  36.556   3.634
 6711W        W76526  29.119  39.033   1.755
 6712W        W76527  41.980  30.531   2.860
 6713W        W76528  14.747  43.007   3.313
 6714W        W76529  39.416   7.834  14.012
 6715W        W76530  26.145  16.715  11.542
 6716W        W76531  28.543  19.752  13.317
 6717W        W76532  11.326   9.325   1.302
 6718W        W76533  14.792   1.471   3.716
 6719W        W76534  23.704   0.981  14.802
 6720W        W76535   6.768  18.571  11.059
 6721W        W76536   5.901  15.734   3.182
 6722W        W76537   5.269  15.608   4.661
 6723W        W76538  27.663  31.987   3.656
 6724W        W76539   5.754  44.996   3.701
 6725W        W76540   8.328  33.513  13.036
 6726W        W76541  20.151  37.925   3.350
 6727W        W76542  41.037  29.642   4.668
 6728W        W76543  15.282  19.725  14.385
 6729W        W76544  17.587  26.593   0.254
 6730W        W76545   2.411  18.750  12.422
 6731W        W76546  12.675  22.686  13.848
 6732W        W76547  39.000  16.301   0.350
 6733W        W76548  31.506  17.216   3.701
 6734W        W76549  43.902   3.763  13.443
 6735W        W76550   8.180  35.474  14.430
 6736W        W76551  36.385  34.540   9.977
 6737W        W76552  42.291  28.142  13.032
 6738W        W76553  33.016  16.716  11.126
 6739W        W76554  29.469  15.170   3.214
 6740W        W76555   6.889  22.534   4.697
 6741W        W76556   3.312  14.821  11.012
 6742W        W76557  16.773  37.851  14.511
 6743W        W76558   2.787  10.839   2.688
 6744W        W76559   7.763  10.263  13.935
 6745W        W76560  26.008  43.489   4.219
 6746W        W76561   1.287   2.840   2.406
 6747W        W76562  11.341  42.464  13.049
 6748W        W76563  41.313  36.865  13.546
 6749W        W76564  21.677  12.670   2.232
 6750W        W76565  20.680  23.029  12.441
 6751W        W76566  19.633  27.052   4.661
 6752W        W76567  22.063  31.017   2.354
 6753W        W76568   6.312   7.306   3.345
 6754W        W76569   7.349   2.755  11.016
 6755W        W76570  42.444  12.255   1.697
 6756W        W76571  35.104  10.272  14.504
 6757W        W76572  36.405  27.025   2.708
 6758W        W76573  39.415  24.051  14.437
 6759W        W76574   8.780   0.937  10.539
 6760W        W76575  42.826  22.693   3.300
 6761W        W76576  25.138   2.296  10.552
 6762W        W76577  39.468  11.270   1.762
 6763W        W76578  41.502  11.647   4.147
 6764W        W76579   6.258  17.738   0.958
 6765W        W76580  30.045  29.005   1.422
 6766W        W76581  11.778  22.020   4.613
 6767W        W76582   6.709  22.585  14.941
 6768W        W76583  37.052  11.790   2.409
 6769W        W76584  12.269  26.005  14.873
 6770W        W76585  28.531  17.095   2.699
 6771W        W76586  21.125  12.821  14.423
 6772W        W76587   4.881   1.366  14.868
 6773W        W76588  34.901  32.054  13.327
 6774W        W76589  32.489   1.422  10.914
 6775W        W76590  43.836  29.524   4.244
 6776W        W76591  30.156   5.274  12.074
 6777W        W76592   0.468  42.481   1.257
 6778W        W76593  43.384   7.669  13.362
 6779W        W76594  13.318  22.031   3.229
 6780W        W76595  20.267  10.704   0.439
 6781W        W76596  29.021   2.387  14.882
 6782W        W76597  18.247  38.550  10.583
 6783W        W76598  37.061  31.562  12.950
 6784W        W76599  36.064   4.401   1.438
 6785W        W76600  17.207   7.366   5.221
 6786W        W76601  10.688  27.980  12.969
 6787W        W76602  41.906  44.935   0.926
 6788W        W76603  35.916  41.840  11.948
 6789W        W76604  11.733   5.836   2.801
 6790W        W76605  30.156  34.863   1.264
 6791W        W76606  12.233  12.800  14.366
 6792W        W76607  18.131  12.133  11.115
 6793W        W76608   3.757   6.239  13.849
 6794W        W76609  26.560   0.818   3.764
 6795W        W76610  28.969  36.352   1.883
 6796W        W76611  37.870   0.479  14.309
 6797W        W76612  36.535  38.922  14.914
 6798W        W76613  11.796  11.131  13.424
 6799W        W76614  42.948  44.897  13.507
 6800W        W76615   8.891  22.029  11.454
 6801W        W76616  41.419  24.048  14.894
 6802W        W76617  33.058   2.343   3.785
 6803W        W76618  38.558  37.871   2.675
 6804W        W76619  33.546   6.206  10.587
 6805W        W76620  44.824   9.206  14.794
 6806W        W76621  11.865  32.435  13.504
 6807W        W76622  31.128  37.503   1.260
 6808W        W76623  12.134  28.659  14.945
 6809W        W76624  19.667  29.517   4.660
 6810W        W76625  13.815   0.926  14.811
 6811W        W76626  25.505  11.216   0.400
 6812W        W76627   0.825  16.172   0.874
 6813W        W76628  25.162   6.343  10.967
 6814W        W76629  22.566  13.255  12.874
 6815W        W76630  28.470  35.566  12.391
 6816W        W76631   3.864  24.556   1.844
 6817W        W76632  36.454   2.457  13.357
 6818W        W76633  37.394  20.703  11.466
 6819W        W76634  27.674   0.983  12.497
 6820W        W76635  12.613  31.447   2.874
 6821W        W76636  30.642   0.344  14.941
 6822W        W76637  36.990  28.665   0.432
 6823W        W76638  13.168   1.837  13.995
 6824W        W76639  14.755  15.815  11.122
 6825W        W76640  22.186   3.851  12.992
 6826W        W76641  10.313  25.011   3.701
 6827W        W76642  13.647   3.923  10.526
 6828W        W76643  13.687   1.420  10.408
 6829W        W76644  22.523  17.620  11.498
 6830W        W76645   9.181   4.425   2.308
 6831W        W76646  40.953  32.453  14.322
 6832W        W76647  14.190  30.637  13.485
 6833W        W76648  42.525  14.830  13.809
 6834W        W76649  32.417  43.494   4.134
 6835W        W76650   8.806  24.153  13.328
 6836W        W76651  15.174   2.368  12.983
 6837W        W76652  28.126  44.903   3.787
 6838W        W76653   3.257  22.747  12.075
 6839W        W76654  27.117  16.589   4.755
 6840W        W76655  35.869  29.021   0.815
 6841W        W76656   9.838  43.492  14.028
 6842W        W76657  24.977  14.262   0.743
 6843W        W76658  43.335  15.684   3.864
 6844W        W76659  43.928  30.086   3.823
 6845W        W76660  10.829  29.565  13.958
 6846W        W76661  28.523   3.304   1.330
 6847W        W76662   4.720   6.187  13.442
 6848W        W76663  39.847   1.320  10.431
 6849W        W76664  15.299  29.090   3.638
 6850W        W76665  17.792  36.989  10.482
 6851W        W76666   4.270  28.542   4.816
 6852W        W76667  34.003   0.267   3.332
 6853W        W76668  26.985  30.021  13.505
 6854W        W76669  24.222   0.337   1.334
 6855W        W76670  32.436  43.346  11.393
 6856W        W76671   5.780  12.826   3.650
 6857W        W76672   1.761   6.195   4.179
 6858W        W76673   0.288   6.401  13.947
 6859W        W76674   6.201  20.664   3.284
 6860W        W76675  21.166  33.505   1.812
 6861W        W76676  16.218  34.402  10.534
 6862W        W76677   6.327  43.426  13.385
 6863W        W76678  40.901  27.583   0.883
 6864W        W76679  21.168   0.412   2.396
 6865W        W76680  30.017  26.042  11.498
 6866W        W76681  28.129   7.893   4.340
 6867W        W76682  38.846  18.683   1.845
 6868W        W76683  25.638  11.243  14.956
 6869W        W76684  22.105  22.249   4.635
 6870W        W76685  15.328  24.165  12.944
 6871W        W76686  25.978  25.203  10.455
 6872W        W76687  42.342  20.065  11.104
 6873W        W76688  32.024  32.911  13.800
 6874W        W76689  12.251  33.460   1.287
 6875W        W76690  12.117  32.902   2.288
 6876W        W76691   5.924  12.803   0.936
 6877W        W76692  14.331  25.680  13.417
 6878W        W76693  36.046  27.032   2.682
 6879W        W76694  22.060  24.176  13.515
 6880W        W76695  24.548  24.196  13.363
 6881W        W76696  26.678  13.146  14.813
 6882W        W76697  28.637  18.275   4.300
 6883W        W76698  19.759   4.827  11.970
 6884W        W76699  43.365  38.360  11.953
 6885W        W76700  14.815   4.707   2.887
 6886W        W76701  19.585  14.297  14.482
 6887W        W76702  39.401   4.820   3.779
 6888W        W76703  25.016  29.540   0.815
 6889W        W76704  42.452  43.792  12.975
 6890W        W76705  20.618  36.086  10.574
 6891W        W76706  18.719  32.022  14.820
 6892W        W76707  11.232  40.395   4.338
 6893W        W76708  13.320   4.799  13.936
 6894W        W76709  11.855  12.160  11.890
 6895W        W76710  27.618  35.954  13.445
 6896W        W76711  11.796   4.744   0.813
 6897W        W76712  43.337   2.470  14.990
 6898W        W76713  44.873  32.955  12.501
 6899W        W76714   9.187   1.304  10.971
 6900W        W76715  11.318  19.637  13.385
 6901W        W76716  18.606  40.050   4.168
 6902W        W76717  17.672  33.625  10.607
 6903W        W76718  44.901  19.572  10.975
 6904W        W76719  37.343  14.314  14.336
 6905W        W76720  13.624  35.526   0.311
 6906W        W76721  19.568  43.825   0.335
 6907W        W76722  37.535  41.998   3.342
 6908W        W76723   3.852   9.226   1.272
 6909W        W76724  39.813  40.487   4.190
 6910W        W76725   8.181  37.948  13.463
 6911W        W76726  19.615  12.353   0.890
 6912W        W76727  26.167   9.715  12.889
 6913W        W76728  40.954  26.011  11.043
 6914W        W76729  28.532  28.941  14.891
 6915W        W76730  19.201   0.339   4.201
 6916W        W76731  13.814  12.670  14.419
 6917W        W76732  43.310  42.448   3.748
 6918W        W76733  39.827  23.183  13.003
 6919W        W76734  29.973   7.811  12.947
 6920W        W76735   6.741   8.389   2.707
 6921W        W76736  35.483  11.130  10.476
 6922W        W76737  44.399  14.135   1.416
 6923W        W76738  42.308  32.997  14.808
 6924W        W76739  22.724   4.299   3.825
 6925W        W76740  10.251  28.047  13.909
 6926W        W76741  32.111  15.786   5.081
 6927W        W76742  23.663  17.141   4.691
 6928W        W76743  28.457  18.747   1.694
 6929W        W76744  28.126  11.809   5.566
 6930W        W76745  27.454   0.815   0.481
 6931W        W76746   8.200   4.228  10.563
 6932W        W76747  41.032  24.711   3.222
 6933W        W76748  32.464  32.104   3.369
 6934W        W76749  41.960   8.320   4.203
 6935W        W76750  30.537  42.814   1.694
 6936W        W76751  21.596  14.209   4.343
 6937W        W76752  11.280  14.331  11.115
 6938W        W76753  31.101   3.223   1.918
 6939W        W76754  36.490  32.529   0.832
 6940W        W76755  27.033  20.693   4.739
 6941W        W76756  20.710  41.952   0.762
 6942W        W76757  44.365  40.877   0.739
 6943W        W76758  21.194  40.381  12.040
 6944W        W76759  32.636  38.819  11.062
 6945W        W76760  23.058  21.734  12.341
 6946W        W76761  19.624  28.516   4.708
 6947W        W76762  26.563  32.972   0.300
 6948W        W76763  32.436   8.828   4.286
 6949W        W76764  37.007  20.159   4.200
 6950W        W76765   4.285   5.749   1.393
 6951W        W76766  30.646  31.020  14.480
 6952W        W76767  13.152  15.301  11.025
 6953W        W76768   5.358  42.002   3.163
 6954W        W76769  14.301  36.588  14.892
 6955W        W76770  40.967  17.170   3.256
 6956W        W76771  32.539  41.316   0.381
 6957W        W76772  17.598  36.987  14.461
 6958W        W76773  10.738  24.131  10.982
 6959W        W76774   6.834  16.081   3.379
 6960W        W76775   8.705  37.970   4.718
 6961W        W76776  21.128   6.826  13.015
 6962W        W76777  30.127  26.093   1.809
 6963W        W76778  33.495  13.165  12.954
 6964W        W76779  43.444   9.689   0.259
 6965W        W76780   6.245  43.912  14.907
 6966W        W76781  21.594  38.877  12.525
 6967W        W76782   3.783   0.294  10.492
 6968W        W76783  20.554  44.764  11.578
 6969W        W76784  25.607  37.529   0.417
 6970W        W76785  28.048  17.596   4.756
 6971W        W76786  43.822   2.831  10.476
 6972W        W76787  24.552  36.498  13.941
 6973W        W76788  34.951  41.992  12.055
 6974W        W76789  31.588   0.957  11.876
 6975W        W76790   6.917  35.910  11.123
 6976W        W76791  25.549  22.604  14.483
 6977W        W76792  17.229  37.372  12.953
 6978W        W76793  11.149  27.656   4.638
 6979W        W76794  12.240   5.870  10.913
 6980W        W76795  16.780  17.555  10.518
 6981W        W76796  18.219  12.645   3.232
 6982W        W76797  24.099  17.302  13.821
 6983W        W76798  35.602  28.984   4.138
 6984W        W76799  28.595  26.624  11.483
 6985W        W76800  29.019   7.323   3.366
 6986W        W76801  14.164  25.173  10.947
 6987W        W76802   8.855  38.989   0.889
 6988W        W76803   7.759  27.473  10.950
 6989W        W76804   9.792   3.363   0.926
 6990W        W76805  28.963  23.078   1.837
 6991W        W76806   2.774  15.717  11.553
 6992W        W76807  13.111  17.588   1.726
 6993W        W76808  23.164  36.857   0.426
 6994W        W76809  41.000   0.771  14.293
 6995W        W76810  22.634  44.364   4.137
 6996W        W76811  37.376  23.074   1.253
 6997W        W76812  20.181  11.780  12.065
 6998W        W76813   2.875  32.632   4.705
 6999W        W76814  28.652   8.358   1.730
 7000W        W76815  31.563   2.467   0.287
 7001W        W76816  25.509   0.462   0.291
 7002W        W76817  12.856  34.013   1.285
 7003W        W76818  36.585  22.238   4.731
 7004W        W76819  30.517  10.793   2.391
 7005W        W76820  33.919  32.049   2.826
 7006W        W76821  29.575   8.888  12.070
 7007W        W76822  26.692  41.466  12.924
 7008W        W76823  10.689   8.328   3.319
 7009W        W76824  31.639  24.617   0.894
 7010W        W76825  42.899  38.060   3.717
 7011W        W76826  23.215  36.975   2.690
 7012W        W76827  41.348  14.702  11.001
 7013W        W76828  13.202  43.374  11.000
 7014W        W76829  40.363  40.314   0.787
 7015W        W76830  38.073  11.727  13.366
 7016W        W76831   0.903  11.644  11.019
 7017W        W76832  32.917   0.896  12.933
 7018W        W76833   9.665  31.623   1.872
 7019W        W76834  41.932  27.013  11.476
 7020W        W76835  42.890  14.317   4.169
 7021W        W76836  32.637  22.153   1.760
 7022W        W76837  15.668   8.697  12.047
 7023W        W76838  29.997   4.789  11.898
 7024W        W76839  41.500  37.021   4.216
 7025W        W76840  11.152   4.812   3.203
 7026W        W76841  19.595   5.395   3.649
 7027W        W76842  28.451   3.291   1.828
 7028W        W76843  18.057   6.362  13.413
 7029W        W76844  21.751  24.221  11.957
 7030W        W76845  12.734  37.356  11.532
 7031W        W76846  38.848  44.301   1.289
 7032W        W76847  32.996  38.515  14.991
 7033W        W76848  33.463   5.319   4.635
 7034W        W76849  18.637  32.101   1.347
 7035W        W76850  32.138  34.480   0.762
 7036W        W76851  25.646   2.368  12.842
 7037W        W76852  16.636  17.564   2.296
 7038W        W76853  32.520  43.310  13.798
 7039W        W76854  21.515  25.193  10.415
 7040W        W76855  17.121  34.414  12.509
 7041W        W76856   5.229  34.098  10.535
 7042W        W76857  14.315   2.768  12.004
 7043W        W76858   8.876  16.300   3.815
 7044W        W76859   3.783  37.979   3.295
 7045W        W76860  44.479  23.083  11.910
 7046W        W76861  27.133  14.230   0.252
 7047W        W76862  21.241  38.980   3.247
 7048W        W76863  20.733   7.756  12.089
 7049W        W76864  23.016  15.800  12.829
 7050W        W76865  17.082   8.701  12.067
 7051W        W76866  27.057   2.836   0.358
 7052W        W76867   0.878   8.858  10.953
 7053W        W76868   1.372   7.905  13.393
 7054W        W76869   1.836  43.370  14.866
 7055W        W76870  42.490  12.175   0.805
 7056W        W76871   0.301   5.345  11.595
 7057W        W76872  35.983  17.205   4.695
 7058W        W76873  13.753   9.664  10.561
 7059W        W76874   4.384  25.078  14.790
 7060W        W76875  26.601  32.627   3.855
 7061W        W76876  36.391  14.770  13.373
 7062W        W76877  18.619  35.085  13.410
 7063W        W76878  44.775  38.948  13.057
 7064W        W76879  15.742  36.453   2.826
 7065W        W76880  38.866  36.561  11.066
 7066W        W76881  24.216  30.552  11.563
 7067W        W76882  10.182   7.229   1.216
 7068W        W76883  21.077   6.692  14.511
 7069W        W76884  17.797  43.021  14.511
 7070W        W76885  36.937  16.738  14.404
 7071W        W76886  14.784  15.223  10.538
 7072W        W76887  29.174  21.047  13.846
 7073W        W76888   8.340  11.845   4.687
 7074W        W76889  17.091  23.607  13.975
 7075W        W76890   2.847  36.392  14.471
 7076W        W76891  18.710  25.041  14.938
 7077W        W76892  36.420   1.361   2.882
 7078W        W76893  16.623  18.569  10.500
 7079W        W76894   2.884  11.136  11.474
 7080W        W76895  16.231  29.918  12.931
 7081W        W76896   9.363  42.026  11.397
 7082W        W76897   3.846  37.834  12.373
 7083W        W76898  39.844   9.720  13.907
 7084W        W76899   3.416  12.139   1.904
 7085W        W76900   4.920  21.714   2.248
 7086W        W76901   7.412   7.222  10.641
 7087W        W76902  28.483  30.518  12.417
 7088W        W76903  20.152   8.287   0.343
 7089W        W76904  41.387  22.551  10.888
 7090W        W76905  30.628  16.309  10.998
 7091W        W76906  44.502  16.168  12.465
 7092W        W76907  27.576   9.810  11.568
 7093W        W76908   0.824  32.440  11.603
 7094W        W76909  21.245  31.062  13.818
 7095W        W76910  27.514  31.443  13.045
 7096W        W76911   1.844   0.888  13.830
 7097W        W76912  15.695  30.503   0.434
 7098W        W76913   2.925  24.617   2.254
 7099W        W76914  37.055  28.019  12.530
 7100W        W76915  31.559  37.394  14.794
 7101W        W76916  26.170  35.579   2.820
 7102W        W76917  20.563  38.369  12.433
 7103W        W76918  18.602   3.916  14.966
 7104W        W76919  10.877  22.695   3.850
 7105W        W76920  20.739  33.037  10.918
 7106W        W76921   7.856  16.137  11.419
 7107W        W76922  15.183   9.325  11.944
 7108W        W76923   2.885  38.489   3.149
 7109W        W76924  17.582  35.490   4.113
 7110W        W76925  17.789  25.665   3.771
 7111W        W76926  20.693   9.751  11.896
 7112W        W76927  34.912  27.474  11.925
 7113W        W76928  35.893  12.811  10.597
 7114W        W76929  42.903  26.179  11.941
 7115W        W76930  41.338   8.283  10.478
 7116W        W76931  19.751  29.594  10.605
 7117W        W76932  39.011  17.134  14.954
 7118W        W76933  26.095  13.211  11.501
 7119W        W76934  33.965  31.016  10.889
 7120W        W76935  29.544   2.904   1.886
 7121W        W76936  39.835  14.322  14.392
 7122W        W76937  31.593  24.049  11.018
 7123W        W76938  43.978  36.510   1.849
 7124W        W76939  41.017  24.992  10.624
 7125W        W76940  33.430  39.848  13.851
 7126W        W76941  44.799  21.724   2.366
 7127W        W76942  26.498  42.463   3.304
 7128W        W76943  14.197  37.389   4.791
 7129W        W76944  31.434  16.649   3.257
 7130W        W76945  37.572  33.518   3.725
 7131W        W76946  34.601  41.517   3.739
 7132W        W76947  12.121   0.804   2.758
 7133W        W76948  20.032  13.716  14.996
 7134W        W76949  20.601  32.027   2.215
 7135W        W76950  38.568  44.953  14.367
 7136W        W76951  21.118  36.010  11.054
 7137W        W76952  38.993  24.048   3.323
 7138W        W76953  42.457  41.305   1.423
 7139W        W76954  24.106  43.360  14.453
 7140W        W76955  41.299  29.995   2.309
 7141W        W76956   7.366  22.507   2.408
 7142W        W76957   1.813  41.806   4.632
 7143W        W76958  36.358   2.386   3.739
 7144W        W76959  18.107   4.833  13.339
 7145W        W76960   9.270  20.216  11.546
 7146W        W76961  40.038  23.661  14.452
 7147W        W76962   2.249  20.704  13.880
 7148W        W76963  32.044  29.115  13.371
 7149W        W76964  38.822   8.819   5.215
 7150W        W76965   3.418   4.364  14.822
 7151W        W76966   9.844   8.382   2.867
 7152W        W76967  36.357   0.461   1.708
 7153W        W76968  35.385  21.729   0.946
 7154W        W76969   7.367  23.190   2.710
 7155W        W76970  27.604  13.785  13.379
 7156W        W76971   1.282   4.371  14.472
 7157W        W76972  13.797  24.711   4.609
 7158W        W76973  16.669  31.479  13.516
 7159W        W76974  42.011  37.070  13.350
 7160W        W76975  22.195  36.375   1.355
 7161W        W76976  19.743  32.892  12.974
 7162W        W76977   0.845  29.051  11.559
 7163W        W76978  24.013  30.415  14.481
 7164W        W76979  11.656  23.652   0.412
 7165W        W76980  20.068  12.221  10.488
 7166W        W76981  25.544  10.291   1.875
 7167W        W76982  19.230  26.045   0.305
 7168W        W76983   9.393  35.411   2.671
 7169W        W76984   1.479  31.913   1.802
 7170W        W76985  43.879  24.502  13.526
 7171W        W76986  29.644  44.974  14.433
 7172W        W76987  10.851  28.948  13.957
 7173W        W76988   7.345  11.143   1.387
 7174W        W76989  15.226  19.249  12.420
 7175W        W76990  37.498  11.321  14.455
 7176W        W76991  20.649  17.088  14.986
 7177W        W76992  24.223  37.401  12.550
 7178W        W76993  28.161  15.763   2.732
 7179W        W76994  42.485  15.649  13.024
 7180W        W76995  14.302  37.354  13.493
 7181W        W76996  44.482  10.253  12.563
 7182W        W76997   1.439   6.694   3.756
 7183W        W76998  37.533  24.991  13.983
 7184W        W76999   7.752  37.904  14.977
 7185W        W77000  35.546  24.219  10.624
 7186W        W77001   1.367  42.419   3.702
 7187W        W77002  23.579  22.154  11.415
 7188W        W77003  21.041  16.270   1.818
 7189W        W77004   9.653  36.502   2.299
 7190W        W77005  16.588  34.864  12.032
 7191W        W77006  34.007  31.443  11.467
 7192W        W77007  11.640  44.965   1.835
 7193W        W77008   7.349  38.355   4.610
 7194W        W77009  22.687  43.493  11.919
 7195W        W77010  29.552  11.743  14.952
 7196W        W77011  32.944  22.175   0.345
 7197W        W77012   0.380  44.350   1.871
 7198W        W77013  35.936  20.157   1.321
 7199W        W77014  20.109  35.441   0.836
 7200W        W77015   2.320  14.691   4.816
 7201W        W77016   7.752  37.449  12.398
 7202W        W77017  24.573  34.083   2.900
 7203W        W77018  37.066  26.506  10.519
 7204W        W77019  19.190  23.031   2.723
 7205W        W77020  16.683  23.087  13.848
 7206W        W77021  18.176  23.556   1.902
 7207W        W77022   9.190  12.283  11.522
 7208W        W77023  14.297  22.119  10.457
 7209W        W77024   7.838  23.161   3.178
 7210W        W77025  11.160   0.946  11.107
 7211W        W77026  44.471  32.907   3.803
 7212W        W77027  15.587  36.591   3.631
 7213W        W77028  24.559  10.728  11.428
 7214W        W77029  14.199  44.824  12.912
 7215W        W77030  36.361  17.208  11.511
 7216W        W77031  10.811  13.246   4.124
 7217W        W77032  36.942  33.404   4.693
 7218W        W77033  19.230  32.909   0.809
 7219W        W77034  15.125  10.741   4.143
 7220W        W77035  36.038  12.227   2.716
 7221W        W77036  41.407   1.937  12.972
 7222W        W77037  28.435  17.676   2.208
 7223W        W77038  41.529  18.289  12.026
 7224W        W77039  11.254  21.104  13.377
 7225W        W77040  28.624  24.045  11.493
 7226W        W77041  19.173  30.581  11.517
 7227W        W77042   2.310   4.325   1.732
 7228W        W77043   2.403  32.519   4.800
 7229W        W77044  43.788  35.526  14.444
 7230W        W77045  38.441  11.278  14.974
 7231W        W77046  27.989  29.021  14.855
 7232W        W77047  17.677  19.644  12.878
 7233W        W77048  42.970  40.826  14.276
 7234W        W77049  42.856  44.473   4.241
 7235W        W77050  32.514  19.580  13.446
 7236W        W77051  35.044  14.273  14.907
 7237W        W77052  37.897  33.574   2.740
 7238W        W77053  20.587  17.269   0.896
 7239W        W77054  26.970   8.656   1.876
 7240W        W77055  41.500  42.869  14.427
 7241W        W77056  41.803  37.580  12.919
 7242W        W77057  16.214   6.733  14.797
 7243W        W77058  15.675   3.461   3.267
 7244W        W77059   6.195  13.842   2.900
 7245W        W77060   6.318   7.782  11.042
 7246W        W77061  22.512  23.517  11.075
 7247W        W77062   0.875  39.441   4.284
 7248W        W77063  29.041  36.991  12.837
 7249W        W77064  28.638   1.735  11.527
 7250W        W77065  11.267  40.498   1.697
 7251W        W77066   8.174   0.280  13.947
 7252W        W77067   8.366  18.120  11.598
 7253W        W77068  18.650  37.927  10.569
 7254W        W77069  15.148  42.969   1.906
 7255W        W77070  44.863  13.228   2.668
 7256W        W77071  23.614   2.453  14.792
 7257W        W77072  21.080  27.970   4.712
 7258W        W77073   5.284  21.533  14.003
 7259W        W77074  16.761   9.826   1.737
 7260W        W77075  31.619  30.135  10.908
 7261W        W77076   2.347  34.516   0.913
 7262W        W77077  30.648  17.175  13.384
 7263W        W77078  21.531  24.034   4.775
 7264W        W77079  44.373   6.779  13.853
 7265W        W77080   7.394  37.487   1.892
 7266W        W77081   2.314  18.072   4.644
 7267W        W77082  38.568   2.436  12.398
 7268W        W77083  35.975  13.248   2.291
 7269W        W77084  20.217  29.460   4.122
 7270W        W77085  23.633  42.349  12.920
 7271W        W77086  31.446   9.780  11.465
 7272W        W77087  13.343  14.147   3.831
 7273W        W77088  22.650   4.357  13.364
 7274W        W77089  44.975  10.276  13.038
 7275W        W77090   7.274  31.406  10.466
 7276W        W77091  33.062  30.537  13.540
 7277W        W77092  21.589  10.347   3.737
 7278W        W77093  41.032  20.043  10.638
 7279W        W77094  23.997  34.372  12.399
 7280W        W77095  15.327  13.285  11.375
 7281W        W77096  39.003  22.108   0.434
 7282W        W77097  43.823  44.259   4.835
 7283W        W77098  42.432   3.319  12.550
 7284W        W77099  16.173  18.218   1.361
 7285W        W77100   2.788  15.667  13.923
 7286W        W77101   0.744   8.300   2.369
 7287W        W77102  13.321  28.526  12.875
 7288W        W77103  35.004  43.817  11.916
 7289W        W77104   7.403  27.987  11.099
 7290W        W77105  31.142  28.096   0.344
 7291W        W77106  12.310  16.209  14.850
 7292W        W77107  29.156   2.442   3.685
 7293W        W77108  43.808  20.050  12.525
 7294W        W77109  16.661  28.110   4.263
 7295W        W77110  10.829  16.138  14.023
 7296W        W77111  15.233   9.855  10.627
 7297W        W77112   3.310   9.710   4.172
 7298W        W77113  16.318  15.685  13.358
 7299W        W77114   4.795  17.718  13.470
 7300W        W77115  11.835  27.027  11.989
 7301W        W77116   3.336  33.446  12.033
 7302W        W77117  34.054  36.043   3.146
 7303W        W77118  44.267  36.468   4.212
 7304W        W77119   5.210  25.133   1.225
 7305W        W77120  38.864  43.844  10.495
 7306W        W77121  27.553  30.555  13.836
 7307W        W77122  25.057  44.763  10.985
 7308W        W77123  12.650  41.427  10.919
 7309W        W77124  28.012  20.053  11.591
 7310W        W77125  38.566   8.297   0.950
 7311W        W77126  13.209  20.655   4.332
 7312W        W77127  34.567  23.036   3.843
 7313W        W77128   1.883  30.587   1.250
 7314W        W77129  38.871  43.378  13.381
 7315W        W77130  35.386  18.268   0.252
 7316W        W77131  44.411  42.797  10.056
 7317W        W77132  20.642  36.531  10.473
 7318W        W77133  25.643   8.856   1.734
 7319W        W77134  28.447  31.031  10.630
 7320W        W77135  30.070  32.397   0.317
 7321W        W77136  16.674  13.740   3.264
 7322W        W77137  30.556   9.712   2.861
 7323W        W77138  15.189   9.235  14.877
 7324W        W77139  18.287  20.179  11.013
 7325W        W77140  22.216  32.043  12.977
 7326W        W77141  23.539  40.946   1.696
 7327W        W77142  14.232   1.350   2.674
 7328W        W77143  39.915  18.247  12.895
 7329W        W77144  41.939   0.915  14.362
 7330W        W77145  41.982  27.184   3.377
 7331W        W77146   5.380   8.697   0.325
 7332W        W77147   5.272  16.170   3.776
 7333W        W77148   3.926  28.575   1.757
 7334W        W77149   1.804  22.168   4.306
 7335W        W77150  23.176  42.865  12.410
 7336W        W77151  39.813  10.221   4.179
 7337W        W77152  18.064   3.929  11.947
 7338W        W77153  27.143  41.971  13.972
 7339W        W77154  29.505  30.444  14.326
 7340W        W77155  43.292  10.366   2.207
 7341W        W77156  40.518  21.546  14.974
 7342W        W77157   7.173  40.366  13.472
 7343W        W77158   5.884  21.166   3.262
 7344W        W77159  12.749  10.716   3.357
 7345W        W77160   1.868  35.378  12.431
 7346W        W77161  13.719  29.457   1.754
 7347W        W77162  40.933  39.942  11.863
 7348W        W77163  14.221   6.798  14.942
 7349W        W77164  33.946  33.609   1.447
 7350W        W77165  31.585  38.938   1.339
 7351W        W77166  20.633   5.882   0.787
 7352W        W77167  43.476  33.952   4.160
 7353W        W77168  28.009  33.562   2.222
 7354W        W77169  39.383  26.506  11.600
 7355W        W77170  10.780  28.116   0.838
 7356W        W77171  39.356  24.217  11.429
 7357W        W77172  41.401   5.702   4.148
 7358W        W77173  31.119  31.535   3.662
 7359W        W77174  34.431  20.737   4.817
 7360W        W77175  13.618  35.530   3.233
 7361W        W77176  23.586  13.812  12.456
 7362W        W77177  23.590  29.506   4.799
 7363W        W77178   7.270   7.330   1.701
 7364W        W77179   8.347  40.825   1.722
 7365W        W77180   9.713  11.340  13.886
 7366W        W77181   9.801  12.274   0.742
 7367W        W77182  19.557   8.699  12.439
 7368W        W77183  35.960  10.244   0.475
 7369W        W77184  38.047  44.896  12.555
 7370W        W77185  41.015  31.952   3.743
 7371W        W77186  18.074  22.013   3.159
 7372W        W77187   7.179   1.749  13.909
 7373W        W77188   8.836  22.604   3.377
 7374W        W77189  30.620  14.706   0.398
 7375W        W77190  37.986  30.603   4.298
 7376W        W77191  27.062  15.282  12.859
 7377W        W77192   4.333  31.493  14.279
 7378W        W77193  44.866   3.226   4.187
 7379W        W77194  26.685  30.651  14.030
 7380W        W77195  41.882  21.111  11.408
 7381W        W77196   7.743  22.621  11.092
 7382W        W77197   8.663  35.050  10.512
 7383W        W77198  31.614  34.969   3.223
 7384W        W77199   8.720   9.873   0.953
 7385W        W77200  16.629  35.509   2.719
 7386W        W77201   1.787  21.539   0.751
 7387W        W77202  18.293  20.707  14.991
 7388W        W77203  17.245  36.369  11.864
 7389W        W77204  24.172  29.924  11.969
 7390W        W77205  40.449  44.452   3.354
 7391W        W77206   4.236  38.363   1.393
 7392W        W77207  26.614  38.365  14.419
 7393W        W77208  38.503  18.207  14.860
 7394W        W77209  41.358  28.481   3.691
 7395W        W77210  17.760  38.424  14.980
 7396W        W77211  23.035  30.629  13.346
 7397W        W77212   1.284  35.390  14.864
 7398W        W77213  29.639   0.929  11.024
 7399W        W77214   1.354  39.395  11.502
 7400W        W77215   7.717  42.488   4.296
 7401W        W77216   7.821  22.154   4.205
 7402W        W77217  25.662  25.656   3.292
 7403W        W77218  23.633   9.214   3.752
 7404W        W77219  21.596   0.802   3.795
 7405W        W77220  20.546  22.241   4.730
 7406W        W77221   0.809  43.000  13.449
 7407W        W77222   6.400  27.007   1.308
 7408W        W77223  20.174  11.138   1.741
 7409W        W77224   4.901  31.597  12.539
 7410W        W77225  29.070  21.516   2.848
 7411W        W77226   5.875  39.417   2.387
 7412W        W77227  29.944  12.791  10.942
 7413W        W77228  33.470  14.747  11.861
 7414W        W77229  37.525  16.238   1.424
 7415W        W77230  29.116  12.652  11.052
 7416W        W77231   3.858  27.601   4.307
 7417W        W77232  24.679  31.054   0.836
 7418W        W77233  38.052  25.704   2.355
 7419W        W77234   1.877  30.427   4.677
 7420W        W77235   6.357  23.205  11.557
 7421W        W77236  36.571   5.283   3.680
 7422W        W77237  10.633  16.188  13.387
 7423W        W77238  11.851  35.865  14.373
 7424W        W77239   9.758  37.436   1.913
 7425W        W77240  26.538  39.026   1.286
 7426W        W77241   5.270  28.994   0.463
 7427W        W77242   9.380   6.255  10.523
 7428W        W77243  19.733  38.432   4.297
 7429W        W77244  12.732  20.542   2.298
 7430W        W77245   2.250  31.507   1.299
 7431W        W77246  21.185   9.188   4.179
 7432W        W77247  22.701  11.302  13.310
 7433W        W77248   7.676  24.995  12.948
 7434W        W77249   2.856  17.146  10.502
 7435W        W77250  30.946   3.793   0.258
 7436W        W77251  23.096  14.813   4.325
 7437W        W77252  28.128  26.652  11.535
 7438W        W77253  34.017  30.017   2.201
 7439W        W77254   2.893  29.613  13.983
 7440W        W77255  44.297  43.941  11.502
 7441W        W77256   0.376  38.922   1.773
 7442W        W77257  21.117  42.515   2.211
 7443W        W77258  22.579   1.385   2.681
 7444W        W77259  11.665  43.974  12.499
 7445W        W77260  26.087   8.756  12.559
 7446W        W77261  10.380  17.177   1.212
 7447W        W77262  12.740   0.319  12.458
 7448W        W77263  34.434  32.475   1.406
 7449W        W77264   3.405  20.676  11.608
 7450W        W77265  24.703   8.688   3.252
 7451W        W77266  13.139  16.776   3.859
 7452W        W77267  35.962  15.729  12.413
 7453W        W77268  44.308  43.810   2.253
 7454W        W77269  44.975  42.971  13.372
 7455W        W77270  25.152   1.269   2.755
 7456W        W77271  28.510  32.583   2.771
 7457W        W77272  37.872  26.014  13.863
 7458W        W77273   9.849  21.158   4.135
 7459W        W77274  21.194  44.493   4.632
 7460W        W77275  15.170  33.057   0.734
 7461W        W77276  36.471  12.823   3.336
 7462W        W77277  31.511  28.543  11.467
 7463W        W77278   6.701  11.630  11.045
 7464W        W77279  23.709   2.898  11.103
 7465W        W77280  36.042   4.282  10.895
 7466W        W77281  23.067  28.091  11.545
 7467W        W77282  30.457  35.384  10.434
 7468W        W77283   8.867  31.901   3.224
 7469W        W77284  33.950  16.765   2.371
 7470W        W77285  25.196  42.949  13.497
 7471W        W77286   6.740  31.488   0.926
 7472W        W77287  19.691   8.817  11.900
 7473W        W77288  31.914  42.477  13.414
 7474W        W77289   4.439  21.656   4.718
 7475W        W77290   6.809  19.198   0.941
 7476W        W77291  24.480  40.047  11.596
 7477W        W77292  29.929  29.979   4.824
 7478W        W77293  40.401  11.649   3.784
 7479W        W77294  18.638  31.486   4.832
 7480W        W77295  14.707   1.365   4.115
 7481W        W77296   5.858  36.079  12.886
 7482W        W77297  35.041  23.190  14.494
 7483W        W77298   8.828  42.318  12.574
 7484W        W77299  28.106   3.313  13.792
 7485W        W77300  32.136  13.122  14.442
 7486W        W77301  23.695  22.218   4.311
 7487W        W77302   9.338  33.082   3.351
 7488W        W77303  42.844   7.675  10.408
 7489W        W77304  15.245  44.829  13.971
 7490W        W77305  27.580  24.005   0.841
 7491W        W77306  14.779  42.963   1.334
 7492W        W77307   8.669  37.401   0.307
 7493W        W77308  32.895  34.421   0.451
 7494W        W77309  10.383  40.486  13.042
 7495W        W77310  28.141  11.793   4.677
 7496W        W77311  22.218  43.777  11.091
 7497W        W77312  16.783  37.067   4.625
 7498W        W77313  34.593   0.296   3.304
 7499W        W77314  41.409  41.816  14.387
 7500W        W77315  37.846  15.598  10.485
 7501W        W77316   7.178  15.756  11.458
 7502W        W77317  31.512  44.263  10.426
 7503W        W77318  32.635  11.345   0.820
 7504W        W77319   7.216  22.245   3.683
 7505W        W77320  35.871  10.807   4.730
 7506W        W77321  23.118  38.903   3.804
 7507W        W77322  18.565   3.901   1.228
 7508W        W77323  39.542  44.769  10.986
 7509W        W77324  16.631   1.320  13.018
 7510W        W77325   4.701   5.418   3.374
 7511W        W77326  34.489  23.650   3.260
 7512W        W77327  14.319  20.203   0.272
 7513W        W77328  41.926   0.472  10.424
 7514W        W77329  18.137  22.602  10.489
 7515W        W77330  31.151  37.892   4.599
 7516W        W77331  12.691  38.411   1.409
 7517W        W77332  41.331  18.651   0.466
 7518W        W77333  31.074  26.679  12.567
 7519W        W77334  15.196  26.660   0.902
 7520W        W77335  34.043  17.102   0.917
 7521W        W77336  33.476   4.816   2.754
 7522W        W77337  41.306  29.460   4.652
 7523W        W77338  20.097   2.429   4.340
 7524W        W77339   3.753  17.064   1.868
 7525W        W77340  20.115  25.055   3.307
 7526W        W77341  17.630  43.817   0.729
 7527W        W77342  37.481  39.412  10.893
 7528W        W77343  28.652  11.157  12.900
 7529W        W77344  36.006  31.043   5.099
 7530W        W77345  13.737   8.700   4.224
 7531W        W77346  39.482  40.995  12.968
 7532W        W77347  20.144  16.126   2.321
 7533W        W77348  11.737  27.180  12.388
 7534W        W77349  27.447  26.104   0.298
 7535W        W77350   4.335   6.892  12.533
 7536W        W77351  27.158  23.588   3.699
 7537W        W77352  18.629  40.404   3.259
 7538W        W77353   4.739  39.478  11.045
 7539W        W77354   5.195  22.710   3.317
 7540W        W77355  13.711  43.455  12.025
 7541W        W77356  23.605  30.988  13.933
 7542W        W77357   4.754  17.676   3.837
 7543W        W77358  35.418  34.467  11.889
 7544W        W77359  19.599  24.665  12.924
 7545W        W77360  11.852   1.839  11.964
 7546W        W77361  44.482  15.247  14.306
 7547W        W77362  41.827   0.869   4.265
 7548W        W77363  34.061  42.331  12.843
 7549W        W77364  41.378  36.092   2.197
 7550W        W77365  43.876  23.565   2.810
 7551W        W77366  32.115  43.830  10.425
 7552W        W77367  33.488  30.007  14.361
 7553W        W77368   3.318  37.967   1.441
 7554W        W77369  29.156   2.361  11.107
 7555W        W77370  22.125  28.066  11.442
 7556W        W77371  29.967  43.270   0.392
 7557W        W77372  30.500  36.944  12.556
 7558W        W77373   0.465  16.687   1.768
 7559W        W77374  39.513  19.129   0.262
 7560W        W77375  30.056  25.628   0.320
 7561W        W77376   9.269  17.688  14.399
 7562W        W77377   9.886  31.110  11.482
 7563W        W77378  44.775  43.895   1.437
 7564W        W77379  21.610  32.604  11.545
 7565W        W77380  24.092   1.277   1.714
 7566W        W77381   4.389   6.358  14.934
 7567W        W77382  41.838  18.691   2.880
 7568W        W77383  25.008  39.347  11.469
 7569W        W77384   9.199   5.887   1.295
 7570W        W77385   2.895  33.626   1.292
 7571W        W77386  13.268   7.344  10.931
 7572W        W77387  13.806  25.644  13.821
 7573W        W77388   5.221   3.721   0.313
 7574W        W77389  24.094   1.933   1.747
 7575W        W77390   8.407  38.387   3.293
 7576W        W77391  33.452  39.339  13.507
 7577W        W77392  25.597  37.573  12.452
 7578W        W77393  28.073  26.509   2.313
 7579W        W77394  41.898  23.665  10.407
 7580W        W77395  33.535  13.177  13.910
 7581W        W77396  14.333  13.795   0.786
 7582W        W77397  19.151   9.677   3.811
 7583W        W77398   7.216  24.041   4.825
 7584W        W77399  23.680  41.366   3.720
 7585W        W77400  28.450  32.036  14.356
 7586W        W77401  10.841   9.258   3.651
 7587W        W77402  34.549   3.294   1.748
 7588W        W77403   4.903  33.474  14.345
 7589W        W77404   4.433   0.274  14.322
 7590W        W77405  21.580  27.038   1.839
 7591W        W77406   3.263  25.123   3.742
 7592W        W77407   6.742   5.384   0.249
 7593W        W77408  38.950  19.282  12.392
 7594W        W77409  26.113  25.532   0.876
 7595W        W77410  36.371  23.013  13.532
 7596W        W77411   4.322   2.891   4.231
 7597W        W77412  35.073   2.409  13.411
 7598W        W77413  32.049  43.318  14.396
 7599W        W77414  28.572  17.569   0.277
 7600W        W77415  29.051  40.405  12.922
 7601W        W77416  29.556  37.457   3.789
 7602W        W77417  43.916   9.656   1.821
 7603W        W77418  17.076  27.173  12.083
 7604W        W77419  39.424  21.129   9.987
 7605W        W77420   4.803  37.433   3.280
 7606W        W77421  15.731  34.544   0.393
 7607W        W77422   3.250  24.685  14.338
 7608W        W77423  11.146  32.528   3.231
 7609W        W77424  15.233   1.886  13.921
 7610W        W77425   8.793  33.429  12.428
 7611W        W77426   5.266  25.054  13.528
 7612W        W77427  42.021  17.066   0.429
 7613W        W77428   0.292  16.304   3.834
 7614W        W77429  11.642  22.090   2.208
 7615W        W77430  25.706  21.221   4.730
 7616W        W77431   8.690   2.327  11.063
 7617W        W77432  26.027  41.842   1.310
 7618W        W77433   0.478  43.984  12.029
 7619W        W77434  12.353  19.726  12.909
 7620W        W77435  17.089  32.517  10.467
 7621W        W77436  32.410   8.741  13.500
 7622W        W77437   2.891   8.761   0.392
 7623W        W77438   0.952  28.956  11.888
 7624W        W77439  36.395  13.617   0.361
 7625W        W77440  17.740   9.321  13.456
 7626W        W77441  20.646  28.665  10.609
 7627W        W77442  29.669  33.483  14.825
 7628W        W77443  14.095  31.134   5.114
 7629W        W77444  17.136  28.019  10.575
 7630W        W77445   9.682  26.562  13.957
 7631W        W77446   3.443  41.790  14.335
 7632W        W77447  36.001  24.003   3.761
 7633W        W77448  21.029  43.483  13.434
 7634W        W77449  39.417  11.654  14.460
 7635W        W77450  36.040  43.787   1.826
 7636W        W77451   6.846  20.134   4.783
 7637W        W77452  24.058  40.968   3.717
 7638W        W77453  22.591  32.395   0.782
 7639W        W77454  18.131  39.015   2.807
 7640W        W77455  19.647  29.586  12.043
 7641W        W77456  15.183  41.920   2.385
 7642W        W77457  19.234  15.687   2.181
 7643W        W77458  26.996   9.319   5.297
 7644W        W77459   0.422  38.405   4.623
 7645W        W77460   7.267   2.398  14.849
 7646W        W77461  44.433  40.874  12.360
 7647W        W77462  36.398  19.588   1.772
 7648W        W77463  41.025  37.534  12.548
 7649W        W77464   1.383  16.213  12.086
 7650W        W77465  24.077  43.953  12.418
 7651W        W77466  19.658  37.575   3.847
 7652W        W77467  32.590  13.802   0.385
 7653W        W77468  35.390  14.671  11.427
 7654W        W77469  28.495   8.756   3.790
 7655W        W77470  31.554  30.559  10.582
 7656W        W77471   2.842  39.389   4.598
 7657W        W77472  37.543   0.475   0.276
 7658W        W77473   3.853  15.111  10.996
 7659W        W77474  35.585   5.826   0.912
 7660W        W77475   6.205   8.738  10.561
 7661W        W77476  23.585  24.494   1.889
 7662W        W77477   1.480  14.154  10.591
 7663W        W77478  44.938  20.253   0.315
 7664W        W77479  40.471  43.784  12.066
 7665W        W77480   9.889  43.905   3.239
 7666W        W77481  37.929  44.343   1.791
 7667W        W77482  26.629   3.313   1.815
 7668W        W77483  25.666  23.654  11.101
 7669W        W77484  11.715  16.107   5.130
 7670W        W77485  35.978  36.054  10.592
 7671W        W77486  43.436  21.103  11.611
 7672W        W77487   0.409   5.886  12.468
 7673W        W77488  39.829  19.074  14.502
 7674W        W77489  14.737  43.016  13.996
 7675W        W77490  16.251  42.784  12.059
 7676W        W77491  14.318  28.952   4.190
 7677W        W77492  33.444  41.452   3.166
 7678W        W77493   5.401  42.385   0.459
 7679W        W77494  10.155  12.771  12.009
 7680W        W77495   7.408  32.610  13.386
 7681W        W77496  23.041  41.916  11.427
 7682W        W77497  12.303  20.058   1.230
 7683W        W77498  22.141  12.740  13.460
 7684W        W77499  23.628  16.105   1.901
 7685W        W77500  23.582  16.598  10.569
 7686W        W77501  10.206  26.669  10.899
 7687W        W77502   7.179  16.790   3.740
 7688W        W77503  14.816   8.752  14.005
 7689W        W77504   5.850  27.124  13.890
 7690W        W77505  24.998   2.932   3.310
 7691W        W77506  25.080  10.734   0.859
 7692W        W77507  24.027   3.226  12.530
 7693W        W77508  16.159  14.170  12.841
 7694W        W77509  38.514  31.898  12.562
 7695W        W77510  37.086  30.469   4.728
 7696W        W77511   9.168  19.609   1.801
 7697W        W77512  24.186  20.192   1.765
 7698W        W77513   5.244  11.708   3.283
 7699W        W77514   6.916  33.882   4.612
 7700W        W77515  23.240  13.221  14.500
 7701W        W77516  13.204  43.430   4.144
 7702W        W77517  20.070   9.369  12.840
 7703W        W77518  31.903   7.720   2.713
 7704W        W77519   2.766  14.669   1.864
 7705W        W77520  31.956   8.665  12.861
 7706W        W77521  24.111  39.422  10.105
 7707W        W77522  24.482   1.966   3.630
 7708W        W77523  36.878  25.159  14.877
 7709W        W77524  34.538  27.085  14.856
 7710W        W77525   6.910  37.930  11.112
 7711W        W77526   2.861  23.060  13.907
 7712W        W77527  38.886  16.615  11.960
 7713W        W77528  27.588  44.986   1.215
 7714W        W77529  32.139  18.241   1.331
 7715W        W77530  35.036  17.694  10.564
 7716W        W77531   6.339  30.027   4.260
 7717W        W77532  11.299  27.498   3.266
 7718W        W77533  23.181   7.692   0.949
 7719W        W77534  18.082  16.242  13.508
 7720W        W77535  32.984  40.353   1.373
 7721W        W77536  10.216  44.362   4.763
 7722W        W77537  44.456  20.199   3.224
 7723W        W77538  42.919  43.425  13.827
 7724W        W77539  43.395  32.434  12.518
 7725W        W77540  22.046  37.880   0.808
 7726W        W77541  16.629  38.947  12.385
 7727W        W77542   6.204  37.574   1.891
 7728W        W77543   0.492  25.016   4.651
 7729W        W77544  38.008  22.557  14.966
 7730W        W77545  36.573   5.729  13.937
 7731W        W77546  20.694   3.226   3.190
 7732W        W77547  17.628   8.801   3.686
 7733W        W77548  19.196  20.588  12.536
 7734W        W77549  43.837  16.283   0.364
 7735W        W77550  14.174  35.015  14.279
 7736W        W77551  17.654  39.023  13.019
 7737W        W77552  38.494  23.531   1.845
 7738W        W77553   4.797  10.381  12.518
 7739W        W77554  26.982   4.397  12.996
 7740W        W77555  16.764  14.811   3.783
 7741W        W77556  35.934  25.599  12.944
 7742W        W77557  13.351  24.068   0.371
 7743W        W77558  40.426  40.386   0.478
 7744W        W77559  42.413  42.951  12.046
 7745W        W77560  37.536  32.083  12.475
 7746W        W77561  25.509  40.481   3.268
 7747W        W77562  44.893  38.384   3.250
 7748W        W77563  29.034  33.990   0.847
 7749W        W77564   5.400   4.749  10.915
 7750W        W77565   9.366  22.138   4.320
 7751W        W77566  36.966  35.478   4.832
 7752W        W77567  38.328  32.989  14.290
 7753W        W77568  41.039  43.327  13.381
 7754W        W77569  31.061   3.264   4.646
 7755W        W77570  19.202   9.775   0.948
 7756W        W77571   6.731   5.413   0.869
 7757W        W77572  44.378   1.812   3.265
 7758W        W77573  18.627   5.825   2.313
 7759W        W77574  44.409   6.219   1.405
 7760W        W77575  41.468   6.914   2.853
 7761W        W77576  25.136   1.285  13.509
 7762W        W77577   4.724  36.986   2.673
 7763W        W77578   9.301  16.624  14.815
 7764W        W77579  29.479   0.809  12.465
 7765W        W77580   4.316  39.849   4.625
 7766W        W77581   1.247  16.227  14.883
 7767W        W77582  25.653  37.898   3.697
 7768W        W77583  36.479   9.652  13.368
 7769W        W77584  17.302  12.247   4.333
 7770W        W77585  43.861  22.700   3.250
 7771W        W77586  19.678   0.277  11.373
 7772W        W77587  22.997  43.775  14.299
 7773W        W77588  15.327  20.028  13.902
 7774W        W77589  38.879  43.881  14.798
 7775W        W77590  24.096  37.420   1.442
 7776W        W77591   9.244  30.630   2.315
 7777W        W77592   1.380  30.909  10.417
 7778W        W77593  17.068  23.138  10.423
 7779W        W77594  35.052   1.761  12.418
 7780W        W77595  38.510  23.586   2.395
 7781W        W77596  37.485  34.492  11.537
 7782W        W77597  20.601  39.999  11.933
 7783W        W77598   9.780   0.391  10.581
 7784W        W77599  42.296  35.509  13.323
 7785W        W77600  10.816   0.454   1.730
 7786W        W77601  17.601  32.564  10.898
 7787W        W77602  32.001   3.793   4.292
 7788W        W77603  42.477  13.288  11.023
 7789W        W77604   6.360  21.133  12.007
 7790W        W77605  21.023  26.640  11.459
 7791W        W77606  38.367   1.813   2.413
 7792W        W77607  20.066  10.876   4.193
 7793W        W77608   4.915   2.257  13.941
 7794W        W77609  38.330  41.482  13.496
 7795W        W77610  25.518  19.643   0.325
 7796W        W77611   5.904  32.936  13.843
 7797W        W77612  40.532   7.713  14.870
 7798W        W77613  27.468  29.942  13.478
 7799W        W77614   5.414  31.899   4.238
 7800W        W77615  10.138  23.663  10.107
 7801W        W77616  39.535  32.593   0.266
 7802W        W77617  19.183  31.633   2.211
 7803W        W77618  15.259   8.894   0.924
 7804W        W77619  16.571   4.834   1.262
 7805W        W77620   6.733  23.492   2.244
 7806W        W77621  26.047  34.609   1.759
 7807W        W77622  21.752  39.924  10.507
 7808W        W77623  41.888   7.848  11.090
 7809W        W77624  40.905  39.047   0.466
 7810W        W77625  40.850   3.367  14.332
 7811W        W77626   0.961  29.644  12.958
 7812W        W77627  13.155  44.460  14.332
 7813W        W77628  37.952   6.299   9.948
 7814W        W77629  24.590  44.300   3.262
 7815W        W77630  20.105   5.349   0.811
 7816W        W77631  42.930   8.238   0.867
 7817W        W77632  19.070  16.276  12.359
 7818W        W77633  36.395  14.312   1.752
 7819W        W77634  41.956  29.662   2.209
 7820W        W77635  21.127  40.548   0.967
 7821W        W77636  37.374  15.322  13.831
 7822W        W77637  39.908  33.575  12.006
 7823W        W77638  18.649  25.009   0.484
 7824W        W77639  31.112   0.312  10.590
 7825W        W77640   1.425  22.022  13.904
 7826W        W77641   0.250  39.370   4.284
 7827W        W77642  15.757  27.127   1.876
 7828W        W77643  23.196  39.443   3.293
 7829W        W77644   0.373  32.106   4.234
 7830W        W77645  33.054  26.483   3.679
 7831W        W77646  35.966  18.695  11.430
 7832W        W77647  43.300  43.409  14.822
 7833W        W77648  44.867  30.581  13.894
 7834W        W77649  25.682  11.267  10.410
 7835W        W77650  26.691   3.821  14.926
 7836W        W77651  30.582  36.920  12.044
 7837W        W77652   2.375  38.568   1.375
 7838W        W77653   4.724  20.080   2.672
 7839W        W77654  22.599  19.161   0.830
 7840W        W77655  25.663  16.161  14.764
 7841W        W77656  22.115  42.943  13.793
 7842W        W77657  44.403  35.944   0.895
 7843W        W77658  20.193  39.355  11.553
 7844W        W77659  13.794  16.087  14.309
 7845W        W77660  22.701   9.822   1.330
 7846W        W77661  44.489  22.656  12.377
 7847W        W77662  36.466  40.847  13.045
 7848W        W77663  38.844  10.248  12.460
 7849W        W77664  22.134  40.846   4.798
 7850W        W77665   1.362  35.501  11.088
 7851W        W77666  39.504  37.965  13.321
 7852W        W77667   9.806   8.387   4.763
 7853W        W77668   7.371   5.404   0.958
 7854W        W77669  19.538  19.588   2.836
 7855W        W77670  32.470   9.254   2.827
 7856W        W77671   7.335  31.591  12.907
 7857W        W77672   4.322  41.366   4.741
 7858W        W77673  35.082  29.576   3.315
 7859W        W77674  30.601  16.296   3.759
 7860W        W77675  25.153  12.832   4.785
 7861W        W77676  10.152  37.442   1.917
 7862W        W77677  20.095  21.660  12.977
 7863W        W77678   4.403  11.288   1.236
 7864W        W77679  11.347  43.797   0.947
 7865W        W77680  14.208  30.056  12.525
 7866W        W77681  42.782   8.356  10.420
 7867W        W77682  11.319  26.633   4.321
 7868W        W77683   5.794   5.716  12.408
 7869W        W77684  39.461  34.982  14.401
 7870W        W77685  20.168   0.935   0.838
 7871W        W77686  41.857  37.898   2.391
 7872W        W77687  41.801  17.611   2.700
 7873W        W77688  11.650  40.317  13.860
 7874W        W77689  30.617  43.942  14.799
 7875W        W77690  40.970  39.844   4.153
 7876W        W77691  39.386  40.342   1.214
 7877W        W77692   7.381  33.451  12.481
 7878W        W77693   7.278  30.607   1.907
 7879W        W77694  13.656  39.808   0.356
 7880W        W77695  36.999   1.853  13.061
 7881W        W77696   7.751  28.934  10.530
 7882W        W77697  33.557  16.107  10.984
 7883W        W77698  16.753  31.078  12.412
 7884W        W77699  36.027   8.886  13.418
 7885W        W77700  29.163  31.581  10.925
 7886W        W77701  27.495  12.801  10.966
 7887W        W77702  39.998  37.065  12.388
 7888W        W77703  17.207   1.355   4.303
 7889W        W77704  30.653  16.150  12.852
 7890W        W77705  34.470  11.277   3.750
 7891W        W77706   5.241  23.183  12.558
 7892W        W77707  29.011  34.540  12.874
 7893W        W77708  22.178  16.095   1.716
 7894W        W77709   6.213  36.350  13.420
 7895W        W77710  24.500  13.788  12.028
 7896W        W77711  30.645  43.934  13.817
 7897W        W77712  34.931  38.345   1.746
 7898W        W77713  17.698  29.016   3.213
 7899W        W77714  30.158  16.120   3.158
 7900W        W77715  19.577  12.709  11.600
 7901W        W77716   0.842  27.943  12.985
 7902W        W77717  22.198  16.684   4.264
 7903W        W77718   6.379  38.332   4.297
 7904W        W77719  27.967  25.526  10.503
 7905W        W77720  16.639  21.116  10.979
 7906W        W77721  36.537  35.052  11.415
 7907W        W77722  14.118  23.599  12.039
 7908W        W77723  25.535  21.665  12.087
 7909W        W77724   6.761  21.139   3.236
 7910W        W77725  27.673  13.610  12.558
 7911W        W77726   3.433  41.403   4.653
 7912W        W77727   7.291  42.457  10.973
 7913W        W77728  43.454  30.523   4.217
 7914W        W77729  20.219  23.534  13.458
 7915W        W77730  22.709  19.764  11.091
 7916W        W77731  28.621  36.896  10.633
 7917W        W77732  16.711  11.833  13.478
 7918W        W77733  32.105  40.871  13.062
 7919W        W77734  18.236  38.064   4.812
 7920W        W77735  28.099   7.283   3.338
 7921W        W77736   6.337  43.884   2.830
 7922W        W77737   2.350  19.161   4.714
 7923W        W77738  32.563   6.303   1.785
 7924W        W77739  20.064   8.371   2.180
 7925W        W77740  10.703  21.599   1.315
 7926W        W77741  34.894  27.144  12.010
 7927W        W77742   7.709  42.398  12.875
 7928W        W77743   2.468  38.467   3.834
 7929W        W77744   6.245  29.103  14.799
 7930W        W77745  43.338   2.321  11.863
 7931W        W77746  15.797  15.148  11.574
 7932W        W77747  38.901  41.842  13.409
 7933W        W77748  16.699  31.636   3.289
 7934W        W77749  26.600  42.866   4.239
 7935W        W77750  38.044  20.157   2.371
 7936W        W77751  31.010  28.653   3.738
 7937W        W77752  24.560  31.425  12.855
 7938W        W77753  29.097  12.127  10.468
 7939W        W77754  13.334  16.195   3.251
 7940W        W77755  25.519  23.164   2.340
 7941W        W77756  15.813  31.008  13.402
 7942W        W77757   5.701  25.996  10.576
 7943W        W77758  12.714  22.634  11.977
 7944W        W77759   7.219  21.243   0.388
 7945W        W77760  21.199  24.503  14.881
 7946W        W77761  34.004  14.313  13.804
 7947W        W77762  26.506  40.844   0.740
 7948W        W77763   3.902   8.794   2.339
 7949W        W77764   0.328   3.300  11.902
 7950W        W77765  27.451  10.661  11.585
 7951W        W77766   0.284   9.340  14.920
 7952W        W77767  25.204   5.838   2.689
 7953W        W77768  13.609  15.698  14.839
 7954W        W77769   0.847  40.002  12.824
 7955W        W77770  32.015   8.321  11.902
 7956W        W77771  25.073  30.916   3.227
 7957W        W77772  30.629  40.519   3.174
 7958W        W77773  24.639  37.444   0.399
 7959W        W77774  14.782  10.272  14.880
 7960W        W77775  39.050   5.775  13.009
 7961W        W77776  19.582   7.819   3.841
 7962W        W77777  37.357  23.566  11.561
 7963W        W77778  14.335   0.788   0.357
 7964W        W77779  11.663  10.809   1.361
 7965W        W77780   2.338  31.085   4.272
 7966W        W77781  34.936  23.655   2.811
 7967W        W77782  36.348  16.241   1.843
 7968W        W77783  27.163  42.508   3.700
 7969W        W77784  19.098  21.533   4.796
 7970W        W77785  37.839  14.250   2.264
 7971W        W77786  20.098  18.213   0.302
 7972W        W77787  24.496  10.202   4.786
 7973W        W77788  43.325   4.373   1.294
 7974W        W77789  41.838  18.652  13.444
 7975W        W77790  31.917  29.485  11.498
 7976W        W77791  21.078  30.567   3.187
 7977W        W77792  18.148   8.339  10.580
 7978W        W77793  29.508  23.990  12.935
 7979W        W77794  25.111   7.385  10.983
 7980W        W77795  35.912  42.938  11.530
 7981W        W77796  44.861   6.339  14.309
 7982W        W77797  31.015  29.643  11.888
 7983W        W77798  18.172   1.886   3.821
 7984W        W77799   3.312  36.572   3.869
 7985W        W77800  22.123  24.163   0.841
 7986W        W77801   0.432  15.145   0.788
 7987W        W77802  14.180  39.975   4.175
 7988W        W77803  37.491   8.285  12.490
 7989W        W77804   0.924  12.268  13.329
 7990W        W77805   2.751  33.478   3.704
 7991W        W77806  32.630  42.512  14.325
 7992W        W77807  32.017  17.267   2.356
 7993W        W77808   8.192  38.931   9.569
 7994W        W77809  23.238  21.261  11.595
 7995W        W77810  13.816  29.520  14.288
 7996W        W77811  13.165   4.766   3.811
 7997W        W77812  37.983  38.382  12.370
 7998W        W77813  36.957  35.408  13.867
 7999W        W77814  11.224   5.396   1.917
 8000W        W77815  24.503  19.047   2.809
 8001W        W77816  22.056  15.132  11.550
 8002W        W77817  34.540  16.272   1.718
 8003W        W77818  41.788  37.384  12.426
 8004W        W77819  33.472  30.573  12.456
 8005W        W77820   9.853  37.041  12.347
 8006W        W77821   3.250  27.525   1.375
 8007W        W77822   0.780  42.931  13.906
 8008W        W77823  35.450  24.194  12.096
 8009W        W77824  44.948  23.692  12.910
 8010W        W77825  44.970  26.577   0.745
 8011W        W77826  30.482  17.113  13.856
 8012W        W77827   7.294  27.571   4.690
 8013W        W77828  16.199   2.787  10.507
 8014W        W77829  17.066   1.285  14.458
 8015W        W77830  15.261  28.001   3.173
 8016W        W77831  15.659  39.042   3.226
 8017W        W77832  31.001   9.285   1.305
 8018W        W77833  24.599   4.918  12.579
 8019W        W77834  12.751  14.205   2.180
 8020W        W77835  43.883  19.560   2.819
 8021W        W77836   8.316  36.407  14.847
 8022W        W77837  34.023   2.389   1.930
 8023W        W77838   2.840   4.874  12.904
 8024W        W77839  33.422  11.741  14.506
 8025W        W77840   2.434  12.665  12.495
 8026W        W77841  43.822  24.520  14.393
 8027W        W77842  32.076  13.775   1.342
 8028W        W77843  16.082  16.280  12.476
 8029W        W77844  15.592  26.505   4.826
 8030W        W77845  21.622  24.137  14.306
 8031W        W77846  26.554  29.665  11.384
 8032W        W77847   7.183  21.185  10.987
 8033W        W77848   7.693  14.619   3.724
 8034W        W77849   5.913  43.451   1.438
 8035W        W77850  22.122  32.488  14.363
 8036W        W77851  29.109   6.285  13.830
 8037W        W77852   6.747  35.003   2.332
 8038W        W77853  35.938  22.693  12.010
 8039W        W77854  35.586  22.104  11.450
 8040W        W77855  39.818  21.741   4.182
 8041W        W77856  20.761  41.824   2.209
 8042W        W77857  30.530   1.920   4.258
 8043W        W77858  26.675   1.805   1.898
 8044W        W77859  17.757  32.958  10.491
 8045W        W77860  35.100   9.788  11.475
 8046W        W77861  38.501   9.227   2.279
 8047W        W77862  12.173  23.045   4.130
 8048W        W77863  43.792  41.961  13.836
 8049W        W77864  16.108  21.688  11.572
 8050W        W77865  32.050  30.934  12.340
 8051W        W77866  18.657  35.014  14.319
 8052W        W77867  22.058  38.449  14.464
 8053W        W77868  23.694  12.715  14.938
 8054W        W77869  16.657  18.561  12.996
 8055W        W77870  30.436  37.444   2.767
 8056W        W77871   8.756  10.346   1.224
 8057W        W77872  25.508  25.143   1.307
 8058W        W77873  14.340  30.926   4.268
 8059W        W77874  18.612  42.481   0.853
 8060W        W77875  42.304  19.092   4.712
 8061W        W77876   4.703  17.144   1.422
 8062W        W77877  42.937  27.535   0.734
 8063W        W77878   9.171  25.589  12.495
 8064W        W77879  12.849  36.015   2.303
 8065W        W77880  25.541  38.371  13.933
 8066W        W77881  15.200   1.450  11.092
 8067W        W77882  25.040  17.655   4.343
 8068W        W77883  44.925  44.304   0.735
 8069W        W77884  17.300  24.026  13.355
 8070W        W77885  23.156   9.242   1.712
 8071W        W77886   1.962  29.120  11.463
 8072W        W77887  33.540  32.519  13.440
 8073W        W77888  20.540  20.696   3.213
 8074W        W77889  39.330  11.651   2.418
 8075W        W77890   3.237   4.394   0.738
 8076W        W77891  12.145  37.411   9.968
 8077W        W77892  29.115  30.078   0.279
 8078W        W77893   9.795   1.978   1.301
 8079W        W77894  41.835  22.200   2.757
 8080W        W77895   8.382  34.083   0.340
 8081W        W77896  44.500  11.220  12.010
 8082W        W77897  12.746  19.059   2.723
 8083W        W77898  20.204  38.491  13.930
 8084W        W77899  21.655  34.416  11.025
 8085W        W77900  21.743   5.256   3.696
 8086W        W77901  43.968   4.236   3.241
 8087W        W77902  42.297  39.918  14.850
 8088W        W77903  29.504  30.918  14.822
 8089W        W77904  21.605  29.095   1.747
 8090W        W77905  35.977  42.294  14.956
 8091W        W77906  27.645  37.883   4.175
 8092W        W77907  12.674  33.904  11.983
 8093W        W77908  29.457  41.302   4.697
 8094W        W77909   2.851  32.124   1.730
 8095W        W77910  38.476  32.003  10.635
 8096W        W77911  20.537  38.345  12.004
 8097W        W77912   1.324  37.373   1.300
 8098W        W77913  43.398  27.181   2.230
 8099W        W77914  38.860  21.111   1.301
 8100W        W77915   6.830  41.966   1.361
 8101W        W77916  38.931  21.094   2.676
 8102W        W77917   5.813  19.163   4.598
 8103W        W77918   7.388  17.270  13.428
 8104W        W77919  13.604  11.144  11.496
 8105W        W77920  34.116  11.851  12.853
 8106W        W77921  30.501  25.985   2.664
 8107W        W77922  34.388   4.866  10.624
 8108W        W77923  34.611  40.498  13.955
 8109W        W77924   0.374   4.290   0.808
 8110W        W77925  22.687  26.649  12.444
 8111W        W77926  30.941  12.331  13.052
 8112W        W77927  25.603  33.889   0.773
 8113W        W77928  22.124  18.725   0.791
 8114W        W77929  27.634   3.812   2.735
 8115W        W77930  32.964  23.664  14.000
 8116W        W77931  29.029  20.549   0.946
 8117W        W77932  29.618   3.870   3.331
 8118W        W77933   1.418   6.205  13.026
 8119W        W77934  27.058   0.820  14.937
 8120W        W77935  30.589   4.943  14.358
 8121W        W77936  13.217  33.892  12.365
 8122W        W77937  28.973  39.001   4.200
 8123W        W77938  40.875  33.379  14.356
 8124W        W77939  43.368   4.860  11.454
 8125W        W77940  24.677   2.330  10.985
 8126W        W77941  44.310  42.971  12.005
 8127W        W77942  18.569  18.276  11.509
 8128W        W77943   1.300  37.913  13.387
 8129W        W77944  33.886  35.993   3.810
 8130W        W77945   1.880  31.411  11.373
 8131W        W77946   8.704  36.058   0.272
 8132W        W77947   9.387  34.997  12.033
 8133W        W77948   3.376  34.577  12.382
 8134W        W77949   3.391   6.886   3.216
 8135W        W77950  34.536  24.613  13.414
 8136W        W77951  14.237   9.756   0.340
 8137W        W77952  43.829   5.924   4.716
 8138W        W77953  40.493   1.446   3.343
 8139W        W77954  35.942  36.885  11.006
 8140W        W77955  43.920  31.067  14.870
 8141W        W77956  12.116  14.239   2.339
 8142W        W77957  36.876  44.785  14.819
 8143W        W77958  29.625  44.389  11.421
 8144W        W77959  15.209  30.450   0.817
 8145W        W77960  30.968  42.388  11.586
 8146W        W77961  25.003  38.492  10.110
 8147W        W77962  29.537  27.168   2.741
 8148W        W77963  28.534   1.856  12.891
 8149W        W77964  42.014  36.474   3.679
 8150W        W77965  40.864  37.398   2.199
 8151W        W77966  21.206  23.587   3.636
 8152W        W77967  15.256  28.648   2.395
 8153W        W77968  33.906  22.178   3.185
 8154W        W77969  24.539  21.581  14.787
 8155W        W77970  41.941  36.364  13.906
 8156W        W77971  42.777  28.122   2.686
 8157W        W77972  34.526   8.720   4.627
 8158W        W77973  44.389   4.827  11.117
 8159W        W77974   2.845  16.297   2.257
 8160W        W77975  14.695  12.259  12.434
 8161W        W77976  14.735   7.245   2.823
 8162W        W77977  23.573  35.530   2.903
 8163W        W77978  31.969  31.460  12.511
 8164W        W77979  29.444  39.861   2.190
 8165W        W77980  30.579  13.680   0.943
 8166W        W77981  10.870  35.980  10.524
 8167W        W77982  24.555  36.076   2.729
 8168W        W77983  29.602  43.865   2.266
 8169W        W77984  24.530  21.699  11.997
 8170W        W77985  12.265  26.506   0.811
 8171W        W77986  41.955   0.465   3.319
 8172W        W77987  40.326  11.727  14.323
 8173W        W77988   8.205   3.272   1.745
 8174W        W77989  39.001  18.065  12.431
 8175W        W77990  16.207  42.446  11.928
 8176W        W77991   2.424  22.076   3.715
 8177W        W77992  33.032  20.642  12.387
 8178W        W77993   6.915  41.494   9.489
 8179W        W77994  17.650  14.286   0.862
 8180W        W77995  22.537   1.345  11.415
 8181W        W77996  11.300  20.058   1.881
 8182W        W77997  35.569  41.357   2.219
 8183W        W77998   7.892   7.273   0.854
 8184W        W77999  34.491   3.414   0.267
 8185W        W78000  39.320  40.350   2.268
 8186W        W78001  39.985  12.746   3.369
 8187W        W78002   1.966  40.898  12.478
 8188W        W78003  21.240  39.445  14.292
 8189W        W78004  12.691  39.502  10.984
 8190W        W78005  32.624  14.203  11.858
 8191W        W78006  25.688  28.007  13.539
 8192W        W78007  15.692  40.816   4.192
 8193W        W78008  22.180  19.565   2.708
 8194W        W78009  25.626   5.294   4.297
 8195W        W78010  38.419  10.829  12.428
 8196W        W78011  40.841  44.301  13.436
 8197W        W78012  40.520  25.006   3.646
 8198W        W78013  12.661  32.423  14.819
 8199W        W78014   3.445   6.754   0.250
 8200W        W78015   3.941  21.594  13.381
 8201W        W78016  11.744  21.154  11.866
 8202W        W78017   8.222  44.901  12.028
 8203W        W78018   2.898   5.232   4.203
 8204W        W78019  18.633  42.941   4.123
 8205W        W78020  23.545  12.783   1.399
 8206W        W78021  22.179   4.378  13.910
 8207W        W78022   5.766  21.018   2.756
 8208W        W78023  21.539   3.329   0.423
 8209W        W78024  14.729  21.160  11.379
 8210W        W78025   6.183  14.748   0.913
 8211W        W78026   0.884  25.489   0.727
 8212W        W78027  42.518  32.409   0.738
 8213W        W78028  35.022  22.634  11.547
 8214W        W78029   0.377   5.925  14.849
 8215W        W78030  17.568   2.398   4.727
 8216W        W78031   0.809   8.198  13.465
 8217W        W78032   1.344  41.520  13.465
 8218W        W78033  29.623  43.433  14.944
 8219W        W78034  21.124   1.254   5.252
 8220W        W78035  43.822  29.159  10.894
 8221W        W78036  26.695  42.522   2.675
 8222W        W78037  13.119   6.192  14.393
 8223W        W78038  39.921  44.388   2.411
 8224W        W78039  41.457  35.564  10.573
 8225W        W78040  39.362  44.880  10.488
 8226W        W78041  33.095   8.249   1.451
 8227W        W78042  30.096  41.816  10.542
 8228W        W78043  28.101  44.491   4.183
 8229W        W78044   6.424   4.447  12.987
 8230W        W78045   0.947  35.033  13.871
 8231W        W78046  31.559   6.240   3.681
 8232W        W78047  42.337  40.834   3.369
 8233W        W78048   3.850  14.156   0.890
 8234W        W78049  26.059  12.731   1.220
 8235W        W78050   8.392  26.019   3.234
 8236W        W78051  32.082  14.276   2.321
 8237W        W78052   6.715  38.339  10.490
 8238W        W78053  23.060   3.215   1.867
 8239W        W78054  21.262  22.593   2.899
 8240W        W78055  35.372  32.626  13.803
 8241W        W78056  12.356   5.313  13.406
 8242W        W78057   4.771  15.587  12.443
 8243W        W78058   5.742  12.306   4.118
 8244W        W78059  17.784  42.945  10.509
 8245W        W78060  18.138  28.989   3.340
 8246W        W78061   4.322  31.622   1.720
 8247W        W78062   0.408  19.711  10.960
 8248W        W78063  12.809  15.663   3.646
 8249W        W78064  41.835  32.064   5.169
 8250W        W78065  44.325  24.230   1.271
 8251W        W78066   4.770   0.776   1.427
 8252W        W78067   9.351  27.037   3.830
 8253W        W78068  35.924  37.412  13.034
 8254W        W78069  26.690  44.847   2.800
 8255W        W78070  15.244  36.560   2.232
 8256W        W78071   8.692  22.604   4.163
 8257W        W78072  33.464   9.851   1.316
 8258W        W78073  37.980  39.462  13.057
 8259W        W78074  35.389   6.367   3.347
 8260W        W78075   7.889   1.740   2.402
 8261W        W78076  14.620  43.922   1.877
 8262W        W78077  37.019  37.371  13.450
 8263W        W78078   7.838  14.596   3.319
 8264W        W78079  36.977   7.731   1.398
 8265W        W78080  29.498  24.047  12.449
 8266W        W78081   3.378  10.369  11.372
 8267W        W78082  27.042  34.892  14.295
 8268W        W78083  40.968  15.131  12.865
 8269W        W78084  23.058  28.043   0.450
 8270W        W78085  17.559  25.693   0.858
 8271W        W78086   4.723  21.199  14.342
 8272W        W78087  39.949  40.543   4.711
 8273W        W78088  32.060   3.927  11.936
 8274W        W78089  37.881   3.339  14.778
 8275W        W78090  40.414  20.249   4.730
 8276W        W78091  34.443   6.844   0.789
 8277W        W78092  13.621  15.135  13.041
 8278W        W78093  25.167  44.420   1.808
 8279W        W78094  43.407  34.460  10.609
 8280W        W78095   4.935  41.856  14.284
 8281W        W78096   1.452  27.094   0.376
 8282W        W78097   8.895  13.144  10.522
 8283W        W78098   4.733  14.784  14.813
 8284W        W78099   0.779   0.935   0.428
 8285W        W78100  20.732  35.372  10.575
 8286W        W78101   1.265   1.351  14.353
 8287W        W78102   1.942  26.999  14.973
 8288W        W78103  38.019   0.335  12.065
 8289W        W78104   4.407  29.054   0.785
 8290W        W78105  40.522  15.328  13.941
 8291W        W78106  11.369  29.164  12.489
 8292W        W78107  21.511  37.372   4.830
 8293W        W78108   1.319  17.216  10.982
 8294W        W78109  32.894  27.196  14.980
 8295W        W78110  23.674   0.413   3.760
 8296W        W78111  13.105  14.647  11.115
 8297W        W78112  11.263  24.723  11.896
 8298W        W78113  44.378  29.987   0.327
 8299W        W78114  28.584  30.613  14.975
 8300W        W78115   5.880   1.789  12.860
 8301W        W78116  16.604  23.232  14.317
 8302W        W78117  42.882  10.864  12.543
 8303W        W78118   4.887  33.108   1.810
 8304W        W78119  28.044  35.864   1.314
 8305W        W78120  10.758   3.909  14.803
 8306W        W78121   3.285   3.374  11.912
 8307W        W78122  32.579  21.602   3.202
 8308W        W78123  30.922  40.358   2.364
 8309W        W78124  39.969  36.861  11.587
 8310W        W78125  41.507   3.712  10.619
 8311W        W78126  21.183  44.456   3.822
 8312W        W78127  21.717  17.254  10.895
 8313W        W78128   3.802  13.754  12.828
 8314W        W78129  20.588  26.188  13.390
 8315W        W78130   8.376   6.296   1.340
 8316W        W78131  21.561   8.374   1.233
 8317W        W78132  30.480  37.444  11.606
 8318W        W78133   1.925  26.189   3.800
 8319W        W78134  13.214  17.756   2.775
 8320W        W78135  32.964   2.392   1.923
 8321W        W78136  43.432  38.468   1.314
 8322W        W78137  37.546  43.991  10.983
 8323W        W78138  24.573   0.397   1.400
 8324W        W78139  25.066  10.191  11.876
 8325W        W78140  39.397   8.672  11.912
 8326W        W78141  12.745  11.825  12.366
 8327W        W78142  36.904  28.973  11.124
 8328W        W78143  25.479   5.918  11.101
 8329W        W78144   1.319  21.243  11.450
 8330W        W78145  41.800  20.668   4.134
 8331W        W78146  26.530  40.817   1.445
 8332W        W78147   7.731  17.605   1.324
 8333W        W78148  11.813  28.542   2.413
 8334W        W78149  23.199  32.886  14.783
 8335W        W78150  18.182  13.832  13.482
 8336W        W78151  17.613  28.631   1.821
 8337W        W78152   1.949   4.733  10.606
 8338W        W78153  35.393   9.282   1.717
 8339W        W78154   7.395  43.462   1.219
 8340W        W78155   1.761  29.131  11.119
 8341W        W78156   3.953  20.134  11.879
 8342W        W78157  14.685  14.276  13.363
 8343W        W78158  44.279   0.882  12.850
 8344W        W78159  10.696   3.762  12.510
 8345W        W78160   2.460  16.239   4.673
 8346W        W78161   5.401   5.921  12.059
 8347W        W78162  38.960  41.295  13.445
 8348W        W78163  38.502  37.009  14.435
 8349W        W78164   3.241  37.416   1.418
 8350W        W78165  12.278  41.873  14.847
 8351W        W78166   9.302  15.089  13.046
 8352W        W78167  21.085  21.592   0.757
 8353W        W78168  41.529  13.720  12.940
 8354W        W78169   5.895  34.933  14.348
 8355W        W78170  21.025  25.658  12.369
 8356W        W78171  32.400  41.384  10.460
 8357W        W78172  20.086  41.948  14.427
 8358W        W78173   5.731  38.333  10.576
 8359W        W78174  31.094  39.512   4.283
 8360W        W78175  18.070  41.987  11.404
 8361W        W78176  26.624   4.702  14.417
 8362W        W78177  11.359  18.690  14.917
 8363W        W78178  33.904  36.879  14.400
 8364W        W78179  11.801  36.524  11.102
 8365W        W78180  36.879  10.350  14.819
 8366W        W78181  37.006   6.241   3.728
 8367W        W78182  33.951  24.032  13.409
 8368W        W78183   3.216  30.055   4.623
 8369W        W78184   7.317  16.747   1.262
 8370W        W78185  24.665  25.145  14.879
 8371W        W78186  19.059  13.700  14.348
 8372W        W78187  11.783  29.943  12.953
 8373W        W78188  14.304  17.663   4.749
 8374W        W78189   6.695  28.634   3.649
 8375W        W78190   8.838  22.585   1.382
 8376W        W78191  38.417   9.344  11.013
 8377W        W78192  14.118  29.481   3.728
 8378W        W78193   8.881   5.702  12.461
 8379W        W78194   9.345  15.211   0.885
 8380W        W78195  21.217  19.572  10.099
 8381W        W78196   9.838  13.739  11.441
 8382W        W78197  25.172  13.788   2.692
 8383W        W78198  20.156  27.651  13.935
 8384W        W78199  21.615  40.900   4.189
 8385W        W78200   1.912  23.504  14.944
 8386W        W78201  17.245   9.753   3.841
 8387W        W78202  10.349  42.823  11.508
 8388W        W78203  32.607   7.184  14.783
 8389W        W78204   0.913  27.071  14.455
 8390W        W78205  22.188  29.667   1.918
 8391W        W78206  40.522   4.792   1.854
 8392W        W78207   3.772  25.204  10.501
 8393W        W78208  35.387  16.128  14.359
 8394W        W78209  37.454  24.713   2.887
 8395W        W78210  43.797  22.704   4.743
 8396W        W78211   8.772  32.005  10.042
 8397W        W78212  41.017   5.354  14.334
 8398W        W78213   8.349  35.972  12.512
 8399W        W78214  22.527   5.782  13.545
 8400W        W78215  19.681  15.254   4.742
 8401W        W78216  13.285  41.324  13.924
 8402W        W78217   0.367   0.446  12.991
 8403W        W78218  24.029  34.974  12.522
 8404W        W78219  10.283  20.733   1.859
 8405W        W78220  37.394  18.107  11.092
 8406W        W78221  33.934  11.312  11.919
 8407W        W78222   6.415   6.890   4.767
 8408W        W78223  42.941   3.411   2.198
 8409W        W78224  28.603  33.552  12.059
 8410W        W78225  43.871   8.363   0.926
 8411W        W78226  19.603  24.720  12.462
 8412W        W78227   0.272  42.796   1.709
 8413W        W78228   9.883  25.098  10.484
 8414W        W78229  44.003  33.968  14.418
 8415W        W78230  28.680  11.332  11.105
 8416W        W78231  36.095   9.788   2.753
 8417W        W78232   1.851  33.434  12.048
 8418W        W78233  33.018  12.756   4.822
 8419W        W78234  42.776  28.964  14.283
 8420W        W78235  13.280  34.378  10.597
 8421W        W78236  28.076  23.068   3.728
 8422W        W78237  11.346  40.399  14.377
 8423W        W78238  17.573  29.075  13.315
 8424W        W78239  37.854  43.515   2.764
 8425W        W78240  36.843  40.883  12.069
 8426W        W78241  36.075   0.384  13.901
 8427W        W78242  42.369  43.862  13.927
 8428W        W78243  35.407  43.909  14.455
 8429W        W78244  12.628  41.900   3.770
 8430W        W78245   5.869   5.776  13.486
 8431W        W78246  16.782   9.298   3.292
 8432W        W78247  25.487  20.168   3.285
 8433W        W78248  42.802  34.045   3.684
 8434W        W78249  28.458  35.580   1.404
 8435W        W78250  25.598  28.652  12.024
 8436W        W78251  28.966   3.901   1.867
 8437W        W78252   2.742   2.742  11.014
 8438W        W78253   3.928   6.682  12.994
 8439W        W78254  21.141  40.406   4.744
 8440W        W78255  12.648  15.608  12.517
 8441W        W78256  39.333   3.860   1.354
 8442W        W78257  16.204  15.795   3.700
 8443W        W78258  15.798   5.361   3.747
 8444W        W78259  32.981  14.203   4.171
 8445W        W78260  35.967  26.571   0.458
 8446W        W78261  26.638  31.063   4.740
 8447W        W78262  35.989   0.840   1.374
 8448W        W78263  39.831  34.537   0.915
 8449W        W78264   2.734  13.132  14.294
 8450W        W78265  25.050  18.546   3.306
 8451W        W78266   1.412  39.533  13.883
 8452W        W78267  28.544   9.230  12.925
 8453W        W78268  22.724  10.374   3.156
 8454W        W78269   7.886  36.054   0.915
 8455W        W78270  39.819   4.831   2.315
 8456W        W78271  24.145   8.673  10.999
 8457W        W78272  27.642  39.007   4.611
 8458W        W78273  35.896  25.000   2.238
 8459W        W78274   4.397   8.672   3.864
 8460W        W78275  20.094  29.556  12.027
 8461W        W78276  18.723  27.197  14.444
 8462W        W78277   7.329  25.555  10.920
 8463W        W78278   9.792  14.157   3.215
 8464W        W78279  39.331  12.293  14.961
 8465W        W78280  32.905  33.453  13.399
 8466W        W78281  17.563  19.132   4.830
 8467W        W78282  40.544  44.925  11.509
 8468W        W78283  11.228  10.712  13.454
 8469W        W78284  33.013  23.679  10.987
 8470W        W78285  22.692  21.120  12.962
 8471W        W78286  26.002  18.648   0.931
 8472W        W78287  37.915  34.056   3.634
 8473W        W78288  37.471  12.135  14.432
 8474W        W78289  25.568   6.726   2.336
 8475W        W78290   9.162  13.194   1.451
 8476W        W78291   9.234   3.286  10.530
 8477W        W78292  23.199   8.789   2.198
 8478W        W78293  21.047  35.027  14.938
 8479W        W78294  24.047  38.428  14.885
 8480W        W78295   3.792  34.981  12.490
 8481W        W78296  37.978  23.612  11.477
 8482W        W78297  16.075  24.207  10.127
 8483W        W78298  38.346  26.470   3.322
 8484W        W78299   0.319  39.542  14.324
 8485W        W78300  39.811  41.880   1.742
 8486W        W78301   1.785  42.361   2.347
 8487W        W78302   3.866  30.086   0.412
 8488W        W78303  32.950  10.274  13.006
 8489W        W78304  39.438  29.983  12.579
 8490W        W78305   7.780  33.382   2.315
 8491W        W78306   9.828  26.529   1.798
 8492W        W78307  34.115  19.054  10.453
 8493W        W78308  14.325   0.814  12.851
 8494W        W78309  26.574  38.464   2.711
 8495W        W78310  15.664  16.160  11.065
 8496W        W78311  27.653  29.118  14.337
 8497W        W78312  44.990  26.608   1.905
 8498W        W78313  30.423  34.570   1.316
 8499W        W78314  25.213  10.859   2.225
 8500W        W78315   0.400  43.431   1.382
 8501W        W78316  44.947   1.753  12.498
 8502W        W78317  15.121  18.566  11.523
 8503W        W78318   9.805   5.313  11.086
 8504W        W78319   4.785  21.026   4.606
 8505W        W78320  10.316  16.805   1.701
 8506W        W78321  15.784  27.572  13.047
 8507W        W78322  41.912  23.187   0.392
 8508W        W78323  15.613  28.492  12.345
 8509W        W78324  31.595  33.440   0.358
 8510W        W78325  32.983  16.173   3.681
 8511W        W78326  39.414   5.339   5.759
 8512W        W78327  19.707  36.422  13.791
 8513W        W78328   6.300  11.663   3.837
 8514W        W78329  43.927  11.765   0.796
 8515W        W78330   8.345   7.339  14.003
 8516W        W78331  16.091  41.984   0.291
 8517W        W78332  41.444  42.844  12.554
 8518W        W78333  39.555  12.665   3.326
 8519W        W78334  22.144  43.377  14.801
 8520W        W78335  36.085   4.845   4.641
 8521W        W78336  23.504  14.659   1.903
 8522W        W78337  26.160   3.712   3.197
 8523W        W78338  34.406  26.510  14.896
 8524W        W78339  41.829   2.732   0.266
 8525W        W78340  14.261  42.505   0.300
 8526W        W78341  14.821  37.450  12.499
 8527W        W78342  37.383  31.635  14.435
 8528W        W78343   9.709  40.421   3.701
 8529W        W78344   2.867   1.832   2.696
 8530W        W78345  35.390  11.227  13.063
 8531W        W78346  31.611  16.672   2.337
 8532W        W78347   0.258  21.023   3.146
 8533W        W78348   6.917   5.702   4.133
 8534W        W78349  10.853  39.990  10.643
 8535W        W78350  12.853  14.834  14.821
 8536W        W78351   8.171  21.050   0.731
 8537W        W78352   4.792  24.667  11.024
 8538W        W78353  29.531   5.317   1.269
 8539W        W78354  12.681  15.660   2.265
 8540W        W78355  39.923  15.271   0.950
 8541W        W78356  21.600  25.482   4.713
 8542W        W78357  11.257   6.399  11.864
 8543W        W78358  29.618  18.158   0.776
 8544W        W78359  36.869   4.229  12.568
 8545W        W78360  27.188  26.682  11.402
 8546W        W78361  12.827  36.536   2.384
 8547W        W78362   0.416  14.611  11.904
 8548W        W78363  17.185  24.618  10.929
 8549W        W78364  26.501  12.117   1.842
 8550W        W78365  39.923  41.519   3.674
 8551W        W78366   3.437   6.787  14.784
 8552W        W78367   0.343  44.346  14.916
 8553W        W78368  26.497   8.211  13.378
 8554W        W78369   9.770  37.883  14.280
 8555W        W78370  15.792  34.985  12.007
 8556W        W78371  30.470  25.987  11.016
 8557W        W78372  24.159  37.019   2.203
 8558W        W78373  19.535  33.917  11.048
 8559W        W78374  28.179  41.385  12.910
 8560W        W78375  24.701  35.364  12.826
 8561W        W78376  40.850  15.188   3.661
 8562W        W78377   3.294  16.813   9.963
 8563W        W78378   2.273   3.326   2.684
 8564W        W78379  40.346   0.260  10.459
 8565W        W78380  20.741  27.494   3.346
 8566W        W78381  33.429  30.952  14.364
 8567W        W78382  39.960  35.962   1.408
 8568W        W78383  26.519  40.839  11.896
 8569W        W78384  21.087  36.031   4.188
 8570W        W78385   3.342   8.179   4.785
 8571W        W78386  28.112  31.946   4.135
 8572W        W78387  35.440  29.606  14.395
 8573W        W78388   3.403  10.791  14.783
 8574W        W78389  39.930   0.375   1.435
 8575W        W78390  21.113  39.824   2.725
 8576W        W78391  25.613  32.462   1.769
 8577W        W78392  20.167   6.252   4.201
 8578W        W78393  11.838  40.898   4.682
 8579W        W78394  28.087  36.488  13.377
 8580W        W78395  34.509  39.481   3.715
 8581W        W78396  12.752  19.108   3.680
 8582W        W78397  22.167  30.121  14.465
 8583W        W78398  18.615  18.184   4.701
 8584W        W78399  25.202   2.404   1.423
 8585W        W78400  19.226  14.094  11.945
 8586W        W78401  31.962   8.803  14.485
 8587W        W78402  13.640  19.706   3.663
 8588W        W78403  10.817  38.357  13.997
 8589W        W78404  24.723  35.574  10.955
 8590W        W78405  35.427  22.148  13.922
 8591W        W78406   8.879  35.514   2.745
 8592W        W78407   4.858  32.102   3.630
 8593W        W78408  17.185   5.315   3.783
 8594W        W78409   9.765   4.799  13.831
 8595W        W78410   4.923  15.253  10.491
 8596W        W78411   1.267  16.661   3.322
 8597W        W78412  31.482  13.160  12.077
 8598W        W78413  32.978  12.816   2.411
 8599W        W78414  44.849  34.397   4.117
 8600W        W78415   5.241   6.357  10.457
 8601W        W78416  41.341   7.332  14.953
 8602W        W78417  32.495  10.643   1.360
 8603W        W78418  38.998  37.846   1.315
 8604W        W78419  27.165   2.721  13.445
 8605W        W78420   0.318   5.393   4.231
 8606W        W78421  28.577   4.761  13.874
 8607W        W78422  25.121   6.228   0.743
 8608W        W78423  38.856   2.805  14.505
 8609W        W78424  38.891  21.512   2.401
 8610W        W78425  28.476   1.421   4.833
 8611W        W78426  43.448   1.345   4.153
 8612W        W78427   5.330  35.032   2.324
 8613W        W78428  41.039  18.232   3.632
 8614W        W78429  32.137  17.565   4.309
 8615W        W78430   0.942   8.765  14.301
 8616W        W78431  31.089  31.114   1.239
 8617W        W78432  39.007  29.044  10.987
 8618W        W78433  30.944  26.161  10.924
 8619W        W78434   8.368  12.779  14.938
 8620W        W78435  16.650  14.815   4.599
 8621W        W78436  18.661  11.296   0.943
 8622W        W78437  11.373  17.235  12.828
 8623W        W78438  29.920  21.042  14.950
 8624W        W78439  23.585  44.262   0.880
 8625W        W78440  28.932  36.011   1.375
 8626W        W78441  24.720   2.806   4.769
 8627W        W78442  15.758  27.020  14.005
 8628W        W78443  18.667  22.065  10.499
 8629W        W78444  32.953  28.950   4.667
 8630W        W78445  42.380  29.654   3.643
 8631W        W78446  43.820  14.156   4.224
 8632W        W78447  25.663  10.777  13.025
 8633W        W78448  26.953  11.795  13.447
 8634W        W78449  26.197  31.407   1.367
 8635W        W78450  24.545  34.943  12.492
 8636W        W78451   8.392  29.567  13.984
 8637W        W78452  37.952   7.171   2.702
 8638W        W78453   5.209   7.709   3.700
 8639W        W78454  23.589  31.505   1.356
 8640W        W78455  30.120  33.911   2.352
 8641W        W78456  24.086  39.957   1.222
 8642W        W78457   0.839  29.173  13.793
 8643W        W78458   0.953  26.175   0.918
 8644W        W78459  19.277   4.279   1.291
 8645W        W78460   0.910   6.729   4.642
 8646W        W78461  42.374  30.589   1.418
 8647W        W78462  13.616  31.921  11.965
 8648W        W78463   6.305   7.300  12.480
 8649W        W78464  43.959  20.589   1.277
 8650W        W78465  39.553  43.895  14.912
 8651W        W78466  10.651  20.658   3.246
 8652W        W78467  35.435  25.496   3.281
 8653W        W78468  35.074  16.240  11.413
 8654W        W78469  22.205  33.611   3.634
 8655W        W78470  31.539  15.653  12.566
 8656W        W78471  44.259  31.008   2.751
 8657W        W78472  13.235  31.528   0.433
 8658W        W78473  33.471  25.565   4.139
 8659W        W78474  39.363  11.737  13.796
 8660W        W78475  20.124  14.199   3.762
 8661W        W78476   4.927   8.253   3.368
 8662W        W78477  31.016  24.092  11.996
 8663W        W78478   5.827  38.484  13.795
 8664W        W78479  36.460  26.089  10.624
 8665W        W78480  24.120  28.680  13.916
 8666W        W78481  35.915  12.735  10.937
 8667W        W78482  10.820  29.425  12.035
 8668W        W78483  24.194  43.292   1.732
 8669W        W78484  34.961  21.218  14.294
 8670W        W78485  43.316  29.094  14.442
 8671W        W78486  18.565  28.565   1.934
 8672W        W78487  42.292  28.642  11.909
 8673W        W78488  28.662  39.984  12.841
 8674W        W78489  22.537  34.907   2.398
 8675W        W78490   5.322   3.272  12.371
 8676W        W78491  13.744   2.726  12.979
 8677W        W78492   6.792  21.571   4.353
 8678W        W78493  13.634   8.340   3.240
 8679W        W78494  30.501  13.762  12.039
 8680W        W78495  13.812  30.161  10.905
 8681W        W78496  40.355   9.752  11.069
 8682W        W78497  10.168   1.893  12.446
 8683W        W78498  30.590   2.366   4.338
 8684W        W78499   0.933  40.479   4.308
 8685W        W78500  39.384  10.793   0.369
 8686W        W78501  38.354   6.339   5.315
 8687W        W78502  11.700  28.640  14.931
 8688W        W78503  33.525  21.695  14.342
 8689W        W78504   1.904  44.478  13.838
 8690W        W78505  30.988  30.150  14.942
 8691W        W78506  34.878  38.542  13.332
 8692W        W78507   2.929  20.682  14.029
 8693W        W78508   9.310  39.916   0.912
 8694W        W78509  35.936  35.998   3.166
 8695W        W78510  24.125   4.905   4.294
 8696W        W78511  11.740  43.372   3.847
 8697W        W78512  28.125  32.125   3.741
 8698W        W78513  21.622  42.458  11.987
 8699W        W78514  31.085  28.128   3.255
 8700W        W78515  36.347  13.274  13.419
 8701W        W78516  21.250  34.570  11.999
 8702W        W78517  25.040  19.055  11.971
 8703W        W78518  43.971   8.687   4.145
 8704W        W78519  29.648   4.774  10.458
 8705W        W78520  18.582  28.542  14.357
 8706W        W78521  15.805   9.373  10.130
 8707W        W78522  10.209  39.819   4.749
 8708W        W78523  34.407  26.065  13.840
 8709W        W78524   9.169  16.726   4.815
 8710W        W78525  21.525   4.725  14.977
 8711W        W78526   0.444  12.651   0.928
 8712W        W78527  43.409  26.525   2.763
 8713W        W78528   7.683  15.243   4.189
 8714W        W78529  41.952   6.309  11.897
 8715W        W78530  23.588  20.201   5.614
 8716W        W78531  35.932  13.771  11.123
 8717W        W78532  39.042  11.235   0.390
 8718W        W78533  28.161   9.189   2.208
 8719W        W78534  39.843  25.081  11.896
 8720W        W78535   3.864  25.163   1.735
 8721W        W78536  27.943   3.350   1.376
 8722W        W78537  37.578   6.243   2.832
 8723W        W78538  31.638  20.633   1.243
 8724W        W78539  38.422  11.844   2.687
 8725W        W78540   9.679  44.801   0.455
 8726W        W78541  24.709  12.659   0.301
 8727W        W78542  26.954  43.824   1.910
 8728W        W78543   8.198  33.462  11.508
 8729W        W78544   6.278  20.548   2.213
 8730W        W78545  18.562  29.981   2.278
 8731W        W78546   2.305   9.376   2.288
 8732W        W78547   8.386  17.103  13.833
 8733W        W78548   6.423  29.650   4.323
 8734W        W78549  14.664  32.143   3.694
 8735W        W78550   5.385  12.217   2.848
 8736W        W78551  33.953  14.257  11.032
 8737W        W78552  15.189  28.522   3.364
 8738W        W78553  24.479  17.128   3.239
 8739W        W78554  37.016  26.183  13.916
 8740W        W78555  15.624  29.007  13.942
 8741W        W78556  42.924  29.609   4.305
 8742W        W78557  42.464  22.633   2.220
 8743W        W78558  38.464  32.906  14.894
 8744W        W78559  43.455  13.192   2.732
 8745W        W78560  24.018   5.425  14.812
 8746W        W78561  31.926  28.042  11.056
 8747W        W78562  41.498  43.774  14.808
 8748W        W78563  27.197  20.197   3.834
 8749W        W78564   0.923  41.040  13.849
 8750W        W78565   4.343  29.497   3.704
 8751W        W78566  41.830  29.108  14.997
 8752W        W78567  17.223  31.081  12.982
 8753W        W78568  11.265  40.916  12.985
 8754W        W78569  28.492  35.080   2.841
 8755W        W78570  26.116  39.337   4.720
 8756W        W78571  15.259  17.062   1.440
 8757W        W78572   4.802  32.545  10.606
 8758W        W78573   8.703   6.207  14.852
 8759W        W78574  30.479   6.695   3.276
 8760W        W78575  15.304  32.502   2.876
 8761W        W78576  39.934   7.384  11.991
 8762W        W78577  44.816  13.617  10.962
 8763W        W78578  42.874  14.255  10.991
 8764W        W78579  38.960  22.237  13.975
 8765W        W78580   7.275   5.347  14.924
 8766W        W78581   1.351  36.375   4.631
 8767W        W78582  21.103  38.867   4.255
 8768W        W78583   2.894  10.290  13.820
 8769W        W78584   6.192   1.747   0.454
 8770W        W78585   5.905  17.130  12.075
 8771W        W78586  25.005   8.287   2.309
 8772W        W78587  44.821  15.690  11.975
 8773W        W78588  17.570  11.334  10.978
 8774W        W78589   5.783   5.233   1.850
 8775W        W78590   5.920  19.081   4.201
 8776W        W78591  14.248  42.316  11.068
 8777W        W78592  15.817  16.202  12.852
 8778W        W78593  17.273   2.766  14.380
 8779W        W78594  27.527  40.527   1.439
 8780W        W78595  34.377  11.855  14.960
 8781W        W78596  21.051  10.718  10.631
 8782W        W78597  31.994  27.030   3.260
 8783W        W78598  42.496  17.640  12.440
 8784W        W78599  29.923  18.128   3.792
 8785W        W78600   7.304   1.752   4.791
 8786W        W78601  33.983  13.176  14.798
 8787W        W78602  24.501  44.355  12.411
 8788W        W78603   1.964  39.927  12.039
 8789W        W78604  41.986  37.484   0.340
 8790W        W78605  41.391  27.493  11.875
 8791W        W78606   1.268  40.467   3.229
 8792W        W78607  36.534   7.335   4.677
 8793W        W78608  14.162  42.921   1.250
 8794W        W78609  36.958  30.972  14.953
 8795W        W78610  32.415  26.687   0.411
 8796W        W78611  28.662  33.528   1.252
 8797W        W78612  33.597  17.802   3.805
 8798W        W78613  18.569  34.377  12.052
 8799W        W78614  25.006   3.877   2.283
 8800W        W78615  27.013  28.041  11.977
 8801W        W78616  15.327   3.274  10.430
 8802W        W78617  34.115  26.514  14.982
 8803W        W78618   3.398  40.473   2.386
 8804W        W78619   0.796   8.792  12.972
 8805W        W78620  31.031  10.378   2.896
 8806W        W78621   8.289   1.280   4.748
 8807W        W78622  10.822  42.962  14.892
 8808W        W78623  25.569   7.908  14.486
 8809W        W78624   9.808  24.518   1.292
 8810W        W78625  26.002  44.388  14.436
 8811W        W78626  34.451  14.261   0.398
 8812W        W78627  41.978  43.764   0.432
 8813W        W78628  25.714  38.896   3.691
 8814W        W78629  21.599  43.914   0.918
 8815W        W78630  12.151   4.388   3.148
 8816W        W78631  16.674  40.436   4.748
 8817W        W78632   2.412  26.689  14.807
 8818W        W78633   1.288  22.037  14.315
 8819W        W78634  21.200   0.937  12.360
 8820W        W78635  26.991  44.472  11.017
 8821W        W78636  42.834  13.765  11.478
 8822W        W78637  34.940  36.416   3.320
 8823W        W78638  37.951  26.139  11.383
 8824W        W78639  23.733  34.532  14.358
 8825W        W78640   9.742  38.895  11.552
 8826W        W78641  17.644  27.105  11.095
 8827W        W78642  21.085  44.954  13.484
 8828W        W78643  38.433   0.481  10.962
 8829W        W78644   8.825  28.546   1.344
 8830W        W78645  30.924  28.937   1.876
 8831W        W78646  34.069   7.192  12.898
 8832W        W78647   3.718  41.921   0.476
 8833W        W78648  15.783   5.810  12.992
 8834W        W78649  27.600  19.143   1.696
 8835W        W78650  35.477   6.253   3.727
 8836W        W78651  36.477  30.647   0.751
 8837W        W78652  23.992   4.392   4.260
 8838W        W78653   1.833  35.893   3.722
 8839W        W78654  41.365  13.228  10.897
 8840W        W78655  29.563   3.744   1.886
 8841W        W78656  13.709  25.603   1.808
 8842W        W78657   2.239   0.867   2.208
 8843W        W78658  31.526  21.121   0.291
 8844W        W78659  39.978  25.498  12.340
 8845W        W78660  40.402  31.465   4.642
 8846W        W78661   5.308  38.960  14.464
 8847W        W78662  25.142  15.658  13.393
 8848W        W78663   7.409  30.126  13.904
 8849W        W78664  23.713  31.131   4.312
 8850W        W78665  25.693   0.947   2.784
 8851W        W78666  44.873   5.791   4.754
 8852W        W78667   0.779  20.075   0.964
 8853W        W78668   7.690  23.015  13.435
 8854W        W78669  26.021  11.315  12.000
 8855W        W78670  44.272  14.097  11.125
 8856W        W78671   2.350  32.942   2.241
 8857W        W78672  37.407   8.796   3.862
 8858W        W78673  30.937  37.064  12.892
 8859W        W78674   9.162  20.222  14.781
 8860W        W78675  10.715   4.701   1.797
 8861W        W78676  30.497  16.798  10.607
 8862W        W78677  29.056  30.538  13.427
 8863W        W78678  25.044  30.149   3.192
 8864W        W78679  23.568  27.583  12.966
 8865W        W78680  41.487  16.571   3.757
 8866W        W78681  35.879  31.973   2.350
 8867W        W78682  19.098  27.690  12.368
 8868W        W78683  17.669  18.546   2.790
 8869W        W78684   8.695  28.995   4.736
 8870W        W78685   9.254  32.577  11.535
 8871W        W78686   7.906  17.738  12.917
 8872W        W78687  25.136  17.738   2.804
 8873W        W78688   7.797  13.609   2.877
 8874W        W78689  19.233   3.771  13.451
 8875W        W78690   7.302  40.512   3.644
 8876W        W78691  42.819   9.244  14.894
 8877W        W78692  32.079   4.406   4.294
 8878W        W78693  12.120   2.409  13.875
 8879W        W78694  19.569   4.308  12.891
 8880W        W78695  23.518   3.817   0.873
 8881W        W78696   2.773  40.811   3.268
 8882W        W78697  23.109  38.916  14.937
 8883W        W78698  22.526   0.472  13.047
 8884W        W78699  10.638  27.180   2.781
 8885W        W78700  24.187  18.777  14.411
 8886W        W78701  35.491  39.818   3.361
 8887W        W78702  25.705   4.223  13.496
 8888W        W78703   7.297   3.750   2.832
 8889W        W78704  40.814  16.200  10.922
 8890W        W78705   5.371  29.982  12.432
 8891W        W78706  24.517   6.758  14.450
 8892W        W78707  34.499  22.735   2.194
 8893W        W78708  38.554  11.643  12.891
 8894W        W78709  41.885  36.027   0.466
 8895W        W78710  33.494   2.438   3.701
 8896W        W78711  10.194  24.671  14.022
 8897W        W78712  22.026   1.897   0.839
 8898W        W78713  14.153  21.610   4.729
 8899W        W78714  42.419  15.715  14.969
 8900W        W78715   2.819  13.796  13.409
 8901W        W78716   5.392   9.723   4.159
 8902W        W78717  19.742  34.578  12.551
 8903W        W78718  42.851   1.744   4.801
 8904W        W78719  19.103  22.622   0.245
 8905W        W78720  39.871  34.888   3.798
 8906W        W78721  33.537  28.104  11.521
 8907W        W78722  29.431   8.167   1.329
 8908W        W78723   1.748  16.249   4.196
 8909W        W78724   3.859  36.529   1.225
 8910W        W78725   4.905  16.146  13.496
 8911W        W78726  28.525  39.934   1.904
 8912W        W78727   8.204  42.425  12.427
 8913W        W78728  42.460  13.731   3.349
 8914W        W78729  16.246   8.733  10.888
 8915W        W78730  15.763  38.995  12.384
 8916W        W78731  42.394  29.064  14.923
 8917W        W78732  43.830  27.108   0.359
 8918W        W78733  25.531   4.306  12.454
 8919W        W78734  33.104  24.524   3.309
 8920W        W78735  29.089  25.073   3.301
 8921W        W78736  39.494  34.377  12.885
 8922W        W78737   5.418  12.656   1.743
 8923W        W78738  10.139   5.352  11.583
 8924W        W78739  42.916  10.698   3.222
 8925W        W78740  12.728  34.500   1.750
 8926W        W78741  35.381  19.138  10.582
 8927W        W78742  30.576  27.526  11.084
 8928W        W78743  10.247  18.769   2.330
 8929W        W78744   6.406  44.820   1.860
 8930W        W78745  15.818  28.117  12.389
 8931W        W78746  40.847  26.005   0.252
 8932W        W78747  42.512   5.875   2.902
 8933W        W78748   6.855  10.312  12.396
 8934W        W78749   4.850  11.200   0.293
 8935W        W78750  14.339  11.760   4.731
 8936W        W78751  43.840  41.531  13.453
 8937W        W78752  39.937  36.433   4.146
 8938W        W78753  30.561   5.322  11.916
 8939W        W78754  13.787  29.052  12.863
 8940W        W78755  38.837   6.395   3.233
 8941W        W78756   0.431  17.594  14.498
 8942W        W78757  24.052  31.606  14.405
 8943W        W78758  35.602   6.352  12.418
 8944W        W78759  16.130  20.761   4.167
 8945W        W78760  40.960   9.816   4.309
 8946W        W78761   0.287  22.597  11.515
 8947W        W78762  30.028  16.145   4.647
 8948W        W78763  37.462  23.717  12.947
 8949W        W78764  33.422  23.548  14.486
 8950W        W78765  12.813  17.166   0.422
 8951W        W78766  35.406  36.957  12.855
 8952W        W78767   9.201  12.184   0.475
 8953W        W78768   2.338  28.032   1.915
 8954W        W78769  34.051  16.113   2.780
 8955W        W78770  21.542  18.240   0.278
 8956W        W78771   7.221  43.881   0.961
 8957W        W78772   6.200   9.162   1.802
 8958W        W78773  26.665   0.286  11.079
 8959W        W78774   3.322  16.230   2.781
 8960W        W78775  13.664   1.314   4.827
 8961W        W78776  35.480  35.470  13.507
 8962W        W78777   6.232  30.496  13.440
 8963W        W78778  18.620  26.071   4.652
 8964W        W78779  17.305  19.233   3.182
 8965W        W78780  42.914  21.725   2.779
 8966W        W78781  34.516  30.086   0.351
 8967W        W78782  31.520   1.903  12.455
 8968W        W78783  26.656   4.399  12.461
 8969W        W78784  23.076   0.444   2.719
 8970W        W78785  20.106   4.320   4.758
 8971W        W78786  11.214  20.592   2.900
 8972W        W78787  13.296  22.554  13.408
 8973W        W78788  22.022   9.645  10.606
 8974W        W78789   4.778  18.748  10.634
 8975W        W78790  41.400  23.653   1.432
 8976W        W78791  19.596  18.634  14.370
 8977W        W78792  36.007  43.337   2.675
 8978W        W78793  42.972  37.039  14.896
 8979W        W78794  28.069  18.616  11.914
 8980W        W78795   4.927  23.116   2.267
 8981W        W78796  35.405   4.277   3.244
 8982W        W78797  15.260   6.684   3.165
 8983W        W78798  26.464  43.420   3.157
 8984W        W78799  42.480  35.936  10.507
 8985W        W78800  12.811  37.990   3.734
 8986W        W78801  24.204  27.035  11.117
 8987W        W78802  22.067  23.045  10.437
 8988W        W78803  41.935  10.815  10.905
 8989W        W78804  36.991  24.045  12.863
 8990W        W78805  38.906  17.783  10.632
 8991W        W78806  30.057  24.534   4.167
 8992W        W78807   6.417  36.448   1.330
 8993W        W78808   0.321   2.250   2.247
 8994W        W78809  31.999  19.098   1.828
 8995W        W78810   4.318  22.718   4.725
 8996W        W78811  25.018   5.432  13.883
 8997W        W78812  20.538  20.666  14.483
 8998W        W78813   2.441  15.689   5.297
 8999W        W78814   6.349  38.063   1.346
 9000W        W78815   3.340   4.411  11.921
 9001W        W78816  37.452  34.405  14.980
 9002W        W78817  13.187  24.000   2.389
 9003W        W78818  36.571   6.837  13.441
 9004W        W78819  30.967  17.185   1.337
 9005W        W78820   1.299   5.911   4.614
 9006W        W78821   7.326  11.137  11.494
 9007W        W78822  39.526  18.774   3.385
 9008W        W78823  40.525  42.915   3.318
 9009W        W78824  30.994  35.581  13.378
 9010W        W78825  36.462  44.912  14.379
 9011W        W78826  33.934  22.573  14.295
 9012W        W78827  15.251   0.480  11.433
 9013W        W78828  12.120  38.888   0.855
 9014W        W78829  37.555  25.633  13.544
 9015W        W78830  18.180   9.251   3.162
 9016W        W78831  10.682  38.395  12.436
 9017W        W78832  26.980  28.936  11.953
 9018W        W78833  32.490  43.433   0.812
 9019W        W78834  29.543  12.829  10.482
 9020W        W78835  42.281  34.540  14.297
 9021W        W78836  31.013  11.264   2.866
 9022W        W78837  18.690  43.804   2.765
 9023W        W78838   5.256   0.788  14.452
 9024W        W78839  36.081  38.333   2.765
 9025W        W78840   2.831   7.361  12.894
 9026W        W78841  41.306   5.312  11.886
 9027W        W78842  23.236  27.547  13.380
 9028W        W78843   4.700  44.335   4.800
 9029W        W78844  25.622   3.816   0.387
 9030W        W78845  39.883   7.417  11.416
 9031W        W78846  30.545  34.408  14.814
 9032W        W78847  24.615  42.823  11.005
 9033W        W78848   8.317  32.422  11.091
 9034W        W78849  21.680  32.584  14.012
 9035W        W78850   1.248  20.655   3.871
 9036W        W78851  13.636  23.155  10.913
 9037W        W78852  37.081  22.148  13.349
 9038W        W78853  31.033   2.875  14.985
 9039W        W78854  16.125  15.220   2.694
 9040W        W78855   4.725  33.982  14.759
 9041W        W78856  12.645  42.493  13.443
 9042W        W78857  40.460   5.808   3.778
 9043W        W78858  38.944  30.474  11.113
 9044W        W78859   0.249  44.407  10.409
 9045W        W78860   9.868  24.514   3.259
 9046W        W78861  36.592  10.736  14.007
 9047W        W78862  32.576  42.361   3.363
 9048W        W78863  23.197  17.799  12.850
 9049W        W78864  20.130  38.984   1.734
 9050W        W78865  30.564  44.828  12.908
 9051W        W78866  30.098  14.203   2.236
 9052W        W78867  15.101  35.491   3.854
 9053W        W78868  43.431  21.091   4.814
 9054W        W78869  40.910   7.173  12.556
 9055W        W78870   5.706  16.113  12.425
 9056W        W78871  14.686  35.419  13.987
 9057W        W78872  14.701  10.175   0.727
 9058W        W78873  19.621  22.201  12.525
 9059W        W78874  21.534  17.167  14.887
 9060W        W78875  29.521  22.137   1.425
 9061W        W78876  24.555   5.193  13.849
 9062W        W78877  18.094  40.310  10.570
 9063W        W78878   5.771  39.843   0.892
 9064W        W78879  25.028  21.534  11.589
 9065W        W78880   3.333  32.026   2.390
 9066W        W78881  37.409  44.290  13.530
 9067W        W78882  37.936  32.598   2.237
 9068W        W78883  25.983  25.969   1.424
 9069W        W78884   1.360   6.686  10.934
 9070W        W78885  29.051  23.698   4.738
 9071W        W78886  43.782  34.576  13.539
 9072W        W78887  40.475   4.780  12.837
 9073W        W78888  44.868  12.229   3.190
 9074W        W78889  37.440  28.158   4.349
 9075W        W78890  37.085  22.617  11.592
 9076W        W78891  12.276  19.635  11.374
 9077W        W78892  14.697  30.604  11.380
 9078W        W78893  11.717  31.415   2.875
 9079W        W78894   9.221  10.372   3.684
 9080W        W78895   9.347  31.610   2.393
 9081W        W78896  39.519  18.103  11.938
 9082W        W78897  33.603  42.824   3.823
 9083W        W78898  18.120  43.887  14.873
 9084W        W78899  16.637   4.706   2.252
 9085W        W78900  43.965   3.904  10.957
 9086W        W78901  36.530  40.352  13.519
 9087W        W78902   4.327   7.253  14.986
 9088W        W78903  10.863  36.909   1.218
 9089W        W78904  15.770  12.122   3.169
 9090W        W78905  24.555   3.309   3.267
 9091W        W78906  14.169  29.607  13.445
 9092W        W78907  17.120   0.827  11.120
 9093W        W78908  39.398  26.161   0.323
 9094W        W78909  23.587  35.949   0.928
 9095W        W78910  20.582  35.064  13.510
 9096W        W78911  27.579   3.350   3.298
 9097W        W78912  35.964  35.053  14.876
 9098W        W78913   0.442   5.335  10.606
 9099W        W78914  18.085  23.008  12.395
 9100W        W78915  37.835  12.737  10.440
 9101W        W78916   3.748  26.657   2.309
 9102W        W78917  15.609  40.458  12.927
 9103W        W78918   5.241  29.437  13.976
 9104W        W78919   3.260  17.665   2.408
 9105W        W78920   6.382  35.361  10.447
 9106W        W78921   1.763  34.011   0.453
 9107W        W78922  35.572  19.637  13.892
 9108W        W78923  12.253  19.719  10.939
 9109W        W78924  43.993  42.370  14.772
 9110W        W78925  37.570  29.098  13.033
 9111W        W78926   9.751   5.833  14.993
 9112W        W78927  32.539  39.343   4.764
 9113W        W78928  16.224  31.448   4.198
 9114W        W78929  28.995  17.294  11.441
 9115W        W78930  28.164  16.616   2.901
 9116W        W78931  20.143   1.345   4.758
 9117W        W78932  24.557  30.996   1.358
 9118W        W78933   1.936  44.935   4.799
 9119W        W78934   9.705  33.581   0.430
 9120W        W78935  20.712  34.978  10.907
 9121W        W78936  40.327  37.362   3.157
 9122W        W78937   4.700  20.073  12.490
 9123W        W78938  40.905  13.712  12.405
 9124W        W78939  31.047  18.605   0.922
 9125W        W78940   7.868   9.687  12.993
 9126W        W78941  42.406   6.306  12.535
 9127W        W78942  37.489  30.428   3.255
 9128W        W78943  20.239  43.960  12.964
 9129W        W78944  38.361  43.890  13.511
 9130W        W78945  41.008   7.356  14.776
 9131W        W78946  28.601  39.334   4.793
 9132W        W78947  14.759   4.720  12.395
 9133W        W78948  31.099   5.299   2.217
 9134W        W78949  14.699  37.081   0.852
 9135W        W78950   8.833   1.239  13.490
 9136W        W78951  11.303  28.131  12.023
 9137W        W78952   0.273  39.031  14.440
 9138W        W78953  35.457  17.748  11.610
 9139W        W78954  26.672  33.916   0.428
 9140W        W78955  24.119  33.929  11.933
 9141W        W78956  13.628   8.336   4.113
 9142W        W78957  38.856  40.312   1.885
 9143W        W78958  43.965  16.598  12.857
 9144W        W78959  16.178  14.753  10.484
 9145W        W78960  32.564  38.519  12.873
 9146W        W78961   2.869  16.283  10.609
 9147W        W78962  24.515  27.958  12.945
 9148W        W78963   2.929  31.607   4.204
 9149W        W78964   1.777  23.683   2.314
 9150W        W78965  35.523  26.024  11.419
 9151W        W78966  19.559   7.358  10.024
 9152W        W78967  25.688  22.221   0.413
 9153W        W78968  27.042  15.100   2.830
 9154W        W78969  25.165  41.467   3.360
 9155W        W78970  20.522  38.984  10.933
 9156W        W78971  40.525  24.702   4.693
 9157W        W78972  13.793  32.939   3.696
 9158W        W78973  37.474  16.605  14.337
 9159W        W78974  38.404   0.791   5.771
 9160W        W78975  14.817  31.495   4.714
 9161W        W78976  41.024  19.158   4.677
 9162W        W78977  24.100  23.150  13.338
 9163W        W78978  35.085  26.617  11.987
 9164W        W78979  21.532   1.766  13.546
 9165W        W78980  40.912  31.119   2.781
 9166W        W78981  16.723  42.330   1.218
 9167W        W78982  21.130   9.288  13.378
 9168W        W78983   6.313  22.735  13.002
 9169W        W78984  30.147  40.849   4.177
 9170W        W78985  13.177   7.782   3.655
 9171W        W78986  10.302   5.365   1.314
 9172W        W78987   9.854   4.746   1.281
 9173W        W78988  31.014  39.864  12.487
 9174W        W78989  26.692  43.418   1.398
 9175W        W78990   7.896  23.023  14.782
 9176W        W78991   5.795  24.213  12.360
 9177W        W78992  23.573  26.520  11.510
 9178W        W78993  38.403  11.183  12.023
 9179W        W78994  16.271  39.999  12.529
 9180W        W78995  41.360  12.199  11.520
 9181W        W78996  41.380  34.599   2.335
 9182W        W78997  22.144  13.331  12.450
 9183W        W78998  19.707  16.637  13.358
 9184W        W78999  38.903  40.037   4.190
 9185W        W79000   7.729  34.389  13.961
 9186W        W79001  16.274   3.424  12.047
 9187W        W79002   2.941  19.129   1.826
 9188W        W79003  11.189  27.062   2.738
 9189W        W79004   1.246  40.866   4.670
 9190W        W79005  13.691  40.410   1.365
 9191W        W79006  34.571  11.711   3.673
 9192W        W79007  35.870  20.561   4.139
 9193W        W79008  22.155  42.887   5.280
 9194W        W79009  27.153  39.458   3.247
 9195W        W79010  11.166  31.977  13.423
 9196W        W79011  16.810  37.015   0.955
 9197W        W79012  18.598  34.451  12.911
 9198W        W79013  32.599  17.711   0.424
 9199W        W79014   0.790   0.843   4.838
 9200W        W79015  31.934   2.285  12.895
 9201W        W79016   9.874   2.862   0.344
 9202W        W79017  40.382  16.692   1.787
 9203W        W79018   9.190   1.428  10.518
 9204W        W79019  39.426  27.453  13.323
 9205W        W79020  19.075  36.023   0.343
 9206W        W79021  19.754  38.916  12.857
 9207W        W79022   7.702  39.867  10.428
 9208W        W79023  25.037  42.911  12.375
 9209W        W79024  31.980  26.980   1.323
 9210W        W79025  37.023  18.172   2.257
 9211W        W79026  40.971  22.168  13.974
 9212W        W79027  26.013   6.274  10.615
 9213W        W79028  38.056  13.731  13.930
 9214W        W79029  41.950  13.266   1.327
 9215W        W79030  30.649  10.699  10.586
 9216W        W79031  23.635  22.090   0.454
 9217W        W79032   3.231  19.164   1.907
 9218W        W79033  34.109   5.890  12.029
 9219W        W79034  23.129  25.156  10.989
 9220W        W79035  34.024  28.134   2.802
 9221W        W79036  39.896  27.638  11.478
 9222W        W79037   3.337   9.283   2.239
 9223W        W79038   6.253  11.683  10.413
 9224W        W79039   3.793  15.203  14.803
 9225W        W79040   5.864  31.609  11.522
 9226W        W79041  21.688   6.201  14.477
 9227W        W79042   2.956  41.799   0.783
 9228W        W79043  34.955   6.711   3.254
 9229W        W79044  28.604  38.859   2.819
 9230W        W79045  19.770   4.353   0.474
 9231W        W79046   7.694   6.768  12.090
 9232W        W79047  25.135  23.531   1.816
 9233W        W79048  14.319  15.693   0.396
 9234W        W79049   2.265  30.025   1.284
 9235W        W79050  38.492  17.125  11.874
 9236W        W79051   4.449  21.590   0.438
 9237W        W79052  18.732  35.918  13.360
 9238W        W79053  28.005   3.725  11.610
 9239W        W79054  13.784  43.770   4.295
 9240W        W79055   4.222  30.908   3.304
 9241W        W79056   3.282  23.032   2.728
 9242W        W79057   3.345  26.991   3.289
 9243W        W79058  14.165  35.048  10.900
 9244W        W79059  23.586  42.337   0.287
 9245W        W79060  36.880  30.038   0.737
 9246W        W79061   0.839   3.382   4.765
 9247W        W79062   0.882  17.206  11.454
 9248W        W79063  39.996   2.386   2.329
 9249W        W79064   7.683  25.666   0.913
 9250W        W79065  15.619  39.342  10.904
 9251W        W79066  41.342  21.578  11.418
 9252W        W79067  17.245  30.607  13.403
 9253W        W79068   7.752  10.734  13.406
 9254W        W79069   8.400   6.196   1.825
 9255W        W79070  12.665  24.151  10.442
 9256W        W79071  44.266  42.028   2.795
 9257W        W79072  26.680  11.757   3.729
 9258W        W79073   9.689   4.280  14.377
 9259W        W79074  38.882   8.273   0.284
 9260W        W79075   2.247  38.527   2.396
 9261W        W79076  13.260  26.632   0.302
 9262W        W79077  15.774  15.209  10.080
 9263W        W79078  17.190  20.164  14.445
 9264W        W79079   1.959  10.866   2.823
 9265W        W79080   3.334  40.005  10.139
 9266W        W79081  42.857  18.583   0.422
 9267W        W79082  28.976   9.651  11.064
 9268W        W79083  39.390  33.603   3.810
 9269W        W79084  22.103  30.459   1.694
 9270W        W79085  26.480   0.435  12.979
 9271W        W79086  23.162   5.690   3.151
 9272W        W79087  15.639  15.761   5.286
 9273W        W79088  16.589  40.418  10.969
 9274W        W79089   5.716  23.554  14.399
 9275W        W79090  16.684  36.008   0.776
 9276W        W79091  10.764  11.165   0.830
 9277W        W79092  34.440  16.268  14.428
 9278W        W79093  42.285  13.741   3.863
 9279W        W79094   0.476  22.747  13.944
 9280W        W79095  43.387  10.667  14.472
 9281W        W79096   9.813  26.686   3.839
 9282W        W79097   9.699  30.035   4.748
 9283W        W79098  12.671  12.321   1.331
 9284W        W79099  25.554  14.259   0.337
 9285W        W79100   3.447   5.380  12.523
 9286W        W79101  25.570   9.845   0.749
 9287W        W79102  15.201  10.765  10.928
 9288W        W79103   0.417  30.045   3.281
 9289W        W79104  15.700  19.744   1.395
 9290W        W79105  38.429  19.245   4.169
 9291W        W79106  35.578  18.211   1.879
 9292W        W79107   6.308  12.279  10.473
 9293W        W79108   2.923  34.081  12.400
 9294W        W79109  28.048  10.850  13.447
 9295W        W79110  35.474  38.873   0.387
 9296W        W79111  33.568  16.597  12.885
 9297W        W79112  12.644   2.845  14.931
 9298W        W79113  29.569  42.477  10.465
 9299W        W79114  19.065   3.332   0.432
 9300W        W79115  32.100  25.220   4.317
 9301W        W79116   2.337  44.477   2.761
 9302W        W79117  31.073   2.306  11.390
 9303W        W79118  22.605   1.275  11.930
 9304W        W79119  24.184  40.932   2.877
 9305W        W79120  33.124   2.413   1.369
 9306W        W79121  33.625  44.505  10.435
 9307W        W79122  25.532  15.778  12.958
 9308W        W79123  18.118  29.501   2.775
 9309W        W79124  23.125   2.962  10.909
 9310W        W79125  29.499  29.495  12.480
 9311W        W79126  44.841  13.203  14.781
 9312W        W79127  39.483  27.607  12.016
 9313W        W79128  29.029  18.736   3.736
 9314W        W79129  27.955  23.070   1.811
 9315W        W79130  40.830  38.999   1.339
 9316W        W79131   7.772  23.037  13.946
 9317W        W79132  41.885  30.053   3.631
 9318W        W79133  11.820  22.595  13.322
 9319W        W79134   4.939   6.247   1.811
 9320W        W79135  25.700  21.657   0.773
 9321W        W79136  38.897  19.135  13.809
 9322W        W79137   1.374   6.297   4.624
 9323W        W79138   4.417  42.838  13.830
 9324W        W79139   5.378  35.389  13.852
 9325W        W79140  35.439  23.507   2.882
 9326W        W79141  10.707  15.275   3.212
 9327W        W79142  12.127  38.362   3.356
 9328W        W79143  24.182  43.453   4.746
 9329W        W79144  43.943   8.165  11.443
 9330W        W79145  15.123  26.665   2.775
 9331W        W79146  32.489  43.279  10.435
 9332W        W79147  22.717  41.863   1.322
 9333W        W79148  29.147  22.543   3.324
 9334W        W79149  33.455   9.309  13.921
 9335W        W79150  39.352  38.033   3.644
 9336W        W79151  17.255  22.720  12.829
 9337W        W79152   0.905  42.835   2.391
 9338W        W79153  31.107  44.819  14.276
 9339W        W79154  39.845  26.195   2.324
 9340W        W79155  43.925  31.638  10.556
 9341W        W79156  39.811  12.169   2.241
 9342W        W79157  36.043  27.004   3.356
 9343W        W79158   4.321  13.787  13.003
 9344W        W79159  24.159  17.205   4.776
 9345W        W79160  18.724   7.821  14.981
 9346W        W79161   0.896  17.094  13.397
 9347W        W79162  18.217  23.018  14.431
 9348W        W79163  28.050  12.830   1.386
 9349W        W79164  42.886  30.449   2.771
 9350W        W79165  40.984  39.448   1.798
 9351W        W79166   8.802  26.523  12.559
 9352W        W79167  33.593   3.393   4.749
 9353W        W79168  34.544   5.760  12.465
 9354W        W79169  23.704   9.300   3.183
 9355W        W79170  42.384  10.170   1.450
 9356W        W79171  20.126   6.328   5.232
 9357W        W79172  14.763  41.873  12.977
 9358W        W79173  38.570   6.711  10.621
 9359W        W79174   9.190  14.336   0.858
 9360W        W79175  12.812   4.373  10.523
 9361W        W79176  29.112  44.353  10.596
 9362W        W79177  18.266  11.852  10.954
 9363W        W79178  37.400  41.371  10.155
 9364W        W79179  32.564  13.331   2.389
 9365W        W79180  21.557   1.396  14.417
 9366W        W79181  36.362  27.985  13.505
 9367W        W79182  12.354   0.875   1.885
 9368W        W79183  37.865  42.848   5.085
 9369W        W79184   2.832  35.395  13.516
 9370W        W79185  18.184  19.633   0.850
 9371W        W79186  17.230   6.261  14.390
 9372W        W79187  25.561   7.739   4.238
 9373W        W79188  26.003  32.407  12.449
 9374W        W79189  10.856  11.828   3.346
 9375W        W79190  14.217  34.096   0.801
 9376W        W79191  21.573  14.630   4.353
 9377W        W79192  44.985  18.748   1.233
 9378W        W79193  39.436  21.033  11.904
 9379W        W79194  31.052   4.699  11.374
 9380W        W79195  42.950  42.453   0.360
 9381W        W79196  20.077  41.795   2.362
 9382W        W79197   2.809   1.758   2.239
 9383W        W79198   7.910  37.980   1.853
 9384W        W79199   9.225  16.805  12.551
 9385W        W79200  14.211  16.241  14.286
 9386W        W79201  27.946  16.264  12.363
 9387W        W79202  17.090   1.367  11.598
 9388W        W79203  39.376  16.657   1.376
 9389W        W79204  15.595  13.165  13.849
 9390W        W79205  10.326  16.680   0.402
 9391W        W79206  32.545  14.807   4.225
 9392W        W79207  15.288  41.848  13.045
 9393W        W79208   7.703   6.807   0.342
 9394W        W79209   1.860  38.914   1.288
 9395W        W79210  30.134  33.917  14.387
 9396W        W79211  28.478  43.908   1.341
 9397W        W79212   2.810   4.333   4.780
 9398W        W79213  15.730   3.739   3.645
 9399W        W79214  12.679   0.485  14.941
 9400W        W79215  12.732  12.698  10.434
 9401W        W79216  25.655  21.641   3.344
 9402W        W79217  15.705  16.759   0.964
 9403W        W79218  30.100  32.112   2.322
 9404W        W79219  41.904  38.919   0.861
 9405W        W79220  15.259   5.307   2.796
 9406W        W79221  10.847  26.113   1.212
 9407W        W79222   0.778  31.907   2.893
 9408W        W79223  29.967  13.754  13.482
 9409W        W79224   3.738   0.287  11.998
 9410W        W79225  23.568  26.196   2.749
 9411W        W79226  16.640  12.772  11.445
 9412W        W79227  32.599  19.688   3.818
 9413W        W79228  15.689  20.057   2.718
 9414W        W79229  30.647  20.186   3.256
 9415W        W79230  15.134  27.648   3.673
 9416W        W79231  40.878   0.921   0.766
 9417W        W79232  25.004  28.618  12.350
 9418W        W79233  29.108  21.223   0.734
 9419W        W79234  23.178  14.120   2.189
 9420W        W79235  41.804  36.853  11.892
 9421W        W79236  30.042  14.821  13.941
 9422W        W79237  26.630  35.505   1.241
 9423W        W79238  23.566  32.500  13.424
 9424W        W79239   5.851  34.922  11.453
 9425W        W79240  20.536  13.744   1.218
 9426W        W79241   3.273   0.873   5.304
 9427W        W79242   1.807  42.395  12.551
 9428W        W79243  17.138   2.948   1.427
 9429W        W79244  42.482  11.663   3.634
 9430W        W79245   3.731  21.139  11.538
 9431W        W79246  42.374  29.923   3.372
 9432W        W79247  19.039  23.569   4.696
 9433W        W79248  26.460  41.028  12.403
 9434W        W79249  12.624  42.991   4.670
 9435W        W79250   8.250  19.742   4.117
 9436W        W79251  19.679  15.682   1.877
 9437W        W79252  10.640  26.486   3.347
 9438W        W79253  20.534  38.444  10.940
 9439W        W79254  39.353  39.958   4.651
 9440W        W79255  25.664  32.616  13.924
 9441W        W79256  37.959   7.669   4.116
 9442W        W79257   0.257  26.596   1.269
 9443W        W79258  30.142  12.172  12.871
 9444W        W79259  14.095  24.165  14.795
 9445W        W79260  25.674  23.506   0.354
 9446W        W79261   0.792  23.618   2.755
 9447W        W79262   4.707  15.281   0.247
 9448W        W79263  29.978  37.486  12.026
 9449W        W79264  26.487  35.945   1.232
 9450W        W79265  21.242  40.938  14.022
 9451W        W79266  38.477  20.558  13.462
 9452W        W79267  38.928  28.012  13.956
 9453W        W79268  41.930   0.912  12.453
 9454W        W79269  33.106   6.264  12.083
 9455W        W79270  43.326  18.277  13.482
 9456W        W79271  39.548  34.501  13.501
 9457W        W79272  41.839   4.369  11.513
 9458W        W79273  24.556  24.057  13.890
 9459W        W79274  12.138  35.872   0.753
 9460W        W79275  21.048   8.888  12.073
 9461W        W79276  11.201  34.432   0.392
 9462W        W79277  40.009  31.513   2.817
 9463W        W79278  18.260   2.430  11.497
 9464W        W79279  36.549   6.716  12.998
 9465W        W79280  32.975  41.357  12.096
 9466W        W79281  34.934  39.432  14.994
 9467W        W79282  38.035  16.766  11.965
 9468W        W79283  18.780  35.003  14.792
 9469W        W79284   5.428   3.244   1.263
 9470W        W79285  41.979  13.839  14.478
 9471W        W79286  44.832  10.818   3.221
 9472W        W79287  38.826   5.860   5.805
 9473W        W79288  15.208   5.807  13.908
 9474W        W79289  40.958  24.124  13.817
 9475W        W79290  19.581  36.412  11.953
 9476W        W79291  14.156  38.066  10.630
 9477W        W79292  16.747  10.268  12.006
 9478W        W79293  11.757   5.744  14.916
 9479W        W79294   7.335  16.800   2.815
 9480W        W79295  28.020  26.564  10.132
 9481W        W79296  44.971   5.198   1.866
 9482W        W79297  28.637  27.986  11.398
 9483W        W79298  24.998   7.716  10.478
 9484W        W79299  40.367  25.072  11.606
 9485W        W79300   8.167  26.589   2.376
 9486W        W79301  27.485   4.840   0.364
 9487W        W79302  11.639  21.060   0.479
 9488W        W79303  36.862  39.853   1.428
 9489W        W79304   8.224   6.762  13.855
 9490W        W79305   9.376  34.040  10.458
 9491W        W79306  33.498   3.891  14.944
 9492W        W79307  20.037  28.678  13.420
 9493W        W79308  37.052  23.104   4.748
 9494W        W79309  19.245  22.174   2.893
 9495W        W79310  32.989   9.356   0.820
 9496W        W79311  35.421   3.234   0.375
 9497W        W79312  23.557  39.052  14.413
 9498W        W79313  39.960  35.044  11.502
 9499W        W79314  38.473  30.624   4.810
 9500W        W79315  39.477  15.631   1.277
 9501W        W79316  30.479  37.580   1.212
 9502W        W79317  38.405  13.616  11.981
 9503W        W79318  36.090  30.084   4.656
 9504W        W79319  17.137  15.168  10.641
 9505W        W79320  14.305  36.557  11.966
 9506W        W79321  20.709  25.526   3.835
 9507W        W79322  18.740   3.325  10.637
 9508W        W79323  31.052  13.733   0.262
 9509W        W79324   1.916  24.124  14.993
 9510W        W79325  37.010   9.362  10.980
 9511W        W79326  13.328  12.178   3.149
 9512W        W79327   7.739  11.701  14.968
 9513W        W79328   4.730   5.737   1.882
 9514W        W79329  28.454  11.226   1.795
 9515W        W79330  26.610  10.180  10.641
 9516W        W79331  42.943  18.223   0.870
 9517W        W79332  21.687  16.788   1.812
 9518W        W79333  35.938  17.229  11.002
 9519W        W79334  23.010   4.262  13.515
 9520W        W79335  11.759  26.502  13.460
 9521W        W79336  15.210  41.444   0.742
 9522W        W79337  24.546   9.365   1.885
 9523W        W79338   8.196  41.454  14.006
 9524W        W79339  16.786   8.222  14.320
 9525W        W79340  26.474  10.717  12.039
 9526W        W79341  42.800  40.462   4.335
 9527W        W79342  13.766  12.227   0.344
 9528W        W79343  13.769  27.963  11.534
 9529W        W79344  31.952  31.054   4.161
 9530W        W79345   4.366   7.379  10.891
 9531W        W79346  18.089  40.955   1.699
 9532W        W79347  10.819  22.606  13.535
 9533W        W79348  14.313   0.838  11.591
 9534W        W79349  26.166  18.256   3.183
 9535W        W79350  18.676  34.530  13.426
 9536W        W79351  10.213  29.954   1.858
 9537W        W79352   5.283  17.233   1.293
 9538W        W79353   3.407  13.707  11.948
 9539W        W79354  27.478   8.197  11.023
 9540W        W79355  24.672  20.133   4.628
 9541W        W79356  17.709  13.150  10.499
 9542W        W79357   6.354  38.917   0.740
 9543W        W79358  15.246  22.178  10.406
 9544W        W79359  42.517  44.987   3.288
 9545W        W79360  20.646  16.283  10.580
 9546W        W79361   3.830  22.622   1.864
 9547W        W79362  25.004  23.702   4.688
 9548W        W79363   9.750  36.082   0.792
 9549W        W79364   1.872  18.135  14.304
 9550W        W79365   0.431  28.608  12.957
 9551W        W79366  32.939  14.830  10.971
 9552W        W79367  19.229  10.789  14.993
 9553W        W79368  23.161  12.840  11.508
 9554W        W79369  31.460  29.518  14.958
 9555W        W79370   8.828  25.044   0.333
 9556W        W79371  13.299  43.881  11.382
 9557W        W79372  22.569  21.640  12.576
 9558W        W79373   9.306  31.925   0.308
 9559W        W79374  22.244   8.762  13.059
 9560W        W79375   6.806  36.954   1.843
 9561W        W79376  20.766  23.082  14.021
 9562W        W79377  33.932  25.035  13.364
 9563W        W79378  29.585  25.086   3.165
 9564W        W79379  41.395  35.981  12.953
 9565W        W79380  14.109  38.562   2.242
 9566W        W79381  28.182  43.012  13.824
 9567W        W79382   6.886  19.168   4.642
 9568W        W79383  27.450  30.429  14.443
 9569W        W79384  16.732   0.971  14.898
 9570W        W79385  35.886  41.922  11.442
 9571W        W79386  44.868  18.098   4.669
 9572W        W79387   2.364  38.899   3.817
 9573W        W79388  27.539  40.930  12.865
 9574W        W79389  34.988  26.668   4.632
 9575W        W79390  44.884  43.991   0.385
 9576W        W79391  38.022  44.963  11.017
 9577W        W79392  11.247  34.968   0.732
 9578W        W79393  17.265  36.511  11.062
 9579W        W79394  16.765  19.710  12.560
 9580W        W79395  21.239  42.992  10.605
 9581W        W79396  30.151  25.995  13.896
 9582W        W79397  22.111   2.859   0.796
 9583W        W79398  22.996  29.948  12.933
 9584W        W79399  41.854  38.487  14.019
 9585W        W79400  18.735  13.664  13.039
 9586W        W79401  31.116   4.261  14.807
 9587W        W79402  12.227  41.503   3.284
 9588W        W79403  34.522   9.854   4.273
 9589W        W79404  40.051  25.613  13.371
 9590W        W79405   3.724  35.538   3.256
 9591W        W79406  38.377   5.308  14.475
 9592W        W79407  21.081  27.511   0.384
 9593W        W79408  37.860  30.968   3.220
 9594W        W79409  30.951  11.176   0.444
 9595W        W79410  28.173   9.183  10.891
 9596W        W79411  16.077  12.647   1.922
 9597W        W79412  32.470  23.735  11.088
 9598W        W79413  10.761  40.857  14.327
 9599W        W79414  25.615  44.311  13.508
 9600W        W79415   2.819  11.154   1.249
 9601W        W79416  38.027  11.294  14.307
 9602W        W79417  43.954  16.674   0.402
 9603W        W79418  22.652   9.777   1.714
 9604W        W79419  15.295   4.297   2.302
 9605W        W79420  38.449  14.677  12.544
 9606W        W79421  31.423  28.046  10.565
 9607W        W79422  18.668  12.666   0.894
 9608W        W79423  25.125  19.192   2.199
 9609W        W79424  33.022  40.022  12.932
 9610W        W79425  26.559  24.584   4.175
 9611W        W79426  32.478  12.625  13.495
 9612W        W79427  42.971  30.157  12.065
 9613W        W79428   8.763   2.825  14.830
 9614W        W79429  42.788  16.640   1.707
 9615W        W79430  30.910  24.085  13.473
 9616W        W79431   9.698  33.581  10.427
 9617W        W79432  23.651  39.407   2.251
 9618W        W79433  37.475  33.964  14.781
 9619W        W79434  40.307  33.906  11.058
 9620W        W79435  43.389  19.053   0.305
 9621W        W79436  31.942  24.025   1.698
 9622W        W79437  30.018  43.369  11.115
 9623W        W79438   5.729  12.231  11.596
 9624W        W79439  21.252  13.338   5.238
 9625W        W79440   8.324  40.870   0.260
 9626W        W79441   4.779  36.474  11.384
 9627W        W79442  26.187  40.878  10.494
 9628W        W79443  11.192   7.671   0.734
 9629W        W79444   8.834   6.316  13.416
 9630W        W79445   9.189   5.423  11.407
 9631W        W79446  35.946  20.685   3.281
 9632W        W79447  26.111  11.713  13.455
 9633W        W79448  17.663  33.445   4.167
 9634W        W79449  18.658   1.977   0.873
 9635W        W79450  28.082  36.569   0.369
 9636W        W79451  19.648  31.477  14.407
 9637W        W79452  26.622  44.458  13.399
 9638W        W79453  13.604  31.486   4.727
 9639W        W79454  30.053  21.057   0.839
 9640W        W79455  11.683  11.177   2.406
 9641W        W79456  14.122  15.142   4.354
 9642W        W79457  28.101  15.208   2.338
 9643W        W79458  39.945  14.176   3.186
 9644W        W79459  13.143   4.857  13.451
 9645W        W79460   6.703  41.828  11.877
 9646W        W79461  30.579   9.359  10.909
 9647W        W79462  31.915  14.211   2.741
 9648W        W79463  29.622   6.804  10.454
 9649W        W79464   9.310  35.059   4.641
 9650W        W79465  34.988  14.268  11.496
 9651W        W79466   3.865  13.746   2.901
 9652W        W79467  27.491  19.116  12.400
 9653W        W79468  23.728   0.326  12.844
 9654W        W79469  44.897  42.984  11.894
 9655W        W79470  21.061  29.955   0.834
 9656W        W79471   6.706  11.198  14.824
 9657W        W79472  37.479  29.596  10.906
 9658W        W79473   3.337  41.037  10.522
 9659W        W79474   6.679  29.574  10.976
 9660W        W79475  41.347   8.198   4.318
 9661W        W79476  38.923  29.016  13.946
 9662W        W79477  10.317  12.351   0.303
 9663W        W79478  31.037  28.977  13.313
 9664W        W79479  43.979  44.904   3.665
 9665W        W79480   5.208   4.274  13.441
 9666W        W79481  34.465  17.090  10.612
 9667W        W79482  29.122  42.777  10.510
 9668W        W79483  42.281  16.144   3.296
 9669W        W79484  16.102   2.409   0.311
 9670W        W79485  42.900  43.484   3.639
 9671W        W79486  42.032  13.294  14.864
 9672W        W79487  25.100  12.768  13.936
 9673W        W79488  35.565  10.239   0.783
 9674W        W79489  13.311  19.743   2.198
 9675W        W79490  19.628  14.632   3.264
 9676W        W79491  21.143   4.247  10.557
 9677W        W79492  31.426  40.500   2.790
 9678W        W79493  18.148   4.945   0.964
 9679W        W79494  44.290  14.191   2.374
 9680W        W79495   7.831  39.999   1.335
 9681W        W79496   9.227  19.652  12.380
 9682W        W79497   1.269  38.027  10.404
 9683W        W79498  22.682  22.501  14.809
 9684W        W79499  44.859  15.637   0.752
 9685W        W79500   2.859  19.587   0.874
 9686W        W79501  39.365  21.052   4.129
 9687W        W79502  12.334  38.525   0.246
 9688W        W79503  41.043  21.698   4.832
 9689W        W79504  27.986  26.009   0.255
 9690W        W79505  15.662  34.114  12.848
 9691W        W79506  10.749  41.015   0.744
 9692W        W79507  44.998   4.299  13.917
 9693W        W79508  22.064  39.055   3.374
 9694W        W79509  35.009  10.748   0.341
 9695W        W79510  35.871  36.871   3.655
 9696W        W79511   6.338  14.738  11.953
 9697W        W79512   8.352   8.172  11.898
 9698W        W79513  13.314  24.120  12.861
 9699W        W79514  12.277  15.799   0.478
 9700W        W79515  41.956   0.776   1.731
 9701W        W79516   5.229   0.752   1.854
 9702W        W79517  28.444  39.486   1.279
 9703W        W79518  25.993  14.227   3.801
 9704W        W79519  40.455  44.366  10.051
 9705W        W79520   1.391  13.707  11.057
 9706W        W79521  15.233   6.348  10.936
 9707W        W79522  18.071  11.138  13.034
 9708W        W79523  21.036  20.559   2.259
 9709W        W79524  41.391  33.972  14.332
 9710W        W79525  44.917  20.562   1.879
 9711W        W79526   0.421  10.233   2.222
 9712W        W79527  41.383   0.880  13.874
 9713W        W79528  38.482  19.105   2.265
 9714W        W79529  28.050  31.980   4.708
 9715W        W79530  36.386  18.674   4.771
 9716W        W79531   3.885  26.583  10.520
 9717W        W79532  40.496  25.600   3.715
 9718W        W79533  27.066  22.739   3.165
 9719W        W79534  24.590   3.450   4.670
 9720W        W79535  14.644   3.812   2.340
 9721W        W79536   7.292  36.089   1.831
 9722W        W79537   7.775  22.054  10.558
 9723W        W79538  29.485  24.212   0.893
 9724W        W79539  33.572  10.858   3.374
 9725W        W79540  32.891  43.859   2.183
 9726W        W79541  31.118   7.310  13.451
 9727W        W79542  33.984  34.019  13.966
 9728W        W79543  40.955   6.903  11.517
 9729W        W79544  15.595  20.539  12.860
 9730W        W79545  27.109  18.599  13.356
 9731W        W79546  44.398  32.120   3.349
 9732W        W79547   8.183  40.423  13.890
 9733W        W79548   8.856  31.491  12.963
 9734W        W79549   3.852  25.064  10.033
 9735W        W79550   6.285  38.491  13.485
 9736W        W79551  26.521  11.703   0.867
 9737W        W79552  41.944  38.914  10.456
 9738W        W79553  28.675   9.691  14.015
 9739W        W79554  29.510  29.439  14.347
 9740W        W79555  28.589  23.714  14.515
 9741W        W79556  31.996  14.203   0.807
 9742W        W79557   3.723   1.877   1.442
 9743W        W79558   2.758   2.433   0.317
 9744W        W79559  34.930  37.071  10.476
 9745W        W79560  29.556  16.758  14.956
 9746W        W79561  44.343   0.847  11.026
 9747W        W79562  21.197   0.306   0.470
 9748W        W79563  15.693  16.594   3.859
 9749W        W79564  25.522  29.004  14.318
 9750W        W79565  41.885  38.447   4.328
 9751W        W79566  43.363  41.528  11.052
 9752W        W79567   3.411  23.081   2.386
 9753W        W79568  34.088  20.214   2.808
 9754W        W79569  14.159   3.366   4.248
 9755W        W79570  24.512   0.892  11.933
 9756W        W79571  27.158  28.978   2.253
 9757W        W79572  37.896  20.768  11.926
 9758W        W79573  25.196  34.441  14.927
 9759W        W79574  12.705  34.602  11.576
 9760W        W79575  43.870  16.235  14.897
 9761W        W79576  14.682  17.114   4.800
 9762W        W79577  17.061  36.388  14.988
 9763W        W79578  28.948  32.064  11.074
 9764W        W79579  15.261   3.319   1.721
 9765W        W79580  41.905  37.983   3.700
 9766W        W79581  42.300  26.200   2.713
 9767W        W79582  38.954  42.376  11.524
 9768W        W79583  30.559  12.657   1.727
 9769W        W79584   6.220  20.725  10.637
 9770W        W79585  40.418  21.116   1.336
 9771W        W79586   7.759   3.359  13.510
 9772W        W79587  38.953   9.840  11.982
 9773W        W79588  25.125  10.825   4.191
 9774W        W79589  12.617  11.312  14.461
 9775W        W79590   2.442  36.472   4.665
 9776W        W79591  11.728  12.830   0.760
 9777W        W79592   0.443   8.248   0.737
 9778W        W79593  25.981  33.938  11.897
 9779W        W79594   1.261  25.677   1.924
 9780W        W79595  10.810  33.882  11.440
 9781W        W79596   2.309   4.418   1.348
 9782W        W79597  21.752  30.538   2.327
 9783W        W79598  41.417  18.630   4.224
 9784W        W79599  25.001  40.042  11.974
 9785W        W79600   8.385  29.617   2.746
 9786W        W79601  17.613  11.200  14.800
 9787W        W79602   5.289  14.614   1.872
 9788W        W79603  21.092  12.134   0.351
 9789W        W79604  35.566  44.800   4.169
 9790W        W79605   9.857  29.035   3.374
 9791W        W79606  34.908  44.763   2.365
 9792W        W79607  44.971  17.271   1.353
 9793W        W79608   5.247  16.299  13.384
 9794W        W79609  10.361  12.809   3.820
 9795W        W79610   3.227   6.334   2.228
 9796W        W79611  11.686  17.778  13.540
 9797W        W79612  35.393  39.388   4.333
 9798W        W79613  10.339  11.334   4.217
 9799W        W79614   4.758   9.880   2.277
 9800W        W79615  11.720  39.517  12.901
 9801W        W79616  14.734  13.243  11.563
 9802W        W79617   9.749  38.002   3.692
 9803W        W79618   5.439   1.243  11.122
 9804W        W79619  31.430  41.368  13.955
 9805W        W79620  12.814  27.131  12.094
 9806W        W79621   6.211  13.218  11.065
 9807W        W79622  12.199   0.989   3.787
 9808W        W79623  35.578  23.141   4.313
 9809W        W79624  31.474  19.680  11.949
 9810W        W79625  43.013  27.121   2.318
 9811W        W79626   9.696  39.913   0.841
 9812W        W79627  44.485   0.824  14.403
 9813W        W79628  10.633  10.709  13.004
 9814W        W79629  34.920  13.178   0.931
 9815W        W79630  42.854   8.264  14.287
 9816W        W79631   8.856   8.713   4.194
 9817W        W79632   1.302  27.462   4.627
 9818W        W79633  42.984  33.560   0.263
 9819W        W79634  18.782   5.776   1.881
 9820W        W79635   6.866  30.089  10.978
 9821W        W79636  29.986  38.326  14.843
 9822W        W79637  31.567  26.986   4.273
 9823W        W79638  20.029  26.682   0.324
 9824W        W79639  31.032  19.172   0.748
 9825W        W79640  28.504   7.725  13.907
 9826W        W79641  24.599  27.190   4.679
 9827W        W79642  36.870   1.240  13.969
 9828W        W79643  16.757  14.275   3.376
 9829W        W79644  12.283  44.451   3.353
 9830W        W79645  33.115  24.070   1.351
 9831W        W79646  14.281  20.704   3.258
 9832W        W79647  33.112  31.121   4.204
 9833W        W79648  27.604  22.590  11.549
 9834W        W79649  26.108  42.394  13.828
 9835W        W79650  36.441  24.109  10.444
 9836W        W79651   9.651  11.832  13.024
 9837W        W79652   9.881  17.610   1.225
 9838W        W79653  34.529  22.146   4.619
 9839W        W79654  24.060  37.998  11.610
 9840W        W79655   1.339  14.276   3.193
 9841W        W79656  44.416  30.027   2.825
 9842W        W79657  34.106   8.796  14.330
 9843W        W79658  10.668   1.288  11.407
 9844W        W79659   2.742   2.953   2.336
 9845W        W79660  34.975   9.388  11.520
 9846W        W79661   5.370  29.028  10.597
 9847W        W79662  26.204  39.846   4.613
 9848W        W79663  30.543  24.579   1.791
 9849W        W79664  38.055   2.946  11.081
 9850W        W79665  40.942  39.323  12.474
 9851W        W79666  20.196  17.225  14.426
 9852W        W79667  20.265   8.164  14.504
 9853W        W79668   0.440  10.725   1.776
 9854W        W79669  41.366  17.127  10.467
 9855W        W79670  40.048  11.777   2.251
 9856W        W79671  27.683   0.835  11.078
 9857W        W79672  15.164  18.764  10.529
 9858W        W79673  17.289  14.771  11.439
 9859W        W79674  21.210   0.386   1.275
 9860W        W79675  35.529  22.529   2.385
 9861W        W79676  36.408  26.104   4.274
 9862W        W79677  28.136  31.444   3.843
 9863W        W79678  15.172   0.901   4.789
 9864W        W79679   5.203  31.005  12.914
 9865W        W79680  31.128  12.331  10.514
 9866W        W79681  43.887  31.551   4.321
 9867W        W79682  10.341  38.519  11.000
 9868W        W79683  32.484  28.127   9.920
 9869W        W79684  26.054   3.375  11.097
 9870W        W79685  10.777  20.085  14.485
 9871W        W79686  18.723  26.067  12.441
 9872W        W79687  11.700  32.004   1.789
 9873W        W79688   5.213  36.562  11.989
 9874W        W79689  34.375   2.947   3.215
 9875W        W79690   9.230  19.745  14.951
 9876W        W79691  22.679  15.090  14.782
 9877W        W79692  15.094  17.625   0.279
 9878W        W79693  43.335   8.212  10.945
 9879W        W79694  40.530  44.858  14.955
 9880W        W79695  16.101  34.881   2.360
 9881W        W79696  36.865  20.541  10.924
 9882W        W79697  43.276  43.881   3.747
 9883W        W79698  15.249   4.835  13.937
 9884W        W79699  15.814  37.846  12.930
 9885W        W79700   9.356   9.235  13.981
 9886W        W79701  14.634  29.089   0.402
 9887W        W79702   2.919  19.702  14.816
 9888W        W79703   3.303  44.884   0.831
 9889W        W79704   6.408  22.727  10.981
 9890W        W79705  23.524  31.980  11.903
 9891W        W79706  41.338   4.769   1.232
 9892W        W79707   1.754  10.205  14.459
 9893W        W79708  15.612  23.618  10.067
 9894W        W79709  17.305  29.537   1.697
 9895W        W79710  35.390  44.987  14.411
 9896W        W79711  43.323  40.015   4.175
 9897W        W79712   5.208  35.031  14.304
 9898W        W79713  30.413  10.652  14.976
 9899W        W79714   1.257  33.495  11.548
 9900W        W79715  44.766  27.193   3.236
 9901W        W79716   5.726  21.629   4.340
 9902W        W79717   9.804   8.227   0.873
 9903W        W79718   2.376  42.357  14.811
 9904W        W79719  41.486  36.374   4.749
 9905W        W79720  25.539  20.260  13.895
 9906W        W79721  17.693  39.984  14.444
 9907W        W79722  34.410   7.672  12.855
 9908W        W79723   0.380  19.141  14.507
 9909W        W79724  44.405  19.636   2.200
 9910W        W79725  35.495   4.745   4.681
 9911W        W79726  42.516  11.737  12.018
 9912W        W79727   5.192   0.302  14.868
 9913W        W79728   0.984  27.021   1.426
 9914W        W79729  21.584  25.196  12.985
 9915W        W79730   9.243  28.527   3.765
 9916W        W79731  23.576   5.232  14.923
 9917W        W79732   7.783  35.396  11.965
 9918W        W79733   7.319  10.350   4.294
 9919W        W79734  32.558   7.208   5.110
 9920W        W79735  38.425   9.151   0.347
 9921W        W79736  32.953  20.715  14.836
 9922W        W79737   2.926  43.425   2.715
 9923W        W79738  16.674  38.836  11.115
 9924W        W79739  39.956  25.994   3.375
 9925W        W79740  30.929  18.162  13.856
 9926W        W79741  18.274  20.082   0.925
 9927W        W79742   0.861  22.724  11.544
 9928W        W79743   1.863  31.142  10.543
 9929W        W79744  27.465   5.729   2.887
 9930W        W79745  14.246  44.401   2.312
 9931W        W79746  41.998  25.125  14.384
 9932W        W79747   3.319  35.429   3.157
 9933W        W79748   9.156  33.902   3.744
 9934W        W79749  19.103  10.831  13.937
 9935W        W79750   4.910   2.407   0.747
 9936W        W79751  41.495   5.884  10.432
 9937W        W79752  18.267  30.417  11.528
 9938W        W79753  28.167  26.547   3.642
 9939W        W79754  23.621  42.294   3.214
 9940W        W79755  40.547  27.485   2.888
 9941W        W79756  14.310   1.295   0.775
 9942W        W79757  37.959  29.091  11.104
 9943W        W79758  38.406  32.482  14.491
 9944W        W79759  34.029   4.876   4.118
 9945W        W79760  14.829   4.742  14.340
 9946W        W79761   7.861  10.700  12.347
 9947W        W79762  11.182  33.456  12.419
 9948W        W79763  26.669  26.565   4.620
 9949W        W79764  15.106  27.141  12.402
 9950W        W79765  19.047  23.667   0.289
 9951W        W79766  32.635  33.080   0.242
 9952W        W79767  38.051  24.196   1.696
 9953W        W79768  13.147  21.589  11.453
 9954W        W79769  41.434  14.663   1.217
 9955W        W79770  35.529  41.891   0.750
 9956W        W79771  20.543  44.767   4.627
 9957W        W79772  41.514  20.587  14.767
 9958W        W79773  10.716  42.479   3.245
 9959W        W79774  22.192  11.689  11.968
 9960W        W79775  23.612   7.414  12.381
 9961W        W79776  27.951   8.366   1.822
 9962W        W79777   7.216  20.620  11.105
 9963W        W79778  30.446  11.780   2.244
 9964W        W79779  38.461  39.830   2.266
 9965W        W79780  11.318  39.453   4.794
 9966W        W79781  13.191  34.064   1.739
 9967W        W79782   9.871  43.881   3.656
 9968W        W79783  12.157  25.667   3.153
 9969W        W79784  14.108   3.259   0.903
 9970W        W79785  20.660  15.820  11.564
 9971W        W79786   9.320   7.824   2.874
 9972W        W79787   4.700  34.598  14.775
 9973W        W79788   1.465  25.510  12.355
 9974W        W79789  42.844  14.643  13.791
 9975W        W79790   0.312  21.215   1.859
 9976W        W79791  15.311  41.338  11.517
 9977W        W79792   0.472  37.868   4.288
 9978W        W79793  10.842   0.823  14.889
 9979W        W79794   5.763  22.565   4.176
 9980W        W79795  33.090  38.932  13.533
 9981W        W79796  32.622  19.674   4.158
 9982W        W79797  35.481  28.931   3.260
 9983W        W79798  21.573  40.945   1.317
 9984W        W79799  16.763  35.545   1.923
 9985W        W79800   0.896  29.027  10.937
 9986W        W79801   9.352  19.768   0.793
 9987W        W79802  21.663   8.824  14.764
 9988W        W79803  26.702  15.166  14.953
 9989W        W79804   0.888  22.655   1.763
 9990W        W79805  42.005   4.829  12.064
 9991W        W79806  36.434   9.184   1.404
 9992W        W79807  25.498  26.601  10.481
 9993W        W79808  22.128  22.121  14.318
 9994W        W79809  30.017   9.360  14.017
 9995W        W79810  24.559  17.201   0.846
 9996W        W79811  34.051  34.529  13.518
 9997W        W79812  13.818  36.583   0.334
 9998W        W79813  20.747   1.289   9.658
 9999W        W79814  41.836  18.096   3.270
10000W        W79815  26.097   1.432   1.243
10001W        W79816  41.396  37.843  11.907
10002W        W79817  37.418  34.432  12.862
10003W        W79818  30.029  21.544  11.447
10004W        W79819  38.862  25.049  13.986
10005W        W79820  19.158  20.749  11.013
10006W        W79821  28.661  40.535   4.240
10007W        W79822  22.549   6.337   4.227
10008W        W79823   3.816  30.510  11.399
10009W        W79824  10.321   9.339   0.803
10010W        W79825   2.768  32.455  13.319
10011W        W79826  28.085  39.363  10.479
10012W        W79827  22.051  26.984  12.465
10013W        W79828  32.000  32.507   4.227
10014W        W79829   2.243  33.000  11.010
10015W        W79830  23.653  20.533   4.643
10016W        W79831  11.738  36.362   2.212
10017W        W79832  38.362  28.608  12.497
10018W        W79833  17.281  10.363  10.986
10019W        W79834   9.873   7.384   2.712
10020W        W79835  41.941  14.670   3.167
10021W        W79836  42.830  32.076   3.683
10022W        W79837  20.557  11.275  10.509
10023W        W79838   7.698  43.328  11.123
10024W        W79839  11.849  38.443  11.937
10025W        W79840  31.459  13.766  13.820
10026W        W79841  30.485  37.035  11.105
10027W        W79842  44.881  14.215   0.782
10028W        W79843  10.756   0.432   4.271
10029W        W79844  18.713  32.613   2.838
10030W        W79845  18.292  37.949  13.514
10031W        W79846  22.176  22.509   3.351
10032W        W79847   8.789  29.049   3.252
10033W        W79848  13.201  34.518  12.862
10034W        W79849   9.201  34.022   1.366
10035W        W79850  36.483  40.945   3.362
10036W        W79851   6.708  15.117   0.894
10037W        W79852  10.875  41.487  11.566
10038W        W79853  13.707  43.464  12.945
10039W        W79854  20.719   7.354  13.359
10040W        W79855   3.346  20.212   2.771
10041W        W79856  11.725  13.192   2.795
10042W        W79857  19.682   8.365   2.302
10043W        W79858  13.312  12.269  14.432
10044W        W79859  19.120  26.557  13.029
10045W        W79860  17.153  28.509   3.768
10046W        W79861  18.217  40.529   4.608
10047W        W79862   2.829   4.800  11.895
10048W        W79863  37.851  26.046  10.945
10049W        W79864  25.707  31.510  10.599
10050W        W79865  13.300   1.287  10.446
10051W        W79866  11.666  14.770   4.722
10052W        W79867  24.506  43.400   2.740
10053W        W79868  22.063  32.888   3.761
10054W        W79869   1.415  41.417   3.222
10055W        W79870  17.166  44.479  14.777
10056W        W79871  36.954  34.468  11.480
10057W        W79872  20.158   4.807   1.879
10058W        W79873  37.991  42.859  10.585
10059W        W79874  35.983  14.234   4.326
10060W        W79875  33.451  17.276   5.110
10061W        W79876  23.175  20.621   1.395
10062W        W79877  24.598  15.124   0.471
10063W        W79878   4.817  41.992   0.346
10064W        W79879  42.376  19.230   3.680
10065W        W79880  12.718   2.321  14.446
10066W        W79881  24.600  20.041   0.369
10067W        W79882  36.039  15.149  13.896
10068W        W79883  10.768   4.924  12.410
10069W        W79884  31.980   3.452   1.445
10070W        W79885  19.135  39.500  14.337
10071W        W79886  36.498  13.240  10.606
10072W        W79887  16.227  11.350   3.702
10073W        W79888  35.107  42.284   3.770
10074W        W79889   7.728  37.547  13.987
10075W        W79890  34.570  17.661  12.062
10076W        W79891  41.953  21.601   3.283
10077W        W79892  10.372  41.357   0.298
10078W        W79893  15.096  12.192   4.629
10079W        W79894  10.847  39.062  14.451
10080W        W79895   9.156  13.341  13.907
10081W        W79896  16.712  27.564   4.186
10082W        W79897   5.707  36.381   4.751
10083W        W79898   7.764  31.949  12.888
10084W        W79899  22.114  30.426  13.492
10085W        W79900  39.546  14.140   0.838
10086W        W79901  26.978  20.533  12.412
10087W        W79902   7.841  39.396  14.278
10088W        W79903  18.733  10.744   1.758
10089W        W79904  19.613  15.105   4.148
10090W        W79905  23.564  25.684   1.279
10091W        W79906  20.712   3.900  12.094
10092W        W79907   8.173  22.030   2.711
10093W        W79908  42.321   0.780  11.463
10094W        W79909   3.951  14.663  14.806
10095W        W79910   3.373  24.212   2.303
10096W        W79911   4.290  25.090  10.913
10097W        W79912  24.578  29.126   1.825
10098W        W79913  32.897  38.879  14.410
10099W        W79914  29.175  10.755   4.767
10100W        W79915  31.028   5.724   3.859
10101W        W79916  42.433   8.357   0.842
10102W        W79917  36.983  41.023  12.437
10103W        W79918  10.866   0.397   0.908
10104W        W79919  35.964  41.385   2.814
10105W        W79920  40.005  42.999  12.988
10106W        W79921  10.173  18.285  13.931
10107W        W79922  36.549  13.668  11.011
10108W        W79923   7.763  39.858   2.252
10109W        W79924   6.317  41.435  12.898
10110W        W79925  16.803  15.156  11.919
10111W        W79926  35.470  34.949   3.246
10112W        W79927  15.095  14.813   1.239
10113W        W79928  29.165  26.470   1.746
10114W        W79929  42.284  39.431  12.550
10115W        W79930  14.746  42.875   2.682
10116W        W79931  29.071  30.992   3.799
10117W        W79932  38.542   4.241   2.680
10118W        W79933  12.745   8.306  11.000
10119W        W79934  24.170  14.169   3.174
10120W        W79935  27.580  11.737   3.294
10121W        W79936  14.748  31.116   3.320
10122W        W79937  41.811  10.825  13.941
10123W        W79938  31.095  23.733   3.800
10124W        W79939  39.519  26.006   1.354
10125W        W79940  41.310  21.691  13.896
10126W        W79941   7.323  36.499  12.496
10127W        W79942  32.892   4.942  11.408
10128W        W79943  31.446  35.458   3.798
10129W        W79944  22.151   8.769   3.653
10130W        W79945  14.726  25.969   4.309
10131W        W79946   1.479   5.782  13.542
10132W        W79947   9.342   0.811   1.238
10133W        W79948  26.629  26.072   2.725
10134W        W79949   1.747  16.656   2.323
10135W        W79950  13.200  41.980   4.354
10136W        W79951  44.928   4.771  14.869
10137W        W79952  39.370  13.711  11.505
10138W        W79953   2.788  21.103  11.429
10139W        W79954  12.165  37.464   0.434
10140W        W79955  13.600  19.164  14.460
10141W        W79956  43.285  21.727   4.807
10142W        W79957   7.187   3.841  14.781
10143W        W79958   0.342  35.981   1.305
10144W        W79959   9.335  23.217  10.948
10145W        W79960   3.288  26.957  13.900
10146W        W79961  21.556  28.594   4.624
10147W        W79962   8.856  16.622   1.452
10148W        W79963  32.994  12.335  14.972
10149W        W79964  31.080  43.938  11.548
10150W        W79965  20.029  17.099   1.700
10151W        W79966   9.879  41.022   5.606
10152W        W79967  25.143  37.493  11.027
10153W        W79968   1.365  23.080   1.310
10154W        W79969  38.503  16.811  11.525
10155W        W79970  44.002  18.556   0.917
10156W        W79971  37.401   4.271   4.194
10157W        W79972  36.057  41.297  12.414
10158W        W79973   6.198  23.732  10.454
10159W        W79974  16.139  37.033  12.073
10160W        W79975  32.535  18.703   4.729
10161W        W79976  40.824  38.011   2.396
10162W        W79977  32.995  25.174   0.469
10163W        W79978  43.976  39.330  10.604
10164W        W79979  14.668  10.652  12.835
10165W        W79980  34.902  42.438  11.012
10166W        W79981  44.964   8.316  14.955
10167W        W79982  40.912  32.494  13.023
10168W        W79983  37.916  23.126  10.577
10169W        W79984   1.379   2.725  11.990
10170W        W79985  15.587  37.373   0.268
10171W        W79986  33.001  30.058  13.973
10172W        W79987  20.638  16.765  10.523
10173W        W79988  15.241  13.110  13.448
10174W        W79989  37.836   6.350   1.797
10175W        W79990  37.989   1.291  14.782
10176W        W79991  38.006  30.560   1.316
10177W        W79992   6.362   7.668  13.326
10178W        W79993  32.932  37.380  14.826
10179W        W79994  28.059  39.814  10.421
10180W        W79995  12.742  18.567  12.823
10181W        W79996  18.590  19.623   3.750
10182W        W79997  13.637  39.414   3.264
10183W        W79998  39.334  10.165  12.876
10184W        W79999  31.495  37.854  14.018
10185W        W80000  32.566  12.805   1.724
10186W        W80001  21.028   8.374  14.311
10187W        W80002  42.287   8.833   4.306
10188W        W80003   8.665  42.869  11.391
10189W        W80004  40.935  15.202  14.920
10190W        W80005  26.651  29.010  10.417
10191W        W80006  35.058  24.611   3.864
10192W        W80007  39.848  23.127   3.274
10193W        W80008  28.036  44.804   4.266
10194W        W80009  32.504  16.308   3.763
10195W        W80010   4.240  42.783  11.015
10196W        W80011   7.297  10.253   3.641
10197W        W80012  22.151  26.973  11.465
10198W        W80013  41.830  21.677   4.681
10199W        W80014  14.321  24.707   2.372
10200W        W80015  14.257   6.310  13.442
10201W        W80016  29.011   0.312  10.404
10202W        W80017  29.054  32.983  10.615
10203W        W80018  19.265   9.838  12.537
10204W        W80019   0.976  22.205  14.301
10205W        W80020  34.966  22.096  13.791
10206W        W80021  11.186  13.153  12.560
10207W        W80022  23.073   5.262   1.415
10208W        W80023  11.792  41.402   3.655
10209W        W80024  25.107  40.003   5.778
10210W        W80025  33.421  28.530   1.399
10211W        W80026  44.367  21.654   4.258
10212W        W80027  35.448  16.611   0.828
10213W        W80028  44.009   6.354   2.812
10214W        W80029   4.931   3.393   0.929
10215W        W80030   3.317  20.064  13.857
10216W        W80031  38.530   1.911  10.431
10217W        W80032  34.913  34.018  12.041
10218W        W80033  35.569  10.270   1.830
10219W        W80034  23.081   7.179  14.334
10220W        W80035  38.550  41.946  10.449
10221W        W80036  10.788  25.523  10.527
10222W        W80037  14.701  17.727  11.079
10223W        W80038  25.663   4.839   4.323
10224W        W80039  18.755  33.542  14.809
10225W        W80040   1.793  39.515   4.223
10226W        W80041  23.020   1.380  14.480
10227W        W80042  30.129  39.929   3.362
10228W        W80043  30.584  25.614  10.612
10229W        W80044  42.847   6.788   3.205
10230W        W80045   9.331  37.528  14.842
10231W        W80046  27.157  21.128  10.512
10232W        W80047  25.211  18.166   4.241
10233W        W80048  38.334   3.814  13.424
10234W        W80049  26.076  14.709   0.313
10235W        W80050  40.412   2.727   2.305
10236W        W80051  15.223  23.173  14.361
10237W        W80052  18.706  35.050  13.040
10238W        W80053  27.562   6.199   4.711
10239W        W80054  17.798  12.682  10.560
10240W        W80055  11.363  14.602   0.309
10241W        W80056   7.415  38.438  12.978
10242W        W80057   5.762  22.578   4.723
10243W        W80058   3.825  38.377   1.366
10244W        W80059  24.013  22.199  14.885
10245W        W80060   4.782  36.954  12.497
10246W        W80061  13.633  18.147   4.796
10247W        W80062  13.273   8.681  10.549
10248W        W80063  17.164  24.122  11.376
10249W        W80064  30.565  18.105  14.470
10250W        W80065  37.942  18.587  13.997
10251W        W80066  17.598  20.565   0.880
10252W        W80067  25.709   0.322   4.354
10253W        W80068  10.306  39.914   2.733
10254W        W80069  15.759  15.100   0.474
10255W        W80070   1.969  27.625  10.516
10256W        W80071  14.275  25.666   3.380
10257W        W80072  24.055   1.294  14.356
10258W        W80073   4.764  40.307   0.764
10259W        W80074  12.820  15.233   2.322
10260W        W80075   7.200   5.770  10.456
10261W        W80076  34.510  22.107  11.449
10262W        W80077  26.201  29.648  13.008
10263W        W80078  39.925  20.698  10.976
10264W        W80079  12.298  22.074  14.895
10265W        W80080  37.558  21.577   1.827
10266W        W80081   3.455  14.321  10.032
10267W        W80082  23.120  33.892   0.347
10268W        W80083  16.232  15.736   4.175
10269W        W80084  10.835  38.516  11.495
10270W        W80085  39.930  17.200  11.009
10271W        W80086  20.133  32.102   9.943
10272W        W80087  39.387  30.062  13.508
10273W        W80088  14.319  39.390  11.538
10274W        W80089  27.157  31.501  10.592
10275W        W80090  34.119  30.462  13.031
10276W        W80091  14.612  20.054   3.656
10277W        W80092  43.454  26.079   0.364
10278W        W80093   0.929  37.497  10.505
10279W        W80094  12.634  44.923  11.115
10280W        W80095  43.870   0.907  12.092
10281W        W80096  25.597  14.727   0.346
10282W        W80097  19.224   3.812  10.904
10283W        W80098   1.959  14.601  14.503
10284W        W80099  36.450  20.129  10.446
10285W        W80100  12.136  35.929   1.770
10286W        W80101   0.975  14.794   3.799
10287W        W80102  27.137  32.969   0.390
10288W        W80103  21.698  21.166  11.968
10289W        W80104  25.583  20.577   1.420
10290W        W80105  17.679   4.870   0.821
10291W        W80106  19.730  15.685  10.957
10292W        W80107  43.513  39.849   1.321
10293W        W80108  40.963  36.955   0.849
10294W        W80109  10.787  40.823  12.458
10295W        W80110  18.546   1.804   0.388
10296W        W80111  35.035   8.807   2.341
10297W        W80112  16.180   6.684  11.929
10298W        W80113  14.196  36.091  13.898
10299W        W80114  44.842  26.549  10.511
10300W        W80115  21.198  40.467   1.896
10301W        W80116  38.924   9.296   9.986
10302W        W80117   5.379   2.275   2.804
10303W        W80118  36.853  29.475  14.775
10304W        W80119  34.455  22.216   3.275
10305W        W80120  39.874  28.666  13.446
10306W        W80121  42.399  41.300  10.431
10307W        W80122  12.713  22.724   1.435
10308W        W80123   1.423   4.247   0.967
10309W        W80124  18.689  24.067  13.026
10310W        W80125  15.179   3.901   3.175
10311W        W80126  39.360  17.701   4.315
10312W        W80127   9.733   3.797   3.722
10313W        W80128  34.481   2.821  12.067
10314W        W80129  14.694  25.474  10.911
10315W        W80130  16.772   6.407  11.978
10316W        W80131   5.763  34.961   4.190
10317W        W80132  32.395  22.563   3.793
10318W        W80133  44.874  25.600   4.683
10319W        W80134   7.804  35.884   2.350
10320W        W80135  12.777  19.200  12.520
10321W        W80136   3.866   6.848   4.276
10322W        W80137  44.425  28.512   1.764
10323W        W80138  26.537  24.555  11.093
10324W        W80139  36.054   7.778  13.846
10325W        W80140   2.268  11.796   2.184
10326W        W80141   9.183  41.883   4.138
10327W        W80142  14.596  18.668   3.345
10328W        W80143  11.810  13.176  13.000
10329W        W80144  10.794   9.286  14.292
10330W        W80145  14.229  37.917   3.198
10331W        W80146  31.618  21.611  12.463
10332W        W80147  10.659   0.818   1.897
10333W        W80148  34.005   1.765  10.568
10334W        W80149  34.983  21.233  13.005
10335W        W80150  26.974  42.323  12.358
10336W        W80151   5.734   8.811  14.412
10337W        W80152  43.282  31.090   2.412
10338W        W80153  21.522  14.669  13.897
10339W        W80154  41.868  32.920   1.395
10340W        W80155  22.589  14.790   1.911
10341W        W80156   2.731  13.666  14.797
10342W        W80157  32.121  33.096  14.909
10343W        W80158   2.248  16.598  12.415
10344W        W80159  26.159   9.883   0.364
10345W        W80160  22.159  36.416  13.433
10346W        W80161  38.343  32.062   0.773
10347W        W80162   9.273  22.223  14.482
10348W        W80163  10.805  26.485   4.240
10349W        W80164   2.863  22.563   3.838
10350W        W80165  23.082   4.419  14.954
10351W        W80166  20.682   7.874   3.211
10352W        W80167  33.919  34.580   1.739
10353W        W80168  14.314  13.205  12.431
10354W        W80169  16.786  30.061  10.612
10355W        W80170  29.939  36.977   1.742
10356W        W80171  43.290  23.541  14.917
10357W        W80172  27.541  10.223  12.504
10358W        W80173  25.592  42.923   4.694
10359W        W80174  14.805  14.139   5.126
10360W        W80175  24.649  19.221  10.002
10361W        W80176  43.868  19.602   4.782
10362W        W80177   3.310  38.834  11.052
10363W        W80178  30.991  19.568   4.622
10364W        W80179  24.096   0.369  12.530
10365W        W80180  38.988   8.302  10.516
10366W        W80181  31.613   3.228   1.771
10367W        W80182  21.119  13.744   3.188
10368W        W80183  24.226   2.422  13.933
10369W        W80184  11.313  35.999   1.382
10370W        W80185  35.019  16.163   1.877
10371W        W80186  19.686  16.673  12.029
10372W        W80187  19.042  15.663  12.378
10373W        W80188  42.028  41.370   3.859
10374W        W80189  17.727  43.302   0.840
10375W        W80190   4.331  39.542  12.002
10376W        W80191  20.104  36.899  14.763
10377W        W80192   2.241  12.181   4.148
10378W        W80193  16.278  38.523  10.460
10379W        W80194   9.744  26.698   4.818
10380W        W80195  39.319  32.897  14.882
10381W        W80196   8.748  43.289   1.924
10382W        W80197  24.058  24.017   1.767
10383W        W80198  15.620   9.863   1.362
10384W        W80199  33.585   0.370   2.346
10385W        W80200  18.613   9.871  14.988
10386W        W80201  13.136  11.695   1.846
10387W        W80202   7.884  10.822   4.299
10388W        W80203  20.647  37.571   0.432
10389W        W80204  44.308   8.175   2.351
10390W        W80205  14.318  17.586  12.517
10391W        W80206   0.455  22.007  10.555
10392W        W80207  24.599  28.572  11.494
10393W        W80208  14.685  30.948   4.744
10394W        W80209  37.339  27.658   1.801
10395W        W80210  10.724  14.248   3.868
10396W        W80211  18.284   8.373  13.056
10397W        W80212  39.972  14.304  11.954
10398W        W80213  25.674   9.261  13.538
10399W        W80214   2.429  21.586   3.706
10400W        W80215   3.788  30.015   1.866
10401W        W80216  26.689  21.555  11.913
10402W        W80217  39.512   7.843  13.363
10403W        W80218  28.575  15.743   3.340
10404W        W80219  33.942  40.432   4.127
10405W        W80220  34.979  35.927   0.911
10406W        W80221  34.607  43.791   3.361
10407W        W80222  28.625  17.630   1.833
10408W        W80223  29.644  29.108   4.297
10409W        W80224  36.008  42.323   0.278
10410W        W80225   4.409   9.825   1.416
10411W        W80226  18.198  35.034   0.829
10412W        W80227  39.408  40.896  14.864
10413W        W80228  23.495  38.501  12.438
10414W        W80229  31.960  28.041   0.882
10415W        W80230  26.519   1.292   2.293
10416W        W80231   2.894   9.668   3.630
10417W        W80232  15.323  27.983   2.862
10418W        W80233  29.429  28.997   1.334
10419W        W80234  31.013   1.469  13.950
10420W        W80235  21.020  31.948   0.299
10421W        W80236  13.762   2.721  11.536
10422W        W80237   3.320  16.243   3.660
10423W        W80238  40.988  17.079   4.808
10424W        W80239  32.455  29.566  10.536
10425W        W80240  42.393  37.391  10.080
10426W        W80241  24.130  28.962   1.231
10427W        W80242  12.701  31.025   4.605
10428W        W80243  40.847  30.937  13.894
10429W        W80244   7.810  35.433   2.201
10430W        W80245  37.045  14.115   2.341
10431W        W80246  19.619  40.870  12.057
10432W        W80247   2.915   1.374  10.532
10433W        W80248  19.089  34.072  14.336
10434W        W80249   4.419  39.389  13.493
10435W        W80250  33.394  29.572   3.376
10436W        W80251   3.371  15.300   1.785
10437W        W80252  41.998   5.873  12.844
10438W        W80253   2.851   0.364  14.473
10439W        W80254  15.795  43.979   3.201
10440W        W80255  24.096  24.012   2.842
10441W        W80256  14.690  42.338   0.258
10442W        W80257  28.058   9.205   2.791
10443W        W80258   1.835  21.554  12.901
10444W        W80259  11.812   0.798   3.275
10445W        W80260  44.971  24.679  10.930
10446W        W80261   2.940   0.494   2.213
10447W        W80262  15.732  43.969   1.218
10448W        W80263  10.154  44.996   3.250
10449W        W80264  43.846  32.025   3.225
10450W        W80265  12.156  23.134   2.720
10451W        W80266  26.084  18.124   3.656
10452W        W80267  17.264  28.055  12.915
10453W        W80268  44.271  38.523  10.152
10454W        W80269   7.259  25.653  14.314
10455W        W80270  15.653  35.882   0.853
10456W        W80271  38.889  18.085  12.045
10457W        W80272  24.667  44.935  11.000
10458W        W80273  35.379  27.955   3.272
10459W        W80274  15.794  10.164  14.430
10460W        W80275  12.210  17.175  14.988
10461W        W80276   0.458  20.553  13.016
10462W        W80277  26.646  30.490  12.402
10463W        W80278   7.748   8.817   0.262
10464W        W80279  33.386  43.440  12.446
10465W        W80280   3.913  15.162   2.325
10466W        W80281  41.960  29.553  10.426
10467W        W80282   7.735  28.446   2.689
10468W        W80283  39.497  18.696  11.443
10469W        W80284  18.158  29.639  11.884
10470W        W80285  31.121   8.831   4.228
10471W        W80286  17.226  14.205  11.937
10472W        W80287  42.484   6.832   3.824
10473W        W80288   9.297  25.161   3.774
10474W        W80289  10.243  22.027  11.050
10475W        W80290  25.999  44.297  10.607
10476W        W80291  29.504   5.204  13.852
10477W        W80292  16.241  27.145   2.273
10478W        W80293  13.686  40.327  11.946
10479W        W80294  27.526   5.387  13.455
10480W        W80295   2.387   2.818   0.764
10481W        W80296  34.978   6.702   2.708
10482W        W80297   7.290  37.904   4.258
10483W        W80298  14.701  39.549  14.382
10484W        W80299  25.120  43.903   3.252
10485W        W80300  23.491  20.254   4.324
10486W        W80301  26.092  37.841  10.430
10487W        W80302  17.771  25.974  14.003
10488W        W80303  15.111   1.457  13.344
10489W        W80304  19.680   6.300   3.259
10490W        W80305   5.213  36.034   0.349
10491W        W80306  15.234  19.194   2.831
10492W        W80307  38.341  18.280   0.940
10493W        W80308  16.790  26.686   2.269
10494W        W80309  40.386  12.656  10.060
10495W        W80310  26.134  21.172   3.681
10496W        W80311  23.734  13.728  13.798
10497W        W80312  17.659  19.749  13.427
10498W        W80313  44.873  33.997  13.413
10499W        W80314  38.518  20.247   3.337
10500W        W80315   4.344  37.984  11.592
10501W        W80316  29.921  43.767  13.876
10502W        W80317  35.869  16.631  12.892
10503W        W80318   8.788  41.900   0.788
10504W        W80319  26.962   5.338  11.940
10505W        W80320  13.278   1.430  11.545
10506W        W80321   5.793   5.273  14.826
10507W        W80322  22.069  15.767   0.283
10508W        W80323  43.896  12.150   2.320
10509W        W80324  28.457  28.030   1.929
10510W        W80325  15.129   8.213   2.234
10511W        W80326  42.377  38.405  10.588
10512W        W80327  14.106  29.091   4.623
10513W        W80328  25.673  11.867  13.870
10514W        W80329  35.590  26.532   1.745
10515W        W80330  14.293  26.669   4.682
10516W        W80331  43.335  37.370   3.868
10517W        W80332  31.414   0.742   4.211
10518W        W80333  27.586  14.661  13.990
10519W        W80334  10.232  29.560  13.936
10520W        W80335  32.088   0.345   1.832
10521W        W80336   5.301   5.842  12.844
10522W        W80337  31.942  24.530  14.353
10523W        W80338  16.216  20.228  10.968
10524W        W80339  14.741  16.706   0.436
10525W        W80340   0.911   1.810   1.818
10526W        W80341  19.715  20.631  10.539
10527W        W80342  22.008  28.489   3.790
10528W        W80343  36.075  16.089   4.325
10529W        W80344  30.598   8.405   1.907
10530W        W80345  18.185  40.807   3.158
10531W        W80346  19.237   0.261   2.739
10532W        W80347   8.236  40.917  10.630
10533W        W80348   5.733  15.105   1.755
10534W        W80349  44.371  42.933   0.472
10535W        W80350  24.160   8.804  13.860
10536W        W80351  23.733  25.131   0.840
10537W        W80352   5.901  11.285   1.866
10538W        W80353   6.405  18.148  13.012
10539W        W80354  12.764  44.769  13.917
10540W        W80355  24.086  41.398  14.285
10541W        W80356  24.068  29.480  11.384
10542W        W80357   0.295  28.114  13.850
10543W        W80358  33.399  43.982   1.933
10544W        W80359  40.053  39.352  10.513
10545W        W80360   6.342  19.220  12.956
10546W        W80361   6.790  24.648   4.657
10547W        W80362   0.433  38.925   0.320
10548W        W80363   1.972  25.995   1.934
10549W        W80364  11.679  20.588  10.633
10550W        W80365   3.428  44.922  12.925
10551W        W80366  37.537  25.532   5.098
10552W        W80367  12.700   2.773  11.955
10553W        W80368  30.570  37.043   4.337
10554W        W80369  40.846   4.880   0.815
10555W        W80370  29.501  42.929  11.598
10556W        W80371  27.059  30.030  11.463
10557W        W80372  14.627  11.295   0.277
10558W        W80373  22.637  44.962   1.915
10559W        W80374  44.417  39.857   0.431
10560W        W80375  14.300  44.839   1.260
10561W        W80376  42.950  34.603  14.821
10562W        W80377  13.760  13.145  14.480
10563W        W80378   4.932   2.806  13.004
10564W        W80379   8.182  16.682   3.632
10565W        W80380  23.598  31.016   1.227
10566W        W80381  13.827   9.368   4.152
10567W        W80382  31.639  14.733   4.699
10568W        W80383  34.534   7.194   0.916
10569W        W80384   1.893  42.418  14.331
10570W        W80385  43.319  40.388  10.126
10571W        W80386  24.524   6.782   4.279
10572W        W80387  31.059  30.101  11.090
10573W        W80388  43.967  24.074   2.352
10574W        W80389  39.455  27.591   4.806
10575W        W80390  31.059   0.825   2.413
10576W        W80391  22.634   8.345  14.408
10577W        W80392  18.555  40.429  14.416
10578W        W80393   5.929  24.610  13.432
10579W        W80394  30.454   9.842  12.411
10580W        W80395  43.317  11.267   1.368
10581W        W80396   6.821  28.996  13.842
10582W        W80397  21.180  40.033   3.379
10583W        W80398  16.746  24.548  12.045
10584W        W80399  40.345  24.123   3.639
10585W        W80400  30.038   0.440  12.496
10586W        W80401  26.567  41.910  10.605
10587W        W80402  41.473  18.116   0.866
10588W        W80403   0.256  28.661   4.690
10589W        W80404  36.019  34.101   2.217
10590W        W80405  27.553  22.083   2.790
10591W        W80406  38.538   6.264  10.071
10592W        W80407  11.634   7.323  11.085
10593W        W80408  10.820  19.243  10.595
10594W        W80409  32.023  28.454   2.378
10595W        W80410  42.970  11.291  12.339
10596W        W80411  22.518  40.833   4.616
10597W        W80412   3.746  33.123   3.185
10598W        W80413  16.778  27.636   1.280
10599W        W80414   3.432   3.395   1.810
10600W        W80415  43.516  22.097  13.423
10601W        W80416  17.277  30.501   1.339
10602W        W80417   6.309   6.400   2.743
10603W        W80418  23.993   7.245   1.442
10604W        W80419  37.402  39.892  12.826
10605W        W80420  35.958  18.143  12.056
10606W        W80421  38.499  22.714   1.333
10607W        W80422  36.072  38.994   3.690
10608W        W80423  34.478  17.574   2.703
10609W        W80424  33.009  37.011  11.460
10610W        W80425   3.365  37.415  13.491
10611W        W80426   3.850   8.696  14.452
10612W        W80427  42.415  10.291   0.356
10613W        W80428  32.442  12.683  12.830
10614W        W80429  33.901  43.423  12.388
10615W        W80430  10.236  24.637   2.846
10616W        W80431  44.806  31.582   1.400
10617W        W80432  21.093  36.900   1.422
10618W        W80433  36.038  42.290   2.274
10619W        W80434  43.967  36.471  10.981
10620W        W80435  44.898  42.398  11.555
10621W        W80436  36.538   9.731  13.927
10622W        W80437   1.874  36.868  11.053
10623W        W80438  11.358  16.641  12.910
10624W        W80439  38.385  43.887  14.915
10625W        W80440  34.572  44.453   0.352
10626W        W80441  24.537  39.028  10.625
10627W        W80442   1.895  16.080   4.683
10628W        W80443  24.656  40.979   3.206
10629W        W80444   1.371  14.761  13.890
10630W        W80445  23.994  15.121  12.041
10631W        W80446  27.025  22.238   3.160
10632W        W80447  33.027  21.100   1.934
10633W        W80448  18.647  20.171  14.913
10634W        W80449  11.229  11.773  11.431
10635W        W80450  12.162  31.987  11.911
10636W        W80451   5.846  30.018  11.015
10637W        W80452  23.201  34.607   4.719
10638W        W80453  11.753  32.393  12.011
10639W        W80454  14.150  42.456   3.689
10640W        W80455   5.698  31.047   2.413
10641W        W80456   8.391   9.322  12.992
10642W        W80457  44.798  42.293   0.756
10643W        W80458  42.448  44.971   1.872
10644W        W80459  30.922   1.275  12.938
10645W        W80460  24.538  18.116  11.428
10646W        W80461  13.282   7.358  11.923
10647W        W80462   3.844  36.392  11.597
10648W        W80463  31.152   9.318  12.545
10649W        W80464  12.155   3.396   3.687
10650W        W80465  36.376  42.910   4.827
10651W        W80466  27.648  25.702  10.521
10652W        W80467  14.758  24.048   0.765
10653W        W80468   1.920  36.348   3.865
10654W        W80469  40.428  23.176  10.902
10655W        W80470  20.606  38.931  14.858
10656W        W80471  35.913  25.507   0.839
10657W        W80472  23.034  37.436  12.903
10658W        W80473  10.310  30.121   2.810
10659W        W80474  14.151   1.976   1.276
10660W        W80475  27.160  35.447  14.810
10661W        W80476  43.286  28.993  10.606
10662W        W80477   5.297  30.153  12.880
10663W        W80478  19.540   2.229   0.299
10664W        W80479  11.652  25.965   3.672
10665W        W80480  13.204  28.999  12.889
10666W        W80481   6.213  37.447  10.588
10667W        W80482   0.971  11.281  13.499
10668W        W80483   4.264  28.459  14.481
10669W        W80484  30.574  36.989  14.995
10670W        W80485  14.594  39.502   1.345
10671W        W80486   8.367  21.121  10.121
10672W        W80487  13.217   1.267  14.955
10673W        W80488  35.874  22.120   4.706
10674W        W80489  25.134   6.339  13.395
10675W        W80490  31.976  21.669  10.531
10676W        W80491  34.017  28.043   3.235
10677W        W80492  19.567  20.563   1.293
10678W        W80493   3.869   7.874   4.198
10679W        W80494  21.230  30.606  14.986
10680W        W80495  30.162  10.716   0.281
10681W        W80496  34.945  27.492  12.894
10682W        W80497  21.585  30.604  13.350
10683W        W80498  37.930  44.502  10.160
10684W        W80499  28.499  25.097  13.974
10685W        W80500  24.122  30.595  13.005
10686W        W80501  43.462  27.543  14.449
10687W        W80502  33.105  39.556  10.541
10688W        W80503  38.530  30.094   4.151
10689W        W80504  19.281  38.454   4.706
10690W        W80505   5.717  38.897   1.359
10691W        W80506  25.681  29.169  14.000
10692W        W80507  31.466  35.510   0.358
10693W        W80508  37.535  18.555  12.863
10694W        W80509  20.645  20.252  10.590
10695W        W80510  42.868  36.480  12.371
10696W        W80511  20.273  30.088   2.210
10697W        W80512  43.865  12.264  14.908
10698W        W80513  38.072   6.292   1.280
10699W        W80514  24.561  38.547   0.918
10700W        W80515  28.151  23.067  10.490
10701W        W80516  34.529   3.848   2.257
10702W        W80517  20.060  38.487  14.336
10703W        W80518  20.032  18.762  14.872
10704W        W80519  16.568  26.107  11.556
10705W        W80520  41.817  37.434  10.032
10706W        W80521  27.676  18.140  12.449
10707W        W80522  12.788  22.525   4.789
10708W        W80523  40.856  31.638   0.328
10709W        W80524  43.305  44.889  12.965
10710W        W80525   4.309   4.371  12.413
10711W        W80526  23.493  23.146   3.844
10712W        W80527  15.664  43.349   2.855
10713W        W80528  40.046   1.911  11.968
10714W        W80529  25.017  34.602  12.559
10715W        W80530  44.000   2.280  13.411
10716W        W80531  20.113   3.359   0.912
10717W        W80532  28.113  27.636  11.475
10718W        W80533  15.649  10.287   0.929
10719W        W80534   6.397   8.721  13.337
10720W        W80535  33.479  26.122  12.070
10721W        W80536   1.879   9.371  13.808
10722W        W80537   1.248  25.107  11.098
10723W        W80538   4.326  11.219   1.740
10724W        W80539  14.248  12.852  14.466
10725W        W80540   6.384   0.360  10.980
10726W        W80541  19.072  12.268   1.236
10727W        W80542  16.588  17.602   0.732
10728W        W80543  40.533  22.666   3.358
10729W        W80544  36.480   0.287  14.013
10730W        W80545  43.866  26.993  13.352
10731W        W80546  27.531  12.676  14.830
10732W        W80547  14.674  30.507   2.209
10733W        W80548  20.565  26.045   2.338
10734W        W80549  16.238  12.238   0.382
10735W        W80550   8.384  29.146   4.320
10736W        W80551  29.150  20.742   3.752
10737W        W80552  39.505  29.141   3.243
10738W        W80553  36.029   3.217   2.766
10739W        W80554  31.612  10.254  13.996
10740W        W80555  26.466  43.395   3.775
10741W        W80556  30.610   7.803   2.727
10742W        W80557  36.044  15.170   0.920
10743W        W80558  10.348  38.974  11.017
10744W        W80559  24.046  14.636   2.792
10745W        W80560  21.717  11.249   3.747
10746W        W80561   8.722  10.821  11.098
10747W        W80562  42.845  43.968  11.595
10748W        W80563  35.397  38.843  11.030
10749W        W80564  19.074  40.923   2.210
10750W        W80565  41.313   9.321   0.813
10751W        W80566  25.008  33.575   5.096
10752W        W80567  34.531  14.693   2.795
10753W        W80568   6.401  43.469   1.237
10754W        W80569  42.002   3.929   1.213
10755W        W80570  37.837  24.163  12.863
10756W        W80571  17.083  36.080  11.957
10757W        W80572  14.695  27.553  12.445
10758W        W80573  23.564   0.303  13.365
10759W        W80574   4.838  17.559  10.498
10760W        W80575  28.092   8.213  13.536
10761W        W80576  30.499   1.757  11.945
10762W        W80577   4.206  35.980  14.935
10763W        W80578   8.882  28.561  12.966
10764W        W80579   5.692   7.808  10.538
10765W        W80580  24.680  13.330   1.310
10766W        W80581  43.872  13.667   0.449
10767W        W80582   0.963  20.590  14.313
10768W        W80583   5.421   4.358   4.826
10769W        W80584  44.891  24.975   1.904
10770W        W80585  27.154  20.157   3.281
10771W        W80586  42.973  32.116  13.995
10772W        W80587   1.959   2.429  11.971
10773W        W80588   1.759  37.833   4.615
10774W        W80589  17.283  17.796  14.450
10775W        W80590  11.139  40.914  12.430
10776W        W80591  33.117  16.688   0.952
10777W        W80592  35.939  30.027  11.583
10778W        W80593  27.580  43.498  11.423
10779W        W80594  27.540  20.194   3.381
10780W        W80595  12.205  44.386   2.742
10781W        W80596  20.222  33.120  11.073
10782W        W80597  25.020  19.539   2.804
10783W        W80598  37.378  43.907  14.381
10784W        W80599  14.833  27.029   1.873
10785W        W80600   7.325   0.259   4.684
10786W        W80601  12.128  38.557   4.771
10787W        W80602   8.841  34.491   4.836
10788W        W80603  42.826  29.515  12.986
10789W        W80604  27.078  26.483  12.988
10790W        W80605  41.410  36.387  11.452
10791W        W80606  30.938   9.317  11.032
10792W        W80607  27.519  18.224   1.365
10793W        W80608   7.403  30.647  14.927
10794W        W80609  33.955  13.702  11.439
10795W        W80610  10.205   7.410  12.085
10796W        W80611   8.675  26.138  11.576
10797W        W80612  10.210  38.438   0.837
10798W        W80613  22.662  26.096  11.445
10799W        W80614  26.138  38.528  12.002
10800W        W80615   0.845   0.467  14.923
10801W        W80616   0.420  43.004  12.368
10802W        W80617  11.867  41.034  11.522
10803W        W80618  42.470  43.819   1.223
10804W        W80619  22.588   3.949  11.585
10805W        W80620  18.775  42.796   1.434
10806W        W80621   6.385  22.238   3.176
10807W        W80622  40.361   2.953   4.214
10808W        W80623  26.981  20.178   0.464
10809W        W80624  12.341  41.484   0.343
10810W        W80625  30.978   2.952   4.339
10811W        W80626  20.581  28.996   4.315
10812W        W80627  40.862  26.992  10.897
10813W        W80628   5.369  37.420   1.422
10814W        W80629  44.838  26.677   3.665
10815W        W80630  32.965  14.167  12.001
10816W        W80631  25.604  28.952  10.904
10817W        W80632  14.623  17.750   0.478
10818W        W80633  23.079  35.953  11.486
10819W        W80634   0.812  17.746  12.429
10820W        W80635  38.393   3.405   1.706
10821W        W80636   9.307  20.231   3.834
10822W        W80637  34.397  29.578   2.298
10823W        W80638   9.186  24.672  11.969
10824W        W80639  26.049  17.601  13.347
10825W        W80640  13.819  33.603  11.567
10826W        W80641   2.303  10.270   0.437
10827W        W80642  19.202  39.876  11.911
10828W        W80643  42.508  26.994  13.466
10829W        W80644  38.061  11.300   1.786
10830W        W80645  21.718  19.239  13.537
10831W        W80646  14.717  28.657  10.915
10832W        W80647  27.057  19.132  12.526
10833W        W80648   6.899  25.017  10.918
10834W        W80649  26.121  28.482   0.961
10835W        W80650  25.693   1.734  11.558
10836W        W80651  18.610  18.632  12.490
10837W        W80652  37.835  42.830   1.880
10838W        W80653  25.545  44.823  12.440
10839W        W80654  20.145   7.297  12.464
10840W        W80655  44.993   1.430  12.365
10841W        W80656  29.562  23.607   4.210
10842W        W80657  25.191  19.149   0.448
10843W        W80658   2.340  39.053   2.202
10844W        W80659  31.579  35.490  12.916
10845W        W80660   9.688  15.314   0.425
10846W        W80661  22.659  34.012  10.906
10847W        W80662  22.598   4.211  10.920
10848W        W80663  21.733  16.128  12.039
10849W        W80664  30.908  14.210  11.891
10850W        W80665   6.298  11.631  12.061
10851W        W80666  20.535  38.054   4.690
10852W        W80667  13.613  38.865  12.985
10853W        W80668  35.387  27.683   0.799
10854W        W80669   2.379  38.025  10.418
10855W        W80670   3.745  18.173   3.671
10856W        W80671  37.358   2.379   1.861
10857W        W80672  32.927   6.401   4.314
10858W        W80673  29.034  34.095  11.376
10859W        W80674   2.340   7.280   4.246
10860W        W80675  35.528   1.442  13.943
10861W        W80676  10.748  32.014   2.388
10862W        W80677  32.987  24.998  13.054
10863W        W80678  41.831  12.623   4.706
10864W        W80679  10.382  28.109  10.485
10865W        W80680   0.864  40.907   2.182
10866W        W80681  25.707   2.791  13.864
10867W        W80682  17.250  24.129   4.195
10868W        W80683  27.478  24.629  12.022
10869W        W80684   8.377  20.708   1.434
10870W        W80685  31.609  43.514   2.293
10871W        W80686  31.014  31.551  11.390
10872W        W80687  14.686   4.916   0.254
10873W        W80688  35.549  43.900   1.306
10874W        W80689   1.879  31.027   0.375
10875W        W80690  10.804  11.182  14.429
10876W        W80691  28.662  22.553  12.485
10877W        W80692  13.298  18.577   1.214
10878W        W80693  39.017   3.733   1.341
10879W        W80694  33.100  39.492   0.315
10880W        W80695  17.202  18.569   0.923
10881W        W80696  27.962  17.596   1.216
10882W        W80697  26.006  44.848   4.287
10883W        W80698  31.934  13.228   1.273
10884W        W80699  33.982  16.638  12.393
10885W        W80700  26.476   9.677  10.581
10886W        W80701   9.852  44.974  14.032
10887W        W80702  25.098   1.430  11.898
10888W        W80703  10.847  41.954   0.350
10889W        W80704  18.592  17.221  14.369
10890W        W80705   2.265  20.128   3.735
10891W        W80706  15.819   9.200   5.118
10892W        W80707  23.062   5.241  13.316
10893W        W80708  39.006   5.856   9.498
10894W        W80709  31.566   4.372  10.419
10895W        W80710   4.255   6.740   2.384
10896W        W80711  25.646  44.267   1.847
10897W        W80712  34.589   3.747  13.309
10898W        W80713   7.283  34.405  11.901
10899W        W80714  43.010  22.639  14.505
10900W        W80715  44.833  13.611  12.034
10901W        W80716  32.472  41.944   1.342
10902W        W80717  33.098  30.032  14.361
10903W        W80718  26.071  15.286   4.807
10904W        W80719   9.154   3.367  10.955
10905W        W80720   2.424  22.074  10.954
10906W        W80721  21.621  18.760  14.821
10907W        W80722  24.606  35.434   2.237
10908W        W80723  40.820   9.261   2.870
10909W        W80724  23.230  33.604  13.927
10910W        W80725  39.811  19.774   0.967
10911W        W80726   2.762   8.844  13.455
10912W        W80727  30.139  23.088   4.130
10913W        W80728  29.992  11.661  11.477
10914W        W80729  43.346  22.551   4.213
10915W        W80730  36.432  19.741  11.914
10916W        W80731  11.799  38.999  10.930
10917W        W80732  28.052  21.556   2.292
10918W        W80733  14.728  11.631   3.173
10919W        W80734  37.857  19.092   4.792
10920W        W80735  35.455  23.241  14.023
10921W        W80736   9.345  36.023  11.046
10922W        W80737   1.887   9.776   4.624
10923W        W80738  23.146  23.185   1.906
10924W        W80739  19.151  41.536   2.289
10925W        W80740  31.028  31.125  11.882
10926W        W80741  31.086  23.989   2.670
10927W        W80742  42.408  22.117  10.538
10928W        W80743  15.185  26.139  12.485
10929W        W80744   2.446  42.887   0.766
10930W        W80745  12.323  14.149  12.991
10931W        W80746  13.289  35.878   0.890
10932W        W80747  30.052  35.387  13.403
10933W        W80748  19.156  23.062  14.825
10934W        W80749  23.725  24.049   2.694
10935W        W80750  22.545  38.985  12.527
10936W        W80751  13.838  11.625  11.015
10937W        W80752  14.223  34.002  12.894
10938W        W80753  13.811  25.109  14.506
10939W        W80754  37.480   8.169  11.606
10940W        W80755  35.109  17.714  12.392
10941W        W80756  21.726  25.603   1.702
10942W        W80757   2.332   8.816  10.572
10943W        W80758   6.761  39.907  10.594
10944W        W80759  17.266  19.594  13.993
10945W        W80760  22.536  20.644  13.828
10946W        W80761  18.779   7.863   2.834
10947W        W80762  19.559  30.434  11.384
10948W        W80763  27.125  44.392  14.283
10949W        W80764  11.161  16.813   9.492
10950W        W80765  31.043   1.406   0.856
10951W        W80766   0.833  35.480  12.990
10952W        W80767  28.010  31.465  10.423
10953W        W80768  15.184  31.642  13.393
10954W        W80769  22.739  44.395  14.444
10955W        W80770  35.468  34.041  14.390
10956W        W80771  11.294  23.489   2.276
10957W        W80772   1.371   7.218  13.921
10958W        W80773  33.411   3.285   9.952
10959W        W80774   1.799  18.115   4.332
10960W        W80775   6.276  23.140  13.841
10961W        W80776  20.215  41.335   1.344
10962W        W80777   8.228  27.153  11.474
10963W        W80778   4.813   4.408  10.963
10964W        W80779  44.446  34.050   1.378
10965W        W80780  20.744  25.652   1.408
10966W        W80781  36.562  37.365   0.896
10967W        W80782   9.244  24.985  10.438
10968W        W80783  26.679  27.954   5.135
10969W        W80784  37.933  31.614   4.199
10970W        W80785  40.947   7.735   0.302
10971W        W80786  25.981  43.392  12.392
10972W        W80787  12.795  37.419   1.214
10973W        W80788  32.914  35.923   3.333
10974W        W80789  28.114  32.533  13.854
10975W        W80790   1.912  34.002  10.611
10976W        W80791  42.897  33.103   1.710
10977W        W80792  29.978  29.053   2.204
10978W        W80793  17.716  11.168   3.659
10979W        W80794  42.446  19.733   4.599
10980W        W80795  26.987   9.343   2.213
10981W        W80796  25.189  22.603   2.868
10982W        W80797  18.068  33.937   1.287
10983W        W80798  40.382   1.862   3.747
10984W        W80799   7.208  22.544   3.315
10985W        W80800  29.955  17.079  14.427
10986W        W80801   6.688  20.228  14.454
10987W        W80802  12.284  40.033  11.919
10988W        W80803   0.920  25.647  12.977
10989W        W80804  22.068  32.039   2.261
10990W        W80805  18.681  24.526   4.180
10991W        W80806  34.990  22.079   0.368
10992W        W80807  31.441  24.646  10.456
10993W        W80808  15.753  15.213   4.168
10994W        W80809  17.779   1.282   0.450
10995W        W80810  31.060  29.648  13.009
10996W        W80811  10.249   3.798  11.889
10997W        W80812  23.664   0.340   4.330
10998W        W80813  27.126  39.482  12.447
10999W        W80814  13.701   9.802   1.415
11000W        W80815  21.745  34.910   2.841
11001W        W80816  37.367  17.796   2.195
11002W        W80817   2.919  11.713   4.201
11003W        W80818   4.906  32.530  10.934
11004W        W80819  11.686   6.901  10.612
11005W        W80820   2.369   8.830  11.023
11006W        W80821  18.736   7.316   2.703
11007W        W80822   2.858   0.754   2.276
11008W        W80823  12.190  14.120   1.352
11009W        W80824  20.157  29.506  14.969
11010W        W80825  13.750   3.423   2.721
11011W        W80826  41.838  34.069   2.874
11012W        W80827  10.839  25.981   4.244
11013W        W80828  44.975   0.807  14.910
11014W        W80829  18.645  32.107   3.245
11015W        W80830  22.237   5.897  14.875
11016W        W80831   1.787   8.739   2.349
11017W        W80832  11.190  32.090   3.733
11018W        W80833  33.510   7.871  14.395
11019W        W80834   7.294   8.750   2.322
11020W        W80835   3.749   9.791  14.921
11021W        W80836   8.899  39.031  11.107
11022W        W80837  40.447   3.380   3.763
11023W        W80838  17.673   8.672   4.203
11024W        W80839   9.875  25.619   1.246
11025W        W80840  20.234   7.386   0.898
11026W        W80841  32.546   0.857   1.771
11027W        W80842  29.536  40.342  13.344
11028W        W80843  10.242   0.344  14.023
11029W        W80844   3.723  31.602   1.720
11030W        W80845  43.493  44.006  13.478
11031W        W80846  12.141  18.194  12.916
11032W        W80847  23.018   5.315  13.915
11033W        W80848  22.630   8.726  14.957
11034W        W80849  20.166   1.886  11.469
11035W        W80850  11.153  12.165  11.022
11036W        W80851  17.286  26.658   3.285
11037W        W80852  25.539  32.466   4.799
11038W        W80853  16.616   4.767  14.882
11039W        W80854   7.903  43.854  12.972
11040W        W80855   9.200  42.314  14.465
11041W        W80856  17.558   9.388  11.922
11042W        W80857  29.067  20.707  14.834
11043W        W80858  40.439  31.469   2.251
11044W        W80859  29.430  39.534  14.790
11045W        W80860   3.794  13.755   3.706
11046W        W80861  40.013  24.710  13.528
11047W        W80862  28.590  41.372  12.493
11048W        W80863  25.627  22.603   3.331
11049W        W80864  37.086   8.672  13.429
11050W        W80865  11.827  42.026   2.340
11051W        W80866  25.685  23.604  14.458
11052W        W80867  20.070  32.019  14.823
11053W        W80868  19.098  37.952   4.268
11054W        W80869  25.614   4.897  11.119
11055W        W80870  27.616  19.143  14.299
11056W        W80871  39.491  25.022  12.851
11057W        W80872   3.358  37.892   0.954
11058W        W80873  26.508  10.860   4.786
11059W        W80874  28.648  16.086  10.913
11060W        W80875  14.600  30.610  13.335
11061W        W80876  19.671  21.246   4.675
11062W        W80877  40.406  24.989   2.878
11063W        W80878   8.766  14.308  12.917
11064W        W80879  24.583  39.045  13.833
11065W        W80880  10.632  21.107   0.275
11066W        W80881  28.649   9.660  13.372
11067W        W80882  30.013  23.493  12.434
11068W        W80883  31.584  10.352   4.155
11069W        W80884  26.500  20.532   3.662
11070W        W80885  33.972   7.270   2.299
11071W        W80886  31.145  24.171   3.209
11072W        W80887  16.151  34.600   2.339
11073W        W80888  10.638   9.740  11.419
11074W        W80889  41.427  22.165  11.957
11075W        W80890  39.830   2.868   3.656
11076W        W80891   5.213  13.647  10.917
11077W        W80892  24.514  20.591  13.823
11078W        W80893  44.378  29.632   0.736
11079W        W80894   8.691  44.272  13.892
11080W        W80895  41.018  40.993   4.656
11081W        W80896  20.572  34.578   2.416
11082W        W80897  12.804  30.545  11.609
11083W        W80898  16.648  20.722  12.518
11084W        W80899  31.405  36.859   1.330
11085W        W80900  22.113  18.126  13.433
11086W        W80901  18.150   4.743  12.871
11087W        W80902  19.726  38.360  12.059
11088W        W80903  23.184  30.112   0.269
11089W        W80904  32.594  40.029  11.032
11090W        W80905   1.814   0.321   0.956
11091W        W80906   3.352  41.890   4.821
11092W        W80907  29.140  14.611   2.789
11093W        W80908  37.400  33.028   1.758
11094W        W80909  42.852  12.147  13.438
11095W        W80910  27.691  12.626   0.939
11096W        W80911   9.769   0.986  14.429
11097W        W80912  16.641  37.969  12.008
11098W        W80913  31.998  10.277   4.794
11099W        W80914  11.713  27.661  10.556
11100W        W80915  34.395   5.379   2.222
11101W        W80916  31.414   4.414   2.737
11102W        W80917  34.545   8.867  13.308
11103W        W80918  11.357   1.868   2.226
11104W        W80919  34.462  26.668   1.215
11105W        W80920  36.569  18.226   4.659
11106W        W80921  36.574   7.251   3.147
11107W        W80922  21.187  21.085   0.879
11108W        W80923  18.771  22.049  13.321
11109W        W80924  19.750  27.491   4.300
11110W        W80925   5.420  27.988   1.736
11111W        W80926  13.127  21.101  10.095
11112W        W80927  15.620   3.389  11.878
11113W        W80928  12.622  25.502   0.452
11114W        W80929  15.680  33.543  12.394
11115W        W80930  32.621  14.295  11.087
11116W        W80931  28.035   7.735   0.301
11117W        W80932  44.376   2.383   3.374
11118W        W80933  22.188  39.410   0.779
11119W        W80934  22.627  10.347   4.140
11120W        W80935   2.363   0.372   1.427
11121W        W80936  15.748  35.055   4.206
11122W        W80937  35.507   9.268  13.394
11123W        W80938  30.526   1.413  10.953
11124W        W80939  15.176  12.719  10.589
11125W        W80940  19.599  42.937  11.123
11126W        W80941  15.822   9.878   0.736
11127W        W80942  19.619  37.033   1.339
11128W        W80943  23.578  40.030  13.948
11129W        W80944  39.977  30.552  10.500
11130W        W80945   4.758  35.001   3.371
11131W        W80946   7.303  19.165  10.441
11132W        W80947  15.216  32.065  14.477
11133W        W80948  11.149  28.603   0.788
11134W        W80949  14.161  10.726   1.231
11135W        W80950  26.040   5.295   0.925
11136W        W80951   4.249  37.044  10.543
11137W        W80952  18.205   3.415   3.696
11138W        W80953   5.752  28.072   1.432
11139W        W80954  27.445  32.981  12.023
11140W        W80955  18.644  10.160   2.807
11141W        W80956  10.782   9.835  10.958
11142W        W80957   5.220  28.071   4.691
11143W        W80958   8.782  36.860  13.841
11144W        W80959   3.792  21.756  11.918
11145W        W80960  34.371  31.441  13.496
11146W        W80961  19.597  17.608   3.731
11147W        W80962   7.864  19.081  12.444
11148W        W80963  14.767  25.677  10.505
11149W        W80964  23.094  35.983   2.864
11150W        W80965   6.815  20.149   2.751
11151W        W80966  10.740  43.874  11.019
11152W        W80967  35.900  39.826   3.245
11153W        W80968  33.005  20.040   1.336
11154W        W80969  34.551  27.562   0.922
11155W        W80970   9.365  37.005   0.244
11156W        W80971  11.320  31.119  12.902
11157W        W80972  22.619  11.173  10.995
11158W        W80973  26.466   2.341  11.553
11159W        W80974   2.469  42.326   1.888
11160W        W80975  30.618  30.057  14.813
11161W        W80976  36.957  23.503  14.409
11162W        W80977  21.591  30.163   1.794
11163W        W80978  22.104  36.586   2.818
11164W        W80979  36.469  13.125   2.253
11165W        W80980  21.128  11.708  10.919
11166W        W80981  17.745   9.770  11.535
11167W        W80982  19.643   0.856   3.677
11168W        W80983  30.031  17.682  11.460
11169W        W80984  20.583   3.299  12.443
11170W        W80985  39.919  31.527  10.564
11171W        W80986  20.150  29.500   0.284
11172W        W80987  13.748  20.202   1.271
11173W        W80988  40.918   4.907  10.632
11174W        W80989  22.721  14.728  13.977
11175W        W80990  20.522  24.110   4.642
11176W        W80991  17.150  40.852  14.506
11177W        W80992  20.177   7.210   3.846
11178W        W80993  12.294  43.357  12.497
11179W        W80994  32.956  44.283  14.295
11180W        W80995  35.593  27.981   3.855
11181W        W80996   5.930   2.856   1.259
11182W        W80997  29.669   6.388   4.688
11183W        W80998  26.458   3.367   3.642
11184W        W80999  10.853   5.419  12.393
11185W        W81000  26.512  16.221   0.254
11186W        W81001   0.818  26.530  10.993
11187W        W81002   4.903   8.716   2.848
11188W        W81003  18.226  11.282   2.751
11189W        W81004  14.219  24.069  13.907
11190W        W81005  27.965  12.693   0.325
11191W        W81006  42.429  15.817   1.711
11192W        W81007  14.097  34.468   3.205
11193W        W81008  27.121   8.270   1.727
11194W        W81009  28.622  27.608   2.387
11195W        W81010  16.771   5.698   3.777
11196W        W81011  34.887  29.468   4.146
11197W        W81012  28.932  28.990   4.767
11198W        W81013  24.596  30.130   2.284
11199W        W81014   0.911  36.911   0.757
11200W        W81015  38.539  43.975  13.925
11201W        W81016   8.700  11.726   2.341
11202W        W81017  43.959   4.361  12.539
11203W        W81018   3.409  29.918   1.754
11204W        W81019  13.210  13.794   0.297
11205W        W81020   0.981   9.772   0.469
11206W        W81021  32.944  26.080  12.485
11207W        W81022  43.484   8.794  14.306
11208W        W81023  23.554  14.812  11.414
11209W        W81024  12.782  14.628   0.477
11210W        W81025  42.993   8.386   4.194
11211W        W81026  35.867   7.222   4.213
11212W        W81027   5.913  44.885  14.031
11213W        W81028   1.467  17.746   3.254
11214W        W81029  40.957  34.911  11.979
11215W        W81030  40.831  35.990  10.408
11216W        W81031  35.438  33.515  14.396
11217W        W81032  18.721  17.149  13.466
11218W        W81033  15.209  29.499  12.056
11219W        W81034   5.315  35.557  11.986
11220W        W81035  28.972  21.524  12.927
11221W        W81036  20.036  29.121  10.412
11222W        W81037  13.641  10.226   1.333
11223W        W81038  27.183  38.030  12.060
11224W        W81039  11.319  15.192   0.852
11225W        W81040   0.754  25.205  13.965
11226W        W81041  25.707  29.427  10.903
11227W        W81042  37.478  17.209   2.182
11228W        W81043  24.588   3.730   0.782
11229W        W81044   4.416  40.487   3.868
11230W        W81045  37.882  44.375   0.786
11231W        W81046  42.400  34.598  11.868
11232W        W81047  34.912  19.259   4.165
11233W        W81048   9.315  38.388  11.474
11234W        W81049  41.299  27.063  12.548
11235W        W81050  34.006  19.605   3.669
11236W        W81051   6.227  35.987   5.262
11237W        W81052  37.511  35.481   2.709
11238W        W81053  21.097  42.424  11.084
11239W        W81054  12.152  38.873  11.061
11240W        W81055  32.396  41.436  13.364
11241W        W81056  37.992  15.254   0.361
11242W        W81057   5.794  42.474  14.879
11243W        W81058  35.871   6.765  13.876
11244W        W81059  22.637  23.672   0.351
11245W        W81060  13.821   5.761   1.794
11246W        W81061  26.004  27.155  11.435
11247W        W81062  23.570  11.262  13.885
11248W        W81063  43.411   8.298  12.872
11249W        W81064   1.332   0.890  10.924
11250W        W81065  31.965  23.734  12.352
11251W        W81066  44.864  32.141   0.323
11252W        W81067  33.987   1.811  12.425
11253W        W81068   5.843  39.403  13.965
11254W        W81069  39.535   0.258  11.128
11255W        W81070   3.748  19.577  10.590
11256W        W81071  28.160   4.231   1.341
11257W        W81072  19.256  38.347  12.543
11258W        W81073  13.791  40.327  11.124
11259W        W81074  43.846  32.056  11.506
11260W        W81075  16.633  19.597  14.855
11261W        W81076   8.706  12.789   1.763
11262W        W81077  19.158   7.846   4.290
11263W        W81078  40.005  24.707   4.297
11264W        W81079   4.809  24.216   3.334
11265W        W81080  17.181  29.598  14.474
11266W        W81081   8.749  43.848  12.824
11267W        W81082  14.106  38.072   2.873
11268W        W81083  20.043  12.634   4.837
11269W        W81084  30.945  44.367   4.330
11270W        W81085  10.758  25.214  10.422
11271W        W81086   7.834   6.818   3.693
11272W        W81087  13.185  11.659   3.769
11273W        W81088  28.623  38.425   2.245
11274W        W81089  44.849  12.252  13.504
11275W        W81090  25.106  15.257   3.841
11276W        W81091  27.522  17.074  13.041
11277W        W81092  12.812   9.754   3.827
11278W        W81093  11.266  28.588  13.838
11279W        W81094  15.181  44.277   1.789
11280W        W81095  40.544  44.965  14.029
11281W        W81096  34.400  25.614   3.256
11282W        W81097  10.159  36.364   3.731
11283W        W81098  16.163  24.211  11.465
11284W        W81099  12.676  27.450   1.762
11285W        W81100   8.883  14.685  14.882
11286W        W81101  27.670  40.803   1.865
11287W        W81102  29.581  27.577  13.920
11288W        W81103  31.514  14.675   3.840
11289W        W81104  38.965  17.139   3.332
11290W        W81105  41.426  30.519   1.273
11291W        W81106  30.096   9.344  10.492
11292W        W81107   3.771  23.101  12.366
11293W        W81108  17.694  42.457   4.326
11294W        W81109  16.207  21.047  10.528
11295W        W81110  23.120  26.988   0.765
11296W        W81111   9.190  29.006   2.358
11297W        W81112  21.171  18.151  10.625
11298W        W81113  21.215  41.892   2.669
11299W        W81114  23.153  27.579  14.301
11300W        W81115   1.816   0.932  14.471
11301W        W81116  10.153  14.319  12.430
11302W        W81117  14.667  27.468   1.425
11303W        W81118  38.949  19.675  14.989
11304W        W81119  18.181  31.405   2.786
11305W        W81120   3.845  36.514  13.968
11306W        W81121   7.760  35.386   0.728
11307W        W81122  37.038   0.875  12.048
11308W        W81123  27.950   3.367   5.159
11309W        W81124   4.408  40.902  14.505
11310W        W81125  12.636  31.028  12.842
11311W        W81126  44.886   8.161  12.354
11312W        W81127  39.538  23.214   2.266
11313W        W81128   4.438  33.030   3.373
11314W        W81129  13.187  27.006   3.384
11315W        W81130  21.067  23.064   2.391
11316W        W81131  23.028  36.887  11.419
11317W        W81132   4.732  14.776  14.435
11318W        W81133   2.260   7.249   4.827
11319W        W81134  42.378   1.929  12.092
11320W        W81135  10.713  37.913  12.493
11321W        W81136  11.845  16.092  14.834
11322W        W81137   6.297   8.161  14.016
11323W        W81138   6.350  42.891  13.845
11324W        W81139  21.211   5.407   0.772
11325W        W81140  44.989  35.412   0.371
11326W        W81141  40.547  26.032   0.250
11327W        W81142  16.806   1.837  11.978
11328W        W81143   8.865  27.976  10.574
11329W        W81144  30.134  31.003  11.950
11330W        W81145  33.544  29.116   4.258
11331W        W81146  21.230  40.354   1.246
11332W        W81147   4.851   0.420   4.613
11333W        W81148  18.050  32.076   9.966
11334W        W81149  31.898  32.392   0.447
11335W        W81150  31.910  44.418  14.817
11336W        W81151  34.452  42.346  12.434
11337W        W81152   3.253   5.294  11.571
11338W        W81153  12.172  36.384   0.835
11339W        W81154  13.258  17.187  13.884
11340W        W81155   7.800  14.130   0.801
11341W        W81156  42.836  20.231   3.726
11342W        W81157  29.487  28.038  10.900
11343W        W81158  35.422  20.056   1.219
11344W        W81159  38.854  18.646   4.167
11345W        W81160   9.752  19.195  11.441
11346W        W81161  24.050  40.898  12.826
11347W        W81162  42.025  44.880  11.450
11348W        W81163   2.355  28.563   3.783
11349W        W81164  44.323   1.470  14.295
11350W        W81165  21.670  37.522   5.201
11351W        W81166  21.673   0.765  11.117
11352W        W81167   0.782  30.154  10.909
11353W        W81168  31.098  18.286  14.955
11354W        W81169  13.793  35.070   0.868
11355W        W81170  23.507  12.152   3.381
11356W        W81171  40.443  38.970  11.497
11357W        W81172  37.526  26.063   3.262
11358W        W81173  33.026  32.133   0.860
11359W        W81174  41.039  25.076  11.002
11360W        W81175  44.435  33.577  10.545
11361W        W81176  43.970  39.406   3.661
11362W        W81177   4.349   0.977  12.854
11363W        W81178  27.016  27.129  10.894
11364W        W81179  24.723   6.194  13.999
11365W        W81180   4.807  34.938   1.843
11366W        W81181   0.879  34.576   0.905
11367W        W81182   0.768  13.649  14.477
11368W        W81183  14.309  20.758  11.096
11369W        W81184  11.633  43.814  14.298
11370W        W81185   1.787   8.810   4.815
11371W        W81186  41.454  43.300   4.310
11372W        W81187  23.657  40.504   1.309
11373W        W81188  33.894  41.834  13.860
11374W        W81189   2.957  29.126   4.678
11375W        W81190  29.133   1.479   2.413
11376W        W81191  37.015  30.427  14.334
11377W        W81192   8.288  10.159  14.963
11378W        W81193  25.059  21.018  13.896
11379W        W81194   5.897   9.284  11.475
11380W        W81195   3.721   2.424  11.504
11381W        W81196  19.082  27.500  11.479
11382W        W81197  30.965   8.348  11.595
11383W        W81198  11.830  27.481   1.312
11384W        W81199  20.077  31.087   0.461
11385W        W81200  14.210   1.768  11.430
11386W        W81201  11.335  19.241  13.809
11387W        W81202   5.323  28.991  13.848
11388W        W81203   0.302  19.246  11.965
11389W        W81204  26.207   3.894   1.287
11390W        W81205   1.947   5.895   2.735
11391W        W81206  38.537  19.074   0.964
11392W        W81207  41.921  16.214   1.920
11393W        W81208  22.687  38.412  12.459
11394W        W81209  12.691  18.715   3.860
11395W        W81210  21.203  17.167  12.497
11396W        W81211  32.979  15.585  13.005
11397W        W81212  10.179  41.957  10.523
11398W        W81213  20.179  36.484  11.117
11399W        W81214  14.593  20.136  10.577
11400W        W81215  38.427  13.762   3.724
11401W        W81216  13.205  20.190  10.601
11402W        W81217  19.165  41.400   4.175
11403W        W81218  22.563  23.581  12.950
11404W        W81219  23.505  42.376   2.288
11405W        W81220  17.682   5.288   2.281
11406W        W81221  42.308  21.571  12.921
11407W        W81222  43.414   9.648  13.013
11408W        W81223  32.634  21.588  12.387
11409W        W81224  28.486  30.977   2.720
11410W        W81225  30.062  27.092  13.935
11411W        W81226  42.299  29.584   0.833
11412W        W81227  12.624  30.449  11.072
11413W        W81228  40.869  33.083   1.765
11414W        W81229  17.218  24.214  13.807
11415W        W81230  17.680   4.313   2.348
11416W        W81231  42.908  43.974  13.542
11417W        W81232   8.810  40.413  12.071
11418W        W81233   2.268  24.135   0.929
11419W        W81234  44.325  14.304   0.337
11420W        W81235  41.308  29.116   0.763
11421W        W81236  34.929  18.066  11.891
11422W        W81237  12.260   2.355  14.285
11423W        W81238  36.059   8.194  13.349
11424W        W81239  11.186  21.029   0.744
11425W        W81240  27.510  44.440  12.830
11426W        W81241  18.565  27.966   4.814
11427W        W81242  20.083  19.689  10.521
11428W        W81243   4.346  27.555   4.285
11429W        W81244  22.145  10.149   0.261
11430W        W81245  22.652  15.648   2.867
11431W        W81246   1.766  13.845   3.822
11432W        W81247   2.248   8.890   3.745
11433W        W81248   2.251  33.507  14.458
11434W        W81249  21.630  12.650   4.676
11435W        W81250  22.118  13.814   3.849
11436W        W81251  43.864   1.292  12.510
11437W        W81252  14.136  19.724   2.808
11438W        W81253   3.328  40.845  13.954
11439W        W81254   9.219   2.736   4.624
11440W        W81255   7.188   9.295  13.411
11441W        W81256  22.650  38.370  12.848
11442W        W81257   6.762  12.807  14.376
11443W        W81258  34.581  27.681   2.894
11444W        W81259  15.618  34.454  12.482
11445W        W81260  27.048   6.681   2.665
11446W        W81261  21.672  31.561  11.431
11447W        W81262  20.195  23.195   4.745
11448W        W81263   4.209  17.176  12.428
11449W        W81264  12.284   1.241  11.599
11450W        W81265  15.601  14.617  10.460
11451W        W81266  19.616  38.448  14.971
11452W        W81267   7.362  37.434  12.059
11453W        W81268  26.038  22.007  13.336
11454W        W81269  18.078  21.732  14.785
11455W        W81270  42.511  24.696  12.035
11456W        W81271  39.031  34.983  14.439
11457W        W81272  26.560   0.304  10.070
11458W        W81273  24.687  37.448   2.286
11459W        W81274  16.296  10.283   1.263
11460W        W81275   2.815  35.081   2.666
11461W        W81276   4.816  11.336  13.497
11462W        W81277  44.259  33.416   1.798
11463W        W81278   7.689  27.606   4.610
11464W        W81279   7.292  27.658   0.339
11465W        W81280  40.340   7.810   3.197
11466W        W81281  22.062  21.526   0.375
11467W        W81282   3.902  15.125   1.441
11468W        W81283  26.028  26.084  14.000
11469W        W81284  22.717  30.028  14.881
11470W        W81285  32.945   4.755   4.833
11471W        W81286  40.877  22.609   0.350
11472W        W81287  33.928  23.517  10.597
11473W        W81288  44.797  15.588   1.297
11474W        W81289  23.193  28.969   0.910
11475W        W81290  39.876   1.777   3.305
11476W        W81291  39.416  10.373   0.248
11477W        W81292  37.895  40.490  14.919
11478W        W81293  17.161  29.546  12.950
11479W        W81294  23.202  23.523   3.794
11480W        W81295  32.023  39.991   1.285
11481W        W81296   4.211   1.864   1.749
11482W        W81297   5.423  31.929  11.578
11483W        W81298  31.049  40.378   1.903
11484W        W81299  15.225  27.659   3.315
11485W        W81300  40.520  19.065  14.412
11486W        W81301  43.916  33.920   3.213
11487W        W81302  17.760  27.980   0.433
11488W        W81303  22.555  11.268   3.212
11489W        W81304  18.605  17.117  11.876
11490W        W81305  24.169  27.482  14.429
11491W        W81306  30.940   2.418  13.064
11492W        W81307  24.675   6.901  10.631
11493W        W81308  38.485   7.208  13.518
11494W        W81309   2.835  26.102   0.302
11495W        W81310  44.950  21.166  11.954
11496W        W81311  29.000  11.776  10.467
11497W        W81312   7.820  32.605   4.657
11498W        W81313   3.776   6.815  12.067
11499W        W81314  17.802  25.038   2.743
11500W        W81315   9.214  18.146   1.308
11501W        W81316  41.461  34.963   0.815
11502W        W81317  22.633  38.543   1.935
11503W        W81318  13.798  35.593  14.412
11504W        W81319  20.666  30.911  14.445
11505W        W81320  42.323  13.169  14.957
11506W        W81321  39.387   5.437   2.809
11507W        W81322  33.064   8.271   3.808
11508W        W81323  30.592   4.853   2.861
11509W        W81324   5.719  22.671   0.376
11510W        W81325  31.499  27.584   2.284
11511W        W81326   0.489  30.138   0.474
11512W        W81327  28.536  28.562  13.800
11513W        W81328  41.374  20.096   4.654
11514W        W81329  25.660  14.107  10.982
11515W        W81330  32.501   4.408  12.969
11516W        W81331  21.176  36.980   3.246
11517W        W81332  10.162   3.915   4.128
11518W        W81333  13.757  19.544  10.473
11519W        W81334   2.280   0.819  10.157
11520W        W81335  31.084  21.052   0.890
11521W        W81336  31.150  28.047  13.414
11522W        W81337  44.912  41.020   2.291
11523W        W81338  40.996   8.207  13.851
11524W        W81339   3.236  11.817   3.172
11525W        W81340  13.673  32.477  12.372
11526W        W81341   9.242  25.619   0.414
11527W        W81342  18.268  12.698  13.376
11528W        W81343   3.384   3.746  13.985
11529W        W81344  26.590   4.914   3.667
11530W        W81345  10.680   6.291  13.495
11531W        W81346  43.829  27.999  13.453
11532W        W81347  27.942   3.313  14.902
11533W        W81348  36.876  14.210  10.559
11534W        W81349  38.862  17.557  11.117
11535W        W81350  31.040   5.720  12.034
11536W        W81351  35.993  40.450  13.869
11537W        W81352  35.863  38.408   3.838
11538W        W81353  22.654  28.569  10.991
11539W        W81354   7.258  19.182   4.696
11540W        W81355  30.485  19.165   3.321
11541W        W81356  42.965  21.582  13.515
11542W        W81357  42.353  44.371   3.862
11543W        W81358  24.626  20.269   3.258
11544W        W81359  39.427   8.394   4.603
11545W        W81360  38.983   9.680   1.884
11546W        W81361  22.738  26.958  11.075
11547W        W81362   1.862  11.232  14.031
11548W        W81363  38.032  32.974   4.255
11549W        W81364   6.854  15.172   4.707
11550W        W81365  28.515  15.723   4.250
11551W        W81366  32.998   8.267  13.055
11552W        W81367  31.537  18.112  10.615
11553W        W81368  20.060  27.964  12.463
11554W        W81369  13.291  32.440  13.464
11555W        W81370   0.379  28.464   2.382
11556W        W81371   2.428   2.862   4.339
11557W        W81372   7.336   5.855   3.636
11558W        W81373  38.822  39.847  10.612
11559W        W81374  41.530  38.886   5.201
11560W        W81375  17.747  41.425  10.453
11561W        W81376  18.169  34.374   0.383
11562W        W81377  24.485  38.387  13.970
11563W        W81378  21.087  20.595  11.574
11564W        W81379  31.431  22.727  11.595
11565W        W81380   3.916  31.062  12.977
11566W        W81381   8.685  34.904  11.125
11567W        W81382  26.151  24.525  11.468
11568W        W81383  21.578  12.621  12.978
11569W        W81384   7.303  39.358  13.353
11570W        W81385  20.064   2.430   1.812
11571W        W81386  39.457  41.786  10.985
11572W        W81387  19.710  44.478  13.437
11573W        W81388  20.602  40.316  13.960
11574W        W81389  23.528  44.273   1.390
11575W        W81390  40.340  27.086  11.576
11576W        W81391   6.207   5.888  12.897
11577W        W81392  22.600  37.910   3.288
11578W        W81393  21.092   2.318   1.919
11579W        W81394   0.304  16.676   4.253
11580W        W81395  41.466   0.869   0.739
11581W        W81396   1.343  36.410   2.878
11582W        W81397  34.969  27.110  10.495
11583W        W81398  28.439  30.470   3.311
11584W        W81399  28.047  37.879  14.762
11585W        W81400  44.298   8.771  12.979
11586W        W81401  16.220  43.353   4.196
11587W        W81402  39.452  28.071   3.282
11588W        W81403  22.507  30.115   3.372
11589W        W81404  38.373  34.576  14.491
11590W        W81405  21.225  31.931  14.801
11591W        W81406  11.295  11.193  11.059
11592W        W81407   9.280  36.947  12.061
11593W        W81408  24.530  16.660  10.970
11594W        W81409   6.423   2.451   4.641
11595W        W81410  37.073  38.548  12.946
11596W        W81411  13.258  21.221   0.391
11597W        W81412  25.584  41.416  11.036
11598W        W81413  21.518  19.096  14.853
11599W        W81414  28.505   7.752   2.234
11600W        W81415   2.265  25.564   0.731
11601W        W81416   5.928   5.916   2.292
11602W        W81417  33.481  40.525  12.911
11603W        W81418  40.822  29.648  12.063
11604W        W81419  32.408  41.531   1.214
11605W        W81420  11.661  32.608  12.987
11606W        W81421   6.717  23.214   3.258
11607W        W81422  19.711  13.636  13.988
11608W        W81423  20.739  14.235   1.774
11609W        W81424   3.297  12.767  14.965
11610W        W81425  42.832  20.158  11.446
11611W        W81426   9.338   0.955   4.723
11612W        W81427  17.171  37.982   1.798
11613W        W81428  32.937  40.813   1.854
11614W        W81429  31.119  11.331   4.801
11615W        W81430  41.327  27.124   0.752
11616W        W81431   4.275  20.650   3.786
11617W        W81432  39.987  35.967   2.894
11618W        W81433  40.935  44.989   2.675
11619W        W81434  30.538  22.527   5.175
11620W        W81435  14.721  20.197  12.075
11621W        W81436  21.212   0.253   4.806
11622W        W81437  16.251  39.478   3.732
11623W        W81438  33.094  17.663   0.746
11624W        W81439  19.767  31.962  13.997
11625W        W81440  24.020  31.583  11.406
11626W        W81441  42.026  40.018   3.187
11627W        W81442  42.960  25.017  14.988
11628W        W81443  27.463   4.882  14.801
11629W        W81444  35.475  43.319  13.341
11630W        W81445  41.373  16.184  12.459
11631W        W81446   9.367   9.299  12.914
11632W        W81447  32.131   9.755  13.877
11633W        W81448  38.848  33.108   2.363
11634W        W81449  34.597  12.296   4.120
11635W        W81450  26.209  38.965  13.939
11636W        W81451   7.283  36.003   2.736
11637W        W81452  41.399   0.867  12.827
11638W        W81453   3.308  38.484   4.167
11639W        W81454  31.915  32.915  12.424
11640W        W81455  18.773   2.959  12.097
11641W        W81456  37.070  41.978  10.922
11642W        W81457   3.381  11.670  14.929
11643W        W81458   1.362  16.737  11.902
11644W        W81459  19.751  43.938  13.455
11645W        W81460  27.548  28.989   2.325
11646W        W81461  14.328   4.790   3.807
11647W        W81462  39.816   8.345   5.165
11648W        W81463  24.015  25.503  11.453
11649W        W81464  44.326  11.805   3.295
11650W        W81465  30.537   7.708   2.405
11651W        W81466  41.921  42.307  13.885
11652W        W81467  27.097   6.240   4.606
11653W        W81468   5.340  13.827  12.509
11654W        W81469  41.940  14.706  12.542
11655W        W81470   5.231   4.337   2.288
11656W        W81471  27.471   9.809  11.047
11657W        W81472  39.827   4.415  11.877
11658W        W81473  32.913  13.661   4.770
11659W        W81474  27.102  15.227   1.736
11660W        W81475   2.347  24.592   0.840
11661W        W81476  40.410   4.923   0.961
11662W        W81477   4.833  41.460  14.998
11663W        W81478  41.839  28.089  13.463
11664W        W81479  22.674  40.000   4.719
11665W        W81480   2.444  30.987  13.966
11666W        W81481  24.127  38.895  10.435
11667W        W81482  37.380   5.284  10.461
11668W        W81483  27.458  42.459   0.926
11669W        W81484  24.014  34.113  13.805
11670W        W81485  36.055  15.111  11.955
11671W        W81486   1.413  28.546   1.826
11672W        W81487  16.251  26.458  13.375
11673W        W81488  18.271  42.862  12.879
11674W        W81489   8.874  17.129   0.729
11675W        W81490  33.462  20.730   4.821
11676W        W81491  41.017   1.947   3.796
11677W        W81492  44.939   0.832   4.259
11678W        W81493  43.323  30.134  12.556
11679W        W81494  28.173  28.672   0.946
11680W        W81495  29.020   7.766   0.341
11681W        W81496  44.439  11.325  12.830
11682W        W81497  37.978  24.684  10.608
11683W        W81498  12.201   1.393  12.450
11684W        W81499  18.722  44.276  14.816
11685W        W81500  13.290  24.548  13.402
11686W        W81501  22.020  18.087   3.386
11687W        W81502  42.468  11.353   3.682
11688W        W81503  21.232  36.910  13.004
11689W        W81504  37.972  23.011   1.825
11690W        W81505  21.094  39.557  10.403
11691W        W81506   7.416  28.518   2.853
11692W        W81507  24.482  38.416   1.268
11693W        W81508  18.681  25.201   0.875
11694W        W81509   1.371  29.592   4.634
11695W        W81510  17.249   4.884  12.446
11696W        W81511  40.373   1.347  10.454
11697W        W81512  29.604   1.819  14.005
11698W        W81513  26.459  32.906   4.670
11699W        W81514  21.112  39.023   5.146
11700W        W81515  10.683  31.950  13.311
11701W        W81516  41.444   4.440  10.634
11702W        W81517  14.117  27.947   0.382
11703W        W81518  34.113   8.672   1.451
11704W        W81519  33.954  11.852   2.736
11705W        W81520  36.572  34.089  12.418
11706W        W81521  29.125  27.646   0.319
11707W        W81522  42.988  26.485   0.769
11708W        W81523  19.219  16.599  12.579
11709W        W81524  36.581   1.744   5.202
11710W        W81525  22.544  16.787   4.719
11711W        W81526  31.917  41.327  11.955
11712W        W81527  12.246  13.130  10.914
11713W        W81528  43.357  44.813   0.251
11714W        W81529  22.678   9.215   0.901
11715W        W81530   9.644  19.660  12.867
11716W        W81531  43.431  28.083   0.876
11717W        W81532  10.752  14.820  13.034
11718W        W81533   9.370  23.127  14.836
11719W        W81534  36.376  28.975   0.252
11720W        W81535   0.437   3.356   0.426
11721W        W81536  32.448   4.322  11.549
11722W        W81537  28.608   8.668   2.374
11723W        W81538  34.025  40.497   4.706
11724W        W81539   6.222  20.169   3.818
11725W        W81540  28.453  31.043   0.459
11726W        W81541  16.312  10.192  12.841
11727W        W81542   9.360  36.518   2.321
11728W        W81543   3.310  44.855  14.358
11729W        W81544  16.736  40.991   0.426
11730W        W81545  25.990  26.598   4.805
11731W        W81546  43.487  15.253   2.777
11732W        W81547   5.426   1.448  12.032
11733W        W81548   9.679  33.476  12.498
11734W        W81549  14.677  19.666  10.137
11735W        W81550  13.255   2.282   4.814
11736W        W81551  26.493   2.803   1.217
11737W        W81552  44.001  23.197  14.786
11738W        W81553  22.573  35.538  12.988
11739W        W81554  26.470  37.863  13.405
11740W        W81555  38.838  40.446  14.372
11741W        W81556  44.876  25.155   3.711
11742W        W81557  39.048  32.046   5.322
11743W        W81558  38.481  11.283   2.773
11744W        W81559  12.206  34.984  13.932
11745W        W81560   8.252  41.888   5.623
11746W        W81561  31.949   0.382  11.936
11747W        W81562  42.872  43.797  11.871
11748W        W81563  28.451  18.740  10.562
11749W        W81564  14.603   6.385  13.981
11750W        W81565   0.360  13.810  13.540
11751W        W81566  34.376  44.953  13.373
11752W        W81567   3.389  17.148   2.216
11753W        W81568  14.124  42.376  12.527
11754W        W81569   6.196   2.471  11.129
11755W        W81570  43.868  40.020   2.849
11756W        W81571  36.016  43.864   4.317
11757W        W81572  17.210  21.262  14.758
11758W        W81573   3.856  35.561  14.301
11759W        W81574  39.408   3.907   1.932
11760W        W81575   0.424  17.236  12.069
11761W        W81576   4.342   5.213  12.510
11762W        W81577  33.581  42.307   0.883
11763W        W81578  35.019  39.815   3.846
11764W        W81579  23.587   4.789   1.344
11765W        W81580  18.783  36.043  10.018
11766W        W81581  35.487   3.229  13.993
11767W        W81582  20.733  21.052   3.765
11768W        W81583  13.271  20.143  11.501
11769W        W81584   5.260   1.300   3.705
11770W        W81585  21.685   8.354   0.312
11771W        W81586  31.641  40.450  11.553
11772W        W81587  33.002  36.470  13.994
11773W        W81588  13.140  15.147  14.484
11774W        W81589  26.520  36.587   1.381
11775W        W81590  19.085   6.823   2.207
11776W        W81591  33.059  17.777  11.548
11777W        W81592  41.303   1.843   2.785
11778W        W81593  27.025   1.334  10.961
11779W        W81594   6.812  32.604  12.996
11780W        W81595   7.812   0.328  12.026
11781W        W81596  22.235  43.500   4.330
11782W        W81597  39.896  27.593  12.357
11783W        W81598  25.534  40.323   5.157
11784W        W81599  11.866   3.798   2.843
11785W        W81600   0.378   3.843   1.406
11786W        W81601  32.483  22.662  10.056
11787W        W81602  21.580  23.693   4.249
11788W        W81603  18.565  34.535  14.433
11789W        W81604  18.245  16.689   3.684
11790W        W81605  43.882  13.329  10.533
11791W        W81606  35.441  17.306  14.973
11792W        W81607  43.356  28.031   9.926
11793W        W81608  24.197   4.879  11.112
11794W        W81609  29.028  37.390  11.088
11795W        W81610   1.244  21.587  13.953
11796W        W81611  14.746  27.108  11.907
11797W        W81612  28.175  31.038   0.925
11798W        W81613   3.300  28.152  14.787
11799W        W81614  36.390  35.884  12.994
11800W        W81615  19.751  32.577  14.801
11801W        W81616   8.785  42.416  11.051
11802W        W81617   6.378  13.164  12.825
11803W        W81618  23.197  30.652  10.928
11804W        W81619   1.859  38.831  10.458
11805W        W81620   8.167   4.416   2.852
11806W        W81621  15.696  14.611  10.924
11807W        W81622   0.300   8.892  10.588
11808W        W81623  17.260  36.360   2.314
11809W        W81624  44.311  37.414  10.132
11810W        W81625   2.819  40.904  12.966
11811W        W81626  34.971  16.652   2.791
11812W        W81627   4.217   7.883  13.823
11813W        W81628  40.983  35.432  10.524
11814W        W81629  36.516  29.067  13.456
11815W        W81630  24.059  30.070   1.214
11816W        W81631  20.589  30.141  10.637
11817W        W81632  15.780  38.841  11.604
11818W        W81633  19.596  12.818  13.025
11819W        W81634   6.260  25.126   1.257
11820W        W81635  35.915  15.704   2.234
11821W        W81636  30.028  19.745   4.824
11822W        W81637  19.534  41.995   3.823
11823W        W81638   2.324  19.263   3.856
11824W        W81639   0.408  11.853  14.855
11825W        W81640  43.365   8.369  10.457
11826W        W81641  20.038  10.851  12.965
11827W        W81642  13.155  13.218   3.355
11828W        W81643   8.740  13.780   2.769
11829W        W81644  18.698   5.403  14.435
11830W        W81645  13.749   7.267   4.129
11831W        W81646  25.576  41.500   3.377
11832W        W81647  38.064  37.407   5.284
11833W        W81648  35.106   7.180   3.354
11834W        W81649  32.139  25.090   1.717
11835W        W81650  23.217  14.186  11.909
11836W        W81651  29.088  21.097   2.753
11837W        W81652  18.216  11.705  11.545
11838W        W81653   4.857  26.165   0.934
11839W        W81654  23.628  12.225   4.820
11840W        W81655  14.297  13.665  13.410
11841W        W81656  17.259  35.004   4.246
11842W        W81657  27.517  33.974   0.388
11843W        W81658   9.388  43.819  13.019
11844W        W81659   1.320  37.919  13.017
11845W        W81660  14.240  34.879  11.876
11846W        W81661  36.367   8.340   4.693
11847W        W81662  43.282  18.050  14.452
11848W        W81663  16.159  18.687   2.861
11849W        W81664  11.333  21.081   3.669
11850W        W81665  19.725   7.844   1.363
11851W        W81666  29.945  21.724  10.598
11852W        W81667  19.628  17.160  11.106
11853W        W81668   6.373   4.292   0.415
11854W        W81669  17.561  23.039  13.323
11855W        W81670  26.964   1.305  11.991
11856W        W81671  21.047  44.796   1.323
11857W        W81672  22.537   5.363   0.909
11858W        W81673  24.640  41.509  10.935
11859W        W81674  36.534  30.110  14.769
11860W        W81675  20.219  39.977   5.106
11861W        W81676  17.672   1.963  13.859
11862W        W81677  43.932  34.000  13.357
11863W        W81678  13.281  32.082  11.582
11864W        W81679  18.686  26.527  13.351
11865W        W81680  17.288   0.446  12.846
11866W        W81681  27.488  41.448  12.405
11867W        W81682  32.889   5.349   1.890
11868W        W81683  22.141  31.642  11.880
11869W        W81684  39.320  35.925   5.319
11870W        W81685  35.363  26.562   0.407
11871W        W81686   2.264  12.760   5.321
11872W        W81687  23.702  37.378  13.839
11873W        W81688   2.871  32.408   3.685
11874W        W81689  14.228  28.512   3.246
11875W        W81690  29.638  42.485  13.958
11876W        W81691  37.416  43.857  13.991
11877W        W81692  16.191   2.315   2.245
11878W        W81693  40.027  16.135  14.939
11879W        W81694   1.877  11.821   2.762
11880W        W81695  32.435  22.096   3.844
11881W        W81696   3.814   8.273  11.409
11882W        W81697  32.402  29.083   1.385
11883W        W81698  33.016  25.660   1.335
11884W        W81699  39.927  36.879   2.777
11885W        W81700  15.736  20.560   4.643
11886W        W81701   3.358  25.575  11.953
11887W        W81702   7.836  28.471   0.465
11888W        W81703  17.193  43.939  12.838
11889W        W81704   4.890   9.334   1.845
11890W        W81705  40.022   7.182  12.501
11891W        W81706  18.721  22.663   3.349
11892W        W81707   0.949  30.006  11.496
11893W        W81708   8.681   5.289  12.987
11894W        W81709  31.528  23.665   4.343
11895W        W81710  33.059  39.003   1.789
11896W        W81711  27.471  39.540   3.380
11897W        W81712  44.846  24.716   0.392
11898W        W81713  21.137   1.971  10.997
11899W        W81714  14.117  32.113   3.779
11900W        W81715   0.320  16.276  10.996
11901W        W81716  43.330  20.608  12.449
11902W        W81717  17.245  42.457   2.900
11903W        W81718  23.651   3.409   0.474
11904W        W81719  22.116  42.374   1.213
11905W        W81720  38.513  18.248   4.634
11906W        W81721   9.216   3.247  14.295
11907W        W81722  23.163   0.915  11.008
11908W        W81723  10.683  29.031  12.845
11909W        W81724  40.851   5.864   0.466
11910W        W81725  30.610  39.835   2.693
11911W        W81726  12.314  15.586   3.848
11912W        W81727  31.612   0.978   1.727
11913W        W81728  14.152  41.301  14.979
11914W        W81729  33.131  20.580  11.094
11915W        W81730  23.659  38.002   5.159
11916W        W81731   8.283   7.834  11.598
11917W        W81732  40.845   8.267  12.428
11918W        W81733  27.035  14.612   3.788
11919W        W81734  43.509  12.232  12.024
11920W        W81735  26.608  23.179   3.675
11921W        W81736  26.014  11.648   2.815
11922W        W81737  19.689   9.171  13.335
11923W        W81738  10.280  10.367   4.640
11924W        W81739  10.149  26.151  14.283
11925W        W81740   2.722  19.078   3.186
11926W        W81741   5.306  25.544  14.788
11927W        W81742  21.036   4.847  11.384
11928W        W81743  31.944  40.469  11.914
11929W        W81744  27.651   5.282   2.827
11930W        W81745  24.591   0.955  11.021
11931W        W81746   2.456  44.457  12.831
11932W        W81747   8.852  13.331  14.945
11933W        W81748   1.757  38.031  12.082
11934W        W81749   7.385  10.246   0.369
11935W        W81750  28.505   4.886   4.277
11936W        W81751  32.548   1.819  11.607
11937W        W81752  41.006   6.287   5.173
11938W        W81753  43.301   9.839  11.387
11939W        W81754  21.600   4.747   4.638
11940W        W81755  27.511  20.689  11.543
11941W        W81756   1.791   1.890  14.469
11942W        W81757  15.203  34.903   3.170
11943W        W81758  18.278   8.737   1.765
11944W        W81759  40.383   0.356   2.710
11945W        W81760  29.569   1.937   5.175
11946W        W81761  34.484  22.141   2.834
11947W        W81762  29.648   9.285  13.016
11948W        W81763  38.839  36.041  10.100
11949W        W81764  20.624  27.110   1.834
11950W        W81765  40.549  24.143   2.362
11951W        W81766  20.756  27.456  13.872
11952W        W81767  44.783  37.034  14.868
11953W        W81768  35.107  20.525  12.379
11954W        W81769  29.533  22.150   4.318
11955W        W81770  32.091  13.668   1.801
11956W        W81771  15.741  30.910  12.401
11957W        W81772   2.921  31.612   1.227
11958W        W81773  42.896  27.470  14.016
11959W        W81774   2.312   7.234   5.268
11960W        W81775  41.833  18.759  10.608
11961W        W81776  28.149  28.091   2.257
11962W        W81777  15.627  10.235   2.389
11963W        W81778  35.392   9.791   4.709
11964W        W81779   8.309  30.148   4.749
11965W        W81780  24.527  40.385  14.982
11966W        W81781  25.707  44.489   4.201
11967W        W81782   5.720  18.151  10.901
11968W        W81783  31.426  23.702  11.609
11969W        W81784  42.398  15.756   0.373
11970W        W81785  43.348   3.335  11.044
11971W        W81786  21.230  37.405   2.270
11972W        W81787  32.555   4.872  10.893
11973W        W81788  16.170  25.149   5.253
11974W        W81789  29.461  33.425  13.865
11975W        W81790  24.674  13.110  13.914
11976W        W81791  31.097  39.961  13.824
11977W        W81792  15.280   4.310   3.286
11978W        W81793  24.002  11.223   2.331
11979W        W81794  28.184  21.108   0.465
11980W        W81795  35.439  23.653  14.489
11981W        W81796  19.735  41.441  12.824
11982W        W81797  37.971  44.763  13.842
11983W        W81798  23.661   6.272   3.702
11984W        W81799   4.901  42.978   4.619
11985W        W81800  35.096   5.691  12.430
11986W        W81801  14.111  21.088  11.507
11987W        W81802  15.649  12.306   4.149
11988W        W81803  22.012  12.780  11.986
11989W        W81804  22.541  31.525   2.825
11990W        W81805  30.586  21.739   3.173
11991W        W81806  33.403  29.618  12.835
11992W        W81807  25.605  13.639   2.712
11993W        W81808  18.584  31.405  12.996
11994W        W81809  44.272  16.695   2.209
11995W        W81810   4.816  36.072  14.814
11996W        W81811  20.541   8.676  14.398
11997W        W81812   3.438   5.368   4.819
11998W        W81813   6.190  20.570   0.947
11999W        W81814  34.486  42.401  14.831
12000W        W81815  26.123   5.770  11.861
12001W        W81816  28.655  14.819   1.909
12002W        W81817  23.575   3.228  14.984
12003W        W81818  20.612   5.247  14.838
12004W        W81819  38.962  28.437   1.709
12005W        W81820  36.039  25.049   3.293
12006W        W81821  43.346  35.518  10.609
12007W        W81822   6.287  10.705   4.295
12008W        W81823  35.592   5.250  10.435
12009W        W81824  28.113   1.360   2.807
12010W        W81825   7.357  19.208   1.445
12011W        W81826  13.171  12.804   3.802
12012W        W81827  17.211  41.398   1.722
12013W        W81828  42.515  31.952   0.792
12014W        W81829  32.604   4.805   4.224
12015W        W81830  39.396  10.195  10.007
12016W        W81831  31.533   2.863   2.674
12017W        W81832  31.405  38.850   1.815
12018W        W81833   4.219  35.513   4.777
12019W        W81834   1.284  42.838  11.064
12020W        W81835  41.944  19.704  13.526
12021W        W81836  39.382  18.650  13.840
12022W        W81837   5.343  16.706  12.987
12023W        W81838  28.126  13.170  13.445
12024W        W81839  27.667  38.509   0.916
12025W        W81840   6.809   3.359  14.923
12026W        W81841   1.307   9.343   3.339
12027W        W81842  27.053  11.373  13.952
12028W        W81843  11.244  31.634   2.747
12029W        W81844   9.726  39.433   1.897
12030W        W81845  23.017  41.984  14.326
12031W        W81846  11.828  25.034   3.753
12032W        W81847   6.287  24.656   1.231
12033W        W81848  16.622  43.981   2.789
12034W        W81849  34.906   9.864  14.848
12035W        W81850  12.306  11.662  14.950
12036W        W81851  27.579  43.462  12.947
12037W        W81852  31.968   5.780   4.287
12038W        W81853  41.952  19.106  13.417
12039W        W81854   8.897  44.766   1.329
12040W        W81855  10.280   9.256  12.029
12041W        W81856  27.998   8.867   5.097
12042W        W81857  19.579  12.792  14.401
12043W        W81858  29.596  25.698   3.682
12044W        W81859  38.897  36.442   4.613
12045W        W81860   8.383  22.111  13.490
12046W        W81861   6.215  25.141   5.226
12047W        W81862  12.843  13.175  12.956
12048W        W81863  39.396   8.743  11.387
12049W        W81864  22.699  33.471  10.508
12050W        W81865  34.493  29.135  12.952
12051W        W81866  11.635  44.316  13.451
12052W        W81867  22.132  18.672  10.592
12053W        W81868  36.029  39.050  13.546
12054W        W81869  41.004  14.248   5.161
12055W        W81870  43.320   6.226  14.439
12056W        W81871   1.355   1.345   0.359
12057W        W81872  36.086  39.401   1.897
12058W        W81873  23.490  21.230  10.908
12059W        W81874   6.344  11.623   1.727
12060W        W81875  13.728   0.455   2.229
12061W        W81876   6.818  12.828  14.848
12062W        W81877  22.538  41.035   2.201
12063W        W81878   4.414  29.458  13.449
12064W        W81879  11.687  23.720   3.777
12065W        W81880  12.340  36.965  14.782
12066W        W81881   5.714  26.494  12.509
12067W        W81882  41.041  31.104   3.684
12068W        W81883  11.177  34.613  14.309
12069W        W81884  23.133  42.805  14.367
12070W        W81885  35.543   9.196  11.020
12071W        W81886   6.716   0.956   4.781
12072W        W81887   0.470   0.901  11.060
12073W        W81888   5.932  39.871   2.300
12074W        W81889  35.864  19.080   1.218
12075W        W81890  14.671  17.576  14.469
12076W        W81891  10.732  40.384  13.403
12077W        W81892  13.735  14.132  13.998
12078W        W81893  25.525  33.625  11.393
12079W        W81894  27.457  39.854  11.012
12080W        W81895  40.965  39.941  12.886
12081W        W81896  42.977  14.636   1.450
12082W        W81897  21.563  11.690  12.023
12083W        W81898  22.999  43.807  10.639
12084W        W81899  38.557  19.594   1.904
12085W        W81900  16.766  15.083   0.761
12086W        W81901  35.380  43.805   4.258
12087W        W81902  26.472  42.980   4.712
12088W        W81903  42.842  41.980  11.053
12089W        W81904  27.456   9.342  12.464
12090W        W81905  29.502  39.884   3.245
12091W        W81906  34.956  33.414  13.407
12092W        W81907  31.016  13.138  12.050
12093W        W81908  17.687   8.296   0.906
12094W        W81909  13.287  26.605   0.760
12095W        W81910  10.807   3.337   4.668
12096W        W81911  42.444  27.940  12.537
12097W        W81912  35.371   5.760  11.500
12098W        W81913   3.865   2.371   4.114
12099W        W81914  12.706  28.985  12.881
12100W        W81915  22.603  20.122   0.924
12101W        W81916  19.715  41.462  11.104
12102W        W81917  44.998  33.586   0.309
12103W        W81918   6.794   7.252  14.916
12104W        W81919  31.063  19.591   2.397
12105W        W81920   5.731  40.374  11.006
12106W        W81921  41.823  10.191  13.992
12107W        W81922  36.991  27.098   4.666
12108W        W81923  44.840  18.662  14.007
12109W        W81924  40.867  20.649  10.975
12110W        W81925  39.408  31.626   3.858
12111W        W81926   6.782  44.364  12.490
12112W        W81927  30.959  16.693  14.780
12113W        W81928   3.367  31.080  11.914
12114W        W81929  44.416  26.965   1.819
12115W        W81930  25.082  15.085   2.329
12116W        W81931  11.262  15.311  10.413
12117W        W81932  18.086  15.663   3.854
12118W        W81933  31.637  27.672  10.889
12119W        W81934  15.305  41.942  11.889
12120W        W81935  30.650  40.838   2.345
12121W        W81936  31.017  11.795   2.356
12122W        W81937  31.025  25.584  11.922
12123W        W81938   9.325  42.396   4.353
12124W        W81939  30.018  35.012  14.441
12125W        W81940  43.778  34.476  11.083
12126W        W81941  43.006   9.350   0.846
12127W        W81942  33.032  32.986   1.427
12128W        W81943  19.100  38.467   3.217
12129W        W81944  15.796   4.898   9.929
12130W        W81945  33.542  42.327   9.941
12131W        W81946  22.726  32.002  11.549
12132W        W81947  43.391   6.681  11.992
12133W        W81948  34.001  40.543   1.901
12134W        W81949  16.666  29.565   2.370
12135W        W81950   2.446  30.649   4.687
12136W        W81951  17.133  17.592   1.865
12137W        W81952   8.175   0.915   3.151
12138W        W81953  40.542   6.916  14.921
12139W        W81954   0.287  14.793  10.424
12140W        W81955  43.334  31.455   0.460
12141W        W81956  22.166   3.853  13.840
12142W        W81957  43.333  33.092  11.986
12143W        W81958   5.321  13.259  12.441
12144W        W81959   6.790  15.083  14.010
12145W        W81960  44.276  40.053   1.267
12146W        W81961   0.827   8.280   4.318
12147W        W81962  18.153  32.478  12.550
12148W        W81963  26.476   9.719   2.692
12149W        W81964  28.128  33.925  13.796
12150W        W81965  15.656  14.717  12.967
12151W        W81966  34.408  42.799   3.666
12152W        W81967  37.029  39.489   0.836
12153W        W81968  15.605  43.440   3.730
12154W        W81969   7.312  19.666  13.347
12155W        W81970  43.955  37.998  11.967
12156W        W81971  31.023  37.992  12.977
12157W        W81972  36.509  33.092  13.463
12158W        W81973  16.680  39.515   3.205
12159W        W81974   7.333  10.809   0.364
12160W        W81975  21.149  38.964  11.058
12161W        W81976  37.057  12.777  14.355
12162W        W81977  35.021  18.708   1.913
12163W        W81978  38.415  23.156   4.754
12164W        W81979  35.430  31.451   0.421
12165W        W81980  23.043  39.337   1.706
12166W        W81981  38.345  39.915  12.565
12167W        W81982  33.947  27.950  11.519
12168W        W81983  42.314   4.846  14.281
12169W        W81984   5.395  39.824  11.052
12170W        W81985  33.420  13.123   3.679
12171W        W81986  28.113  10.369   4.607
12172W        W81987  27.950  43.805   0.271
12173W        W81988  12.223  42.022  12.992
12174W        W81989  30.959  34.941   0.843
12175W        W81990   4.430   6.358  13.332
12176W        W81991  22.681   3.447   9.946
12177W        W81992   7.373  39.996  11.106
12178W        W81993  41.931  41.378  10.144
12179W        W81994  26.642   5.855  11.571
12180W        W81995  23.518   7.404  11.484
12181W        W81996  21.194   1.348   3.220
12182W        W81997  15.148   2.335   4.629
12183W        W81998  38.358  18.114   3.635
12184W        W81999  31.517   8.226  10.575
12185W        W82000  27.635  40.341  10.988
12186W        W82001  42.348   4.240  12.970
12187W        W82002  22.719   0.275   1.824
12188W        W82003  39.908  19.545  10.454
12189W        W82004  24.138  29.655   4.219
12190W        W82005   0.918  40.819   4.643
12191W        W82006  17.238   1.260   3.783
12192W        W82007  13.845   6.801  14.334
12193W        W82008  32.617  43.407  12.894
12194W        W82009  10.795   0.899  11.433
12195W        W82010  14.712  32.548  12.500
12196W        W82011  43.958  24.701  12.047
12197W        W82012  12.682   2.321  12.001
12198W        W82013   6.406  33.972  13.974
12199W        W82014   8.237  19.204   3.686
12200W        W82015  19.701  33.445   2.852
12201W        W82016  12.845   9.267  10.985
12202W        W82017  31.442  16.105   0.751
12203W        W82018   9.786  12.266   0.455
12204W        W82019  34.896   5.363   4.684
12205W        W82020  39.893  35.067  13.329
12206W        W82021   9.272  39.065   0.839
12207W        W82022  10.157   7.883  10.545
12208W        W82023   4.899  18.565   4.183
12209W        W82024  31.447  17.132  11.013
12210W        W82025  42.516   8.730   3.251
12211W        W82026  30.165   8.163  14.808
12212W        W82027   6.394   5.781  10.420
12213W        W82028  39.463  35.021   0.405
12214W        W82029  14.792  19.738   2.298
12215W        W82030   6.249  24.152   3.777
12216W        W82031  25.161  41.357   4.349
12217W        W82032   3.439  11.321   3.173
12218W        W82033  22.063  23.137   4.125
12219W        W82034  39.004  32.635   3.160
12220W        W82035  25.115  25.650  13.966
12221W        W82036  24.221   8.864   0.791
12222W        W82037  24.037  40.458   3.239
12223W        W82038  35.389   9.675  12.891
12224W        W82039  34.592  13.778   0.794
12225W        W82040  34.584  38.566  12.849
12226W        W82041  12.235   2.828  12.536
12227W        W82042  23.545   5.726   4.194
12228W        W82043   9.378  21.092   0.437
12229W        W82044  25.104  34.589  13.987
12230W        W82045   0.469  26.998   4.832
12231W        W82046  31.456  26.054  14.005
12232W        W82047   2.795  16.241   4.306
12233W        W82048  30.910  33.402   4.826
12234W        W82049  31.064  36.491   0.406
12235W        W82050  12.280  15.720  11.981
12236W        W82051   7.813  14.266  11.974
12237W        W82052  17.109  16.588   2.779
12238W        W82053  10.741  41.954   4.315
12239W        W82054   7.866  17.099   2.200
12240W        W82055   6.366  39.985  10.125
12241W        W82056  32.089  38.357   4.623
12242W        W82057   4.925  39.362  11.506
12243W        W82058  37.449  18.252   0.878
12244W        W82059  23.564   5.325   4.790
12245W        W82060  43.946   2.912   2.764
12246W        W82061   4.817  19.251  10.967
12247W        W82062  36.951  36.992   1.788
12248W        W82063  28.157  10.259  14.995
12249W        W82064   0.797  44.964  13.534
12250W        W82065  38.939  23.216  14.820
12251W        W82066  10.366  20.168  10.541
12252W        W82067  26.527   8.765  14.401
12253W        W82068   3.278   6.904  11.929
12254W        W82069  14.214   4.432  12.851
12255W        W82070  15.202  37.087  13.997
12256W        W82071  12.310   4.863   1.430
12257W        W82072  28.497   6.771   0.870
12258W        W82073  20.212  23.224   2.822
12259W        W82074  20.078  36.511   1.230
12260W        W82075   8.779  20.767   1.223
12261W        W82076  26.134  32.492  11.388
12262W        W82077  29.158   4.211   2.747
12263W        W82078  12.339  36.088  11.978
12264W        W82079  29.662  27.955   0.905
12265W        W82080  34.611  36.369   1.778
12266W        W82081  34.896  18.072  10.977
12267W        W82082  14.292  36.576   3.867
12268W        W82083  27.950  25.190   2.825
12269W        W82084  38.975  18.075  14.788
12270W        W82085  26.543  25.171   0.781
12271W        W82086  21.093  12.267  13.867
12272W        W82087  34.438  31.533   3.778
12273W        W82088   3.260  16.135  10.984
12274W        W82089  41.016  28.456   2.258
12275W        W82090  23.070  24.124  10.555
12276W        W82091  23.611  17.072   1.308
12277W        W82092  30.564  28.949   1.822
12278W        W82093  41.946  26.066   1.303
12279W        W82094  34.581   1.781   4.239
12280W        W82095   0.747   9.261  12.531
12281W        W82096  41.452  39.483  12.535
12282W        W82097  16.805  40.885  14.461
12283W        W82098  10.821  27.512   4.731
12284W        W82099  16.230   5.365   3.832
12285W        W82100  26.178   4.220   4.138
12286W        W82101  25.520  44.983  12.911
12287W        W82102   8.320  41.424   0.870
12288W        W82103  28.123  34.505  13.875
12289W        W82104  24.650  19.178   3.652
12290W        W82105  10.295  29.153   0.324
12291W        W82106  22.097   5.789  11.014
12292W        W82107  38.361   6.282   0.829
12293W        W82108  43.780  43.914  13.309
12294W        W82109   3.933  19.674   3.750
12295W        W82110  36.568  37.972   3.258
12296W        W82111  38.825  30.537  13.501
12297W        W82112  18.719  22.622  12.424
12298W        W82113   7.410  41.497   9.986
12299W        W82114  33.395   4.326   2.392
12300W        W82115  42.814  22.717  14.853
12301W        W82116   9.666  43.330  10.456
12302W        W82117  14.138  12.814   4.163
12303W        W82118  38.998  44.968  11.945
12304W        W82119  15.615   7.343   0.253
12305W        W82120   1.757  39.411  12.973
12306W        W82121  29.925  37.000   0.480
12307W        W82122  40.999  21.091   3.328
12308W        W82123  44.943  21.541  14.401
12309W        W82124  36.939  23.146  12.351
12310W        W82125   2.278  13.183   2.807
12311W        W82126  31.563   5.903   0.847
12312W        W82127  26.970  40.017   2.700
12313W        W82128  25.185  15.779   1.869
12314W        W82129  23.605  38.336  11.404
12315W        W82130   4.262  19.573  10.930
12316W        W82131  19.756  17.616   3.239
12317W        W82132  37.385  23.239  14.330
12318W        W82133  22.656  28.145   2.257
12319W        W82134  13.228  40.028   4.715
12320W        W82135  43.005  31.604   1.305
12321W        W82136  36.399   3.819  12.057
12322W        W82137  34.022  35.433  12.829
12323W        W82138  30.531   8.742   0.863
12324W        W82139  39.877  22.015   4.329
12325W        W82140  37.471  13.602   2.319
12326W        W82141  41.527  15.648  13.805
12327W        W82142  41.433  14.713  10.426
12328W        W82143  37.973  37.069  11.944
12329W        W82144  12.351  36.518  14.765
12330W        W82145   9.645   3.346   3.247
12331W        W82146   2.776  31.117   0.886
12332W        W82147   5.367   1.731  10.432
12333W        W82148  29.059  31.615   4.273
12334W        W82149   4.398  35.430  11.547
12335W        W82150  25.468  11.139  13.887
12336W        W82151  20.740   8.288   0.827
12337W        W82152  27.988  28.065   3.202
12338W        W82153  31.495  23.613   3.851
12339W        W82154  36.420  44.854  12.422
12340W        W82155  16.244  35.938   4.300
12341W        W82156  35.932  41.009   3.378
12342W        W82157  35.891  14.655  12.989
12343W        W82158   7.198  25.205  13.011
12344W        W82159  30.142  33.583   3.352
12345W        W82160  30.046  44.948  12.568
12346W        W82161  42.427  42.925   0.952
12347W        W82162  13.753   8.295   2.249
12348W        W82163  30.028  36.040  14.417
12349W        W82164  16.087   9.341   1.918
12350W        W82165  26.060  27.517   3.152
12351W        W82166   5.241  29.615  12.040
12352W        W82167  26.635  24.007  13.898
12353W        W82168   8.192  20.041   0.902
12354W        W82169  30.155  43.361   3.274
12355W        W82170  41.037  19.755   2.754
12356W        W82171  29.119  20.689  12.977
12357W        W82172  12.183  20.122   4.135
12358W        W82173   3.263  28.517   4.777
12359W        W82174  20.765   2.400  12.904
12360W        W82175  16.118   3.754  11.080
12361W        W82176  26.178  29.935  12.525
12362W        W82177  10.775  24.068  13.036
12363W        W82178  41.979   4.763  11.580
12364W        W82179   2.270  24.005   0.285
12365W        W82180  21.513  33.915   0.743
12366W        W82181  22.206  44.864   1.934
12367W        W82182  24.664  42.479  11.940
12368W        W82183   2.429  28.955   3.855
12369W        W82184  42.461  43.901   4.344
12370W        W82185  33.876   6.687   4.304
12371W        W82186   7.217   1.426  10.640
12372W        W82187  25.544  21.233  11.496
12373W        W82188  41.983  10.704   1.242
12374W        W82189  21.549  33.900   1.885
12375W        W82190  44.418  21.071  13.027
12376W        W82191  38.935  26.578   3.736
12377W        W82192  30.984  28.183  14.797
12378W        W82193  33.534  43.968  13.845
12379W        W82194  30.445   7.285  12.454
12380W        W82195  39.031   5.218  10.483
12381W        W82196  26.462  23.691   1.913
12382W        W82197  13.791  40.465   1.819
12383W        W82198  22.545  25.184  13.884
12384W        W82199  18.602  44.267   4.231
12385W        W82200   2.238  27.648   3.669
12386W        W82201  29.646  18.225  10.038
12387W        W82202  11.195  44.827  11.928
12388W        W82203  22.599  26.476   1.747
12389W        W82204  20.617  43.471   2.195
12390W        W82205  10.172  24.714   1.299
12391W        W82206  28.978  38.997   1.322
12392W        W82207  24.973  15.813  14.968
12393W        W82208  12.843  34.930  14.351
12394W        W82209  41.886  30.019  12.995
12395W        W82210  13.681  40.372   4.274
12396W        W82211  33.007  43.501  14.372
12397W        W82212  40.513  34.446   0.727
12398W        W82213  36.535  36.989   0.914
12399W        W82214  43.270   1.345  13.333
12400W        W82215  30.120  15.096   0.419
12401W        W82216  13.200  28.519   0.778
12402W        W82217   5.759  24.523   0.773
12403W        W82218  41.872  43.330  12.523
12404W        W82219   9.776   5.892  13.327
12405W        W82220  23.984   2.793   0.757
12406W        W82221  26.602  28.981   2.290
12407W        W82222   5.762  44.981  12.571
12408W        W82223  12.648  15.182   2.755
12409W        W82224  33.543  34.038  11.415
12410W        W82225   2.848   4.358   4.343
12411W        W82226   3.446   7.402   3.299
12412W        W82227  14.206  29.639  14.964
12413W        W82228  26.203   3.319  11.424
12414W        W82229  39.959  29.505   2.358
12415W        W82230   5.332  15.172   4.234
12416W        W82231  10.271  43.270  11.498
12417W        W82232  15.288  33.582  13.493
12418W        W82233  36.049  29.670   4.165
12419W        W82234  19.159  21.062  10.895
12420W        W82235   5.861  37.035  10.442
12421W        W82236  18.209  13.309  13.490
12422W        W82237  37.513  25.563   0.799
12423W        W82238   6.756   6.760  13.907
12424W        W82239  21.644  38.525  14.510
12425W        W82240  42.441  12.679   3.770
12426W        W82241  14.284  11.340  12.557
12427W        W82242   8.322  29.100  12.420
12428W        W82243  18.788  18.716   4.310
12429W        W82244  40.033   6.360  11.931
12430W        W82245  37.365  43.776   2.367
12431W        W82246   6.423  40.329   4.679
12432W        W82247  16.702  10.215  13.057
12433W        W82248  33.529  31.077   2.249
12434W        W82249  20.173   3.787  12.062
12435W        W82250  20.615  41.931  14.411
12436W        W82251   5.900  27.534   3.322
12437W        W82252  18.602  31.429  11.060
12438W        W82253  12.178   6.215   1.382
12439W        W82254  28.015  40.856   2.662
12440W        W82255   5.757  28.554   1.916
12441W        W82256  28.082  13.668  12.370
12442W        W82257  20.116  41.011   0.268
12443W        W82258  36.025  30.417  14.376
12444W        W82259  31.588  22.177  13.991
12445W        W82260  30.962  42.478   3.867
12446W        W82261   6.898  28.581  13.928
12447W        W82262  14.782  17.634  14.940
12448W        W82263   4.906  14.815  12.892
12449W        W82264  42.399   0.778  13.374
12450W        W82265  33.564   8.386  11.507
12451W        W82266  21.141  17.756   3.174
12452W        W82267  28.676  20.159  14.987
12453W        W82268  23.716   2.412  12.443
12454W        W82269  28.491  28.968  10.592
12455W        W82270   2.759  11.752  13.907
12456W        W82271  16.152   5.401   2.721
12457W        W82272  37.485  15.133  12.941
12458W        W82273  32.110  20.081   2.869
12459W        W82274   0.919   3.835   3.359
12460W        W82275   2.280  18.265   3.349
12461W        W82276  30.986  27.146  14.508
12462W        W82277  26.529   0.329  11.998
12463W        W82278  33.616  20.694  12.428
12464W        W82279  18.699  42.398   1.837
12465W        W82280  44.364  35.604   4.197
12466W        W82281  31.478  41.336   0.762
12467W        W82282  13.682  33.068  14.422
12468W        W82283  30.559  11.838  11.420
12469W        W82284   5.865  34.939   1.241
12470W        W82285  41.301  14.717   3.322
12471W        W82286  20.194  39.883  10.632
12472W        W82287  15.129  21.563   0.892
12473W        W82288  20.245   4.917  10.927
12474W        W82289  12.811   4.298   2.820
12475W        W82290  42.875  35.044   4.705
12476W        W82291  44.261  16.676  14.006
12477W        W82292   0.876  41.823  10.568
12478W        W82293   7.180   3.329  12.498
12479W        W82294   4.899  44.007   4.801
12480W        W82295   6.257  10.256  12.916
12481W        W82296  33.931   9.222  13.829
12482W        W82297   2.427   4.294   3.739
12483W        W82298  38.541  12.794   3.241
12484W        W82299   0.751   9.337   2.255
12485W        W82300  29.509   7.416   0.733
12486W        W82301  37.431  26.697  11.440
12487W        W82302   6.693   2.920   4.199
12488W        W82303  17.097   0.273  11.420
12489W        W82304  13.120  31.910   4.250
12490W        W82305  44.852  30.525  14.281
12491W        W82306   9.659  43.480   4.165
12492W        W82307  26.532  40.490  14.784
12493W        W82308  33.482  28.568  11.980
12494W        W82309  19.155   4.212  12.560
12495W        W82310  37.855  37.502  12.067
12496W        W82311  26.598  12.829  11.086
12497W        W82312  43.776  28.971   0.401
12498W        W82313  13.718   2.744   3.769
12499W        W82314  41.846  10.848  12.364
12500W        W82315  26.967   8.798  12.894
12501W        W82316  20.136  18.592  11.101
12502W        W82317   0.820  13.649   0.304
12503W        W82318   1.391  41.379   2.335
12504W        W82319   6.832   2.321  13.027
12505W        W82320  13.274  26.030   1.232
12506W        W82321  29.168  43.301  13.822
12507W        W82322  32.055   0.376   4.262
12508W        W82323  13.630  38.022   2.330
12509W        W82324  28.540   3.863  11.064
12510W        W82325  20.188  18.722  12.379
12511W        W82326  28.931  35.586  12.395
12512W        W82327  14.253  40.907  12.539
12513W        W82328  18.286  28.979  12.431
12514W        W82329   8.380  26.577  12.878
12515W        W82330   6.880  31.500  13.388
12516W        W82331  29.032  12.825   1.839
12517W        W82332  13.815  17.776  12.895
12518W        W82333  10.688  27.993   3.159
12519W        W82334  36.437   6.889  14.772
12520W        W82335  39.027  13.239  12.921
12521W        W82336  22.113  36.868  12.441
12522W        W82337  17.103   1.371  13.003
12523W        W82338   9.823  15.140  12.374
12524W        W82339  22.544  10.653   2.367
12525W        W82340  27.018  39.453  12.985
12526W        W82341  43.828  34.058  13.061
12527W        W82342  11.225   7.795  12.062
12528W        W82343  27.988  44.973   2.864
12529W        W82344  43.973   1.876  14.923
12530W        W82345  37.508  30.568   1.893
12531W        W82346   2.965  25.218  11.101
12532W        W82347  19.757  43.989   4.706
12533W        W82348   2.782   9.797   4.213
12534W        W82349  40.421  26.557   1.291
12535W        W82350  16.646  25.145   2.345
12536W        W82351  15.290  21.596  14.356
12537W        W82352  23.993  35.002   2.305
12538W        W82353  21.684   7.412  14.789
12539W        W82354  33.410  17.566   2.220
12540W        W82355  18.270  11.264  13.811
12541W        W82356  26.486   2.889  11.058
12542W        W82357  28.482  26.513   0.917
12543W        W82358  44.869  41.908  14.385
12544W        W82359  21.080  11.356   0.446
12545W        W82360  31.928  23.020  14.369
12546W        W82361  14.680  16.196  11.111
12547W        W82362   5.197  16.192   4.672
12548W        W82363  14.651  27.002   2.732
12549W        W82364  44.770  28.643   4.340
12550W        W82365  12.825  41.384   3.178
12551W        W82366   5.915  16.146   4.165
12552W        W82367  30.147  19.722  11.023
12553W        W82368   7.748  15.823  11.083
12554W        W82369  37.992  13.708  11.870
12555W        W82370  17.653  22.558  14.474
12556W        W82371  42.406  30.557   2.352
12557W        W82372  36.843   9.197  14.858
12558W        W82373  19.264   1.288   1.368
12559W        W82374   8.675  27.011   4.347
12560W        W82375   5.707  16.219   0.351
12561W        W82376   3.796  37.886   2.281
12562W        W82377  10.268  42.463  14.498
12563W        W82378   3.796  42.806  14.008
12564W        W82379  36.874  13.152  10.890
12565W        W82380  40.923  43.813   0.733
12566W        W82381   5.270  42.840  13.456
12567W        W82382  44.285   2.940   1.293
12568W        W82383  20.192   1.398  11.506
12569W        W82384  39.520  35.950  13.933
12570W        W82385  27.455  33.122  12.346
12571W        W82386   7.761  41.853   0.756
12572W        W82387  42.025  42.890  14.783
12573W        W82388  13.754  44.765   3.371
12574W        W82389   3.710  42.033   4.673
12575W        W82390   3.275   6.809   0.782
12576W        W82391  12.233   4.928   4.664
12577W        W82392   5.214  16.199  11.930
12578W        W82393  28.527  28.015  12.032
12579W        W82394  18.098   0.492  11.910
12580W        W82395   0.487  19.612   4.767
12581W        W82396  40.824  38.059  10.523
12582W        W82397  10.217  11.254  12.442
12583W        W82398   8.720   0.887   1.735
12584W        W82399   5.932  17.070   3.364
12585W        W82400  35.503   3.809  14.980
12586W        W82401  33.885   6.323  12.348
12587W        W82402  22.163   0.895  10.897
12588W        W82403   2.346  32.975   0.337
12589W        W82404  37.961  24.658   1.893
12590W        W82405  15.198  37.532   1.840
12591W        W82406  44.449  15.623  10.432
12592W        W82407  38.563  23.517  10.422
12593W        W82408   0.867  37.349  11.911
12594W        W82409  12.656  37.022  14.790
12595W        W82410  13.701  42.000   4.835
12596W        W82411   9.357   1.888   4.818
12597W        W82412   2.404   7.176  13.904
12598W        W82413  28.117  22.139   1.445
12599W        W82414  32.971  33.942   2.885
12600W        W82415  17.132   0.817  13.440
12601W        W82416  36.445   7.253   1.726
12602W        W82417  28.530  10.875  11.452
12603W        W82418  18.700   4.848  14.345
12604W        W82419  23.528  18.628   2.870
12605W        W82420  19.583   1.409  14.024
12606W        W82421   2.810   2.870   1.244
12607W        W82422  44.264  33.439  12.055
12608W        W82423  40.994   4.870  11.550
12609W        W82424   7.667  36.068  13.383
12610W        W82425  39.883  33.468  11.457
12611W        W82426   3.922   6.769  14.318
12612W        W82427   7.182   0.797   4.831
12613W        W82428  13.227  26.057   2.234
12614W        W82429   5.232  28.612  14.450
12615W        W82430  14.723  13.663   0.799
12616W        W82431   3.247   7.219   4.640
12617W        W82432   4.287   6.911  10.934
12618W        W82433  30.619  39.015   4.774
12619W        W82434  11.796  36.909  12.866
12620W        W82435   4.332  15.619   0.748
12621W        W82436  35.854  12.201   3.242
12622W        W82437  35.033  30.613   3.270
12623W        W82438  17.738  20.209  14.331
12624W        W82439  26.696  21.539  10.596
12625W        W82440  16.635  32.886  14.969
12626W        W82441  21.742   9.206   2.377
12627W        W82442  21.066  32.624  14.834
12628W        W82443  23.521   6.237  14.331
12629W        W82444   2.268  39.485  11.991
12630W        W82445  27.988  40.332  13.396
12631W        W82446  29.622  10.826  10.974
12632W        W82447  43.800  17.725  12.054
12633W        W82448   3.741   3.254  12.551
12634W        W82449  21.577  14.807  12.862
12635W        W82450  16.142  26.535  14.865
12636W        W82451   0.936  19.182  14.441
12637W        W82452  37.382  20.185   3.272
12638W        W82453  34.934  28.491   4.751
12639W        W82454  40.966  24.067   0.784
12640W        W82455   4.432  37.835   4.231
12641W        W82456   0.262  17.650  11.074
12642W        W82457  20.152  40.990  13.462
12643W        W82458  37.360  40.466  14.882
12644W        W82459  29.013   8.346   1.739
12645W        W82460   6.692  31.572   4.712
12646W        W82461  32.085   0.986   0.467
12647W        W82462  26.660  26.117   4.763
12648W        W82463  19.257  20.595   0.785
12649W        W82464  14.291  16.772   0.303
12650W        W82465  39.904  17.597  14.824
12651W        W82466  15.671  32.025  13.517
12652W        W82467  28.559   8.759   1.420
12653W        W82468  36.938   6.421  13.435
12654W        W82469  13.740  39.890   0.833
12655W        W82470  15.597  26.556  13.532
12656W        W82471  20.739  41.008   3.784
12657W        W82472  40.419  13.629   5.142
12658W        W82473  33.006  40.498   0.389
12659W        W82474  17.110  39.050   2.842
12660W        W82475  40.923  36.098   3.177
12661W        W82476  15.234  13.166  14.808
12662W        W82477  11.712  18.155   2.325
12663W        W82478  33.620  33.431  14.351
12664W        W82479  10.777  30.924  13.471
12665W        W82480  13.836  19.127   2.404
12666W        W82481  23.017  26.636   3.222
12667W        W82482   9.668  39.424   4.634
12668W        W82483  30.077   8.864  10.485
12669W        W82484   0.270  33.934   3.236
12670W        W82485   4.869  11.859   1.346
12671W        W82486  31.050   1.407   4.751
12672W        W82487  27.126  22.154   3.719
12673W        W82488  17.625  22.737   0.927
12674W        W82489  26.676   6.237  11.038
12675W        W82490  38.517  28.470   0.822
12676W        W82491  25.166   6.377   3.319
12677W        W82492  29.576  27.545   1.733
12678W        W82493  21.626  41.789   1.713
12679W        W82494  39.012  20.612   0.446
12680W        W82495  30.111  27.587  13.431
12681W        W82496  19.780  18.755   0.339
12682W        W82497  25.061  33.413  14.468
12683W        W82498   7.779  35.486   3.630
12684W        W82499  26.465  31.021   5.131
12685W        W82500  40.424  26.470   1.826
12686W        W82501  40.438  40.312   3.177
12687W        W82502  36.875  10.282  10.606
12688W        W82503  44.291   4.319   3.265
12689W        W82504  32.485   1.880  10.569
12690W        W82505  19.773   3.264  11.951
12691W        W82506   4.337  18.118   3.691
12692W        W82507  12.851  21.192   0.280
12693W        W82508   7.829  11.324   3.375
12694W        W82509  34.460  28.505   4.139
12695W        W82510   3.887   2.876   4.603
12696W        W82511   2.942  44.779  10.485
12697W        W82512   0.458   1.962   2.720
12698W        W82513  40.517  24.710  12.016
12699W        W82514  38.858   7.772   1.425
12700W        W82515  36.414  38.054   1.755
12701W        W82516  30.926  33.596   1.338
12702W        W82517  37.515  41.824  12.505
12703W        W82518  30.920  31.974  11.375
12704W        W82519  12.697  10.351  13.313
12705W        W82520  23.566  36.569   3.352
12706W        W82521   7.723  39.413   0.929
12707W        W82522  15.820  39.968   2.844
12708W        W82523  23.564  32.104   0.811
12709W        W82524  17.232   4.793   0.740
12710W        W82525  21.614  20.616  11.566
12711W        W82526   7.855  18.726  13.504
12712W        W82527  39.861   0.880   0.767
12713W        W82528   6.683  10.758  11.505
12714W        W82529  17.783  11.767  13.332
12715W        W82530  15.206  21.152  11.577
12716W        W82531  23.597  38.894   1.331
12717W        W82532  10.699  14.165   1.927
12718W        W82533  28.101  12.275  14.876
12719W        W82534  24.572  10.666   1.891
12720W        W82535  39.432   2.866  14.030
12721W        W82536  11.826  16.775  10.528
12722W        W82537  37.493  22.738   2.809
12723W        W82538   6.730  35.419  12.422
12724W        W82539  16.659  18.052  12.348
12725W        W82540  25.139   5.834  10.586
12726W        W82541  23.707  13.251   1.234
12727W        W82542  11.840  26.649  10.532
12728W        W82543   6.850  31.092  14.494
12729W        W82544  38.566  16.792  12.448
12730W        W82545   0.287  40.977   2.878
12731W        W82546   2.721  39.843  13.812
12732W        W82547   9.868  27.115  11.860
12733W        W82548   8.353   6.917   0.265
12734W        W82549  39.822  39.338   3.702
12735W        W82550   9.158  28.968   4.176
12736W        W82551  12.659  34.098  13.525
12737W        W82552  14.312  14.611  13.901
12738W        W82553   2.372  43.432  10.901
12739W        W82554  39.512   5.730   1.351
12740W        W82555  40.437   7.771  11.439
12741W        W82556  21.621  37.867   3.646
12742W        W82557  33.475   1.309  10.561
12743W        W82558  32.950   2.414   0.448
12744W        W82559   8.891  13.272  12.373
12745W        W82560  33.007  24.040  12.081
12746W        W82561  14.687  30.562  11.102
12747W        W82562  19.046  23.146  12.037
12748W        W82563  27.113  28.024  14.393
12749W        W82564  43.006  33.527  13.850
12750W        W82565  38.862  23.722   2.819
12751W        W82566   5.700   7.738   3.800
12752W        W82567  17.064  38.009  12.426
12753W        W82568   5.696  24.028   0.409
12754W        W82569  39.837   9.733   1.375
12755W        W82570  36.438  37.563   4.348
12756W        W82571  40.002  30.548   4.231
12757W        W82572  15.784  23.673  10.579
12758W        W82573  26.196  40.963  14.793
12759W        W82574  40.316   7.667   0.848
12760W        W82575  35.476   8.861  11.090
12761W        W82576  42.283  30.965  12.089
12762W        W82577  13.745  25.074  12.976
12763W        W82578   9.212   0.783   4.224
12764W        W82579  15.250  37.406  13.482
12765W        W82580  14.128  34.084   1.326
12766W        W82581  21.725  36.060   1.730
12767W        W82582   7.245  10.204  13.511
12768W        W82583   2.344  22.601   0.767
12769W        W82584  41.872  32.492  14.003
12770W        W82585  33.407   9.370  12.577
12771W        W82586  11.368   9.226   2.391
12772W        W82587  31.402  42.939   1.241
12773W        W82588  44.441   4.832   2.664
12774W        W82589   1.260  13.295  14.451
12775W        W82590  36.548  37.883   1.298
12776W        W82591  16.734  39.535  14.932
12777W        W82592  10.797  44.501   2.299
12778W        W82593  34.935   5.879   1.777
12779W        W82594  17.695  37.569  14.865
12780W        W82595   5.248  18.161   4.791
12781W        W82596  30.506  19.732  11.586
12782W        W82597  12.342  44.327  14.778
12783W        W82598   8.187   6.408  13.508
12784W        W82599  17.793  40.468  12.507
12785W        W82600  33.398  41.786   0.911
12786W        W82601   5.427  40.837  12.967
12787W        W82602  14.288  16.695   1.259
12788W        W82603  32.101   5.748  12.076
12789W        W82604  29.506  20.531   0.729
12790W        W82605  44.374  44.414   1.768
12791W        W82606  36.921  18.280  14.313
12792W        W82607  23.057  21.195  14.791
12793W        W82608  11.198  10.668   4.729
12794W        W82609   4.388   1.261  11.423
12795W        W82610  22.244  37.866  13.922
12796W        W82611  39.891  30.605  11.548
12797W        W82612   8.716  13.646   0.347
12798W        W82613  43.492  44.267   0.445
12799W        W82614  20.522  33.058  14.390
12800W        W82615  19.226   3.715  12.863
12801W        W82616  37.020  18.175   4.693
12802W        W82617   9.381  18.630   1.907
12803W        W82618  24.096  25.672   2.308
12804W        W82619   7.381  26.502  13.505
12805W        W82620  31.950  21.633   4.683
12806W        W82621  25.096   7.381  13.385
12807W        W82622  40.880  35.371  14.430
12808W        W82623  16.246  17.234   0.959
12809W        W82624  18.059   6.406  14.844
12810W        W82625  10.693  42.820  10.631
12811W        W82626  37.922  23.698   0.813
12812W        W82627  35.488  34.420  12.877
12813W        W82628  42.852   2.248   3.672
12814W        W82629  25.576  29.430   2.728
12815W        W82630  30.609  14.190   3.258
12816W        W82631  12.783  19.170   5.638
12817W        W82632  30.130  30.529  11.009
12818W        W82633   7.259  40.843  11.407
12819W        W82634  26.104  37.876  11.604
12820W        W82635  36.362  26.999   3.690
12821W        W82636   8.660  24.997  10.913
12822W        W82637   6.337   7.267  11.398
12823W        W82638   5.933  11.239  12.549
12824W        W82639  42.874   2.243  13.468
12825W        W82640   9.775   2.410  12.857
12826W        W82641   9.361   8.168   1.700
12827W        W82642  23.239  33.990  11.921
12828W        W82643   5.250  44.854   1.216
12829W        W82644  16.177  28.547   0.258
12830W        W82645  33.561  15.203   1.309
12831W        W82646  23.062  30.641   0.445
12832W        W82647  19.048  34.074   2.812
12833W        W82648  34.894  25.982   3.856
12834W        W82649  37.577  31.126  13.826
12835W        W82650  42.292   1.905  12.865
12836W        W82651   6.811  26.995  11.482
12837W        W82652  26.566  30.453  13.004
12838W        W82653  31.898  36.917   2.831
12839W        W82654  36.385  10.363  13.426
12840W        W82655  20.222  32.097  13.323
12841W        W82656   4.348  28.999   4.662
12842W        W82657  21.228  28.479  10.960
12843W        W82658  39.941  28.150  12.358
12844W        W82659  32.949  37.509   0.964
12845W        W82660  20.210  32.046   2.312
12846W        W82661  38.552  43.906  13.017
12847W        W82662  44.993  20.694   2.280
12848W        W82663  18.712  26.200  13.465
12849W        W82664  26.641  42.820  12.999
12850W        W82665  42.000  36.500  11.541
12851W        W82666   1.468   5.916   0.404
12852W        W82667   0.341   2.914   1.712
12853W        W82668  18.576   9.159   3.649
12854W        W82669  11.210  36.347  13.041
12855W        W82670  38.928   4.316  14.369
12856W        W82671  10.765  36.558  11.054
12857W        W82672  18.195  15.296   2.399
12858W        W82673  39.952  27.137   4.233
12859W        W82674   6.880  40.885  10.495
12860W        W82675  10.681   2.463   0.832
12861W        W82676  10.710  30.079   4.806
12862W        W82677  40.964  28.121  10.954
12863W        W82678  27.538  31.085  11.127
12864W        W82679  37.060   5.856   1.348
12865W        W82680  24.085  39.868   0.815
12866W        W82681  38.928  27.132   9.957
12867W        W82682  41.373  11.711  14.958
12868W        W82683  29.427   3.878  14.770
12869W        W82684  36.536  42.780   9.994
12870W        W82685  17.734   8.400  14.374
12871W        W82686  24.614  21.621   3.303
12872W        W82687   4.852  21.066   2.692
12873W        W82688  32.550  21.036  10.491
12874W        W82689  14.811  29.120   1.215
12875W        W82690  32.485   2.255   0.837
12876W        W82691  29.018  23.709   0.815
12877W        W82692  32.087   3.287  11.988
12878W        W82693  28.055  36.853   0.404
12879W        W82694   6.202   3.945  11.480
12880W        W82695   5.724   0.823   1.370
12881W        W82696   5.363  20.568  13.823
12882W        W82697   4.909   2.240   2.180
12883W        W82698   4.904  40.893  14.475
12884W        W82699  13.688  32.507  12.989
12885W        W82700   6.239  11.329  11.974
12886W        W82701  38.425  38.549   0.416
12887W        W82702  41.950  11.780  13.484
12888W        W82703  31.576  31.053  13.989
12889W        W82704   2.293  23.499  13.368
12890W        W82705   8.234  39.508   0.311
12891W        W82706  15.677  20.625  13.970
12892W        W82707  21.221  41.536  14.944
12893W        W82708   9.380  15.607   4.180
12894W        W82709  42.863   0.861  12.496
12895W        W82710   1.416  41.425   0.473
12896W        W82711  31.614  32.477   2.227
12897W        W82712  20.765   5.800  11.440
12898W        W82713  16.248  24.663  12.969
12899W        W82714  13.173  18.730  13.948
12900W        W82715   4.743  33.883   3.696
12901W        W82716  23.224  23.542  13.837
12902W        W82717  43.975  16.770  10.564
12903W        W82718  36.441  44.830  13.958
12904W        W82719   3.809  23.520   3.777
12905W        W82720  20.680  43.344  10.070
12906W        W82721   9.358  17.278  13.496
12907W        W82722  14.722  33.542  11.128
12908W        W82723  19.715   2.320  14.403
12909W        W82724  16.097  29.536  12.462
12910W        W82725  38.028  13.609  13.536
12911W        W82726  10.877  23.590   4.779
12912W        W82727  36.058  26.105   2.299
12913W        W82728  11.155  10.693   2.343
12914W        W82729  31.925   5.242  11.018
12915W        W82730   3.726  28.465   3.774
12916W        W82731   9.339  12.225   0.885
12917W        W82732  15.129  42.320   4.278
12918W        W82733  11.646   7.201   4.667
12919W        W82734  44.009   1.321   2.702
12920W        W82735  40.440  12.687   4.748
12921W        W82736   6.804   5.216  13.860
12922W        W82737   2.721  28.621   3.370
12923W        W82738  41.328   9.305  13.851
12924W        W82739  18.632  18.207  10.519
12925W        W82740  16.150  20.711  14.423
12926W        W82741  29.632  23.164  13.318
12927W        W82742  44.759  33.483  13.014
12928W        W82743  31.069  12.790  13.052
12929W        W82744   2.876  21.650   2.826
12930W        W82745  18.270   5.792  11.502
12931W        W82746  44.799  39.390   3.857
12932W        W82747  30.934   3.419  12.377
12933W        W82748  30.133  19.216  10.501
12934W        W82749  36.572   3.948  12.499
12935W        W82750   2.938   3.305  14.769
12936W        W82751  25.472  27.485   3.221
12937W        W82752  11.149  16.748  14.975
12938W        W82753  11.224   3.936  14.404
12939W        W82754  33.074  13.278   4.629
12940W        W82755  11.322  44.928   2.669
12941W        W82756  28.456   9.825  10.636
12942W        W82757  12.305  38.980   2.902
12943W        W82758   5.823  16.217   2.742
12944W        W82759  40.963  10.720  12.867
12945W        W82760  35.510  21.046  12.444
12946W        W82761   0.288  37.383  13.956
12947W        W82762  37.877  22.616  13.957
12948W        W82763   2.371  16.307  13.819
12949W        W82764   1.257   8.217   2.379
12950W        W82765  36.007   5.920  11.117
12951W        W82766  34.584   2.909  11.507
12952W        W82767   6.330   8.833   4.142
12953W        W82768  20.058  20.135  10.457
12954W        W82769  19.760  33.122   1.895
12955W        W82770   0.470  27.453  14.017
12956W        W82771  23.171  41.529   1.726
12957W        W82772  33.618   0.257  10.483
12958W        W82773  32.090  42.371   4.343
12959W        W82774   0.281  29.976  10.550
12960W        W82775  36.546  42.793  12.506
12961W        W82776  20.767  32.401  11.129
12962W        W82777  41.523  12.128  13.877
12963W        W82778  38.902  40.849   1.418
12964W        W82779  26.616   6.246   4.273
12965W        W82780   5.856   3.928   4.638
12966W        W82781   8.293  18.156   0.923
12967W        W82782  31.975  37.002  13.324
12968W        W82783  35.506   8.660  14.379
12969W        W82784  30.494  41.806  11.050
12970W        W82785   4.260   8.193   2.266
12971W        W82786  38.443  38.461  11.070
12972W        W82787  25.629  12.266  13.945
12973W        W82788  32.912  40.377  13.476
12974W        W82789  28.499  25.556   3.724
12975W        W82790   6.337  44.954  13.041
12976W        W82791  16.618  17.607  13.953
12977W        W82792  16.616   1.295   3.745
12978W        W82793  36.451  40.020   1.831
12979W        W82794  21.632  34.611   2.356
12980W        W82795  43.307  38.348  10.504
12981W        W82796  35.947   7.360  14.398
12982W        W82797  30.130  41.536   4.599
12983W        W82798   1.959  11.144  11.543
12984W        W82799  39.972   0.922   5.208
12985W        W82800  36.549   4.787  11.449
12986W        W82801  35.561  18.134  14.004
12987W        W82802  30.110  36.400   4.711
12988W        W82803  18.688  44.966  12.945
12989W        W82804  35.380  31.105   0.439
12990W        W82805  33.037  20.702   4.804
12991W        W82806  33.582  44.918   3.248
12992W        W82807  32.981  27.181   4.196
12993W        W82808  40.404  19.673  10.046
12994W        W82809  32.036  16.624  10.095
12995W        W82810  35.583   9.753   4.254
12996W        W82811   7.245  25.068  11.098
12997W        W82812  17.564   4.445  13.327
12998W        W82813  15.638  18.087   2.390
12999W        W82814  41.455  11.153  13.897
13000W        W82815   8.262  13.226  12.829
13001W        W82816   7.385  21.215  12.498
13002W        W82817  42.333  16.582  12.352
13003W        W82818  22.653   2.745   1.355
13004W        W82819   0.480  18.105   3.786
13005W        W82820  44.782   3.937   3.660
13006W        W82821  30.485  29.101  11.441
13007W        W82822  21.700  25.592  13.413
13008W        W82823  18.192  29.169   0.427
13009W        W82824  32.917  15.689   1.924
13010W        W82825   5.302  12.298  13.318
13011W        W82826  34.033  41.342   1.427
13012W        W82827  35.408  13.602   4.778
13013W        W82828   1.455   0.420  10.980
13014W        W82829   5.718   8.264  14.761
13015W        W82830   8.350  10.237  10.528
13016W        W82831  43.886  42.849  11.460
13017W        W82832   8.848  15.091  11.469
13018W        W82833  12.252  31.454  11.396
13019W        W82834  37.506  42.836  10.428
13020W        W82835   6.841  43.975  13.909
13021W        W82836  32.511   5.742   0.727
13022W        W82837  18.670  24.552   2.224
13023W        W82838  44.484   5.909  13.348
13024W        W82839  33.095  39.457  11.608
13025W        W82840  26.518   6.806  13.880
13026W        W82841  36.943  12.236  10.938
13027W        W82842   6.239   3.790  10.082
13028W        W82843  38.353  14.287   3.277
13029W        W82844  14.228  36.072   2.752
13030W        W82845  33.082  18.629  12.975
13031W        W82846   6.923  37.501   0.445
13032W        W82847   9.315   3.913   2.355
13033W        W82848  37.510   8.843   5.100
13034W        W82849   8.172   4.856   3.167
13035W        W82850  21.518  32.105   1.761
13036W        W82851  42.983   8.793   5.155
13037W        W82852  29.124   5.890   1.361
13038W        W82853  25.699  18.571  14.797
13039W        W82854  39.460   3.263   3.273
13040W        W82855  43.962  37.073  11.581
13041W        W82856  27.133  36.413  13.046
13042W        W82857  39.498  29.644   2.416
13043W        W82858  36.854  26.523   2.239
13044W        W82859  38.035  39.951  12.998
13045W        W82860  31.905  36.578  11.927
13046W        W82861  28.038  13.737   2.872
13047W        W82862   6.231   7.812  12.551
13048W        W82863  27.657  42.337  13.470
13049W        W82864  21.729  44.806   3.177
13050W        W82865  40.908  37.401  11.601
13051W        W82866  29.132   9.150  12.904
13052W        W82867  16.665  43.847  12.875
13053W        W82868   0.898  15.271  13.982
13054W        W82869  41.916   1.895  14.821
13055W        W82870  17.650  26.550  10.578
13056W        W82871  10.278  40.944   3.348
13057W        W82872  22.084  38.469  13.004
13058W        W82873  18.761  22.116   2.741
13059W        W82874  13.644  44.989   0.404
13060W        W82875  20.721  41.391   3.281
13061W        W82876   8.812  15.621  11.866
13062W        W82877  24.115  14.226   0.460
13063W        W82878  44.898  33.612  14.848
13064W        W82879  32.480  15.784   2.363
13065W        W82880  34.470  41.892  11.939
13066W        W82881  32.431  13.641   0.871
13067W        W82882  29.665  26.040   3.643
13068W        W82883  18.606  18.710  11.024
13069W        W82884  28.476  40.924  13.861
13070W        W82885  10.277   8.208   3.337
13071W        W82886  19.168   4.237   4.341
13072W        W82887   5.893  25.189   3.345
13073W        W82888  14.287  41.456  10.551
13074W        W82889  31.424  33.939   1.232
13075W        W82890  15.604   7.201  13.890
13076W        W82891  38.558  40.802  12.033
13077W        W82892  25.975   7.291  13.930
13078W        W82893  13.238  21.165  11.920
13079W        W82894   4.371  44.427  13.044
13080W        W82895   7.416  44.354  13.387
13081W        W82896  39.474  16.277  13.025
13082W        W82897  11.166  24.059  13.307
13083W        W82898  17.778  11.223   1.705
13084W        W82899  31.479  12.212  13.470
13085W        W82900  20.602  17.069   3.808
13086W        W82901  21.150  19.094   4.327
13087W        W82902   9.278   9.744   2.864
13088W        W82903  15.578  32.519   3.241
13089W        W82904  17.177  41.004   0.761
13090W        W82905   4.257  30.591   2.676
13091W        W82906  16.100   8.386   0.964
13092W        W82907  33.955   5.368   1.432
13093W        W82908   5.336  27.066   3.655
13094W        W82909  17.679  31.508   2.688
13095W        W82910  43.467   3.904  12.869
13096W        W82911  36.504  12.743   0.452
13097W        W82912  24.593   1.448   4.638
13098W        W82913  12.317  37.399  11.050
13099W        W82914  16.277   6.204  14.300
13100W        W82915   5.768  37.841   4.745
13101W        W82916  37.514  32.046  14.901
13102W        W82917  29.631  16.183  11.911
13103W        W82918  14.677  38.937   1.277
13104W        W82919   8.825   3.888   2.208
13105W        W82920  40.037  43.454  10.458
13106W        W82921  34.465  25.501   0.380
13107W        W82922  17.679  10.647   0.886
13108W        W82923  30.586   3.373   0.853
13109W        W82924  26.113   2.808  14.011
13110W        W82925  17.777  20.584  11.011
13111W        W82926  16.756  25.006   4.725
13112W        W82927  32.961  24.592   3.740
13113W        W82928   4.813  15.708   2.776
13114W        W82929  41.451  10.748  13.367
13115W        W82930  28.965  25.655  12.973
13116W        W82931  12.327  40.901  12.531
13117W        W82932  31.139   7.673   4.629
13118W        W82933  34.412   3.852  13.009
13119W        W82934  16.185  30.451   2.191
13120W        W82935  37.952  34.499  11.460
13121W        W82936  19.211   3.430  13.308
13122W        W82937  17.673  24.182  14.502
13123W        W82938  44.264  44.990  14.377
13124W        W82939  23.994  16.589  12.519
13125W        W82940  26.605  27.670  12.552
13126W        W82941  30.451  25.700  13.430
13127W        W82942   8.163  22.107   3.678
13128W        W82943   4.367  31.576  12.479
13129W        W82944  14.723  34.436   2.758
13130W        W82945  15.287  21.622  10.639
13131W        W82946  33.613  10.298   4.327
13132W        W82947  30.933  28.946   0.855
13133W        W82948   9.870  25.998   2.717
13134W        W82949  35.032  34.082  13.308
13135W        W82950   2.786  36.962  11.603
13136W        W82951  37.520   8.892  11.490
13137W        W82952  25.582  40.942  10.102
13138W        W82953   0.305   4.762   4.252
13139W        W82954  29.520  20.062  11.883
13140W        W82955  35.866   7.177   0.328
13141W        W82956  26.597  26.131   0.788
13142W        W82957  24.991  34.921   0.432
13143W        W82958  10.776   7.289   3.237
13144W        W82959  33.100  18.707  13.870
13145W        W82960   8.296   9.879  11.393
13146W        W82961  22.074   1.287   4.152
13147W        W82962  41.830  15.312   3.178
13148W        W82963   3.835  24.524   2.890
13149W        W82964  29.471  40.971  13.877
13150W        W82965  28.025  32.938  10.459
13151W        W82966  29.531  32.960  13.385
13152W        W82967  36.896  33.928  11.930
13153W        W82968   1.253  16.087   3.374
13154W        W82969   0.745  25.526  13.417
13155W        W82970  40.405  37.513   1.729
13156W        W82971  18.062  37.901   0.482
13157W        W82972  26.089  15.223   0.435
13158W        W82973  10.790   6.387   3.177
13159W        W82974  17.572   7.829  13.525
13160W        W82975  23.156   3.317  14.832
13161W        W82976  34.381  37.532  14.857
13162W        W82977  41.506  18.679   0.908
13163W        W82978  41.421  23.013  13.845
13164W        W82979  39.912  31.117  10.945
13165W        W82980  18.113  16.153  10.519
13166W        W82981  10.633   9.339  11.514
13167W        W82982  34.977   3.758   1.215
13168W        W82983   6.790  11.674   2.334
13169W        W82984   5.322  34.599   4.641
13170W        W82985  42.839  43.001  14.512
13171W        W82986  13.112  39.405  14.000
13172W        W82987  24.664  29.527  11.606
13173W        W82988  43.358  42.324   3.250
13174W        W82989  42.976   5.700   0.413
13175W        W82990  36.980  40.027   3.182
13176W        W82991  32.572  28.040   3.152
13177W        W82992   3.418  19.124  14.367
13178W        W82993  44.418  28.059  13.000
13179W        W82994  44.972  41.843  14.786
13180W        W82995  44.822  17.103  14.903
13181W        W82996  38.061   0.445  10.540
13182W        W82997  28.477   7.696  14.874
13183W        W82998  21.537   0.933   4.229
13184W        W82999  29.945  19.633   2.238
13185W        W83000   0.261  24.628  13.960
13186W        W83001  22.656  16.742   9.495
13187W        W83002   9.275  16.580  12.076
13188W        W83003  15.203  42.440   1.878
13189W        W83004  15.621  25.191  11.548
13190W        W83005   3.823  27.653  11.426
13191W        W83006   0.400  31.046  14.890
13192W        W83007  24.200  22.514   1.814
13193W        W83008  44.774  23.199  14.509
13194W        W83009  38.951  21.526  10.614
13195W        W83010   8.894  25.700   2.196
13196W        W83011   9.395  18.162   2.882
13197W        W83012  12.206  27.962   4.296
13198W        W83013   6.721  35.067   4.614
13199W        W83014  10.877  36.500   1.387
13200W        W83015  39.996  44.279   2.826
13201W        W83016   8.855  44.849  11.377
13202W        W83017  14.682  30.572  10.638
13203W        W83018  23.637   2.322   3.843
13204W        W83019  32.075   4.856   0.402
13205W        W83020  15.218   1.938  14.507
13206W        W83021  39.409   7.353  14.970
13207W        W83022   8.285  14.819   3.709
13208W        W83023  15.289   6.705  14.321
13209W        W83024   7.816  15.084  14.861
13210W        W83025  16.755  37.556   0.771
13211W        W83026   3.275  21.184  10.458
13212W        W83027  34.528  22.224  13.928
13213W        W83028  34.075  31.472   4.688
13214W        W83029   8.310  24.576  11.979
13215W        W83030  13.844  12.766   0.434
13216W        W83031  10.872  28.003   4.225
13217W        W83032  39.979  43.285   4.797
13218W        W83033  11.142  32.540  13.962
13219W        W83034  17.152  10.767   1.762
13220W        W83035  17.576  38.844   2.310
13221W        W83036  19.726  16.132  14.499
13222W        W83037  17.064  20.029  12.412
13223W        W83038  17.112  38.560  13.401
13224W        W83039  19.624  18.716  12.012
13225W        W83040  33.573   5.252   3.819
13226W        W83041  32.518   3.317   0.334
13227W        W83042   3.927  11.681  10.567
13228W        W83043   8.247  23.662  11.044
13229W        W83044   5.248  29.038  14.759
13230W        W83045   6.709  14.688   0.367
13231W        W83046  40.343  22.735  14.477
13232W        W83047   1.972  38.061  11.473
13233W        W83048   9.254  29.953  14.418
13234W        W83049  32.043  40.987  14.355
13235W        W83050  14.332   6.700   3.323
13236W        W83051   3.744  23.028  14.478
13237W        W83052  32.934  42.802   4.717
13238W        W83053  24.035   6.848   1.299
13239W        W83054  27.452  23.641  13.816
13240W        W83055  34.596   8.844   4.274
13241W        W83056  38.952  12.212  14.957
13242W        W83057   1.269  41.973  14.950
13243W        W83058  40.881  33.416   1.889
13244W        W83059  34.409  39.967   2.845
13245W        W83060   9.643   9.844  13.847
13246W        W83061  43.873   3.885  14.930
13247W        W83062  25.202  20.054  14.316
13248W        W83063  34.114  10.170  14.911
13249W        W83064  22.225  20.271   0.862
13250W        W83065  26.092   0.770  11.429
13251W        W83066  34.468  20.654   3.717
13252W        W83067  12.155  38.360   3.814
13253W        W83068  38.350   0.906   5.297
13254W        W83069  26.996  37.468   3.679
13255W        W83070  24.076  41.324   9.978
13256W        W83071  12.248  36.075   0.430
13257W        W83072  27.094  31.987   4.274
13258W        W83073   7.806  18.780   2.863
13259W        W83074  40.468  40.377  11.955
13260W        W83075  44.404  14.269  14.297
13261W        W83076  17.244  40.827   0.432
13262W        W83077  34.399  25.071   2.824
13263W        W83078  21.624  23.164   4.833
13264W        W83079  10.638  43.322   2.702
13265W        W83080   8.710  17.783   3.749
13266W        W83081  29.940  19.279   3.267
13267W        W83082   0.315   0.307   1.780
13268W        W83083   4.910  23.048  10.557
13269W        W83084  27.455  11.333   4.124
13270W        W83085   3.901  12.762  13.446
13271W        W83086  14.622  30.598   0.326
13272W        W83087  40.476  40.471  14.816
13273W        W83088  32.502  24.996   4.727
13274W        W83089   1.292  10.297  14.784
13275W        W83090  19.209  41.456  10.988
13276W        W83091  26.546   3.439   4.732
13277W        W83092  10.223  41.996   2.354
13278W        W83093  12.648  24.221  12.465
13279W        W83094   8.833  27.130  14.391
13280W        W83095  16.764  29.052  12.346
13281W        W83096  13.703  36.364  13.538
13282W        W83097  43.961  39.390   3.282
13283W        W83098  27.506   6.910  13.865
13284W        W83099  29.628  16.262   2.750
13285W        W83100  24.009  17.740  13.418
13286W        W83101   0.827  15.698   3.286
13287W        W83102  22.083  31.024   0.377
13288W        W83103   9.395  41.356  13.475
13289W        W83104  29.938  24.645  14.350
13290W        W83105  11.711   6.356  12.955
13291W        W83106  12.661  35.033  13.399
13292W        W83107  29.495  13.218  14.278
13293W        W83108  37.494  32.571  13.979
13294W        W83109  40.830   0.938   4.298
13295W        W83110  28.011  42.291   1.890
13296W        W83111  32.448  31.463  11.910
13297W        W83112  10.215   8.768  10.430
13298W        W83113   5.727  43.793  10.987
13299W        W83114  34.453  11.698  11.411
13300W        W83115  33.569  17.246  14.466
13301W        W83116   0.953  10.741   3.250
13302W        W83117  42.296   6.681   4.639
13303W        W83118  20.182  30.502   0.964
13304W        W83119  12.626  26.104  11.557
13305W        W83120  13.285   9.848   1.327
13306W        W83121  18.154  19.239  11.981
13307W        W83122  21.562  33.063   4.834
13308W        W83123  38.856  44.867   3.815
13309W        W83124  30.480  42.507   1.746
13310W        W83125  26.197  14.679  10.973
13311W        W83126  38.414  30.496   3.740
13312W        W83127   1.731  24.205  13.902
13313W        W83128  42.915  10.378  12.850
13314W        W83129  36.463  44.975  14.869
13315W        W83130  32.484  33.534   4.743
13316W        W83131   0.423  11.270  14.903
13317W        W83132   2.920   6.355   2.891
13318W        W83133  12.149  25.515  11.983
13319W        W83134  25.700  41.038   5.251
13320W        W83135  27.508  11.767  12.979
13321W        W83136   0.805  30.653   1.253
13322W        W83137  35.599  32.989   3.768
13323W        W83138  15.581  29.078   2.851
13324W        W83139  28.567   6.303  14.769
13325W        W83140   2.402  36.585  14.473
13326W        W83141  41.409  12.850   2.771
13327W        W83142   0.768  39.881   2.272
13328W        W83143  26.499  39.458  10.455
13329W        W83144  20.165  42.805  14.514
13330W        W83145  35.924  24.674   4.307
13331W        W83146  34.998  28.488  14.930
13332W        W83147  27.470  15.190   4.232
13333W        W83148  44.977  43.840  13.331
13334W        W83149  19.652  36.439  12.858
13335W        W83150  15.740   8.891   0.754
13336W        W83151  42.396  24.497  10.619
13337W        W83152  40.503  30.570  11.098
13338W        W83153   1.895  41.524  10.574
13339W        W83154   3.736  37.580   4.228
13340W        W83155  30.129  16.234  12.012
13341W        W83156  18.062  25.690   1.335
13342W        W83157  39.339  42.941  13.993
13343W        W83158  27.605  42.400  14.018
13344W        W83159  33.952  39.411   0.437
13345W        W83160  27.982   3.951   0.307
13346W        W83161  20.753  19.273   3.668
13347W        W83162  30.107  42.481   2.283
13348W        W83163  20.157   8.673   3.736
13349W        W83164   5.738  37.876  12.085
13350W        W83165  40.965  38.042  13.322
13351W        W83166  44.384   7.245  10.447
13352W        W83167   5.754  19.129  12.473
13353W        W83168  17.690  19.556  14.473
13354W        W83169  24.147  38.972   0.308
13355W        W83170  43.782   3.804  14.477
13356W        W83171  35.016  11.830  12.853
13357W        W83172  20.696  43.803  14.890
13358W        W83173  11.233  14.272   0.448
13359W        W83174  25.056  29.125  14.790
13360W        W83175  42.848  20.069  12.075
13361W        W83176   2.846  40.980   2.293
13362W        W83177  22.654   2.935  11.090
13363W        W83178  39.380   3.855   2.738
13364W        W83179  20.029  39.863  11.484
13365W        W83180  35.975  16.789   4.211
13366W        W83181  39.495   8.327   5.130
13367W        W83182   7.832   3.374   2.744
13368W        W83183  31.501  32.473  10.607
13369W        W83184  23.204  29.059  13.947
13370W        W83185  44.263  18.290   4.726
13371W        W83186  29.058  16.793   1.789
13372W        W83187  13.736  26.104  14.393
13373W        W83188  19.127  34.863  12.028
13374W        W83189  17.691  35.988   4.230
13375W        W83190   5.861   7.291   1.244
13376W        W83191  33.041  36.476   0.415
13377W        W83192  31.076  27.980  12.463
13378W        W83193  15.087  42.854  12.343
13379W        W83194  19.563  21.096   3.270
13380W        W83195   5.198  26.464   4.306
13381W        W83196   6.260  41.436  11.990
13382W        W83197  13.324  42.342   3.294
13383W        W83198  18.738  14.107  10.554
13384W        W83199   1.882   1.308   1.729
13385W        W83200   1.785   3.729  10.619
13386W        W83201  38.843  19.630  12.422
13387W        W83202  42.316  27.531   1.794
13388W        W83203   2.284  43.419  10.426
13389W        W83204  34.409  20.063  12.494
13390W        W83205  33.518  36.073  10.458
13391W        W83206  33.974  21.100   1.893
13392W        W83207  39.493   3.262  13.521
13393W        W83208  34.943  24.215   3.359
13394W        W83209  32.953  40.500  10.495
13395W        W83210  23.675  39.513   1.812
13396W        W83211   5.796  36.517  14.490
13397W        W83212  38.422  23.114  10.964
13398W        W83213   3.943  17.599   1.711
13399W        W83214  28.483  30.602   4.268
13400W        W83215   6.751  22.100  13.939
13401W        W83216  26.539  15.733   0.929
13402W        W83217  30.079   3.445   3.191
13403W        W83218   8.828  32.411   0.408
13404W        W83219   9.664  40.895   0.901
13405W        W83220   5.823  40.947   4.176
13406W        W83221  18.288  17.765  14.001
13407W        W83222  11.859  31.901   9.972
13408W        W83223  22.225   5.814   3.760
13409W        W83224   3.945  22.009   4.227
13410W        W83225   4.297  34.615   2.232
13411W        W83226   9.880  43.442   2.355
13412W        W83227  15.746  12.308   0.429
13413W        W83228  28.053  30.595   2.204
13414W        W83229  39.033  31.547   2.271
13415W        W83230  33.007  12.642  14.896
13416W        W83231  27.551  24.050   4.347
13417W        W83232   2.763  10.162  12.418
13418W        W83233  34.374  35.471  10.587
13419W        W83234  37.893  28.075   2.337
13420W        W83235  35.507  24.108  11.378
13421W        W83236  40.355  42.930  14.800
13422W        W83237  31.111  22.063   4.786
13423W        W83238   3.924  40.469  12.941
13424W        W83239   0.289  33.439  11.096
13425W        W83240  43.849  37.945   4.344
13426W        W83241  19.556  33.042   3.729
13427W        W83242  30.649   6.313   3.147
13428W        W83243  10.274   3.925  14.795
13429W        W83244  15.244  12.845   2.830
13430W        W83245   5.429  15.806  10.474
13431W        W83246  19.690  33.619   4.754
13432W        W83247   9.249  16.670  14.456
13433W        W83248  11.254  32.965   0.481
13434W        W83249   1.735  20.611  10.445
13435W        W83250  39.941  13.780  11.085
13436W        W83251   3.799  16.215   0.926
13437W        W83252   5.909  25.987   3.861
13438W        W83253  26.536  13.638  12.881
13439W        W83254  35.566  14.673  14.814
13440W        W83255  27.634   5.234   4.792
13441W        W83256  16.795   2.307   4.126
13442W        W83257   0.322  14.200  11.937
13443W        W83258   7.378  31.608   2.354
13444W        W83259  28.136  38.474   4.338
13445W        W83260   4.894  14.111  14.028
13446W        W83261  21.167  26.041  12.406
13447W        W83262   7.882  21.088   1.805
13448W        W83263  26.081  24.720   0.907
13449W        W83264  20.096  41.537  13.064
13450W        W83265   4.763  22.213   4.824
13451W        W83266  16.789  35.880   2.245
13452W        W83267  12.717  27.083   0.360
13453W        W83268  18.109  29.592   2.243
13454W        W83269  21.586  44.424  14.853
13455W        W83270  15.588   1.964   4.686
13456W        W83271   0.870   1.446   1.795
13457W        W83272  27.612  18.657   2.286
13458W        W83273  42.996  12.665   0.834
13459W        W83274   2.789  40.815   4.753
13460W        W83275   2.410  25.203   2.718
13461W        W83276  29.548   9.703   1.244
13462W        W83277  12.715  23.999  11.531
13463W        W83278  40.847  12.251  14.466
13464W        W83279  41.906  40.324   0.249
13465W        W83280  10.277   8.666  11.064
13466W        W83281  34.098  38.940   0.780
13467W        W83282  18.217  17.193   3.665
13468W        W83283   6.343  18.709   1.249
13469W        W83284  31.596  28.959  11.995
13470W        W83285  13.228   2.269   0.745
13471W        W83286   9.867  22.584   3.225
13472W        W83287  27.005  21.563   1.437
13473W        W83288   1.734  27.465  10.918
13474W        W83289   5.225  32.131  11.987
13475W        W83290  11.721  19.149   0.868
13476W        W83291  28.469  25.477  14.809
13477W        W83292  44.321  12.722   3.639
13478W        W83293  13.636  39.966  14.495
13479W        W83294  24.117   3.836  14.916
13480W        W83295   5.315   2.445  14.850
13481W        W83296  22.216  24.204   1.288
13482W        W83297   1.888  24.718   2.358
13483W        W83298  13.695  38.871  11.477
13484W        W83299   1.251  29.918  14.972
13485W        W83300  12.116  26.512   2.835
13486W        W83301  17.603  34.541   3.776
13487W        W83302   2.341  17.073   3.271
13488W        W83303  24.501   0.362  12.846
13489W        W83304  27.544  23.561  12.509
13490W        W83305  26.566  40.311  14.382
13491W        W83306  33.896  32.501   4.779
13492W        W83307  30.434  37.512   4.204
13493W        W83308  17.645  10.359   1.777
13494W        W83309  38.999  26.081   4.720
13495W        W83310  27.990   6.262  14.335
13496W        W83311  35.487  31.040  14.916
13497W        W83312  42.511  17.065   0.940
13498W        W83313   5.351  19.133  11.493
13499W        W83314  25.576  16.629  10.893
13500W        W83315  20.031  20.201  14.484
13501W        W83316  10.149  15.238   0.405
13502W        W83317  13.660   0.487   1.428
13503W        W83318  22.611   0.786   5.306
13504W        W83319  36.440  28.127  10.935
13505W        W83320   8.227  36.971  11.410
13506W        W83321  43.474   0.874  13.039
13507W        W83322  38.554   0.259  10.496
13508W        W83323  11.644  44.780   3.742
13509W        W83324  43.853  23.123  11.988
13510W        W83325  36.096   8.359   1.329
13511W        W83326  24.497  23.035   0.420
13512W        W83327  15.751   3.836   3.268
13513W        W83328  32.118  28.115   1.783
13514W        W83329  29.932  35.595   4.714
13515W        W83330   3.821   4.280   0.842
13516W        W83331  25.562  14.788   4.223
13517W        W83332   6.427  35.932  11.453
13518W        W83333  34.921  37.074   1.298
13519W        W83334  18.083   4.732  14.031
13520W        W83335  41.868   2.772  12.945
13521W        W83336  34.018   2.851   2.706
13522W        W83337  28.604  12.304  10.948
13523W        W83338  21.029   1.912   4.711
13524W        W83339   0.837  42.520   1.795
13525W        W83340  12.613  21.189   2.812
13526W        W83341   5.282   0.902  13.045
13527W        W83342   5.338   1.451   0.361
13528W        W83343  27.573  35.939  12.961
13529W        W83344   5.231  43.454  13.510
13530W        W83345   8.321   2.458   4.808
13531W        W83346   3.824  41.481  14.818
13532W        W83347  34.080  24.557  11.373
13533W        W83348  25.153   9.215  12.497
13534W        W83349  41.460  25.678   1.880
13535W        W83350  16.105  39.036  11.547
13536W        W83351   6.714   3.868  11.605
13537W        W83352  29.990   8.843   1.236
13538W        W83353   6.280   3.441  13.938
13539W        W83354  10.714  31.467   3.259
13540W        W83355   2.447  33.403  12.360
13541W        W83356  34.452  22.552  12.857
13542W        W83357  34.031   2.920  12.449
13543W        W83358   3.805  25.988   1.351
13544W        W83359  34.884  43.370  12.529
13545W        W83360  14.809  21.160   1.228
13546W        W83361  14.289   0.256  12.902
13547W        W83362  43.877  29.156   1.926
13548W        W83363   1.388  30.645   2.790
13549W        W83364  38.964  31.503  12.931
13550W        W83365  20.536  28.963   2.336
13551W        W83366   2.306  40.438  13.315
13552W        W83367  26.479  28.019   1.442
13553W        W83368   8.806   3.831   1.411
13554W        W83369  15.683  19.563   4.324
13555W        W83370  26.586   4.205   1.847
13556W        W83371  39.896  25.049   2.333
13557W        W83372  16.665  10.878   3.701
13558W        W83373  27.989  13.250  12.857
13559W        W83374   8.365  30.542   3.813
13560W        W83375  27.019   7.755   3.826
13561W        W83376   1.896  17.626  12.353
13562W        W83377  32.412  39.986   1.746
13563W        W83378  23.016  25.056   4.749
13564W        W83379  39.834   3.436  13.485
13565W        W83380  25.501  36.391   4.774
13566W        W83381  11.187  28.097  14.423
13567W        W83382  24.144  12.819   1.745
13568W        W83383   5.217  31.599  14.823
13569W        W83384  42.291  15.596   3.752
13570W        W83385  17.638   4.760   3.758
13571W        W83386  42.285   7.737  13.399
13572W        W83387  18.238  16.710  10.893
13573W        W83388  28.000  34.383   0.449
13574W        W83389   9.890  17.136   4.623
13575W        W83390   6.742  26.466   2.287
13576W        W83391  23.720  40.349  14.774
13577W        W83392   0.295  43.872   4.666
13578W        W83393  10.284  13.833   5.198
13579W        W83394  27.088  17.778   0.936
13580W        W83395   2.848  19.079  12.485
13581W        W83396  16.583  19.133  10.642
13582W        W83397  41.454  30.917   0.815
13583W        W83398  31.524  28.933   1.829
13584W        W83399  22.605  29.599   3.728
13585W        W83400  18.267  26.567  14.435
13586W        W83401  36.992  11.775  11.487
13587W        W83402  30.596   0.420  12.529
13588W        W83403  28.975  30.608   0.947
13589W        W83404  27.552  37.066  13.823
13590W        W83405  27.075  27.988   4.801
13591W        W83406  23.022  18.260   0.294
13592W        W83407  13.322  41.931  10.513
13593W        W83408  12.649  14.622  11.042
13594W        W83409   8.176   6.319   3.856
13595W        W83410  17.704  30.580   2.374
13596W        W83411  43.516  35.022   0.461
13597W        W83412  20.092  29.076   4.165
13598W        W83413  25.712   3.825  14.313
13599W        W83414  42.304  34.507   2.896
13600W        W83415  27.669  16.737   1.916
13601W        W83416  30.067   3.446  10.428
13602W        W83417   1.827  35.089   3.365
13603W        W83418  12.614  10.827  11.387
13604W        W83419  44.424  19.167   4.221
13605W        W83420   3.716  31.136   3.660
13606W        W83421  28.113  36.087  13.922
13607W        W83422  37.040  25.212  14.386
13608W        W83423  19.144  28.496  12.884
13609W        W83424  32.593  26.652  12.379
13610W        W83425  18.084  22.560   4.278
13611W        W83426  37.022  43.464   1.220
13612W        W83427   8.251  17.277  14.973
13613W        W83428   0.320  37.087   3.271
13614W        W83429  14.625  18.201   3.296
13615W        W83430   0.256  25.665  10.420
13616W        W83431  39.341  38.822   0.309
13617W        W83432   8.654  42.978   3.364
13618W        W83433   8.780  24.061  10.450
13619W        W83434  32.063  25.655   3.213
13620W        W83435  40.364  23.707   0.754
13621W        W83436  10.232  24.545   4.759
13622W        W83437   7.884  41.412   9.928
13623W        W83438  23.639  26.646  10.569
13624W        W83439  38.543   0.426   1.898
13625W        W83440   6.415  15.659   5.308
13626W        W83441  41.405  25.613  10.408
13627W        W83442  35.593  31.051   2.207
13628W        W83443   0.758  40.037   1.903
13629W        W83444  40.421  18.628  10.505
13630W        W83445   3.280  24.179  11.513
13631W        W83446  14.337  27.963   4.147
13632W        W83447  32.439  28.655   2.398
13633W        W83448  30.048  22.032   1.281
13634W        W83449  38.373  32.594  11.404
13635W        W83450   6.813   3.326  10.422
13636W        W83451  36.548   4.224  13.878
13637W        W83452  43.350   9.344  10.492
13638W        W83453  11.347   1.301   3.811
13639W        W83454  37.893  10.746   2.767
13640W        W83455  18.223  14.200  11.451
13641W        W83456  28.560   7.751   1.225
13642W        W83457  41.925  32.570   3.640
13643W        W83458  35.916  37.424  10.988
13644W        W83459  39.395  18.149   2.343
13645W        W83460  41.450  14.637  11.588
13646W        W83461  23.044  28.625   4.811
13647W        W83462   9.266  37.561  13.510
13648W        W83463  37.888  13.789   1.776
13649W        W83464  40.408  20.087  10.527
13650W        W83465   6.336   6.218  11.994
13651W        W83466   4.289  13.224   1.918
13652W        W83467  15.136  34.496   0.463
13653W        W83468  32.958  37.858   0.943
13654W        W83469  10.653  16.744   4.686
13655W        W83470  37.087   7.274  11.070
13656W        W83471  38.370   5.225   2.874
13657W        W83472  10.152  32.482   2.845
13658W        W83473  25.205  23.636  13.383
13659W        W83474  22.517   7.266   3.686
13660W        W83475   6.818  14.749   2.345
13661W        W83476  29.026   9.367  13.796
13662W        W83477  22.556   2.447   2.896
13663W        W83478   3.905  30.641  12.425
13664W        W83479  36.997  19.699   0.395
13665W        W83480  36.060  39.934  13.855
13666W        W83481  11.365  37.925   1.859
13667W        W83482  16.626   9.336  10.514
13668W        W83483  39.011  20.233  14.469
13669W        W83484   7.737  10.839  14.399
13670W        W83485  30.468  11.297   2.230
13671W        W83486  35.488  36.346   0.867
13672W        W83487  10.345  42.347   4.604
13673W        W83488  32.466   2.731  10.578
13674W        W83489   8.196  23.610   4.332
13675W        W83490  22.143   3.393   3.835
13676W        W83491  30.106  39.967  14.513
13677W        W83492  27.502  33.413   2.340
13678W        W83493  19.103  37.488  11.442
13679W        W83494  35.550   5.703   4.264
13680W        W83495  23.170  22.233   4.759
13681W        W83496  13.247   4.790  10.137
13682W        W83497  44.870  36.458   4.333
13683W        W83498  25.528  30.581   4.119
13684W        W83499   6.192  12.677  11.859
13685W        W83500  26.491  40.450   2.896
13686W        W83501  10.825  30.482  12.863
13687W        W83502   5.245   6.743   2.278
13688W        W83503  26.116  38.886  13.307
13689W        W83504   0.804   3.408   2.662
13690W        W83505   8.369  25.123   2.344
13691W        W83506  23.009  40.353  13.024
13692W        W83507   9.801  35.429   3.852
13693W        W83508  27.987  29.127  12.064
13694W        W83509  38.039  10.168  13.399
13695W        W83510  23.653  35.039  11.878
13696W        W83511  29.029   1.756  12.897
13697W        W83512  13.827  13.618   2.746
13698W        W83513  34.071  29.428  10.951
13699W        W83514   2.762  43.906  10.436
13700W        W83515  25.187   0.987   0.816
13701W        W83516   7.683   9.310  12.917
13702W        W83517  23.522  35.047   1.445
13703W        W83518  38.340  17.575  10.988
13704W        W83519  18.738  37.991  11.051
13705W        W83520  15.118  20.249  11.374
13706W        W83521   4.881  37.941  12.976
13707W        W83522   8.739  39.435   3.848
13708W        W83523  41.880  28.473   2.197
13709W        W83524  24.199  17.217  14.976
13710W        W83525  42.028  17.658   1.867
13711W        W83526  21.571  24.051  14.975
13712W        W83527  29.063  20.109   0.344
13713W        W83528  10.282  16.667   0.799
13714W        W83529  38.417   8.332  12.089
13715W        W83530  28.658  25.201   4.324
13716W        W83531  40.530   7.847  11.993
13717W        W83532   1.938  25.149  10.521
13718W        W83533  35.980  28.597   3.838
13719W        W83534  36.523  21.569   0.931
13720W        W83535  38.825  24.026  14.279
13721W        W83536  35.467   6.729   3.146
13722W        W83537  16.789  10.838   1.323
13723W        W83538  23.647  17.708  10.570
13724W        W83539  20.236  40.343  11.109
13725W        W83540  24.574  39.817  12.452
13726W        W83541   5.690  34.548  12.379
13727W        W83542   4.829  32.136  11.443
13728W        W83543  15.250   2.784   3.808
13729W        W83544   5.307  14.606   3.302
13730W        W83545  14.190   9.648   4.707
13731W        W83546  32.959  15.236   4.668
13732W        W83547  37.948  12.708  12.488
13733W        W83548  40.931   0.285  13.874
13734W        W83549  25.713  24.636   1.292
13735W        W83550   9.393  21.684   2.822
13736W        W83551  19.533  38.949  13.342
13737W        W83552  37.398  13.252  10.431
13738W        W83553  19.115  43.012  11.971
13739W        W83554  23.168  11.180   3.261
13740W        W83555   7.353  39.897   1.358
13741W        W83556  35.380   0.969   4.807
13742W        W83557  26.974   6.256  12.561
13743W        W83558  26.497  44.331   1.849
13744W        W83559   6.201  16.285   2.243
13745W        W83560  34.889  23.056   3.820
13746W        W83561  22.637  29.546   0.759
13747W        W83562  15.590  40.889  11.037
13748W        W83563  37.530   7.303  14.923
13749W        W83564  25.680  31.116  14.488
13750W        W83565  17.801  30.584  12.031
13751W        W83566  21.074  15.668  11.605
13752W        W83567  44.421  25.097  12.415
13753W        W83568  28.606  22.996  10.489
13754W        W83569  30.114  18.767   0.302
13755W        W83570  13.710  31.481   3.329
13756W        W83571  10.318   5.213   3.864
13757W        W83572  13.639  18.197   0.746
13758W        W83573  42.394  30.041  13.050
13759W        W83574  20.103  36.512  13.429
13760W        W83575  37.359  37.529  10.487
13761W        W83576  31.444   9.723  10.643
13762W        W83577  40.421  40.951   2.811
13763W        W83578  22.510  25.160  11.064
13764W        W83579  18.110  42.790   3.382
13765W        W83580  17.600   0.345   3.180
13766W        W83581  17.135  13.174   1.822
13767W        W83582  35.910  22.672  13.929
13768W        W83583   5.769  40.923  12.981
13769W        W83584  14.764  31.428   0.961
13770W        W83585  28.549  18.061   4.833
13771W        W83586   8.743  35.012   2.256
13772W        W83587  13.727   4.304   0.826
13773W        W83588  38.509  44.356  13.325
13774W        W83589   6.391  40.465   0.411
13775W        W83590   4.703  16.118  10.990
13776W        W83591   1.310  20.628  12.901
13777W        W83592  25.536  12.728   2.687
13778W        W83593  19.607  33.564   4.189
13779W        W83594  37.377  38.342  14.943
13780W        W83595   9.213  12.621   2.748
13781W        W83596   3.339  29.491   2.888
13782W        W83597  16.600  39.929  14.486
13783W        W83598  39.929  34.569   0.299
13784W        W83599  22.706  42.914   3.195
13785W        W83600   3.245  22.225   1.755
13786W        W83601  12.687  25.524   2.874
13787W        W83602   6.204  13.775   3.703
13788W        W83603  23.729  34.549   1.783
13789W        W83604   6.194  37.047  14.459
13790W        W83605  34.416  19.581  11.478
13791W        W83606  31.008  32.486  12.352
13792W        W83607  37.841  34.932  11.391
13793W        W83608  16.752  39.830  10.947
13794W        W83609  14.313  40.407  11.555
13795W        W83610  31.502  19.266   1.289
13796W        W83611   6.915  15.698  12.526
13797W        W83612  28.018  37.079   2.403
13798W        W83613   1.344  38.405  13.973
13799W        W83614  34.018   8.290  13.892
13800W        W83615  30.147   2.743   3.235
13801W        W83616  43.766  18.221  11.541
13802W        W83617  10.179  13.695  11.963
13803W        W83618  38.055   0.469  11.122
13804W        W83619  26.499  34.978   4.805
13805W        W83620  32.416  17.301  14.947
13806W        W83621  22.023  11.719  13.984
13807W        W83622  13.261  37.385  10.126
13808W        W83623  34.871  27.653  14.403
13809W        W83624  14.176  33.917   0.337
13810W        W83625  34.042  12.855  12.887
13811W        W83626  40.946  38.992   0.785
13812W        W83627  31.573  29.615   3.781
13813W        W83628  29.092  11.709  12.888
13814W        W83629  30.474  24.661  11.053
13815W        W83630  14.596   3.324  10.498
13816W        W83631  37.938  37.848  14.854
13817W        W83632   6.246   1.823  10.605
13818W        W83633   0.439  26.154   4.346
13819W        W83634  24.132  44.432  13.546
13820W        W83635   3.249  23.007  14.473
13821W        W83636  42.827  40.004  14.505
13822W        W83637  44.270  30.934   3.739
13823W        W83638  24.570  31.477  13.857
13824W        W83639  12.625  28.548   2.671
13825W        W83640  30.526  30.623   0.814
13826W        W83641  14.709  20.683  13.908
13827W        W83642   5.334   1.317   1.380
13828W        W83643  25.696  32.521   0.944
13829W        W83644  34.402   8.281   3.164
13830W        W83645  19.257  15.661   0.384
13831W        W83646  15.178   7.337   0.317
13832W        W83647  34.991   3.788   2.351
13833W        W83648  38.954   4.302  13.859
13834W        W83649  25.130  43.979   1.750
13835W        W83650  36.531  25.553   2.759
13836W        W83651  40.506   3.811   4.200
13837W        W83652   1.783  40.430  12.961
13838W        W83653  14.136  14.212   4.762
13839W        W83654  43.913  12.735  13.064
13840W        W83655  23.095  38.558   1.365
13841W        W83656   4.444   1.367  14.400
13842W        W83657  25.219  15.679   2.323
13843W        W83658  29.603  14.786   0.379
13844W        W83659  27.616  20.117  14.918
13845W        W83660   1.325  10.850  14.782
13846W        W83661  31.488  23.116  14.857
13847W        W83662  32.064  41.483   2.845
13848W        W83663  41.494  10.864   2.663
13849W        W83664   2.890   8.165   3.320
13850W        W83665  25.006  28.062   2.676
13851W        W83666  31.630  37.481   4.621
13852W        W83667  42.780  19.696  13.949
13853W        W83668  38.893  21.050  14.424
13854W        W83669  10.810  39.886   3.264
13855W        W83670   2.242  28.038   4.779
13856W        W83671   2.955  32.609  12.370
13857W        W83672  10.637  31.518   2.339
13858W        W83673   6.749  43.871   2.371
13859W        W83674   4.215  28.005   2.708
13860W        W83675  41.498  19.723   0.458
13861W        W83676  31.552  14.298   0.307
13862W        W83677  39.856  35.053  14.016
13863W        W83678  18.226  31.619  13.484
13864W        W83679  13.155  38.471   2.829
13865W        W83680  44.881  11.688   4.197
13866W        W83681   1.764  25.656   4.170
13867W        W83682  16.677  43.291  11.964
13868W        W83683   8.336  29.654   1.416
13869W        W83684  15.776  36.941   1.735
13870W        W83685  41.452  22.100   0.322
13871W        W83686  11.276   9.357   3.819
13872W        W83687  29.102  29.639   3.274
13873W        W83688   8.845  12.247  10.934
13874W        W83689  14.828  14.214  10.079
13875W        W83690  36.593  11.333   0.460
13876W        W83691  14.644  36.395   3.168
13877W        W83692  21.748  14.832  13.389
13878W        W83693  22.514  42.012   3.232
13879W        W83694  30.639  28.068  11.022
13880W        W83695   6.389  31.078  13.498
13881W        W83696   0.884   4.840   2.390
13882W        W83697  20.188  40.436  12.445
13883W        W83698  30.451  34.973  13.799
13884W        W83699   0.453  16.597  11.532
13885W        W83700   6.698  24.664   0.870
13886W        W83701  10.245  33.607  14.455
13887W        W83702   2.443   0.858   0.851
13888W        W83703   9.149  34.591   2.668
13889W        W83704  42.868  22.060   2.903
13890W        W83705  23.612  41.883   3.335
13891W        W83706  10.774  33.971   0.917
13892W        W83707   4.326  11.318  13.818
13893W        W83708  23.580  17.220  12.464
13894W        W83709   8.677   2.756   2.802
13895W        W83710  32.903  32.401   1.780
13896W        W83711  23.611  29.483   2.231
13897W        W83712  35.455  13.162  11.044
13898W        W83713  37.471  31.453  11.878
13899W        W83714  34.068  26.027  14.386
13900W        W83715  28.616  29.016  11.104
13901W        W83716  31.929   5.774   2.300
13902W        W83717  24.029  10.156  10.502
13903W        W83718  31.574  10.657  13.400
13904W        W83719  23.054  29.489  10.640
13905W        W83720  12.357  14.213  14.847
13906W        W83721  36.459   6.769  12.401
13907W        W83722  44.891  32.933  12.964
13908W        W83723  44.757  23.687   2.195
13909W        W83724  35.984  33.402   9.617
13910W        W83725  22.576  30.147   0.772
13911W        W83726   3.883  34.456  14.776
13912W        W83727  27.081   3.834   4.754
13913W        W83728  44.334  14.694   2.339
13914W        W83729  44.439  22.618   3.760
13915W        W83730   3.425   1.735  10.941
13916W        W83731  21.120  26.970  11.007
13917W        W83732   8.739  11.174   3.370
13918W        W83733   5.365   0.887   0.390
13919W        W83734  22.742   4.318   9.981
13920W        W83735   7.760  12.259   3.155
13921W        W83736   6.232  36.006   3.687
13922W        W83737  25.693  42.955   2.890
13923W        W83738  24.035  37.565   2.327
13924W        W83739  25.610  33.550  12.439
13925W        W83740  18.272  10.162  10.937
13926W        W83741  39.378   3.234   1.275
13927W        W83742  33.626  35.602  13.054
13928W        W83743  17.224  21.199  11.091
13929W        W83744  19.723   3.277   1.914
13930W        W83745  37.398  17.751  11.086
13931W        W83746  37.518  24.091  12.034
13932W        W83747  13.313   4.314   4.115
13933W        W83748  29.594  13.175  11.889
13934W        W83749  28.526   4.897   3.239
13935W        W83750   0.322   7.796  11.002
13936W        W83751  11.704  20.242  12.015
13937W        W83752  24.647  31.104   3.698
13938W        W83753  31.432  44.780   3.209
13939W        W83754   1.956  37.390   3.752
13940W        W83755   1.321  36.481   4.144
13941W        W83756  23.174  27.480   4.190
13942W        W83757   6.236   7.732  14.481
13943W        W83758  11.644  22.583   1.265
13944W        W83759  41.319  34.089   3.823
13945W        W83760   0.908  42.516   4.316
13946W        W83761  39.889  24.158  14.884
13947W        W83762   4.228   2.346   1.429
13948W        W83763  34.432  13.707  12.019
13949W        W83764  19.092  14.271  13.310
13950W        W83765   3.225   9.280  14.450
13951W        W83766   9.691   2.464  10.502
13952W        W83767  24.090  39.998   3.809
13953W        W83768  38.975  39.446   3.771
13954W        W83769   6.798  10.333  11.511
13955W        W83770  34.100  13.615  13.817
13956W        W83771  41.315  20.076   2.721
13957W        W83772  17.238  44.942   4.115
13958W        W83773  27.449   9.333  14.400
13959W        W83774   6.335  38.411  12.835
13960W        W83775  37.042  39.552  13.829
13961W        W83776  18.689  43.810   1.432
13962W        W83777  31.003   4.223   4.615
13963W        W83778  37.987   3.948  13.012
13964W        W83779  43.325  32.521  13.978
13965W        W83780  36.517  33.964  10.447
13966W        W83781  41.474  34.081   1.810
13967W        W83782  14.318  14.796  11.472
13968W        W83783  26.018   3.360  13.955
13969W        W83784  13.250  33.131   0.372
13970W        W83785  19.262  27.072  14.965
13971W        W83786   1.256  11.227   2.395
13972W        W83787  12.221  33.081  14.940
13973W        W83788  17.213  10.672   0.420
13974W        W83789  37.495   1.829   4.711
13975W        W83790   8.204  39.999   0.774
13976W        W83791  22.206  38.546  11.583
13977W        W83792  32.545  25.605   3.690
13978W        W83793  12.174  16.786   2.327
13979W        W83794  31.483   3.234   0.741
13980W        W83795   4.832  12.642  12.956
13981W        W83796   0.774   9.644  12.834
13982W        W83797  26.634  19.548  14.930
13983W        W83798   2.901  38.525   2.710
13984W        W83799  25.604  39.031   3.360
13985W        W83800   5.736  17.223   2.825
13986W        W83801  28.591   4.742  12.964
13987W        W83802   6.249  20.094   1.383
13988W        W83803  30.133  15.730   5.164
13989W        W83804  10.179   0.411  10.054
13990W        W83805   3.859  39.399  14.983
13991W        W83806  19.573   5.370   3.317
13992W        W83807   1.297  42.394   4.350
13993W        W83808  24.098  20.076   3.671
13994W        W83809  26.021   6.754  12.992
13995W        W83810  40.908   7.851   2.184
13996W        W83811  11.732   6.687   2.348
13997W        W83812  39.313  44.880   5.234
13998W        W83813  39.380  23.592  13.814
13999W        W83814  32.523  40.024   2.726
14000W        W83815  34.877   7.838  12.867
14001W        W83816  23.187  28.575   3.364
14002W        W83817  15.163  26.494   1.349
14003W        W83818  43.957  24.553  12.423
14004W        W83819  24.047  26.004  14.361
14005W        W83820   6.732  28.024  11.985
14006W        W83821  32.075  24.583  11.059
14007W        W83822   9.295  27.129  12.447
14008W        W83823  33.419  34.552   4.695
14009W        W83824   9.729  30.427   3.776
14010W        W83825   4.406   7.862  10.970
14011W        W83826  20.221  38.952  12.538
14012W        W83827  35.458  31.038   1.799
14013W        W83828  44.832  17.671  13.967
14014W        W83829   9.226  17.107  10.147
14015W        W83830  44.284  36.995   1.718
14016W        W83831  40.316   2.416  11.022
14017W        W83832  13.342  42.983  12.340
14018W        W83833  11.642   6.845   4.344
14019W        W83834  12.161  17.748  14.467
14020W        W83835  26.478   6.883   2.229
14021W        W83836  23.157  35.869   0.397
14022W        W83837  14.153  44.489   3.698
14023W        W83838   0.809  21.624   1.812
14024W        W83839  21.137  31.121  11.031
14025W        W83840  16.268  41.427  13.836
14026W        W83841  24.986  35.451   2.819
14027W        W83842  15.151   9.792   0.281
14028W        W83843  21.050  27.584   9.997
14029W        W83844   8.252  16.223  12.906
14030W        W83845  44.904   7.868   2.179
14031W        W83846   7.875   0.791  14.842
14032W        W83847  11.224   1.754   3.633
14033W        W83848  33.480  31.091  10.560
14034W        W83849  12.665  36.456   3.245
14035W        W83850  15.771  36.049   9.967
14036W        W83851   2.846  20.218  13.937
14037W        W83852  25.047  15.775  10.986
14038W        W83853  29.055  28.184  12.418
14039W        W83854  35.986  24.656   2.296
14040W        W83855  29.653  24.593   1.808
14041W        W83856  27.040  13.344  12.967
14042W        W83857  12.777   1.921  13.937
14043W        W83858  35.049  21.512  13.857
14044W        W83859  25.711   9.682  13.496
14045W        W83860  35.471  27.568  14.800
14046W        W83861  40.414   5.417   2.314
14047W        W83862  39.322  31.421  11.107
14048W        W83863   7.730  24.039   0.952
14049W        W83864  40.053  38.937  14.954
14050W        W83865  10.713   4.821   4.238
14051W        W83866  33.595  34.870   0.756
14052W        W83867  39.426  26.071  11.495
14053W        W83868  18.233  33.904   3.148
14054W        W83869  29.460  28.153  13.372
14055W        W83870   0.918  28.051  12.091
14056W        W83871  44.269  13.185   0.285
14057W        W83872  41.345  10.306   4.187
14058W        W83873  12.746  35.916   0.727
14059W        W83874  33.542   2.264  14.909
14060W        W83875  28.591   4.795  12.016
14061W        W83876   9.214  42.957   4.830
14062W        W83877  36.555  13.801  13.936
14063W        W83878  28.011  34.537  12.494
14064W        W83879  37.408  34.924   4.795
14065W        W83880  10.634  20.731  14.815
14066W        W83881   3.843   2.367  13.326
14067W        W83882  24.194  44.274   1.882
14068W        W83883  17.656   0.446  10.640
14069W        W83884  40.823   1.958   4.786
14070W        W83885  16.165   1.323   3.160
14071W        W83886  28.180  16.567   0.410
14072W        W83887  30.477   2.931   2.750
14073W        W83888  35.574  23.040  11.963
14074W        W83889   4.882  16.073   0.324
14075W        W83890  23.051  32.085  13.031
14076W        W83891  17.222  33.015   1.336
14077W        W83892  17.205  20.686   4.176
14078W        W83893  11.162  36.555   0.816
14079W        W83894  35.376  14.319  13.432
14080W        W83895   7.699  22.586   5.153
14081W        W83896  41.383  20.274  11.490
14082W        W83897  19.099  13.707  10.534
14083W        W83898  19.558   8.307   4.701
14084W        W83899  14.760  43.015  13.546
14085W        W83900  31.001  22.668   0.815
14086W        W83901   6.715  29.047  14.913
14087W        W83902   3.364  20.217   3.204
14088W        W83903  16.240  27.478   2.711
14089W        W83904  16.813  26.618  13.970
14090W        W83905  26.107  32.019  14.918
14091W        W83906  26.642  29.668  14.316
14092W        W83907  18.153  38.065  10.561
14093W        W83908  25.020  27.182   4.776
14094W        W83909  28.989  44.394  12.825
14095W        W83910  20.601  17.601  13.518
14096W        W83911  13.252  42.898   3.855
14097W        W83912  24.158  38.888   9.957
14098W        W83913  29.969   2.245   2.395
14099W        W83914  31.613  33.053   1.885
14100W        W83915  40.496  44.503   1.437
14101W        W83916  11.321  44.873  13.907
14102W        W83917  21.607  40.548  10.425
14103W        W83918   2.402  27.130   4.670
14104W        W83919  24.009  20.121   0.814
14105W        W83920  18.774  10.268  10.945
14106W        W83921   2.310  38.515  12.037
14107W        W83922   3.399  42.811   4.747
14108W        W83923  13.204  38.509  13.869
14109W        W83924  28.959  40.439   2.895
14110W        W83925  28.517  42.027  11.382
14111W        W83926   2.361  32.543  12.036
14112W        W83927  38.074  26.004   2.838
14113W        W83928  40.517   5.888   1.765
14114W        W83929   3.718  11.261  13.915
14115W        W83930  17.756   4.729   9.926
14116W        W83931  24.042  43.485   3.813
14117W        W83932  20.133  11.846  13.329
14118W        W83933  43.353   3.381   4.631
14119W        W83934  39.903  25.477   1.229
14120W        W83935   9.716   4.863   2.331
14121W        W83936  44.845  11.242   2.181
14122W        W83937   5.825  41.928  12.452
14123W        W83938  33.452  14.340  11.089
14124W        W83939  16.756  14.099  13.043
14125W        W83940   6.343   5.704  10.980
14126W        W83941   9.764  19.647   0.378
14127W        W83942  18.659  33.428   3.662
14128W        W83943  36.098  43.871   2.275
14129W        W83944  11.769  37.961   2.763
14130W        W83945  39.367   6.302   0.351
14131W        W83946  34.034  17.745  13.499
14132W        W83947  23.500  27.101  11.567
14133W        W83948  23.089  13.290   1.429
14134W        W83949  36.568   8.701  11.043
14135W        W83950  26.527  34.580   0.743
14136W        W83951  36.515   2.927  14.461
14137W        W83952  11.668  33.957  10.539
14138W        W83953  30.600  33.084  10.618
14139W        W83954  27.056  40.354   1.280
14140W        W83955  34.381  17.632   1.437
14141W        W83956  13.139  25.972  11.938
14142W        W83957  26.164  31.965  10.918
14143W        W83958  19.055  32.520   4.698
14144W        W83959  27.634  27.069   0.397
14145W        W83960  31.622  16.262  11.929
14146W        W83961  22.118  10.716   1.423
14147W        W83962  34.525   9.744   1.450
14148W        W83963  33.111  17.625   3.786
14149W        W83964  34.909  23.689   0.265
14150W        W83965  20.186  44.297  12.529
14151W        W83966  24.497  22.657  12.475
14152W        W83967  30.414  39.996  12.524
14153W        W83968   6.267  36.576  14.000
14154W        W83969  23.060   1.926   0.387
14155W        W83970   7.356  16.177  12.528
14156W        W83971  32.977  36.915  13.044
14157W        W83972  34.870   6.209   2.880
14158W        W83973  23.105  20.689  14.930
14159W        W83974   0.413  40.388   2.667
14160W        W83975   5.358  22.537   4.710
14161W        W83976  14.238  43.984   1.338
14162W        W83977  32.618  35.981  11.520
14163W        W83978  40.870  17.698  14.816
14164W        W83979  18.120  43.850   1.227
14165W        W83980  10.176  33.475  13.876
14166W        W83981  14.641   0.340  13.408
14167W        W83982   9.298  30.093  12.989
14168W        W83983  12.775  35.005   0.280
14169W        W83984  34.496   1.352   0.325
14170W        W83985  20.030  43.020  13.462
14171W        W83986   8.868  25.501  11.977
14172W        W83987  40.450  28.670  12.571
14173W        W83988  25.087  28.451   4.350
14174W        W83989   4.208  30.495  13.426
14175W        W83990  14.163  34.536  11.897
14176W        W83991   9.254  39.486   5.587
14177W        W83992  14.294  25.655  13.902
14178W        W83993  41.503  26.001  11.932
14179W        W83994  14.803  28.113  14.300
14180W        W83995   9.688  38.837  10.989
14181W        W83996  29.472  43.436  11.864
14182W        W83997  37.990  37.341   2.330
14183W        W83998  26.457  40.823  14.331
14184W        W83999   6.896   5.860   3.658
14185W        W84000  18.789  17.216   3.344
14186W        W84001  15.264   3.335  10.900
14187W        W84002  34.478  33.914  13.516
14188W        W84003  20.148  27.077  12.512
14189W        W84004  26.459  18.244   3.148
14190W        W84005  24.112  35.456  14.859
14191W        W84006  32.621  23.192   0.415
14192W        W84007  17.287  13.691  13.996
14193W        W84008   0.942  39.466  10.983
14194W        W84009  35.106   2.793   4.122
14195W        W84010   0.411   5.742   0.949
14196W        W84011  39.533  10.235  10.921
14197W        W84012   3.789  44.985   4.752
14198W        W84013  15.149  29.003   0.967
14199W        W84014  37.419  22.583   0.362
14200W        W84015  18.605  22.703   3.809
14201W        W84016  19.556  23.044   2.303
14202W        W84017  10.212   7.360   4.812
14203W        W84018   5.889  35.924   0.772
14204W        W84019  32.911  30.532   0.418
14205W        W84020  28.123  10.846   5.287
14206W        W84021  23.624  43.295  13.412
14207W        W84022   3.317  20.039   0.795
14208W        W84023  27.499   7.805   4.796
14209W        W84024  30.020  43.810   0.294
14210W        W84025  17.262  30.036  13.851
14211W        W84026  37.518  17.111  12.892
14212W        W84027   7.745  24.612   4.700
14213W        W84028  32.937  41.887   1.279
14214W        W84029  30.066  14.694  14.860
14215W        W84030   0.476  20.550  14.403
14216W        W84031  13.318  17.718   2.386
14217W        W84032  32.637  33.573  11.593
14218W        W84033  35.591  27.993   1.828
14219W        W84034  20.729   8.722   4.145
14220W        W84035  12.228  18.213  14.302
14221W        W84036  18.689  18.196   2.841
14222W        W84037  34.606   8.350  12.073
14223W        W84038  36.985  38.922  11.512
14224W        W84039   9.187   5.439  10.604
14225W        W84040  22.205   8.867   0.733
14226W        W84041  14.637   4.883  13.004
14227W        W84042  22.119   8.170   1.734
14228W        W84043  34.406  25.049  13.850
14229W        W84044  10.236   8.304  11.104
14230W        W84045  12.176  20.536  10.968
14231W        W84046  31.429   5.828   0.329
14232W        W84047  10.229  13.799  10.992
14233W        W84048   0.352  41.865   4.618
14234W        W84049  44.952   0.842   4.634
14235W        W84050  43.461   5.738  12.976
14236W        W84051  28.653  13.771   3.819
14237W        W84052   7.910  31.405  13.004
14238W        W84053  24.525  14.667  13.324
14239W        W84054  17.662  36.053  13.428
14240W        W84055  39.480  35.914  12.037
14241W        W84056   0.754  32.436   2.833
14242W        W84057  26.622   7.666   4.283
14243W        W84058   5.907  27.055  13.310
14244W        W84059  22.007   7.303  12.981
14245W        W84060  44.759  44.933  11.452
14246W        W84061  43.900  35.479   3.370
14247W        W84062   6.250  43.353  13.892
14248W        W84063  30.558  36.919   2.415
14249W        W84064  12.263   9.870  12.086
14250W        W84065  30.921  40.864  13.005
14251W        W84066  31.960  42.484   2.751
14252W        W84067  18.245  44.928  13.816
14253W        W84068   9.300  12.798   4.641
14254W        W84069  40.976  23.989  10.413
14255W        W84070  27.663   2.410   2.895
14256W        W84071  24.633  13.302  14.330
14257W        W84072  11.369   7.350   3.657
14258W        W84073   1.928   5.810   1.929
14259W        W84074  12.179  11.745   0.864
14260W        W84075   4.221  36.954  11.558
14261W        W84076  14.214   2.963  13.952
14262W        W84077  29.019  13.751   4.602
14263W        W84078   5.388  26.009  13.989
14264W        W84079  13.600   3.748   4.306
14265W        W84080  41.339   5.379   3.867
14266W        W84081  28.135   5.263   0.906
14267W        W84082  43.857  28.034  13.031
14268W        W84083   3.399  33.487  14.810
14269W        W84084  15.690  25.035  10.101
14270W        W84085  44.356  21.198   4.113
14271W        W84086   4.768  11.783   5.252
14272W        W84087  20.234  39.899  14.862
14273W        W84088  37.903  11.271  11.446
14274W        W84089  43.342  26.517  12.005
14275W        W84090   4.721  16.576  13.328
14276W        W84091   4.439   2.890   2.216
14277W        W84092  30.077   7.329   4.805
14278W        W84093  11.676  32.541  12.495
14279W        W84094  11.700   5.932   1.930
14280W        W84095  14.692  39.962  11.383
14281W        W84096  27.951  37.423  11.982
14282W        W84097  43.864  38.977  14.784
14283W        W84098  25.068   9.868  12.938
14284W        W84099   7.883  13.678  10.619
14285W        W84100  21.527   1.965  12.097
14286W        W84101   2.939  38.911   0.906
14287W        W84102   6.806  17.609   0.863
14288W        W84103  42.788  15.134  12.095
14289W        W84104   1.306  39.516   2.886
14290W        W84105  18.206  33.475   3.248
14291W        W84106  28.662  33.984  14.508
14292W        W84107   4.783  38.389  10.440
14293W        W84108  12.153   0.803   1.429
14294W        W84109  30.126   4.813   0.752
14295W        W84110  18.130  36.586  10.985
14296W        W84111  37.468  30.420  10.413
14297W        W84112  32.444  13.286   3.781
14298W        W84113   5.754  33.941   0.796
14299W        W84114   8.775  19.194  14.501
14300W        W84115   3.258  18.058   3.830
14301W        W84116  11.185  20.530   1.253
14302W        W84117   8.206  23.163  11.413
14303W        W84118  27.686  20.240   2.388
14304W        W84119  44.864  13.288  11.537
14305W        W84120  12.193   7.813   0.939
14306W        W84121   8.286  35.959  13.505
14307W        W84122   7.874  30.121   1.219
14308W        W84123   3.925  30.572   3.736
14309W        W84124   8.230   6.776   0.870
14310W        W84125   3.326  29.529   0.865
14311W        W84126  43.899  20.072   0.771
14312W        W84127  37.370  18.556  10.637
14313W        W84128  21.247   5.818   9.998
14314W        W84129  28.457  31.023   4.254
14315W        W84130  25.691  30.597   3.647
14316W        W84131  43.296  40.844   4.339
14317W        W84132  18.631  26.658   2.745
14318W        W84133  36.075  13.183  10.896
14319W        W84134  35.420  37.402   0.389
14320W        W84135  18.761  35.600   1.276
14321W        W84136  31.627   1.797   4.636
14322W        W84137  31.991  28.967   1.917
14323W        W84138  28.643  32.512   4.207
14324W        W84139  16.128   0.938  11.529
14325W        W84140   2.929  29.599  11.035
14326W        W84141   8.855  14.722   0.956
14327W        W84142  29.063  13.643  11.953
14328W        W84143  11.288   9.703   2.899
14329W        W84144   4.372  19.571  12.831
14330W        W84145   3.266  17.070  11.952
14331W        W84146  17.718   2.340   3.738
14332W        W84147  28.536  41.869  14.999
14333W        W84148   6.182  19.762  12.017
14334W        W84149  10.307  28.456   3.148
14335W        W84150  37.988  17.687  10.493
14336W        W84151  40.969  39.356  14.831
14337W        W84152  13.600  29.084   2.235
14338W        W84153  18.168  36.382  12.401
14339W        W84154  12.653  41.400  11.545
14340W        W84155   4.317  16.227   2.194
14341W        W84156  33.911   2.831  10.620
14342W        W84157  22.215   2.341   1.337
14343W        W84158  20.110  23.522   2.815
14344W        W84159  18.621  35.970  12.910
14345W        W84160  36.592  20.191   4.723
14346W        W84161  38.956   8.323  13.810
14347W        W84162  42.431  19.228  14.461
14348W        W84163  19.167  15.235   2.838
14349W        W84164  15.645  18.065  11.577
14350W        W84165  31.534  18.790   3.237
14351W        W84166  25.486  18.777   2.795
14352W        W84167  16.125  29.568  13.405
14353W        W84168   7.766   4.716  14.906
14354W        W84169  11.866  23.649  13.852
14355W        W84170  32.017  44.299   0.954
14356W        W84171  14.733  22.669  11.989
14357W        W84172  31.070  16.173  10.428
14358W        W84173  31.138  14.793   2.416
14359W        W84174  42.507  38.568  11.000
14360W        W84175   4.282  39.330   0.417
14361W        W84176   3.248  30.412   2.816
14362W        W84177   6.358  10.158  14.830
14363W        W84178  28.068  10.245   2.246
14364W        W84179  25.020   3.417  13.809
14365W        W84180  31.984  22.996   0.756
14366W        W84181  11.818  18.237   3.707
14367W        W84182  12.274   9.691  14.013
14368W        W84183   1.934  28.445  14.298
14369W        W84184  33.516  20.769  12.835
14370W        W84185   4.328  38.945   1.791
14371W        W84186  38.999   1.957   0.362
14372W        W84187  10.373  26.161  12.446
14373W        W84188   5.268   1.476  14.358
14374W        W84189   8.738   8.305   0.916
14375W        W84190  14.657  32.510  13.541
14376W        W84191  18.667   9.160  11.971
14377W        W84192  28.034  41.021  11.096
14378W        W84193  22.193   3.216   2.813
14379W        W84194  29.468  38.388  11.903
14380W        W84195   0.956   5.785   1.449
14381W        W84196  35.944   2.767   2.279
14382W        W84197   2.344  15.704  10.478
14383W        W84198  12.845  20.137   1.448
14384W        W84199  10.206  26.123  14.812
14385W        W84200  36.848   5.401  11.977
14386W        W84201  30.472   4.886  13.447
14387W        W84202  28.532  14.313   0.866
14388W        W84203  27.478  37.896   2.876
14389W        W84204  23.729   4.708  13.944
14390W        W84205  34.565  22.018  10.901
14391W        W84206  40.453   1.750  13.424
14392W        W84207  37.435  26.507   0.414
14393W        W84208  44.888  14.188  11.953
14394W        W84209   2.303  42.026   1.882
14395W        W84210   2.907  34.578   3.351
14396W        W84211  23.702  18.625   4.772
14397W        W84212  38.862  23.015  12.050
14398W        W84213  22.614   2.450   0.326
14399W        W84214   4.757  35.908  12.447
14400W        W84215  14.783  30.978   2.810
14401W        W84216   3.913  37.478  10.945
14402W        W84217  30.961  23.086   1.876
14403W        W84218  12.782   9.325  13.447
14404W        W84219  18.129  14.302   1.761
14405W        W84220  39.062  32.430  13.814
14406W        W84221  37.865   6.419   0.733
14407W        W84222  24.538  33.388   0.834
14408W        W84223  19.256   1.916  14.889
14409W        W84224   1.883  12.714  13.000
14410W        W84225   6.793  36.352   3.645
14411W        W84226   0.386  38.453   3.781
14412W        W84227  23.225  11.283  10.558
14413W        W84228   1.964  10.655  13.327
14414W        W84229  11.298  28.942   1.870
14415W        W84230  34.385  35.856  13.008
14416W        W84231  29.570   0.440   1.432
14417W        W84232  12.754  13.161  11.900
14418W        W84233  17.629  24.515  12.487
14419W        W84234  22.178  14.143   3.847
14420W        W84235  27.640  42.281  12.420
14421W        W84236  22.210   6.357  11.377
14422W        W84237  40.825  33.946  12.036
14423W        W84238  22.529  11.139   3.816
14424W        W84239  14.209  27.140  10.637
14425W        W84240  19.587  43.852   1.226
14426W        W84241  23.627  29.564   0.352
14427W        W84242   3.340  26.520  12.347
14428W        W84243  11.814  31.533   0.425
14429W        W84244  30.448  23.648  12.535
14430W        W84245  32.526   0.924   2.819
14431W        W84246  23.612  16.286   0.968
14432W        W84247   2.334   9.708  13.343
14433W        W84248  20.118  39.555   2.230
14434W        W84249  14.660  25.103  12.974
14435W        W84250   0.393   0.378  10.553
14436W        W84251  24.528   0.819   1.862
14437W        W84252   2.425  16.091  12.397
14438W        W84253   3.236  14.283  11.907
14439W        W84254  31.918  32.563  10.417
14440W        W84255  10.337  31.546  13.447
14441W        W84256  22.584  38.353   4.739
14442W        W84257   4.384  34.087   1.335
14443W        W84258  11.691  27.160   4.202
14444W        W84259  34.056  44.476   4.622
14445W        W84260  28.613  19.090   3.375
14446W        W84261  10.755  13.192   1.381
14447W        W84262   9.267  22.996   3.203
14448W        W84263  40.043  13.139   0.750
14449W        W84264   2.397   5.397   2.273
14450W        W84265  16.791  28.618  14.428
14451W        W84266   1.974  25.651  13.470
14452W        W84267   6.382   0.777  12.839
14453W        W84268  29.530  24.091   2.677
14454W        W84269   0.479  34.414   2.842
14455W        W84270  32.454  29.164  13.009
14456W        W84271   9.339  42.014  10.985
14457W        W84272  33.127  20.256  14.862
14458W        W84273   2.270  42.505  14.014
14459W        W84274  11.669  38.924  14.840
14460W        W84275  15.714  37.882   3.699
14461W        W84276  30.569  15.300  14.293
14462W        W84277  23.587  16.718  12.093
14463W        W84278  40.914  28.054   1.778
14464W        W84279  43.316   7.676  14.920
14465W        W84280  14.656   8.310   2.843
14466W        W84281  26.991  43.802   3.640
14467W        W84282  24.654  25.599  11.591
14468W        W84283   5.408  40.861   4.351
14469W        W84284  24.645   9.328  10.462
14470W        W84285   0.253  12.355  10.508
14471W        W84286   2.344  32.415  11.414
14472W        W84287  27.683  13.240  10.625
14473W        W84288  38.996  14.229   2.736
14474W        W84289  18.051  43.299   3.652
14475W        W84290  20.128  44.440  12.053
14476W        W84291  27.004   1.968   1.402
14477W        W84292  14.143  19.267   3.223
14478W        W84293  20.271   7.822   3.687
14479W        W84294  19.646   4.888   0.313
14480W        W84295  12.131   5.214   1.316
14481W        W84296   0.303  10.277  13.820
14482W        W84297  15.592   6.878  11.986
14483W        W84298  33.086  35.411   3.782
14484W        W84299   2.320  32.931  12.556
14485W        W84300  14.754  35.951   0.945
14486W        W84301  38.532  29.639  11.426
14487W        W84302  34.944  15.196  14.915
14488W        W84303  31.562  22.213   0.275
14489W        W84304   5.385   2.319  13.414
14490W        W84305  19.707  19.700   0.937
14491W        W84306  29.534  26.146   4.795
14492W        W84307  30.652  25.028   4.354
14493W        W84308  37.936   0.370  11.480
14494W        W84309  42.918   2.907  14.955
14495W        W84310   3.786  39.432   0.902
14496W        W84311  24.051  29.628   2.709
14497W        W84312   4.267  12.661   1.726
14498W        W84313   8.800   9.880   3.187
14499W        W84314  21.742  17.623   3.305
14500W        W84315   6.291   0.970   4.160
14501W        W84316  26.000  43.008  14.925
14502W        W84317  18.177  25.093   2.875
14503W        W84318  29.500  16.135  11.027
14504W        W84319   9.251  21.160  11.461
14505W        W84320  29.629  32.500  14.773
14506W        W84321  29.956  26.573  12.480
14507W        W84322  34.424  19.163  13.978
14508W        W84323  26.042  38.821   0.283
14509W        W84324   2.807   6.841  10.585
14510W        W84325  36.526   2.260  13.988
14511W        W84326  34.047  31.516   1.815
14512W        W84327  37.549  41.804   0.472
14513W        W84328  39.404  11.255   0.304
14514W        W84329  23.690  39.537   0.369
14515W        W84330  25.703  19.640  13.474
14516W        W84331  42.933  16.099   0.961
14517W        W84332  35.443  27.092   4.730
14518W        W84333   1.940  21.259   5.124
14519W        W84334  41.891  36.029   5.123
14520W        W84335  36.480  11.140   3.352
14521W        W84336  38.395  11.846   4.244
14522W        W84337  12.341  38.007   3.311
14523W        W84338  24.111  23.240  12.417
14524W        W84339  30.570  37.057   1.854
14525W        W84340  38.069   3.842   1.919
14526W        W84341  39.974   9.353   4.254
14527W        W84342  33.433   3.942   3.369
14528W        W84343  24.132  30.600  13.420
14529W        W84344  22.503  10.852  13.449
14530W        W84345  34.578  31.958  10.600
14531W        W84346  41.429  11.814  14.275
14532W        W84347  11.659  29.439  10.970
14533W        W84348  29.096  29.170  11.393
14534W        W84349  18.757  40.967  12.951
14535W        W84350  44.872  23.992  10.611
14536W        W84351   9.672   8.397  11.906
14537W        W84352   3.896  41.944  14.460
14538W        W84353  35.916  25.050   0.918
14539W        W84354  25.060   6.348  12.369
14540W        W84355  12.301   7.217  13.863
14541W        W84356   8.764  21.205  10.480
14542W        W84357  19.538  37.990   2.418
14543W        W84358   4.916  39.925   3.680
14544W        W84359   7.818  22.227   4.780
14545W        W84360  23.545  23.491  11.596
14546W        W84361  15.223  27.631   1.408
14547W        W84362  17.246  36.540   3.736
14548W        W84363   7.854  42.878  13.380
14549W        W84364  12.302  24.220  11.116
14550W        W84365  15.230  18.234  11.063
14551W        W84366  16.695  26.065   0.893
14552W        W84367  44.995  17.771  12.860
14553W        W84368  29.468  42.376  13.402
14554W        W84369  35.412   0.772  14.903
14555W        W84370  25.526  39.515  13.014
14556W        W84371  40.408  17.153  12.468
14557W        W84372  44.480  28.638  13.802
14558W        W84373  17.110  33.558   0.907
14559W        W84374  23.213  29.490   2.757
14560W        W84375   7.727  13.161  13.416
14561W        W84376  21.086  16.176  11.416
14562W        W84377   6.681  35.083  14.809
14563W        W84378  18.772   3.749   0.964
14564W        W84379  17.134  37.405   1.833
14565W        W84380  42.500  42.522  13.326
14566W        W84381  14.153  25.976   3.732
14567W        W84382   3.401  28.450  11.483
14568W        W84383   3.811   1.776   2.383
14569W        W84384  26.546  40.054   4.148
14570W        W84385  21.191  34.946  10.419
14571W        W84386  25.714   8.796  11.118
14572W        W84387  28.626  32.523  13.042
14573W        W84388  37.572   1.315   1.371
14574W        W84389  15.304  36.433   3.713
14575W        W84390  26.673   7.805   0.749
14576W        W84391  38.061  28.440   3.268
14577W        W84392  16.680  37.351   1.325
14578W        W84393   2.915  10.292   2.331
14579W        W84394  14.243  13.815   1.296
14580W        W84395  40.400  26.640  13.354
14581W        W84396  20.691  33.478  14.893
14582W        W84397  13.334  12.182   1.782
14583W        W84398   4.448  40.837  13.026
14584W        W84399  23.090  28.517  12.523
14585W        W84400  21.076   7.751   4.261
14586W        W84401  36.966  23.576   2.281
14587W        W84402  36.077  36.460   0.287
14588W        W84403  34.878   4.404   2.742
14589W        W84404  39.337  28.469  13.941
14590W        W84405  23.669  33.404   4.249
14591W        W84406  19.742  41.014   2.774
14592W        W84407   2.849  43.441  14.345
14593W        W84408  19.228  23.104   0.963
14594W        W84409  25.122  33.043  10.978
14595W        W84410  13.735  36.053  13.440
14596W        W84411  35.435  15.734  10.522
14597W        W84412  23.732  22.737  12.912
14598W        W84413   2.909  16.589   4.723
14599W        W84414  40.987  37.980  12.518
14600W        W84415  34.579  23.009  12.992
14601W        W84416  32.602  22.034  13.888
14602W        W84417   2.252  32.069  10.993
14603W        W84418  14.180  30.920  14.292
14604W        W84419  22.632   0.978  12.541
14605W        W84420  12.291  42.475  13.002
14606W        W84421  18.057   6.321   4.683
14607W        W84422   8.833  28.954  11.988
14608W        W84423  16.784   1.297   0.949
14609W        W84424  40.404  35.555  13.397
14610W        W84425  36.370  24.658  13.371
14611W        W84426  26.178  25.641   3.298
14612W        W84427  42.413  28.995  11.902
14613W        W84428   5.761  30.414   3.311
14614W        W84429  32.064  21.073  13.513
14615W        W84430  15.204  10.832  13.805
14616W        W84431  42.782  35.014  12.566
14617W        W84432  40.479  20.767  13.515
14618W        W84433  13.659  22.584  10.485
14619W        W84434  44.365  36.881  14.900
14620W        W84435  43.880  30.957   0.440
14621W        W84436  38.856   9.779   2.295
14622W        W84437   1.241  19.694  14.868
14623W        W84438   5.302  40.995  13.514
14624W        W84439  36.935  29.935  14.028
14625W        W84440   5.822   4.258   4.661
14626W        W84441   3.738  31.930   3.369
14627W        W84442  40.834  38.411   0.896
14628W        W84443  42.321  37.481  11.540
14629W        W84444  24.151  31.924  11.532
14630W        W84445  17.604  26.700   3.381
14631W        W84446  31.536   7.705  13.473
14632W        W84447  25.973  11.805  11.459
14633W        W84448  28.946   6.309  13.034
14634W        W84449  40.370  36.063   3.377
14635W        W84450  44.006  17.645   2.861
14636W        W84451  22.551   0.902  14.820
14637W        W84452  15.582  27.461  12.012
14638W        W84453   6.369  14.119  13.945
14639W        W84454   8.392  29.005   2.415
14640W        W84455   5.218  42.879  12.401
14641W        W84456  18.551   8.240   2.745
14642W        W84457  23.657  36.065  12.892
14643W        W84458  42.288  16.089  12.026
14644W        W84459  22.514  24.594  12.978
14645W        W84460   4.868  44.445  11.983
14646W        W84461  21.729  28.459  11.436
14647W        W84462  38.896  16.668  11.041
14648W        W84463   5.390  13.785  10.551
14649W        W84464   9.879  12.856   0.338
14650W        W84465  16.151  26.702  12.509
14651W        W84466  32.012  42.779   3.226
14652W        W84467  22.226   7.350  11.065
14653W        W84468  43.813  26.691   1.753
14654W        W84469  14.254  21.592   4.148
14655W        W84470  30.607   6.373   2.886
14656W        W84471  43.273   5.199   0.348
14657W        W84472  43.929  22.188  14.504
14658W        W84473  28.461  34.558  12.941
14659W        W84474  40.418  16.120  12.441
14660W        W84475  42.304  16.696  11.105
14661W        W84476   7.292  37.032  10.591
14662W        W84477  36.379  14.681   0.357
14663W        W84478  13.326   7.305   1.335
14664W        W84479  22.227  25.490   3.684
14665W        W84480  29.661  10.202  12.897
14666W        W84481  30.995  41.959   3.662
14667W        W84482  43.357  18.076   1.826
14668W        W84483  13.679  23.663   0.420
14669W        W84484  31.081   3.426   0.327
14670W        W84485  27.031  37.005   4.692
14671W        W84486  15.132  14.672  14.452
14672W        W84487  40.407   0.875   2.202
14673W        W84488  16.297  19.697  12.504
14674W        W84489   9.159  40.024  12.361
14675W        W84490  22.233   7.778   4.327
14676W        W84491   6.834  24.039   4.715
14677W        W84492  18.252   6.427   2.368
14678W        W84493  30.521  14.130  11.065
14679W        W84494  16.652  41.994  14.842
14680W        W84495  23.239  25.470  13.511
14681W        W84496  29.559   9.268   2.237
14682W        W84497  43.849   9.741  10.559
14683W        W84498   6.295   1.350   4.828
14684W        W84499  11.675  15.589   4.613
14685W        W84500  33.383   3.415  13.447
14686W        W84501  26.528  29.999   2.398
14687W        W84502   4.728   4.292  14.500
14688W        W84503   7.386  28.618  13.548
14689W        W84504   3.859  43.006  12.347
14690W        W84505  39.524  21.237   4.665
14691W        W84506  20.751  34.614   1.816
14692W        W84507   9.359  27.110   4.661
14693W        W84508  44.963  17.174   3.788
14694W        W84509  13.238  42.417   1.379
14695W        W84510  41.966  24.215   0.283
14696W        W84511  33.027   7.177  14.976
14697W        W84512  14.279  14.746   4.765
14698W        W84513  44.977   7.687   3.688
14699W        W84514   1.890  32.920  14.492
14700W        W84515   0.907  37.060   2.813
14701W        W84516   2.445  28.611  10.474
14702W        W84517  42.908   9.363   1.885
14703W        W84518  13.108  41.295   4.714
14704W        W84519   7.248  19.213   0.911
14705W        W84520  23.155  42.346  12.068
14706W        W84521  19.587  16.212  13.044
14707W        W84522  23.698   6.849  13.494
14708W        W84523  42.371  43.308   1.439
14709W        W84524  25.575  36.090   0.468
14710W        W84525  30.503  10.153   3.859
14711W        W84526  30.611  10.862  14.348
14712W        W84527  22.999  43.985   1.427
14713W        W84528   0.815  38.027  14.331
14714W        W84529  42.979  41.450   0.387
14715W        W84530  23.177  26.014   4.294
14716W        W84531   2.925  20.640   4.343
14717W        W84532  14.118  37.991   0.737
14718W        W84533  32.120  21.052  14.356
14719W        W84534  16.284  35.519   4.819
14720W        W84535  31.904  27.582  10.986
14721W        W84536  26.535   3.833  13.472
14722W        W84537  15.317  14.174  14.000
14723W        W84538  17.185  26.544   5.193
14724W        W84539  38.494  10.298  11.541
14725W        W84540  38.364  17.280   4.665
14726W        W84541  17.301  25.097  13.837
14727W        W84542  33.936  18.672   4.164
14728W        W84543  10.866  33.405  13.934
14729W        W84544  32.394  36.469  14.865
14730W        W84545  29.473  36.978   1.380
14731W        W84546  33.527  21.517  12.053
14732W        W84547   3.300  26.556  10.036
14733W        W84548  20.101  38.005   0.339
14734W        W84549  22.024  16.782   0.881
14735W        W84550  17.705  17.631   4.805
14736W        W84551  16.185  30.481   1.297
14737W        W84552  39.559  13.232  13.547
14738W        W84553  23.526   3.237  10.420
14739W        W84554  38.484   4.935  14.416
14740W        W84555  35.392   8.733   2.702
14741W        W84556  33.380  18.562  12.392
14742W        W84557  20.708  17.605  14.874
14743W        W84558  42.981  18.609  13.357
14744W        W84559  20.068  13.669   1.428
14745W        W84560  35.602  11.318   0.929
14746W        W84561  29.938  15.591   2.679
14747W        W84562  40.948  21.583  12.928
14748W        W84563  32.095  19.583   0.940
14749W        W84564  15.131  43.798   0.419
14750W        W84565  14.152  22.641   4.734
14751W        W84566  18.275  11.764  13.052
14752W        W84567  24.604  35.863  10.440
14753W        W84568  32.040  24.498   1.330
14754W        W84569  39.956  44.775  10.606
14755W        W84570  26.550   1.921   4.657
14756W        W84571  34.924  20.624   2.828
14757W        W84572  20.160  41.900  10.417
14758W        W84573  25.989   1.409  11.952
14759W        W84574  40.384  43.427   1.815
14760W        W84575  39.928  31.634  10.996
14761W        W84576  16.295  31.090   0.933
14762W        W84577  15.302  23.659   0.254
14763W        W84578  38.432  10.384   2.328
14764W        W84579  11.244   7.352  12.356
14765W        W84580  13.780   3.885   0.314
14766W        W84581  40.466   4.401   1.720
14767W        W84582  39.053  15.654   0.909
14768W        W84583   4.917  32.403  11.964
14769W        W84584   5.872   5.893  13.022
14770W        W84585  37.835  14.648   1.232
14771W        W84586  16.600  20.225  11.948
14772W        W84587  16.279  31.588  11.861
14773W        W84588  13.316  23.503   2.812
14774W        W84589  20.256  10.878   0.933
14775W        W84590  37.407  31.924   1.320
14776W        W84591  40.332  35.490   2.739
14777W        W84592  38.347  36.971   1.930
14778W        W84593   4.246  20.250   0.303
14779W        W84594   2.461   5.794   0.915
14780W        W84595  38.911   6.216  12.552
14781W        W84596  39.381  30.606  12.939
14782W        W84597  25.661  18.125   0.279
14783W        W84598  17.300  11.322  12.953
14784W        W84599  40.378   1.731   2.827
14785W        W84600  36.008  37.440  14.466
14786W        W84601   1.282  16.735  11.101
14787W        W84602  17.221  10.183   2.280
14788W        W84603   7.813  27.028   1.873
14789W        W84604  19.643   4.396  11.965
14790W        W84605  23.171  32.958   3.712
14791W        W84606   3.911  31.472   4.285
14792W        W84607  36.362  32.038  14.357
14793W        W84608   7.796  43.427   0.854
14794W        W84609  17.661   9.780   4.631
14795W        W84610  10.262  27.669   4.133
14796W        W84611   1.281  22.530   2.327
14797W        W84612  26.582  33.395  14.859
14798W        W84613  36.071  37.988  13.385
14799W        W84614  24.056   8.175  11.063
14800W        W84615  42.393  40.819  11.881
14801W        W84616  31.414  24.576   4.687
14802W        W84617  30.414  22.571   0.952
14803W        W84618  16.647  24.499   1.743
14804W        W84619  28.615  36.547  11.892
14805W        W84620  25.165   2.330   0.812
14806W        W84621  15.651   4.710  13.502
14807W        W84622   3.246  33.445  11.585
14808W        W84623  31.124  38.438  13.973
14809W        W84624  32.978  11.701  14.298
14810W        W84625  17.101  31.094   3.205
14811W        W84626  14.685  26.997  11.569
14812W        W84627  39.403  25.512   1.730
14813W        W84628   7.741  23.520  10.966
14814W        W84629  15.172   7.317   3.323
14815W        W84630  26.565  20.138   4.151
14816W        W84631  33.590  18.266   2.184
14817W        W84632  43.326   5.695   3.639
14818W        W84633  25.197  19.151   4.231
14819W        W84634  16.201  38.532   0.437
14820W        W84635   2.459  18.119  11.067
14821W        W84636  25.707   1.356  14.283
14822W        W84637  33.417  24.596   4.213
14823W        W84638  42.835  41.502   2.902
14824W        W84639  12.297  22.019  14.399
14825W        W84640   6.791  26.064   1.721
14826W        W84641  11.641  21.698   1.363
14827W        W84642  21.258  11.198  13.341
14828W        W84643  19.187  42.827   4.826
14829W        W84644  43.932  36.960  12.972
14830W        W84645  35.421  24.024   3.743
14831W        W84646  41.787  35.467  12.978
14832W        W84647  29.054  38.427  11.921
14833W        W84648   1.394   4.267   2.345
14834W        W84649  33.479  25.187   2.241
14835W        W84650   3.887  29.149  10.987
14836W        W84651  17.572  12.743   1.852
14837W        W84652  38.537  39.453  14.417
14838W        W84653  27.173  19.771  11.090
14839W        W84654   0.479  16.807  13.037
14840W        W84655   5.863  37.925   0.881
14841W        W84656  21.208  37.536  12.381
14842W        W84657  31.554  27.597  13.028
14843W        W84658  20.073   3.838   3.643
14844W        W84659  10.846   6.183  12.943
14845W        W84660  22.037  34.485  11.007
14846W        W84661  31.437  28.088  10.894
14847W        W84662  21.143  10.230   1.725
14848W        W84663  28.062  13.810   0.824
14849W        W84664   7.412  43.902  12.914
14850W        W84665   3.734  14.209   4.637
14851W        W84666  20.235  14.183   2.220
14852W        W84667   1.944  21.176   2.205
14853W        W84668   6.337  30.654   4.183
14854W        W84669  32.567  19.638   5.262
14855W        W84670  23.579  22.995  11.904
14856W        W84671  13.651  44.406  10.954
14857W        W84672  20.113  42.336  11.930
14858W        W84673  15.737  24.129  12.048
14859W        W84674  27.528  36.981   3.376
14860W        W84675  32.568  40.946   1.865
14861W        W84676   9.343  25.019  14.794
14862W        W84677  18.213  35.438   1.301
14863W        W84678  27.166  40.534  13.033
14864W        W84679  41.466   4.275  14.954
14865W        W84680  35.554   1.311  12.562
14866W        W84681  30.459  42.377  12.836
14867W        W84682   1.850  15.152   3.826
14868W        W84683   0.875   8.230   3.153
14869W        W84684  35.457  26.460   2.879
14870W        W84685  27.511  28.040   2.263
14871W        W84686  41.921  14.793   1.930
14872W        W84687  42.018  39.903  13.356
14873W        W84688  11.642  10.792   2.207
14874W        W84689  15.806  35.551   0.460
14875W        W84690  27.011   7.208  14.868
14876W        W84691  34.477  35.468   4.180
14877W        W84692   0.299  30.086   2.223
14878W        W84693   9.875   3.456  12.536
14879W        W84694  17.142   6.359  11.422
14880W        W84695   9.263  42.505   4.757
14881W        W84696  32.081  15.671   0.847
14882W        W84697   7.772  21.609   0.472
14883W        W84698  11.174   6.867  12.052
14884W        W84699   3.899  17.161   0.253
14885W        W84700  28.159  32.599  11.526
14886W        W84701  19.645  11.179  12.398
14887W        W84702  18.727  42.443  13.400
14888W        W84703   7.373  20.649  11.489
14889W        W84704  37.992  32.003   3.727
14890W        W84705  33.898   8.260  10.632
14891W        W84706  17.213  18.239  14.797
14892W        W84707  25.214  10.174  14.016
14893W        W84708  24.110  33.566   0.956
14894W        W84709  32.566   9.662  10.984
14895W        W84710  42.490   4.246   3.188
14896W        W84711  19.778  32.961   0.775
14897W        W84712  17.171   3.409  13.997
14898W        W84713  19.254  16.175   4.666
14899W        W84714  35.404  18.187  12.860
14900W        W84715  18.623  28.635  13.471
14901W        W84716  36.543  35.370   4.336
14902W        W84717  27.455  38.876  14.851
14903W        W84718   0.313  28.056   0.728
14904W        W84719  23.541  19.177   4.828
14905W        W84720  11.150   5.814  12.955
14906W        W84721  34.400  17.619  13.818
14907W        W84722  31.607   5.860  13.326
14908W        W84723  22.166  18.061  12.418
14909W        W84724  23.633  43.865   4.129
14910W        W84725  22.250  15.146  10.980
14911W        W84726  36.047  18.175  11.107
14912W        W84727   6.798   0.764   0.943
14913W        W84728   5.728   9.288   0.342
14914W        W84729   7.324  40.835   3.383
14915W        W84730  16.267   8.225   4.327
14916W        W84731  13.845  24.659  12.366
14917W        W84732  26.496   8.365   2.734
14918W        W84733  28.141  16.659  11.444
14919W        W84734   7.717  43.384  14.277
14920W        W84735  43.895  16.651  11.457
14921W        W84736  20.034  44.363   5.304
14922W        W84737   6.225  31.592   3.185
14923W        W84738  19.581  13.109  12.877
14924W        W84739   0.977  23.535   0.436
14925W        W84740  34.984  39.987   1.327
14926W        W84741  32.514  33.479  14.987
14927W        W84742  35.012  20.697  13.519
14928W        W84743  41.465   6.217  13.508
14929W        W84744  44.928  14.770  11.076
14930W        W84745  24.648  13.185   4.346
14931W        W84746  24.202  16.677   3.284
14932W        W84747   5.419  43.794   4.147
14933W        W84748  25.994  24.718   3.176
14934W        W84749  39.497  13.753  11.960
14935W        W84750  33.535  28.157   1.223
14936W        W84751  41.340  13.125  14.946
14937W        W84752  24.688  26.461   1.738
14938W        W84753  39.367  24.991   0.859
14939W        W84754   9.707  44.338  10.500
14940W        W84755   2.407  37.857   0.361
14941W        W84756  35.924  22.178   1.229
14942W        W84757  21.095  34.462   0.908
14943W        W84758  18.133  39.813   1.326
14944W        W84759  30.984  35.584  12.050
14945W        W84760   4.850  41.814   4.327
14946W        W84761  31.093  10.638   0.432
14947W        W84762  35.091   5.697   3.631
14948W        W84763  34.966  13.114   2.820
14949W        W84764  40.990   2.814   1.862
14950W        W84765  38.874  29.661   2.219
14951W        W84766  26.097  10.287  13.978
14952W        W84767  28.074  11.790   1.413
14953W        W84768   5.298  33.428   3.766
14954W        W84769  24.022  15.111   1.838
14955W        W84770   3.376  44.441  13.495
14956W        W84771  25.162  32.059   0.931
14957W        W84772  15.149  16.812   4.128
14958W        W84773  26.959  29.661  13.539
14959W        W84774  14.306  12.655  11.372
14960W        W84775  35.528   4.378   4.225
14961W        W84776  37.060  14.739   4.327
14962W        W84777   1.408  15.777   4.785
14963W        W84778  13.737  28.945  11.078
14964W        W84779  40.927  41.455  14.489
14965W        W84780  32.570  23.725   1.345
14966W        W84781  10.737  29.492  13.057
14967W        W84782  38.919  34.937  10.096
14968W        W84783  30.562  16.707   3.837
14969W        W84784  20.109   1.262   1.379
14970W        W84785  19.743  44.405   1.918
14971W        W84786  14.763  38.052   4.263
14972W        W84787  35.529   3.911  14.340
14973W        W84788  35.862   8.857  11.051
14974W        W84789  31.101  23.638  12.430
14975W        W84790  43.899  14.683  13.881
14976W        W84791  32.520  20.224  12.886
14977W        W84792  19.221  23.732  12.026
14978W        W84793  36.004   2.795  13.957
14979W        W84794  16.784  35.919   1.850
14980W        W84795  22.037   2.409   4.716
14981W        W84796  20.621  13.679   4.157
14982W        W84797   8.704   1.336  11.519
14983W        W84798   1.770   2.353  14.862
14984W        W84799  27.087  10.288   3.231
14985W        W84800  41.368   8.885   0.245
14986W        W84801   7.250  11.133  13.518
14987W        W84802  34.464  40.882   2.761
14988W        W84803  21.610  42.834   5.304
14989W        W84804  26.464  40.868  12.996
14990W        W84805  24.691  24.160   4.709
14991W        W84806  39.992   3.252  12.561
14992W        W84807  32.069   7.748  13.391
14993W        W84808  10.239   1.264  10.641
14994W        W84809   1.774  15.663   2.805
14995W        W84810  17.086  37.418   1.427
14996W        W84811  13.663   0.851   2.356
14997W        W84812   0.276  44.899   2.831
14998W        W84813  30.499  11.665  13.345
14999W        W84814  43.852  12.175   0.914
15000W        W84815   0.280  17.648   1.217
15001W        W84816   5.403  20.751   4.667
15002W        W84817   3.730  29.471   1.405
15003W        W84818   7.410  12.657  11.963
15004W        W84819  21.751  31.121   2.291
15005W        W84820   9.295  41.327  14.853
15006W        W84821  31.571   8.178  13.411
15007W        W84822   4.249  21.730   1.300
15008W        W84823  29.608  28.076   1.867
15009W        W84824  10.677   9.818  12.982
15010W        W84825  28.447   9.149  14.950
15011W        W84826  44.424  25.539  14.506
15012W        W84827   7.771  28.532  12.092
15013W        W84828   2.447  14.286   2.395
15014W        W84829  29.656   8.211   3.167
15015W        W84830  32.951  22.531  10.616
15016W        W84831  42.017  25.092  13.443
15017W        W84832  13.691   4.325   0.342
15018W        W84833  14.665  44.818  14.458
15019W        W84834  29.152  25.530   3.283
15020W        W84835  43.860   6.187  13.396
15021W        W84836  20.113  15.209   3.240
15022W        W84837  24.177  15.689  12.413
15023W        W84838   0.869  11.778   1.879
15024W        W84839  28.676  14.193   3.375
15025W        W84840  26.033  34.589  11.493
15026W        W84841  28.970  13.827   1.925
15027W        W84842  36.497  12.297  13.953
15028W        W84843  29.605  16.148   3.868
15029W        W84844  11.786  39.917   4.308
15030W        W84845  13.758  24.078  14.364
15031W        W84846  29.471  37.572  10.645
15032W        W84847  44.857  30.939  10.604
15033W        W84848  32.938  15.121  14.979
15034W        W84849  29.608  37.876   0.348
15035W        W84850   5.924   1.834   4.329
15036W        W84851   1.345   1.460  11.453
15037W        W84852  10.300  21.194   4.311
15038W        W84853  34.388  39.920   1.232
15039W        W84854  18.745  22.577  14.873
15040W        W84855   9.720   8.753  13.342
15041W        W84856  13.618  22.580   2.834
15042W        W84857  16.707   9.749  14.985
15043W        W84858  16.260  25.562   0.461
15044W        W84859  11.368  19.119   1.773
15045W        W84860  21.637  39.862   0.904
15046W        W84861  35.564  34.998   3.856
15047W        W84862  10.290  42.480   3.659
15048W        W84863  31.092  41.475   2.894
15049W        W84864  14.280  35.560   3.787
15050W        W84865   6.263  31.574  13.014
15051W        W84866   0.260  34.444   3.349
15052W        W84867  22.194   5.360   1.264
15053W        W84868   4.295  17.095  14.398
15054W        W84869  29.001  38.396  14.404
15055W        W84870  30.018  42.892  13.470
15056W        W84871  26.081  21.176  11.939
15057W        W84872  37.993  42.347  14.996
15058W        W84873   6.819  38.821  14.996
15059W        W84874   6.377  43.444   1.755
15060W        W84875  40.449  41.338  10.924
15061W        W84876  25.033  38.552   1.448
15062W        W84877   6.856  11.777  13.410
15063W        W84878  44.347   9.173   4.687
15064W        W84879  11.271  41.429   0.861
15065W        W84880  34.460  11.778   1.711
15066W        W84881  12.148   7.889  13.315
15067W        W84882   1.779  19.181  11.510
15068W        W84883  10.239  32.888   2.729
15069W        W84884  36.463   0.953   2.881
15070W        W84885  40.338  31.061   2.779
15071W        W84886   8.276  14.271  13.328
15072W        W84887  28.575  15.822   0.763
15073W        W84888   9.746  32.893   3.229
15074W        W84889   7.359  30.131   1.698
15075W        W84890  11.841  26.172  11.948
15076W        W84891  27.648  23.160  13.346
15077W        W84892  44.486  43.370   3.348
15078W        W84893   3.385   6.732  10.610
15079W        W84894  10.151   5.817   4.793
15080W        W84895  31.595   1.270  12.062
15081W        W84896   5.279  17.285   3.220
15082W        W84897  18.547  16.638   1.887
15083W        W84898  20.053  41.972  12.050
15084W        W84899  15.693  36.033  11.994
15085W        W84900  25.505  20.131   0.465
15086W        W84901  27.602  24.984  10.930
15087W        W84902  24.138  31.059  11.990
15088W        W84903  26.161  20.173  12.570
15089W        W84904  28.532  10.228  11.608
15090W        W84905  15.777  37.960   4.775
15091W        W84906  10.694   4.841  10.616
15092W        W84907   7.784  22.708   9.998
15093W        W84908  23.725  28.629  10.639
15094W        W84909   9.790  31.535  11.607
15095W        W84910  42.501  12.626   4.205
15096W        W84911   2.363  17.684   0.735
15097W        W84912  10.642  44.477   0.467
15098W        W84913  33.023  24.680  11.545
15099W        W84914  15.233   3.247   0.866
15100W        W84915  11.746  30.545  12.069
15101W        W84916   2.913  12.671   4.654
15102W        W84917   0.329  42.829  13.959
15103W        W84918  12.800  35.464   3.658
15104W        W84919  23.699  33.026   3.336
15105W        W84920  32.469   3.806  10.489
15106W        W84921  39.816  25.580   4.728
15107W        W84922  30.542  20.765   2.782
15108W        W84923  27.970  10.189  10.030
15109W        W84924  36.361  38.539  12.029
15110W        W84925  21.157  27.024   4.301
15111W        W84926  21.167  40.810  14.387
15112W        W84927  10.866   2.734   0.778
15113W        W84928  27.065  31.136  14.964
15114W        W84929   2.963   4.741   4.223
15115W        W84930  13.269  28.153   4.661
15116W        W84931  30.070   5.821   4.338
15117W        W84932  43.368  21.618  11.069
15118W        W84933  25.660  16.276  11.428
15119W        W84934  44.938  42.949   2.663
15120W        W84935  18.621  13.180   4.780
15121W        W84936  40.999  33.391  13.366
15122W        W84937  40.512  26.581  10.473
15123W        W84938  19.064  11.647   2.722
15124W        W84939  29.141  40.472  12.436
15125W        W84940  30.996   2.361  14.318
15126W        W84941  23.134  25.545  12.452
15127W        W84942  32.563  35.531   0.244
15128W        W84943  15.118  30.068  14.842
15129W        W84944   1.806  44.295   1.817
15130W        W84945  24.567  17.091  10.636
15131W        W84946  41.888  31.130  14.327
15132W        W84947  40.006  26.139  13.000
15133W        W84948  18.757  10.350  14.030
15134W        W84949   2.414  44.306   1.700
15135W        W84950  38.004  39.808   2.230
15136W        W84951  21.663   7.827  10.479
15137W        W84952  18.687  39.461   2.402
15138W        W84953  15.087   3.843  13.872
15139W        W84954   4.779  37.462   4.672
15140W        W84955  32.539  38.450   0.937
15141W        W84956   5.790  44.410   3.685
15142W        W84957  33.938  20.243  13.457
15143W        W84958  21.139  14.333  11.530
15144W        W84959  12.619  29.502   5.245
15145W        W84960  12.791   7.800   2.808
15146W        W84961  26.172   8.373   4.613
15147W        W84962  38.418   7.830   5.220
15148W        W84963  14.283  12.662  14.791
15149W        W84964   3.374  44.420   2.746
15150W        W84965  10.187  18.051  11.427
15151W        W84966  11.369  10.845   2.679
15152W        W84967  27.982  39.005  11.585
15153W        W84968  21.259  15.247  13.532
15154W        W84969   0.900  38.552   1.302
15155W        W84970  16.672  36.499  10.605
15156W        W84971  37.914  41.475  12.024
15157W        W84972  17.273  35.561  14.314
15158W        W84973  41.459  17.238   2.886
15159W        W84974   6.902   9.861  12.895
15160W        W84975  18.053  36.091   3.839
15161W        W84976  42.979  16.090   0.394
15162W        W84977  39.513  43.367   0.955
15163W        W84978  10.254   2.897  13.544
15164W        W84979  38.535  33.907   4.822
15165W        W84980  28.480  31.604  13.941
15166W        W84981  10.815  44.357  13.325
15167W        W84982  30.937   6.274  14.370
15168W        W84983  18.770   0.746  10.009
15169W        W84984  10.796  19.746  14.321
15170W        W84985  20.552   8.741  14.933
15171W        W84986   9.760  17.136   3.337
15172W        W84987   7.213  15.204   1.396
15173W        W84988  29.428  16.752  14.319
15174W        W84989  12.825  23.667  13.548
15175W        W84990  18.739  34.438   4.788
15176W        W84991  26.050  18.205   4.778
15177W        W84992  24.195  35.931  13.420
15178W        W84993   3.293  11.333   4.214
15179W        W84994  15.310  18.597   3.335
15180W        W84995  38.923  18.200  13.945
15181W        W84996  23.500  15.801   2.355
15182W        W84997   6.720   5.727  13.444
15183W        W84998  21.084  20.727   4.188
15184W        W84999  27.981  25.689   2.728
15185W        W85000  16.609  33.988   3.742
15186W        W85001  10.693  29.048  11.104
15187W        W85002  20.547  36.569   2.407
15188W        W85003  36.049  37.579  12.507
15189W        W85004  36.382  32.570  12.357
15190W        W85005   0.875  16.771  12.885
15191W        W85006  44.431  31.002   3.201
15192W        W85007   9.317   6.416   1.838
15193W        W85008  11.155  43.959   3.306
15194W        W85009  44.898  13.174   0.480
15195W        W85010   2.259   9.860   2.873
15196W        W85011   6.411  11.795   4.830
15197W        W85012  41.454  42.286   3.733
15198W        W85013   2.766  10.819   4.276
15199W        W85014   4.852  20.093   0.867
15200W        W85015  43.337   9.872  10.572
15201W        W85016  18.655   7.354   1.334
15202W        W85017  29.158  21.714  13.800
15203W        W85018  15.143  40.968  13.057
15204W        W85019   5.236  20.076   2.230
15205W        W85020  10.354   0.278  14.426
15206W        W85021  12.188   8.366  11.467
15207W        W85022  38.890  15.097   4.180
15208W        W85023  29.479  44.822  10.405
15209W        W85024   1.842  11.849  11.465
15210W        W85025  18.124  24.702   0.267
15211W        W85026   7.227  15.753   4.285
15212W        W85027   6.391  40.517   0.842
15213W        W85028  40.895  18.140   3.181
15214W        W85029  35.046  25.120   5.083
15215W        W85030  30.955  16.172   3.653
15216W        W85031   7.391  32.950  10.408
15217W        W85032  32.107  40.333   2.293
15218W        W85033  23.735  34.389   2.379
15219W        W85034  21.716   4.744  14.515
15220W        W85035   5.314  41.527  11.055
15221W        W85036  26.127  39.370   3.866
15222W        W85037  16.709   0.799   4.305
15223W        W85038  43.908  25.046  11.436
15224W        W85039  25.662   7.196  12.994
15225W        W85040  11.359  36.962  10.534
15226W        W85041  44.873  38.952   0.465
15227W        W85042   6.420   4.838   4.704
15228W        W85043  23.632  30.599   2.304
15229W        W85044  44.833  33.913  11.530
15230W        W85045  16.768  12.799   3.236
15231W        W85046  17.142   2.357  13.496
15232W        W85047  10.366  39.890   0.797
15233W        W85048  28.124   1.472  10.976
15234W        W85049   7.263  20.677  10.516
15235W        W85050  27.588  29.512  10.569
15236W        W85051  20.540   2.364  11.002
15237W        W85052  39.058   8.291   2.849
15238W        W85053  16.656  20.665   2.375
15239W        W85054  27.599  35.090   4.696
15240W        W85055  41.981  12.217  12.990
15241W        W85056  32.110  44.877   0.742
15242W        W85057  28.629  38.925   2.231
15243W        W85058  23.552  43.337   4.129
15244W        W85059  43.947  41.852  12.572
15245W        W85060  15.142  20.120   1.752
15246W        W85061  43.902  34.561  12.542
15247W        W85062   2.418   9.773   2.364
15248W        W85063  21.568  43.496  11.611
15249W        W85064  17.064  30.587   1.725
15250W        W85065   0.935   2.392  12.912
15251W        W85066  10.331  43.347   2.411
15252W        W85067   4.432  19.543   3.648
15253W        W85068  37.033  12.693  10.583
15254W        W85069  11.354   4.401   3.809
15255W        W85070  18.655  24.997   9.997
15256W        W85071   8.317  36.424   3.817
15257W        W85072   8.165  44.340   4.686
15258W        W85073  39.362  14.114  12.047
15259W        W85074  37.560  18.769  12.453
15260W        W85075  28.065  18.281  11.380
15261W        W85076  25.678  38.541  10.536
15262W        W85077  25.520  43.321   3.168
15263W        W85078  20.196  41.790  12.429
15264W        W85079  34.018  15.302  13.953
15265W        W85080  10.680  32.026  14.404
15266W        W85081  17.765  22.692   4.152
15267W        W85082   7.294  40.356  12.579
15268W        W85083  44.830  21.514   4.199
15269W        W85084   6.838  42.917   4.183
15270W        W85085  30.148  16.282  10.565
15271W        W85086  44.963   1.959   0.890
15272W        W85087  21.098  38.325   1.852
15273W        W85088  25.557  20.725  12.426
15274W        W85089  34.067  35.090  13.052
15275W        W85090  33.938   1.268   1.245
15276W        W85091  37.533  37.049  10.555
15277W        W85092  34.500  37.506  10.602
15278W        W85093  43.999  28.636  11.420
15279W        W85094   4.251  34.466  12.457
15280W        W85095  41.013  22.161  10.916
15281W        W85096  16.204  21.706  13.023
15282W        W85097  20.652  18.066  10.905
15283W        W85098  14.151  12.747   3.226
15284W        W85099   4.870  26.497   0.905
15285W        W85100  35.015  24.979  14.762
15286W        W85101  15.232  17.244   4.650
15287W        W85102  44.426  13.189   4.727
15288W        W85103  38.905  39.402   1.349
15289W        W85104  19.052  31.453  14.799
15290W        W85105   2.435   5.822  10.605
15291W        W85106  40.828   1.414   4.289
15292W        W85107  41.921  22.043   3.220
15293W        W85108  40.369   9.662   1.739
15294W        W85109  31.523  20.119  11.107
15295W        W85110   1.911  15.261   1.893
15296W        W85111   6.189  29.987   0.307
15297W        W85112  20.040  26.182   3.145
15298W        W85113  42.388  44.394  11.528
15299W        W85114   6.266  34.544  12.531
15300W        W85115  36.488   1.385  12.565
15301W        W85116  37.420  42.996   1.720
15302W        W85117  29.479  27.607  11.599
15303W        W85118  40.398   4.216  12.457
15304W        W85119  10.335  40.464  11.012
15305W        W85120  42.961   2.421   4.736
15306W        W85121  31.989  41.786   1.884
15307W        W85122   8.864  23.210   4.754
15308W        W85123  39.842  13.789  14.794
15309W        W85124   9.334  37.400  11.592
15310W        W85125   0.789   1.413   2.669
15311W        W85126  13.705  41.507  14.893
15312W        W85127  33.530  43.806   2.358
15313W        W85128  36.575  37.460  14.024
15314W        W85129  26.185   3.774  11.379
15315W        W85130  31.142  28.515   0.961
15316W        W85131   6.740  32.451  11.549
15317W        W85132  39.841  25.090  13.925
15318W        W85133  23.187  35.093   1.763
15319W        W85134  42.385  26.632   0.776
15320W        W85135  43.869   8.877   1.719
15321W        W85136  29.174  30.997   4.825
15322W        W85137  37.451   2.358   3.381
15323W        W85138   3.247   3.216   3.691
15324W        W85139  12.148  21.598   0.286
15325W        W85140  32.497  20.717  10.980
15326W        W85141  40.841  44.009  13.503
15327W        W85142   9.868  13.605  14.503
15328W        W85143  12.657   8.238  12.529
15329W        W85144  30.619  14.719   0.754
15330W        W85145  33.508  11.160   0.402
15331W        W85146  32.032  32.032  12.520
15332W        W85147   6.213  39.923   5.307
15333W        W85148  12.265  29.602   1.725
15334W        W85149  30.926  16.195  11.890
15335W        W85150   8.286  44.265  14.473
15336W        W85151   0.324  15.323   1.416
15337W        W85152  18.728  22.553   4.630
15338W        W85153  44.788  32.100   3.360
15339W        W85154  31.477   0.910   0.276
15340W        W85155   1.279  12.814   2.228
15341W        W85156  13.281  18.723   3.261
15342W        W85157  20.103  21.147  14.916
15343W        W85158  17.746   2.332  12.525
15344W        W85159   7.817  17.215  11.119
15345W        W85160  30.012  40.422   3.705
15346W        W85161  34.878  36.535  10.980
15347W        W85162   2.328  34.434   9.959
15348W        W85163  11.751  37.473  12.552
15349W        W85164  27.950  27.663  12.823
15350W        W85165  25.545  23.055   4.272
15351W        W85166  22.196   4.898   3.257
15352W        W85167  41.338  22.010  13.924
15353W        W85168   7.265  39.988   3.194
15354W        W85169  25.024   7.209   4.804
15355W        W85170   4.311   5.320  13.959
15356W        W85171  26.030  10.203   3.197
15357W        W85172   1.444  43.516   4.668
15358W        W85173  30.605  10.384  13.841
15359W        W85174  27.170  11.741   1.765
15360W        W85175   0.462   1.819  14.363
15361W        W85176  23.098  17.282   0.243
15362W        W85177  37.497  12.649   4.316
15363W        W85178  32.484  38.437  13.813
15364W        W85179   3.246  18.757  12.515
15365W        W85180   2.366  33.887  11.603
15366W        W85181  23.731  40.869   3.363
15367W        W85182   3.456  26.983   2.869
15368W        W85183  24.635   4.720   3.323
15369W        W85184  36.532   5.226   1.219
15370W        W85185  40.019   3.316  11.018
15371W        W85186  31.148  13.126   2.268
15372W        W85187  21.154  23.090   3.653
15373W        W85188  15.799  10.832  12.945
15374W        W85189  22.618  23.690  12.359
15375W        W85190  20.720  17.753   2.263
15376W        W85191   0.297  18.776   4.809
15377W        W85192  34.967  35.923  10.077
15378W        W85193  13.667  43.830  11.393
15379W        W85194  28.456  42.354   4.140
15380W        W85195   2.238   7.275  11.946
15381W        W85196  43.416  30.071   4.623
15382W        W85197  36.947  17.087  14.864
15383W        W85198  16.612  41.896  11.070
15384W        W85199  21.139  10.161  14.844
15385W        W85200  42.360  24.637   4.346
15386W        W85201   1.946  39.969  10.586
15387W        W85202  15.661  36.975  10.574
15388W        W85203  24.058  14.655   3.242
15389W        W85204  33.534  31.135   1.765
15390W        W85205  37.007  41.959   4.730
15391W        W85206  43.869  39.352   2.218
15392W        W85207   6.868  14.802   1.712
15393W        W85208   3.413  13.229  13.882
15394W        W85209  38.934  40.428   1.277
15395W        W85210  39.957  44.359   1.753
15396W        W85211  10.324  43.493  10.608
15397W        W85212  44.876   8.332   4.355
15398W        W85213  17.079  19.108   2.868
15399W        W85214  26.995  12.258   1.404
15400W        W85215  44.457  36.362   2.381
15401W        W85216  23.114  24.543   3.776
15402W        W85217  10.286  13.261  14.348
15403W        W85218   3.937  10.683  13.878
15404W        W85219  23.702  19.135   5.684
15405W        W85220  29.666  18.732   0.763
15406W        W85221  31.908  17.076  12.045
15407W        W85222   8.848  13.297  13.942
15408W        W85223   8.701  14.598  11.025
15409W        W85224  16.781  10.754   0.441
15410W        W85225  15.150  37.437  14.998
15411W        W85226  43.503  33.513   0.439
15412W        W85227  36.392   9.264  12.844
15413W        W85228   3.400  11.143  13.912
15414W        W85229   1.927  44.952  12.096
15415W        W85230  35.365  20.102   3.236
15416W        W85231  34.036  10.141   0.432
15417W        W85232   2.747  39.049  11.378
15418W        W85233  15.309  12.825  11.384
15419W        W85234   9.314  16.611  13.049
15420W        W85235  38.415   2.291   2.807
15421W        W85236  11.153  42.826  11.919
15422W        W85237  22.710  11.240  14.445
15423W        W85238  31.502  12.671  14.806
15424W        W85239  24.102  30.445   2.816
15425W        W85240  37.847  37.870  13.379
15426W        W85241  43.825  20.573  14.011
15427W        W85242  14.262  15.321  10.946
15428W        W85243  20.230   9.359   0.817
15429W        W85244  44.854  22.200   2.188
15430W        W85245  41.793  15.653  13.493
15431W        W85246   8.368  44.333  13.865
15432W        W85247   0.835  21.104   4.131
15433W        W85248  25.094  40.841   3.148
15434W        W85249  27.628  29.641  14.417
15435W        W85250   9.821  24.205   4.160
15436W        W85251   4.876   6.736   4.717
15437W        W85252  10.850  34.471  11.947
15438W        W85253  28.101  24.579  12.021
15439W        W85254  43.889   6.330   0.747
15440W        W85255  27.137  37.491   0.416
15441W        W85256  41.941   0.421   0.794
15442W        W85257  24.603   7.761   2.807
15443W        W85258  37.976  34.064   1.786
15444W        W85259  30.949  40.835  10.440
15445W        W85260  29.153  13.345  12.831
15446W        W85261  18.066  40.809  12.865
15447W        W85262  26.962  24.483  10.940
15448W        W85263  19.234  32.987   4.247
15449W        W85264   2.469   4.205  14.356
15450W        W85265  21.181  11.633  11.947
15451W        W85266  31.139   1.795  12.548
15452W        W85267  15.696  41.471  14.762
15453W        W85268  39.055   9.357   0.275
15454W        W85269  25.111  22.619  12.571
15455W        W85270  11.291   1.428   2.780
15456W        W85271  32.559  12.642  14.826
15457W        W85272   6.875   5.853  14.469
15458W        W85273   2.356  43.469   1.271
15459W        W85274  43.928  12.775  10.465
15460W        W85275  27.526   3.793  10.569
15461W        W85276  36.098  14.757   1.255
15462W        W85277  23.591  24.224   0.956
15463W        W85278  43.482  19.536   4.274
15464W        W85279   8.857  20.743   0.925
15465W        W85280  37.343  42.420  13.988
15466W        W85281  10.682  43.995  10.537
15467W        W85282  22.043  25.055   2.364
15468W        W85283   7.278  15.693  13.490
15469W        W85284   2.893  30.422   4.165
15470W        W85285  44.389  28.942   2.200
15471W        W85286  19.167  15.128   0.454
15472W        W85287  31.404  33.905  13.437
15473W        W85288  44.924  23.679  14.761
15474W        W85289  19.613   5.373  14.886
15475W        W85290  26.030  14.231   2.834
15476W        W85291  21.629  10.309   2.744
15477W        W85292  31.427  25.087  11.394
15478W        W85293   3.411  39.532  13.027
15479W        W85294  23.172  16.106  12.909
15480W        W85295   9.300  17.304  10.525
15481W        W85296   0.777  26.568   9.997
15482W        W85297   0.896  11.180   0.452
15483W        W85298  23.039  42.524  10.913
15484W        W85299   5.727  20.244   0.760
15485W        W85300   8.878  21.681  14.296
15486W        W85301  41.030  33.121   4.160
15487W        W85302  19.663  44.448   3.713
15488W        W85303  10.260  12.856  12.533
15489W        W85304   7.873   5.858   0.944
15490W        W85305  29.030  37.870   1.754
15491W        W85306  44.871  39.447  11.040
15492W        W85307  27.460  30.558  14.878
15493W        W85308   3.862  37.542  14.920
15494W        W85309  18.674  33.914  12.514
15495W        W85310  28.605  10.847   4.731
15496W        W85311  35.594  29.930  10.418
15497W        W85312  20.216   4.227  14.807
15498W        W85313  27.640  24.555   0.294
15499W        W85314   8.256  32.477   4.352
15500W        W85315  21.630   8.386   1.857
15501W        W85316  21.725  14.779   3.854
15502W        W85317  41.533  34.978   0.415
15503W        W85318  16.102  42.312   3.167
15504W        W85319   5.370   6.821  12.520
15505W        W85320  26.059  33.960  13.513
15506W        W85321  11.164  12.228   2.770
15507W        W85322   5.372  13.243  13.791
15508W        W85323  18.754  32.450   4.154
15509W        W85324   4.774   6.294  12.842
15510W        W85325  22.745   7.859   2.326
15511W        W85326   3.717  16.801   1.218
15512W        W85327  20.649  24.220  12.843
15513W        W85328  18.247   2.239  12.371
15514W        W85329   5.749  31.910  12.082
15515W        W85330  32.512  38.908   3.799
15516W        W85331   5.720  12.278  13.432
15517W        W85332  26.488  34.997   5.304
15518W        W85333  34.385  15.216  13.464
15519W        W85334  20.237   5.294   2.340
15520W        W85335  11.773   8.779  13.853
15521W        W85336  24.091  10.200   2.874
15522W        W85337  43.926  10.174  11.430
15523W        W85338  34.033   6.299  12.907
15524W        W85339   2.450   1.385   2.275
15525W        W85340  21.657  21.204   1.924
15526W        W85341  12.622  28.974   4.225
15527W        W85342  41.413   5.301   4.252
15528W        W85343  35.604  28.980   1.794
15529W        W85344  25.598   3.756   4.251
15530W        W85345  17.189  36.903   4.248
15531W        W85346   6.764  33.496  10.613
15532W        W85347  23.673  17.217   2.743
15533W        W85348  23.984  32.514  14.363
15534W        W85349  11.274  18.642  12.095
15535W        W85350  24.032   9.830   0.318
15536W        W85351  11.840  17.211   4.741
15537W        W85352  24.582  36.883   0.437
15538W        W85353  40.343  28.668   3.741
15539W        W85354  44.825  12.755  11.953
15540W        W85355  10.715  13.331   3.196
15541W        W85356  29.432  20.672  13.820
15542W        W85357  29.472  36.384  12.437
15543W        W85358   7.729  17.087   1.921
15544W        W85359  39.037   0.831   1.423
15545W        W85360  21.080  12.168  12.887
15546W        W85361   9.207  28.520  14.337
15547W        W85362  11.838  18.075  14.833
15548W        W85363   2.822  20.634   0.305
15549W        W85364  10.829  29.616  14.423
15550W        W85365  20.030  23.036  13.478
15551W        W85366  33.107   6.804   0.417
15552W        W85367   6.409  30.605  12.572
15553W        W85368  38.860  41.495  10.904
15554W        W85369  27.494  34.864  13.351
15555W        W85370   3.431   2.338  12.417
15556W        W85371  11.239  19.562   3.332
15557W        W85372  26.699  12.813  13.368
15558W        W85373  15.713  21.072  14.384
15559W        W85374  24.180  43.786  11.477
15560W        W85375  23.180  18.626   3.347
15561W        W85376  43.424   1.249   4.622
15562W        W85377   3.853  39.318   3.736
15563W        W85378  20.216   3.851   2.295
15564W        W85379  10.870  12.789  11.953
15565W        W85380  37.050  13.751   3.648
15566W        W85381  20.682  23.117  11.938
15567W        W85382   6.733  37.405   1.804
15568W        W85383  16.090  28.161  14.976
15569W        W85384  40.407  36.852   1.737
15570W        W85385   8.212  43.308   3.318
15571W        W85386   4.369  10.737   4.301
15572W        W85387  21.227  21.044  14.414
15573W        W85388  11.177  15.652   2.840
15574W        W85389  16.115   4.446  11.909
15575W        W85390  21.637  26.542   0.728
15576W        W85391  10.656   6.321   0.332
15577W        W85392  10.246   6.799  14.892
15578W        W85393  10.813   6.845  11.449
15579W        W85394   3.802  27.494   1.399
15580W        W85395  19.725  43.990  10.145
15581W        W85396  37.541  41.412   0.855
15582W        W85397  11.326  35.509   4.236
15583W        W85398  11.167  22.044  12.408
15584W        W85399   3.920  11.301   0.967
15585W        W85400  30.645  24.002  11.868
15586W        W85401  44.756  36.932  11.437
15587W        W85402   5.341   1.814   4.264
15588W        W85403  35.383  23.167  10.641
15589W        W85404  42.359  12.844   1.307
15590W        W85405  13.822   6.903   1.832
15591W        W85406  15.627  37.029   1.249
15592W        W85407  20.052  40.906  10.474
15593W        W85408   8.214   2.315  14.768
15594W        W85409  27.026  38.450  12.554
15595W        W85410  38.384   7.802   2.832
15596W        W85411  38.536  31.645   2.721
15597W        W85412  21.636  23.577   3.190
15598W        W85413   0.862   2.376  12.369
15599W        W85414  20.159  16.230  13.364
15600W        W85415  14.765  38.567   0.875
15601W        W85416  33.886  20.127   4.259
15602W        W85417   1.339  39.935  12.464
15603W        W85418  41.884  18.209   1.428
15604W        W85419  26.612  16.145   2.191
15605W        W85420   5.785   0.357   4.314
15606W        W85421   5.710  20.265   2.220
15607W        W85422  22.153   5.347   4.188
15608W        W85423   8.254  10.851  11.956
15609W        W85424  30.116   2.728  14.823
15610W        W85425  36.995  41.929  11.890
15611W        W85426   3.808  31.151   4.813
15612W        W85427   9.809   8.875   1.436
15613W        W85428  16.285  32.479   4.181
15614W        W85429  32.420  39.044   2.269
15615W        W85430   2.882   9.221   1.264
15616W        W85431  25.151  29.148   4.768
15617W        W85432   4.848  21.697  12.458
15618W        W85433   5.242  16.760  13.460
15619W        W85434  22.187  21.514   1.729
15620W        W85435  30.423   6.273  10.457
15621W        W85436   3.231  42.321  12.475
15622W        W85437  12.627  38.846  11.513
15623W        W85438  34.411  14.593  14.891
15624W        W85439  19.643  20.676   4.173
15625W        W85440  35.573  43.913  11.005
15626W        W85441  25.037  42.326  10.495
15627W        W85442   8.759   1.335   4.216
15628W        W85443  26.058  16.194  10.539
15629W        W85444  24.134  43.368   0.789
15630W        W85445  41.301   1.933  10.968
15631W        W85446  38.911  30.017  14.440
15632W        W85447  14.208  24.149   0.247
15633W        W85448  14.682  24.601   3.210
15634W        W85449  38.071  23.514  12.411
15635W        W85450  34.089  42.416   0.352
15636W        W85451  28.438  23.574  10.909
15637W        W85452   2.777   0.973   3.733
15638W        W85453  40.531   2.233   4.265
15639W        W85454  43.798  28.938  12.915
15640W        W85455  41.472   5.407   1.296
15641W        W85456   5.768  12.245  14.427
15642W        W85457  15.617  19.274  12.547
15643W        W85458  38.875  40.524   4.814
15644W        W85459  41.448  26.079   4.791
15645W        W85460   0.457  32.887  10.512
15646W        W85461  29.616   5.927   1.433
15647W        W85462  44.906  37.503  12.012
15648W        W85463  25.170   3.873   0.440
15649W        W85464  13.620   7.826   4.270
15650W        W85465   9.378  30.600   0.442
15651W        W85466  33.403  33.042   2.829
15652W        W85467  18.774   7.321  14.786
15653W        W85468  34.424  30.977   4.226
15654W        W85469  14.148  38.384   0.346
15655W        W85470  26.685  25.645  13.794
15656W        W85471  26.044  18.081   0.887
15657W        W85472  31.415  26.693   3.331
15658W        W85473  40.978   4.384   1.304
15659W        W85474  26.606  33.889  13.413
15660W        W85475   5.724  17.110  13.830
15661W        W85476   8.296  32.008   0.813
15662W        W85477  40.392  36.931  11.883
15663W        W85478   5.376  39.894   2.215
15664W        W85479   7.778  23.088   2.694
15665W        W85480  19.632  40.030   0.788
15666W        W85481   2.956   2.276  10.535
15667W        W85482   1.328  29.171  14.288
15668W        W85483  19.686  11.776   1.355
15669W        W85484  26.699  18.152   4.830
15670W        W85485  14.650  16.136   4.354
15671W        W85486  19.281  36.437   3.198
15672W        W85487  32.411  29.584  11.476
15673W        W85488   3.291  23.658  13.986
15674W        W85489   2.428  12.132  14.848
15675W        W85490   7.174   0.886   0.910
15676W        W85491  11.201  34.087  13.886
15677W        W85492  37.519  36.439  13.909
15678W        W85493  11.327  24.617   1.929
15679W        W85494   8.747  10.230  11.602
15680W        W85495   2.862  44.780   3.843
15681W        W85496  35.481  37.355   4.710
15682W        W85497  34.969  32.073   0.738
15683W        W85498  21.163  16.258   0.885
15684W        W85499   6.391  44.322   1.903
15685W        W85500  30.623   5.738  10.622
15686W        W85501   7.266   2.905   3.344
15687W        W85502  22.150   6.415  10.469
15688W        W85503  37.566  34.072  10.538
15689W        W85504  34.903  15.674  14.825
15690W        W85505  22.707  44.444   2.805
15691W        W85506  40.860  42.861   2.294
15692W        W85507  36.065  41.008   0.778
15693W        W85508   5.795  38.863  11.548
15694W        W85509  30.118  38.074  10.900
15695W        W85510  15.581  26.487  14.363
15696W        W85511  27.528  14.761  12.535
15697W        W85512  21.582  35.875   5.213
15698W        W85513   4.436  14.801   0.807
15699W        W85514   2.961  24.062  13.308
15700W        W85515  25.650  29.483   3.857
15701W        W85516  39.935   8.739  11.961
15702W        W85517  22.636  43.933   3.242
15703W        W85518   0.299   8.757   1.827
15704W        W85519  10.843   7.735   1.706
15705W        W85520  12.278  31.537  10.639
15706W        W85521   0.746  43.936   4.658
15707W        W85522   0.841  29.599   1.795
15708W        W85523   6.712  18.184   4.656
15709W        W85524  32.071  22.231   1.370
15710W        W85525  35.537   7.856   4.816
15711W        W85526  26.019  37.453  10.623
15712W        W85527   7.679   8.886  14.949
15713W        W85528   1.256  19.726   4.829
15714W        W85529  17.751   7.385   0.250
15715W        W85530   7.683  26.960  14.347
15716W        W85531   3.303  27.492   4.128
15717W        W85532  15.761  37.479  11.048
15718W        W85533  10.785  29.062   2.873
15719W        W85534  20.166  26.066   4.290
15720W        W85535  27.517  14.776   3.825
15721W        W85536  29.482   7.250  11.391
15722W        W85537  30.521  12.721  13.450
15723W        W85538  36.900   8.747   1.712
15724W        W85539  17.640  44.327   3.170
15725W        W85540   2.319   7.680   3.670
15726W        W85541  26.571  43.937   4.305
15727W        W85542   4.406  22.179   0.777
15728W        W85543  21.521  26.015   4.312
15729W        W85544   5.871  25.068  13.490
15730W        W85545   6.314  29.425   0.861
15731W        W85546   1.864   7.212  11.558
15732W        W85547  38.520  27.995  12.382
15733W        W85548  18.141  18.627   3.354
15734W        W85549  36.585  40.956   1.232
15735W        W85550  19.136  23.501  13.884
15736W        W85551  36.536  17.566   4.752
15737W        W85552  28.515  31.900   3.857
15738W        W85553   5.863  19.568  14.912
15739W        W85554  22.237   6.371   3.850
15740W        W85555   5.411  34.887  13.019
15741W        W85556   0.326  14.301   3.168
15742W        W85557  36.379  40.003   1.230
15743W        W85558  24.010   4.924   4.740
15744W        W85559  26.027   9.328  14.837
15745W        W85560  13.144   6.381   2.361
15746W        W85561   2.305  36.571  11.947
15747W        W85562  23.578  22.100  12.556
15748W        W85563  18.549   9.717  13.886
15749W        W85564  34.503  22.550  12.429
15750W        W85565  41.949  13.829  13.894
15751W        W85566  10.232   8.741  13.475
15752W        W85567   8.290   5.284  13.471
15753W        W85568   5.776  29.649   0.950
15754W        W85569  11.827  32.476  10.591
15755W        W85570  35.930  24.677  13.018
15756W        W85571  10.682  22.732   0.380
15757W        W85572  27.556  35.107   4.270
15758W        W85573   6.340  27.964  13.809
15759W        W85574  30.938  38.829  12.979
15760W        W85575   1.892  32.513   1.434
15761W        W85576  11.191  16.690  14.001
15762W        W85577   6.831  32.931   1.295
15763W        W85578  40.383   4.823   1.222
15764W        W85579  16.215  15.662  10.493
15765W        W85580  26.599  40.462   3.676
15766W        W85581  19.588  25.188   0.810
15767W        W85582  27.013  28.576  14.886
15768W        W85583   8.171  37.336  14.967
15769W        W85584  15.813   6.908   3.781
15770W        W85585   8.332  40.970   4.225
15771W        W85586  20.179  38.540   1.783
15772W        W85587  38.413   1.459   0.274
15773W        W85588  44.782   2.334   3.225
15774W        W85589  20.633  39.060   1.923
15775W        W85590  27.461  41.516  14.460
15776W        W85591  11.767  22.522   2.298
15777W        W85592  12.361  29.636  11.884
15778W        W85593   0.906   4.821  12.357
15779W        W85594   4.335  15.651   4.766
15780W        W85595   1.395   1.777  14.471
15781W        W85596  23.622   8.248  11.040
15782W        W85597  18.135   9.275  12.092
15783W        W85598  39.558   5.211  10.038
15784W        W85599  33.100  43.792  14.303
15785W        W85600  23.732  24.119  11.102
15786W        W85601  22.222   9.203  10.620
15787W        W85602  11.763  28.446   4.809
15788W        W85603  12.302  30.907  11.381
15789W        W85604  31.942  14.288   0.333
15790W        W85605  17.302  33.900  11.859
15791W        W85606  29.631  32.467  11.431
15792W        W85607  39.537   3.217   4.703
15793W        W85608  16.164  21.616   2.219
15794W        W85609  20.120   8.673  11.388
15795W        W85610  29.478  26.621  13.365
15796W        W85611   6.858  11.352   0.850
15797W        W85612  41.457   0.429  12.476
15798W        W85613   8.659  20.107   4.617
15799W        W85614  16.574  24.143   1.732
15800W        W85615   1.826  43.938  14.435
15801W        W85616  31.611  20.177  11.873
15802W        W85617   3.843  31.037  12.563
15803W        W85618  28.938   6.322  14.469
15804W        W85619  22.693  25.121   2.764
15805W        W85620  31.626   1.842   0.434
15806W        W85621  30.009  19.265  12.412
15807W        W85622  22.094   9.670  12.840
15808W        W85623   0.844  24.210  13.044
15809W        W85624   3.800  38.484   3.294
15810W        W85625  23.195  44.378   2.857
15811W        W85626  16.733  22.656   2.693
15812W        W85627   8.397  41.334   0.371
15813W        W85628  16.155  29.500  14.825
15814W        W85629  38.988  13.783  14.274
15815W        W85630  25.595   0.274  12.860
15816W        W85631  15.178   9.858   4.124
15817W        W85632  43.297  12.331   3.818
15818W        W85633  44.396  43.977  10.952
15819W        W85634   8.865  28.564  14.502
15820W        W85635  23.574  43.405  12.479
15821W        W85636   8.826   1.929   3.178
15822W        W85637  36.412   0.443   0.848
15823W        W85638   0.293  38.438  11.898
15824W        W85639   1.808  18.785   1.814
15825W        W85640  41.326  30.153  11.918
15826W        W85641   6.713  30.078  12.908
15827W        W85642  36.488   3.384  10.537
15828W        W85643   6.876  20.145  11.029
15829W        W85644  37.005  28.157   4.222
15830W        W85645  22.157  33.426   2.673
15831W        W85646   6.384  12.260  11.124
15832W        W85647  44.498  24.087   0.469
15833W        W85648  37.396  28.490   4.695
15834W        W85649   1.941   9.368   0.428
15835W        W85650  44.411  29.484  10.936
15836W        W85651   7.211  42.775   3.173
15837W        W85652  34.574   6.372  13.416
15838W        W85653  28.043   6.758   4.696
15839W        W85654  22.187  32.980  13.845
15840W        W85655  43.000  16.171  14.856
15841W        W85656   9.395  14.692   1.253
15842W        W85657  30.594  36.424  12.459
15843W        W85658   6.393  32.096   2.194
15844W        W85659  22.586  21.738   2.718
15845W        W85660  33.106   7.311   2.860
15846W        W85661  44.400  28.055   0.459
15847W        W85662   2.285  31.947   2.890
15848W        W85663  36.452  44.290  13.841
15849W        W85664  37.853  30.040   2.267
15850W        W85665  14.157  34.580  14.828
15851W        W85666  33.614  28.024   3.837
15852W        W85667  38.058  11.694  10.091
15853W        W85668   1.818  34.895  13.996
15854W        W85669  34.086   5.916  11.098
15855W        W85670   8.787  37.914   3.290
15856W        W85671   4.295  27.463  14.953
15857W        W85672  10.646  16.100  13.005
15858W        W85673  16.716  37.344   4.669
15859W        W85674  30.007  20.567   0.839
15860W        W85675  14.672  39.939   2.776
15861W        W85676  40.991  18.711   0.942
15862W        W85677   3.844   3.881  14.357
15863W        W85678  33.618  18.576   0.442
15864W        W85679  30.116  31.524   2.787
15865W        W85680  37.391  32.602  14.472
15866W        W85681  36.497   1.954   2.380
15867W        W85682  14.192  31.457  12.908
15868W        W85683  15.602  17.603   0.910
15869W        W85684  11.708  39.904   3.377
15870W        W85685  38.899  11.663  10.587
15871W        W85686   4.820  18.138   3.646
15872W        W85687  23.152  37.559   1.778
15873W        W85688  11.817   6.725  12.915
15874W        W85689  30.941   5.779  10.941
15875W        W85690   7.845  37.922  11.059
15876W        W85691  39.535   7.703  12.078
15877W        W85692  39.969  24.689  13.869
15878W        W85693   9.828  27.071  11.490
15879W        W85694  22.018   3.354   0.476
15880W        W85695  35.985  22.740   1.754
15881W        W85696   3.826  43.970  14.324
15882W        W85697  42.893   2.245  11.505
15883W        W85698  10.873  30.417   4.793
15884W        W85699  26.085  32.905  14.389
15885W        W85700  39.014   8.661   3.673
15886W        W85701  24.699  40.927  14.952
15887W        W85702  44.961  43.773  10.926
15888W        W85703  18.687  42.835   2.407
15889W        W85704   9.290   3.946   3.165
15890W        W85705  19.251  37.953  14.784
15891W        W85706  43.789  27.028  11.055
15892W        W85707  37.558  23.709   4.675
15893W        W85708  40.911   4.358  10.635
15894W        W85709  31.581  24.625   0.269
15895W        W85710  12.261  17.278  10.517
15896W        W85711  12.818   7.793   0.352
15897W        W85712  44.798  35.924  10.436
15898W        W85713  19.233  41.932  14.496
15899W        W85714   1.942  31.495   3.213
15900W        W85715   0.472   6.246   2.864
15901W        W85716   8.833  25.024   1.711
15902W        W85717   4.390  12.769  14.820
15903W        W85718  28.089  12.688   2.768
15904W        W85719  18.584  40.856  13.334
15905W        W85720  35.041   0.914  12.430
15906W        W85721   9.334  41.040   5.158
15907W        W85722  38.963  15.146  10.602
15908W        W85723  27.674  28.464  12.984
15909W        W85724  17.652  31.125  13.404
15910W        W85725   6.800  19.628  12.986
15911W        W85726  18.252  20.560   0.959
15912W        W85727   8.771  30.095  13.405
15913W        W85728  23.159  31.416  12.038
15914W        W85729  27.488  24.176   3.870
15915W        W85730   2.230  17.622   3.217
15916W        W85731  33.444   1.459   2.722
15917W        W85732  28.929  31.067  13.909
15918W        W85733  21.528  10.290  13.896
15919W        W85734  29.475  18.752  14.281
15920W        W85735  40.974  30.064  13.859
15921W        W85736   5.210   4.208  13.062
15922W        W85737  19.249  25.469  13.962
15923W        W85738  24.217  13.800  13.059
15924W        W85739  41.858  29.015   1.227
15925W        W85740  31.605   1.781  13.807
15926W        W85741   0.764  34.576  11.473
15927W        W85742  16.605  43.975  13.321
15928W        W85743  35.876  24.214  10.618
15929W        W85744  12.806  27.627   2.772
15930W        W85745  21.619  36.943   1.281
15931W        W85746   8.310  27.483   0.941
15932W        W85747  44.261  34.596  13.837
15933W        W85748   6.343  22.676  14.930
15934W        W85749  40.316  15.756   1.312
15935W        W85750  14.266  20.272  11.100
15936W        W85751  14.310  23.708   1.786
15937W        W85752  40.344  23.709   1.878
15938W        W85753  11.306  34.583   1.349
15939W        W85754   8.388  21.077   3.826
15940W        W85755  36.900  18.548  13.428
15941W        W85756  17.284  13.755   0.916
15942W        W85757  12.279  40.819  11.868
15943W        W85758  12.346   2.229  11.858
15944W        W85759  24.496  41.402  11.550
15945W        W85760  26.558  43.882   1.348
15946W        W85761  28.140  42.969  12.022
15947W        W85762  31.538  28.074  11.525
15948W        W85763   8.811  40.943  14.825
15949W        W85764  44.492  44.307   0.406
15950W        W85765   1.950   3.792  11.930
15951W        W85766  19.078  40.869   4.723
15952W        W85767   9.254   8.368   2.274
15953W        W85768  10.334   4.436   4.292
15954W        W85769   5.298  18.229  14.485
15955W        W85770  38.498  40.924   1.905
15956W        W85771  24.116  23.112   2.815
15957W        W85772   2.355  29.440  12.927
15958W        W85773  41.918  18.112  12.991
15959W        W85774  27.044  44.325  10.030
15960W        W85775   1.864  18.077   0.464
15961W        W85776  19.731  41.871  14.504
15962W        W85777  41.852  42.855   0.893
15963W        W85778  20.699   5.363   0.861
15964W        W85779  31.000   8.238  13.543
15965W        W85780  28.605  22.057  12.420
15966W        W85781  10.218   7.217  12.889
15967W        W85782  22.133  25.530   0.904
15968W        W85783  35.907  38.551   2.385
15969W        W85784   3.852  44.857   1.880
15970W        W85785  22.557  18.114   1.722
15971W        W85786   4.767  28.616   1.891
15972W        W85787  28.482  33.503  11.376
15973W        W85788   4.840  10.873   0.905
15974W        W85789  21.060  29.503   5.182
15975W        W85790  16.671  28.159  11.886
15976W        W85791   2.851  33.432  12.873
15977W        W85792   3.869  31.153   1.865
15978W        W85793   5.759  20.080   4.606
15979W        W85794   5.893  14.680   2.187
15980W        W85795  43.976  20.582   2.211
15981W        W85796  23.715  44.266   1.843
15982W        W85797   8.763   1.910   2.794
15983W        W85798   2.443   1.808  11.544
15984W        W85799  32.443   3.409   1.268
15985W        W85800  36.360   3.760   3.356
15986W        W85801  38.038  23.674  11.950
15987W        W85802  34.875   1.873   2.264
15988W        W85803   0.494  34.488   3.759
15989W        W85804   0.958  16.282  10.991
15990W        W85805  25.669  23.609   1.754
15991W        W85806   5.761   1.417   2.790
15992W        W85807  39.363  21.711  11.006
15993W        W85808  12.358  32.032   3.673
15994W        W85809  10.312   3.953   0.411
15995W        W85810  31.604  16.304  11.079
15996W        W85811   7.233  14.296   2.223
15997W        W85812  25.498  18.720   0.855
15998W        W85813  18.241  43.008  11.974
15999W        W85814  26.573  13.793   4.261
16000W        W85815  42.325  19.562  11.106
16001W        W85816  13.277  15.667  10.955
16002W        W85817  14.148  41.944   3.785
16003W        W85818  13.608  19.141   3.754
16004W        W85819  44.388   5.317  10.423
16005W        W85820  16.668  37.047   3.367
16006W        W85821  23.552  34.938  10.916
16007W        W85822  29.434   3.816  11.127
16008W        W85823  34.067  16.724   0.302
16009W        W85824   7.270  40.018   2.234
16010W        W85825  28.446  23.622   2.730
16011W        W85826  14.176  27.577  10.426
16012W        W85827  27.542  32.135  12.903
16013W        W85828   4.725  22.133   2.805
16014W        W85829  11.673   0.388  12.438
16015W        W85830   9.814  14.116  13.852
16016W        W85831  13.300   0.308   3.219
16017W        W85832   7.246   7.823  14.485
16018W        W85833   7.195  33.524   0.344
16019W        W85834  30.077  13.658  12.997
16020W        W85835  42.301  13.675  14.887
16021W        W85836  38.444  18.636   0.351
16022W        W85837  22.057  35.864  13.961
16023W        W85838   1.348  35.519  10.416
16024W        W85839  42.941  39.938  11.551
16025W        W85840  27.970  22.123   2.734
16026W        W85841  44.309  12.345   4.603
16027W        W85842  30.003   0.986  13.368
16028W        W85843  30.968  18.245  12.532
16029W        W85844  34.881  41.450  13.320
16030W        W85845   8.390  15.609   3.842
16031W        W85846  40.819  25.532   1.748
16032W        W85847   5.847  35.505  13.547
16033W        W85848  39.331   4.382  12.447
16034W        W85849  12.162  39.384   1.858
16035W        W85850  18.192  30.936   0.418
16036W        W85851  37.444  18.221  13.380
16037W        W85852   0.483  30.561   2.255
16038W        W85853   7.349   3.756  12.833
16039W        W85854  28.068  24.493  13.853
16040W        W85855  32.097  40.304   4.291
16041W        W85856   8.782  26.695   0.431
16042W        W85857  34.863  15.131   3.205
16043W        W85858  41.931  18.156   0.373
16044W        W85859  38.896   7.304   0.444
16045W        W85860  29.962   5.866  13.945
16046W        W85861  43.811  17.691  13.322
16047W        W85862  42.309   1.373   1.899
16048W        W85863  11.659  14.621  13.409
16049W        W85864  30.978   4.442  12.427
16050W        W85865  30.551  31.996  12.080
16051W        W85866  29.163  41.464  12.911
16052W        W85867  38.835  39.834   4.810
16053W        W85868  30.422  31.971   3.164
16054W        W85869  40.913  19.160   1.356
16055W        W85870  10.782  28.957  13.426
16056W        W85871  28.026  38.345  12.910
16057W        W85872   4.815   6.246  10.540
16058W        W85873   4.700  17.790  12.864
16059W        W85874  23.671  12.263  12.388
16060W        W85875  35.588  38.034  10.932
16061W        W85876  22.534  38.831   1.743
16062W        W85877  10.295   5.350   0.865
16063W        W85878   9.818  42.323  14.866
16064W        W85879   8.711  43.968  11.904
16065W        W85880  10.361  13.245   0.277
16066W        W85881  39.954  25.091  12.857
16067W        W85882  27.959  12.306  12.049
16068W        W85883  37.984  27.997   1.814
16069W        W85884  38.407  28.979  10.449
16070W        W85885   4.278  42.997  11.457
16071W        W85886  36.454  44.272   4.289
16072W        W85887  12.239  16.119   0.458
16073W        W85888  10.188  19.138  13.369
16074W        W85889  26.965  43.848   0.303
16075W        W85890  37.976  32.011  14.415
16076W        W85891  27.945  30.560   0.824
16077W        W85892  36.883  23.004   4.121
16078W        W85893   5.326  11.355   3.756
16079W        W85894  24.498  15.098  14.822
16080W        W85895  14.286  40.409  12.420
16081W        W85896  23.683  32.904  12.395
16082W        W85897   4.733  36.860   1.415
16083W        W85898  36.517  20.236   3.201
16084W        W85899   4.223  42.320   0.449
16085W        W85900   8.770  18.115  11.608
16086W        W85901  25.539   1.972   2.206
16087W        W85902  10.737   3.293  13.420
16088W        W85903  32.997  34.934   4.804
16089W        W85904  27.130  44.008  13.803
16090W        W85905  35.584  20.585  11.858
16091W        W85906  34.931   7.717   0.294
16092W        W85907  16.124  16.210  13.390
16093W        W85908  28.982  13.726  11.553
16094W        W85909  25.580  13.296   0.952
16095W        W85910  23.164  43.959   4.354
16096W        W85911  43.801  41.920   1.868
16097W        W85912  36.059  30.140   3.236
16098W        W85913  36.385  41.415   0.312
16099W        W85914  12.146  42.848  14.426
16100W        W85915  22.216  41.470   2.789
16101W        W85916  11.350  24.171   4.778
16102W        W85917   5.911  26.132  11.975
16103W        W85918  36.422  27.024  14.875
16104W        W85919  28.989  44.318   0.948
16105W        W85920   3.928  34.468  13.028
16106W        W85921  33.613   6.801  11.042
16107W        W85922  29.574  25.632  13.939
16108W        W85923  23.693  33.024   4.192
16109W        W85924  10.167   0.863   4.224
16110W        W85925  27.648   3.397  10.429
16111W        W85926  32.103  16.316   4.652
16112W        W85927  19.090   0.948  14.394
16113W        W85928  15.676   3.926   4.256
16114W        W85929   0.972  34.015  11.512
16115W        W85930  22.550  17.255  10.978
16116W        W85931  33.434  38.962   0.290
16117W        W85932  28.084   2.772   1.916
16118W        W85933  20.059  18.205   3.212
16119W        W85934   2.295  19.176  14.495
16120W        W85935  32.026  23.719  10.955
16121W        W85936  43.507  33.128   4.179
16122W        W85937  25.085  40.832   2.901
16123W        W85938  40.016   4.726   0.783
16124W        W85939  37.376  15.327   4.263
16125W        W85940  18.657  13.817  13.953
16126W        W85941  21.146  41.428   0.863
16127W        W85942  30.541  30.499   3.852
16128W        W85943  30.639  36.418  14.279
16129W        W85944   2.286  12.713   0.920
16130W        W85945  41.534  12.232   1.784
16131W        W85946  40.387  33.889   4.117
16132W        W85947  43.785   8.283   2.201
16133W        W85948  41.993  34.602   0.326
16134W        W85949  40.372  26.958  14.014
16135W        W85950  12.320  44.001   4.230
16136W        W85951  15.686  44.892  14.464
16137W        W85952  11.352  35.864   0.433
16138W        W85953   4.373  18.636  10.506
16139W        W85954  19.039  44.467  10.990
16140W        W85955  17.569  23.034  11.594
16141W        W85956  18.174  33.010   0.743
16142W        W85957  38.436  30.124   2.220
16143W        W85958   7.343  38.988   3.368
16144W        W85959  17.184  41.407  10.523
16145W        W85960  18.077   1.372  13.976
16146W        W85961  41.952  17.075  11.091
16147W        W85962  42.444  36.432  10.458
16148W        W85963  28.472  40.912   3.701
16149W        W85964  31.088  15.649  10.541
16150W        W85965   4.916  10.348   3.300
16151W        W85966  27.000  29.582   2.836
16152W        W85967  31.958   6.737  12.412
16153W        W85968  17.792  13.691  11.438
16154W        W85969   7.717  17.566   4.238
16155W        W85970  31.009   0.483   3.751
16156W        W85971   3.741  25.122   3.863
16157W        W85972  20.633  18.236   2.327
16158W        W85973   5.765  41.789   0.857
16159W        W85974   3.921  20.755   0.907
16160W        W85975  34.889  31.956   5.090
16161W        W85976  34.377  11.322   1.786
16162W        W85977  39.047   6.270  11.071
16163W        W85978  22.747  28.556  10.492
16164W        W85979   8.696  17.658   4.114
16165W        W85980  20.234   6.340  11.501
16166W        W85981  40.537  35.544  10.576
16167W        W85982  27.512  28.667  12.563
16168W        W85983   0.759  20.630  12.535
16169W        W85984  42.360  13.287   4.749
16170W        W85985   9.173  35.567  14.821
16171W        W85986  35.857  17.602  10.437
16172W        W85987  33.053   5.833  11.102
16173W        W85988  25.578  36.044  13.792
16174W        W85989  41.310  17.168  11.872
16175W        W85990   4.943  37.379  12.575
16176W        W85991  43.837  19.538  14.833
16177W        W85992  34.495   1.251  14.789
16178W        W85993  31.902  26.013  12.428
16179W        W85994  20.046  16.663  11.987
16180W        W85995  37.980   4.351   0.756
16181W        W85996  26.994  41.830  13.487
16182W        W85997  15.626  35.076   3.834
16183W        W85998  30.509  20.207  11.597
16184W        W85999   7.702  38.337   0.328
16185W        W86000  40.930  39.820   2.885
16186W        W86001  44.959  22.648  12.033
16187W        W86002  18.703  15.625  11.893
16188W        W86003  25.191  41.812   2.722
16189W        W86004  30.959  31.968  12.486
16190W        W86005   2.782  17.253   1.310
16191W        W86006   6.232  12.229  14.978
16192W        W86007  36.526  38.370  11.475
16193W        W86008  10.167  11.266   3.811
16194W        W86009  23.986  33.418  14.435
16195W        W86010  36.412  22.679  14.425
16196W        W86011  14.595   9.733   0.957
16197W        W86012  23.134   7.768   2.336
16198W        W86013  17.673  12.340   1.845
16199W        W86014  41.983  15.290   3.784
16200W        W86015  29.438  30.121  13.904
16201W        W86016  38.436  41.944  11.392
16202W        W86017   5.892  39.320  12.514
16203W        W86018  39.821  27.009  13.347
16204W        W86019  35.990  16.629   3.845
16205W        W86020  35.365  43.513   0.275
16206W        W86021  20.198  43.996   5.175
16207W        W86022  43.887   7.285   0.296
16208W        W86023  26.576  17.223  11.896
16209W        W86024  44.423  34.484   0.804
16210W        W86025  10.860  41.514  11.020
16211W        W86026  32.454  25.174   3.377
16212W        W86027  22.181  36.397   2.232
16213W        W86028  27.185  31.904  14.465
16214W        W86029  31.483  25.089  10.537
16215W        W86030  30.994  34.878   4.312
16216W        W86031  43.825   2.752   3.225
16217W        W86032  15.710  20.071  14.446
16218W        W86033  30.012  29.456  14.791
16219W        W86034  24.626  14.589   2.320
16220W        W86035  17.203  28.610   0.948
16221W        W86036  24.565  20.674  11.922
16222W        W86037  27.109  24.193   1.355
16223W        W86038  10.376  15.257  13.056
16224W        W86039   4.861   8.878  12.024
16225W        W86040   2.392  33.497  11.594
16226W        W86041  31.516  21.140   3.661
16227W        W86042  24.669  33.995   4.742
16228W        W86043  42.365  17.654  13.311
16229W        W86044   6.245  42.883  12.416
16230W        W86045   7.908  15.270  12.995
16231W        W86046  33.916  11.824   4.667
16232W        W86047  29.496  41.976   4.781
16233W        W86048  19.093   0.294  13.401
16234W        W86049   6.812  18.567  13.489
16235W        W86050   6.406  19.143   3.300
16236W        W86051  32.077  43.942   0.750
16237W        W86052   4.424  17.296   4.120
16238W        W86053  35.883  13.808   2.819
16239W        W86054   7.684  41.489  13.927
16240W        W86055  17.631  23.684   0.821
16241W        W86056  31.447  15.166   0.943
16242W        W86057  24.527   6.292   1.703
16243W        W86058   2.861  38.871  13.328
16244W        W86059  42.475  14.697   2.185
16245W        W86060  36.464  39.886  10.550
16246W        W86061   9.180   8.819   0.305
16247W        W86062  34.466  11.368  14.839
16248W        W86063  42.392  32.625   2.269
16249W        W86064  22.198   1.851  11.864
16250W        W86065   7.314  32.122   0.374
16251W        W86066   2.727  44.832  11.436
16252W        W86067   0.956  18.667   0.286
16253W        W86068  10.829  30.093  10.530
16254W        W86069  22.171  43.484  11.038
16255W        W86070  19.761  37.373  13.796
16256W        W86071  10.282  37.950   2.801
16257W        W86072  12.283  33.960  13.830
16258W        W86073   2.912  26.606   0.749
16259W        W86074  27.185  10.671  12.058
16260W        W86075  25.188  36.847  10.956
16261W        W86076   1.239  30.516  11.586
16262W        W86077   0.356   3.817  10.444
16263W        W86078  12.120  11.734  13.440
16264W        W86079  24.628   8.395   0.382
16265W        W86080   5.403  15.819  14.457
16266W        W86081   7.901  39.402  11.035
16267W        W86082  44.780   8.240   1.865
16268W        W86083  40.045  25.202   0.244
16269W        W86084  18.760  40.018  12.021
16270W        W86085  40.819   1.814  13.032
16271W        W86086   5.358  41.004  11.081
16272W        W86087   0.917  14.165  13.521
16273W        W86088  13.203   3.924   3.376
16274W        W86089  14.319  19.268  14.869
16275W        W86090  18.748  44.937  12.378
16276W        W86091   5.689  20.195  14.953
16277W        W86092  29.552  34.973   2.259
16278W        W86093  18.715  29.635   2.396
16279W        W86094  21.691   2.930  11.943
16280W        W86095  12.309   8.773  14.301
16281W        W86096  27.975   8.237   2.773
16282W        W86097  44.477   4.245   2.304
16283W        W86098  10.295   4.328  11.612
16284W        W86099  16.587   4.219  11.404
16285W        W86100   7.738  21.129  10.033
16286W        W86101  20.558  28.623   4.340
16287W        W86102  36.842   1.739   1.377
16288W        W86103  44.875  23.631  12.357
16289W        W86104  44.994  42.506   0.380
16290W        W86105   2.960  37.452  10.549
16291W        W86106  40.339  22.105   4.280
16292W        W86107  44.302   1.243  12.379
16293W        W86108  40.501   3.863   2.223
16294W        W86109  12.805  18.064   2.857
16295W        W86110  31.454  25.022   1.392
16296W        W86111  20.268  23.628   4.323
16297W        W86112  12.856  40.896   2.706
16298W        W86113  42.322  23.175  12.846
16299W        W86114  34.948  17.573  10.948
16300W        W86115  25.608  43.774  10.418
16301W        W86116  28.944  19.709   4.268
16302W        W86117  20.232  33.512  14.292
16303W        W86118   8.293  30.973   4.660
16304W        W86119  41.862  25.525   2.870
16305W        W86120  29.553  20.266  11.398
16306W        W86121  21.622  15.132   4.303
16307W        W86122  35.906  29.054  14.319
16308W        W86123  40.899  22.719   1.343
16309W        W86124   6.279  37.929  14.842
16310W        W86125  27.535  23.510  10.635
16311W        W86126  10.826  37.978   4.169
16312W        W86127  13.723   1.411   2.285
16313W        W86128  24.529  28.581  10.554
16314W        W86129  30.951  10.139  12.488
16315W        W86130  26.003   6.241  11.483
16316W        W86131  24.146   8.772   4.247
16317W        W86132   9.772  17.738  10.627
16318W        W86133   3.712  25.146   0.336
16319W        W86134  24.594  36.945   2.344
16320W        W86135  21.695   6.844   0.469
16321W        W86136  28.669  14.237   4.261
16322W        W86137  23.678  44.892   0.482
16323W        W86138  14.131  22.629  13.515
16324W        W86139  15.181   4.430   4.601
16325W        W86140   1.354  44.008  13.374
16326W        W86141  19.217  41.865  11.913
16327W        W86142  43.434  11.768   3.749
16328W        W86143  14.315  44.332  12.016
16329W        W86144  25.089  29.957   4.224
16330W        W86145  30.498  25.212   5.286
16331W        W86146  38.328   0.402   0.895
16332W        W86147  18.201  26.507   4.247
16333W        W86148  36.355  10.251  14.011
16334W        W86149  23.612  16.618  13.392
16335W        W86150  30.932   4.825   1.220
16336W        W86151  37.061   0.968  12.507
16337W        W86152  19.659  28.628  12.000
16338W        W86153  29.435  29.557   2.237
16339W        W86154   0.771  12.206   4.132
16340W        W86155  32.472  26.020   1.791
16341W        W86156  21.527  13.309   1.339
16342W        W86157  24.582  18.688  11.524
16343W        W86158   7.289   7.892   1.258
16344W        W86159  18.251   7.277  13.400
16345W        W86160   2.457  15.740   4.166
16346W        W86161   1.425  16.606  13.902
16347W        W86162   8.257  43.849  12.346
16348W        W86163  22.686  16.577  11.993
16349W        W86164  33.958  15.144   0.303
16350W        W86165  13.260  27.130   4.200
16351W        W86166  12.786  38.066  12.491
16352W        W86167  11.172   3.909   3.734
16353W        W86168  28.006  13.645  14.344
16354W        W86169  15.245   4.757  12.041
16355W        W86170  32.428   1.480  13.466
16356W        W86171  22.649  32.401   1.424
16357W        W86172  38.938  22.119   1.926
16358W        W86173  24.133  21.711   3.717
16359W        W86174   5.849  43.316  11.988
16360W        W86175  23.107  20.713   4.176
16361W        W86176  43.893  25.169   4.138
16362W        W86177  13.655  25.594   2.806
16363W        W86178  11.754  43.007   4.274
16364W        W86179  21.733   1.933  10.518
16365W        W86180  38.845   8.673   0.771
16366W        W86181  11.725  26.185   2.897
16367W        W86182  10.152  35.105  13.522
16368W        W86183  26.015  27.606  11.004
16369W        W86184   0.491  15.164  14.969
16370W        W86185  43.351  33.457   0.830
16371W        W86186  41.935  16.263  10.457
16372W        W86187  22.057   5.883  10.538
16373W        W86188   2.462  26.100  13.373
16374W        W86189  42.885  23.016  13.461
16375W        W86190   9.325  23.594   0.438
16376W        W86191  38.041   0.843   3.819
16377W        W86192  16.623  13.246   2.356
16378W        W86193  29.058  15.163   4.153
16379W        W86194  24.492  42.892  13.886
16380W        W86195  33.380   9.652  10.418
16381W        W86196  17.083  28.997   5.236
16382W        W86197  30.480  44.471  10.590
16383W        W86198   0.473  41.980  14.917
16384W        W86199  43.861   2.720   3.725
16385W        W86200  10.366  19.712  11.998
16386W        W86201  21.102  25.216   4.619
16387W        W86202  35.952  33.878   0.860
16388W        W86203   9.319  43.482   2.297
16389W        W86204   3.302   9.280   4.232
16390W        W86205  11.772   3.731  10.408
16391W        W86206  39.454  14.591  13.444
16392W        W86207  10.381  33.534   2.719
16393W        W86208  29.989   0.786  14.325
16394W        W86209  28.172   2.281  14.007
16395W        W86210  32.510  14.160  13.375
16396W        W86211  38.822  19.161   1.847
16397W        W86212  32.024  20.259  12.865
16398W        W86213  26.126  43.765   2.832
16399W        W86214  41.834  15.686   0.957
16400W        W86215  31.152  19.574  10.603
16401W        W86216  42.973  25.069  12.857
16402W        W86217  39.932   0.779   2.390
16403W        W86218  22.599  14.628  14.395
16404W        W86219  25.664  21.179  12.455
16405W        W86220  33.412  31.052   3.365
16406W        W86221  44.852  31.914   1.447
16407W        W86222   7.889  16.732  13.315
16408W        W86223  42.389  42.506  10.963
16409W        W86224  36.966  24.210   1.918
16410W        W86225  11.320   2.936  12.423
16411W        W86226  34.971  32.455  12.516
16412W        W86227  14.223  43.872  13.435
16413W        W86228  34.954  22.615  12.547
16414W        W86229  22.615  43.905  10.929
16415W        W86230  36.071  39.894  13.478
16416W        W86231  33.404  36.550   0.299
16417W        W86232   8.705  32.436   4.809
16418W        W86233  30.444  39.495   3.375
16419W        W86234   2.419  14.172  11.902
16420W        W86235  13.186  29.016   1.302
16421W        W86236  41.888   8.177  10.987
16422W        W86237  35.501  17.592  14.852
16423W        W86238  29.493  14.280   2.354
16424W        W86239  41.983   5.742   2.267
16425W        W86240  10.267  41.002   3.695
16426W        W86241  36.357  40.505   2.872
16427W        W86242   1.796   3.311  11.507
16428W        W86243  35.567  39.984   4.610
16429W        W86244  21.591  23.517   1.899
16430W        W86245  43.802   9.365   3.160
16431W        W86246  31.521   8.729   2.897
16432W        W86247  23.183  31.588  11.542
16433W        W86248  17.573  32.954   0.730
16434W        W86249   1.271   2.428  10.907
16435W        W86250   5.766  39.036  13.982
16436W        W86251   4.322  18.595  11.885
16437W        W86252  36.963  43.450   0.737
16438W        W86253  25.110  28.979   4.161
16439W        W86254  27.462   7.810   0.752
16440W        W86255  15.794  22.072  10.501
16441W        W86256  44.755   9.366   1.237
16442W        W86257  16.713  42.839   3.275
16443W        W86258  29.430  33.397  12.943
16444W        W86259   0.356   6.912  12.928
16445W        W86260  27.467   7.361  13.045
16446W        W86261   3.839   4.714  14.955
16447W        W86262  24.224  34.539  14.890
16448W        W86263   6.222  21.262   2.844
16449W        W86264  30.151  44.846   4.286
16450W        W86265   6.793  35.900  13.929
16451W        W86266  23.153  16.110  12.515
16452W        W86267  27.118  13.820  10.545
16453W        W86268   1.959  24.991  10.973
16454W        W86269  21.700   3.795   1.919
16455W        W86270   6.755  43.496   4.169
16456W        W86271  21.534   1.404   2.695
16457W        W86272   0.839  32.391   0.272
16458W        W86273  31.647  17.763  13.961
16459W        W86274  41.890  42.291   4.313
16460W        W86275  17.180  41.341   0.796
16461W        W86276  36.051   9.220   3.180
16462W        W86277  28.465  22.603   1.225
16463W        W86278  43.973   2.445   3.754
16464W        W86279  32.428  30.434   2.212
16465W        W86280  18.147  44.971   1.328
16466W        W86281  20.246  32.464   0.362
16467W        W86282  39.358  42.474  12.484
16468W        W86283  14.661   0.814  14.964
16469W        W86284  21.129  21.745  10.625
16470W        W86285  21.030  25.976   4.228
16471W        W86286  24.569  28.036  10.576
16472W        W86287  27.654  13.750   0.257
16473W        W86288  27.669  32.432  11.013
16474W        W86289   8.193  27.061   3.664
16475W        W86290  28.576  18.650   3.375
16476W        W86291  25.085  12.785  12.988
16477W        W86292  38.886  20.762  13.342
16478W        W86293  13.184   7.745  12.542
16479W        W86294  19.714  29.165  12.500
16480W        W86295  39.945  40.816  14.982
16481W        W86296  22.037  13.144   3.284
16482W        W86297   9.354  14.135  12.085
16483W        W86298   1.315  13.665  12.016
16484W        W86299  22.196   0.866   3.853
16485W        W86300  35.863  16.646  10.953
16486W        W86301  25.598   3.266  12.447
16487W        W86302  36.052  26.956   4.688
16488W        W86303  24.179   7.250  11.023
16489W        W86304   9.253   3.392  11.568
16490W        W86305  20.616  33.530   3.690
16491W        W86306   3.316  19.065  13.861
16492W        W86307  12.167  26.048  14.310
16493W        W86308  42.497  25.569   3.249
16494W        W86309   2.728  33.076  13.811
16495W        W86310  10.779  41.395  10.561
16496W        W86311  33.931  12.840  14.767
16497W        W86312  14.128  28.450   3.679
16498W        W86313  37.868  21.610  12.094
16499W        W86314   3.306  13.345   3.167
16500W        W86315   1.416  28.128  13.972
16501W        W86316  31.154  12.120   3.768
16502W        W86317  18.672  20.719   4.210
16503W        W86318  41.813  44.393  13.952
16504W        W86319  41.444  42.364  14.436
16505W        W86320   7.814   9.797  14.988
16506W        W86321  11.136  20.616   0.249
16507W        W86322   2.942  12.655  14.486
16508W        W86323  19.256  37.353  14.289
16509W        W86324   5.743  31.030  11.916
16510W        W86325  41.444   2.791  13.373
16511W        W86326  40.414  32.035   5.296
16512W        W86327  26.601  39.326   4.774
16513W        W86328   1.433   0.946  13.507
16514W        W86329  17.252  34.412  12.014
16515W        W86330  44.829  11.730   1.882
16516W        W86331  22.183  15.213  13.509
16517W        W86332   2.420  23.989   3.727
16518W        W86333  44.011  44.444  10.591
16519W        W86334  28.565  27.050  11.953
16520W        W86335  39.032  12.632  10.590
16521W        W86336  36.456   2.379   3.361
16522W        W86337  24.196  28.493   3.320
16523W        W86338  38.976  38.547  11.863
16524W        W86339  11.323  40.501  10.602
16525W        W86340  31.498  40.903  13.402
16526W        W86341  43.450  21.105  14.782
16527W        W86342  32.453  27.090  10.976
16528W        W86343   7.322   1.736  12.869
16529W        W86344  31.934  23.653   2.724
16530W        W86345  32.914  34.908   4.209
16531W        W86346   2.755  12.752   2.670
16532W        W86347  41.514  41.796  13.058
16533W        W86348  17.614  38.882  10.536
16534W        W86349  19.700  23.087  12.024
16535W        W86350  30.650  38.833   3.315
16536W        W86351  43.796   1.426   1.915
16537W        W86352  29.477  14.180   0.741
16538W        W86353  41.525  10.347  12.088
16539W        W86354   0.404  12.687  10.625
16540W        W86355  42.500   7.906  11.023
16541W        W86356  42.818   6.777  10.951
16542W        W86357   5.790  18.137  13.404
16543W        W86358  30.907  34.472   1.268
16544W        W86359  25.637  29.427   4.189
16545W        W86360  21.219   4.449  12.543
16546W        W86361  20.613  12.822  14.437
16547W        W86362  37.442   6.361   1.907
16548W        W86363   6.884   6.833  14.784
16549W        W86364  14.610  40.895  13.062
16550W        W86365  41.820  38.479   2.299
16551W        W86366  14.672  17.173   1.892
16552W        W86367   3.407   3.926  12.945
16553W        W86368  32.442  27.159  10.612
16554W        W86369  15.775  18.638   3.198
16555W        W86370  15.161  23.592   0.829
16556W        W86371  23.222  12.338   0.437
16557W        W86372  10.250  31.973  11.044
16558W        W86373  18.276   9.830   2.799
16559W        W86374  41.965  43.315  13.920
16560W        W86375  29.542   1.328   4.789
16561W        W86376  37.058  41.507   0.779
16562W        W86377  37.856  28.465  14.438
16563W        W86378   6.231   8.663   0.863
16564W        W86379  30.939  21.164   3.858
16565W        W86380  38.961  12.639  13.988
16566W        W86381  20.143  41.886  11.104
16567W        W86382  18.062  27.666   2.296
16568W        W86383  37.085  12.842  14.008
16569W        W86384  15.681  16.222   4.751
16570W        W86385   0.915  22.238   0.758
16571W        W86386  37.985  22.067  10.496
16572W        W86387  25.050  21.631  12.928
16573W        W86388  21.046  25.219   1.328
16574W        W86389  34.927   4.223   0.731
16575W        W86390   3.763  40.824   0.252
16576W        W86391  14.648  44.412   4.756
16577W        W86392   6.361  18.779   1.874
16578W        W86393  17.679  40.966   0.756
16579W        W86394  23.175  19.128  11.055
16580W        W86395  39.889  42.359   1.450
16581W        W86396  15.789  30.558   2.220
16582W        W86397   9.173   0.901  12.902
16583W        W86398  34.015  24.065   4.837
16584W        W86399  30.555  36.033   4.673
16585W        W86400  35.859  11.264   4.643
16586W        W86401   6.419   5.886  11.968
16587W        W86402  19.095   8.662   1.388
16588W        W86403  39.524  38.353   3.317
16589W        W86404  13.152  32.617   0.857
16590W        W86405  21.201  16.619   5.221
16591W        W86406  25.996  19.233  14.785
16592W        W86407  42.979  31.110   3.365
16593W        W86408  17.779  30.639   4.250
16594W        W86409  30.954  44.882  12.528
16595W        W86410   6.724  20.550   3.841
16596W        W86411  22.555  31.017   4.262
16597W        W86412  43.950  14.182   3.307
16598W        W86413  21.557  29.921   2.884
16599W        W86414   7.880  35.424   1.260
16600W        W86415   6.409  23.990  12.495
16601W        W86416  32.615  38.886  14.840
16602W        W86417  23.635  34.087  11.377
16603W        W86418   5.870  26.003   4.248
16604W        W86419  20.522  23.241   0.748
16605W        W86420  33.044  21.056   3.346
16606W        W86421  33.987  31.547  10.472
16607W        W86422  41.405  32.995  10.632
16608W        W86423  24.659  40.890  12.853
16609W        W86424   3.305  40.970   0.308
16610W        W86425  25.093  34.057   3.308
16611W        W86426   1.263   1.299   3.358
16612W        W86427  25.693   5.303  12.065
16613W        W86428  27.650  40.531   1.827
16614W        W86429   9.710  34.091  11.417
16615W        W86430  19.068  27.146   3.233
16616W        W86431   7.209  36.938  13.942
16617W        W86432  15.714  15.697   3.207
16618W        W86433  39.402  35.078  12.531
16619W        W86434  28.945  17.093   1.423
16620W        W86435  10.264  12.846   0.438
16621W        W86436  27.010   5.338   2.185
16622W        W86437  19.779  21.680   4.835
16623W        W86438  33.977   6.222   3.693
16624W        W86439  38.027  10.147  12.507
16625W        W86440  32.607  34.526   4.176
16626W        W86441  14.661  11.276  12.060
16627W        W86442  14.185  44.906   4.242
16628W        W86443  17.601  23.083  12.427
16629W        W86444  37.833  35.435   2.193
16630W        W86445  10.231   5.200   4.754
16631W        W86446  13.822   5.764   3.283
16632W        W86447   8.262  12.721  13.031
16633W        W86448  39.985  34.371  13.990
16634W        W86449  12.169  29.446   1.226
16635W        W86450  37.874   3.870   3.807
16636W        W86451  27.672  12.256   1.296
16637W        W86452  28.144  35.511   2.826
16638W        W86453  20.093   2.877  10.964
16639W        W86454  31.442  37.949  10.583
16640W        W86455  11.679  42.417  13.893
16641W        W86456  38.430   5.287  14.006
16642W        W86457  30.529  10.195   5.108
16643W        W86458   4.811  17.223  11.533
16644W        W86459  33.413  31.471  11.098
16645W        W86460  30.041  36.992  13.933
16646W        W86461   8.253  30.637   1.701
16647W        W86462  42.479  41.492   1.820
16648W        W86463  12.628  43.909   2.367
16649W        W86464  20.543  18.224   0.276
16650W        W86465  37.341  42.828   0.322
16651W        W86466  30.927   7.801  11.543
16652W        W86467  11.314  41.883   0.911
16653W        W86468   6.787   1.456  12.479
16654W        W86469  35.386  31.988  12.536
16655W        W86470  26.650  31.433  10.619
16656W        W86471  20.126  22.561  14.336
16657W        W86472   3.417  24.574  14.845
16658W        W86473   7.684  36.414   3.157
16659W        W86474   4.426   6.680  14.977
16660W        W86475  28.553  24.558  14.808
16661W        W86476  29.577  38.975   3.164
16662W        W86477  41.360  40.544  10.950
16663W        W86478   2.807   0.778  10.545
16664W        W86479   2.891   0.442  11.607
16665W        W86480   9.333  34.486   5.181
16666W        W86481  40.974  41.892  10.537
16667W        W86482   3.442  32.582  12.354
16668W        W86483  43.826  21.053   1.825
16669W        W86484  14.609  13.212  12.039
16670W        W86485  34.541   4.317  13.927
16671W        W86486  21.090   9.311   2.366
16672W        W86487   6.855   7.257   4.693
16673W        W86488  23.537  40.500  12.407
16674W        W86489   0.980  20.740  11.449
16675W        W86490  35.016  30.148   4.838
16676W        W86491   8.327  11.174  11.057
16677W        W86492  16.178  38.876   4.695
16678W        W86493  13.808  39.909  13.063
16679W        W86494   2.283  28.151  10.077
16680W        W86495   9.383  24.148  10.905
16681W        W86496   7.695  13.107   3.345
16682W        W86497  43.834  34.004  10.934
16683W        W86498  27.520  43.353  12.566
16684W        W86499  17.139  28.530   1.845
16685W        W86500   9.221   5.813   2.413
16686W        W86501  44.270  13.707   1.886
16687W        W86502  28.152  40.949  14.414
16688W        W86503  17.086  31.623   1.726
16689W        W86504  20.642  17.198  14.444
16690W        W86505  12.732  43.824   3.734
16691W        W86506  25.159   2.293  13.454
16692W        W86507   6.818  27.982  10.504
16693W        W86508  29.061  35.550   0.794
16694W        W86509  23.674  17.221  11.098
16695W        W86510  31.917  40.538  14.489
16696W        W86511  35.424   3.418  11.588
16697W        W86512   5.700  42.475  12.343
16698W        W86513  43.374  24.106   0.321
16699W        W86514   6.427   9.700   4.352
16700W        W86515  21.024  18.072   4.349
16701W        W86516  28.183  23.519  13.816
16702W        W86517   7.747  42.889  11.030
16703W        W86518   9.779  41.446   4.760
16704W        W86519  28.078  36.354   0.941
16705W        W86520   6.889  36.483  13.978
16706W        W86521  25.020  25.604  13.405
16707W        W86522   4.425  13.145   3.762
16708W        W86523  26.496  27.461   2.695
16709W        W86524  21.166  37.351  11.123
16710W        W86525  30.022   8.683   1.872
16711W        W86526   0.401  44.962  13.913
16712W        W86527  42.988  26.161   0.442
16713W        W86528  35.025  25.576  14.316
16714W        W86529  36.048  22.575  12.983
16715W        W86530  21.261  17.686  13.475
16716W        W86531  17.181  37.041   3.327
16717W        W86532  12.260  26.025   0.438
16718W        W86533   2.395  33.916  11.903
16719W        W86534  38.029  13.340   1.263
16720W        W86535  19.076  20.196   2.328
16721W        W86536  31.964  28.574   3.304
16722W        W86537  44.984  17.637  11.530
16723W        W86538   4.311  32.562   0.468
16724W        W86539  30.129  29.645  14.000
16725W        W86540  36.080   2.800  14.456
16726W        W86541  34.940   1.462   2.338
16727W        W86542  28.564  11.243   5.654
16728W        W86543  16.261  24.512  13.447
16729W        W86544  14.252  12.819  13.484
16730W        W86545   7.668   5.805  13.475
16731W        W86546   3.723  28.037  10.522
16732W        W86547  11.815  27.502  14.392
16733W        W86548   8.769  15.098   4.204
16734W        W86549  42.995  16.706  12.007
16735W        W86550  44.954  31.993  10.620
16736W        W86551  28.136   1.410   0.785
16737W        W86552  39.449   9.310   1.799
16738W        W86553  22.032  39.467   4.717
16739W        W86554  35.905   8.398   3.213
16740W        W86555  35.369  44.447   4.170
16741W        W86556  15.240  32.628  12.844
16742W        W86557  14.648  36.981   3.804
16743W        W86558   2.812   6.364  12.491
16744W        W86559  37.945  13.106   2.834
16745W        W86560   7.685  22.147   1.707
16746W        W86561  38.837  15.241  13.849
16747W        W86562  39.314  23.604   1.854
16748W        W86563  42.407  44.835  10.484
16749W        W86564   4.350  27.470   1.741
16750W        W86565  22.665   3.896  13.026
16751W        W86566  44.001  31.430  14.882
16752W        W86567  30.652  22.080  14.856
16753W        W86568  22.138  22.018  10.932
16754W        W86569  15.211  16.138  12.825
16755W        W86570  25.969  38.022   4.269
16756W        W86571  22.128  14.630   2.257
16757W        W86572  13.795  30.096   3.711
16758W        W86573   5.914  16.296  12.986
16759W        W86574  38.898   7.311   3.361
16760W        W86575  40.898  18.283   1.842
16761W        W86576  13.678   1.762   4.691
16762W        W86577  44.472  25.656  11.505
16763W        W86578  34.496  43.339  11.480
16764W        W86579  35.487  20.634   2.902
16765W        W86580  44.906  15.307  13.425
16766W        W86581   1.409  20.694   0.967
16767W        W86582  18.584   3.831  12.920
16768W        W86583  39.982   4.246   1.925
16769W        W86584  41.325  24.129   1.705
16770W        W86585  41.325  39.429  10.931
16771W        W86586  25.642   7.312  11.388
16772W        W86587   4.919  20.735   2.305
16773W        W86588  42.445  25.150  13.020
16774W        W86589  15.677  41.922  14.483
16775W        W86590  26.533   5.371   3.845
16776W        W86591  33.606  14.690  13.833
16777W        W86592  25.002  44.778   2.891
16778W        W86593  33.611   1.352   4.170
16779W        W86594  43.499  41.441   1.873
16780W        W86595  11.276   8.832   2.243
16781W        W86596  20.524  15.231   3.796
16782W        W86597  28.178   4.885   2.829
16783W        W86598  37.461  43.511   2.779
16784W        W86599  29.504  44.287  10.135
16785W        W86600   6.227  21.608  10.578
16786W        W86601  41.850  42.413   4.796
16787W        W86602  19.127   0.865  13.945
16788W        W86603  21.187  27.096   2.697
16789W        W86604   7.222  32.087  13.330
16790W        W86605  39.924  26.586   4.268
16791W        W86606  41.883   4.704   0.484
16792W        W86607  44.420  25.179  13.461
16793W        W86608  33.106  16.624   2.864
16794W        W86609  29.530   0.944  11.944
16795W        W86610  31.425  23.597   0.286
16796W        W86611  32.051  38.548  13.058
16797W        W86612  15.300  15.719   0.390
16798W        W86613  27.539  42.303  14.342
16799W        W86614  44.459  29.093  12.974
16800W        W86615  35.959   5.842  13.025
16801W        W86616   9.224  17.279  13.962
16802W        W86617  25.012  38.056  14.887
16803W        W86618  11.740  40.870  11.883
16804W        W86619  32.123  10.369  10.470
16805W        W86620  20.637   3.448   1.773
16806W        W86621  43.420  34.472  12.447
16807W        W86622   8.691   2.416   5.262
16808W        W86623  20.177   4.377   3.865
16809W        W86624  14.678  10.297   4.789
16810W        W86625  42.495   6.823  14.883
16811W        W86626  18.764   1.751   3.857
16812W        W86627   2.352  22.657  11.473
16813W        W86628  30.462  12.239   1.864
16814W        W86629   7.875  36.026   5.319
16815W        W86630   7.355   0.305   4.218
16816W        W86631  14.729   4.304  10.449
16817W        W86632  19.560  24.130   1.721
16818W        W86633  39.051   3.297  11.610
16819W        W86634   4.798  36.941   3.318
16820W        W86635   0.771  28.100  13.848
16821W        W86636  31.409  13.740   0.856
16822W        W86637  20.193   1.335   0.727
16823W        W86638   9.775   1.361  11.973
16824W        W86639   4.893  25.071   3.361
16825W        W86640  44.317  30.658   4.726
16826W        W86641  19.588  33.598   1.755
16827W        W86642  39.841  21.566  14.799
16828W        W86643   7.837  20.165   1.355
16829W        W86644  29.647  31.106   3.798
16830W        W86645  33.601  44.402  11.438
16831W        W86646  22.746   3.895   0.408
16832W        W86647  32.531   1.244  12.864
16833W        W86648  15.224  34.972   3.756
16834W        W86649  11.699   5.368  10.404
16835W        W86650  26.959   1.254   4.600
16836W        W86651  41.948  31.525  13.793
16837W        W86652  11.651  20.257  13.501
16838W        W86653  25.083  40.853   1.262
16839W        W86654  38.848  10.801   4.129
16840W        W86655  38.922  31.511   0.333
16841W        W86656  30.458  23.051  14.467
16842W        W86657  28.604   7.204   2.684
16843W        W86658   8.238  22.086  10.619
16844W        W86659  27.065   0.250   0.775
16845W        W86660  41.807  16.129  14.022
16846W        W86661  22.136  29.569   3.297
16847W        W86662  27.045  20.600   1.849
16848W        W86663  39.820  44.883  13.991
16849W        W86664   3.883  15.760   4.740
16850W        W86665  18.198  25.051   4.125
16851W        W86666  44.758  39.939  12.867
16852W        W86667  21.244   3.727  14.860
16853W        W86668   5.875  42.850  13.356
16854W        W86669  24.116  28.558  10.993
16855W        W86670  42.970  28.479  12.853
16856W        W86671  22.577   1.324  11.070
16857W        W86672  33.431  32.993   2.253
16858W        W86673   4.414  32.105  11.899
16859W        W86674  11.724   6.419  10.973
16860W        W86675  12.692  41.296   0.806
16861W        W86676  25.048  36.984  12.079
16862W        W86677  26.643  25.580   2.315
16863W        W86678  37.984  22.737   2.827
16864W        W86679  22.146  42.492  11.450
16865W        W86680  43.827  38.017  14.330
16866W        W86681   3.898  42.440   1.327
16867W        W86682  16.080   8.715  13.935
16868W        W86683  43.932   3.821   4.207
16869W        W86684  44.491  22.144  11.443
16870W        W86685  25.014  35.991   2.866
16871W        W86686  36.484  23.579   3.234
16872W        W86687   0.828  13.159  13.432
16873W        W86688  34.097   1.792  11.523
16874W        W86689  26.099   5.233   2.764
16875W        W86690   0.880  43.449  12.860
16876W        W86691  15.307   2.734  14.851
16877W        W86692   1.898   9.194   0.833
16878W        W86693  13.679  30.545  14.805
16879W        W86694   8.212  17.112  10.962
16880W        W86695  14.668  30.926   0.797
16881W        W86696  33.396  34.990   4.353
16882W        W86697  10.185  31.971  11.521
16883W        W86698  29.923  24.562   1.877
16884W        W86699  18.678  37.848   2.247
16885W        W86700  37.011   0.770  14.876
16886W        W86701  19.733   3.242  11.509
16887W        W86702  11.304  30.565  12.960
16888W        W86703  15.307  22.053  12.001
16889W        W86704  13.684  43.890   2.221
16890W        W86705   6.682  35.517   4.765
16891W        W86706  44.502  24.559   3.264
16892W        W86707  43.409  36.909  11.609
16893W        W86708  15.717  16.145   3.313
16894W        W86709  18.183  43.949  12.061
16895W        W86710  34.569   8.345  12.447
16896W        W86711  27.482  15.249   0.368
16897W        W86712  41.877  32.966  13.515
16898W        W86713   3.340   4.382   3.300
16899W        W86714  17.239  26.044  14.922
16900W        W86715  32.522  16.801  11.389
16901W        W86716  40.905  17.213   1.900
16902W        W86717  26.138  44.810  13.807
16903W        W86718  38.337  15.262  13.852
16904W        W86719  15.269  27.161   3.792
16905W        W86720   5.292  37.440  11.488
16906W        W86721  38.457  13.743   1.305
16907W        W86722  44.375  22.252   0.324
16908W        W86723  20.544  42.510   4.759
16909W        W86724  44.936  44.446   3.184
16910W        W86725  37.335  12.806  11.071
16911W        W86726  31.958  11.349   1.323
16912W        W86727  10.298  15.812  10.965
16913W        W86728  22.998  18.785   0.465
16914W        W86729  26.658  10.300   2.195
16915W        W86730  12.116   8.361  12.442
16916W        W86731  39.369  18.625  10.522
16917W        W86732  33.579  40.831  12.886
16918W        W86733  35.960  42.004   1.391
16919W        W86734  36.871  40.812   3.845
16920W        W86735   2.380  26.570   4.693
16921W        W86736  24.215  43.390  12.496
16922W        W86737  41.971  16.638  10.081
16923W        W86738  36.864   4.882   1.382
16924W        W86739  10.255  30.418  12.886
16925W        W86740  13.719   2.364  11.453
16926W        W86741  42.308  24.987   3.353
16927W        W86742  17.568  13.794  12.071
16928W        W86743  42.379  32.090  13.424
16929W        W86744  18.138  30.119  14.440
16930W        W86745  41.314  31.640   3.277
16931W        W86746  21.049   8.841  13.526
16932W        W86747   0.837   3.782   1.331
16933W        W86748  31.005   5.754  14.955
16934W        W86749  42.883  30.907   1.914
16935W        W86750  33.913  42.984   5.224
16936W        W86751  15.790  22.746   3.821
16937W        W86752  39.987  23.504  10.623
16938W        W86753  22.031  41.851   3.774
16939W        W86754  40.487  12.751   0.289
16940W        W86755   5.867  15.624   4.294
16941W        W86756  41.493   8.849  14.371
16942W        W86757  24.717  14.787  10.999
16943W        W86758   3.247   3.298  14.857
16944W        W86759  34.901  24.552  13.518
16945W        W86760  42.454  39.540  12.920
16946W        W86761  24.229  21.065  14.282
16947W        W86762   9.799   3.781  12.506
16948W        W86763  40.542  35.852  13.813
16949W        W86764   5.402  14.184   3.147
16950W        W86765  42.488   2.729   3.652
16951W        W86766  28.953  13.234   3.655
16952W        W86767  40.988  14.689  13.015
16953W        W86768  25.989   5.727  12.395
16954W        W86769  15.655  32.901   0.832
16955W        W86770  17.273   9.672  11.118
16956W        W86771  21.134  43.319   1.887
16957W        W86772  40.979   2.740   4.660
16958W        W86773  34.509  43.390   3.198
16959W        W86774  13.144  11.802  11.391
16960W        W86775  35.399  22.554   2.683
16961W        W86776  22.720  22.738   2.784
16962W        W86777  14.205  33.032  10.952
16963W        W86778  39.513   6.274   2.745
16964W        W86779  10.759  44.980  11.033
16965W        W86780   0.348  29.149   2.323
16966W        W86781  43.875   5.803  11.403
16967W        W86782   9.756  33.048  12.488
16968W        W86783  21.619  32.416   2.843
16969W        W86784   8.404  17.170   1.894
16970W        W86785   7.726   7.396   3.861
16971W        W86786  18.565  24.230   1.410
16972W        W86787  11.676  12.774  14.934
16973W        W86788  39.903  26.528   1.248
16974W        W86789  38.901  25.552   0.930
16975W        W86790  36.082   1.957   2.691
16976W        W86791  34.496  32.121   1.258
16977W        W86792  34.087  26.676   3.174
16978W        W86793  43.942   3.428   1.306
16979W        W86794  23.003   2.866  13.525
16980W        W86795  27.981   0.338  13.375
16981W        W86796  11.866   5.739   3.858
16982W        W86797  42.482  33.396  11.563
16983W        W86798  23.497  30.479   0.417
16984W        W86799   9.254  34.539   3.230
16985W        W86800  24.500  40.952  11.119
16986W        W86801  38.535  14.135  13.466
16987W        W86802  41.828  27.573  12.945
16988W        W86803  42.314   6.225  10.974
16989W        W86804  20.733  27.158  10.542
16990W        W86805   2.439  35.896  10.576
16991W        W86806  14.761   1.869   1.845
16992W        W86807  41.992  27.049  10.434
16993W        W86808   9.719  16.789   2.683
16994W        W86809  24.666   6.727  14.019
16995W        W86810  40.915   6.303   2.823
16996W        W86811  18.202  29.577  14.889
16997W        W86812   0.967   8.793   3.253
16998W        W86813   8.392  41.346  14.398
16999W        W86814   9.812  29.953  14.014
17000W        W86815  43.780   5.321  14.454
17001W        W86816  17.299  10.840  10.558
17002W        W86817  12.143   6.881  12.410
17003W        W86818  44.786   5.227  12.506
17004W        W86819   0.846   5.387   3.775
17005W        W86820  25.674   2.340  14.906
17006W        W86821   7.198  22.157   0.932
17007W        W86822  40.315  14.606  12.856
17008W        W86823   9.840   5.889  13.818
17009W        W86824  34.949  31.520  10.895
17010W        W86825  36.358   5.898  14.306
17011W        W86826   0.980  30.421  11.486
17012W        W86827  16.728  18.247   3.753
17013W        W86828  22.046  28.141   1.772
17014W        W86829   9.157  41.419   4.688
17015W        W86830  30.415  43.373   1.262
17016W        W86831  25.680  41.995  11.083
17017W        W86832  39.443  43.952   2.216
17018W        W86833  21.098  37.978   2.185
17019W        W86834   4.787   7.202  13.865
17020W        W86835  32.558  16.278   1.849
17021W        W86836   2.395   8.737   1.348
17022W        W86837  41.942  22.559   4.815
17023W        W86838  11.374  37.416  12.438
17024W        W86839  14.801  32.926  11.487
17025W        W86840  40.463   8.812  12.002
17026W        W86841  22.111   9.778   1.404
17027W        W86842  32.956  25.026   4.198
17028W        W86843  40.939   9.329   4.672
17029W        W86844  37.894  27.664   0.890
17030W        W86845  10.699  33.904   0.471
17031W        W86846  22.556  42.489  10.569
17032W        W86847  12.748  27.194   0.901
17033W        W86848  43.821  13.834  13.513
17034W        W86849  42.962  34.039   4.349
17035W        W86850   5.762  15.810   4.771
17036W        W86851   7.207   3.412   2.233
17037W        W86852  24.682  19.571   1.448
17038W        W86853  21.684  14.315   1.925
17039W        W86854   6.308  29.132  13.881
17040W        W86855   3.752  42.461  10.894
17041W        W86856  31.638  11.162  14.296
17042W        W86857  26.495  16.589   3.682
17043W        W86858   3.869  29.520   1.866
17044W        W86859  15.736   7.705   3.843
17045W        W86860  15.092  28.568   4.757
17046W        W86861  41.877  41.983  12.892
17047W        W86862   5.712  32.505   3.315
17048W        W86863  27.448   1.384  14.477
17049W        W86864   7.736  34.092   1.407
17050W        W86865   0.258   1.361   1.933
17051W        W86866  27.186  22.205   0.418
17052W        W86867   6.304  35.543   0.354
17053W        W86868  22.707  40.851   3.705
17054W        W86869  38.548  41.315   3.688
17055W        W86870   0.440  39.993  13.482
17056W        W86871  22.117   6.389   4.780
17057W        W86872  24.041  30.941   3.800
17058W        W86873  17.596  13.225  11.964
17059W        W86874  21.144  14.734  14.892
17060W        W86875   1.895  22.999  13.495
17061W        W86876   0.295  29.605  12.973
17062W        W86877  35.076  31.472   2.246
17063W        W86878   0.855  13.676   3.322
17064W        W86879  18.126  14.266  13.827
17065W        W86880  25.140  44.937   4.710
17066W        W86881  31.602  19.278  11.430
17067W        W86882   1.445  34.562  14.008
17068W        W86883  41.940  31.122   2.900
17069W        W86884  35.091  30.652  14.780
17070W        W86885  40.454   0.321  12.883
17071W        W86886  17.603  15.594   0.329
17072W        W86887  34.999   0.281  10.548
17073W        W86888  34.092   6.397  10.479
17074W        W86889   8.883  30.927   3.328
17075W        W86890   0.813  31.112   4.731
17076W        W86891  29.950  37.028   0.861
17077W        W86892  11.363  35.979   3.223
17078W        W86893  22.724  41.374  12.008
17079W        W86894   0.465  16.788   4.626
17080W        W86895  15.610   7.891  12.023
17081W        W86896  41.956  32.489  14.831
17082W        W86897  42.419  31.545   3.288
17083W        W86898   4.216  42.869   0.830
17084W        W86899  30.471  13.650   3.755
17085W        W86900   6.689  24.683  14.987
17086W        W86901  41.383   4.277   1.302
17087W        W86902  32.088  42.017   1.299
17088W        W86903  24.561   9.679   1.797
17089W        W86904  33.617  22.137   0.925
17090W        W86905  28.681  11.855  12.852
17091W        W86906  26.006  24.055   2.714
17092W        W86907  40.454   5.204   1.888
17093W        W86908  34.993  13.673  14.837
17094W        W86909  18.686  31.490   4.259
17095W        W86910  28.061  17.062  13.391
17096W        W86911   1.483  27.604   4.208
17097W        W86912  13.634   0.300  11.923
17098W        W86913  36.475  22.194  11.379
17099W        W86914   6.228  23.694  12.560
17100W        W86915  41.504  39.965  13.506
17101W        W86916  31.151   1.969   1.333
17102W        W86917  28.030  30.021  13.962
17103W        W86918   1.464   7.717  11.411
17104W        W86919  35.395  33.925  14.929
17105W        W86920  23.686  41.812  12.342
17106W        W86921   7.339   9.764  11.416
17107W        W86922  18.088  41.795   1.390
17108W        W86923  36.457   8.274   1.706
17109W        W86924  12.771  33.905  14.842
17110W        W86925   5.272  21.151   4.157
17111W        W86926  43.892   4.718   4.293
17112W        W86927  42.305  27.075  12.437
17113W        W86928  20.604  16.707  12.002
17114W        W86929  18.755  29.455  12.840
17115W        W86930  37.984   6.393   5.135
17116W        W86931  29.131  25.554   4.131
17117W        W86932  34.116  41.832   1.717
17118W        W86933  22.671  25.973   1.351
17119W        W86934  30.933  36.468   3.316
17120W        W86935  31.616   3.919   3.343
17121W        W86936  15.191  34.615   1.846
17122W        W86937  43.926  33.421  11.496
17123W        W86938  33.567   1.758   2.393
17124W        W86939   1.398  19.095   4.274
17125W        W86940  39.057  13.844   1.433
17126W        W86941  17.145  21.180  11.959
17127W        W86942   8.243  31.481   3.826
17128W        W86943   6.220  38.885  13.348
17129W        W86944   0.403  24.046  14.462
17130W        W86945   2.722  27.154   3.247
17131W        W86946  11.353   7.357   0.457
17132W        W86947  38.355  37.575  11.434
17133W        W86948   2.906  32.416   4.121
17134W        W86949  41.015  26.641  13.922
17135W        W86950  33.582  39.376  14.974
17136W        W86951  20.539  39.481  14.767
17137W        W86952  26.063   5.212   4.706
17138W        W86953  36.084  36.398   4.653
17139W        W86954  40.448  21.717   1.297
17140W        W86955  16.597  23.136   1.822
17141W        W86956  43.471  37.547   0.419
17142W        W86957  15.223  25.664  11.085
17143W        W86958  40.037   6.380  13.801
17144W        W86959  18.079   7.706   2.783
17145W        W86960  26.485  30.001   2.861
17146W        W86961  39.063  29.476   0.411
17147W        W86962  26.146  34.554  10.623
17148W        W86963  33.883   3.343  11.511
17149W        W86964  22.523  25.198  11.981
17150W        W86965  12.826  18.181   5.149
17151W        W86966   0.748  40.389  13.963
17152W        W86967  29.522  32.020  11.080
17153W        W86968   0.424  36.866   1.386
17154W        W86969   5.302  36.940  14.770
17155W        W86970  17.213  27.058   4.773
17156W        W86971  12.673  14.162   1.418
17157W        W86972  22.180  26.582  10.946
17158W        W86973  22.575  25.188  12.508
17159W        W86974   1.406  20.113   2.808
17160W        W86975  31.452  41.927  14.761
17161W        W86976  29.106   9.715   1.886
17162W        W86977  28.146   1.904   9.962
17163W        W86978  15.189  39.390  14.032
17164W        W86979   1.246  43.830  14.287
17165W        W86980  22.676   9.786  14.789
17166W        W86981  20.651  38.518   4.194
17167W        W86982  26.632   6.888   1.251
17168W        W86983  34.539  23.673  12.480
17169W        W86984  23.552  30.047  11.887
17170W        W86985  20.130   3.817  12.975
17171W        W86986   5.916  22.214   0.305
17172W        W86987   8.759  16.078  12.017
17173W        W86988  20.209  34.585   2.678
17174W        W86989   5.407  30.462   4.786
17175W        W86990  13.775  39.997  12.042
17176W        W86991  16.719  13.602   2.841
17177W        W86992   3.372   6.916   2.827
17178W        W86993  12.297  15.085   4.802
17179W        W86994  43.004  17.302  13.493
17180W        W86995  11.670  18.687   3.305
17181W        W86996   4.903  38.865   0.345
17182W        W86997  37.505   9.370   3.824
17183W        W86998  23.538  38.059   3.669
17184W        W86999  28.446  34.002  13.062
17185W        W87000   5.743  44.470  11.083
17186W        W87001  31.450   9.377   3.794
17187W        W87002  33.113  20.050  12.512
17188W        W87003  36.088  25.010  12.938
17189W        W87004  25.007  38.873  12.566
17190W        W87005   8.236  40.459   3.187
17191W        W87006  13.604   5.267   0.412
17192W        W87007  38.037   8.900  12.897
17193W        W87008  23.047  19.629   2.845
17194W        W87009   1.738  28.157   3.202
17195W        W87010  22.509  29.158   9.942
17196W        W87011  29.501  16.793   4.333
17197W        W87012  19.653  16.598   2.830
17198W        W87013  29.169  17.676   1.265
17199W        W87014  10.169  31.456  11.391
17200W        W87015  33.512  40.038  14.442
17201W        W87016  23.187  11.155   1.924
17202W        W87017  29.487   8.661  12.954
17203W        W87018   6.763  27.579   4.301
17204W        W87019   2.767  27.104   4.621
17205W        W87020  36.411  36.352  10.464
17206W        W87021   7.275   4.927  11.984
17207W        W87022  16.665  27.976   3.365
17208W        W87023   0.323   1.336  14.978
17209W        W87024  31.012  42.298  14.917
17210W        W87025  26.186  34.519  13.896
17211W        W87026   7.870  14.599  10.987
17212W        W87027  32.534  19.571   0.810
17213W        W87028  24.514  16.611   3.281
17214W        W87029  44.863  14.132   3.289
17215W        W87030  20.696  29.142  13.858
17216W        W87031  18.751   6.320   0.858
17217W        W87032  28.943  30.431  14.387
17218W        W87033  43.269  44.941   4.199
17219W        W87034  16.619  10.694   3.254
17220W        W87035  44.400  37.980   3.793
17221W        W87036   7.361  23.063  14.444
17222W        W87037  43.280  24.148  13.313
17223W        W87038  16.289  31.442  12.988
17224W        W87039  13.304  11.670   3.156
17225W        W87040  34.500  10.194   0.272
17226W        W87041   2.833  16.077  13.370
17227W        W87042  19.575  23.732  13.389
17228W        W87043  28.166  34.456  14.472
17229W        W87044  41.375  20.700   0.925
17230W        W87045  33.510   4.809   1.866
17231W        W87046  42.411  42.381   1.352
17232W        W87047  39.975  29.556   4.306
17233W        W87048  33.497  44.446  14.918
17234W        W87049   2.348  24.660  14.447
17235W        W87050  41.531  16.678  11.881
17236W        W87051  22.006  37.398  11.917
17237W        W87052   7.800  32.022  14.955
17238W        W87053   0.342   7.288  10.627
17239W        W87054  30.432  20.089   2.769
17240W        W87055   9.253   0.294   0.401
17241W        W87056   3.403  28.133  10.925
17242W        W87057  31.092   0.277   3.223
17243W        W87058  18.194   9.345  11.020
17244W        W87059  35.063  22.238   3.371
17245W        W87060   4.267  13.321  10.486
17246W        W87061  30.156  42.412  11.076
17247W        W87062  43.456  13.280  11.994
17248W        W87063   4.355  22.081  14.930
17249W        W87064   5.848  30.965  13.916
17250W        W87065  29.454  39.347   0.923
17251W        W87066  23.238   1.295   1.930
17252W        W87067   8.274   3.745  10.446
17253W        W87068  10.858   8.292  12.846
17254W        W87069   0.857  35.379  13.887
17255W        W87070  13.842  43.279  10.965
17256W        W87071  41.349   1.449   0.382
17257W        W87072  31.040  15.805   3.285
17258W        W87073   4.434  29.058   2.888
17259W        W87074  10.242  25.661  12.836
17260W        W87075   8.275  41.415  14.951
17261W        W87076   3.858  25.139  12.012
17262W        W87077   0.917  17.073  13.970
17263W        W87078   8.275  39.506  13.436
17264W        W87079  25.073  38.926   3.221
17265W        W87080  15.740  36.431   5.217
17266W        W87081  35.906   0.793  10.925
17267W        W87082   8.787  18.260  12.461
17268W        W87083  31.587  42.371  12.860
17269W        W87084  41.994  25.206  12.575
17270W        W87085  14.613   5.410  14.360
17271W        W87086  40.925  43.787  10.928
17272W        W87087  11.196  15.823   1.841
17273W        W87088   9.715  32.611  13.382
17274W        W87089   1.798  42.816  13.462
17275W        W87090   3.290  35.876   0.424
17276W        W87091  27.061  39.808   1.247
17277W        W87092  32.121  38.926   1.739
17278W        W87093  24.178   8.375   0.778
17279W        W87094  29.606  40.359  11.014
17280W        W87095   6.920   1.277  13.894
17281W        W87096  33.454   2.438  13.805
17282W        W87097   4.718  34.532  14.324
17283W        W87098   9.698   1.402   3.795
17284W        W87099   7.371  24.158  14.990
17285W        W87100  12.821  22.140  12.350
17286W        W87101  35.433  19.562   3.704
17287W        W87102   8.280  10.315   1.849
17288W        W87103  37.890  33.926  10.917
17289W        W87104  30.124  33.387   4.738
17290W        W87105   7.207  14.722  14.466
17291W        W87106   8.698   6.243  11.470
17292W        W87107  29.656  33.130  11.111
17293W        W87108  18.233  11.709   4.185
17294W        W87109  25.547   7.316   2.182
17295W        W87110  11.253  43.813   2.838
17296W        W87111  36.349  13.754  12.046
17297W        W87112  17.711  11.651   2.245
17298W        W87113  33.955  30.977  12.536
17299W        W87114  20.722  26.510  10.618
17300W        W87115  23.639  12.310  13.046
17301W        W87116   4.735  30.586   2.867
17302W        W87117  34.510   4.767  12.974
17303W        W87118  32.473  36.439   2.302
17304W        W87119  39.900  43.294  11.948
17305W        W87120   7.854  30.936  12.916
17306W        W87121  11.245  41.947  11.418
17307W        W87122  30.063  13.272  14.415
17308W        W87123  39.328  32.631   4.769
17309W        W87124  36.474  35.003  13.527
17310W        W87125  41.337   2.246  13.898
17311W        W87126  20.141  13.749  10.617
17312W        W87127  20.105  21.706  13.881
17313W        W87128  41.968   7.710  12.455
17314W        W87129  32.947  21.049  10.924
17315W        W87130   3.879  37.835   1.735
17316W        W87131  20.647  40.822  12.394
17317W        W87132  19.599  27.175   2.231
17318W        W87133  25.021  17.729  10.498
17319W        W87134  25.994  34.998  11.090
17320W        W87135   7.700  30.445  12.968
17321W        W87136   3.374  30.940   5.144
17322W        W87137  10.319  12.157   5.101
17323W        W87138  22.206  41.335   1.893
17324W        W87139   3.817  40.342   4.674
17325W        W87140   1.840  26.576  13.873
17326W        W87141  34.963   6.842  14.383
17327W        W87142  23.220  10.646  13.012
17328W        W87143  44.356  43.329  13.016
17329W        W87144  25.648  15.107  13.437
17330W        W87145  38.035   8.305  14.398
17331W        W87146  26.189   3.886   2.720
17332W        W87147  24.585  31.926   1.242
17333W        W87148  19.550  42.920   3.198
17334W        W87149  21.663  31.066  12.577
17335W        W87150  41.849  39.358   4.810
17336W        W87151  28.601  41.371  12.868
17337W        W87152  41.961  19.745   2.776
17338W        W87153  24.589  24.704  10.529
17339W        W87154  22.657  40.523   2.711
17340W        W87155   0.299  35.941  12.086
17341W        W87156  14.734   7.274   2.375
17342W        W87157  31.414  29.517  14.488
17343W        W87158  14.327  31.053  12.389
17344W        W87159  35.599   0.793   2.674
17345W        W87160  19.176   7.760  13.508
17346W        W87161  22.603  41.815   0.758
17347W        W87162   1.886   6.398   1.373
17348W        W87163  30.558  10.812   3.336
17349W        W87164  12.787   0.759  13.042
17350W        W87165  37.085   5.256   0.330
17351W        W87166   9.808  43.942   0.733
17352W        W87167  20.177  25.031  14.474
17353W        W87168   0.828  43.772   0.270
17354W        W87169  33.907   8.249   1.737
17355W        W87170  28.025  18.728   4.224
17356W        W87171  26.986  42.402  12.020
17357W        W87172   5.720  32.399   2.319
17358W        W87173   8.708  36.887  12.457
17359W        W87174  21.132  32.004   3.790
17360W        W87175  44.985  24.689   2.334
17361W        W87176  11.155  37.521   0.870
17362W        W87177  13.751  30.632  11.986
17363W        W87178  39.418  28.176  13.513
17364W        W87179  24.141  15.648   1.255
17365W        W87180   3.768  29.576  10.490
17366W        W87181  32.053  18.068   2.310
17367W        W87182  13.350  33.469  12.461
17368W        W87183  34.560  32.559  14.341
17369W        W87184  16.698  35.852  12.554
17370W        W87185  31.529  15.172   4.733
17371W        W87186   9.262  23.097   4.616
17372W        W87187  11.799  12.360  12.888
17373W        W87188  24.645  42.813  12.473
17374W        W87189  38.380  41.315   0.829
17375W        W87190  24.180  43.868   0.760
17376W        W87191  30.617  40.050   0.450
17377W        W87192  25.489  38.049  10.645
17378W        W87193  25.682  38.965   4.777
17379W        W87194   6.893  26.582   0.838
17380W        W87195   6.311  40.012  14.817
17381W        W87196  28.982  35.031  11.890
17382W        W87197  37.836  22.589  13.015
17383W        W87198   0.862  30.477   2.283
17384W        W87199  10.822   9.811  11.896
17385W        W87200  14.265  15.648   2.291
17386W        W87201  15.701  14.707   4.786
17387W        W87202  33.537  23.069   3.334
17388W        W87203  21.518   7.192  14.468
17389W        W87204  33.410  12.702   3.355
17390W        W87205  22.125  26.476   4.198
17391W        W87206   1.968  27.457   3.310
17392W        W87207  28.477   1.934  14.974
17393W        W87208  11.690  41.417   0.799
17394W        W87209  24.093   2.867  13.809
17395W        W87210  43.000  21.693   3.175
17396W        W87211  12.703  35.417   0.348
17397W        W87212  31.025  11.627   2.713
17398W        W87213  40.989  42.395   2.830
17399W        W87214  33.965  15.203  14.283
17400W        W87215   5.260  32.528  10.593
17401W        W87216   3.774  12.737   1.701
17402W        W87217  15.164  43.866  12.872
17403W        W87218   3.338  30.581  12.044
17404W        W87219  28.673  27.144   3.378
17405W        W87220  15.616  18.105  13.036
17406W        W87221  23.702  25.985  12.897
17407W        W87222   7.190  43.330  12.852
17408W        W87223   7.780  41.879   2.383
17409W        W87224  30.477  20.214   2.281
17410W        W87225  35.366   2.411  10.967
17411W        W87226   0.936  20.095   1.789
17412W        W87227  39.327  39.383   3.633
17413W        W87228  30.568   6.916   0.455
17414W        W87229  11.867  10.376   0.862
17415W        W87230   4.761   4.901  13.383
17416W        W87231  34.573  42.981  12.405
17417W        W87232  34.890   0.747   1.387
17418W        W87233  30.466  31.051   4.311
17419W        W87234   0.440  33.935   0.881
17420W        W87235  15.677  18.720  14.002
17421W        W87236  43.930   6.270  12.980
17422W        W87237   4.850   7.349   2.742
17423W        W87238  13.106  11.637  11.030
17424W        W87239   1.848  20.143   1.842
17425W        W87240  17.072  10.632  11.978
17426W        W87241  23.499  43.941   0.735
17427W        W87242  41.811  40.327   1.410
17428W        W87243   4.373  29.949   4.818
17429W        W87244  30.080  34.393   3.857
17430W        W87245  13.815  26.056  10.473
17431W        W87246  23.004  11.209  12.499
17432W        W87247   0.930  34.002  12.487
17433W        W87248   4.812  32.578   2.256
17434W        W87249  36.576  21.598   0.388
17435W        W87250  31.607   2.909  13.000
17436W        W87251  44.809  11.840  11.079
17437W        W87252   7.905  26.597  12.017
17438W        W87253  43.472  38.899  12.530
17439W        W87254  26.624   8.662  12.918
17440W        W87255  27.567  29.556   0.441
17441W        W87256  24.519  29.010   0.465
17442W        W87257  39.855   1.431  13.405
17443W        W87258  36.511  24.587  14.015
17444W        W87259  27.060  25.113   0.915
17445W        W87260  22.065  20.064   1.908
17446W        W87261  22.169  20.551   3.259
17447W        W87262   0.251  22.668   2.763
17448W        W87263  34.490  30.142   4.677
17449W        W87264  31.450   7.672  13.936
17450W        W87265   9.299  25.478   4.301
17451W        W87266   4.277  11.850  13.439
17452W        W87267   3.820   1.450  11.526
17453W        W87268  24.689  32.932   2.320
17454W        W87269  40.424  13.108  14.352
17455W        W87270  28.634  37.528   2.195
17456W        W87271  43.927   2.355  10.953
17457W        W87272  42.411  23.202  13.447
17458W        W87273  37.928  25.712  13.856
17459W        W87274  29.474  32.399  12.558
17460W        W87275   6.233  36.418  11.540
17461W        W87276   8.863   4.357   3.257
17462W        W87277  22.636  38.372   0.341
17463W        W87278  35.064   8.230  12.026
17464W        W87279  42.520  24.504  12.525
17465W        W87280  11.752  28.598  11.598
17466W        W87281   0.407   2.723  10.531
17467W        W87282  33.087   0.846   4.633
17468W        W87283   1.412  32.024  12.513
17469W        W87284  31.972  35.050   5.292
17470W        W87285  24.106  31.609  13.340
17471W        W87286  25.123  27.195   1.705
17472W        W87287   9.381  44.810   2.312
17473W        W87288  28.560  26.087   1.448
17474W        W87289  14.133  18.740  14.291
17475W        W87290   0.293  31.936   2.791
17476W        W87291  11.708  36.924   3.384
17477W        W87292  14.591  24.154  11.376
17478W        W87293  14.299  20.241   3.697
17479W        W87294  16.219   9.791   1.327
17480W        W87295  43.463  30.636   5.087
17481W        W87296  23.720  39.523  12.349
17482W        W87297  34.477  17.671  11.573
17483W        W87298  32.554  17.721   2.235
17484W        W87299  29.091  25.995  13.794
17485W        W87300  44.859  38.865   2.353
17486W        W87301   6.288  27.971   0.385
17487W        W87302  31.009  23.517   2.676
17488W        W87303   7.264  19.056   3.344
17489W        W87304  28.546  42.937   0.314
17490W        W87305  27.189  13.121   2.853
17491W        W87306   2.464  32.094  14.927
17492W        W87307  22.193  31.125  13.422
17493W        W87308   9.242   0.279  14.889
17494W        W87309  42.023  11.221  12.850
17495W        W87310  22.181   4.384   0.805
17496W        W87311  39.340   4.207  10.922
17497W        W87312  31.614   7.748   3.657
17498W        W87313  25.062  33.508   1.432
17499W        W87314   2.834  16.089   1.893
17500W        W87315  30.511   1.815   1.315
17501W        W87316  25.193   6.856   2.233
17502W        W87317  18.669   0.262   1.861
17503W        W87318   3.843  28.567  12.855
17504W        W87319  28.978  34.013  10.565
17505W        W87320  36.967  31.919   4.339
17506W        W87321  35.501   4.871  13.975
17507W        W87322  20.030  21.681   3.358
17508W        W87323  20.707  37.933  13.326
17509W        W87324  15.821  35.058   1.390
17510W        W87325  37.576  40.484  14.277
17511W        W87326  25.565  43.842   0.945
17512W        W87327  22.221  23.536   4.215
17513W        W87328   5.727  37.057   2.734
17514W        W87329  11.362   3.449   2.729
17515W        W87330  16.782  28.498   1.751
17516W        W87331  16.604  32.457   3.369
17517W        W87332  26.113  43.814   4.631
17518W        W87333  24.218  38.469  11.389
17519W        W87334  42.302  42.875  14.489
17520W        W87335  40.863   0.361   1.883
17521W        W87336   4.940  33.598   2.207
17522W        W87337   2.868  25.618  10.970
17523W        W87338  14.129  13.229   1.399
17524W        W87339  37.862  19.580   5.131
17525W        W87340  13.625  42.432   0.908
17526W        W87341  10.853  40.526   3.294
17527W        W87342  19.235  14.807   4.663
17528W        W87343  42.489   2.772   2.316
17529W        W87344   2.919  35.099  10.440
17530W        W87345  42.380  16.808   4.739
17531W        W87346   0.849   3.895   1.825
17532W        W87347  33.425  27.137   3.356
17533W        W87348  32.463  44.886  13.434
17534W        W87349  20.086  13.162   3.794
17535W        W87350  18.287  36.935  14.406
17536W        W87351   6.390  10.204   4.138
17537W        W87352   5.273  40.017  13.805
17538W        W87353  13.614  12.635   2.768
17539W        W87354   9.371  40.945   2.400
17540W        W87355  23.719  35.393  12.871
17541W        W87356  20.240  15.642  13.440
17542W        W87357  14.597  34.869  14.979
17543W        W87358   7.797  40.347  12.992
17544W        W87359  12.796  18.598   3.182
17545W        W87360  18.586  40.882  13.791
17546W        W87361  25.135  31.065  13.307
17547W        W87362  30.959  19.617   5.293
17548W        W87363   5.762   5.273  10.948
17549W        W87364   9.310  28.464  13.919
17550W        W87365  25.013  31.405   2.786
17551W        W87366   7.281  31.508   3.168
17552W        W87367  21.071   3.377   3.834
17553W        W87368  13.211   9.754  11.608
17554W        W87369   3.831  21.260  13.510
17555W        W87370   5.863  21.747   2.395
17556W        W87371  29.502   2.414  14.405
17557W        W87372  13.656  26.531  14.921
17558W        W87373  27.068  35.011  14.759
17559W        W87374  19.263  14.109  14.276
17560W        W87375  19.724  33.915   0.307
17561W        W87376  41.370  38.396   3.254
17562W        W87377  23.107  25.544  11.554
17563W        W87378   3.850  12.774   4.132
17564W        W87379  26.066  38.459   0.418
17565W        W87380  23.229   3.794   0.754
17566W        W87381  36.525   2.729   4.301
17567W        W87382   9.155  42.451   0.874
17568W        W87383  43.904  44.354   2.372
17569W        W87384  14.595   1.943  13.941
17570W        W87385  30.088  27.610  11.375
17571W        W87386  37.031  32.039   4.682
17572W        W87387  34.563  40.857  12.485
17573W        W87388  30.030  30.111  13.792
17574W        W87389   5.408  21.130  13.360
17575W        W87390  17.111  39.946  13.320
17576W        W87391   7.675  33.938   3.306
17577W        W87392  35.435  27.639   1.882
17578W        W87393  37.016  13.328  14.805
17579W        W87394  34.399  42.425   2.272
17580W        W87395  32.055  15.757   0.258
17581W        W87396  21.113   8.897  11.521
17582W        W87397   1.916  12.290   4.307
17583W        W87398  40.892  11.773   0.325
17584W        W87399  12.615  30.626   3.829
17585W        W87400  23.689  36.007   3.723
17586W        W87401  28.551   4.238  12.928
17587W        W87402   3.896  16.777   1.746
17588W        W87403  31.081   6.266  11.482
17589W        W87404  35.541  11.156   4.628
17590W        W87405  11.711   4.281   0.815
17591W        W87406  16.277  43.482  13.371
17592W        W87407  25.009  39.974  14.413
17593W        W87408  38.854  30.937   3.166
17594W        W87409   9.684   0.978   4.686
17595W        W87410   5.857   2.425   1.699
17596W        W87411  24.614  41.893  10.438
17597W        W87412  15.673  19.224   2.841
17598W        W87413  42.463   3.214  14.355
17599W        W87414  36.441   5.768  10.898
17600W        W87415  11.626   5.687   4.150
17601W        W87416  30.129  13.230  12.967
17602W        W87417  20.638  31.591   2.210
17603W        W87418   3.400  43.945   4.280
17604W        W87419  25.055  21.247   0.962
17605W        W87420  31.014  10.739  10.546
17606W        W87421   3.940  39.390   2.720
17607W        W87422  21.025  30.474  12.947
17608W        W87423   7.845  29.663   1.855
17609W        W87424   0.826  18.218  12.868
17610W        W87425  10.352  39.853   5.112
17611W        W87426  18.087  24.672   1.845
17612W        W87427  34.032  24.984   3.675
17613W        W87428  39.976   5.761  11.597
17614W        W87429  28.573  35.550   1.830
17615W        W87430  11.815  36.421  12.383
17616W        W87431   9.827  11.706  14.974
17617W        W87432   8.303  16.124  13.887
17618W        W87433   3.358  15.158  12.528
17619W        W87434  20.037  40.920   1.322
17620W        W87435  38.004  20.031  10.970
17621W        W87436  11.202  19.676  12.090
17622W        W87437  36.521  44.011   2.745
17623W        W87438  41.413  30.533   3.346
17624W        W87439   4.369  21.254  14.980
17625W        W87440  22.711   1.352  13.018
17626W        W87441  14.614  35.572  11.066
17627W        W87442   8.783  41.984  11.449
17628W        W87443  17.581  18.136  12.989
17629W        W87444  44.457  18.677   1.290
17630W        W87445  15.759   4.863   0.736
17631W        W87446   2.907  44.319  14.898
17632W        W87447  18.078  27.045   4.672
17633W        W87448  12.810  13.157   1.856
17634W        W87449   6.235  20.128  11.387
17635W        W87450  42.426  10.838   3.254
17636W        W87451  12.750   0.837   4.301
17637W        W87452  24.208  28.059   2.666
17638W        W87453  16.318  22.546  14.867
17639W        W87454  33.566  15.622  12.556
17640W        W87455  14.165  40.943  14.963
17641W        W87456   5.313  44.345   2.234
17642W        W87457  16.289  32.978   0.851
17643W        W87458  27.506   5.764  11.556
17644W        W87459  36.593  18.170   1.703
17645W        W87460  22.151  17.746   2.256
17646W        W87461  16.676  39.332   4.324
17647W        W87462  27.460   3.426  12.446
17648W        W87463  36.843  40.442   0.796
17649W        W87464   8.296  38.991   2.763
17650W        W87465  10.706  23.692   5.140
17651W        W87466  40.938  36.378   4.299
17652W        W87467  34.021  30.485   4.232
17653W        W87468   4.381  19.080  13.325
17654W        W87469  12.712   3.302   0.274
17655W        W87470   0.314   5.874  10.461
17656W        W87471  10.799   1.884  11.902
17657W        W87472  33.411  44.383  13.009
17658W        W87473  40.537   8.210  14.014
17659W        W87474  41.928  24.568  11.488
17660W        W87475  16.685  19.183  14.470
17661W        W87476  23.584   3.727   4.165
17662W        W87477  41.883  31.586  14.385
17663W        W87478  25.007   4.211  13.813
17664W        W87479   4.237  22.178   4.166
17665W        W87480  42.005   4.701  13.943
17666W        W87481  18.150  17.222  11.996
17667W        W87482  18.259  42.937  11.389
17668W        W87483   2.803  29.954  11.383
17669W        W87484   4.883   6.801   1.272
17670W        W87485  10.792  21.564   0.782
17671W        W87486  25.178  35.945  13.324
17672W        W87487  13.832  42.914   5.135
17673W        W87488   9.347  19.537   3.647
17674W        W87489  37.465  14.828  14.318
17675W        W87490   2.371   3.317  12.383
17676W        W87491  29.550   6.765  13.505
17677W        W87492  19.250  17.559  13.463
17678W        W87493  34.986  22.148   4.712
17679W        W87494  16.249   9.722   4.800
17680W        W87495  16.250  26.703   1.707
17681W        W87496   9.196  42.461   2.878
17682W        W87497   0.750  35.991  10.925
17683W        W87498  12.792  39.481   3.795
17684W        W87499  36.084   1.447  10.579
17685W        W87500   1.957  29.992   0.866
17686W        W87501   3.349  43.890  10.466
17687W        W87502  39.935  29.611  12.948
17688W        W87503  30.142   3.818   1.865
17689W        W87504   9.235  41.453   1.288
17690W        W87505  39.859  20.085  12.465
17691W        W87506  26.599  18.730   2.776
17692W        W87507   1.321  15.144   1.402
17693W        W87508  42.281  24.983  13.356
17694W        W87509  43.319  14.243  13.311
17695W        W87510   9.235   3.377   2.851
17696W        W87511  40.422   1.972  10.611
17697W        W87512  38.356  18.577  12.344
17698W        W87513   9.204  17.700  13.839
17699W        W87514   9.291   4.249  11.029
17700W        W87515   9.828   0.818   4.291
17701W        W87516  15.821  44.415  11.986
17702W        W87517  12.806  33.882   3.839
17703W        W87518  20.693  10.263   0.831
17704W        W87519   4.913   9.660  11.573
17705W        W87520  21.110  18.160  12.086
17706W        W87521   4.773   5.882   2.240
17707W        W87522  28.080  40.532  14.434
17708W        W87523  27.171   9.873   0.445
17709W        W87524  30.916  19.672  13.334
17710W        W87525  20.592   6.681  13.858
17711W        W87526   0.431  37.013  12.024
17712W        W87527  29.010   8.226  10.611
17713W        W87528   4.424   3.413  13.508
17714W        W87529  13.736   6.228   4.159
17715W        W87530  24.013   6.405  10.603
17716W        W87531  26.983  40.924   4.769
17717W        W87532  28.016  19.734  12.561
17718W        W87533  21.666  23.052  14.847
17719W        W87534  22.132   2.746  12.553
17720W        W87535   7.266   8.752  11.421
17721W        W87536  19.534  36.388  14.928
17722W        W87537  19.236  14.338   3.214
17723W        W87538  23.641   1.332  14.410
17724W        W87539   8.879   7.349   3.346
17725W        W87540   8.317   3.721  13.047
17726W        W87541  35.503  42.283  13.919
17727W        W87542  29.529  12.298   3.318
17728W        W87543  44.978  17.137   2.211
17729W        W87544  29.105  39.887   4.136
17730W        W87545  29.425  44.377  12.481
17731W        W87546  17.117  44.001  11.869
17732W        W87547  41.527  26.190  11.564
17733W        W87548   5.251  14.781  12.373
17734W        W87549  41.978  13.142  11.116
17735W        W87550   6.227  10.245   1.760
17736W        W87551  37.345  26.975   1.219
17737W        W87552  40.874   6.797   3.336
17738W        W87553  30.566  21.702   4.815
17739W        W87554   7.674  19.224   4.273
17740W        W87555   4.826  13.138   4.269
17741W        W87556  33.448  14.795   1.300
17742W        W87557  39.417  24.210  10.627
17743W        W87558   4.318  32.554  10.478
17744W        W87559   7.256  17.153  10.518
17745W        W87560  10.823   6.194  11.579
17746W        W87561  25.628  19.050   2.398
17747W        W87562   3.338  32.908  11.555
17748W        W87563  32.089  32.432   2.744
17749W        W87564  19.118  42.293   4.291
17750W        W87565   3.226   2.848   2.278
17751W        W87566  39.855   5.887   1.780
17752W        W87567  29.109  39.423   3.308
17753W        W87568  37.843  39.383  14.845
17754W        W87569   8.380  19.672   0.352
17755W        W87570  26.683  11.750   5.250
17756W        W87571   3.722  22.590  12.061
17757W        W87572   1.383  15.320   2.888
17758W        W87573  40.483   2.432   2.899
17759W        W87574  37.905  38.421  11.871
17760W        W87575  36.014  29.066  12.523
17761W        W87576  20.621  39.051   3.385
17762W        W87577   5.754  25.186   4.684
17763W        W87578  23.192  11.258   4.652
17764W        W87579   7.779  43.896  14.424
17765W        W87580  35.865  35.064  13.833
17766W        W87581  39.409  42.971  14.931
17767W        W87582  41.920   4.244  10.465
17768W        W87583   4.265   8.174   4.608
17769W        W87584  12.130  37.011   2.202
17770W        W87585  14.617   9.373   3.245
17771W        W87586  25.201   8.729  10.531
17772W        W87587  11.263  28.467   4.126
17773W        W87588   2.833  21.228   0.733
17774W        W87589  38.564  30.936  10.434
17775W        W87590  11.252   4.392  11.480
17776W        W87591   9.330  13.140   0.346
17777W        W87592  38.922   9.367  13.382
17778W        W87593  25.664  22.037  11.107
17779W        W87594  35.038  14.171  12.998
17780W        W87595  11.184  15.250   2.820
17781W        W87596   4.923  34.398   0.301
17782W        W87597  42.825  10.688  11.048
17783W        W87598   3.308  34.463   0.808
17784W        W87599   4.364  19.184   4.297
17785W        W87600  32.598  30.049   0.434
17786W        W87601  28.955  30.084   1.762
17787W        W87602  11.301  14.794   2.863
17788W        W87603  26.150  39.495  11.129
17789W        W87604  34.078   5.282   0.338
17790W        W87605  23.657  29.975   4.756
17791W        W87606  15.151  26.074  13.863
17792W        W87607   3.370   6.262   0.813
17793W        W87608  11.762   0.260   1.845
17794W        W87609  32.049  43.370   1.796
17795W        W87610   0.442  12.846   4.233
17796W        W87611   6.358  30.457  13.896
17797W        W87612  44.879  16.267   3.687
17798W        W87613  36.575  39.526   4.626
17799W        W87614   0.457  33.509  10.533
17800W        W87615  30.964  10.365  11.458
17801W        W87616  10.378   9.858   1.400
17802W        W87617  41.921   1.785  14.427
17803W        W87618  36.893  36.885   0.479
17804W        W87619   6.370  11.653   2.411
17805W        W87620  40.544   8.270   3.347
17806W        W87621  14.791   7.683   1.363
17807W        W87622  15.258  21.597   1.254
17808W        W87623  43.949  20.649   2.807
17809W        W87624  24.172   3.406  14.509
17810W        W87625   0.267  28.140  14.308
17811W        W87626  12.131  17.091  12.996
17812W        W87627  43.392  17.230   2.307
17813W        W87628  40.798  19.534   1.855
17814W        W87629  39.553   5.371  11.090
17815W        W87630  43.492   2.237  10.484
17816W        W87631  13.243  19.686   0.766
17817W        W87632  21.711   9.826  14.876
17818W        W87633  24.128  24.038  12.035
17819W        W87634  31.042  23.134  14.904
17820W        W87635  19.704  31.578   1.880
17821W        W87636  25.161   8.809  12.927
17822W        W87637  15.110  26.165  11.418
17823W        W87638   6.847  23.502  14.396
17824W        W87639  44.897  21.594  14.760
17825W        W87640  27.106   8.818   2.305
17826W        W87641  17.284  42.321  12.866
17827W        W87642  11.829  26.699   0.284
17828W        W87643  31.991  44.006   0.450
17829W        W87644   7.396   1.276  13.015
17830W        W87645  19.152   7.187   2.182
17831W        W87646   3.823   3.845   4.269
17832W        W87647  30.035  41.814   0.460
17833W        W87648  26.138   0.770   4.120
17834W        W87649  29.944  31.482  10.419
17835W        W87650  14.600  23.726  14.419
17836W        W87651  35.570  11.780   1.738
17837W        W87652  26.574  22.089  13.546
17838W        W87653  42.819  33.057  14.823
17839W        W87654   4.342  26.679   3.260
17840W        W87655  36.367  11.167  10.444
17841W        W87656  35.902  16.145   1.352
17842W        W87657  24.053   2.758   2.340
17843W        W87658  24.673  32.466  11.909
17844W        W87659  39.468  43.425  11.067
17845W        W87660   8.360  22.668   4.278
17846W        W87661  29.080  30.642   1.914
17847W        W87662  28.609  16.651   0.348
17848W        W87663  38.530  27.603   3.276
17849W        W87664  20.221   7.376   3.346
17850W        W87665   9.266  39.380  11.054
17851W        W87666  32.058  22.581  10.893
17852W        W87667   0.409   3.405  12.485
17853W        W87668  11.783   2.802   1.878
17854W        W87669  39.452  22.616  14.364
17855W        W87670  17.088  15.187   2.328
17856W        W87671  26.593   3.843  12.920
17857W        W87672  23.607  17.675  11.891
17858W        W87673  32.060   5.228  11.970
17859W        W87674  11.132  16.636   0.882
17860W        W87675   2.906  40.453   2.729
17861W        W87676  10.235  10.139  12.530
17862W        W87677  41.474  24.536   0.802
17863W        W87678   4.882  36.352   1.253
17864W        W87679  14.225  31.984  11.562
17865W        W87680   3.289  16.652  11.475
17866W        W87681   1.911  38.862  12.895
17867W        W87682  18.297   1.771  10.965
17868W        W87683   3.333   3.217   9.938
17869W        W87684   3.357  22.164  13.328
17870W        W87685   3.956  37.531  13.311
17871W        W87686  38.402  39.518  10.622
17872W        W87687  27.577   8.222   3.236
17873W        W87688  16.767  42.912   0.282
17874W        W87689  26.142  31.021  14.315
17875W        W87690  38.519  44.339   0.267
17876W        W87691  13.349  11.832  11.922
17877W        W87692  26.154  35.089   2.321
17878W        W87693  22.020  12.618   4.761
17879W        W87694   3.900  32.105   1.800
17880W        W87695  39.501  10.854  13.546
17881W        W87696   4.249  19.071   0.745
17882W        W87697  22.119  23.170   2.282
17883W        W87698   1.450  23.081   1.808
17884W        W87699  25.535  44.945  14.780
17885W        W87700  35.977  41.846   1.801
17886W        W87701  16.600  43.986  14.356
17887W        W87702  13.201   5.304   2.224
17888W        W87703  12.622   8.287   1.287
17889W        W87704   5.792  38.906  11.977
17890W        W87705  28.069   1.878   3.698
17891W        W87706  16.076  37.564   2.407
17892W        W87707  27.986  42.448  11.417
17893W        W87708  13.694   2.295   0.410
17894W        W87709  14.187  19.564   2.307
17895W        W87710  16.250   8.807   1.269
17896W        W87711  38.558  36.859   4.608
17897W        W87712  26.553  28.085   0.833
17898W        W87713  44.835  40.914   2.761
17899W        W87714  40.431  16.727   1.351
17900W        W87715   0.278   6.822   2.344
17901W        W87716  24.491  36.964  10.919
17902W        W87717  21.222  35.005  13.803
17903W        W87718   3.895  11.268  10.642
17904W        W87719  13.350  18.652  10.119
17905W        W87720  31.533  37.067  10.457
17906W        W87721  31.504   3.252  14.769
17907W        W87722  14.676  25.579   1.835
17908W        W87723  43.951   3.853   4.731
17909W        W87724  22.540  35.476   4.683
17910W        W87725   8.250  20.605  13.828
17911W        W87726  21.707  44.414   0.363
17912W        W87727  35.540  28.043  13.407
17913W        W87728   1.876  27.540   0.268
17914W        W87729  33.101  13.635  12.511
17915W        W87730  28.657  31.024  13.930
17916W        W87731  23.207  38.397  12.957
17917W        W87732  21.134  11.344  12.867
17918W        W87733  22.670  21.557  13.896
17919W        W87734  36.917  42.781   2.309
17920W        W87735   3.389  31.957  14.944
17921W        W87736  33.519   8.887   2.312
17922W        W87737   6.714  40.440  14.787
17923W        W87738  23.112  18.758  13.309
17924W        W87739   8.851  24.001   1.801
17925W        W87740  25.535  10.774  13.482
17926W        W87741   8.790  34.461   0.300
17927W        W87742  21.679  41.497  13.331
17928W        W87743  15.261  13.759   0.481
17929W        W87744   2.228   6.323   2.748
17930W        W87745  31.140  27.002   1.804
17931W        W87746  10.318  27.042  12.077
17932W        W87747  20.640  25.012   3.729
17933W        W87748   8.356  24.044  13.007
17934W        W87749  42.447  41.482   0.884
17935W        W87750  23.687  29.503  11.462
17936W        W87751   1.945  25.564  11.579
17937W        W87752  32.629   2.963  14.394
17938W        W87753  31.446  26.676   3.778
17939W        W87754  23.175  15.645   4.664
17940W        W87755  31.011   8.794   1.862
17941W        W87756   6.374  25.064  10.640
17942W        W87757  16.778   4.430  10.485
17943W        W87758  30.643  43.834  10.955
17944W        W87759   4.739  24.612  13.842
17945W        W87760  23.532  40.459   3.330
17946W        W87761  11.832  40.897   0.803
17947W        W87762  21.068  41.317   1.386
17948W        W87763  32.403  11.686   3.170
17949W        W87764  24.699   5.364  12.374
17950W        W87765   4.255  14.180   3.380
17951W        W87766  16.094  34.081  11.097
17952W        W87767   5.916  34.968  12.860
17953W        W87768  36.456  42.010   2.768
17954W        W87769   9.248  31.974  10.445
17955W        W87770   6.206   5.858  14.881
17956W        W87771  23.041  38.881  12.455
17957W        W87772   2.792  20.657  14.814
17958W        W87773  21.153  29.590  11.950
17959W        W87774   7.410  12.676   4.233
17960W        W87775   9.756  17.577   3.163
17961W        W87776  28.948  16.230   3.152
17962W        W87777   3.399  41.442  11.867
17963W        W87778  37.056  38.414  12.532
17964W        W87779  15.746  29.956  11.450
17965W        W87780   0.318  29.927   4.781
17966W        W87781   4.426   0.253  11.105
17967W        W87782  10.323  39.506   2.871
17968W        W87783  27.063  35.599  13.387
17969W        W87784  37.874  28.658  14.859
17970W        W87785  16.184   4.277   2.851
17971W        W87786   7.266  26.048   0.398
17972W        W87787  24.516   4.729  13.345
17973W        W87788  29.433  41.426   1.905
17974W        W87789  32.501  20.271   3.768
17975W        W87790  28.959  40.469   4.607
17976W        W87791  14.808  28.153   4.601
17977W        W87792   9.313  35.589  13.446
17978W        W87793   2.327  36.986  13.431
17979W        W87794  30.579  33.393  11.602
17980W        W87795  29.161  17.276   0.430
17981W        W87796   8.797  12.691   0.730
17982W        W87797  34.437  38.019  11.104
17983W        W87798  27.072  24.064  13.431
17984W        W87799  21.534  33.888   1.279
17985W        W87800  35.887  37.427   4.608
17986W        W87801   8.768   0.915   4.193
17987W        W87802  35.444  43.409  14.298
17988W        W87803  40.335  16.758   2.264
17989W        W87804   3.438  38.935  12.086
17990W        W87805  36.039  42.315  13.861
17991W        W87806  26.180  41.803   0.750
17992W        W87807  22.735   7.789  14.497
17993W        W87808   9.263  26.183   3.664
17994W        W87809   9.802  31.434   0.779
17995W        W87810  13.784  44.359  14.340
17996W        W87811   1.261   9.764   2.412
17997W        W87812  17.301  10.759   4.706
17998W        W87813  19.255  38.960   2.732
17999W        W87814  25.475  11.631  14.372
18000W        W87815  22.207  28.643   2.755
18001W        W87816   2.233  24.064  13.471
18002W        W87817  11.139  38.873  14.806
18003W        W87818  30.564  29.590   3.211
18004W        W87819  33.498  38.962  10.909
18005W        W87820  11.166  35.910   3.817
18006W        W87821   9.336   4.377   4.694
18007W        W87822  28.625  32.423  14.370
18008W        W87823  22.521  29.011   0.963
18009W        W87824  12.774  29.060   1.293
18010W        W87825  31.442  37.885   2.704
18011W        W87826  22.060   9.213  11.978
18012W        W87827  44.433  38.069   1.343
18013W        W87828  11.797  24.575   4.259
18014W        W87829  36.514  30.413   1.398
18015W        W87830  12.360  20.059  12.473
18016W        W87831  27.582  38.009   0.880
18017W        W87832  30.944  41.003  12.428
18018W        W87833  33.089  29.151  12.938
18019W        W87834  17.758  25.648  14.495
18020W        W87835  44.311  34.055   3.251
18021W        W87836  29.457  16.086  14.874
18022W        W87837  33.582  17.769   1.356
18023W        W87838  21.134  43.787  14.777
18024W        W87839  44.780  39.392   4.691
18025W        W87840   0.397  12.735   2.222
18026W        W87841  39.902  12.124   0.901
18027W        W87842  20.182  36.404   0.316
18028W        W87843  22.252  24.511  14.321
18029W        W87844   8.284  20.671  13.002
18030W        W87845   5.865  19.563  13.458
18031W        W87846   7.789  15.778  14.823
18032W        W87847  19.642  11.238   0.766
18033W        W87848  39.500  16.721   2.700
18034W        W87849  28.139  13.314   1.286
18035W        W87850  12.332  24.069   2.866
18036W        W87851  31.464  11.733  12.964
18037W        W87852  32.582   4.853   2.204
18038W        W87853  25.168   2.460   3.234
18039W        W87854  23.035   5.802  13.385
18040W        W87855  23.539   2.399  13.842
18041W        W87856  41.314  33.921   3.295
18042W        W87857  22.538  35.477  10.416
18043W        W87858  15.777   4.774   1.222
18044W        W87859  34.917  32.044   3.183
18045W        W87860  14.777  26.206   0.291
18046W        W87861  12.827  16.082  14.939
18047W        W87862  38.035  25.670  11.502
18048W        W87863  38.412  21.224   0.405
18049W        W87864  36.487  19.163  12.003
18050W        W87865  12.188  44.351   4.627
18051W        W87866  41.376  38.448  14.458
18052W        W87867  26.978  12.319   1.842
18053W        W87868  17.145  15.802  13.401
18054W        W87869  12.255  44.985  14.929
18055W        W87870   2.264  38.389   0.460
18056W        W87871  26.150  29.541  13.446
18057W        W87872  34.908  17.126   0.764
18058W        W87873  36.578  41.517  11.898
18059W        W87874  24.669   1.757   4.601
18060W        W87875  40.018  25.543   2.392
18061W        W87876  44.759  35.509  14.363
18062W        W87877  20.175  37.402  12.483
18063W        W87878   0.366  13.807   3.772
18064W        W87879   0.385  28.978   3.703
18065W        W87880   1.783  44.262   4.196
18066W        W87881  43.991  42.438   1.794
18067W        W87882  36.516  34.527  11.946
18068W        W87883  41.512  23.147   0.761
18069W        W87884  36.447   0.277   5.134
18070W        W87885  13.204  13.291   4.124
18071W        W87886  39.880  42.906  14.375
18072W        W87887  14.642   6.264   2.826
18073W        W87888  28.574  18.740  11.915
18074W        W87889  20.194  13.334  11.419
18075W        W87890  23.645  38.346  12.838
18076W        W87891   4.799   4.849  10.495
18077W        W87892  29.640   9.176   0.757
18078W        W87893   1.407  16.787  11.557
18079W        W87894  15.688  28.596   0.913
18080W        W87895   4.857  21.740  12.850
18081W        W87896  15.149  15.590  12.577
18082W        W87897   7.216  12.304  10.936
18083W        W87898  20.153  27.576   4.769
18084W        W87899  35.407  38.061   3.794
18085W        W87900  25.015  10.674  10.928
18086W        W87901  27.962  10.689   3.677
18087W        W87902  20.262   0.365  11.973
18088W        W87903  37.056  10.732   2.788
18089W        W87904   9.295  29.135  10.160
18090W        W87905  24.060  34.102   3.741
18091W        W87906  43.275  27.459   2.210
18092W        W87907  34.939  12.198  13.398
18093W        W87908  40.444  14.113   2.771
18094W        W87909  42.929  38.046   4.775
18095W        W87910  13.802  30.971   4.201
18096W        W87911  18.616  24.711  14.320
18097W        W87912  25.621  24.677  14.815
18098W        W87913  20.213   4.425   4.208
18099W        W87914  42.000  14.329  11.096
18100W        W87915  17.135  14.248   5.130
18101W        W87916   9.661  24.002  11.406
18102W        W87917   9.649  41.343  13.533
18103W        W87918  35.877   7.841   1.332
18104W        W87919  14.120  11.698   1.344
18105W        W87920  11.275   3.909   4.651
18106W        W87921  31.919  43.879   1.829
18107W        W87922  35.868   8.696   2.744
18108W        W87923  34.937  41.440   2.889
18109W        W87924   1.861  39.932   3.321
18110W        W87925  28.972  30.629   4.327
18111W        W87926   5.777  23.046  13.958
18112W        W87927  26.188  28.471  13.990
18113W        W87928  15.704   0.839   0.800
18114W        W87929  38.900  36.432  13.040
18115W        W87930  13.208  17.673  11.415
18116W        W87931  39.408   4.859   4.740
18117W        W87932  36.944  26.611  13.536
18118W        W87933   4.321  31.633  14.939
18119W        W87934  36.073  11.193  14.864
18120W        W87935  18.153  23.112   3.282
18121W        W87936   7.851  13.213  11.886
18122W        W87937   2.824  19.653   0.297
18123W        W87938  30.007   8.393   0.291
18124W        W87939  15.089  21.137  10.495
18125W        W87940  36.576  14.336   5.219
18126W        W87941  12.227   9.843   0.744
18127W        W87942   0.378  20.529  11.039
18128W        W87943  25.498  17.614   0.430
18129W        W87944  11.814  35.029  10.634
18130W        W87945  37.851  33.552   1.278
18131W        W87946   7.907   8.269   4.687
18132W        W87947   5.286   6.297  12.924
18133W        W87948   0.809  25.553  12.563
18134W        W87949   4.405  42.456   2.359
18135W        W87950  38.860   0.782  14.030
18136W        W87951  23.714  32.036   0.449
18137W        W87952  31.580  22.534   3.815
18138W        W87953  28.556   0.850   0.444
18139W        W87954  20.583  24.566  14.992
18140W        W87955  33.383   9.194  14.279
18141W        W87956  37.388  11.178   1.763
18142W        W87957  20.628  21.120  14.901
18143W        W87958  17.164  31.065   1.223
18144W        W87959  21.024  32.514   4.798
18145W        W87960  20.094  35.095   1.727
18146W        W87961  22.566  23.611   2.782
18147W        W87962  15.595   2.353   2.310
18148W        W87963  35.583  15.142  10.469
18149W        W87964  29.603  24.481  10.557
18150W        W87965  33.060  38.489  13.925
18151W        W87966  16.311  20.176   3.368
18152W        W87967  25.159   3.220   4.276
18153W        W87968  21.552  40.534  11.411
18154W        W87969   4.921  34.015   2.270
18155W        W87970  24.117   6.877  12.343
18156W        W87971  11.346  22.513   3.848
18157W        W87972  35.046  41.439  13.002
18158W        W87973   4.329  37.507  12.044
18159W        W87974  22.735  15.131   3.351
18160W        W87975  20.225   1.314  12.885
18161W        W87976  42.848  21.068  10.609
18162W        W87977  41.909  11.683  14.347
18163W        W87978  39.503  21.117   5.088
18164W        W87979   4.237   2.411  13.467
18165W        W87980  34.522   7.291   1.808
18166W        W87981  24.521  34.485  14.330
18167W        W87982   5.304  33.129   4.307
18168W        W87983  21.247  38.487   4.308
18169W        W87984  22.647  26.119   3.652
18170W        W87985  24.223  24.052   0.840
18171W        W87986  28.180   8.899  12.887
18172W        W87987  14.212  15.313  14.444
18173W        W87988  22.561   3.898   2.372
18174W        W87989  41.481  34.407  11.863
18175W        W87990  24.714  14.687  14.889
18176W        W87991  19.261  11.373  11.470
18177W        W87992  21.101  20.650   3.194
18178W        W87993  36.547  39.425   2.831
18179W        W87994   1.336  11.288   3.332
18180W        W87995  17.774   4.291  14.342
18181W        W87996  40.309   8.326   9.603
18182W        W87997  17.655   1.327  14.012
18183W        W87998  10.837  15.312   0.773
18184W        W87999  16.275  17.284   4.727
18185W        W88000  44.405  19.755  14.967
18186W        W88001   9.193  18.207   4.812
18187W        W88002  26.034  34.921  12.495
18188W        W88003  28.679  30.084  12.010
18189W        W88004  29.495  43.462   0.355
18190W        W88005  31.916  22.014  11.893
18191W        W88006  15.619  31.634   0.805
18192W        W88007  34.463  44.901   2.798
18193W        W88008  32.081  43.791  14.940
18194W        W88009  35.486  21.020   1.829
18195W        W88010  17.607  35.049   4.618
18196W        W88011  44.866   6.225   2.192
18197W        W88012  34.081  29.668  12.029
18198W        W88013   1.898  37.423   1.325
18199W        W88014  39.429   8.733   4.334
18200W        W88015   2.725  19.760   2.893
18201W        W88016   1.480  25.066   3.740
18202W        W88017   9.337  19.748  13.479
18203W        W88018  29.550   1.951   2.301
18204W        W88019   1.475   2.381   1.854
18205W        W88020   0.430  19.774  12.560
18206W        W88021  36.046  44.794   0.422
18207W        W88022  10.749  12.776   0.966
18208W        W88023   0.823   8.281  14.009
18209W        W88024   4.727  31.440   2.249
18210W        W88025  33.393  30.466   1.901
18211W        W88026  33.962  37.461  12.492
18212W        W88027  28.176  38.857  11.120
18213W        W88028  24.613  21.125   3.153
18214W        W88029  17.679  21.576   3.864
18215W        W88030  42.499  14.187   0.475
18216W        W88031  24.631   3.753  12.899
18217W        W88032  11.341  34.556   3.686
18218W        W88033   3.922  23.096   3.216
18219W        W88034   5.889  20.670   4.155
18220W        W88035  19.667  15.194   3.384
18221W        W88036  39.871  24.656   2.776
18222W        W88037  44.771  28.024   2.179
18223W        W88038  10.274  16.787  10.480
18224W        W88039  36.492  37.042  13.976
18225W        W88040   8.754  20.631  12.523
18226W        W88041  11.149  44.496   0.256
18227W        W88042  43.784  22.040   2.382
18228W        W88043  22.014  41.802  13.984
18229W        W88044  43.776  34.875  11.410
18230W        W88045  29.537  43.499   2.673
18231W        W88046  36.920   0.789  10.471
18232W        W88047  30.002  19.114   0.879
18233W        W88048  31.555  24.575  11.966
18234W        W88049  35.996  38.015   4.690
18235W        W88050  39.054  34.518  13.955
18236W        W88051  24.533  32.491   3.722
18237W        W88052  25.504  35.572  12.536
18238W        W88053  22.131  40.480  14.424
18239W        W88054   4.897  30.503  10.530
18240W        W88055   0.976   6.183  11.390
18241W        W88056  19.098  16.712  14.515
18242W        W88057  14.662   3.746   0.419
18243W        W88058  25.712   0.481   4.772
18244W        W88059  44.410  32.124  10.893
18245W        W88060  22.540   2.871  14.789
18246W        W88061  26.637   5.263  11.605
18247W        W88062  24.095  39.876   1.711
18248W        W88063  38.931  20.611  13.895
18249W        W88064  32.893   0.862   3.347
18250W        W88065   8.246   5.438  10.915
18251W        W88066   8.380  37.036  12.388
18252W        W88067  34.554  31.482   1.385
18253W        W88068  10.816  35.024   1.261
18254W        W88069   5.350  37.349  13.848
18255W        W88070  43.354  12.300   1.221
18256W        W88071  14.777  34.407   4.200
18257W        W88072   2.829  36.914   4.240
18258W        W88073  37.986  37.940  14.382
18259W        W88074  22.664  27.518  12.466
18260W        W88075  27.016  35.032  11.995
18261W        W88076  35.906  10.684   3.352
18262W        W88077  22.064  18.720  10.993
18263W        W88078  41.461  30.039   2.711
18264W        W88079  23.617   8.695   2.218
18265W        W88080  35.872  22.239   0.811
18266W        W88081  44.896  30.554   4.169
18267W        W88082  22.239  41.991   3.294
18268W        W88083  29.622  10.188  13.872
18269W        W88084  18.145  33.980   2.698
18270W        W88085   5.701  12.197   4.699
18271W        W88086   3.380  41.973  11.964
18272W        W88087  42.826   2.867   0.340
18273W        W88088  26.692  11.630  10.626
18274W        W88089   6.265  31.445  11.104
18275W        W88090  32.988  26.593  14.511
18276W        W88091   5.369  13.834  11.518
18277W        W88092   4.878  30.914  10.979
18278W        W88093  17.213   3.298   1.357
18279W        W88094  39.509  35.518   2.364
18280W        W88095  22.520   7.232   2.661
18281W        W88096  31.421  22.997  11.116
18282W        W88097  40.857  37.033  12.577
18283W        W88098  33.053  26.623  11.088
18284W        W88099  29.923  37.426   2.665
18285W        W88100  32.590  13.122  13.903
18286W        W88101   5.354  21.042   3.249
18287W        W88102  40.537  28.628   4.700
18288W        W88103  33.516   6.706  13.392
18289W        W88104  32.115  15.808  14.289
18290W        W88105  20.587  15.607  10.578
18291W        W88106  33.021   6.377   4.837
18292W        W88107  18.657   7.840   3.178
18293W        W88108   3.234  42.483   3.629
18294W        W88109  25.667  21.196   2.754
18295W        W88110  19.629  17.278   4.306
18296W        W88111  34.942  18.180   3.741
18297W        W88112  42.440  39.897   3.647
18298W        W88113   9.186  27.680  14.973
18299W        W88114  20.188  21.027   3.381
18300W        W88115  26.661  13.758   3.845
18301W        W88116  33.433  41.888  13.890
18302W        W88117  40.515  43.493  13.815
18303W        W88118  30.057  36.520  13.834
18304W        W88119  13.779  14.650  11.541
18305W        W88120  19.189   8.283  13.976
18306W        W88121  36.086  42.998  10.633
18307W        W88122  15.614  22.123  11.376
18308W        W88123   9.190  17.106  12.954
18309W        W88124  11.802  41.402  14.464
18310W        W88125  41.833  42.466  12.393
18311W        W88126  28.107   0.350   2.823
18312W        W88127  19.042  42.433   3.716
18313W        W88128  37.926  36.001   4.135
18314W        W88129  20.061   6.208  10.914
18315W        W88130   9.210  23.218   4.322
18316W        W88131  42.466  13.228   0.334
18317W        W88132  12.749  30.975   0.852
18318W        W88133  22.639  33.928   2.834
18319W        W88134  42.940   0.361  13.793
18320W        W88135  35.994  25.001  12.505
18321W        W88136  15.184  20.524  14.419
18322W        W88137  34.986   0.474   1.284
18323W        W88138  23.085   7.409   2.316
18324W        W88139  31.578  25.515   3.378
18325W        W88140  35.093  43.803   3.726
18326W        W88141  12.786  20.176  12.915
18327W        W88142  37.887  25.109  14.393
18328W        W88143   0.311   2.370   4.767
18329W        W88144  17.069  13.179  10.956
18330W        W88145  38.005  36.541  13.057
18331W        W88146   4.273  43.458  12.481
18332W        W88147  18.748   5.815   0.309
18333W        W88148  44.840  14.325   3.753
18334W        W88149   4.286  40.396  11.954
18335W        W88150  36.922   8.690   3.870
18336W        W88151  34.411  42.416  13.054
18337W        W88152  25.019  43.322   2.900
18338W        W88153   5.278  26.029   4.839
18339W        W88154  24.687  29.962   0.734
18340W        W88155  10.873   2.903   2.282
18341W        W88156   0.850  28.474  13.993
18342W        W88157   6.866  32.045  11.951
18343W        W88158   6.707  12.725  12.017
18344W        W88159   9.339  23.073   1.915
18345W        W88160  37.082  40.846  13.996
18346W        W88161   2.374  11.796  12.405
18347W        W88162  29.521  30.986   1.237
18348W        W88163  17.684   4.312   1.922
18349W        W88164  28.000   7.411   4.735
18350W        W88165   6.388  32.404  11.128
18351W        W88166  30.960   1.893  11.976
18352W        W88167   7.782  31.589   3.267
18353W        W88168   0.838  31.977   4.833
18354W        W88169  23.152  31.049  11.483
18355W        W88170  21.683  36.522   1.295
18356W        W88171  23.028  19.155  14.463
18357W        W88172   6.922   7.337   3.632
18358W        W88173  18.176  13.196  14.355
18359W        W88174  43.479  27.618   2.697
18360W        W88175  13.171  38.912   5.231
18361W        W88176  31.422  18.563   0.928
18362W        W88177  35.016  34.085  11.021
18363W        W88178   9.715   6.754   0.357
18364W        W88179   8.180  33.411   2.326
18365W        W88180  27.476   0.771   3.343
18366W        W88181  16.700  42.434  14.304
18367W        W88182  37.905  32.426  12.032
18368W        W88183  14.305   0.794  13.328
18369W        W88184   5.253  32.622   2.873
18370W        W88185  20.551  24.720  13.004
18371W        W88186  26.197  12.792  12.938
18372W        W88187  24.606  13.643  13.916
18373W        W88188  19.189  22.744  14.924
18374W        W88189  10.332  33.404  12.573
18375W        W88190  33.625  17.660  13.360
18376W        W88191  15.761  27.962   1.910
18377W        W88192  14.779  16.133  11.487
18378W        W88193  19.687   7.178   4.825
18379W        W88194   0.804  19.254   3.172
18380W        W88195  20.527  39.025  12.954
18381W        W88196  41.938   9.265   3.672
18382W        W88197  20.732  18.197  14.905
18383W        W88198  24.070  18.194  11.508
18384W        W88199  29.966  22.119  12.490
18385W        W88200  18.742  30.413   4.208
18386W        W88201  36.081   0.369   1.826
18387W        W88202   3.928   9.262  12.447
18388W        W88203  33.423  41.477  13.969
18389W        W88204  19.656   8.335   3.854
18390W        W88205  43.306   2.809  13.838
18391W        W88206   1.876  33.434  14.905
18392W        W88207  44.931  14.150   1.239
18393W        W88208   4.920  34.023  10.436
18394W        W88209  26.062   3.836  12.055
18395W        W88210  25.153  16.676   4.350
18396W        W88211   5.225  35.409   1.924
18397W        W88212  42.833  43.937   4.687
18398W        W88213   4.366  42.351   4.821
18399W        W88214  10.683   6.728   4.245
18400W        W88215  18.695   9.309   1.784
18401W        W88216  26.022  26.038  11.498
18402W        W88217  12.691  33.579  12.422
18403W        W88218   4.333  24.507   0.808
18404W        W88219  33.131   4.698  13.829
18405W        W88220   5.813  18.740  11.051
18406W        W88221  27.479  34.922   2.667
18407W        W88222   6.263  44.966   2.387
18408W        W88223  35.408  26.547   4.133
18409W        W88224   0.826  37.948   0.864
18410W        W88225  31.085  34.967   2.230
18411W        W88226  23.715  18.292  14.310
18412W        W88227   2.933   6.909  12.958
18413W        W88228  12.143  10.739  11.029
18414W        W88229  36.926  13.167   0.478
18415W        W88230  22.234  21.696  12.426
18416W        W88231  13.305  44.341  12.963
18417W        W88232   5.365  14.731   0.444
18418W        W88233  25.161  42.518  11.982
18419W        W88234  26.483   5.774  13.006
18420W        W88235   8.288  33.953   1.315
18421W        W88236  12.760  20.540   4.153
18422W        W88237  42.390  13.710   0.846
18423W        W88238   7.879  30.595   0.438
18424W        W88239  32.129   7.239  13.412
18425W        W88240  24.980  12.699   0.732
18426W        W88241  36.993  42.785   4.739
18427W        W88242   3.407  42.857   3.806
18428W        W88243  17.794  10.298  10.561
18429W        W88244   4.707  25.595   1.364
18430W        W88245   8.675  11.267   9.964
18431W        W88246  27.639   0.968  14.948
18432W        W88247  33.483  39.006  14.893
18433W        W88248   5.219  40.496   1.383
18434W        W88249  21.085  39.345   2.366
18435W        W88250   1.845  17.649  13.385
18436W        W88251  13.118  22.725   9.971
18437W        W88252  40.836  24.700   3.727
18438W        W88253  17.084  34.013   3.294
18439W        W88254  11.778  23.045   2.880
18440W        W88255   8.862   4.282   1.743
18441W        W88256  35.892  19.693  12.551
18442W        W88257  13.295  29.046   5.277
18443W        W88258  32.423  14.830  14.988
18444W        W88259  33.530  44.356  14.458
18445W        W88260  33.002  23.571  14.409
18446W        W88261  16.285   5.199   0.946
18447W        W88262  39.048  13.338  13.532
18448W        W88263  38.943   8.825   4.647
18449W        W88264  19.606   8.190  11.976
18450W        W88265  44.927  44.911  10.566
18451W        W88266  25.021  36.554   4.750
18452W        W88267  40.974  33.618   3.380
18453W        W88268   3.747  35.539  14.824
18454W        W88269  29.596  21.045  11.520
18455W        W88270  10.223   4.760   1.295
18456W        W88271  41.335   5.332  13.396
18457W        W88272  31.987   6.688  11.903
18458W        W88273  18.746  43.827  12.440
18459W        W88274  18.229   0.768   0.867
18460W        W88275  37.887  23.085  13.016
18461W        W88276  42.910  39.997  11.042
18462W        W88277  11.257   7.736   2.726
18463W        W88278  43.439  26.018  12.832
18464W        W88279  30.150  15.230  10.944
18465W        W88280  11.167  31.122   1.306
18466W        W88281  42.378  17.085  13.522
18467W        W88282  20.214  19.058   3.215
18468W        W88283   1.367  18.651  14.954
18469W        W88284  29.577  23.723   2.239
18470W        W88285   7.700  29.953  12.518
18471W        W88286  25.550  39.446  13.919
18472W        W88287  36.014  34.430  13.914
18473W        W88288   7.685  13.794  12.893
18474W        W88289  36.913   6.266   0.410
18475W        W88290  26.048   1.970   0.901
18476W        W88291  11.350  11.704  14.397
18477W        W88292  22.241   3.399  12.012
18478W        W88293  18.215  20.029   3.783
18479W        W88294  17.607  32.535   1.441
18480W        W88295  32.497   5.713  12.496
18481W        W88296  29.927  42.929   2.236
18482W        W88297  24.646  42.921   1.392
18483W        W88298  17.110  10.669   1.219
18484W        W88299  27.692   6.776   1.731
18485W        W88300  34.019   8.259  14.505
18486W        W88301  22.652   2.290  12.445
18487W        W88302  14.737   9.159  11.965
18488W        W88303  39.986  21.718  12.839
18489W        W88304  41.961  32.022   0.279
18490W        W88305  35.436  16.586  12.042
18491W        W88306  19.241  26.002   1.700
18492W        W88307  18.756  22.158  14.969
18493W        W88308  39.322  30.968   2.811
18494W        W88309  44.409  26.103  11.426
18495W        W88310   6.362  16.807  11.060
18496W        W88311  42.345  11.167  14.998
18497W        W88312  25.141  18.260  11.030
18498W        W88313  30.550  10.214  12.387
18499W        W88314  18.273  38.902  10.934
18500W        W88315  30.442  26.613   0.410
18501W        W88316  35.360  21.723   2.884
18502W        W88317  11.213  30.493   1.333
18503W        W88318  18.131  37.890   1.879
18504W        W88319  28.678   3.756  12.567
18505W        W88320  33.527   4.791   0.766
18506W        W88321  19.534  34.104  10.491
18507W        W88322  42.822   6.753  13.848
18508W        W88323  14.652   1.913   2.741
18509W        W88324  39.353  37.519   4.175
18510W        W88325  19.773   1.967   1.307
18511W        W88326  11.779  31.537   0.875
18512W        W88327   9.763  35.928  10.529
18513W        W88328  31.439  13.743  14.835
18514W        W88329  21.541   3.288  13.879
18515W        W88330  10.167   8.654   1.419
18516W        W88331  12.190   9.296  14.451
18517W        W88332  24.191  13.602  10.936
18518W        W88333  40.891   3.425   2.280
18519W        W88334   5.319   1.249  12.364
18520W        W88335  11.274  23.691   0.332
18521W        W88336   3.791  17.145   3.272
18522W        W88337  17.641   6.766   4.773
18523W        W88338  38.344  35.934   2.296
18524W        W88339   0.862  22.703   3.669
18525W        W88340  15.723   4.930  12.871
18526W        W88341  12.275  26.605  14.987
18527W        W88342  27.016  35.075   0.437
18528W        W88343  25.140  41.911   1.316
18529W        W88344   4.897  41.821   2.716
18530W        W88345   8.866  35.058  11.856
18531W        W88346  28.086  34.912   3.674
18532W        W88347   1.300  40.408  14.504
18533W        W88348  41.021  26.017   2.728
18534W        W88349  19.694  15.596  14.028
18535W        W88350  12.312  11.330  13.325
18536W        W88351  10.313  16.084  11.017
18537W        W88352  21.707  43.464  13.412
18538W        W88353   7.770   9.351  10.537
18539W        W88354  37.492   1.874  10.412
18540W        W88355  17.115  39.864   3.641
18541W        W88356   8.198  29.625  10.953
18542W        W88357  30.613  31.983  14.379
18543W        W88358  14.167  22.598   1.312
18544W        W88359  24.166  30.070  13.030
18545W        W88360  15.650  24.570   1.864
18546W        W88361  15.587  31.023   3.340
18547W        W88362  20.657  11.232   2.864
18548W        W88363  18.271  32.467   2.684
18549W        W88364  37.364  16.272  11.892
18550W        W88365   4.335  27.529   2.377
18551W        W88366  40.358  36.972   3.341
18552W        W88367   3.318  20.580   3.741
18553W        W88368  44.287   0.462   1.370
18554W        W88369  42.941  35.567   0.334
18555W        W88370  32.972  37.476  10.980
18556W        W88371  26.084  29.493  10.899
18557W        W88372  25.635  11.825   3.678
18558W        W88373  20.028  10.726  14.865
18559W        W88374  37.529  34.505  12.003
18560W        W88375  43.851   7.270  14.898
18561W        W88376  40.539  25.128  11.077
18562W        W88377  29.047  24.010  14.391
18563W        W88378  14.618  27.568  14.780
18564W        W88379  16.728   9.772   2.739
18565W        W88380  17.165   1.433  13.813
18566W        W88381  19.199  41.378  12.009
18567W        W88382  22.689  44.418   2.369
18568W        W88383   2.330   6.253  14.963
18569W        W88384  44.485   8.786  13.460
18570W        W88385  19.698  31.065   3.158
18571W        W88386  34.952  17.655   4.798
18572W        W88387  42.509   1.840   3.279
18573W        W88388  20.179  37.066   3.147
18574W        W88389  43.983  22.714  14.878
18575W        W88390  21.138   0.360  10.405
18576W        W88391   8.208  36.882  14.787
18577W        W88392  12.235  28.514  11.022
18578W        W88393  37.841  42.948  14.312
18579W        W88394  30.044  32.633  11.497
18580W        W88395  27.041  31.017   0.287
18581W        W88396   0.951  39.026   5.306
18582W        W88397  33.100   1.816   0.337
18583W        W88398  33.039  40.946  11.418
18584W        W88399   1.746  26.155   4.317
18585W        W88400  12.264  32.617   0.906
18586W        W88401  34.570  42.950  13.860
18587W        W88402  20.053   3.710  11.464
18588W        W88403  29.660  17.666   0.385
18589W        W88404  27.131   0.847   0.802
18590W        W88405  17.643   5.838   3.387
18591W        W88406  22.523  18.594   4.797
18592W        W88407  25.467  24.174  10.622
18593W        W88408  19.117  30.496  13.481
18594W        W88409  24.020  32.087  13.536
18595W        W88410  27.675  33.126  11.124
18596W        W88411  40.339  36.850  14.396
18597W        W88412  19.697  11.714   5.122
18598W        W88413  24.592  31.642  14.464
18599W        W88414  27.155  20.694  10.903
18600W        W88415  33.979   3.945  10.465
18601W        W88416  13.125  44.786   3.753
18602W        W88417  35.855  41.804   0.266
18603W        W88418  30.518  27.186  10.597
18604W        W88419  39.040  14.802   2.268
18605W        W88420  10.742  31.019  10.908
18606W        W88421  14.767  39.912  11.019
18607W        W88422  33.562  18.564   1.336
18608W        W88423  35.390   7.183  12.900
18609W        W88424  23.988   8.753  12.429
18610W        W88425   6.886  44.847  11.434
18611W        W88426  29.646  30.573   4.310
18612W        W88427  14.266   8.865  14.884
18613W        W88428  24.677  40.391  14.513
18614W        W88429  31.514  18.282  12.934
18615W        W88430   0.321   1.317  13.879
18616W        W88431  13.173  30.161   1.914
18617W        W88432  37.016  29.561  14.286
18618W        W88433  42.008  36.896   4.672
18619W        W88434  26.043  29.435  10.454
18620W        W88435  28.457  18.704  11.582
18621W        W88436  12.617  13.769  12.881
18622W        W88437  13.165  44.414   3.264
18623W        W88438  10.863   3.917  10.619
18624W        W88439  10.870   0.381  12.975
18625W        W88440  40.460  16.259   3.777
18626W        W88441  41.876  27.112  12.942
18627W        W88442   8.307  14.761   0.266
18628W        W88443  23.053   7.906   4.179
18629W        W88444  39.345  35.523   0.938
18630W        W88445  24.082  44.798   4.743
18631W        W88446   9.835  34.447  12.439
18632W        W88447  30.481  18.065   0.276
18633W        W88448  16.291  35.454   2.800
18634W        W88449   9.832  16.108  12.090
18635W        W88450  30.940  34.421   4.185
18636W        W88451  41.849  23.702   4.837
18637W        W88452  29.124  42.981   1.890
18638W        W88453  28.116   0.271   1.921
18639W        W88454  25.207  23.101  11.608
18640W        W88455  29.104  21.021  10.153
18641W        W88456   3.228   1.426  12.574
18642W        W88457  20.683  18.574  14.483
18643W        W88458  20.700   3.950  12.517
18644W        W88459   2.911  14.807   0.325
18645W        W88460  12.323   7.748  12.833
18646W        W88461  36.850  31.471  11.426
18647W        W88462  35.063   2.403   1.441
18648W        W88463   4.875  14.641   3.805
18649W        W88464  29.480  43.508   2.247
18650W        W88465  26.145  41.508   1.807
18651W        W88466  22.639  39.021   5.180
18652W        W88467  44.285  21.727  10.986
18653W        W88468  19.764  40.959   2.305
18654W        W88469  40.006  16.600  10.425
18655W        W88470  37.863  24.538   0.936
18656W        W88471   0.971   7.236   1.329
18657W        W88472  36.859  32.508   9.950
18658W        W88473  13.271  38.456   1.350
18659W        W88474  39.351  21.680  11.444
18660W        W88475  14.798  40.832  12.393
18661W        W88476  18.183  32.443  13.354
18662W        W88477  13.620  19.551  11.116
18663W        W88478  27.470  27.959  12.954
18664W        W88479  24.599  39.875  10.916
18665W        W88480  11.767  16.720  11.553
18666W        W88481   0.988  29.608  10.582
18667W        W88482  15.810  11.165   3.171
18668W        W88483  12.812  29.977   1.761
18669W        W88484   9.271   2.456  13.407
18670W        W88485   6.350  38.019   0.936
18671W        W88486  15.243  10.818  11.910
18672W        W88487  21.227  10.679   3.709
18673W        W88488   2.821  29.115   3.260
18674W        W88489   0.472  18.290  10.979
18675W        W88490  14.319  41.492   1.376
18676W        W88491  26.572  23.101   4.771
18677W        W88492  19.729  36.579  13.514
18678W        W88493  17.064  15.674  12.563
18679W        W88494  28.153   6.396  13.923
18680W        W88495   7.869  15.254   0.742
18681W        W88496  23.202  17.773   5.185
18682W        W88497  27.544  36.463   4.666
18683W        W88498   1.957   9.822   2.693
18684W        W88499  25.649  40.378   9.594
18685W        W88500   2.359  17.065  14.766
18686W        W88501  26.196  17.801  12.057
18687W        W88502  22.156  12.656  14.929
18688W        W88503  24.602  43.312  11.592
18689W        W88504   6.305  25.210   3.341
18690W        W88505  41.308  26.994  11.059
18691W        W88506  31.920  41.004   0.807
18692W        W88507  10.784  32.009   0.886
18693W        W88508   8.360  17.162   3.342
18694W        W88509  40.828  40.819   1.906
18695W        W88510  12.171  16.756   0.276
18696W        W88511  37.565  44.954  13.352
18697W        W88512  24.222   4.933  12.970
18698W        W88513  44.826  11.698  14.960
18699W        W88514  44.313  24.723   2.724
18700W        W88515   3.415  41.839  12.474
18701W        W88516  15.237  37.908   4.288
18702W        W88517  40.360  44.885   0.444
18703W        W88518  23.617  38.010   1.293
18704W        W88519  44.790  32.520   1.930
18705W        W88520  30.416  37.012   2.661
18706W        W88521  12.195  11.840  11.118
18707W        W88522  24.013  36.586   0.894
18708W        W88523   1.248  43.409   0.348
18709W        W88524  42.797   6.402  14.943
18710W        W88525  37.838   6.757  10.423
18711W        W88526  26.018  11.647   1.266
18712W        W88527  10.656  38.518   2.261
18713W        W88528  12.163  25.608  14.441
18714W        W88529  37.031   4.771  14.851
18715W        W88530  25.099   7.217   4.197
18716W        W88531  37.083  36.529  12.968
18717W        W88532  32.528  23.054  10.612
18718W        W88533  19.601  41.406   4.276
18719W        W88534  19.177  19.717  12.464
18720W        W88535  27.047   4.310   2.873
18721W        W88536  13.218  19.268  11.883
18722W        W88537  44.401  12.149   1.419
18723W        W88538   2.248  40.480   1.340
18724W        W88539  28.476  37.073   4.235
18725W        W88540   6.792  26.134   4.161
18726W        W88541  23.145   2.401  14.308
18727W        W88542  38.561  16.114   2.827
18728W        W88543  40.514   7.906  12.836
18729W        W88544  13.689   5.774   2.376
18730W        W88545  34.884   0.326  14.474
18731W        W88546  41.026  12.631   2.256
18732W        W88547  39.043  12.838  13.337
18733W        W88548   7.706   6.334   1.899
18734W        W88549  40.926  32.099  12.986
18735W        W88550  43.780  10.766   0.950
18736W        W88551  14.306  43.354   4.180
18737W        W88552  22.083  43.298  12.521
18738W        W88553  24.487   9.221  10.894
18739W        W88554  12.730  36.512  12.871
18740W        W88555  32.394   8.868  10.896
18741W        W88556   6.766  14.715  13.415
18742W        W88557  42.463   9.367  14.474
18743W        W88558   4.876   5.898   4.730
18744W        W88559  11.715  23.508  12.561
18745W        W88560  12.672  21.639  11.514
18746W        W88561   8.316  28.532   2.183
18747W        W88562  24.661   5.274  12.906
18748W        W88563  11.747   1.944   4.181
18749W        W88564  41.881   9.835  13.517
18750W        W88565   8.760   6.340   4.354
18751W        W88566  13.658  24.552   4.120
18752W        W88567  29.012  41.812  11.914
18753W        W88568  31.019  10.347  10.468
18754W        W88569  33.488   2.731   4.711
18755W        W88570  25.169  18.292   1.741
18756W        W88571  35.885  13.316   0.424
18757W        W88572   3.950  18.109  10.942
18758W        W88573  22.166  25.495  11.376
18759W        W88574  12.855  43.290   0.398
18760W        W88575  33.456  44.871  14.475
18761W        W88576   8.292  43.018   2.217
18762W        W88577  22.563  25.104  11.563
18763W        W88578  39.059  28.521  11.537
18764W        W88579  10.251  27.027   4.648
18765W        W88580  19.632   1.962  11.572
18766W        W88581  42.951  12.122  11.559
18767W        W88582  17.271  43.817  10.435
18768W        W88583  18.194  31.006   1.449
18769W        W88584  19.074   9.247   3.271
18770W        W88585   9.346  31.026  11.936
18771W        W88586  23.736  22.714   3.652
18772W        W88587  12.742   6.803   2.375
18773W        W88588  40.831  23.181   2.701
18774W        W88589   4.886  27.516  11.566
18775W        W88590  16.689  33.447  13.835
18776W        W88591  24.208  34.112  11.458
18777W        W88592  25.550  30.639   0.303
18778W        W88593  19.209   4.215   0.469
18779W        W88594  25.134  41.522   4.729
18780W        W88595  24.659  22.617  10.988
18781W        W88596   0.400  16.223   2.684
18782W        W88597  17.256  22.672   2.217
18783W        W88598  43.938  27.679   3.182
18784W        W88599  27.042  12.248  11.124
18785W        W88600  37.912  31.959  10.092
18786W        W88601   2.850   0.284   1.234
18787W        W88602   3.233  25.974  12.063
18788W        W88603   7.304  15.150   3.682
18789W        W88604   2.837  25.562   4.831
18790W        W88605  24.721  20.751   0.897
18791W        W88606  39.394  33.591   3.338
18792W        W88607  18.691  25.511  10.907
18793W        W88608   8.701  18.079  13.530
18794W        W88609  22.211  41.502  11.575
18795W        W88610   7.779  29.002  12.367
18796W        W88611   0.871  43.810   4.215
18797W        W88612  37.544  26.036   4.765
18798W        W88613  32.476  19.173   3.321
18799W        W88614  11.805  41.395  10.944
18800W        W88615  25.492  44.465  11.419
18801W        W88616  27.458  11.726   4.716
18802W        W88617  33.603  33.456  12.094
18803W        W88618  41.902  35.032   4.153
18804W        W88619  17.255   4.269  12.960
18805W        W88620   3.260   1.918   0.309
18806W        W88621  44.383  16.738  13.370
18807W        W88622  43.443  22.671   3.732
18808W        W88623  33.494  31.584  11.499
18809W        W88624   9.388   7.856  10.919
18810W        W88625  26.008  42.363  14.873
18811W        W88626   0.389  16.599  10.405
18812W        W88627  11.665  43.854   0.358
18813W        W88628  33.015   2.963  11.067
18814W        W88629  43.892  14.635   0.437
18815W        W88630  14.818  32.081   1.846
18816W        W88631  26.996  34.489   2.804
18817W        W88632   2.324  21.592  12.368
18818W        W88633   7.804   4.722  10.105
18819W        W88634  13.169  38.821   3.218
18820W        W88635  22.007  18.054  10.529
18821W        W88636  34.494   3.815   1.368
18822W        W88637  24.047  12.279  13.926
18823W        W88638  34.867  27.132   1.308
18824W        W88639  24.055  31.477   2.807
18825W        W88640   2.246  18.729   1.840
18826W        W88641  21.078  39.825  14.986
18827W        W88642  37.973  36.920   0.888
18828W        W88643  35.995   4.901   1.238
18829W        W88644  24.048  31.099  14.325
18830W        W88645  17.266   2.877   3.667
18831W        W88646  21.752  20.046   2.272
18832W        W88647  34.062  16.140  14.384
18833W        W88648  40.027  24.583   2.189
18834W        W88649  41.835   4.216   2.680
18835W        W88650  15.298  17.560   4.798
18836W        W88651  43.904   1.883   2.713
18837W        W88652  29.153  11.679  11.063
18838W        W88653   2.963  10.731   0.949
18839W        W88654  14.229  29.654   5.247
18840W        W88655  21.632  29.950  14.831
18841W        W88656  19.213  27.947   2.185
18842W        W88657  23.195  36.447  11.904
18843W        W88658   8.752  31.508  13.980
18844W        W88659   8.841  19.752  10.514
18845W        W88660   6.853   2.286   3.791
18846W        W88661  33.086  40.810   4.707
18847W        W88662  21.086  18.218   1.215
18848W        W88663  43.930  31.940  13.377
18849W        W88664  13.697   9.354  12.823
18850W        W88665  25.592  36.945   9.664
18851W        W88666  38.993  44.484  14.501
18852W        W88667  34.930  28.109   0.400
18853W        W88668  44.903   3.816  13.477
18854W        W88669  26.110   2.274   4.820
18855W        W88670  23.015  16.079  14.451
18856W        W88671  14.602   7.846  13.510
18857W        W88672  18.748  15.718   2.893
18858W        W88673  24.700   3.748   3.217
18859W        W88674  15.603   3.804   4.830
18860W        W88675  14.828  19.049   3.675
18861W        W88676  16.255  37.875   0.804
18862W        W88677   3.869  44.933   4.300
18863W        W88678   3.831  30.002   4.191
18864W        W88679  32.635   0.935  13.524
18865W        W88680  32.547  21.516   2.865
18866W        W88681   0.910   6.391  14.467
18867W        W88682  19.106  24.015  14.831
18868W        W88683  11.623  39.002  10.426
18869W        W88684   3.798  21.082  10.443
18870W        W88685  37.076  43.399  12.469
18871W        W88686   2.278  40.402   2.874
18872W        W88687   7.687  21.093   0.436
18873W        W88688  30.995   1.393  14.361
18874W        W88689   9.823  19.070  14.833
18875W        W88690   7.867  16.579   4.225
18876W        W88691  15.181  11.178  14.899
18877W        W88692   5.866  31.000   2.786
18878W        W88693  37.382  37.474  11.458
18879W        W88694  18.786   4.344   3.250
18880W        W88695   1.421  39.442  10.911
18881W        W88696  26.191  26.549   3.659
18882W        W88697  19.669  44.804  12.857
18883W        W88698  40.007  37.008  14.487
18884W        W88699  37.079  42.453  10.635
18885W        W88700  10.688  23.509   1.754
18886W        W88701  38.943  31.629  13.948
18887W        W88702  40.314   5.436  12.435
18888W        W88703  29.975  43.437  10.528
18889W        W88704  17.269  32.623  14.945
18890W        W88705  15.722  16.308  12.047
18891W        W88706   5.758  17.169   0.254
18892W        W88707  11.700   8.307   4.240
18893W        W88708  22.063  13.831  13.038
18894W        W88709  24.645  13.796  12.905
18895W        W88710  40.533   0.402  12.399
18896W        W88711  19.674  41.884  11.048
18897W        W88712  15.286   8.330  11.037
18898W        W88713   8.877   8.168   3.657
18899W        W88714  35.387  16.226   3.348
18900W        W88715  24.206   6.785  14.892
18901W        W88716  33.624   9.189   1.421
18902W        W88717  19.564  24.129   3.384
18903W        W88718   1.931   0.487  11.408
18904W        W88719  44.813  26.196  11.486
18905W        W88720  26.632  39.038  11.973
18906W        W88721  33.957   5.845  14.334
18907W        W88722  12.649  15.600  13.389
18908W        W88723  41.810   7.246   0.267
18909W        W88724   9.368  37.507   4.757
18910W        W88725  26.578  37.035  13.047
18911W        W88726  32.443  36.027   2.757
18912W        W88727   5.793   7.895   0.450
18913W        W88728  29.505  25.967   0.953
18914W        W88729  23.052  35.084  12.070
18915W        W88730  25.484  30.419   3.229
18916W        W88731  41.859   6.276   4.742
18917W        W88732  23.189  31.998  10.972
18918W        W88733  13.248   9.726  14.305
18919W        W88734   3.744  18.564  11.977
18920W        W88735  33.409   4.336  10.570
18921W        W88736   7.674   6.317  12.494
18922W        W88737   6.887  39.904  11.596
18923W        W88738  25.214  22.237  12.341
18924W        W88739  34.045  16.172  13.369
18925W        W88740  43.992  42.019   2.698
18926W        W88741  26.110   2.941  10.951
18927W        W88742  27.004  24.714   4.208
18928W        W88743   6.725  22.027   1.856
18929W        W88744  16.093  13.320   0.726
18930W        W88745  14.645   2.836  14.915
18931W        W88746  12.295  10.665  11.603
18932W        W88747  13.271  15.311  12.572
18933W        W88748   2.896  12.337  13.369
18934W        W88749   3.268  41.956  12.986
18935W        W88750   9.171  14.207  10.546
18936W        W88751  38.968  16.592   4.764
18937W        W88752  37.077   1.448  13.389
18938W        W88753  12.304   0.344  13.010
18939W        W88754  21.681   8.288  13.939
18940W        W88755  24.017  38.390   4.267
18941W        W88756   0.379  11.173  12.824
18942W        W88757  34.456  30.127   0.825
18943W        W88758  25.492  20.554  13.448
18944W        W88759  32.473  34.971   3.821
18945W        W88760  18.783   2.412   4.299
18946W        W88761  33.526  21.245   4.347
18947W        W88762  29.657   1.354  14.930
18948W        W88763  25.654  30.498  11.896
18949W        W88764  44.442  14.147  12.035
18950W        W88765  44.307  27.601   2.299
18951W        W88766   5.438  32.405   3.823
18952W        W88767  20.031  11.231   4.298
18953W        W88768  21.544  36.855   1.728
18954W        W88769  14.649  13.831   4.660
18955W        W88770  29.121   6.909  13.024
18956W        W88771   8.239  10.669  14.884
18957W        W88772  43.937  11.190   1.313
18958W        W88773  30.063  43.450  13.928
18959W        W88774  38.377  29.137   2.766
18960W        W88775  10.760  30.496  14.762
18961W        W88776  39.349  31.451   1.708
18962W        W88777  31.008  38.830   4.274
18963W        W88778  35.058  34.526  13.959
18964W        W88779   2.298   2.747  11.077
18965W        W88780  23.180  17.743  14.970
18966W        W88781  41.030  23.539   2.900
18967W        W88782   6.768  15.184  12.346
18968W        W88783  30.027  29.512  12.991
18969W        W88784  35.404  24.520   2.223
18970W        W88785  32.897  16.732  14.501
18971W        W88786  22.207  23.524  13.855
18972W        W88787  13.224   7.187   4.710
18973W        W88788  20.662  18.251  11.407
18974W        W88789  28.498  34.576  14.865
18975W        W88790  42.332  30.547   0.914
18976W        W88791  24.588   4.925   0.836
18977W        W88792  35.973  14.206  11.960
18978W        W88793  27.147  38.905  14.469
18979W        W88794  33.080  15.216  13.374
18980W        W88795  43.503  28.558  10.571
18981W        W88796  33.606  44.902   1.408
18982W        W88797  30.029   0.293  13.953
18983W        W88798  25.019  26.495  12.442
18984W        W88799  21.186  12.841  10.452
18985W        W88800  20.698   9.189  13.360
18986W        W88801  27.109  29.603  13.982
18987W        W88802  21.184   1.388   1.868
18988W        W88803  39.064   8.709  10.608
18989W        W88804  42.812   5.891  13.938
18990W        W88805  20.645   9.870  11.427
18991W        W88806   3.455  39.325   2.381
18992W        W88807  27.604   1.800   3.808
18993W        W88808  30.154  31.106  14.814
18994W        W88809   9.245   4.366  14.802
18995W        W88810  36.054  11.802  13.540
18996W        W88811  14.335   9.266   4.315
18997W        W88812  14.658   2.435  14.342
18998W        W88813  14.772  26.469  13.346
18999W        W88814  33.415   9.854  13.936
19000W        W88815  39.380   0.336  13.400
19001W        W88816  33.602   5.417   0.305
19002W        W88817  15.584   6.254  11.542
19003W        W88818   4.340   6.213   1.277
19004W        W88819  30.487   5.889   0.890
19005W        W88820  15.599  17.111  11.063
19006W        W88821  19.089  28.142  11.580
19007W        W88822  29.058   0.449   1.917
19008W        W88823   2.449  34.077   2.342
19009W        W88824  26.524  13.684   2.720
19010W        W88825  33.553  36.850  14.350
19011W        W88826   6.228  40.497  12.865
19012W        W88827  13.643  35.052  12.465
19013W        W88828  37.038  18.277   4.235
19014W        W88829  36.458  14.212  12.839
19015W        W88830  21.532  38.048   2.247
19016W        W88831  43.890  32.614  11.955
19017W        W88832   7.742   2.780  12.990
19018W        W88833  41.823  22.108  14.412
19019W        W88834  20.201  40.967  11.993
19020W        W88835   5.694   0.867  12.411
19021W        W88836  37.358  30.110   3.163
19022W        W88837  32.021  39.002  14.468
19023W        W88838  41.537   3.322  11.067
19024W        W88839  20.192  37.079  12.416
19025W        W88840  44.362  32.600  14.379
19026W        W88841   9.240   7.853   0.770
19027W        W88842  41.518   1.783  11.608
19028W        W88843   9.366  10.257  11.035
19029W        W88844   5.691  23.226   1.735
19030W        W88845  33.451  42.893  14.451
19031W        W88846   1.887   5.709  10.493
19032W        W88847  44.354  44.260   2.372
19033W        W88848  29.161   4.936  14.302
19034W        W88849  13.725  26.503  11.598
19035W        W88850  11.712  25.547   4.748
19036W        W88851  24.667  35.416  13.355
19037W        W88852  21.054   4.751   4.638
19038W        W88853  34.403   4.258   4.732
19039W        W88854   7.781  13.151  13.835
19040W        W88855  32.980  33.953  10.521
19041W        W88856  42.814   2.918  14.284
19042W        W88857   9.364  28.469   3.349
19043W        W88858  24.627  25.058   2.414
19044W        W88859  17.303  17.158   0.348
19045W        W88860  32.053  14.229   4.277
19046W        W88861   4.766  29.450  10.479
19047W        W88862  29.170   7.877   2.662
19048W        W88863  43.362  40.838  13.791
19049W        W88864   8.181  25.704   1.792
19050W        W88865  26.049  27.966  10.604
19051W        W88866  37.941  25.024   2.323
19052W        W88867   1.773  24.123   3.629
19053W        W88868   1.455   1.975  11.971
19054W        W88869  43.002  31.433   2.777
19055W        W88870  22.716  20.573  11.419
19056W        W88871  31.932  29.921  11.012
19057W        W88872  22.694  23.678   4.314
19058W        W88873  26.600   9.744   2.249
19059W        W88874  43.328   5.924  14.399
19060W        W88875  33.955  29.170   0.274
19061W        W88876   6.774  19.604   5.120
19062W        W88877   7.303   0.311  12.975
19063W        W88878  30.582  17.561  13.355
19064W        W88879  20.122  25.675   2.729
19065W        W88880   0.791  12.816   3.868
19066W        W88881  44.322  17.761  13.892
19067W        W88882  13.655  43.963  14.981
19068W        W88883   2.967  40.877   3.755
19069W        W88884  33.380   8.798   1.443
19070W        W88885   5.779  29.468  12.040
19071W        W88886   6.417  21.059   0.283
19072W        W88887  10.282  31.930  12.355
19073W        W88888  27.504   9.803   0.254
19074W        W88889  20.752  39.897  12.485
19075W        W88890  22.142  16.721   9.999
19076W        W88891  12.655  32.576  12.414
19077W        W88892  30.570  42.989  11.055
19078W        W88893   4.719  10.848  13.987
19079W        W88894  18.227   6.357   1.830
19080W        W88895  25.179  36.970  10.625
19081W        W88896  10.253  26.528  13.317
19082W        W88897  23.195  12.777   1.324
19083W        W88898  44.862  16.165  14.027
19084W        W88899  25.963  31.047  10.921
19085W        W88900  21.602  43.285   1.375
19086W        W88901   6.782  36.374  12.427
19087W        W88902  36.881  33.895  14.496
19088W        W88903   6.690  39.999   2.730
19089W        W88904  36.900  35.585   3.288
19090W        W88905  39.386   7.787  10.534
19091W        W88906  13.291  27.508  13.837
19092W        W88907   1.483  23.730  11.887
19093W        W88908  42.434  38.504  11.550
19094W        W88909   9.830   6.308   1.371
19095W        W88910  19.695  24.978  12.853
19096W        W88911   7.263   2.869   3.748
19097W        W88912  37.979  41.522  13.865
19098W        W88913  29.642  17.294  11.379
19099W        W88914  34.900  30.454  14.468
19100W        W88915  16.286   3.362   3.167
19101W        W88916  35.548  17.778   2.695
19102W        W88917   4.274  14.306   4.315
19103W        W88918  32.102   0.429   3.336
19104W        W88919  34.561  36.004  12.011
19105W        W88920   5.910  26.588  10.932
19106W        W88921  30.962  32.902   1.707
19107W        W88922  38.385   2.411   1.694
19108W        W88923  18.211   4.256  14.450
19109W        W88924  41.942  14.785  14.469
19110W        W88925  22.520  41.956   2.254
19111W        W88926  23.709  15.820   2.899
19112W        W88927  21.170   7.277   3.322
19113W        W88928  10.850  18.720  13.484
19114W        W88929   7.758   5.216  14.449
19115W        W88930   1.953  11.660   3.750
19116W        W88931  15.118  38.569  14.399
19117W        W88932   6.725  14.195  13.953
19118W        W88933   3.811  31.934  14.318
19119W        W88934   6.799   3.280  12.921
19120W        W88935  11.167  21.209  11.568
19121W        W88936  24.568  36.374   1.897
19122W        W88937  31.034  41.449  14.505
19123W        W88938  21.095  30.946   1.429
19124W        W88939  41.516  23.169  12.375
19125W        W88940   3.798  15.095   3.790
19126W        W88941  27.636   9.866   0.917
19127W        W88942  14.682  14.601  14.848
19128W        W88943  44.859   7.414  13.387
19129W        W88944   2.830  32.091  12.919
19130W        W88945   2.815   0.961   1.788
19131W        W88946  18.062  20.724  13.830
19132W        W88947  18.078  18.636  11.075
19133W        W88948  18.117  30.602  14.450
19134W        W88949  29.617  27.471  13.454
19135W        W88950  36.360  16.611   2.792
19136W        W88951  23.985  42.927   0.363
19137W        W88952  36.098  20.262   3.717
19138W        W88953   7.381  35.911   0.921
19139W        W88954  31.902  25.038   2.267
19140W        W88955  32.107  42.356  12.435
19141W        W88956   6.876  12.255  14.389
19142W        W88957   3.891  24.117  12.081
19143W        W88958  34.908  12.650  12.010
19144W        W88959  40.858  44.994  10.960
19145W        W88960   7.357   7.269  13.468
19146W        W88961   3.821  41.537  11.882
19147W        W88962  35.870   5.288   4.201
19148W        W88963  43.004   0.297  14.871
19149W        W88964  34.600   2.336  13.838
19150W        W88965  36.084   9.883  13.475
19151W        W88966  36.861  30.509  12.995
19152W        W88967  24.533  43.816  12.399
19153W        W88968  36.394  40.994  12.453
19154W        W88969  41.503  43.803  13.855
19155W        W88970   2.871  26.605  14.495
19156W        W88971  19.146  31.963   0.802
19157W        W88972  34.912  42.023  12.921
19158W        W88973   6.729  42.521  12.473
19159W        W88974   6.330  43.908   1.447
19160W        W88975  13.820  28.021   2.387
19161W        W88976  30.603  20.537  12.979
19162W        W88977  28.624   4.878   4.723
19163W        W88978  25.005  42.813   2.209
19164W        W88979  33.527  29.134   2.186
19165W        W88980  11.736   8.673  10.428
19166W        W88981   6.350  21.622  14.027
19167W        W88982  24.111  10.344  13.040
19168W        W88983  24.129  38.901   1.366
19169W        W88984  15.317  23.028   4.711
19170W        W88985   9.370  31.137   4.605
19171W        W88986  38.329   3.351   3.665
19172W        W88987  36.076  14.180  14.857
19173W        W88988  17.689  40.506   3.365
19174W        W88989  27.940   6.709  12.415
19175W        W88990  18.670  39.037  11.506
19176W        W88991  28.487  17.649  11.125
19177W        W88992  29.927  23.596   3.707
19178W        W88993  44.905  26.985  13.822
19179W        W88994  32.122  27.187  13.451
19180W        W88995  21.570  15.670   1.352
19181W        W88996  27.690  27.178   3.634
19182W        W88997  30.451   3.895   4.824
19183W        W88998  31.482   5.706  14.876
19184W        W88999  29.539  21.726   4.321
19185W        W89000  20.714  24.068   1.290
19186W        W89001  37.884   0.491   5.276
19187W        W89002  38.469  33.929  14.831
19188W        W89003  25.967   0.943  12.457
19189W        W89004  12.186  43.446   2.755
19190W        W89005   1.878   7.251  10.623
19191W        W89006  13.647  37.535  11.919
19192W        W89007  23.022  17.652  10.569
19193W        W89008  12.673  28.138  14.859
19194W        W89009   0.819  41.470  11.077
19195W        W89010  18.773  32.989  12.061
19196W        W89011  14.772   9.711  10.535
19197W        W89012  28.596  28.522   3.837
19198W        W89013  40.005   5.925   3.644
19199W        W89014  27.006  41.905  12.835
19200W        W89015  18.734   4.893   1.857
19201W        W89016  28.540  28.187  13.493
19202W        W89017  20.575  36.099   1.931
19203W        W89018  27.179   8.247   2.279
19204W        W89019  24.103  30.971  12.969
19205W        W89020   5.409  17.144  14.901
19206W        W89021  19.550  14.794   0.785
19207W        W89022   1.763  25.061  12.371
19208W        W89023  38.990  36.095  11.951
19209W        W89024  16.142  12.247  11.532
19210W        W89025  12.267  17.633  14.991
19211W        W89026  10.182  16.189   1.710
19212W        W89027   0.333  18.215  12.432
19213W        W89028   0.250   4.807   0.361
19214W        W89029  19.090  20.117  13.804
19215W        W89030  39.502  17.673  11.453
19216W        W89031   3.289   2.807  12.364
19217W        W89032  33.121  21.712   3.193
19218W        W89033  12.356  12.262   4.609
19219W        W89034  24.988  24.588  12.840
19220W        W89035   0.800  22.195   1.917
19221W        W89036   7.201  42.361   3.254
19222W        W89037  37.075  38.896  13.999
19223W        W89038  23.603  11.338   0.741
19224W        W89039  44.499  21.534  12.915
19225W        W89040  33.006  24.196  14.372
19226W        W89041  41.424  25.561   0.833
19227W        W89042   2.869  22.579   4.825
19228W        W89043  43.451  18.704  14.013
19229W        W89044  42.330  39.546   0.294
19230W        W89045  25.554  14.666  12.899
19231W        W89046  30.451  35.935   2.799
19232W        W89047  42.828   3.360   1.292
19233W        W89048  35.527  35.370  14.829
19234W        W89049  37.038   8.330  12.408
19235W        W89050  40.002  35.465   4.815
19236W        W89051  28.571  13.671  10.480
19237W        W89052  29.656  31.584  14.334
19238W        W89053   4.239  10.211   1.438
19239W        W89054  36.888  15.810   5.232
19240W        W89055  32.470  13.343  11.113
19241W        W89056  35.437  37.356   0.965
19242W        W89057  16.136  12.725   3.250
19243W        W89058  36.911  37.421  10.147
19244W        W89059  30.083  18.288   0.266
19245W        W89060  28.496  15.157   3.344
19246W        W89061   7.332   4.825  12.446
19247W        W89062  21.693  20.033  14.459
19248W        W89063  37.545   1.801  11.580
19249W        W89064  29.607  19.280  13.987
19250W        W89065  15.795  15.251   1.788
19251W        W89066   1.927  12.835  14.012
19252W        W89067   0.424  37.984  12.087
19253W        W89068  22.100  29.621  10.417
19254W        W89069  44.892  16.637  10.499
19255W        W89070  26.681   8.271   0.394
19256W        W89071   7.401  43.015   3.748
19257W        W89072  22.012  39.345   2.734
19258W        W89073  18.674   7.275   4.170
19259W        W89074   9.783  12.612   2.369
19260W        W89075  32.971  35.584   1.810
19261W        W89076  24.607  32.980   0.449
19262W        W89077  16.585   5.380  14.299
19263W        W89078  44.402  21.562  14.798
19264W        W89079  39.976  29.589   1.856
19265W        W89080  38.409  41.359  14.400
19266W        W89081  16.302  44.876  12.963
19267W        W89082   4.215  21.534   0.741
19268W        W89083  13.257  15.170  14.915
19269W        W89084  34.944  13.299   1.329
19270W        W89085  39.945  23.526  14.981
19271W        W89086  23.675  43.962  14.421
19272W        W89087  41.319   8.292   0.736
19273W        W89088  17.582  43.019   0.733
19274W        W89089  30.084   5.732  14.513
19275W        W89090  41.377  18.052  11.572
19276W        W89091   3.342  40.019  11.861
19277W        W89092  27.566  19.649  14.030
19278W        W89093  38.002  40.537  12.540
19279W        W89094  38.012  17.265   4.835
19280W        W89095  13.189  24.210   4.169
19281W        W89096   2.837  13.231   0.933
19282W        W89097  37.869  14.612  11.473
19283W        W89098  26.628  38.455   3.169
19284W        W89099  35.478  12.172   1.372
19285W        W89100  18.194  22.107   0.338
19286W        W89101  19.093  44.286   2.886
19287W        W89102  35.375  18.564  10.529
19288W        W89103   3.249  41.448   1.833
19289W        W89104  17.725  16.163  11.859
19290W        W89105  24.478  39.473   0.468
19291W        W89106  36.449  36.435   1.911
19292W        W89107  43.823  20.183  12.024
19293W        W89108   1.904  31.015   1.795
19294W        W89109   2.450   9.177   0.735
19295W        W89110  19.665  21.055  11.372
19296W        W89111  20.684  15.799  12.422
19297W        W89112   2.463  36.452   2.731
19298W        W89113  41.387  19.180   3.268
19299W        W89114  22.107  44.956  11.496
19300W        W89115  12.848  44.443   2.299
19301W        W89116  30.657  35.859   1.346
19302W        W89117   4.337  17.112  10.468
19303W        W89118  11.678   5.229  12.395
19304W        W89119  37.445  36.539  12.561
19305W        W89120   1.474  32.546   2.277
19306W        W89121  20.579  44.312  14.967
19307W        W89122   1.879  19.136   1.906
19308W        W89123   7.326   3.260  14.388
19309W        W89124  17.793  32.559  10.457
19310W        W89125  11.723   4.774   0.261
19311W        W89126  32.022  12.790  10.409
19312W        W89127  35.032  18.256  13.485
19313W        W89128   1.375  12.154   4.832
19314W        W89129  30.978  11.752  14.467
19315W        W89130  12.686  44.322  14.825
19316W        W89131  28.163  10.822   2.353
19317W        W89132  43.827  13.737  12.848
19318W        W89133  36.518  28.580  12.985
19319W        W89134  27.454  44.889  12.057
19320W        W89135  44.269  26.678   2.729
19321W        W89136  35.483  11.238  14.970
19322W        W89137  24.181  29.011  12.904
19323W        W89138   2.435   7.361   1.711
19324W        W89139  41.340   0.947  14.342
19325W        W89140   1.251   5.396  11.965
19326W        W89141   5.273  37.548  11.885
19327W        W89142  44.794  20.170   4.718
19328W        W89143  20.058  34.880   0.431
19329W        W89144  31.145  30.914   4.801
19330W        W89145   7.350  27.596   3.695
19331W        W89146  28.964  32.560   3.757
19332W        W89147  18.145   4.741  14.804
19333W        W89148  43.491  43.017  10.527
19334W        W89149  28.082  26.133   2.207
19335W        W89150  34.075  32.074  11.601
19336W        W89151  18.052  30.026   1.379
19337W        W89152  37.543   0.449   3.355
19338W        W89153   7.721   7.709   4.119
19339W        W89154  37.411  17.271   2.787
19340W        W89155   3.845   3.432   0.407
19341W        W89156  13.758   8.812  13.801
19342W        W89157  35.863  28.931   4.205
19343W        W89158   7.725  42.389   1.918
19344W        W89159  41.008  16.254   4.219
19345W        W89160  40.497   4.324   2.667
19346W        W89161   3.441  15.303   2.903
19347W        W89162  26.641   1.367   2.727
19348W        W89163  28.613   3.748   2.714
19349W        W89164  24.201  13.705   4.353
19350W        W89165   4.819  27.115   0.414
19351W        W89166  12.642  31.560  11.003
19352W        W89167  42.522   0.299  12.388
19353W        W89168  38.901  27.453  13.823
19354W        W89169  26.636  32.092  14.411
19355W        W89170  11.666  41.333   3.301
19356W        W89171  25.682  13.603  11.371
19357W        W89172   6.771  24.071  12.487
19358W        W89173  35.877  13.217   1.219
19359W        W89174  31.058  41.356   2.320
19360W        W89175  26.694  26.087  11.886
19361W        W89176   9.819  31.084   3.784
19362W        W89177  43.379  15.801  12.902
19363W        W89178   2.898   0.910   0.769
19364W        W89179   8.748  22.618  10.977
19365W        W89180  12.161   4.219  11.995
19366W        W89181  11.626  41.513  10.641
19367W        W89182  33.393  22.653  11.522
19368W        W89183   0.834  23.603  11.450
19369W        W89184  29.932  39.534   3.777
19370W        W89185  37.939  18.143   1.806
19371W        W89186  11.639  32.012   4.720
19372W        W89187  17.567  10.185   3.682
19373W        W89188  43.489  15.195  10.484
19374W        W89189   6.722  26.203  13.890
19375W        W89190  20.522  43.839   0.753
19376W        W89191  24.064  41.895  13.886
19377W        W89192  23.505   7.777  12.513
19378W        W89193  21.085  44.802  13.949
19379W        W89194  22.540   6.313   1.750
19380W        W89195  34.079   4.864   1.423
19381W        W89196  26.969  41.356  11.956
19382W        W89197  12.667   6.895  13.827
19383W        W89198   8.702  11.141  11.866
19384W        W89199   3.413  24.171   4.327
19385W        W89200  31.014  41.879   1.787
19386W        W89201  22.643  41.439  10.000
19387W        W89202   0.358  23.206   3.684
19388W        W89203  29.481  23.613  12.937
19389W        W89204   8.865  19.593  14.300
19390W        W89205  23.034  22.675  10.511
19391W        W89206   5.850  15.584  11.444
19392W        W89207  28.478  17.133   0.908
19393W        W89208  18.760   4.724  14.783
19394W        W89209  15.579   3.898   1.294
19395W        W89210  16.800  34.490  10.969
19396W        W89211  19.265  36.499  14.489
19397W        W89212  13.713  34.878  11.382
19398W        W89213  32.026  14.827  11.006
19399W        W89214   2.296  37.019   3.764
19400W        W89215   4.919  25.103  10.593
19401W        W89216   5.287  23.135  14.455
19402W        W89217  38.346  32.920   4.805
19403W        W89218   9.392  31.483   2.774
19404W        W89219  31.516  11.780  11.514
19405W        W89220  39.406  40.798   3.838
19406W        W89221  25.678  44.002   4.800
19407W        W89222  27.548  27.643   4.805
19408W        W89223  23.501  10.163   1.387
19409W        W89224  42.307  10.358  12.369
19410W        W89225  29.497  29.943  11.588
19411W        W89226  29.141  37.556   0.857
19412W        W89227   7.188   3.268   3.833
19413W        W89228  40.826  39.837   1.783
19414W        W89229  33.128  21.562  14.352
19415W        W89230   1.956  25.163   2.898
19416W        W89231   7.723  18.262  12.479
19417W        W89232  26.676  13.599  13.858
19418W        W89233  15.182  30.556   2.219
19419W        W89234  21.715  26.498  13.351
19420W        W89235  23.076   4.880  11.929
19421W        W89236  34.972  22.557  13.458
19422W        W89237  40.491   7.813   2.731
19423W        W89238  13.259  41.448  12.535
19424W        W89239  20.530  20.185   1.917
19425W        W89240  39.468  25.962  13.954
19426W        W89241   3.764  12.819   0.919
19427W        W89242  13.189  28.681   1.368
19428W        W89243   9.654   3.709  11.972
19429W        W89244   2.471  15.175  13.483
19430W        W89245   7.894  34.557   2.815
19431W        W89246  12.760  12.340   2.252
19432W        W89247   8.726  19.753  13.919
19433W        W89248  33.476  26.652  10.521
19434W        W89249  17.155  41.905  13.352
19435W        W89250  12.709   3.751   3.328
19436W        W89251   3.741  26.602  14.874
19437W        W89252  20.682  42.787  12.091
19438W        W89253  12.348  26.597  12.390
19439W        W89254  40.400  10.666   2.400
19440W        W89255  44.338   4.893  14.286
19441W        W89256   5.888  39.896  13.914
19442W        W89257  34.543  16.148   0.421
19443W        W89258  31.409  38.822  12.418
19444W        W89259  28.043  41.385   2.729
19445W        W89260  12.241   1.443   1.726
19446W        W89261  22.510   8.301   4.711
19447W        W89262   3.905  43.828  14.868
19448W        W89263  17.801  32.093  10.569
19449W        W89264  10.715  26.587  14.949
19450W        W89265  20.684  27.460  10.471
19451W        W89266   3.361  24.553   4.710
19452W        W89267  34.992   0.877  11.869
19453W        W89268  17.732  10.322   4.670
19454W        W89269  43.930  12.305  13.880
19455W        W89270  12.124  40.500  11.480
19456W        W89271   3.380  19.208   0.928
19457W        W89272  11.227  41.498   3.702
19458W        W89273  27.683  44.413   0.301
19459W        W89274  33.548   1.742   2.693
19460W        W89275  26.953  25.499   4.628
19461W        W89276   9.204  34.475  12.550
19462W        W89277  36.845  16.735   1.347
19463W        W89278  22.064  37.547  14.920
19464W        W89279  26.499  16.623  13.941
19465W        W89280  28.512  21.130  12.010
19466W        W89281  27.041  11.661  12.459
19467W        W89282   2.265  23.676   4.686
19468W        W89283   8.161  20.202  12.079
19469W        W89284  13.655   5.361  11.448
19470W        W89285   2.922  27.692   2.847
19471W        W89286  17.689   6.424   3.777
19472W        W89287  11.349  23.678  12.513
19473W        W89288  35.920   0.986  12.904
19474W        W89289  24.715  38.407  11.545
19475W        W89290  14.290  20.766   1.334
19476W        W89291  41.538  17.576   1.362
19477W        W89292  11.235  22.737  14.816
19478W        W89293  27.691  24.688  10.636
19479W        W89294  44.276   3.220   0.760
19480W        W89295  39.869  16.247   1.228
19481W        W89296  44.432  38.556  14.852
19482W        W89297  25.561  43.290   0.800
19483W        W89298  17.251  34.574  12.891
19484W        W89299   8.672  28.013  12.373
19485W        W89300   1.301   3.398   4.345
19486W        W89301  33.464  15.293   1.878
19487W        W89302  32.546  15.136  13.459
19488W        W89303  23.553   5.409   3.253
19489W        W89304   2.962  24.498   0.271
19490W        W89305  28.492  43.386  11.412
19491W        W89306   5.244  23.047   0.948
19492W        W89307  14.650   5.239  13.474
19493W        W89308  33.127  25.033   4.758
19494W        W89309  41.896  20.100  13.404
19495W        W89310  25.139  29.433  13.429
19496W        W89311  31.045  32.964  14.787
19497W        W89312   3.328   4.734   1.801
19498W        W89313   0.885  10.867  14.366
19499W        W89314  34.091   9.384  11.979
19500W        W89315   3.934  26.132   0.826
19501W        W89316  43.420  32.558  12.889
19502W        W89317  40.833   4.861   2.774
19503W        W89318  35.072  42.909   4.280
19504W        W89319  11.794  30.637   4.747
19505W        W89320  41.385  38.931  10.503
19506W        W89321  29.045  13.325   2.314
19507W        W89322  19.771  18.720  13.856
19508W        W89323  28.463  33.020  10.928
19509W        W89324  35.359  19.770   3.182
19510W        W89325  16.314   6.808   1.394
19511W        W89326  43.315  42.846  12.577
19512W        W89327  27.105  20.689   3.337
19513W        W89328   0.400   5.320  12.947
19514W        W89329  39.809  41.825  12.443
19515W        W89330  29.461  41.894  11.451
19516W        W89331  24.078  42.480  13.322
19517W        W89332  44.292  32.494  12.997
19518W        W89333  41.858  26.635  10.957
19519W        W89334  31.495  14.178  12.026
19520W        W89335  20.228   0.920  10.467
19521W        W89336   1.930  29.478  14.965
19522W        W89337  14.107  40.839  10.980
19523W        W89338  26.505  32.473  12.071
19524W        W89339   9.795  35.397  12.522
19525W        W89340   9.247  32.407  13.045
19526W        W89341  24.691   8.293   3.794
19527W        W89342  22.623   6.914  12.543
19528W        W89343  41.817   9.665  11.502
19529W        W89344   3.420  41.538  14.309
19530W        W89345   4.388  17.289   3.319
19531W        W89346  32.420  13.255   4.717
19532W        W89347  38.870   2.799   4.162
19533W        W89348  13.328   3.374   5.213
19534W        W89349  13.300  41.835  12.439
19535W        W89350  23.659  42.520  10.464
19536W        W89351  30.432   8.670   3.354
19537W        W89352  19.773  43.416   4.124
19538W        W89353  35.458   9.769  12.528
19539W        W89354  17.068  32.480  11.592
19540W        W89355  42.809   4.827   4.197
19541W        W89356  42.909  29.448   4.713
19542W        W89357  11.782  26.468   0.740
19543W        W89358  23.636  40.037  12.480
19544W        W89359  15.310  18.243   4.251
19545W        W89360   7.825  29.572   3.333
19546W        W89361   1.376  32.426  12.478
19547W        W89362  17.784   9.823   2.413
19548W        W89363  29.449  23.000   4.706
19549W        W89364   2.837   9.783  12.501
19550W        W89365  44.960   5.383   2.889
19551W        W89366  23.542  41.334   4.815
19552W        W89367  22.648  30.151   2.673
19553W        W89368  12.241  26.669   0.271
19554W        W89369  17.295  34.466   4.829
19555W        W89370  28.456   1.281   4.163
19556W        W89371  33.600  31.599   3.221
19557W        W89372  15.775   8.342  14.977
19558W        W89373  26.695  29.073  13.422
19559W        W89374  19.144  29.158  10.937
19560W        W89375   5.374  31.016  12.361
19561W        W89376  15.321  15.587   2.320
19562W        W89377  32.407   4.750  11.974
19563W        W89378  44.989  28.940   0.320
19564W        W89379   7.318  23.555   3.705
19565W        W89380   2.414  24.698  14.844
19566W        W89381  17.697  17.166  14.863
19567W        W89382  40.488  44.450  13.057
19568W        W89383  26.556  34.388  12.477
19569W        W89384  10.647   1.777   2.373
19570W        W89385   3.938   1.837  12.516
19571W        W89386  31.462  10.721  10.948
19572W        W89387  24.031  38.510   5.222
19573W        W89388   0.901   7.188  13.840
19574W        W89389  26.480  43.998   4.774
19575W        W89390  22.719  23.044  13.481
19576W        W89391  12.718   4.930  13.388
19577W        W89392  22.027  27.089  10.631
19578W        W89393  26.183  38.470  12.573
19579W        W89394  12.804  18.678   4.181
19580W        W89395   3.752   2.325   1.813
19581W        W89396  36.565  35.052   4.303
19582W        W89397   2.342   4.210   0.470
19583W        W89398  37.846  43.813  14.006
19584W        W89399  26.189  37.530  10.943
19585W        W89400  36.571  23.058   0.877
19586W        W89401   0.261  36.928  14.839
19587W        W89402  23.592  20.105   2.366
19588W        W89403   3.225  36.885  10.505
19589W        W89404   0.819  24.647   2.339
19590W        W89405  44.330  35.038   2.881
19591W        W89406  28.127  37.898   5.130
19592W        W89407  33.026  37.065   1.877
19593W        W89408   5.361  36.376   4.242
19594W        W89409  22.155  39.541   1.855
19595W        W89410  43.402  38.393  12.849
19596W        W89411  28.964   3.219   0.420
19597W        W89412   3.925  41.459   4.131
19598W        W89413  20.634   3.926   0.295
19599W        W89414  17.725  20.673   0.370
19600W        W89415  28.500  21.093  11.468
19601W        W89416  18.057  27.551  12.522
19602W        W89417  22.511  39.454   1.365
19603W        W89418   9.166  34.392  10.979
19604W        W89419   7.760  32.081  14.028
19605W        W89420  22.548   9.807   2.374
19606W        W89421  32.474  23.055   2.740
19607W        W89422  20.668  14.179  13.904
19608W        W89423   1.362  17.291   2.755
19609W        W89424   8.187  23.506   1.282
19610W        W89425  11.707  20.524   0.333
19611W        W89426  31.018  24.584  13.341
19612W        W89427  17.734  24.977  14.916
19613W        W89428  23.690   3.407   4.705
19614W        W89429  29.600  44.327   3.370
19615W        W89430  11.774  33.092  10.535
19616W        W89431  26.983  11.259   1.771
19617W        W89432  35.526   1.773   1.780
19618W        W89433  28.578  18.765  14.865
19619W        W89434  16.126  42.352  10.614
19620W        W89435  38.358  33.619   1.410
19621W        W89436  30.998  24.629  11.408
19622W        W89437  26.698  27.197   1.721
19623W        W89438   2.749   5.883  14.313
19624W        W89439  13.602   5.724   0.259
19625W        W89440  15.734  35.472   2.735
19626W        W89441  36.581   6.699   4.792
19627W        W89442  27.084   2.427   4.727
19628W        W89443  30.590  28.585  14.504
19629W        W89444  31.936  38.993   4.783
19630W        W89445  21.244  33.969   2.877
19631W        W89446  15.656  19.257  12.825
19632W        W89447  24.526  10.158   3.824
19633W        W89448  22.201   8.786   2.844
19634W        W89449  42.517  40.951  11.461
19635W        W89450  30.627  31.605  12.964
19636W        W89451  34.439  16.743  11.911
19637W        W89452  29.076  35.390  11.434
19638W        W89453  22.199  24.719   3.651
19639W        W89454  17.726  26.117   3.729
19640W        W89455  10.845  37.033  14.489
19641W        W89456  37.865  25.497   3.197
19642W        W89457  15.697  33.023   4.706
19643W        W89458  39.354   0.430  10.433
19644W        W89459  27.564  14.787   2.698
19645W        W89460  24.042  15.596   3.635
19646W        W89461   8.863  40.860  10.925
19647W        W89462  44.379   1.323   2.194
19648W        W89463  37.937  30.150  11.391
19649W        W89464  40.053  37.539  13.027
19650W        W89465  39.922   1.849  12.926
19651W        W89466  25.613  21.743   2.404
19652W        W89467   3.947   3.388   4.837
19653W        W89468  11.644  22.020   3.276
19654W        W89469  31.061  19.157   4.267
19655W        W89470   4.937  41.917   2.306
19656W        W89471  22.546  40.317  14.845
19657W        W89472  12.299  24.722  12.497
19658W        W89473  24.718  44.789   4.645
19659W        W89474   3.790  24.032  10.531
19660W        W89475  28.572  16.601  12.864
19661W        W89476  33.477  34.440   5.132
19662W        W89477  33.447  24.706   3.672
19663W        W89478  43.450  25.128   1.315
19664W        W89479  19.090  36.983  11.078
19665W        W89480  36.549  21.122  10.449
19666W        W89481  13.830  26.061  11.526
19667W        W89482   0.941   3.815  12.002
19668W        W89483   6.765  40.404  12.373
19669W        W89484  43.015  36.844  13.466
19670W        W89485  40.503  13.786   5.567
19671W        W89486  39.382  26.044  14.970
19672W        W89487   3.375  21.101   2.312
19673W        W89488  41.794  38.009   0.935
19674W        W89489   4.231  32.052  13.823
19675W        W89490  16.618  17.263  10.937
19676W        W89491  15.796   0.248   0.419
19677W        W89492  38.532   4.413  12.969
19678W        W89493  36.091   4.919   4.134
19679W        W89494   9.717  41.936  14.307
19680W        W89495  14.274  44.769   2.688
19681W        W89496   7.685  20.715  14.514
19682W        W89497  14.244   5.744   0.448
19683W        W89498   7.359  31.447   1.319
19684W        W89499  19.146   7.775   3.751
19685W        W89500  36.858  40.041   1.792
19686W        W89501  32.994   2.369  10.418
19687W        W89502   3.727  34.024  12.401
19688W        W89503   7.213  22.742  11.563
19689W        W89504  28.121  30.995   1.761
19690W        W89505  19.686  25.501   4.122
19691W        W89506  23.674   4.704  10.889
19692W        W89507   6.271  18.295  14.304
19693W        W89508   8.682  43.995   4.790
19694W        W89509  12.615   2.800  10.536
19695W        W89510  20.185   7.258  10.924
19696W        W89511  28.502   1.945   4.135
19697W        W89512  34.950  43.934   4.304
19698W        W89513  17.742  10.638   3.163
19699W        W89514  38.916  31.067   4.789
19700W        W89515  13.227  33.994   3.318
19701W        W89516   8.162  11.310   3.811
19702W        W89517  25.160   6.800  10.526
19703W        W89518  43.884  35.541   2.864
19704W        W89519   2.764  15.273  13.483
19705W        W89520   0.787  31.117  14.970
19706W        W89521   7.720  44.315   3.740
19707W        W89522  36.042  40.034   2.200
19708W        W89523  39.878   9.384   0.782
19709W        W89524   3.945  10.724  11.127
19710W        W89525  20.044  10.646   1.230
19711W        W89526  11.260  11.849  12.935
19712W        W89527  22.590  16.569   1.699
19713W        W89528  21.528  35.523   0.420
19714W        W89529  37.557   6.842  14.476
19715W        W89530  32.512   3.741   3.731
19716W        W89531   4.235   5.233   0.459
19717W        W89532  36.580  23.603   0.320
19718W        W89533   6.221  19.138   9.929
19719W        W89534   5.828  44.395   2.704
19720W        W89535  35.961  17.256   5.138
19721W        W89536  28.504  28.179   2.837
19722W        W89537  27.002  12.758   0.831
19723W        W89538  14.610  43.280  11.101
19724W        W89539  17.729  18.647   0.275
19725W        W89540   5.299  40.986  10.623
19726W        W89541  30.982   9.882  13.430
19727W        W89542  44.310  33.533  13.531
19728W        W89543  36.894  26.602   1.819
19729W        W89544  40.885  16.604  10.487
19730W        W89545   9.658  24.072  11.964
19731W        W89546   0.473  41.816   3.784
19732W        W89547  30.424   9.197   1.447
19733W        W89548  29.512  27.954  13.844
19734W        W89549  34.023   6.875   0.282
19735W        W89550  28.981  20.585  13.431
19736W        W89551  24.154  27.996   1.841
19737W        W89552  28.179  41.794   2.316
19738W        W89553  29.485  24.487  12.966
19739W        W89554  33.537  15.647  14.920
19740W        W89555  42.339  25.145   3.800
19741W        W89556  34.865  27.454   0.957
19742W        W89557  19.572  33.422  13.865
19743W        W89558  42.521  28.121  13.364
19744W        W89559  21.022  12.615  13.521
19745W        W89560  11.296  30.530   4.834
19746W        W89561   2.397  25.067   4.176
19747W        W89562  25.983  26.044   2.859
19748W        W89563  40.835  41.787   2.786
19749W        W89564  36.364  31.919   4.784
19750W        W89565  23.230  34.052   2.263
19751W        W89566  36.009  35.921   0.952
19752W        W89567  13.236  42.799  11.401
19753W        W89568  41.955  43.314   0.891
19754W        W89569  13.231  40.879   1.697
19755W        W89570  11.358  27.538  11.423
19756W        W89571   7.172  15.783   0.869
19757W        W89572  37.576  44.901   3.744
19758W        W89573  44.877  43.369   4.343
19759W        W89574  31.032  31.481   0.458
19760W        W89575  43.900  35.538   1.441
19761W        W89576   2.770  18.287   1.828
19762W        W89577   5.744   7.217   3.330
19763W        W89578  20.712  33.033   3.730
19764W        W89579  31.620  20.102   4.638
19765W        W89580  13.172   6.852   0.440
19766W        W89581  25.119  18.285   3.308
19767W        W89582  41.029   0.771  12.071
19768W        W89583  11.338  40.536   4.685
19769W        W89584   9.694  37.384  14.921
19770W        W89585  14.282   1.291  14.996
19771W        W89586  21.165  39.443   3.653
19772W        W89587   3.272   8.708   0.330
19773W        W89588  31.920   8.876   3.744
19774W        W89589  41.930  44.991   3.255
19775W        W89590  20.128  41.974   0.842
19776W        W89591  37.514  17.715   1.759
19777W        W89592  16.244  33.461  13.841
19778W        W89593   1.459   3.715  12.415
19779W        W89594  27.172  18.668  12.492
19780W        W89595   0.958  24.975  12.060
19781W        W89596   3.284  14.288  14.413
19782W        W89597  16.691  22.101   2.686
19783W        W89598  24.531  25.539   4.130
19784W        W89599  32.942  41.397   2.729
19785W        W89600  18.175  21.138   1.352
19786W        W89601  15.777  14.285  14.294
19787W        W89602  14.694   7.904  10.629
19788W        W89603   4.864   7.199  14.501
19789W        W89604  27.951  24.713   0.754
19790W        W89605   5.289  44.940   3.821
19791W        W89606   2.407  36.943   1.804
19792W        W89607  40.337   6.257   5.710
19793W        W89608   9.201  10.755  13.913
19794W        W89609  44.001   7.245   1.424
19795W        W89610   9.350  25.552  13.343
19796W        W89611  11.162   5.370  14.942
19797W        W89612  41.330  32.885   2.780
19798W        W89613  22.693  33.100  11.445
19799W        W89614  18.616   4.751   3.374
19800W        W89615  26.655   7.314   4.820
19801W        W89616  25.536  38.877  14.457
19802W        W89617  23.046   6.824  11.079
19803W        W89618  39.322   7.281  13.408
19804W        W89619  16.727   5.379   2.270
19805W        W89620   2.741  25.064  12.824
19806W        W89621   2.311  10.247  14.390
19807W        W89622  13.326  14.152   3.242
19808W        W89623  13.119  27.588   1.874
19809W        W89624  37.896   0.855   1.380
19810W        W89625   1.801  22.056  12.989
19811W        W89626  29.170  13.176  12.521
19812W        W89627  34.603  36.966  12.942
19813W        W89628   6.685   0.973   1.429
19814W        W89629  12.821  42.996   3.744
19815W        W89630  27.536  39.356  11.505
19816W        W89631  41.006   9.658  11.932
19817W        W89632  26.479  34.067  10.586
19818W        W89633  11.136   6.915  11.094
19819W        W89634  17.169   1.926  11.509
19820W        W89635  19.042  16.628  11.548
19821W        W89636  38.527  16.104   4.783
19822W        W89637   3.423  14.708  11.937
19823W        W89638  38.987  26.674  13.424
19824W        W89639  17.740   5.810  11.075
19825W        W89640  42.024   8.382   3.826
19826W        W89641  10.283  31.938   5.272
19827W        W89642  27.455  11.342  10.977
19828W        W89643  24.145  21.232   3.314
19829W        W89644   1.947  30.013   1.318
19830W        W89645  15.218  26.456  10.623
19831W        W89646  28.638  39.033   3.281
19832W        W89647   4.438  40.818   3.244
19833W        W89648   6.885  27.573  11.502
19834W        W89649  39.044  40.500   4.345
19835W        W89650  28.119  40.806   2.392
19836W        W89651  25.963   4.926  10.976
19837W        W89652  32.453  17.615  13.368
19838W        W89653  37.468  26.207   1.840
19839W        W89654  41.845  31.561   4.213
19840W        W89655  23.184  10.293  13.985
19841W        W89656   2.928  41.498   2.200
19842W        W89657  38.471  39.817   0.861
19843W        W89658  39.490   4.806   3.356
19844W        W89659  26.679   3.423  14.480
19845W        W89660  21.604   5.380   0.924
19846W        W89661  38.883  25.669   0.243
19847W        W89662   0.483  39.528  11.086
19848W        W89663   7.304  10.715   4.181
19849W        W89664  22.617  16.174   3.742
19850W        W89665   7.694  20.145  10.980
19851W        W89666  33.603  35.897  11.400
19852W        W89667  15.751   6.678  14.308
19853W        W89668  26.056   6.894  14.284
19854W        W89669  42.456  24.047  11.439
19855W        W89670  31.421  36.889  11.039
19856W        W89671  40.530  11.842  11.956
19857W        W89672  36.353  34.986   3.757
19858W        W89673  10.740  35.394  11.544
19859W        W89674  41.489   4.250  12.389
19860W        W89675  26.618   0.336  14.869
19861W        W89676  24.521  21.147   2.408
19862W        W89677  30.513  21.051  12.031
19863W        W89678  37.967   8.794  12.477
19864W        W89679  13.315  22.538  13.008
19865W        W89680  31.114  40.045   0.391
19866W        W89681  26.993  28.623  13.321
19867W        W89682  24.001  12.755   4.830
19868W        W89683  42.972   7.675   0.784
19869W        W89684   3.864  22.213   0.396
19870W        W89685  39.520  32.991  11.484
19871W        W89686  27.194   0.807  12.075
19872W        W89687   7.181  36.878   0.768
19873W        W89688  14.746  35.537   3.182
19874W        W89689  26.966  26.105  11.585
19875W        W89690  11.868  36.847  14.333
19876W        W89691  25.150   0.787  11.453
19877W        W89692   7.847  44.009   2.777
19878W        W89693  22.721   6.213  12.010
19879W        W89694   2.798  15.616   4.139
19880W        W89695   9.828   5.434  13.428
19881W        W89696  31.082  11.854   4.198
19882W        W89697  42.382  13.140   3.818
19883W        W89698  10.808  14.636   2.898
19884W        W89699  15.243  12.739  12.574
19885W        W89700  33.940  29.601   4.321
19886W        W89701  16.130  20.642  14.800
19887W        W89702  18.785   8.181   3.371
19888W        W89703  19.740  42.423   1.697
19889W        W89704  41.377  24.193  11.043
19890W        W89705  28.036  40.349  13.023
19891W        W89706  37.575  16.586  11.113
19892W        W89707  21.644   5.698  12.570
19893W        W89708  30.054  38.844  10.521
19894W        W89709   6.287  31.134  12.829
19895W        W89710  41.370   0.273  13.388
19896W        W89711  40.321  20.578  10.940
19897W        W89712  35.103  12.190  12.552
19898W        W89713  17.254  18.178   5.229
19899W        W89714  14.689  44.757  14.021
19900W        W89715   3.429   6.204   3.842
19901W        W89716  38.400  29.424  14.912
19902W        W89717  16.710  28.511  10.542
19903W        W89718   5.821  28.610   3.660
19904W        W89719  35.503  10.784  11.965
19905W        W89720  27.122   5.769  13.333
19906W        W89721  14.833  21.037   0.868
19907W        W89722  41.382  15.812  13.457
19908W        W89723  11.859   2.952  13.436
19909W        W89724  44.480  44.996   0.288
19910W        W89725   7.901  15.788   3.190
19911W        W89726  25.472  25.550  14.808
19912W        W89727  12.174   7.731   3.348
19913W        W89728  35.578  35.582   0.857
19914W        W89729  36.465   9.187  12.413
19915W        W89730  42.314  11.165  11.005
19916W        W89731   1.427  38.975   3.720
19917W        W89732  37.956  18.708   3.643
19918W        W89733  31.050  31.957  13.334
19919W        W89734  18.774  12.298   2.693
19920W        W89735   2.730  36.998   2.346
19921W        W89736  42.826   3.853   1.300
19922W        W89737  33.476  11.654  14.922
19923W        W89738  15.112  29.640   1.750
19924W        W89739  34.467  42.919   1.753
19925W        W89740  19.202  32.409  12.989
19926W        W89741  18.167  24.076  14.353
19927W        W89742   1.950  23.099  12.850
19928W        W89743  24.520  19.087  10.478
19929W        W89744   2.904  36.093   1.214
19930W        W89745  31.945  17.562  12.895
19931W        W89746   3.850  44.771  11.579
19932W        W89747  31.962  35.005   0.877
19933W        W89748  32.062  12.746   0.437
19934W        W89749  18.745  11.774   1.890
19935W        W89750   5.395   4.877   1.293
19936W        W89751  29.485  20.226  13.361
19937W        W89752  29.459  17.573  10.968
19938W        W89753  14.603  14.216   3.311
19939W        W89754  37.345  21.606  13.431
19940W        W89755  43.349  24.673  15.000
19941W        W89756  13.243   2.870   3.764
19942W        W89757  28.598  33.995   0.965
19943W        W89758  22.062   6.427  12.567
19944W        W89759  37.356  21.258  12.387
19945W        W89760  22.528  23.127   0.895
19946W        W89761  26.154  40.486   0.732
19947W        W89762  28.949  42.003   2.328
19948W        W89763   8.685   9.646  11.947
19949W        W89764   2.229   3.908  10.983
19950W        W89765  28.557  43.808   0.838
19951W        W89766  27.016   6.713  14.322
19952W        W89767  26.698   1.267  11.611
19953W        W89768  18.185  16.230  10.928
19954W        W89769  35.906   5.866  13.463
19955W        W89770  19.631  15.248  11.877
19956W        W89771  42.019  40.531  10.994
19957W        W89772   6.282  30.447  14.994
19958W        W89773  42.856   8.371  11.525
19959W        W89774  42.990  24.206   2.890
19960W        W89775  33.918  31.153   1.386
19961W        W89776   9.287   1.857  10.001
19962W        W89777  25.053  24.529  14.024
19963W        W89778   2.333  30.924   0.331
19964W        W89779  15.215  39.959   4.648
19965W        W89780  20.693   2.768   4.149
19966W        W89781   4.399  16.186   0.743
19967W        W89782  21.087  28.947   4.805
19968W        W89783  28.945  18.759  10.642
19969W        W89784  39.005  23.594  12.365
19970W        W89785   9.309   6.302   2.418
19971W        W89786  14.686   6.302  10.098
19972W        W89787  18.057  27.118  13.021
19973W        W89788  37.387  38.848   0.413
19974W        W89789  21.034  44.322  12.979
19975W        W89790  27.041  10.651  11.084
19976W        W89791  20.214   7.672   2.748
19977W        W89792  35.930   2.833   0.854
19978W        W89793  40.871  37.024   2.730
19979W        W89794   3.433  14.696  10.491
19980W        W89795   5.236  41.818   0.408
19981W        W89796   6.810   9.260  13.477
19982W        W89797  21.162  22.674  12.866
19983W        W89798  42.016  21.657  10.899
19984W        W89799  32.560  20.268   0.367
19985W        W89800  11.195  17.246   1.360
19986W        W89801  31.049   1.965   0.785
19987W        W89802  26.971  28.986  12.942
19988W        W89803  42.964   9.827   3.775
19989W        W89804   3.230  14.144  13.869
19990W        W89805  39.889  31.404   0.359
19991W        W89806  23.720  22.160  12.889
19992W        W89807  29.006  26.136  14.502
19993W        W89808  31.581  39.375   3.735
19994W        W89809  16.701  32.602  13.368
19995W        W89810  38.843   6.389   2.792
19996W        W89811  28.105  14.138  10.024
19997W        W89812  43.403  11.640  11.123
19998W        W89813   7.726  22.022  13.378
19999W        W89814  14.731  24.593  14.948
20000W        W89815   6.322  41.442   2.338
20001W        W89816  40.886   4.317  12.827
20002W        W89817  18.226  15.269   0.266
20003W        W89818   7.298  34.447   2.292
20004W        W89819  41.983  17.649   0.281
20005W        W89820  16.789  11.831   3.843
20006W        W89821  11.811   9.695   4.151
20007W        W89822  44.310  17.086  14.462
20008W        W89823  25.619  13.665   4.263
20009W        W89824  28.072  11.175   1.913
20010W        W89825   9.316  33.874  11.587
20011W        W89826  35.061   3.334   2.870
20012W        W89827  12.276  19.081  10.922
20013W        W89828   0.270  27.499   1.821
20014W        W89829  18.232  31.423  14.918
20015W        W89830   5.720   2.907  10.442
20016W        W89831  30.075  34.483  14.921
20017W        W89832  43.412  14.644  13.523
20018W        W89833  13.688  10.843  14.486
20019W        W89834   4.878   0.253   3.780
20020W        W89835  38.344  13.107  14.020
20021W        W89836  15.698  35.394  11.019
20022W        W89837  43.487  15.710   0.818
20023W        W89838  42.951  35.947  14.398
20024W        W89839  20.168  36.845   2.407
20025W        W89840  34.044  44.277   3.750
20026W        W89841   0.765  32.540   1.719
20027W        W89842   4.822  33.966  13.040
20028W        W89843  17.650  21.129   2.204
20029W        W89844  17.239  29.995   3.288
20030W        W89845  11.129  38.489   1.211
20031W        W89846  38.464  17.088  13.841
20032W        W89847  30.656  29.109   2.191
20033W        W89848  14.311  28.568   4.177
20034W        W89849  35.396  31.955   3.680
20035W        W89850  37.438  42.390  14.446
20036W        W89851  33.562  11.217  11.859
20037W        W89852  21.595  27.634   2.762
20038W        W89853  41.791  35.991   0.738
20039W        W89854   6.768  38.843   0.436
20040W        W89855  12.808  11.365   3.253
20041W        W89856  10.271  16.147  14.991
20042W        W89857  43.284  29.104  14.766
20043W        W89858  39.965   0.941   3.854
20044W        W89859  15.716  25.615   3.767
20045W        W89860  37.040  23.217   3.357
20046W        W89861  15.301  17.598  13.999
20047W        W89862  23.112   7.381  12.548
20048W        W89863  20.062   5.366  11.962
20049W        W89864   7.676  14.270   1.406
20050W        W89865   6.858  39.450   2.290
20051W        W89866  17.222  41.796  11.962
20052W        W89867  17.073  27.562   1.339
20053W        W89868  18.168   7.698   3.851
20054W        W89869  23.523   2.289   1.935
20055W        W89870  28.065  43.475  14.382
20056W        W89871  29.515   1.465   3.691
20057W        W89872  29.978  28.021  10.500
20058W        W89873  27.104  23.039  10.898
20059W        W89874  32.392  36.560  14.423
20060W        W89875  20.721   2.446   2.870
20061W        W89876  39.443   5.301   0.739
20062W        W89877  16.595  25.108  10.414
20063W        W89878  39.418  33.113  13.031
20064W        W89879  38.921  38.992   3.310
20065W        W89880   9.290  14.193   2.732
20066W        W89881   2.795  44.818   0.270
20067W        W89882   9.276  30.108   4.804
20068W        W89883  13.814  15.597   2.194
20069W        W89884  23.691  30.628  14.993
20070W        W89885   0.981  31.935   0.744
20071W        W89886   3.302  42.984   0.768
20072W        W89887   8.405  15.283   2.871
20073W        W89888  35.069  31.052  12.371
20074W        W89889  30.436  13.339  14.969
20075W        W89890  14.604  43.465  11.407
20076W        W89891  20.663  15.156  12.844
20077W        W89892  33.415  31.528   2.405
20078W        W89893   0.382   9.817   4.145
20079W        W89894  28.028  18.121   0.799
20080W        W89895  11.643  20.558   2.243
20081W        W89896  34.416  12.332   0.447
20082W        W89897   7.412   4.837   4.159
20083W        W89898  30.103  14.123   0.244
20084W        W89899  25.053   1.398   4.236
20085W        W89900   1.818  17.186   4.734
20086W        W89901  19.204  20.757   1.738
20087W        W89902  17.147  29.072  12.544
20088W        W89903   6.354  13.761  12.453
20089W        W89904  40.902  34.948   2.845
20090W        W89905   4.879  26.063  10.535
20091W        W89906  33.896  36.402  11.962
20092W        W89907  10.346  26.082  13.547
20093W        W89908  37.912  36.061  13.060
20094W        W89909  18.164  40.850  10.436
20095W        W89910  24.128  38.059  14.871
20096W        W89911  15.264  30.624  13.442
20097W        W89912   9.318  11.350  10.549
20098W        W89913   0.836  35.552  12.558
20099W        W89914  10.653  31.583  12.061
20100W        W89915  11.347  37.483  13.793
20101W        W89916  36.094  22.643  10.573
20102W        W89917  22.741  37.842   2.855
20103W        W89918  17.144  29.629   0.459
20104W        W89919  38.870  24.094  12.414
20105W        W89920  23.613  32.017  14.027
20106W        W89921  15.247  20.540   2.694
20107W        W89922  21.603   0.398   0.962
20108W        W89923   6.811   9.717   0.911
20109W        W89924  39.010  40.516   3.691
20110W        W89925  18.691   2.396   3.812
20111W        W89926  35.917  41.295  14.276
20112W        W89927  14.284  18.754   0.308
20113W        W89928  31.419   6.388   1.325
20114W        W89929  32.424  31.949  14.474
20115W        W89930  24.190   5.934   2.292
20116W        W89931   9.361  40.014   3.705
20117W        W89932  15.311  16.697  10.550
20118W        W89933  20.061   5.877  13.867
20119W        W89934  30.010   2.943  10.560
20120W        W89935  21.060   3.406  10.578
20121W        W89936   3.865  35.368  10.980
20122W        W89937  14.096  39.836   1.316
20123W        W89938  36.358  32.498   1.260
20124W        W89939  33.616  19.651   0.728
20125W        W89940  21.133  12.149   1.747
20126W        W89941  41.421   0.940   1.906
20127W        W89942  18.633  42.925  14.513
20128W        W89943  30.069  29.568  12.394
20129W        W89944  35.479   9.807  10.531
20130W        W89945   6.850  36.841  12.068
20131W        W89946   4.294  41.426  11.454
20132W        W89947  16.601  14.648  14.289
20133W        W89948  30.632  26.073   1.290
20134W        W89949  30.089   8.228   1.310
20135W        W89950  42.316  18.765  11.592
20136W        W89951  34.922  42.816   5.087
20137W        W89952  11.283  43.447   0.322
20138W        W89953  23.986  18.172  12.429
20139W        W89954  21.613  17.675   3.760
20140W        W89955   1.356  16.657  10.507
20141W        W89956   5.411  25.054  14.959
20142W        W89957   9.375   6.423  13.828
20143W        W89958  39.411  44.960  12.881
20144W        W89959  18.145   8.240   2.871
20145W        W89960   8.707  27.517   0.473
20146W        W89961  35.427  33.606   2.280
20147W        W89962  17.609  38.030   0.383
20148W        W89963  17.096  16.193   4.740
20149W        W89964  26.688  10.751  14.422
20150W        W89965  27.622  10.663   4.764
20151W        W89966  39.922  42.956   3.690
20152W        W89967   0.448  34.532   0.381
20153W        W89968  10.827  24.517   1.278
20154W        W89969  21.544   8.343  11.927
20155W        W89970  37.008  34.492   4.223
20156W        W89971  40.453  28.633   4.146
20157W        W89972  19.231   8.320  12.410
20158W        W89973  26.964  16.072  12.051
20159W        W89974  29.460  24.617   2.736
20160W        W89975  32.904  21.686   4.269
20161W        W89976  20.653  28.160  13.986
20162W        W89977  35.955  44.799  12.860
20163W        W89978  37.476  35.943   0.729
20164W        W89979   8.838   5.339   2.849
20165W        W89980  33.927  11.345   2.788
20166W        W89981   9.649  24.479  12.512
20167W        W89982  33.891  33.035  13.360
20168W        W89983  43.935  31.453  12.461
20169W        W89984  23.736  27.468   3.161
20170W        W89985  31.564  34.483  11.945
20171W        W89986  32.630  33.948  13.986
20172W        W89987   5.739  33.997  12.827
20173W        W89988  36.037  22.672   0.313
20174W        W89989   6.182  26.106  13.337
20175W        W89990  22.148   4.339   0.334
20176W        W89991  32.416  43.509   1.800
20177W        W89992   5.786   5.217   2.748
20178W        W89993  43.918  32.450   4.603
20179W        W89994  32.457  43.970  12.920
20180W        W89995  26.649  29.454  12.545
20181W        W89996  42.849  36.085   2.756
20182W        W89997  32.991  11.200   4.184
20183W        W89998  19.084  32.939   2.273
20184W        W89999  12.311   7.264   1.401
20185W        W90000  21.575  24.637   4.168
20186W        W90001  11.658  31.897  11.538
20187W        W90002  19.683  14.292   3.720
20188W        W90003  23.232  35.517  10.992
20189W        W90004   9.833  17.237   0.840
20190W        W90005  36.053   8.365  12.031
20191W        W90006  42.901  26.016   0.955
20192W        W90007  11.805  32.408   3.835
20193W        W90008  30.921  37.544  12.035
20194W        W90009  16.198  44.486  11.551
20195W        W90010  14.714  14.098   0.729
20196W        W90011  33.027   7.327   4.765
20197W        W90012  26.574  22.115  11.058
20198W        W90013  16.312   4.435  10.456
20199W        W90014  36.985  14.778  13.839
20200W        W90015   0.902  42.817  14.897
20201W        W90016   9.158  15.177  12.054
20202W        W90017  28.597  28.562  11.869
20203W        W90018  17.645  17.295   2.668
20204W        W90019  22.746  32.009  10.480
20205W        W90020   6.752  42.926   4.628
20206W        W90021  31.982  19.219  12.942
20207W        W90022  27.601   3.917   1.814
20208W        W90023  42.020  10.368   2.306
20209W        W90024  22.223  15.578   2.883
20210W        W90025  11.297  29.509   1.328
20211W        W90026  19.224   9.219   1.248
20212W        W90027   4.220   5.894  11.058
20213W        W90028  30.066  34.439   1.389
20214W        W90029  44.265  44.417  11.424
20215W        W90030  44.823   4.417   2.724
20216W        W90031  21.534   1.901  14.894
20217W        W90032  23.532   0.463   2.377
20218W        W90033   9.665   8.248   2.251
20219W        W90034   6.814  29.644  12.491
20220W        W90035   5.880  27.668   4.185
20221W        W90036  33.513  11.356   2.307
20222W        W90037  37.456  16.183   4.159
20223W        W90038  20.731   8.185   3.652
20224W        W90039  38.393   4.714  14.812
20225W        W90040   8.838   7.880  10.632
20226W        W90041   5.715   6.754  13.341
20227W        W90042   1.914  37.044   4.657
20228W        W90043  31.989  33.880   2.181
20229W        W90044  43.469  24.055  12.038
20230W        W90045  41.455  32.082  12.071
20231W        W90046  36.020  29.017  14.960
20232W        W90047  17.091  16.131  10.999
20233W        W90048  43.479  19.231  11.871
20234W        W90049   6.428  10.259   2.900
20235W        W90050  39.550  23.150  11.044
20236W        W90051  36.567  21.610   1.230
20237W        W90052  44.992  27.013  12.908
20238W        W90053  16.664  26.613   1.406
20239W        W90054  15.804   3.452  14.006
20240W        W90055   6.793  14.760   2.788
20241W        W90056  44.339  32.112   2.706
20242W        W90057  38.013   9.807   0.474
20243W        W90058  32.448  18.722   2.341
20244W        W90059   5.353   0.955  10.140
20245W        W90060   1.251  43.790   3.188
20246W        W90061   0.301  11.698  10.452
20247W        W90062  17.606  23.183  11.925
20248W        W90063   7.702  12.824   2.898
20249W        W90064  36.064  23.070  13.881
20250W        W90065   8.667  13.734   3.182
20251W        W90066   1.882  14.624   3.780
20252W        W90067  17.693  19.535   4.632
20253W        W90068   0.848  18.089   3.723
20254W        W90069  25.149   1.773   3.687
20255W        W90070  17.147  18.178  11.926
20256W        W90071  13.621   3.890  13.839
20257W        W90072  38.921  28.177  11.413
20258W        W90073  33.042  35.994  10.505
20259W        W90074  33.121   6.260  12.490
20260W        W90075  32.568   5.918   1.912
20261W        W90076  14.729  32.500   4.331
20262W        W90077  17.261  27.163   1.244
20263W        W90078  24.165   0.869   2.264
20264W        W90079  34.524  34.989  13.509
20265W        W90080   4.313  37.465  10.555
20266W        W90081  11.760  19.615  14.375
20267W        W90082  24.170   7.780   4.679
20268W        W90083  25.590  11.301  10.105
20269W        W90084   7.340  13.224   1.760
20270W        W90085   2.818   1.956  13.900
20271W        W90086   0.833  28.570   1.899
20272W        W90087   5.745  23.727   3.238
20273W        W90088  44.965  33.965  12.871
20274W        W90089   9.762  37.913  12.060
20275W        W90090  16.279  36.549  12.094
20276W        W90091  23.664  21.050  13.396
20277W        W90092  38.422  27.079  11.414
20278W        W90093   0.899  25.015   0.773
20279W        W90094  17.641  36.357   4.213
20280W        W90095   3.900  32.481  11.001
20281W        W90096  11.762  10.220   1.242
20282W        W90097  14.670  33.980  10.981
20283W        W90098  29.512  10.283  11.111
20284W        W90099  38.951  24.057  11.007
20285W        W90100  30.631  39.929  11.478
20286W        W90101  17.149  24.046   0.825
20287W        W90102  35.528  39.044   3.791
20288W        W90103   4.417   2.890   0.428
20289W        W90104  25.190  40.845  12.542
20290W        W90105  21.103  35.456  13.524
20291W        W90106  21.553  26.630   2.339
20292W        W90107  13.118  34.969   4.314
20293W        W90108  13.798  24.504   2.895
20294W        W90109  13.118  30.476   3.277
20295W        W90110  20.046   3.346  12.497
20296W        W90111  11.731  33.910  13.413
20297W        W90112  11.850  21.658   0.929
20298W        W90113  11.326  36.969   4.345
20299W        W90114  22.197  44.348   4.804
20300W        W90115  12.125  33.608   4.320
20301W        W90116  38.325  38.831  11.894
20302W        W90117  19.617  17.672  14.821
20303W        W90118  10.374  44.327   1.363
20304W        W90119  36.404  21.093   0.481
20305W        W90120  27.459  22.092  11.612
20306W        W90121  39.965  32.418  13.845
20307W        W90122  15.731  10.186   4.666
20308W        W90123   7.412  36.436   3.660
20309W        W90124  24.481  12.199  11.862
20310W        W90125  25.190  19.056   2.664
20311W        W90126  41.532  20.701   1.871
20312W        W90127  28.653  36.841   3.334
20313W        W90128  10.776  35.887   2.350
20314W        W90129  33.380  30.557   3.287
20315W        W90130  34.558  29.576  12.882
20316W        W90131  30.921  21.569  10.629
20317W        W90132   5.225  12.332  14.286
20318W        W90133  30.032   9.752   1.832
20319W        W90134  17.215  41.310  11.440
20320W        W90135   8.220  21.025   1.757
20321W        W90136  31.027  33.611  13.438
20322W        W90137   3.265  33.979   2.382
20323W        W90138   4.762  29.605  14.362
20324W        W90139  25.122  44.358  11.477
20325W        W90140  23.593   5.854  11.979
20326W        W90141  36.052  26.200  13.813
20327W        W90142  41.487   1.820   2.275
20328W        W90143   8.368  15.663  11.488
20329W        W90144  29.058   7.373  11.931
20330W        W90145  37.424  24.130  10.983
20331W        W90146  29.633   9.294   3.257
20332W        W90147  25.038  22.015   1.753
20333W        W90148   1.280  19.755   1.256
20334W        W90149   4.873  12.291  14.429
20335W        W90150  43.345  11.836  10.052
20336W        W90151  35.368  29.937   2.837
20337W        W90152   4.236  43.986   2.791
20338W        W90153  39.431   0.851  14.444
20339W        W90154  40.912  14.337  13.919
20340W        W90155  32.133  36.468  11.575
20341W        W90156  42.943  44.345   1.383
20342W        W90157  29.978   6.417  12.357
20343W        W90158   9.364   1.243  12.552
20344W        W90159  33.422  31.461   2.825
20345W        W90160   0.900   0.789   3.241
20346W        W90161   9.230  22.062   2.278
20347W        W90162  42.405  17.258   1.210
20348W        W90163  33.391  36.061   1.309
20349W        W90164  17.714  20.547   1.919
20350W        W90165  11.709  29.953   3.158
20351W        W90166  30.030  26.565   4.301
20352W        W90167   8.836   6.251   3.659
20353W        W90168  44.756  43.816  14.400
20354W        W90169  14.189   3.740   4.676
20355W        W90170  33.920   8.250   1.374
20356W        W90171   7.910  43.854  12.500
20357W        W90172  40.410  21.017   0.774
20358W        W90173  15.639  30.433   3.753
20359W        W90174  28.668  28.049  14.409
20360W        W90175   9.149  21.597   3.190
20361W        W90176  28.160  43.957  13.510
20362W        W90177  12.656  29.021   3.347
20363W        W90178   5.317  31.464   1.834
20364W        W90179  36.959  33.904   0.948
20365W        W90180  43.457  41.965   1.229
20366W        W90181  39.051  12.845  11.575
20367W        W90182  12.710  33.494   3.784
20368W        W90183   8.792  37.036  12.017
20369W        W90184  38.064  30.537   2.849
20370W        W90185   2.765  15.085   4.148
20371W        W90186  14.253  28.489  10.468
20372W        W90187  39.950  29.585   0.889
20373W        W90188  30.645  41.305  11.077
20374W        W90189  36.945  28.561   4.650
20375W        W90190   8.851  24.701  14.905
20376W        W90191  30.553   3.923  14.991
20377W        W90192   8.797  12.835   1.303
20378W        W90193  23.561   5.690  14.469
20379W        W90194  17.236  41.952  11.566
20380W        W90195  24.599  35.008  14.514
20381W        W90196   0.263   0.876   4.781
20382W        W90197  23.036  30.446   3.790
20383W        W90198   0.947   5.223  12.966
20384W        W90199  34.415   1.284  12.360
20385W        W90200  41.450  23.583  14.826
20386W        W90201  44.009   1.786  14.406
20387W        W90202  36.892  18.754  14.398
20388W        W90203  38.422  41.864   0.374
20389W        W90204  44.316  28.593  12.436
20390W        W90205  36.374  28.451   2.749
20391W        W90206  13.780  39.842  11.507
20392W        W90207  31.988  28.012   2.295
20393W        W90208  43.380  11.278  14.359
20394W        W90209  17.259  26.170   4.694
20395W        W90210  25.477  32.971   4.763
20396W        W90211  22.681  28.552  13.975
20397W        W90212  35.056  15.713   4.158
20398W        W90213  17.132  32.064   1.710
20399W        W90214  21.246  13.303   1.217
20400W        W90215  19.265  10.660  11.014
20401W        W90216   3.461  37.339  11.583
20402W        W90217   1.761  41.039  14.296
20403W        W90218  24.654  43.277   4.749
20404W        W90219  39.554  29.084   4.316
20405W        W90220  18.113  30.621  11.860
20406W        W90221   7.851  26.661   5.288
20407W        W90222  14.624  22.224   1.720
20408W        W90223  37.483  15.168  11.115
20409W        W90224  40.846  16.194   9.451
20410W        W90225  10.635  35.490   3.307
20411W        W90226  39.940  11.289  11.437
20412W        W90227  39.936  13.757   2.231
20413W        W90228  14.637  28.512   1.340
20414W        W90229   4.298  38.528  12.507
20415W        W90230   0.857   5.774   0.287
20416W        W90231   0.943  28.958   2.755
20417W        W90232  17.640   9.198   0.899
20418W        W90233  32.625  15.604  13.473
20419W        W90234  17.762  30.499  12.860
20420W        W90235  15.115  32.077   3.847
20421W        W90236  22.662  41.998  12.877
20422W        W90237  16.740  39.415   2.727
20423W        W90238   4.304  16.227   1.785
20424W        W90239  41.492  13.713   3.357
20425W        W90240  35.532   2.384  13.936
20426W        W90241  18.227  37.906  11.951
20427W        W90242   5.741  36.552   2.338
20428W        W90243  29.111  30.534  12.015
20429W        W90244  44.289   8.690   1.838
20430W        W90245  17.150   2.234  14.872
20431W        W90246  14.723  12.327   0.447
20432W        W90247  31.925  11.829   4.157
20433W        W90248   6.321  42.006  12.913
20434W        W90249  18.207  37.011  11.943
20435W        W90250   5.240   3.879   2.192
20436W        W90251  14.715  21.214   4.316
20437W        W90252  30.423  11.664  13.797
20438W        W90253  41.382   6.773   3.788
20439W        W90254  18.770  32.136  10.942
20440W        W90255  14.605  31.417   3.189
20441W        W90256  18.598  14.282  13.493
20442W        W90257  19.078  31.022  13.453
20443W        W90258  12.846  42.376   3.824
20444W        W90259  21.100   5.756   0.357
20445W        W90260  38.010  37.388   1.280
20446W        W90261   4.897  32.945  14.328
20447W        W90262  22.237  36.917  13.321
20448W        W90263  38.332  12.182   0.363
20449W        W90264  23.520  14.833  13.033
20450W        W90265  37.864  36.523  13.324
20451W        W90266  16.756   8.203  14.915
20452W        W90267  18.261  42.459  11.427
20453W        W90268  25.999  20.736   3.246
20454W        W90269  12.725   4.717  15.000
20455W        W90270  40.805  33.437   3.678
20456W        W90271  21.685  11.665   1.782
20457W        W90272  30.469   9.387  14.800
20458W        W90273  37.856  19.203   4.287
20459W        W90274  23.025   0.801  11.464
20460W        W90275  19.738  36.464   4.831
20461W        W90276  31.512  13.208  14.787
20462W        W90277  34.563   0.406  11.467
20463W        W90278  21.253   3.364   0.786
20464W        W90279  39.020  24.714   0.385
20465W        W90280   8.738  18.641  14.776
20466W        W90281  29.116  31.477  11.885
20467W        W90282  42.332   4.854  10.474
20468W        W90283  37.367  18.761   0.422
20469W        W90284  14.242  23.154   3.363
20470W        W90285  44.760   2.818  11.608
20471W        W90286  22.604  11.747  13.819
20472W        W90287  38.996  36.085   2.284
20473W        W90288  30.990  19.132  11.016
20474W        W90289  39.837  20.126   0.428
20475W        W90290   1.434  32.560  10.986
20476W        W90291   9.663  34.979   4.255
20477W        W90292  44.946  38.414  13.927
20478W        W90293   0.298  15.179  12.899
20479W        W90294  34.460  31.541  10.152
20480W        W90295  41.324  24.714   4.697
20481W        W90296  15.120  10.827   3.341
20482W        W90297  35.469  28.111   1.331
20483W        W90298  29.477  25.602  11.061
20484W        W90299  35.059  43.913  12.952
20485W        W90300   4.888   3.846  11.429
20486W        W90301  30.976  11.667  13.938
20487W        W90302  33.384  12.148   2.372
20488W        W90303  22.236  32.019   2.770
20489W        W90304  15.317  14.813  12.476
20490W        W90305  25.983  19.539  10.985
20491W        W90306  41.459  37.863   3.655
20492W        W90307   5.381  30.155  14.484
20493W        W90308  35.535  26.969   2.707
20494W        W90309   5.702  26.103   2.330
20495W        W90310  32.011   7.286  11.468
20496W        W90311  31.521   4.788  11.580
20497W        W90312   2.753  29.624  12.471
20498W        W90313  20.684  23.543   0.402
20499W        W90314   0.810  32.519   4.834
20500W        W90315  14.705  14.690  12.967
20501W        W90316  31.940   1.843  14.300
20502W        W90317  41.866   4.359  10.893
20503W        W90318  40.936  23.212   2.354
20504W        W90319   0.444  42.281  13.992
20505W        W90320  36.588   9.837  14.945
20506W        W90321  11.283  44.918  12.846
20507W        W90322  34.109  39.898   1.726
20508W        W90323  41.023  24.054  14.924
20509W        W90324  15.702  25.159   1.767
20510W        W90325  14.670   7.718   2.381
20511W        W90326  34.960  33.982  12.888
20512W        W90327   6.769  15.656   0.802
20513W        W90328  30.909  34.482   0.918
20514W        W90329  24.983  29.931   0.347
20515W        W90330   2.327  13.258   4.302
20516W        W90331  44.274  20.606   4.724
20517W        W90332  20.559  25.559   1.917
20518W        W90333  20.683  14.663   4.205
20519W        W90334  30.925  16.799  12.392
20520W        W90335   0.945  14.788  11.065
20521W        W90336   7.667  25.574   4.275
20522W        W90337  18.102  29.160   3.792
20523W        W90338  23.037  18.229   1.285
20524W        W90339  22.578  34.961  12.900
20525W        W90340  23.023  26.638  13.307
20526W        W90341  36.525  43.817   3.750
20527W        W90342  25.010  20.038  12.972
20528W        W90343  40.398  36.090  10.433
20529W        W90344  33.054   5.259  12.551
20530W        W90345  39.479  29.465  11.065
20531W        W90346  43.954  30.944  11.503
20532W        W90347   2.838  30.019  13.351
20533W        W90348  31.501   9.200   1.304
20534W        W90349  26.139  13.768  11.032
20535W        W90350   7.909  31.603  13.455
20536W        W90351  21.065  10.358   2.831
20537W        W90352   7.904  30.601   0.843
20538W        W90353  13.310  15.588  14.929
20539W        W90354  22.686  19.099  10.596
20540W        W90355   1.366  22.178  13.536
20541W        W90356  23.167  22.135  13.047
20542W        W90357  25.628  27.490  14.303
20543W        W90358  26.090   6.918   3.816
20544W        W90359  44.317  26.068   4.314
20545W        W90360  40.950  23.099  13.868
20546W        W90361   2.351  39.819   3.749
20547W        W90362  24.211   7.679   0.939
20548W        W90363  37.001  28.940   1.345
20549W        W90364   6.889   2.938   1.421
20550W        W90365  33.432   6.808   4.769
20551W        W90366   9.241  27.110  13.049
20552W        W90367  42.020  13.653  10.496
20553W        W90368  29.966  42.499   1.306
20554W        W90369  29.946  14.687   0.347
20555W        W90370  35.442  32.043   4.820
20556W        W90371  26.061  20.197   0.242
20557W        W90372  44.445  13.250  12.518
20558W        W90373   4.911   5.778   0.292
20559W        W90374  23.569  24.183   1.720
20560W        W90375  28.051   3.904   0.763
20561W        W90376   7.906  27.193   1.411
20562W        W90377  11.827   8.224  14.323
20563W        W90378  43.776  16.810  13.359
20564W        W90379  31.475  22.665  14.351
20565W        W90380   5.245  11.186  14.279
20566W        W90381  10.673  34.406  10.890
20567W        W90382  13.161  33.883   2.672
20568W        W90383   7.797  13.203   4.324
20569W        W90384  10.715   4.714  14.940
20570W        W90385  41.041   9.702  11.538
20571W        W90386  28.680   8.327  10.598
20572W        W90387  41.786  37.572   3.367
20573W        W90388  18.601  30.442  10.620
20574W        W90389  40.541  37.578  14.014
20575W        W90390  41.824  16.290  10.072
20576W        W90391   3.391  36.548  14.867
20577W        W90392  38.539  28.932  12.937
20578W        W90393  43.006  25.074  10.121
20579W        W90394  19.233  31.556  11.564
20580W        W90395  37.905   2.805  14.453
20581W        W90396   9.873  41.354  13.011
20582W        W90397   8.309  41.887  11.909
20583W        W90398   9.153  24.685  12.523
20584W        W90399  36.859  11.354  10.951
20585W        W90400  21.175  15.120   2.222
20586W        W90401  13.223  14.713   4.251
20587W        W90402  13.743   7.189   3.657
20588W        W90403  11.336  10.215  14.016
20589W        W90404  18.236  43.810  11.032
20590W        W90405   0.974   1.834  13.855
20591W        W90406  10.850  40.423   0.898
20592W        W90407  42.822   5.928   1.279
20593W        W90408  29.462  34.102   3.205
20594W        W90409  17.245  23.021  13.940
20595W        W90410  19.652  42.481   0.355
20596W        W90411  24.589  40.310   1.254
20597W        W90412  34.889   3.305  12.972
20598W        W90413  13.602  29.633  13.005
20599W        W90414  26.187  34.425   4.189
20600W        W90415   8.310   5.841  12.942
20601W        W90416  25.511  40.914   9.508
20602W        W90417   5.763   5.367  11.960
20603W        W90418  42.314  32.061  14.377
20604W        W90419   7.810  25.690  12.888
20605W        W90420  43.881  11.717   0.430
20606W        W90421  30.125   6.798  10.926
20607W        W90422  35.912  11.643   4.179
20608W        W90423  24.519   6.771   2.406
20609W        W90424  41.945   6.189   4.199
20610W        W90425  37.955  30.506  13.434
20611W        W90426  27.994  25.613   1.350
20612W        W90427  16.610   0.358   4.701
20613W        W90428  37.935   6.806   5.221
20614W        W90429  12.816   0.272   4.335
20615W        W90430  11.157  40.970  11.967
20616W        W90431  29.449  27.457   0.438
20617W        W90432  33.894  25.103  11.522
20618W        W90433  44.324  39.422  14.454
20619W        W90434  25.553  19.655  10.515
20620W        W90435  23.175  17.083  13.004
20621W        W90436  30.586  23.509   2.748
20622W        W90437  31.549  23.167   3.778
20623W        W90438   8.398  12.804  12.374
20624W        W90439  42.031   8.217  14.853
20625W        W90440  40.310  35.386   0.747
20626W        W90441   9.769   7.787  14.987
20627W        W90442  17.119  15.604   2.208
20628W        W90443  20.052  26.466   1.306
20629W        W90444   6.823  39.009   0.752
20630W        W90445   4.840  30.493  13.467
20631W        W90446  25.179  19.257  11.100
20632W        W90447  25.586  15.798  11.091
20633W        W90448  34.060  16.192   1.872
20634W        W90449   5.264  15.159   3.669
20635W        W90450  39.519  22.239   4.192
20636W        W90451  11.734   7.733   4.349
20637W        W90452  24.642  35.395   0.888
20638W        W90453   6.694  25.126   2.796
20639W        W90454   1.274  18.765   4.151
20640W        W90455  19.539  17.576  11.997
20641W        W90456   3.450   3.368  12.555
20642W        W90457  32.980  11.198  11.554
20643W        W90458  19.594  17.293  11.524
20644W        W90459  22.597   4.373   4.781
20645W        W90460  40.029  38.837   4.650
20646W        W90461   6.253   3.371  12.567
20647W        W90462  11.692  39.951   0.268
20648W        W90463  20.265   7.902  12.072
20649W        W90464  44.923  23.056   3.846
20650W        W90465  25.478  44.935  11.068
20651W        W90466  18.130  13.630   1.745
20652W        W90467  22.222  13.699  12.476
20653W        W90468  11.817  34.501   1.799
20654W        W90469  16.261   4.849   1.816
20655W        W90470  32.904  35.034  11.911
20656W        W90471  28.522  14.211  13.803
20657W        W90472  32.577   4.763   1.401
20658W        W90473   3.412  31.121  13.512
20659W        W90474  10.837  24.992   0.255
20660W        W90475   5.761  32.468  11.437
20661W        W90476  15.692  44.377   5.165
20662W        W90477  23.502  27.528   3.643
20663W        W90478  44.777  27.079   3.801
20664W        W90479  17.155   1.284   0.951
20665W        W90480  31.019  17.656   1.760
20666W        W90481  44.265  24.211  14.769
20667W        W90482  21.702   2.348   4.168
20668W        W90483  24.597  34.082  14.792
20669W        W90484   5.782  13.201  13.439
20670W        W90485  21.249  24.607   0.937
20671W        W90486   3.776  29.944   0.957
20672W        W90487  17.304  22.048   4.715
20673W        W90488  21.035  43.903   3.651
20674W        W90489  17.763  12.628   4.748
20675W        W90490  12.619   0.285   2.259
20676W        W90491  20.536  22.036   0.736
20677W        W90492  36.933   2.370  13.827
20678W        W90493   7.839  20.663   1.826
20679W        W90494  32.561  38.558   3.243
20680W        W90495  26.154  33.439   4.717
20681W        W90496  20.201  29.433   2.856
20682W        W90497  30.913  31.968  12.091
20683W        W90498  19.654   6.361  11.449
20684W        W90499  32.535  34.070   3.253
20685W        W90500  18.295   0.489   3.676
20686W        W90501   5.774  30.071   3.189
20687W        W90502   1.916  30.149  11.995
20688W        W90503  14.812  15.122  11.976
20689W        W90504  42.521  36.950   0.776
20690W        W90505  13.261  18.681  12.381
20691W        W90506  38.569  18.639  13.849
20692W        W90507  29.022  17.801  14.028
20693W        W90508  23.028  33.562  10.596
20694W        W90509  40.412  25.493   0.788
20695W        W90510  31.532  19.102   2.738
20696W        W90511   0.815  14.149   4.795
20697W        W90512   9.731   2.763   1.396
20698W        W90513  29.164  21.067  14.919
20699W        W90514  22.618  27.504   3.208
20700W        W90515   4.701  40.857  14.767
20701W        W90516  19.539  39.386  12.922
20702W        W90517   4.428  34.579   0.742
20703W        W90518  37.560   6.402   5.171
20704W        W90519   6.738  37.926  11.533
20705W        W90520  40.849  25.535   3.680
20706W        W90521  34.406   5.369   2.748
20707W        W90522  21.744  44.961   4.324
20708W        W90523   0.474  23.565  12.077
20709W        W90524  44.978  27.106   4.800
20710W        W90525  32.133   0.766   2.270
20711W        W90526  42.954  32.059   2.790
20712W        W90527  10.828   0.279   1.290
20713W        W90528  36.372  44.344   2.352
20714W        W90529  17.282  38.006  11.391
20715W        W90530  28.960  39.402  11.944
20716W        W90531   9.716  24.151   0.814
20717W        W90532  11.707  14.191   1.315
20718W        W90533  20.095  25.483  12.078
20719W        W90534   8.721  25.567  11.067
20720W        W90535   9.233   4.313  14.453
20721W        W90536   5.431  15.128  14.456
20722W        W90537   5.424  28.103   0.370
20723W        W90538   5.708   0.844  10.593
20724W        W90539   2.772  27.616  13.909
20725W        W90540  29.474   2.363   0.394
20726W        W90541  29.523  39.532   3.816
20727W        W90542  11.769  19.562   5.225
20728W        W90543  39.896  21.188   2.412
20729W        W90544  32.553  35.460  10.972
20730W        W90545  42.482   6.422   0.394
20731W        W90546   3.791  17.077   3.837
20732W        W90547  11.679  23.207   1.703
20733W        W90548   2.313  14.771  12.557
20734W        W90549   3.215  42.936   4.216
20735W        W90550  10.327  17.289  13.842
20736W        W90551  38.418  24.551  13.834
20737W        W90552  15.670  39.353   1.920
20738W        W90553  15.254  43.787   2.237
20739W        W90554  20.766  34.982   1.728
20740W        W90555  27.679  40.392   2.673
20741W        W90556  13.201   9.307   2.802
20742W        W90557  39.017  13.838   3.221
20743W        W90558  28.537   8.323  14.398
20744W        W90559  39.395  43.433  13.503
20745W        W90560  23.664  44.798  11.453
20746W        W90561  33.877  13.828   4.162
20747W        W90562  21.158  44.877   0.404
20748W        W90563  38.501  27.153  12.016
20749W        W90564  34.913  21.204  11.046
20750W        W90565  40.037   4.434   2.708
20751W        W90566  38.414  21.062   2.206
20752W        W90567  17.094  24.125   2.820
20753W        W90568  11.756  19.052   4.803
20754W        W90569  34.586  20.686  14.920
20755W        W90570  34.059   3.810   2.242
20756W        W90571  26.568  19.044  14.473
20757W        W90572   3.824  36.045   3.855
20758W        W90573   9.647  31.433  10.611
20759W        W90574  28.012  15.669  13.925
20760W        W90575  32.485  38.997  14.365
20761W        W90576  34.527  34.412  10.544
20762W        W90577  39.940   9.328  13.883
20763W        W90578  10.804  17.731  13.987
20764W        W90579  15.619  22.600  14.011
20765W        W90580  32.571  18.245   4.610
20766W        W90581   7.355   1.245  14.423
20767W        W90582   8.714  15.230  14.816
20768W        W90583   3.322  26.087   4.641
20769W        W90584  29.154   0.841   1.838
20770W        W90585  44.825  36.928  14.395
20771W        W90586   3.730  24.493   1.450
20772W        W90587  38.074  19.664   1.419
20773W        W90588   3.774  35.603   3.662
20774W        W90589  23.567  40.829   4.809
20775W        W90590  21.024  36.452  11.539
20776W        W90591   3.811   0.468   5.281
20777W        W90592  24.606  39.421   3.769
20778W        W90593  10.148  14.769   4.801
20779W        W90594  26.196  20.524   3.700
20780W        W90595  18.701  36.528   4.343
20781W        W90596  15.701  17.279   1.447
20782W        W90597  39.995  40.921  10.601
20783W        W90598  29.433  36.068  13.968
20784W        W90599  15.703  29.034  11.578
20785W        W90600   5.803  23.549   0.945
20786W        W90601  40.400  36.391   1.875
20787W        W90602  37.442   6.181  10.895
20788W        W90603  26.639  33.601   1.695
20789W        W90604  13.727  26.963  11.444
20790W        W90605  43.985  28.019   2.335
20791W        W90606  20.697  41.358  14.483
20792W        W90607  35.932  17.072  12.901
20793W        W90608  33.439  41.323   0.316
20794W        W90609  15.651  40.828  12.399
20795W        W90610  25.102  44.459  13.496
20796W        W90611  25.218  32.088  11.094
20797W        W90612  12.782   6.855   1.818
20798W        W90613  28.531  18.584   3.674
20799W        W90614  16.806  20.638  13.956
20800W        W90615  16.124   6.414   2.762
20801W        W90616  40.387  13.343   0.308
20802W        W90617  17.129  21.160   5.315
20803W        W90618  41.980  34.917   3.703
20804W        W90619  41.436  34.892  13.972
20805W        W90620  44.925   7.880   0.359
20806W        W90621  38.463  23.637   3.668
20807W        W90622  37.401  16.158  12.884
20808W        W90623  39.548  14.827  14.458
20809W        W90624  21.681   5.877   3.205
20810W        W90625   7.729  15.659   2.826
20811W        W90626   8.222  34.047  14.022
20812W        W90627   8.770  15.184  14.423
20813W        W90628  32.499  30.160   3.794
20814W        W90629  36.482   8.862   4.751
20815W        W90630  10.281  14.289   4.320
20816W        W90631  21.072   2.246  11.066
20817W        W90632  35.108  39.814  13.918
20818W        W90633  26.661  14.280  14.841
20819W        W90634  31.537   4.389   4.720
20820W        W90635  24.057  26.467   1.784
20821W        W90636  20.582  18.114   4.765
20822W        W90637  24.574  32.065  10.506
20823W        W90638  13.668  41.445  11.441
20824W        W90639  24.081  44.487   5.204
20825W        W90640  12.855   9.180   0.355
20826W        W90641  12.153  13.194   3.702
20827W        W90642   4.930  23.706  14.489
20828W        W90643  15.629  15.805   3.696
20829W        W90644  36.862  31.565   1.834
20830W        W90645  43.922  21.607  13.864
20831W        W90646  17.304   6.373   2.288
20832W        W90647   6.765  17.574  13.891
20833W        W90648  10.316  37.995   0.404
20834W        W90649  27.003  17.297   4.304
20835W        W90650  40.936  21.181  11.587
20836W        W90651   5.689  16.172   3.186
20837W        W90652  16.632  13.695  12.007
20838W        W90653  23.673  43.937  14.956
20839W        W90654  36.939  26.080   3.639
20840W        W90655  17.255  24.717  12.091
20841W        W90656  36.011  40.003  14.372
20842W        W90657  16.133  17.113   2.407
20843W        W90658  21.634  40.924   1.803
20844W        W90659   8.393  42.804  12.505
20845W        W90660   8.309  20.548   4.285
20846W        W90661  12.220  24.025   4.662
20847W        W90662   5.717  33.507   2.679
20848W        W90663  20.681  14.612   4.633
20849W        W90664  18.136  41.310   3.640
20850W        W90665  13.647  10.786  11.561
20851W        W90666  16.167  25.611  10.923
20852W        W90667  24.010   4.796   3.375
20853W        W90668   2.376  37.514   0.291
20854W        W90669  16.575  18.225   0.739
20855W        W90670  33.954  23.670   3.241
20856W        W90671   2.345  38.004  12.873
20857W        W90672  36.936  44.859   2.813
20858W        W90673  42.485  27.062  11.479
20859W        W90674   9.304   0.287  10.017
20860W        W90675  34.048  20.701  11.865
20861W        W90676  13.168  35.491   4.146
20862W        W90677  24.131  44.397  12.483
20863W        W90678  34.063   8.237  12.529
20864W        W90679  44.756   6.377   2.868
20865W        W90680  20.575  14.292   3.865
20866W        W90681  27.681  26.703   0.336
20867W        W90682  41.502  22.547   4.774
20868W        W90683  10.691  32.616  12.989
20869W        W90684  37.420   9.192  12.966
20870W        W90685   6.822  32.056  10.993
20871W        W90686   6.199  26.461   1.368
20872W        W90687  26.964  19.691   4.301
20873W        W90688  12.255   1.268   0.955
20874W        W90689   5.293   5.232  13.014
20875W        W90690  11.767  40.374   0.413
20876W        W90691   2.293  19.054  14.988
20877W        W90692   0.857  28.930   1.905
20878W        W90693  42.495  21.530   3.812
20879W        W90694   4.702  29.504   0.940
20880W        W90695  38.565  37.830  14.801
20881W        W90696  14.094  36.965   1.284
20882W        W90697   9.652  36.969   4.274
20883W        W90698  41.342  36.464  14.802
20884W        W90699  30.631  30.540   1.448
20885W        W90700   0.377  35.579  12.558
20886W        W90701  13.222  24.661  14.772
20887W        W90702  25.055  33.916  11.375
20888W        W90703  35.513  25.107   1.847
20889W        W90704  21.145  17.694  14.771
20890W        W90705  13.640  22.525   0.912
20891W        W90706  42.796  15.108   4.797
20892W        W90707   4.298  27.987  12.885
20893W        W90708  43.501  39.991   4.808
20894W        W90709  39.983  35.066   4.827
20895W        W90710  21.560  36.393  11.413
20896W        W90711  22.635   5.413  12.412
20897W        W90712   6.417  16.184   0.308
20898W        W90713  18.746  12.750   0.250
20899W        W90714  17.179  30.118  12.527
20900W        W90715  30.580  11.139  11.408
20901W        W90716  37.399  24.558  10.431
20902W        W90717  13.729  26.698  11.093
20903W        W90718  36.985   8.276   4.779
20904W        W90719   0.815   9.855   2.253
20905W        W90720   3.903  13.294  10.561
20906W        W90721  41.398  41.789  14.999
20907W        W90722  40.377  13.293   0.726
20908W        W90723  30.428  27.576  10.574
20909W        W90724  36.353   3.364   3.338
20910W        W90725  18.654  10.284   1.934
20911W        W90726  19.200  17.724   0.744
20912W        W90727  37.902  38.041   2.794
20913W        W90728  16.252  17.705  13.343
20914W        W90729  42.387   9.709   1.251
20915W        W90730  43.781  35.955   0.869
20916W        W90731  43.931  29.068   4.603
20917W        W90732  10.788  17.236   3.802
20918W        W90733   0.920   0.989   2.190
20919W        W90734  22.022   1.358   0.935
20920W        W90735   8.876  21.098   5.191
20921W        W90736  41.036  35.919  11.112
20922W        W90737  33.482  29.158   1.286
20923W        W90738  40.467  44.318  11.944
20924W        W90739  35.978  14.113   3.869
20925W        W90740  24.680   3.807  12.409
20926W        W90741  38.355   5.275  10.926
20927W        W90742  18.672  12.830  11.466
20928W        W90743  28.983  18.270   0.434
20929W        W90744  36.567  26.008   2.682
20930W        W90745  23.530   1.259   1.242
20931W        W90746  24.041  15.628  14.782
20932W        W90747  30.011  10.723  14.029
20933W        W90748  30.477  16.208   0.304
20934W        W90749  23.224  31.402  14.292
20935W        W90750  34.457   3.779   4.678
20936W        W90751  14.118  27.581  11.526
20937W        W90752  17.129   0.826   2.739
20938W        W90753  14.645  13.106   2.269
20939W        W90754  22.171  18.673   4.693
20940W        W90755   1.743  18.676  12.575
20941W        W90756  33.601  10.372  10.461
20942W        W90757  36.567   3.229  14.985
20943W        W90758   7.828  44.375  14.353
20944W        W90759  36.875  34.539  10.562
20945W        W90760  35.859   2.853  11.507
20946W        W90761  10.255   3.859  10.919
20947W        W90762  22.102  18.554  13.870
20948W        W90763   1.358   2.274   3.329
20949W        W90764  34.962  20.171   4.154
20950W        W90765  29.546   2.947   1.335
20951W        W90766  40.547  37.058  12.372
20952W        W90767  18.248  14.207  14.338
20953W        W90768   7.733   2.756  10.450
20954W        W90769   9.278  14.276  14.488
20955W        W90770  37.841   9.372   2.694
20956W        W90771   6.767  36.098   3.157
20957W        W90772  38.901   1.731  14.379
20958W        W90773   5.799  27.564  12.340
20959W        W90774  38.558  22.684   0.895
20960W        W90775  41.298   7.899   2.184
20961W        W90776   9.859  28.029   3.331
20962W        W90777   9.306  17.198  11.992
20963W        W90778  13.787  27.978  14.853
20964W        W90779  11.241  22.666  12.443
20965W        W90780   9.646  28.134  13.959
20966W        W90781  13.270  33.997  13.939
20967W        W90782  18.664  38.480  11.868
20968W        W90783  31.973   0.766   1.806
20969W        W90784  33.463   3.404   2.800
20970W        W90785   9.205  37.986  11.096
20971W        W90786   1.872  12.238   0.387
20972W        W90787  17.082  14.700  11.977
20973W        W90788  38.018  10.300   3.851
20974W        W90789  20.201  23.134  11.858
20975W        W90790  13.177   8.875  11.980
20976W        W90791  12.642  19.051   1.839
20977W        W90792  32.414   0.281   3.293
20978W        W90793   4.918  42.968  13.826
20979W        W90794  29.543  22.232   0.962
20980W        W90795  43.940  27.626  11.565
20981W        W90796  31.440  43.334  13.910
20982W        W90797   5.305  37.955   4.265
20983W        W90798  18.128  44.349   4.130
20984W        W90799  31.986   6.230  11.030
20985W        W90800  13.329  36.481  14.444
20986W        W90801  27.965   9.213   4.807
20987W        W90802  16.244  35.579  11.876
20988W        W90803  42.339   3.815  14.846
20989W        W90804  13.806   1.921  11.973
20990W        W90805  31.626  31.106  12.064
20991W        W90806  11.761  38.483  10.566
20992W        W90807  41.886  31.495  11.386
20993W        W90808  20.137  33.990  13.342
20994W        W90809  19.680  40.521   4.313
20995W        W90810  16.190   4.796  12.458
20996W        W90811   6.270   7.256   9.953
20997W        W90812   9.187  40.037  11.126
20998W        W90813  10.339   5.247   1.774
20999W        W90814  25.123  35.995  13.034
21000W        W90815  35.939   8.341   1.696
21001W        W90816  24.230  42.330   3.207
21002W        W90817  37.411   3.750   3.793
21003W        W90818  13.648  21.730  11.585
21004W        W90819  44.489  21.105   4.691
21005W        W90820  19.213  21.749   1.310
21006W        W90821   6.237  16.159  14.348
21007W        W90822   4.244  15.316  12.448
21008W        W90823   7.735  36.415   3.841
21009W        W90824  27.546  38.375   3.172
21010W        W90825  31.476  30.604  12.556
21011W        W90826  27.034   3.817   0.433
21012W        W90827  35.439  17.704   3.253
21013W        W90828  17.203  17.102   1.444
21014W        W90829   5.880  22.200  10.432
21015W        W90830  18.680  27.171   0.736
21016W        W90831  42.304  41.459  11.594
21017W        W90832  11.273  41.905   3.371
21018W        W90833  41.403  17.164   5.083
21019W        W90834   7.678  16.801   9.936
21020W        W90835  31.468  36.923  13.873
21021W        W90836  32.600  40.540   0.457
21022W        W90837  39.030  32.527  14.959
21023W        W90838  16.762  32.536   4.295
21024W        W90839  13.105  37.414  11.946
21025W        W90840  43.921  41.326   2.777
21026W        W90841  28.472  18.606  13.807
21027W        W90842  37.399  42.800   2.190
21028W        W90843  17.596  39.526   1.271
21029W        W90844  34.581   9.259   1.934
21030W        W90845  35.461  26.994   1.787
21031W        W90846  17.698  31.528  13.046
21032W        W90847   6.336  11.627  11.472
21033W        W90848  42.345  37.907  10.954
21034W        W90849  35.874  29.459  10.909
21035W        W90850  23.501   0.488   0.473
21036W        W90851  22.532   5.257   2.903
21037W        W90852   1.245  36.965  13.024
21038W        W90853  31.032  12.637   2.689
21039W        W90854  29.986  24.146   2.773
21040W        W90855  44.978  10.364   3.746
21041W        W90856  15.725  15.211  13.955
21042W        W90857   7.866   2.361   1.850
21043W        W90858  10.798  25.153  14.434
21044W        W90859   0.306  40.882   3.756
21045W        W90860   7.204  13.818   2.369
21046W        W90861  28.573  11.209   4.216
21047W        W90862  20.179  39.377   2.723
21048W        W90863  20.186  36.987  11.894
21049W        W90864  14.282  21.061   0.967
21050W        W90865   0.945   4.806   5.178
21051W        W90866  33.111  41.935  14.274
21052W        W90867  14.788  44.470   2.331
21053W        W90868  26.023  10.735  13.542
21054W        W90869  11.250  42.343  11.447
21055W        W90870  18.787  20.738  13.464
21056W        W90871  23.632   8.831  11.405
21057W        W90872  28.487  31.434  13.351
21058W        W90873  23.729   2.946   3.821
21059W        W90874  37.912  34.596   3.666
21060W        W90875  15.118  42.329  11.926
21061W        W90876  27.093  29.163  11.384
21062W        W90877   8.358  44.918  10.617
21063W        W90878   7.417  18.184   1.398
21064W        W90879   0.763  44.495   0.800
21065W        W90880  19.602   0.455   1.818
21066W        W90881   6.296  19.757   3.785
21067W        W90882  31.923  23.657  14.472
21068W        W90883   8.698   7.755   3.744
21069W        W90884  36.007   1.317   1.703
21070W        W90885   0.772   1.936   0.836
21071W        W90886  26.592  44.917  11.909
21072W        W90887  23.530  41.797   2.414
21073W        W90888  32.494  42.843   4.278
21074W        W90889  31.943  25.567   0.250
21075W        W90890  26.208   6.879   0.289
21076W        W90891   9.250  17.278   1.254
21077W        W90892  41.962  28.529  14.782
21078W        W90893  28.090   6.380  11.545
21079W        W90894  27.594  33.474   1.777
21080W        W90895  13.676  18.779  11.870
21081W        W90896   7.201  12.137  14.389
21082W        W90897   7.226   5.204   3.169
21083W        W90898  38.042  35.574   0.890
21084W        W90899   7.350  33.392   2.253
21085W        W90900  31.984  22.726   2.878
21086W        W90901  42.398  40.802   2.753
21087W        W90902   9.801  16.116   3.811
21088W        W90903  13.341  23.146  10.449
21089W        W90904  20.746  39.909  10.623
21090W        W90905  44.817  19.141   3.266
21091W        W90906  16.246  30.071  12.536
21092W        W90907  29.969  44.293  12.576
21093W        W90908  39.361  33.021   4.644
21094W        W90909  13.342  21.728   0.857
21095W        W90910  23.689   3.940  13.469
21096W        W90911  11.277  33.606  10.920
21097W        W90912  31.620   3.925  11.434
21098W        W90913  29.626  17.190  10.407
21099W        W90914   6.317  11.644   0.765
21100W        W90915  19.655  43.013  12.465
21101W        W90916  37.875   4.741  11.085
21102W        W90917   8.718  42.893   3.739
21103W        W90918  15.799   9.150  10.485
21104W        W90919  30.635   0.895   5.129
21105W        W90920   5.204  40.014  11.467
21106W        W90921  40.957  14.134  12.454
21107W        W90922   1.328  19.712  12.548
21108W        W90923  42.784  21.153  12.953
21109W        W90924  28.941  39.456   0.891
21110W        W90925   4.394  43.501  14.016
21111W        W90926  40.046  20.723  10.453
21112W        W90927  44.873  33.921  11.989
21113W        W90928   5.801  42.872   3.771
21114W        W90929  19.641  32.052  10.592
21115W        W90930  25.494  10.333  10.940
21116W        W90931  38.066  30.484  12.456
21117W        W90932  19.638  24.657   4.678
21118W        W90933   8.703  20.761  13.415
21119W        W90934  10.682  17.289  12.036
21120W        W90935   9.800  42.402  11.547
21121W        W90936  39.024   5.221   3.305
21122W        W90937  20.253  15.594   3.199
21123W        W90938  41.876  44.911  12.934
21124W        W90939  43.019  44.879   1.362
21125W        W90940  26.561  27.979   3.784
21126W        W90941  12.685  33.523   2.856
21127W        W90942  25.020  18.722   2.217
21128W        W90943   3.811  37.948  11.488
21129W        W90944  22.224   1.792   1.789
21130W        W90945   7.178  16.799   3.320
21131W        W90946  23.110  16.661  12.521
21132W        W90947  25.588   0.755  10.957
21133W        W90948   6.313  21.634  13.393
21134W        W90949   6.817  19.748   0.290
21135W        W90950  42.937  43.333  11.372
21136W        W90951  27.487  19.190  13.979
21137W        W90952  37.907  17.689  14.892
21138W        W90953  24.172  17.077   3.220
21139W        W90954  21.736  38.568  11.054
21140W        W90955  35.934  43.352  14.838
21141W        W90956   3.306  32.625  12.949
21142W        W90957  28.933  10.371   2.196
21143W        W90958  27.040  27.170  12.348
21144W        W90959   9.208  20.669   3.287
21145W        W90960   6.896  39.414   4.695
21146W        W90961   5.213  39.906   0.959
21147W        W90962   4.824  10.652   2.242
21148W        W90963  37.863  33.480   3.373
21149W        W90964  34.875   1.831  13.848
21150W        W90965   0.956   7.734   3.182
21151W        W90966  42.797  33.072  11.449
21152W        W90967  33.053  17.182   2.254
21153W        W90968   9.751  38.009  11.555
21154W        W90969  42.461  33.502  10.497
21155W        W90970  14.782  36.896   1.412
21156W        W90971   5.287  28.534   1.709
21157W        W90972  15.132  38.474  12.573
21158W        W90973  25.975   2.225   3.681
21159W        W90974  33.030  15.615   2.358
21160W        W90975  41.421  44.764   2.680
21161W        W90976  36.355  32.621   3.264
21162W        W90977  36.850  37.028  11.048
21163W        W90978  22.632  38.371  13.307
21164W        W90979  20.205  16.290   0.417
21165W        W90980  29.458  25.080  13.522
21166W        W90981  20.659  31.424  14.383
21167W        W90982   1.852   4.276  12.040
21168W        W90983   6.317   5.823   0.413
21169W        W90984  31.526  27.198  14.031
21170W        W90985  20.257  22.113  13.810
21171W        W90986  14.728   8.893   4.756
21172W        W90987  28.133   2.352   3.738
21173W        W90988   0.264  13.831   1.798
21174W        W90989  10.151  15.630  12.895
21175W        W90990   5.791  23.585   1.748
21176W        W90991  40.995  41.304   0.922
21177W        W90992  43.908  19.096   2.279
21178W        W90993  16.667  22.649  13.529
21179W        W90994  43.862  28.645  10.435
21180W        W90995   1.768   6.325   0.427
21181W        W90996  41.991  43.493  14.930
21182W        W90997  17.698  27.032  12.535
21183W        W90998  40.310   4.250  14.302
21184W        W90999   1.968   2.737   0.822
21185W        W91000  35.455  14.825  12.937
21186W        W91001  22.728   4.443  14.280
21187W        W91002  12.709   6.236  10.415
21188W        W91003   8.757  17.061  10.514
21189W        W91004  22.731  40.397   5.200
21190W        W91005  15.121  29.175  11.430
21191W        W91006  38.413  21.625   2.396
21192W        W91007  38.440  37.417  12.363
21193W        W91008  27.057  44.448   3.811
21194W        W91009   7.276  38.541   2.714
21195W        W91010  38.381  11.249   0.438
21196W        W91011  20.191  17.255   0.464
21197W        W91012  22.040  17.230   0.790
21198W        W91013  33.125  43.941  12.992
21199W        W91014  10.260  40.894   0.451
21200W        W91015  14.286   1.304  12.354
21201W        W91016  43.308  35.540  13.849
21202W        W91017  18.770  32.099  11.998
21203W        W91018   2.752  29.957   2.196
21204W        W91019  13.256   5.793   1.786
21205W        W91020  38.512  29.668   2.355
21206W        W91021  11.311  29.595  12.363
21207W        W91022  16.775  11.297   1.876
21208W        W91023  32.956  35.950   4.276
21209W        W91024   1.869  15.710  12.341
21210W        W91025   4.388  42.286   3.871
21211W        W91026   0.261  30.468   3.641
21212W        W91027   4.362  35.103  11.094
21213W        W91028   4.909  17.151   3.193
21214W        W91029  18.153  13.248   0.351
21215W        W91030  29.579   9.737  11.537
21216W        W91031   9.770  25.188   4.279
21217W        W91032  12.647  26.543   5.274
21218W        W91033  11.336  36.527   4.157
21219W        W91034   9.868   5.817   4.774
21220W        W91035  19.717  29.468  13.363
21221W        W91036  22.677   9.370  13.381
21222W        W91037   6.197  16.212  11.417
21223W        W91038  24.178  33.067  10.630
21224W        W91039  10.179   8.791   4.161
21225W        W91040  40.350  35.588  11.400
21226W        W91041  14.642  17.775   4.728
21227W        W91042   3.331  11.240  11.970
21228W        W91043   4.914   8.397  13.905
21229W        W91044  28.018  39.878  11.591
21230W        W91045  14.742  30.114  13.906
21231W        W91046  13.808  25.053   1.828
21232W        W91047   4.400  42.437   4.213
21233W        W91048  40.800   5.372  13.027
21234W        W91049  35.571  23.034  11.401
21235W        W91050  36.582  36.418  11.875
21236W        W91051  16.624  21.691   0.362
21237W        W91052  32.982  39.323   2.799
21238W        W91053  20.151  43.411   5.647
21239W        W91054   7.762  33.586  11.609
21240W        W91055  12.302  29.586   2.364
21241W        W91056  26.088   0.460  11.591
21242W        W91057  22.653  31.427   3.152
21243W        W91058  34.089  21.520   0.864
21244W        W91059  24.659  16.151   2.825
21245W        W91060  42.963  41.006   2.752
21246W        W91061  42.794  25.181   3.149
21247W        W91062   0.749  19.117   0.726
21248W        W91063  20.635  42.835   2.306
21249W        W91064  12.197  18.262  11.461
21250W        W91065   9.705   2.775   3.682
21251W        W91066  26.118  23.554  12.988
21252W        W91067   8.776  14.186  12.478
21253W        W91068  35.527  17.730   1.852
21254W        W91069  17.080   7.338  10.122
21255W        W91070  36.543  10.159  10.511
21256W        W91071  19.168  43.944   0.324
21257W        W91072  29.065  34.418   2.727
21258W        W91073   9.860  40.007   3.779
21259W        W91074   8.247  31.135   2.320
21260W        W91075  41.950  29.117  10.576
21261W        W91076  10.227  18.708   5.090
21262W        W91077  32.049   6.361  14.785
21263W        W91078   3.773   6.861   1.735
21264W        W91079  13.639  16.237  11.960
21265W        W91080  18.102   8.328   1.341
21266W        W91081  29.938  26.474   3.241
21267W        W91082  26.611  35.989   4.193
21268W        W91083  30.958   6.280  11.027
21269W        W91084  20.647  10.851   3.210
21270W        W91085  42.903  26.974  12.497
21271W        W91086  24.082  26.074   3.841
21272W        W91087  20.111  19.681   3.869
21273W        W91088   9.238  39.433   2.221
21274W        W91089   4.777  16.625   4.613
21275W        W91090  18.228   4.871   3.334
21276W        W91091  38.501  36.970  12.989
21277W        W91092  18.155   4.419  11.408
21278W        W91093  21.525  20.537  11.957
21279W        W91094   4.811  42.457   2.218
21280W        W91095  33.103  18.791  12.511
21281W        W91096  30.130   6.263   0.420
21282W        W91097   5.741  15.230  11.462
21283W        W91098   0.945   8.377  12.060
21284W        W91099  31.485  11.824  10.510
21285W        W91100  44.295  41.884  10.602
21286W        W91101   1.435   7.669  14.003
21287W        W91102  16.789   1.830  14.488
21288W        W91103   1.407  18.681  14.417
21289W        W91104  37.966  41.994  14.831
21290W        W91105  41.877   7.178  12.456
21291W        W91106  14.813  19.157  14.494
21292W        W91107   2.770  15.588   0.792
21293W        W91108  28.671   1.306   2.839
21294W        W91109  44.379  34.518  11.087
21295W        W91110   0.966  38.056  14.990
21296W        W91111  25.706  33.507  12.860
21297W        W91112  32.443  29.044   4.117
21298W        W91113  12.172  23.169   1.370
21299W        W91114  13.792   0.419  12.892
21300W        W91115  44.355  39.898  12.417
21301W        W91116  30.656  30.107  11.429
21302W        W91117  35.601  11.621   0.819
21303W        W91118  36.437  17.274  10.525
21304W        W91119  11.701   5.902  10.899
21305W        W91120  28.667  26.002   4.762
21306W        W91121  27.485   0.866   2.782
21307W        W91122  35.054  19.615  13.917
21308W        W91123  38.452  34.533   1.850
21309W        W91124  42.811  17.061   4.771
21310W        W91125  33.486  30.102   9.979
21311W        W91126  10.231  44.329   0.351
21312W        W91127  18.278  22.607  14.770
21313W        W91128  41.500  20.210  12.562
21314W        W91129   8.341  16.802  14.374
21315W        W91130  31.935  13.814  10.498
21316W        W91131  42.400  38.986   1.404
21317W        W91132   5.774  29.644  13.511
21318W        W91133  19.066  36.350  11.467
21319W        W91134   9.167  23.093   2.286
21320W        W91135  22.065  26.166   3.182
21321W        W91136  17.069  22.034   1.307
21322W        W91137  20.569  38.060  12.425
21323W        W91138  30.959  16.088  14.461
21324W        W91139  19.061  32.531   2.797
21325W        W91140   1.794  27.659  12.958
21326W        W91141  41.309   9.764  12.449
21327W        W91142  35.886   1.901  10.466
21328W        W91143  25.974  25.966  10.582
21329W        W91144  34.032  18.060   4.251
21330W        W91145  43.395  28.561   4.249
21331W        W91146  26.671  21.172  12.072
21332W        W91147  11.739   2.440  10.931
21333W        W91148  19.669   2.333   4.207
21334W        W91149  24.063  30.449  10.639
21335W        W91150  27.090  15.662  12.882
21336W        W91151  41.979   6.813   2.697
21337W        W91152  23.638  20.245  14.313
21338W        W91153  12.849  37.009  11.872
21339W        W91154   7.819  20.176  12.053
21340W        W91155  27.173  40.947   0.484
21341W        W91156  22.246  34.461   0.350
21342W        W91157  16.578  22.059  11.613
21343W        W91158  33.540   1.812   9.940
21344W        W91159  10.857  43.770   0.459
21345W        W91160  40.390  32.628   4.190
21346W        W91161  26.668  17.659  13.449
21347W        W91162   2.784  27.940  12.958
21348W        W91163  11.234   4.929   4.350
21349W        W91164  26.983  28.963   1.232
21350W        W91165  24.492  24.204   2.826
21351W        W91166  10.267  44.937   0.924
21352W        W91167  17.770  14.326  12.519
21353W        W91168  44.321  10.832   3.683
21354W        W91169  32.587  33.101  14.849
21355W        W91170  17.190  27.607   3.796
21356W        W91171  39.453  42.802  14.398
21357W        W91172  32.625  23.573   5.123
21358W        W91173   1.414  40.892  11.475
21359W        W91174  21.100  44.492  14.844
21360W        W91175   4.874   0.952  11.928
21361W        W91176  24.078  13.703  13.993
21362W        W91177  32.448  44.428  10.061
21363W        W91178   1.424  12.641  10.899
21364W        W91179  17.243   3.356   9.966
21365W        W91180  38.900  24.128  13.371
21366W        W91181  26.140   7.384   3.330
21367W        W91182  34.876  32.456   1.842
21368W        W91183   5.378   0.876  11.092
21369W        W91184  27.664  38.530  11.960
21370W        W91185  25.078  11.643  12.932
21371W        W91186  27.450  21.113  10.512
21372W        W91187   9.857  20.162   3.174
21373W        W91188  35.903  38.840   1.900
21374W        W91189   1.382  19.632   2.359
21375W        W91190  23.157  25.051   3.204
21376W        W91191  11.678  35.492  12.877
21377W        W91192  37.045   9.179   1.290
21378W        W91193   9.162  41.303  14.315
21379W        W91194  22.693  20.254  10.531
21380W        W91195   5.338  38.381  11.975
21381W        W91196  18.679  20.680  14.948
21382W        W91197  43.862  20.768  12.900
21383W        W91198  35.560  24.591  10.579
21384W        W91199  25.537  33.995  11.434
21385W        W91200  29.466  17.130  10.908
21386W        W91201  32.020  27.026  14.999
21387W        W91202   3.882   3.826  10.521
21388W        W91203  22.056  31.442   0.406
21389W        W91204  44.404  28.035  14.857
21390W        W91205   7.411  25.630   1.352
21391W        W91206  10.342  26.470  11.447
21392W        W91207  17.771   0.774   2.272
21393W        W91208  32.920   8.318  11.397
21394W        W91209  10.327   0.367  12.924
21395W        W91210  32.619  19.061   2.800
21396W        W91211  10.321  23.221   2.896
21397W        W91212  29.968  38.325   2.416
21398W        W91213  37.377  28.157  11.962
21399W        W91214   5.747  29.455  11.122
21400W        W91215  37.031  38.545   4.123
21401W        W91216  40.333  19.583  14.383
21402W        W91217  15.710   6.279   4.140
21403W        W91218  16.249   5.695  13.479
21404W        W91219  25.558  15.328  14.285
21405W        W91220  37.535  39.950  14.004
21406W        W91221  14.640  35.398  12.884
21407W        W91222  34.407  26.015  12.919
21408W        W91223  16.212   2.402   0.818
21409W        W91224  15.710  14.322  12.393
21410W        W91225   2.317   9.211  11.480
21411W        W91226  19.284   2.845  14.892
21412W        W91227  34.943   9.648   4.729
21413W        W91228  30.538   3.711   2.353
21414W        W91229  25.481  11.863  13.008
21415W        W91230  37.998  26.952   0.405
21416W        W91231  37.994  29.088   5.163
21417W        W91232  43.359   7.713   3.314
21418W        W91233  42.309   7.381   2.715
21419W        W91234  15.098   0.751  12.890
21420W        W91235  28.534  42.834   1.866
21421W        W91236  25.150  40.866   5.116
21422W        W91237  42.915   6.913  11.542
21423W        W91238  19.230  41.402  13.470
21424W        W91239  20.555  14.698   2.754
21425W        W91240  20.630  44.467  10.430
21426W        W91241  25.582  41.986  14.810
21427W        W91242  29.159  10.170   0.396
21428W        W91243  30.985  39.483   2.277
21429W        W91244  21.700  10.326   1.309
21430W        W91245  30.477  27.447   4.223
21431W        W91246   6.821  44.380  10.061
21432W        W91247  15.722  42.361  14.830
21433W        W91248   0.950   3.903  10.573
21434W        W91249   5.194  23.513   2.239
21435W        W91250  10.767  39.336   4.131
21436W        W91251  24.069  22.211  13.402
21437W        W91252   4.333  18.713  14.500
21438W        W91253   6.423  27.941  13.323
21439W        W91254  36.563  41.424   1.704
21440W        W91255  42.863  33.437  13.052
21441W        W91256  43.320   6.396  10.472
21442W        W91257  27.080  37.955  11.454
21443W        W91258  37.980  28.513   2.293
21444W        W91259  37.347   1.874   3.709
21445W        W91260  29.078  31.615  12.547
21446W        W91261  30.991  33.573   2.731
21447W        W91262  31.066  23.731   1.255
21448W        W91263  21.702  12.126  13.363
21449W        W91264  28.542  37.949   2.817
21450W        W91265  21.748  11.261  11.596
21451W        W91266   3.342   2.260   2.773
21452W        W91267  33.492   5.901   1.380
21453W        W91268   0.389  25.513   1.865
21454W        W91269  11.205  31.988   4.772
21455W        W91270  39.402  34.598  14.485
21456W        W91271  42.333   3.362  13.502
21457W        W91272  16.687  29.039   2.827
21458W        W91273  25.217  28.676   4.766
21459W        W91274  27.013  27.982  13.328
21460W        W91275   2.915  10.824  14.427
21461W        W91276  16.119  10.670   1.893
21462W        W91277  15.305  25.674   4.681
21463W        W91278  35.855  41.511   4.225
21464W        W91279  20.723  14.131   1.333
21465W        W91280  39.529   8.799  13.326
21466W        W91281  28.677  40.508  11.440
21467W        W91282  37.889   0.944   9.953
21468W        W91283  36.391  15.239   4.822
21469W        W91284  39.881   8.274  13.882
21470W        W91285   6.382   4.428  11.126
21471W        W91286  44.927  44.484   1.818
21472W        W91287  16.108   8.160  12.411
21473W        W91288   4.281  16.222   4.332
21474W        W91289  29.000  29.613  10.595
21475W        W91290  40.395   3.927   3.216
21476W        W91291  13.789  34.403  13.467
21477W        W91292  11.236  38.331  11.409
21478W        W91293  42.318  38.418  14.354
21479W        W91294   6.787  13.171  14.834
21480W        W91295  24.707  10.195   1.332
21481W        W91296   9.222  39.462  10.513
21482W        W91297  36.929  23.580  14.919
21483W        W91298  31.137  13.682  10.940
21484W        W91299   3.758  13.162   0.813
21485W        W91300  21.530  37.559   3.709
21486W        W91301  14.210  40.960  13.935
21487W        W91302  26.965   4.230  14.858
21488W        W91303  32.135  18.755  13.910
21489W        W91304   3.339   1.815   3.279
21490W        W91305  30.957   1.238   0.425
21491W        W91306  19.139   9.856  14.787
21492W        W91307  22.674  40.842  11.510
21493W        W91308  34.455  36.510   2.721
21494W        W91309   2.884  22.501  12.551
21495W        W91310  43.818  22.110   3.289
21496W        W91311  36.012  25.125  14.397
21497W        W91312   4.287  20.589  10.449
21498W        W91313  29.176  15.173   1.265
21499W        W91314  38.846  24.145   5.186
21500W        W91315  13.758  18.607   3.679
21501W        W91316   5.363  25.100   0.385
21502W        W91317  35.462   7.283  10.541
21503W        W91318  35.457  10.742  14.445
21504W        W91319  14.708  27.032   1.370
21505W        W91320  18.090  16.111   0.860
21506W        W91321   0.394   8.686   0.297
21507W        W91322  15.291  28.949  10.577
21508W        W91323   2.859  38.939  12.434
21509W        W91324  23.551  42.292   4.213
21510W        W91325  21.230  15.737   3.678
21511W        W91326  37.373  21.595   2.779
21512W        W91327   8.293  13.132  10.414
21513W        W91328  27.572  21.550  13.879
21514W        W91329  11.779   8.382  12.369
21515W        W91330  14.600  12.774  13.383
21516W        W91331  15.229  22.027   2.406
21517W        W91332  16.699   6.273   0.363
21518W        W91333  43.982  43.333   4.678
21519W        W91334  13.288  34.881   3.710
21520W        W91335  34.594  33.584  14.921
21521W        W91336  36.468  22.646  11.044
21522W        W91337  41.888  10.218  14.511
21523W        W91338  33.562  31.484   3.761
21524W        W91339  41.414  44.907   3.310
21525W        W91340  31.961  13.351   5.092
21526W        W91341   8.831  27.033   1.340
21527W        W91342  41.380   4.778   4.810
21528W        W91343  16.110   7.690   4.190
21529W        W91344  26.601  39.000   5.189
21530W        W91345  15.607  37.559  11.470
21531W        W91346   5.404  24.140   0.802
21532W        W91347  38.504   3.906   2.751
21533W        W91348   3.273  11.806  14.460
21534W        W91349  38.030  15.149  10.436
21535W        W91350   0.431  30.450   3.354
21536W        W91351  39.925   2.387  13.434
21537W        W91352  18.786  44.877   0.341
21538W        W91353   8.811   4.315  14.765
21539W        W91354   5.792  19.543  14.346
21540W        W91355  19.631  38.327   3.320
21541W        W91356  33.530  25.991   1.755
21542W        W91357  43.904  15.727  14.500
21543W        W91358  28.090  14.667   4.811
21544W        W91359  16.576  41.975  14.415
21545W        W91360  28.158  11.210   2.779
21546W        W91361  40.854   2.458  11.509
21547W        W91362  10.258  20.196   1.915
21548W        W91363  15.207   3.933  12.853
21549W        W91364  42.917  38.357   0.906
21550W        W91365  21.061  12.678  12.844
21551W        W91366   0.903  41.529   2.389
21552W        W91367   1.754  29.468  10.547
21553W        W91368  14.593  29.977   1.377
21554W        W91369  37.008   6.842  10.585
21555W        W91370  10.147   2.785  12.440
21556W        W91371  22.167   9.214  14.973
21557W        W91372  42.936  22.069   0.275
21558W        W91373  39.456   7.705  14.974
21559W        W91374   2.776  10.160  12.939
21560W        W91375  23.020  20.538   0.369
21561W        W91376  24.213  20.099  13.894
21562W        W91377   8.740  37.490  13.968
21563W        W91378  43.504  32.036   3.745
21564W        W91379  25.563  27.160   1.223
21565W        W91380  36.881   1.404   3.256
21566W        W91381  38.032  40.359   0.387
21567W        W91382  42.368  38.497   2.240
21568W        W91383  28.021  35.359   0.449
21569W        W91384  29.506   6.724  11.570
21570W        W91385  13.175  40.509  12.369
21571W        W91386  27.113   4.911   0.342
21572W        W91387   2.433   1.475  12.043
21573W        W91388   3.391  34.523  11.587
21574W        W91389  30.479  24.652   0.315
21575W        W91390  22.638  35.064   0.477
21576W        W91391  16.812  38.535   4.704
21577W        W91392  14.130  16.250  11.444
21578W        W91393  38.831  33.103  13.481
21579W        W91394  40.515  12.686  13.030
21580W        W91395  32.046  26.554  13.499
21581W        W91396  28.107  25.653   3.866
21582W        W91397  34.098  24.525   1.359
21583W        W91398   6.277  44.989   3.742
21584W        W91399  27.056  24.974   3.301
21585W        W91400  42.437  28.155   4.635
21586W        W91401  18.138  14.599   3.841
21587W        W91402  16.135  32.973   1.348
21588W        W91403  14.772   8.355   1.708
21589W        W91404  25.521  19.135   4.790
21590W        W91405  25.199  38.837   3.686
21591W        W91406  39.508   2.812   4.817
21592W        W91407   0.743   9.340   3.866
21593W        W91408  20.216  16.585   1.871
21594W        W91409  42.878  15.707  10.443
21595W        W91410  43.893  25.095   4.818
21596W        W91411  35.942  39.365   4.136
21597W        W91412  19.285  41.436  14.837
21598W        W91413  17.162   9.261  14.445
21599W        W91414   1.954  36.531   0.817
21600W        W91415  35.078   9.713  14.515
21601W        W91416  15.644  43.461   3.201
21602W        W91417  18.138  38.354   4.792
21603W        W91418  33.005  17.293   3.171
21604W        W91419  25.100  10.785   3.260
21605W        W91420   7.208  44.763   0.381
21606W        W91421  17.570   5.343   2.840
21607W        W91422  28.651  36.366   0.272
21608W        W91423  36.951   4.420  14.322
21609W        W91424   0.778  30.151   4.294
21610W        W91425  22.034  43.815  11.504
21611W        W91426  14.329  28.054   4.694
21612W        W91427  29.040   7.679  12.035
21613W        W91428   2.411  30.627  14.305
21614W        W91429  12.338  43.436  10.460
21615W        W91430  39.883  36.576   0.828
21616W        W91431  37.930  38.482   3.837
21617W        W91432  35.027   8.660  14.913
21618W        W91433   1.249  16.210   1.766
21619W        W91434  20.233  17.087  13.966
21620W        W91435   6.420   2.251  10.479
21621W        W91436  37.398  17.214  11.475
21622W        W91437  25.993   6.418   1.439
21623W        W91438   3.330  19.065   3.345
21624W        W91439  33.092  38.370   3.316
21625W        W91440  15.600  43.843  11.473
21626W        W91441  34.479   1.439   2.342
21627W        W91442  26.496   4.263   3.363
21628W        W91443   8.338  23.620   3.202
21629W        W91444  35.049   4.339  13.877
21630W        W91445  33.031  43.311   2.257
21631W        W91446   7.383  15.271  12.353
21632W        W91447  19.756   1.869   4.326
21633W        W91448  13.311  36.088   0.260
21634W        W91449  42.524  41.505   2.412
21635W        W91450  10.204  33.386  10.596
21636W        W91451  39.463  17.578   0.835
21637W        W91452  24.642  19.697   2.727
21638W        W91453   4.433  33.951   4.291
21639W        W91454  21.105  12.188   3.830
21640W        W91455  37.481  44.504  12.018
21641W        W91456   0.465  35.450  14.460
21642W        W91457   8.832   5.800   1.721
21643W        W91458  25.031  14.130  10.960
21644W        W91459  17.692  28.561  14.886
21645W        W91460  23.038  26.997  13.360
21646W        W91461  13.280  20.160  14.475
21647W        W91462  29.012  32.084  12.990
21648W        W91463  36.917  30.621   2.833
21649W        W91464   4.431  39.510   4.123
21650W        W91465  26.545  21.155   4.255
21651W        W91466   8.350   7.703  13.401
21652W        W91467  42.346  43.466  13.357
21653W        W91468  41.373  40.032  13.063
21654W        W91469  14.340  14.717   2.679
21655W        W91470  34.608  27.003  12.460
21656W        W91471  19.110  18.267  11.075
21657W        W91472  24.715  31.084  11.012
21658W        W91473  23.610  33.481  12.925
21659W        W91474  40.316  29.463   3.331
21660W        W91475  33.932  32.009   3.707
21661W        W91476  10.734  26.679   0.393
21662W        W91477   9.862  42.977   3.194
21663W        W91478  30.060  20.071   3.674
21664W        W91479   8.334  24.057  14.345
21665W        W91480  25.481  23.176  12.064
21666W        W91481  15.196  37.421  10.433
21667W        W91482  27.039   1.843  14.854
21668W        W91483   0.949  22.740   4.834
21669W        W91484  43.866  40.815   4.175
21670W        W91485  44.897  17.634   1.265
21671W        W91486  10.222  11.819  14.962
21672W        W91487  38.945  14.745   1.359
21673W        W91488  14.720  38.555  12.479
21674W        W91489  28.141  13.729  11.965
21675W        W91490  42.800   4.349   2.777
21676W        W91491  32.397  22.148  14.784
21677W        W91492   2.418  29.088  12.578
21678W        W91493   2.301  36.368  13.822
21679W        W91494   4.445   4.332   2.856
21680W        W91495  13.767  13.348  11.883
21681W        W91496  15.237  35.068  12.052
21682W        W91497   9.210  31.594   1.924
21683W        W91498   4.410  12.264  11.060
21684W        W91499  13.683  40.929  14.334
21685W        W91500  10.657  13.136  12.520
21686W        W91501  22.672  30.656   4.300
21687W        W91502  37.055  33.020  12.568
21688W        W91503  43.796   6.408  12.448
21689W        W91504  10.792  32.913   3.380
21690W        W91505  42.008  29.024  12.009
21691W        W91506  38.903  21.750  13.995
21692W        W91507  40.347  13.736  14.924
21693W        W91508   6.862   6.758   1.324
21694W        W91509  18.149  44.378  12.480
21695W        W91510  37.377  29.634   0.738
21696W        W91511   0.798  14.171  12.824
21697W        W91512   3.807  27.007  10.455
21698W        W91513  41.462  12.806  14.919
21699W        W91514  14.281  29.130  14.929
21700W        W91515  44.411  33.951   0.960
21701W        W91516  17.680   5.372  14.866
21702W        W91517  34.574  41.988   2.849
21703W        W91518  26.183  12.218  14.453
21704W        W91519  10.655  24.694  11.970
21705W        W91520   2.800   5.807  12.339
21706W        W91521  41.321  23.991  11.394
21707W        W91522  32.077  28.044  11.950
21708W        W91523  32.397   6.338  14.386
21709W        W91524   6.858   5.747  11.992
21710W        W91525  31.639  29.135   2.814
21711W        W91526  18.121  21.087   1.844
21712W        W91527  37.350  39.958  12.519
21713W        W91528  13.114  21.614   1.818
21714W        W91529  17.778  34.007  11.564
21715W        W91530  42.861  40.823   3.208
21716W        W91531  40.433  37.374  14.374
21717W        W91532  43.341  25.558   2.178
21718W        W91533  16.287  43.380   1.921
21719W        W91534  44.383   4.300  11.568
21720W        W91535  11.187  11.238   1.849
21721W        W91536  33.463  12.769  14.284
21722W        W91537  31.418  38.015   1.327
21723W        W91538  14.607   2.281   3.837
21724W        W91539  24.129   1.873   0.768
21725W        W91540  18.753  10.166   2.320
21726W        W91541  34.875   6.250   1.387
21727W        W91542  14.242   3.350   1.857
21728W        W91543  31.407  33.086   3.681
21729W        W91544  32.040  22.106  12.829
21730W        W91545  20.662  42.947  14.505
21731W        W91546  33.977  14.682   3.655
21732W        W91547  27.548  23.014   2.877
21733W        W91548  41.300  19.614   3.290
21734W        W91549  40.380  41.016  14.779
21735W        W91550  34.968  32.391  10.640
21736W        W91551  10.676  35.396   0.767
21737W        W91552  28.604   2.278   1.324
21738W        W91553  28.450   0.745  12.449
21739W        W91554  21.590  35.414   1.729
21740W        W91555   0.931  34.475   4.332
21741W        W91556  19.719  37.457  13.334
21742W        W91557   8.854  15.125   3.758
21743W        W91558  27.981  40.472   4.353
21744W        W91559  18.770  39.483  10.990
21745W        W91560  41.942   2.330  13.997
21746W        W91561   2.327  19.670   4.792
21747W        W91562  43.971  23.638  12.021
21748W        W91563  11.702   2.840   1.268
21749W        W91564   6.868  26.497  14.919
21750W        W91565  29.529  13.335  12.576
21751W        W91566  35.423  32.552   4.169
21752W        W91567  30.147  17.088  11.411
21753W        W91568   6.746  19.279   1.737
21754W        W91569  13.836  36.953  14.014
21755W        W91570  16.109  33.539   4.217
21756W        W91571  27.622  35.471  10.502
21757W        W91572  38.007   8.691   3.298
21758W        W91573  36.986   9.653  13.051
21759W        W91574  28.617  21.248   0.917
21760W        W91575  17.662  36.033  10.616
21761W        W91576   5.416   8.270  11.395
21762W        W91577   6.191  41.854   0.421
21763W        W91578  36.867   9.333   3.673
21764W        W91579  44.010  21.612  12.835
21765W        W91580  12.177  27.097  12.948
21766W        W91581   0.447   9.653  11.009
21767W        W91582  14.785  37.379  10.126
21768W        W91583   7.181  34.095   2.731
21769W        W91584  22.101  19.110   3.737
21770W        W91585  18.672  35.603  10.504
21771W        W91586  24.180  40.364   1.423
21772W        W91587  12.125  38.905  12.925
21773W        W91588   5.255  12.357   3.725
21774W        W91589  44.980   9.659  14.453
21775W        W91590   1.335  26.604   0.780
21776W        W91591  43.493  43.335  12.942
21777W        W91592  23.618  19.741  12.389
21778W        W91593  12.623   4.941   0.766
21779W        W91594  44.813  13.843   2.784
21780W        W91595  44.758   8.309   0.376
21781W        W91596  28.009  35.487   0.946
21782W        W91597  25.629  15.798   2.185
21783W        W91598   0.842  42.420   2.891
21784W        W91599  31.096  31.601  10.474
21785W        W91600  16.171  43.280  12.842
21786W        W91601  29.992  28.520   3.286
21787W        W91602  10.793  24.114   0.832
21788W        W91603   1.361  14.643   4.602
21789W        W91604  28.067  32.069  12.456
21790W        W91605  11.679  15.778  10.585
21791W        W91606  32.023   2.942   3.675
21792W        W91607  28.042  12.755  11.895
21793W        W91608  32.540  16.601   1.424
21794W        W91609  21.728  13.830  10.624
21795W        W91610  22.554  19.159  12.060
21796W        W91611  43.424  24.072  10.472
21797W        W91612  40.798  38.477  11.063
21798W        W91613  38.049   9.742  11.434
21799W        W91614  22.519  39.933  14.328
21800W        W91615  17.692  27.619  12.072
21801W        W91616  30.148   8.200   2.702
21802W        W91617  42.347   7.719  11.605
21803W        W91618  14.674  40.985  11.108
21804W        W91619  28.095  15.232   1.828
21805W        W91620   6.345  36.937   0.913
21806W        W91621  16.799   3.849   1.752
21807W        W91622   3.242  15.615   2.859
21808W        W91623   9.809   2.723  13.317
21809W        W91624  43.470  10.833  13.944
21810W        W91625  43.789  39.936   1.436
21811W        W91626   4.243  43.379   3.869
21812W        W91627  17.178  37.515  11.406
21813W        W91628  34.041  33.500   0.431
21814W        W91629  43.415  30.002   0.794
21815W        W91630  33.579  10.713  12.495
21816W        W91631  24.669  24.219  13.042
21817W        W91632   2.430  18.725   3.263
21818W        W91633  13.646  18.199  10.500
21819W        W91634   5.325  42.448   3.322
21820W        W91635  12.741  25.050   1.839
21821W        W91636   6.759   6.404   3.854
21822W        W91637   4.215  15.302   1.704
21823W        W91638  12.240  25.964  11.053
21824W        W91639   5.753   8.786   0.334
21825W        W91640  27.628   6.243  11.428
21826W        W91641  25.148  11.206  10.527
21827W        W91642  32.507  13.278  12.887
21828W        W91643  12.120   5.357  12.514
21829W        W91644  36.094  28.633   2.816
21830W        W91645  43.996  40.530  14.465
21831W        W91646  18.605   5.807   3.212
21832W        W91647  34.067  24.570   0.957
21833W        W91648  32.493  20.656   1.296
21834W        W91649   0.267  14.120   4.318
21835W        W91650  44.323  33.383  12.501
21836W        W91651   4.214  19.092   2.675
21837W        W91652  38.010  19.631  14.901
21838W        W91653  36.403   7.296   0.455
21839W        W91654  11.827  29.604   1.759
21840W        W91655  38.988  17.738   4.796
21841W        W91656   7.304   6.388  14.364
21842W        W91657  19.201  32.970   0.475
21843W        W91658  30.161  17.733   4.832
21844W        W91659  11.128  43.895   2.298
21845W        W91660  42.946   1.351  11.991
21846W        W91661   7.271  42.311   4.625
21847W        W91662   1.968  38.497   1.722
21848W        W91663  24.704   0.852  11.533
21849W        W91664  26.130  42.947  13.414
21850W        W91665  21.641  12.277   0.962
21851W        W91666  35.359  43.430  12.462
21852W        W91667  24.524  34.561  11.974
21853W        W91668   9.862  24.980  11.121
21854W        W91669  39.915  37.022   2.233
21855W        W91670  39.511  30.630   3.724
21856W        W91671  30.001  27.541  14.441
21857W        W91672   3.259  26.158  14.471
21858W        W91673  26.163  13.153  14.996
21859W        W91674  12.259  19.174  12.847
21860W        W91675  13.180  28.986   0.920
21861W        W91676  15.666  21.528  12.864
21862W        W91677  39.997  20.129   4.703
21863W        W91678  13.696  32.998  13.334
21864W        W91679   8.791  23.600  13.441
21865W        W91680  32.390  23.502  10.551
21866W        W91681  26.699  16.790  14.995
21867W        W91682  34.053  13.123   4.270
21868W        W91683   2.863  34.531   1.403
21869W        W91684  32.025  44.823  11.909
21870W        W91685  10.705  12.258  10.524
21871W        W91686  14.617  31.564  12.408
21872W        W91687  39.343  44.857  11.549
21873W        W91688  31.075  10.182  12.008
21874W        W91689  20.630  41.933  10.605
21875W        W91690   2.895   1.898  11.586
21876W        W91691  29.576   2.243   3.192
21877W        W91692  20.707  38.049  10.470
21878W        W91693  31.550  41.939  13.470
21879W        W91694  11.148  19.534   1.930
21880W        W91695  26.692   8.333  10.411
21881W        W91696  12.827  22.115   1.766
21882W        W91697  22.155  41.394  10.422
21883W        W91698  29.025  32.127  14.932
21884W        W91699  38.441  33.553   0.873
21885W        W91700  38.507  26.973  14.452
21886W        W91701  17.274  13.622  13.545
21887W        W91702  42.283  32.567   1.846
21888W        W91703  23.660  13.332  10.580
21889W        W91704  25.035  39.032  11.944
21890W        W91705   0.323  20.683   0.358
21891W        W91706  24.678  29.002  11.582
21892W        W91707  10.803  16.297  10.908
21893W        W91708   4.825  44.336   3.690
21894W        W91709  21.679  14.806   0.848
21895W        W91710  39.901  38.972  11.024
21896W        W91711  32.560   1.299  11.492
21897W        W91712  28.577   0.951  11.377
21898W        W91713  15.106  25.108   4.317
21899W        W91714  32.921   5.784  14.984
21900W        W91715  19.692  24.646   2.854
21901W        W91716  31.491   8.707   0.272
21902W        W91717  17.608  42.917   1.711
21903W        W91718  30.094   3.905   1.323
21904W        W91719  21.124  23.704  12.409
21905W        W91720  31.468   0.464   0.344
21906W        W91721  39.382  10.340  10.510
21907W        W91722   1.973  44.956  10.605
21908W        W91723   2.908  15.123  14.281
21909W        W91724  23.102  23.161  14.389
21910W        W91725  33.048  11.184   3.386
21911W        W91726  26.589   1.942  10.943
21912W        W91727  22.109   2.873   4.205
21913W        W91728  11.686  44.304   2.830
21914W        W91729  39.319  19.746  13.319
21915W        W91730  13.738  13.717   1.433
21916W        W91731  42.000  33.016   2.226
21917W        W91732  30.622  42.505  13.376
21918W        W91733  35.467  25.021   3.868
21919W        W91734  35.885  28.127  14.927
21920W        W91735  16.155  14.219  12.563
21921W        W91736  17.096  43.800  14.914
21922W        W91737  35.381  31.045   4.185
21923W        W91738   9.351   4.397  12.545
21924W        W91739  18.177  26.006  11.887
21925W        W91740   5.761  41.889   3.638
21926W        W91741  38.502  10.853   0.953
21927W        W91742  23.067  44.326   4.119
21928W        W91743  39.348  26.702   3.791
21929W        W91744  20.137  40.952  11.575
21930W        W91745  18.761   2.234   5.303
21931W        W91746  16.210  37.071   1.818
21932W        W91747  40.544  39.418  10.447
21933W        W91748   5.815  16.725   0.878
21934W        W91749  25.658  43.369  11.086
21935W        W91750  17.713  27.051   3.780
21936W        W91751  35.074   4.268  12.834
21937W        W91752  28.549  39.925  14.943
21938W        W91753  44.267   1.942  14.312
21939W        W91754  23.730  29.049   2.235
21940W        W91755   4.727   9.179  11.582
21941W        W91756  11.204  39.889   4.280
21942W        W91757  19.269   8.737   2.883
21943W        W91758   8.169  17.658   0.893
21944W        W91759  33.963  27.479  10.548
21945W        W91760  29.928   7.305  11.518
21946W        W91761  37.836  35.559   4.779
21947W        W91762  44.897   5.435  11.988
21948W        W91763  18.648  22.739   4.303
21949W        W91764  39.350  33.045   0.903
21950W        W91765  38.366  24.137  14.876
21951W        W91766   7.375   4.226   1.230
21952W        W91767   6.257  27.119   3.177
21953W        W91768  30.979  21.206  12.367
21954W        W91769  33.008   8.237   0.254
21955W        W91770  18.255  18.769  11.901
21956W        W91771  12.725  30.560   2.819
21957W        W91772  17.076  32.117   3.290
21958W        W91773   5.928  41.453  13.398
21959W        W91774  44.937   1.263   0.348
21960W        W91775  16.783  34.439  12.047
21961W        W91776   7.766  16.736   2.834
21962W        W91777  37.074   8.856   0.868
21963W        W91778  37.512  31.069  12.546
21964W        W91779  21.174  36.963   1.740
21965W        W91780  19.042  18.623  11.554
21966W        W91781  40.020  42.918  12.069
21967W        W91782  13.141  39.009  13.334
21968W        W91783  26.064  23.679  11.110
21969W        W91784  30.547  21.178  11.458
21970W        W91785   7.298  40.310  12.010
21971W        W91786  33.915  31.438   1.241
21972W        W91787  15.753   7.258  12.517
21973W        W91788  43.905   3.362  14.834
21974W        W91789  31.943  14.163  14.359
21975W        W91790  40.440  40.908  11.091
21976W        W91791   9.148  15.822  10.915
21977W        W91792  44.330  39.930  13.337
21978W        W91793  44.897  13.667   3.369
21979W        W91794  33.457  23.703  13.027
21980W        W91795  25.642  21.044   3.859
21981W        W91796  34.389  20.246   1.782
21982W        W91797  32.030  40.364   4.703
21983W        W91798  41.529  10.757   2.412
21984W        W91799  21.098  12.714   5.212
21985W        W91800  43.772  16.725   1.933
21986W        W91801   8.850  19.773   0.401
21987W        W91802  44.451  13.244  14.373
21988W        W91803  15.240   2.231   1.299
21989W        W91804   9.767  19.283   3.844
21990W        W91805  16.608  34.589   4.815
21991W        W91806  39.928   8.752  13.040
21992W        W91807  27.588  11.717   0.412
21993W        W91808  11.212  24.208  14.766
21994W        W91809  42.968  21.758  11.104
21995W        W91810  18.614  11.360   1.446
21996W        W91811  21.625  28.145  10.404
21997W        W91812  24.223  29.060   3.270
21998W        W91813  34.553   4.918   4.747
21999W        W91814   5.357  42.315   2.233
22000W        W91815  41.984  29.034  12.451
22001W        W91816  28.100  18.253   0.259
22002W        W91817   8.709   4.262  10.613
22003W        W91818  19.632   4.241  11.091
22004W        W91819   5.366   7.357  12.994
22005W        W91820  37.914   7.232  12.873
22006W        W91821  18.644  26.985   4.267
22007W        W91822  12.121  34.489  11.000
22008W        W91823  38.861  18.246   1.850
22009W        W91824   2.251  29.985   0.287
22010W        W91825  38.834  27.510   3.800
22011W        W91826  31.549  11.632   0.436
22012W        W91827  15.794  10.291   5.218
22013W        W91828  41.340  14.238   2.287
22014W        W91829   8.381   6.297  12.420
22015W        W91830  11.656  42.816  14.348
22016W        W91831  29.014   3.879   3.828
22017W        W91832   4.429  18.790  12.560
22018W        W91833  37.395   5.753  10.081
22019W        W91834   6.738  25.081   3.667
22020W        W91835  16.095   8.768  12.925
22021W        W91836  34.478   1.801   2.236
22022W        W91837   2.263  17.766   2.728
22023W        W91838   2.891  42.906   0.852
22024W        W91839  24.007  44.378  11.565
22025W        W91840  41.447   1.731   0.384
22026W        W91841  14.720  19.592  12.387
22027W        W91842  26.094  13.781   2.714
22028W        W91843  26.539   9.360  12.879
22029W        W91844  30.970  17.620   3.207
22030W        W91845  30.460  14.261  13.054
22031W        W91846  40.514  36.531   0.416
22032W        W91847  33.444  15.807   4.687
22033W        W91848   8.193  27.074  14.781
22034W        W91849  34.874  15.097  13.326
22035W        W91850  29.663   4.314   1.388
22036W        W91851  34.451  14.800   3.151
22037W        W91852  16.754  20.748  10.473
22038W        W91853   4.407  11.773  12.883
22039W        W91854  35.406   5.877   0.421
22040W        W91855  39.325   5.868   0.425
22041W        W91856  42.812  24.173  14.935
22042W        W91857  14.668  21.230  12.863
22043W        W91858  26.565   1.933   2.733
22044W        W91859   6.291  40.992   1.776
22045W        W91860  26.695  22.114  10.010
22046W        W91861   4.918  36.480   4.327
22047W        W91862  40.857  27.678  11.450
22048W        W91863  15.326   8.765   3.809
22049W        W91864  20.259  32.080   0.888
22050W        W91865  21.165  24.145  14.450
22051W        W91866  21.022  29.927  14.871
22052W        W91867   5.362  28.155   3.168
22053W        W91868   1.968  44.488   0.764
22054W        W91869  18.615   1.958   2.224
22055W        W91870   1.323  32.020  14.866
22056W        W91871   8.299   5.896   2.746
22057W        W91872  37.576  24.021  12.962
22058W        W91873  18.569  27.092  12.366
22059W        W91874  11.229  20.045   2.841
22060W        W91875   4.734  19.737  10.944
22061W        W91876  43.487  25.084   3.793
22062W        W91877   1.954  44.908   2.745
22063W        W91878  19.128  10.224   1.917
22064W        W91879   5.236   9.325  14.816
22065W        W91880  28.967  30.977  11.912
22066W        W91881  35.051  31.546  14.833
22067W        W91882  12.699   4.364   0.369
22068W        W91883  40.942  26.657  12.053
22069W        W91884  22.222  42.460  12.405
22070W        W91885   7.341  26.562  12.972
22071W        W91886  16.268  38.438  12.883
22072W        W91887  18.780  17.689  11.010
22073W        W91888  38.367   5.832   5.592
22074W        W91889  30.608  17.255  14.468
22075W        W91890  38.324  11.138   1.371
22076W        W91891  35.446  12.622   3.682
22077W        W91892  40.330  30.640  13.928
22078W        W91893  42.838  15.668   0.308
22079W        W91894  10.329  20.171  11.587
22080W        W91895  17.153  25.199  13.539
22081W        W91896  18.622  25.632   0.329
22082W        W91897  44.967  20.679   1.290
22083W        W91898  27.524  17.684   3.634
22084W        W91899  34.967  34.473   3.325
22085W        W91900   3.223  15.812  13.330
22086W        W91901  23.128   2.888  14.288
22087W        W91902  17.689  33.548  13.338
22088W        W91903   7.720  18.726   2.187
22089W        W91904  40.807   7.902   4.248
22090W        W91905  29.636  39.416  13.319
22091W        W91906  29.954  13.274  14.935
22092W        W91907  22.021  24.988  11.487
22093W        W91908  44.979   6.905   1.313
22094W        W91909  10.309   8.771   0.474
22095W        W91910  37.833   4.351  12.986
22096W        W91911  44.795  24.216  14.341
22097W        W91912  22.587  10.782   1.240
22098W        W91913  39.340  39.451   1.375
22099W        W91914   0.754  41.042  14.469
22100W        W91915  18.234  19.644  14.290
22101W        W91916  11.214  26.007  11.084
22102W        W91917  16.569   6.878  12.841
22103W        W91918   1.897  39.044  10.996
22104W        W91919  29.516  31.525  10.950
22105W        W91920   9.368   9.719   1.701
22106W        W91921  28.526   2.289   1.911
22107W        W91922  22.168  21.704   1.230
22108W        W91923   8.269  36.897   4.140
22109W        W91924  19.742  35.897  12.845
22110W        W91925   9.156  37.930   1.886
22111W        W91926   1.943  25.571   3.808
22112W        W91927  42.877  36.042  12.445
22113W        W91928  41.863  21.177  11.995
22114W        W91929  44.351  16.174  12.902
22115W        W91930   7.386   8.272   2.801
22116W        W91931  42.943  37.918  13.050
22117W        W91932  34.070  41.459   0.425
22118W        W91933   9.838  33.519   1.446
22119W        W91934   0.480  28.063  12.482
22120W        W91935  37.418  20.162  11.112
22121W        W91936  40.506   8.722  13.963
22122W        W91937  37.518  30.962  13.517
22123W        W91938   5.238  23.226   3.306
22124W        W91939  37.432  37.462   4.254
22125W        W91940  14.618  41.041  11.901
22126W        W91941  11.853   3.402  11.426
22127W        W91942   9.814  38.404   1.818
22128W        W91943  32.571  39.507  12.441
22129W        W91944  16.233   7.323   1.793
22130W        W91945  44.913   3.934  14.386
22131W        W91946  37.484  13.220   3.705
22132W        W91947  29.176   2.286   2.351
22133W        W91948  35.049  39.892   1.749
22134W        W91949  20.686  17.221  11.602
22135W        W91950  18.101  20.543   2.792
22136W        W91951  26.137  39.897  11.925
22137W        W91952  14.633   0.794  11.572
22138W        W91953   3.334  12.290   4.627
22139W        W91954  23.996  33.483   2.897
22140W        W91955  14.165  21.641  10.477
22141W        W91956   6.332  25.209  12.095
22142W        W91957  13.276  23.661  11.057
22143W        W91958  17.695  13.686  14.814
22144W        W91959  35.451  30.620   1.327
22145W        W91960  33.959   8.332   2.392
22146W        W91961  17.606  32.009  12.354
22147W        W91962  27.469  17.286  13.512
22148W        W91963  33.063   2.444   2.779
22149W        W91964  31.082  24.180   0.893
22150W        W91965   9.736   6.802   1.821
22151W        W91966  43.938  35.396   1.798
22152W        W91967  11.830  13.347   4.135
22153W        W91968  36.083  29.109  10.448
22154W        W91969  11.254   7.817   1.391
22155W        W91970  32.889  20.057  13.935
22156W        W91971  24.707  20.063   1.335
22157W        W91972  29.431  42.985   4.789
22158W        W91973  35.586  34.977   4.121
22159W        W91974  28.989  14.600  12.393
22160W        W91975  20.207  34.956  11.110
22161W        W91976  24.546  42.793  12.985
22162W        W91977  13.325   8.277   0.256
22163W        W91978  33.548  17.305   0.900
22164W        W91979  41.415   6.277  11.431
22165W        W91980  30.969  38.855  13.808
22166W        W91981  29.141  19.722  10.906
22167W        W91982  33.482  25.999  10.496
22168W        W91983   6.191  15.191   3.333
22169W        W91984  42.815  32.991   9.958
22170W        W91985   4.870  30.608  13.951
22171W        W91986  16.593  21.540   3.785
22172W        W91987  20.551  23.048   1.294
22173W        W91988  23.126   1.340  13.018
22174W        W91989  18.213  30.907   0.845
22175W        W91990  36.440  31.564   4.802
22176W        W91991  16.101   2.909   2.313
22177W        W91992  13.216  19.104  12.437
22178W        W91993  11.854   3.731   0.830
22179W        W91994  24.540  15.601   1.348
22180W        W91995   2.825  23.530  11.120
22181W        W91996  36.068  32.054  12.544
22182W        W91997  38.944  44.314   3.293
22183W        W91998  34.881   0.873  12.990
22184W        W91999   3.256  12.346   1.252
22185W        W92000   8.820  24.051  14.377
22186W        W92001  34.536  17.167  12.824
22187W        W92002  41.506  14.698  11.983
22188W        W92003  11.149  25.572  14.945
22189W        W92004  34.508  39.057  13.865
22190W        W92005  28.133   8.843  10.114
22191W        W92006  11.247  42.837   0.926
22192W        W92007  43.794   5.201  13.531
22193W        W92008  12.308   4.330  11.560
22194W        W92009   0.277   4.761   1.237
22195W        W92010  29.069   1.904  13.316
22196W        W92011  29.011  44.860   1.783
22197W        W92012  44.344  35.861   1.899
22198W        W92013  11.208   7.197  13.515
22199W        W92014  10.342   1.876  13.854
22200W        W92015  36.408  21.177   1.449
22201W        W92016  20.660  16.688   1.213
22202W        W92017  42.444  23.136   3.764
22203W        W92018   4.763  28.503  12.923
22204W        W92019  12.323  23.180  10.911
22205W        W92020  35.455   1.432   4.218
22206W        W92021  42.316   8.207  11.901
22207W        W92022  12.755  17.304   2.358
22208W        W92023   0.265  34.054  14.275
22209W        W92024   5.918   6.753   1.753
22210W        W92025  19.047  42.507   2.415
22211W        W92026   4.209   0.950  10.625
22212W        W92027  38.006  43.284  13.971
22213W        W92028  36.356  16.754   0.379
22214W        W92029  17.186  12.744   0.280
22215W        W92030  26.583   6.780  12.937
22216W        W92031  43.001   1.881  12.921
22217W        W92032  43.855  16.271  13.795
22218W        W92033   3.309  23.693   3.832
22219W        W92034  29.111  29.055  11.971
22220W        W92035   0.782   6.721   2.325
22221W        W92036  10.852  27.690  10.901
22222W        W92037  41.002   9.196   2.241
22223W        W92038  34.369  27.196   3.160
22224W        W92039  30.031  40.544   0.878
22225W        W92040  43.867  25.185   5.177
22226W        W92041  44.384  28.158   0.806
22227W        W92042  24.229  14.191   3.790
22228W        W92043  19.164  42.485  14.993
22229W        W92044  21.751  33.485  11.979
22230W        W92045   6.198  16.158   2.866
22231W        W92046  30.029  19.752   3.707
22232W        W92047   4.860  32.095   5.291
22233W        W92048  26.196  29.467   3.255
22234W        W92049  33.580  18.148  14.917
22235W        W92050  36.050  15.581   4.165
22236W        W92051  32.464  44.328   1.367
22237W        W92052  39.500   0.299  11.447
22238W        W92053  19.766  43.362  14.770
22239W        W92054  22.714  37.361  13.539
22240W        W92055  12.183  43.419   0.354
22241W        W92056  44.335  41.991   1.444
22242W        W92057  11.239  18.209  12.920
22243W        W92058  23.227  23.222   4.837
22244W        W92059  11.737  13.222   3.686
22245W        W92060  41.878   3.358  12.826
22246W        W92061  33.939   3.296  13.952
22247W        W92062   1.379  16.314  10.599
22248W        W92063  31.973  14.661  14.472
22249W        W92064  15.118   0.874  14.450
22250W        W92065  37.997  41.311   1.856
22251W        W92066  31.492   0.336   3.246
22252W        W92067  13.315  14.179   4.757
22253W        W92068  16.625  33.609  12.088
22254W        W92069  35.065   9.643   3.764
22255W        W92070  21.561  36.561  12.350
22256W        W92071  21.097  15.097  11.483
22257W        W92072  38.525  37.499  13.884
22258W        W92073  42.860  16.120  13.057
22259W        W92074  44.011   1.464  14.981
22260W        W92075  30.008  28.103  12.480
22261W        W92076   7.729  18.064  12.965
22262W        W92077  15.255  16.253  13.545
22263W        W92078  38.434   4.255   2.281
22264W        W92079  17.285  38.955   4.686
22265W        W92080   3.834   2.854  13.369
22266W        W92081  35.908  31.487   1.216
22267W        W92082  40.503  29.666   1.866
22268W        W92083   4.345  14.198   1.888
22269W        W92084  32.630  20.720  14.811
22270W        W92085  39.868  17.264   0.876
22271W        W92086   3.843  35.917   4.223
22272W        W92087  33.546  41.977  11.055
22273W        W92088   3.248   4.316  10.954
22274W        W92089  10.680  10.292   2.875
22275W        W92090  41.326  24.127   2.860
22276W        W92091  25.126  21.017   0.407
22277W        W92092  42.480  41.485  13.999
22278W        W92093  19.544   5.364  12.055
22279W        W92094  29.096  33.078   4.637
22280W        W92095  16.206   8.844   2.743
22281W        W92096  33.068  40.465  12.449
22282W        W92097   6.725  17.705  10.524
22283W        W92098  44.440  21.750  14.381
22284W        W92099  14.313  37.066  11.612
22285W        W92100  20.182  19.201  14.876
22286W        W92101  25.704  39.338   3.290
22287W        W92102  29.600  39.447  14.002
22288W        W92103  25.676  20.192  11.866
22289W        W92104  26.616  10.298   0.419
22290W        W92105  41.348   9.677   1.910
22291W        W92106  35.518  25.036  14.825
22292W        W92107  32.395   3.414   3.835
22293W        W92108  22.128  30.539  10.481
22294W        W92109  33.535  12.308   1.732
22295W        W92110  14.197   7.773  11.905
22296W        W92111  31.943  12.798  14.000
22297W        W92112  17.092  21.252   4.752
22298W        W92113  16.597  35.513   2.314
22299W        W92114  12.849   0.271  11.390
22300W        W92115  15.609  38.047  13.980
22301W        W92116  20.635  43.436   4.228
22302W        W92117  27.688   9.879   9.657
22303W        W92118  33.625  23.516  12.065
22304W        W92119  25.045  44.846   0.962
22305W        W92120  39.944   2.313   2.858
22306W        W92121   5.276  27.476  11.593
22307W        W92122  18.677  24.561   1.359
22308W        W92123  20.032  25.569   4.778
22309W        W92124  32.528  14.113  14.410
22310W        W92125  36.904  16.310   0.254
22311W        W92126  22.251  44.415   4.315
22312W        W92127   7.227  14.301  12.879
22313W        W92128   8.397  26.178   2.316
22314W        W92129   4.778   4.381   1.851
22315W        W92130  12.152  24.174   1.725
22316W        W92131  21.599   3.274  12.567
22317W        W92132  16.178  10.222   2.246
22318W        W92133  15.757  17.591  14.005
22319W        W92134   5.820  36.420   1.251
22320W        W92135  33.946  44.328   0.759
22321W        W92136  40.909   9.656   1.234
22322W        W92137  25.642   1.821   5.272
22323W        W92138  39.947  11.806  12.416
22324W        W92139  36.578  33.878  11.925
22325W        W92140  23.196  21.647   0.402
22326W        W92141  31.049   7.827  13.939
22327W        W92142  16.635  14.162  14.339
22328W        W92143  37.564  15.130  11.996
22329W        W92144  25.183   9.376  13.442
22330W        W92145  35.367  30.963  13.450
22331W        W92146   1.896   7.744   4.147
22332W        W92147  21.756  20.553   0.778
22333W        W92148  19.265  27.599   0.875
22334W        W92149  19.722  28.087   2.703
22335W        W92150  24.079  24.575   2.188
22336W        W92151   1.906  43.802   4.817
22337W        W92152  21.577  25.593   1.256
22338W        W92153  13.719   0.971   0.266
22339W        W92154  26.556  14.127   1.432
22340W        W92155  31.548  28.168  13.372
22341W        W92156   6.376  35.389   0.759
22342W        W92157  39.504   3.722   2.306
22343W        W92158  16.112  17.781   4.721
22344W        W92159  29.149  33.383   0.961
22345W        W92160  28.465  20.098  10.610
22346W        W92161  17.068  30.458  11.958
22347W        W92162  17.573  34.601  11.386
22348W        W92163  17.574  31.621  11.515
22349W        W92164  38.935  21.621  12.387
22350W        W92165  32.487  30.605  10.986
22351W        W92166  11.245  31.931  12.051
22352W        W92167   3.801  10.334  13.335
22353W        W92168   9.356  39.519  12.370
22354W        W92169  23.550  30.464  14.467
22355W        W92170  13.665  36.072   1.349
22356W        W92171  14.734  34.907   1.401
22357W        W92172  14.292  40.400  10.974
22358W        W92173  30.147  40.452  12.874
22359W        W92174   1.332  21.190   4.742
22360W        W92175  15.142  22.148  13.314
22361W        W92176  33.518  43.468   1.374
22362W        W92177  35.567  20.090  13.447
22363W        W92178  44.891  26.125  12.473
22364W        W92179  37.011  23.620  13.974
22365W        W92180  11.133  10.813   1.915
22366W        W92181  44.859  13.127   3.732
22367W        W92182  35.443  41.529  12.446
22368W        W92183  29.159   8.758   4.690
22369W        W92184  40.047  44.335   4.226
22370W        W92185  15.729  21.023  13.989
22371W        W92186  37.579   2.786   4.245
22372W        W92187  13.137  28.043   3.186
22373W        W92188  27.462  13.635  14.856
22374W        W92189  16.616   8.873   2.252
22375W        W92190  30.416  10.187   2.684
22376W        W92191   1.935  38.547  14.466
22377W        W92192  27.552  23.523   0.251
22378W        W92193  33.110  14.308   5.221
22379W        W92194  38.939  36.480  12.502
22380W        W92195  31.633  31.637   4.788
22381W        W92196   2.909  38.006  13.030
22382W        W92197  33.069   3.441  10.510
22383W        W92198  14.614  26.007  12.473
22384W        W92199  39.936  36.429  11.065
22385W        W92200  37.894  12.819  11.059
22386W        W92201  38.460   4.919   1.920
22387W        W92202  19.165  33.069   3.247
22388W        W92203  43.003   5.745   3.266
22389W        W92204  44.777   2.249  14.510
22390W        W92205  21.723  23.109  14.395
22391W        W92206  20.037  40.540   0.953
22392W        W92207  14.699  34.958   2.694
22393W        W92208   3.737  14.663   3.337
22394W        W92209  36.354   2.273   0.292
22395W        W92210  42.790  11.717  11.010
22396W        W92211  36.004  32.453   3.240
22397W        W92212  11.146  12.806  11.530
22398W        W92213  19.155  27.994   0.937
22399W        W92214   4.825  40.378  12.463
22400W        W92215  30.449   0.863  13.865
22401W        W92216  23.513  25.629   0.407
22402W        W92217  11.863  39.534   4.214
22403W        W92218   7.183  41.379   1.786
22404W        W92219  29.132  42.974   3.773
22405W        W92220  14.698   4.213   2.180
22406W        W92221  35.109  26.474  14.847
22407W        W92222   4.753   8.315  13.403
22408W        W92223  40.390  12.682  12.006
22409W        W92224  23.111   6.795   3.821
22410W        W92225  13.280  21.030   5.179
22411W        W92226  30.094   6.860  13.003
22412W        W92227   1.940  28.595   3.839
22413W        W92228  19.050  22.696   1.802
22414W        W92229   1.299  14.300   0.248
22415W        W92230   3.453   2.463   0.965
22416W        W92231  11.714   1.250   0.350
22417W        W92232  39.965   6.384   5.580
22418W        W92233   7.813  42.834  11.970
22419W        W92234  16.218  25.507  14.990
22420W        W92235  34.887  14.152   1.432
22421W        W92236  25.502  22.651  13.520
22422W        W92237  23.222  40.444  14.946
22423W        W92238   4.938  43.793  14.808
22424W        W92239  14.209  18.253  11.082
22425W        W92240  14.118  42.318   2.682
22426W        W92241   7.773  31.930   1.423
22427W        W92242  16.130  38.987  12.853
22428W        W92243  32.909   9.883   4.761
22429W        W92244   7.793  41.447   4.219
22430W        W92245   3.315  26.103  13.477
22431W        W92246  32.014  13.708  11.398
22432W        W92247   1.382   4.811   4.652
22433W        W92248  28.531  43.374   2.667
22434W        W92249  17.132  18.279  14.505
22435W        W92250  24.616  25.538  14.763
22436W        W92251  27.667  43.834   3.662
22437W        W92252  22.177  40.034   3.308
22438W        W92253  26.969  40.940  14.922
22439W        W92254  25.565  12.681  12.071
22440W        W92255  23.712  26.493   4.317
22441W        W92256  26.058  42.436   0.438
22442W        W92257  27.997  17.566   3.373
22443W        W92258   0.986  11.362  14.780
22444W        W92259  31.529   5.798  11.085
22445W        W92260  41.033  20.199  14.448
22446W        W92261   0.862  28.595  11.998
22447W        W92262   8.816   1.334   2.203
22448W        W92263  24.566  39.448  14.911
22449W        W92264  10.205  24.154   4.809
22450W        W92265  31.047  39.458  14.862
22451W        W92266  23.125  11.254   0.343
22452W        W92267  21.596  36.019   3.172
22453W        W92268  29.460  10.669  12.045
22454W        W92269   8.704  16.216   2.781
22455W        W92270  44.421  41.417   0.914
22456W        W92271   4.324  30.559  14.887
22457W        W92272  23.090   1.846  11.517
22458W        W92273   2.306  13.278  14.473
22459W        W92274  44.793  25.008  11.112
22460W        W92275  12.843  42.397  14.777
22461W        W92276  31.936  22.640  14.976
22462W        W92277  15.772  43.397  14.317
22463W        W92278   3.873  11.804   1.714
22464W        W92279  17.146   5.923   4.679
22465W        W92280  40.799  37.958   1.396
22466W        W92281  32.113   6.314   0.260
22467W        W92282   6.780  35.490  12.922
22468W        W92283  19.068  17.305   2.671
22469W        W92284  26.579  29.159   0.425
22470W        W92285  28.472  29.541   2.870
22471W        W92286  40.380  23.093   4.130
22472W        W92287  30.503  14.153   4.121
22473W        W92288  27.631  33.527  14.382
22474W        W92289  15.679   4.839   4.759
22475W        W92290  27.611  30.469   2.729
22476W        W92291  19.196  13.331   1.358
22477W        W92292  16.163  43.885   1.905
22478W        W92293  20.528  11.249   3.807
22479W        W92294  11.799   3.263   2.351
22480W        W92295  42.468  10.316   4.796
22481W        W92296  21.595   6.715  14.860
22482W        W92297  31.948  42.809   1.863
22483W        W92298  13.649  16.196  12.876
22484W        W92299  20.553  36.426  14.991
22485W        W92300  29.971  14.105   4.635
22486W        W92301   6.378   8.768   2.662
22487W        W92302  18.709  29.961  12.880
22488W        W92303  23.597   8.289  13.023
22489W        W92304  24.724  35.527  14.031
22490W        W92305  40.361  34.572   2.383
22491W        W92306   5.705  26.107   2.752
22492W        W92307  35.896  43.805   2.821
22493W        W92308  39.946   9.200  12.958
22494W        W92309  42.390  12.242  11.020
22495W        W92310  15.578  31.550  11.010
22496W        W92311  36.023  31.624   2.689
22497W        W92312  23.499  43.347  11.596
22498W        W92313  35.030  43.881   0.363
22499W        W92314  16.083   4.349   4.791
22500W        W92315  43.922   8.666   0.312
22501W        W92316   2.953  32.076   2.786
22502W        W92317  42.417  34.379   4.234
22503W        W92318  21.115  22.557   4.755
22504W        W92319  26.197   2.965  14.310
22505W        W92320   8.287  40.844   4.720
22506W        W92321   3.813  42.354   3.766
22507W        W92322  26.508   4.378   2.736
22508W        W92323  24.683  44.480   4.289
22509W        W92324  26.975  38.519   3.377
22510W        W92325  24.708  25.070  11.926
22511W        W92326  43.474   1.293  10.955
22512W        W92327   4.258  15.153   4.129
22513W        W92328  37.439  19.644  11.416
22514W        W92329  20.667  27.940  11.425
22515W        W92330  23.144   7.713  14.881
22516W        W92331  33.582   6.415   0.409
22517W        W92332  32.036  23.032   2.796
22518W        W92333  29.117  44.502   1.910
22519W        W92334  20.559  14.255   4.704
22520W        W92335  12.357   6.756  11.037
22521W        W92336  20.201  34.464   4.660
22522W        W92337   4.775  27.607  10.535
22523W        W92338  17.631  23.516   2.300
22524W        W92339  11.225  12.253   3.659
22525W        W92340  24.479  25.035   3.685
22526W        W92341  17.235  42.917   0.963
22527W        W92342  16.791   3.241  14.407
22528W        W92343  43.814  42.965   1.886
22529W        W92344  17.128  38.563   2.829
22530W        W92345  34.377  34.979   0.368
22531W        W92346   1.827  34.451   0.871
22532W        W92347  19.722   2.798   4.668
22533W        W92348   3.848  38.840   3.852
22534W        W92349  21.025   6.387   3.776
22535W        W92350   5.908  29.641   2.272
22536W        W92351   3.214  43.284   0.848
22537W        W92352   6.298   7.234   1.824
22538W        W92353  16.104  14.591  12.020
22539W        W92354  21.196  34.898   3.165
22540W        W92355   6.824  19.117   2.315
22541W        W92356  26.029  31.594  14.764
22542W        W92357   8.738  12.126   1.343
22543W        W92358   7.713  10.145  12.388
22544W        W92359  39.015  18.285   0.420
22545W        W92360  13.148  36.570   4.713
22546W        W92361  22.507  32.968  10.999
22547W        W92362  36.992  31.050   3.221
22548W        W92363  13.681  18.057   1.247
22549W        W92364  39.327  35.852   0.395
22550W        W92365  15.087   6.915  13.317
22551W        W92366  37.557  12.321  14.912
22552W        W92367   4.311  40.473  14.434
22553W        W92368  11.718  31.413  12.405
22554W        W92369   0.444  20.733   4.273
22555W        W92370  31.584  18.751  10.486
22556W        W92371   1.341  12.166   3.867
22557W        W92372   5.779   3.918   1.804
22558W        W92373  24.592  37.080  11.960
22559W        W92374  12.231   0.384  13.837
22560W        W92375  17.642  37.405   3.215
22561W        W92376  38.029  18.134  11.893
22562W        W92377  16.650  42.782  13.477
22563W        W92378   3.295  42.967   0.337
22564W        W92379  20.076  30.976   2.680
22565W        W92380  24.986  34.904   0.912
22566W        W92381  29.489  18.777  14.904
22567W        W92382  17.762  38.512   2.299
22568W        W92383  34.001  37.903   1.865
22569W        W92384  34.551  38.422   1.402
22570W        W92385   4.232  12.821  13.829
22571W        W92386  33.122  42.470  14.386
22572W        W92387   1.764   8.241   2.821
22573W        W92388  16.800  41.979   3.652
22574W        W92389  10.166  37.045   0.253
22575W        W92390  31.127  38.829  14.904
22576W        W92391  43.884  36.852  11.077
22577W        W92392  30.063  22.214   4.827
22578W        W92393  25.579   9.268  11.577
22579W        W92394  44.005  33.433   3.291
22580W        W92395   0.805  23.615  12.444
22581W        W92396  20.125  25.091  13.953
22582W        W92397  37.069  19.193  12.025
22583W        W92398  39.525  44.286   2.806
22584W        W92399  11.191  23.670   2.663
22585W        W92400   4.234  43.817  10.967
22586W        W92401  44.268  13.320   0.926
22587W        W92402  35.378  37.017  13.991
22588W        W92403  11.864  26.636   3.318
22589W        W92404  22.686   6.339  10.933
22590W        W92405   5.377  23.051   2.417
22591W        W92406   4.796  19.581   3.182
22592W        W92407  22.563  29.511  10.630
22593W        W92408  20.688   4.405   3.373
22594W        W92409  27.567  34.960   0.765
22595W        W92410   2.935  38.908  10.428
22596W        W92411   6.341  11.864   4.337
22597W        W92412  41.866   2.919  10.954
22598W        W92413   7.780  40.345   4.736
22599W        W92414  40.944  41.915   4.634
22600W        W92415  31.116  11.740   1.299
22601W        W92416  38.453  11.698  13.915
22602W        W92417  27.989  23.013   2.196
22603W        W92418  15.298   0.872   1.836
22604W        W92419   5.400  24.669  11.896
22605W        W92420  40.830  22.532   2.694
22606W        W92421  19.731  34.560  12.073
22607W        W92422  26.112  35.878   2.781
22608W        W92423  32.054   4.899   2.863
22609W        W92424  28.541  12.146  13.490
22610W        W92425  25.505   5.837   0.930
22611W        W92426  44.391  22.074  14.945
22612W        W92427  43.896   8.698   0.771
22613W        W92428  31.558   9.782   1.905
22614W        W92429  23.053  13.629   4.748
22615W        W92430  35.045  10.314   5.102
22616W        W92431  11.241   1.877   4.251
22617W        W92432  14.153   1.858  12.579
22618W        W92433  38.957  39.998   3.708
22619W        W92434  17.126  41.900  10.548
22620W        W92435  18.169  25.090  13.024
22621W        W92436  41.419  41.833  10.419
22622W        W92437   2.855  11.325   4.263
22623W        W92438  19.266  25.217  12.936
22624W        W92439  33.500  35.417   2.344
22625W        W92440   0.300  15.699  14.788
22626W        W92441   9.167  22.690   3.273
22627W        W92442  12.221   7.815  11.943
22628W        W92443  13.695  10.829   0.466
22629W        W92444  36.871   9.803  13.344
22630W        W92445  18.656  27.678  11.511
22631W        W92446   8.890  34.107   1.376
22632W        W92447   7.809   5.829   3.857
22633W        W92448  20.716   6.746   0.930
22634W        W92449  13.156  23.178  14.490
22635W        W92450  44.420  10.232  11.028
22636W        W92451  20.526   0.906  12.414
22637W        W92452   3.315  10.196   3.368
22638W        W92453   5.862  11.351  14.895
22639W        W92454  36.052  32.492  11.485
22640W        W92455  29.071  41.902  14.932
22641W        W92456  20.623   2.839   1.441
22642W        W92457  32.073  28.055  12.515
22643W        W92458  10.731  15.739   4.681
22644W        W92459  31.005  20.623   0.732
22645W        W92460  23.117  15.740  11.047
22646W        W92461  16.620   3.248   1.843
22647W        W92462  43.020  27.669   2.189
22648W        W92463  34.466   1.357   3.865
22649W        W92464  31.011  42.375   4.303
22650W        W92465   7.841  37.862  14.393
22651W        W92466   9.346  26.175  11.473
22652W        W92467  16.653  25.997  14.858
22653W        W92468  35.363   5.336   1.285
22654W        W92469  21.557  22.129  11.005
22655W        W92470  27.541  25.020   3.697
22656W        W92471  44.400   5.800  13.050
22657W        W92472  11.354   1.301   0.368
22658W        W92473  25.629  24.150   4.807
22659W        W92474   5.885  37.542  12.896
22660W        W92475   4.263  26.483   4.614
22661W        W92476  27.052  44.782   3.691
22662W        W92477  10.167  11.685  14.478
22663W        W92478  13.814  13.839  12.082
22664W        W92479  28.611  10.710   9.443
22665W        W92480  37.580  39.933  14.874
22666W        W92481  40.386  17.632   0.874
22667W        W92482  21.541  30.036  14.284
22668W        W92483  40.928  15.736  11.548
22669W        W92484  41.981  38.410   3.212
22670W        W92485   9.322  12.668   3.270
22671W        W92486  29.056  43.381   3.742
22672W        W92487   4.326  35.538  14.873
22673W        W92488  24.529  12.778  11.046
22674W        W92489  43.439  33.504   4.714
22675W        W92490  32.965  44.381   1.320
22676W        W92491  39.001   6.313   0.755
22677W        W92492  18.697  20.652   2.330
22678W        W92493  36.565  34.383   5.758
22679W        W92494  39.463  17.065   2.359
22680W        W92495   1.352  27.043  14.764
22681W        W92496  35.909  11.638   1.432
22682W        W92497  41.904   2.853   0.937
22683W        W92498   5.853   9.266  12.384
22684W        W92499   2.837  18.185  13.859
22685W        W92500   2.752  23.533   0.368
22686W        W92501  23.583   5.864   1.219
22687W        W92502  31.505  21.647   3.316
22688W        W92503  28.582  12.250  11.446
22689W        W92504  25.539  10.807   5.291
22690W        W92505  27.966  44.369   3.172
22691W        W92506  16.648  22.531   0.855
22692W        W92507  39.921  44.852  12.419
22693W        W92508  17.686  40.816   1.717
22694W        W92509  39.964  10.378   3.701
22695W        W92510  38.369  41.499   1.719
22696W        W92511  26.988  17.252  14.323
22697W        W92512  15.115  18.718   0.728
22698W        W92513  32.495   0.355   3.683
22699W        W92514   3.285  33.969   3.837
22700W        W92515  28.533  36.042  14.348
22701W        W92516  29.022  29.130  14.815
22702W        W92517  13.828  14.302   1.244
22703W        W92518  16.700   1.786   4.256
22704W        W92519  38.946  44.844   4.166
22705W        W92520   7.284  19.637   5.183
22706W        W92521  14.268  29.175  11.946
22707W        W92522   4.745  23.696   1.224
22708W        W92523   3.230  16.683   4.801
22709W        W92524  19.633   1.321  10.417
22710W        W92525  22.532   5.769   1.793
22711W        W92526   0.839   5.407   3.356
22712W        W92527   5.235  17.083  13.403
22713W        W92528   4.390  16.093  12.909
22714W        W92529  17.779  42.294  14.883
22715W        W92530  18.732  41.947   4.285
22716W        W92531   4.353  24.663  13.311
22717W        W92532  39.502  15.162   0.730
22718W        W92533  19.227   3.716   4.745
22719W        W92534  43.384  14.108   4.621
22720W        W92535  26.110  28.661  11.503
22721W        W92536  23.579  39.437   4.227
22722W        W92537  36.044  22.636   2.258
22723W        W92538  28.444  18.591  14.290
22724W        W92539  39.321   9.350   5.678
22725W        W92540  29.924  13.809   3.860
22726W        W92541  35.440  33.551  13.004
22727W        W92542  20.244  16.273  10.604
22728W        W92543  25.686  44.443   0.943
22729W        W92544  15.590   1.292  13.327
22730W        W92545  27.180  30.049  14.448
22731W        W92546  24.604  43.926   1.753
22732W        W92547   7.678   6.683  11.445
22733W        W92548  43.888  34.983   4.121
22734W        W92549   8.197  23.021   4.157
22735W        W92550  12.647  27.474  11.862
22736W        W92551  18.282  37.360  11.604
22737W        W92552  17.673   6.705  14.828
22738W        W92553  23.066  34.983  10.902
22739W        W92554  24.076   4.347  13.880
22740W        W92555  43.453   3.422   5.176
22741W        W92556   2.884   9.880  10.994
22742W        W92557  35.007  21.569  11.106
22743W        W92558  13.661  31.646   2.226
22744W        W92559  13.632  39.809  10.964
22745W        W92560  36.556  30.940   9.990
22746W        W92561  44.931  16.747  12.926
22747W        W92562  26.542  12.692   0.818
22748W        W92563  22.606   9.825  14.510
22749W        W92564  20.034  44.469   3.795
22750W        W92565  31.449  12.697   0.321
22751W        W92566  30.034   5.217   1.334
22752W        W92567  42.294  25.171  11.056
22753W        W92568   6.919  33.005   3.182
22754W        W92569   7.298   9.854   2.831
22755W        W92570  35.857  36.853  12.995
22756W        W92571  22.081   2.397   2.793
22757W        W92572  18.789   0.783  13.439
22758W        W92573  11.142  39.821   0.913
22759W        W92574  31.900   1.964   3.235
22760W        W92575  32.037  10.257   3.192
22761W        W92576  42.462  35.563  14.787
22762W        W92577  12.813  43.437  12.857
22763W        W92578  37.414  16.681  14.842
22764W        W92579   7.332  39.551  11.896
22765W        W92580  20.672  31.523  12.074
22766W        W92581  29.575  10.149  13.326
22767W        W92582   3.313  10.267   1.448
22768W        W92583  12.215  27.527   2.816
22769W        W92584  30.156  32.094   1.774
22770W        W92585  37.559   7.673   3.213
22771W        W92586  39.956   7.876  13.904
22772W        W92587  11.821  39.918   2.243
22773W        W92588  17.645   3.831   0.422
22774W        W92589  21.692  37.564  12.391
22775W        W92590   6.864  11.172  11.065
22776W        W92591  32.543  20.575   4.206
22777W        W92592  26.676  33.494  13.387
22778W        W92593   5.801  24.706  11.060
22779W        W92594  18.216  14.768  12.948
22780W        W92595  13.168   4.738  14.328
22781W        W92596  11.366  11.685   4.709
22782W        W92597   8.713  13.809  11.606
22783W        W92598  24.512   1.881   1.777
22784W        W92599  11.703   0.297  13.978
22785W        W92600  27.474  33.110   1.737
22786W        W92601  33.901   3.397   0.278
22787W        W92602  13.203  25.486   4.182
22788W        W92603  17.618  38.560   1.421
22789W        W92604  17.146  27.644   3.190
22790W        W92605  19.232  33.126   1.772
22791W        W92606  43.767  15.693   2.837
22792W        W92607  40.379   4.443  13.026
22793W        W92608   0.329   8.366   3.147
22794W        W92609  37.083  38.066   0.762
22795W        W92610  37.030  40.313   4.735
22796W        W92611   8.877  43.404   0.763
22797W        W92612   1.336   8.803   4.617
22798W        W92613  16.580  35.010  11.498
22799W        W92614  25.614  10.383   4.219
22800W        W92615  17.782  12.347   2.810
22801W        W92616  11.226  44.918   4.712
22802W        W92617  41.970  44.329  12.555
22803W        W92618  29.146  37.048   3.286
22804W        W92619  26.159  21.246  14.311
22805W        W92620  34.892  18.576   4.330
22806W        W92621   0.836   1.732   2.678
22807W        W92622  22.239   4.846   9.938
22808W        W92623  15.101   9.367   0.779
22809W        W92624   7.398  34.866   4.770
22810W        W92625   6.398  11.787  14.306
22811W        W92626  25.569   6.864  11.590
22812W        W92627  42.419  21.129  11.861
22813W        W92628   5.361  10.301  13.005
22814W        W92629  29.103   2.844  14.837
22815W        W92630  18.272  31.456  12.367
22816W        W92631  35.962  26.607  14.473
22817W        W92632  27.519  28.143   3.798
22818W        W92633  28.061  35.857  12.567
22819W        W92634  17.190  27.458  12.043
22820W        W92635  19.226  36.586  12.953
22821W        W92636  12.798  36.494   1.762
22822W        W92637  31.902  27.640  12.953
22823W        W92638  40.324   0.921  14.513
22824W        W92639  23.733  44.796  13.480
22825W        W92640   2.831  17.230   4.169
22826W        W92641  34.540  41.830  10.415
22827W        W92642   8.283  17.284  11.552
22828W        W92643  30.960  34.029  12.560
22829W        W92644   3.338  29.994  13.518
22830W        W92645  31.924  35.902  13.817
22831W        W92646  28.622   0.316  14.505
22832W        W92647  43.958   4.931  11.586
22833W        W92648  14.761  13.821  11.021
22834W        W92649   7.351  14.241   3.840
22835W        W92650   1.296  33.435  13.508
22836W        W92651  15.187   9.238  14.432
22837W        W92652  31.539  20.589  11.991
22838W        W92653  38.065  28.988   1.240
22839W        W92654   4.261  38.076  13.995
22840W        W92655  40.480  32.039   2.239
22841W        W92656  34.547  32.619  14.893
22842W        W92657   2.733   2.250  14.005
22843W        W92658   8.769  25.131  14.931
22844W        W92659  43.950   6.797   3.376
22845W        W92660  19.263  15.123   2.332
22846W        W92661  21.027  35.031  10.976
22847W        W92662  25.670  34.516  12.508
22848W        W92663  32.024   9.158   0.275
22849W        W92664  13.347  12.841  11.606
22850W        W92665  16.612  36.847   4.288
22851W        W92666  12.245  35.507   4.145
22852W        W92667   1.745  18.256  12.079
22853W        W92668  43.922  29.644  10.591
22854W        W92669  29.148  35.855  12.349
22855W        W92670  25.039  17.604   3.753
22856W        W92671  23.700  17.776   3.860
22857W        W92672  40.457  22.570   4.164
22858W        W92673   2.744  37.512   4.776
22859W        W92674  15.784  25.690   2.869
22860W        W92675   8.723   2.258   3.851
22861W        W92676  21.610  28.159  11.474
22862W        W92677  15.736  32.022   0.257
22863W        W92678  23.511  32.441  14.341
22864W        W92679   1.741  28.452  13.358
22865W        W92680   8.694   8.181   1.214
22866W        W92681  10.248  38.832   2.228
22867W        W92682  27.462  16.176  14.379
22868W        W92683   8.778  21.080  12.975
22869W        W92684  23.171  21.044   0.323
22870W        W92685   0.386  41.408   4.673
22871W        W92686  25.108  17.082  13.540
22872W        W92687  36.538  41.459  10.492
22873W        W92688  28.459  33.037   4.136
22874W        W92689  34.435  44.473  14.371
22875W        W92690  17.064  43.288  13.935
22876W        W92691  29.011  26.466  12.029
22877W        W92692   9.167  23.672  11.528
22878W        W92693  34.419  30.413   2.351
22879W        W92694  26.531  23.697   2.327
22880W        W92695  17.099   6.869  13.972
22881W        W92696  37.021  37.065   4.222
22882W        W92697  37.988   2.469   4.755
22883W        W92698  17.690   2.461  14.803
22884W        W92699   1.303  32.920  14.289
22885W        W92700  37.335  15.629   1.812
22886W        W92701   9.249  42.445  11.595
22887W        W92702  38.856  35.915  13.853
22888W        W92703  32.936  43.774  11.405
22889W        W92704  21.527   4.371   2.691
22890W        W92705  23.667  23.171  12.393
22891W        W92706  33.433  30.619  11.601
22892W        W92707  39.986  39.917   0.338
22893W        W92708  13.627  17.671  10.628
22894W        W92709  18.270   1.404  14.908
22895W        W92710  44.366  36.855   1.271
22896W        W92711  40.439  22.093   3.221
22897W        W92712  16.087  13.318  14.429
22898W        W92713  17.126  30.659  13.008
22899W        W92714  40.906  41.448   1.910
22900W        W92715  31.608  26.195   0.466
22901W        W92716  18.139  19.130  10.461
22902W        W92717  19.151  11.751  13.501
22903W        W92718  13.109  22.193   0.428
22904W        W92719   2.298  36.348   2.272
22905W        W92720  24.625  20.751   3.216
22906W        W92721   4.399  34.085   3.345
22907W        W92722   6.743  12.361   3.249
22908W        W92723  25.013  10.644  13.927
22909W        W92724  44.985  26.103  14.769
22910W        W92725  26.203  29.975  11.383
22911W        W92726   1.248  30.001  14.492
22912W        W92727  18.283   0.364  11.569
22913W        W92728  13.166  19.141  12.995
22914W        W92729  31.910  28.956  11.596
22915W        W92730  43.489  14.111  10.428
22916W        W92731  11.668  32.123   0.833
22917W        W92732  41.386  16.709  11.061
22918W        W92733  18.679  37.020  11.958
22919W        W92734  42.304  42.364   4.834
22920W        W92735  29.113   8.846   5.285
22921W        W92736  27.541  11.863   1.834
22922W        W92737  44.414  37.971  10.413
22923W        W92738  12.655  38.890   3.282
22924W        W92739  11.801  25.658   1.415
22925W        W92740  19.102  26.599   4.697
22926W        W92741  10.732  13.688  12.566
22927W        W92742   5.325   8.295  12.832
22928W        W92743  39.927   2.443   9.991
22929W        W92744  11.711  43.473   0.934
22930W        W92745  13.826  28.500   1.694
22931W        W92746  41.875  23.631  12.908
22932W        W92747  28.494  21.104  12.973
22933W        W92748  27.453  44.451  11.903
22934W        W92749  34.965  26.084  12.450
22935W        W92750  41.020   5.918   5.614
22936W        W92751  17.073  17.626  10.975
22937W        W92752  17.277  18.651  10.921
22938W        W92753  29.656  32.561  10.412
22939W        W92754  21.618   5.197   2.882
22940W        W92755  37.442  26.496   3.382
22941W        W92756  13.286   3.937  12.001
22942W        W92757  14.303  22.013  12.922
22943W        W92758  41.919  28.095  14.488
22944W        W92759  22.605  17.659  11.092
22945W        W92760  19.641   5.392  12.826
22946W        W92761  39.912   5.696   1.337
22947W        W92762  24.077  35.381  11.556
22948W        W92763  36.958  42.318   3.799
22949W        W92764   3.456  25.584  10.570
22950W        W92765  43.968  13.311  12.960
22951W        W92766  13.114  36.556  10.947
22952W        W92767  16.159  17.659  14.506
22953W        W92768  23.506  28.164  13.480
22954W        W92769  12.680   9.336  10.561
22955W        W92770  36.534   8.353   2.879
22956W        W92771  20.188   0.344   4.805
22957W        W92772  30.121   2.279   4.647
22958W        W92773  35.582   9.846   1.821
22959W        W92774  41.467   4.907  11.114
22960W        W92775  44.880  32.935   1.704
22961W        W92776  42.399   5.393  14.450
22962W        W92777  26.642  43.770   2.283
22963W        W92778   2.921   3.428   1.351
22964W        W92779  37.484  43.468  11.115
22965W        W92780  17.292  35.881   1.272
22966W        W92781   3.223  15.586  12.865
22967W        W92782  31.424  37.358  12.347
22968W        W92783   6.281  39.419   2.765
22969W        W92784  38.915  17.282   0.735
22970W        W92785   4.860  35.383  12.500
22971W        W92786  18.209   4.707   2.371
22972W        W92787  16.098  39.920   0.755
22973W        W92788  29.944  13.761   4.271
22974W        W92789  19.144   2.458  14.280
22975W        W92790  13.742  30.608  11.393
22976W        W92791   5.816  17.800  11.575
22977W        W92792   9.216  35.873   1.884
22978W        W92793   0.488  23.182  14.326
22979W        W92794  41.873  19.198   0.313
22980W        W92795  41.957  30.512   1.733
22981W        W92796   9.335  34.071   4.307
22982W        W92797  29.977  24.230   1.932
22983W        W92798   2.816  35.457  14.013
22984W        W92799  31.114  44.919  14.868
22985W        W92800  39.440  39.527  13.002
22986W        W92801  42.008  29.111  13.842
22987W        W92802  22.520  13.716   4.248
22988W        W92803  41.007  29.104   2.674
22989W        W92804  40.463  24.159   3.262
22990W        W92805  35.887  44.899   0.856
22991W        W92806   3.346   8.367   3.684
22992W        W92807  38.943   2.289   4.729
22993W        W92808  38.031  29.658   1.805
22994W        W92809   7.832   2.269   0.296
22995W        W92810  16.743  10.210   3.773
22996W        W92811  43.471  13.282   3.146
22997W        W92812   0.976  38.537   0.390
22998W        W92813  35.045  42.386  14.787
22999W        W92814  12.731   7.726  12.541
23000W        W92815   9.657   2.385   0.450
23001W        W92816  14.326  30.448  10.512
23002W        W92817  26.025  28.108  14.936
23003W        W92818   5.811  16.666  10.506
23004W        W92819  13.207  39.048   3.836
23005W        W92820  20.548  23.618  10.562
23006W        W92821   3.934  14.626   1.731
23007W        W92822  32.557  30.641   5.129
23008W        W92823  17.080  44.831  14.880
23009W        W92824  17.744  42.941   0.308
23010W        W92825   2.312   5.732  12.873
23011W        W92826  30.502   4.414   0.884
23012W        W92827  12.154  43.945  14.328
23013W        W92828   7.377  10.676  14.456
23014W        W92829  31.434  43.915  11.415
23015W        W92830  41.989  17.213   1.387
23016W        W92831  37.830  25.044   3.257
23017W        W92832  38.068  25.062   1.869
23018W        W92833  18.211  27.973  13.893
23019W        W92834   1.843  29.476   3.255
23020W        W92835   1.838  27.486  13.366
23021W        W92836  23.707  21.082  14.288
23022W        W92837  41.015  37.376  13.451
23023W        W92838  13.241  22.081   1.343
23024W        W92839   0.849   6.210   0.921
23025W        W92840   6.682   9.361  10.973
23026W        W92841  18.662  20.250   1.845
23027W        W92842  20.042  33.538  12.458
23028W        W92843  20.130  25.156  10.552
23029W        W92844  15.213  44.978   2.698
23030W        W92845   0.395  33.522  14.807
23031W        W92846  25.685  30.431  12.494
23032W        W92847  32.023  22.698   4.116
23033W        W92848  23.156   2.776   2.878
23034W        W92849  20.580  29.646  10.469
23035W        W92850  20.598  25.045  12.342
23036W        W92851  16.646  27.610  11.083
23037W        W92852  30.452  37.949   0.909
23038W        W92853  15.166   2.260  13.920
23039W        W92854  29.026  16.704   0.740
23040W        W92855  13.226   7.717   4.655
23041W        W92856   8.891  40.328   4.294
23042W        W92857  22.236   9.308   1.214
23043W        W92858   1.779  16.316   3.675
23044W        W92859  33.908  30.008  11.473
23045W        W92860  44.325  28.505  10.961
23046W        W92861  23.173   7.376  11.411
23047W        W92862  12.685  35.078  13.888
23048W        W92863  42.338  41.966  12.858
23049W        W92864  38.463   4.857   2.221
23050W        W92865  41.028   8.215   0.334
23051W        W92866  41.323  11.166   0.763
23052W        W92867  15.298   8.385   4.234
23053W        W92868  18.133   9.379   4.674
23054W        W92869  14.334  36.384   2.803
23055W        W92870  19.664   6.218  11.075
23056W        W92871  29.566   7.325  12.397
23057W        W92872  17.139  11.777  14.782
23058W        W92873  44.262  20.679  14.007
23059W        W92874  14.618  21.073   2.312
23060W        W92875   8.819  37.385   2.730
23061W        W92876  34.088  32.590  12.025
23062W        W92877   1.763   1.738   2.394
23063W        W92878  30.572   6.811  10.455
23064W        W92879  40.800  26.024  10.485
23065W        W92880  33.487  38.027  14.488
23066W        W92881   3.773  18.787   1.757
23067W        W92882   6.331   6.390   4.777
23068W        W92883  22.070  11.711   3.317
23069W        W92884   0.343  33.886   0.243
23070W        W92885   3.861  14.167   0.300
23071W        W92886  21.258   0.821  10.981
23072W        W92887  41.958  35.998  14.286
23073W        W92888  26.182   9.167  12.385
23074W        W92889  15.805  16.271   2.870
23075W        W92890  44.347  23.068  14.839
23076W        W92891  33.982   1.828  13.374
23077W        W92892  13.791  44.882   4.663
23078W        W92893  44.773  16.271   0.349
23079W        W92894  15.598  13.113  12.090
23080W        W92895  31.611  40.440  10.639
23081W        W92896   4.797  18.684  12.972
23082W        W92897  27.514   8.690  12.010
23083W        W92898  38.862  21.748   1.798
23084W        W92899  26.159  39.335  10.158
23085W        W92900  38.466  27.129   0.824
23086W        W92901  11.351  40.349   3.331
23087W        W92902  19.537   3.359   1.223
23088W        W92903  12.129  44.982   3.745
23089W        W92904  14.326  16.661  12.075
23090W        W92905   4.214  32.983   0.347
23091W        W92906  27.026  25.706  10.511
23092W        W92907   2.964  26.995  11.462
23093W        W92908   8.668  24.044   1.244
23094W        W92909   3.259  27.687   0.774
23095W        W92910   8.283   3.331  12.986
23096W        W92911  33.483  16.259   1.697
23097W        W92912  21.263   8.778  12.395
23098W        W92913  33.393   0.309  14.804
23099W        W92914   3.835  33.576  14.471
23100W        W92915  40.922  35.055   4.266
23101W        W92916  37.060   7.812   2.821
23102W        W92917  21.560  22.504  10.582
23103W        W92918  44.756  14.740  12.974
23104W        W92919  23.661  15.247   3.866
23105W        W92920  19.279  31.590  12.404
23106W        W92921  37.017  42.930   1.388
23107W        W92922  25.629  10.809   4.271
23108W        W92923  15.622  36.498  13.448
23109W        W92924  12.322  36.939   4.621
23110W        W92925   3.810  30.984  13.542
23111W        W92926  24.716  29.571   3.782
23112W        W92927  16.667  28.498   4.658
23113W        W92928  38.984  34.057   1.434
23114W        W92929  10.191  42.859   2.729
23115W        W92930  39.411  20.211   4.259
23116W        W92931  16.768  43.329   2.885
23117W        W92932  25.218  13.625  11.477
23118W        W92933  24.156  39.359  14.987
23119W        W92934  21.704  21.529   3.746
23120W        W92935   2.461  22.013  12.885
23121W        W92936   6.901  37.065   4.646
23122W        W92937   2.360  15.134  10.493
23123W        W92938  12.134   8.250  14.853
23124W        W92939   3.285   8.226   2.196
23125W        W92940  35.964  38.364  12.852
23126W        W92941  13.214   4.384   0.459
23127W        W92942   0.859   4.429   1.391
23128W        W92943  40.988  27.156  14.318
23129W        W92944  18.270  15.135  11.437
23130W        W92945   3.850  18.619  13.921
23131W        W92946   1.928  34.371   3.254
23132W        W92947  22.206   4.832  10.480
23133W        W92948   0.400   1.454  13.393
23134W        W92949  13.771  40.378  14.344
23135W        W92950  32.943  35.852  11.025
23136W        W92951  28.619   7.861   1.811
23137W        W92952  43.451  44.362  10.586
23138W        W92953  44.265  23.600   0.900
23139W        W92954  21.188   3.895  11.051
23140W        W92955   9.852   7.879  14.337
23141W        W92956  36.402  28.170   1.935
23142W        W92957  18.786  42.369  14.786
23143W        W92958  41.857  40.877   3.323
23144W        W92959  19.572  31.126   1.380
23145W        W92960   3.886  39.823   1.860
23146W        W92961  16.112  37.556   4.604
23147W        W92962  30.082  23.178  12.355
23148W        W92963  27.093   8.210   0.352
23149W        W92964  19.256  20.570   3.841
23150W        W92965   0.338   5.810   1.885
23151W        W92966  32.545   8.231   3.820
23152W        W92967  25.673  13.271   1.272
23153W        W92968  44.776  37.878  11.565
23154W        W92969  16.740  38.569   3.293
23155W        W92970  24.161  19.690   2.383
23156W        W92971  28.675   7.382   1.231
23157W        W92972  16.126  22.026  14.878
23158W        W92973   8.235  38.502   0.731
23159W        W92974  41.396   1.931   3.209
23160W        W92975  24.035  17.700   1.255
23161W        W92976  21.179  33.523  10.954
23162W        W92977   1.771   7.685  13.336
23163W        W92978  44.301  10.312   1.333
23164W        W92979  38.532  19.597  14.903
23165W        W92980  19.269  11.806  12.392
23166W        W92981   3.220  23.120  13.380
23167W        W92982   6.873  14.209  14.274
23168W        W92983  41.406   0.851   2.891
23169W        W92984  39.019  37.850  11.009
23170W        W92985  32.973  38.986   1.321
23171W        W92986  44.903  44.419  13.518
23172W        W92987  40.388   9.721   3.349
23173W        W92988  32.074  39.863   4.610
23174W        W92989   0.249  38.056  13.062
23175W        W92990  19.074  22.095  11.973
23176W        W92991  38.434   5.732  10.145
23177W        W92992  40.506  26.068  10.932
23178W        W92993   1.296  34.928   1.815
23179W        W92994  32.483   9.885   3.857
23180W        W92995  36.096   5.314   0.405
23181W        W92996  21.531   3.883  10.935
23182W        W92997   8.334  44.265  11.009
23183W        W92998   8.225  14.214  11.893
23184W        W92999  29.061   7.172  11.068
23185W        W93000   1.470   1.451   1.873
23186W        W93001  43.483   0.288   5.225
23187W        W93002  18.240  29.424  11.553
23188W        W93003  19.175  21.110  12.425
23189W        W93004  43.801   5.298  11.430
23190W        W93005  31.989   8.691   3.172
23191W        W93006  38.391  33.457  11.035
23192W        W93007   1.907  42.927   4.231
23193W        W93008  39.511  20.703  11.444
23194W        W93009  22.996  31.565   4.325
23195W        W93010  38.537   1.475  12.560
23196W        W93011  28.085  21.182   4.808
23197W        W93012  44.813  21.578   3.733
23198W        W93013   4.242  38.063  10.444
23199W        W93014  36.095   2.242   3.739
23200W        W93015   0.852  28.435   0.885
23201W        W93016  28.015   1.834   4.270
23202W        W93017   9.266  16.216  14.840
23203W        W93018  14.763  44.965   4.677
23204W        W93019  21.579  31.465   2.248
23205W        W93020  30.615  41.463   2.408
23206W        W93021   5.930   8.221   0.804
23207W        W93022  38.997  32.477  11.075
23208W        W93023  24.087  24.592   3.278
23209W        W93024  36.564  22.225  14.368
23210W        W93025  42.943   9.154  14.438
23211W        W93026  10.792  10.180   2.302
23212W        W93027  19.619  34.031  12.355
23213W        W93028  34.614  42.347   2.751
23214W        W93029   3.444  42.778  11.482
23215W        W93030  10.299   8.779  11.867
23216W        W93031  28.481  33.420   2.748
23217W        W93032   4.449  42.390   1.232
23218W        W93033  40.924  15.672   0.316
23219W        W93034   5.823   3.223   4.341
23220W        W93035  24.527  26.185   4.725
23221W        W93036  38.477  20.706  11.599
23222W        W93037   7.723   1.925  12.036
23223W        W93038  10.721  15.819   2.792
23224W        W93039  29.005  38.506   1.359
23225W        W93040  11.344  16.637  11.921
23226W        W93041  36.084  14.129   1.278
23227W        W93042  20.227   8.236   3.829
23228W        W93043   0.393  37.952   2.723
23229W        W93044  19.094  16.300  13.368
23230W        W93045  14.633   8.294   2.252
23231W        W93046  41.855   0.365  14.496
23232W        W93047   7.745  25.489  10.424
23233W        W93048   9.742  36.371  10.557
23234W        W93049  21.241  37.557   2.803
23235W        W93050  37.577   8.800   4.228
23236W        W93051  23.094  39.979   2.279
23237W        W93052  28.999  28.477   1.391
23238W        W93053   1.356   8.186  14.426
23239W        W93054   6.370  21.248  14.784
23240W        W93055  17.101  40.920   4.149
23241W        W93056   5.760  25.547  10.496
23242W        W93057   4.899  16.594  14.986
23243W        W93058  39.963  12.287   4.623
23244W        W93059  18.138  15.097   0.781
23245W        W93060  11.636   1.788  12.358
23246W        W93061  18.687  18.171  14.015
23247W        W93062  27.994  34.093  11.063
23248W        W93063  11.296  42.832   3.838
23249W        W93064  39.416  14.638   0.370
23250W        W93065  23.136   6.739  10.519
23251W        W93066  23.039  37.960  12.846
23252W        W93067  40.315   5.775  10.936
23253W        W93068   3.367   7.674  14.862
23254W        W93069  18.267  40.853   4.179
23255W        W93070   4.248  20.693  13.308
23256W        W93071  43.007  37.408  13.992
23257W        W93072  33.912  41.788  14.925
23258W        W93073   2.962   2.247  13.337
23259W        W93074  18.065  29.465   3.800
23260W        W93075  26.955  17.072  12.401
23261W        W93076  35.487  41.396   3.638
23262W        W93077  20.687  11.666  11.928
23263W        W93078   5.373  21.174   2.216
23264W        W93079  39.517  40.410   1.728
23265W        W93080   7.272  14.601   4.793
23266W        W93081   0.849   3.424  11.003
23267W        W93082  42.335  37.399  14.461
23268W        W93083   9.816   0.896   3.839
23269W        W93084  40.367   3.449  12.532
23270W        W93085  39.558  43.011   2.307
23271W        W93086  26.561  25.672   4.188
23272W        W93087   9.201  25.964  12.908
23273W        W93088  13.322  34.091   4.116
23274W        W93089  35.583  30.614  14.447
23275W        W93090  35.499  10.677   4.656
23276W        W93091   1.478  27.071  11.964
23277W        W93092  13.278  18.769   5.101
23278W        W93093  17.231  43.019   0.372
23279W        W93094  23.196  15.650   2.362
23280W        W93095  25.212  23.666   3.255
23281W        W93096  36.975  26.533  13.902
23282W        W93097  23.529   6.717  11.864
23283W        W93098  22.513  44.490  13.955
23284W        W93099  25.998  44.767  14.333
23285W        W93100  25.487   0.829   3.298
23286W        W93101  33.422  41.366  10.600
23287W        W93102  21.599  16.258  10.634
23288W        W93103  19.566  41.882  13.029
23289W        W93104  31.092  12.657  10.962
23290W        W93105  22.169  11.749  13.408
23291W        W93106  37.083   3.218  13.531
23292W        W93107  26.640  20.182  13.475
23293W        W93108   8.361  26.082  13.542
23294W        W93109   8.288   2.386   1.858
23295W        W93110  40.436  27.673   1.248
23296W        W93111  30.462  35.887   2.227
23297W        W93112  37.938  38.419  14.829
23298W        W93113  31.591  15.142  11.940
23299W        W93114  25.651   8.294  12.501
23300W        W93115  36.864  44.407   1.328
23301W        W93116  16.582   6.775   0.926
23302W        W93117  35.438  42.895   4.787
23303W        W93118  43.869  17.272  11.395
23304W        W93119  34.088  18.563   0.856
23305W        W93120   0.804  16.622   2.360
23306W        W93121   0.372   9.265  13.362
23307W        W93122  14.731  31.465  10.926
23308W        W93123  20.260  12.348   3.359
23309W        W93124   3.773  34.923   1.896
23310W        W93125   1.252  31.905  10.967
23311W        W93126  24.546  32.139   1.746
23312W        W93127  22.026  13.780  11.073
23313W        W93128  16.713   0.901  12.472
23314W        W93129  38.042  29.072   0.813
23315W        W93130  40.882  26.992   4.209
23316W        W93131  23.216  31.109  13.973
23317W        W93132   1.358  33.091   1.783
23318W        W93133  31.031  12.623  13.356
23319W        W93134   3.323  12.704   0.887
23320W        W93135  23.069  11.808   4.252
23321W        W93136  40.873  40.865   1.427
23322W        W93137  23.020  41.505  14.500
23323W        W93138  17.146  25.606   3.847
23324W        W93139   2.874  35.362  12.900
23325W        W93140   2.787  25.559  13.487
23326W        W93141  39.400  35.879   1.451
23327W        W93142  19.187   3.922  11.947
23328W        W93143   3.949   8.867   3.770
23329W        W93144   8.847  15.157  10.433
23330W        W93145   1.393   6.207  13.372
23331W        W93146  44.935  29.498  13.339
23332W        W93147  25.518  11.225  11.958
23333W        W93148   0.833  43.310   3.149
23334W        W93149  34.954  38.889  12.440
23335W        W93150  24.576  37.447   3.861
23336W        W93151  13.145  38.386  13.400
23337W        W93152  31.135  10.709  11.864
23338W        W93153  28.990  26.463  12.437
23339W        W93154  20.272  38.911   3.854
23340W        W93155  42.428   5.262  13.859
23341W        W93156  32.142   0.343  11.028
23342W        W93157  33.549  37.041  13.399
23343W        W93158  36.381   0.927  11.000
23344W        W93159  33.618  35.875  12.948
23345W        W93160  42.873  16.229   1.725
23346W        W93161  40.410  40.809  13.314
23347W        W93162  30.071  28.487   1.781
23348W        W93163   4.305   3.776   3.706
23349W        W93164   2.722  17.122  13.317
23350W        W93165  35.072   2.812  11.959
23351W        W93166  15.126  18.179  13.413
23352W        W93167   0.489   2.240  11.036
23353W        W93168  20.711   2.952   4.792
23354W        W93169  35.869   1.917  13.007
23355W        W93170  25.982   7.869  14.467
23356W        W93171  22.136   8.659   2.178
23357W        W93172  15.108  43.510   1.838
23358W        W93173  37.399  42.458   2.295
23359W        W93174  39.907  35.521  14.907
23360W        W93175   2.758  41.436   0.746
23361W        W93176   8.655   7.382   2.345
23362W        W93177  44.895  10.324  13.982
23363W        W93178  34.106  32.960  12.467
23364W        W93179  18.654   0.852   0.852
23365W        W93180  33.470  42.960  12.927
23366W        W93181  37.918  21.523   4.201
23367W        W93182  25.032  24.697  10.435
23368W        W93183  30.526   7.397   2.902
23369W        W93184   0.405   4.385   1.811
23370W        W93185  25.691   4.759  12.895
23371W        W93186  13.813  14.285  12.484
23372W        W93187  44.959  19.737  14.312
23373W        W93188  36.915   9.154   2.776
23374W        W93189  39.826  21.188   3.631
23375W        W93190  28.672  35.858   1.883
23376W        W93191  44.381  27.029   4.227
23377W        W93192  15.727  11.863   4.772
23378W        W93193  19.180  22.612  11.599
23379W        W93194  23.628  37.082  13.498
23380W        W93195  19.113   4.859  14.334
23381W        W93196  24.512  39.527  11.428
23382W        W93197   5.306  10.675  11.999
23383W        W93198  38.838  13.753   2.714
23384W        W93199  29.152  28.654   4.206
23385W        W93200  19.748   7.721   2.850
23386W        W93201  40.397  39.418  14.383
23387W        W93202  18.107  31.939  10.637
23388W        W93203  27.450  17.680  11.464
23389W        W93204  17.090   1.962   3.167
23390W        W93205  28.452  14.620  14.027
23391W        W93206  41.507  30.489  14.454
23392W        W93207  38.998  30.621   4.325
23393W        W93208  38.840  19.077   0.353
23394W        W93209  34.589  31.614   3.179
23395W        W93210  32.458   4.319  14.790
23396W        W93211  33.464  15.693   5.219
23397W        W93212  16.784  20.700   1.270
23398W        W93213   6.313  43.270  14.357
23399W        W93214  13.768  43.803   3.340
23400W        W93215  31.058   7.234   4.280
23401W        W93216  31.002  20.223   4.650
23402W        W93217  20.252   0.363   3.850
23403W        W93218  22.732  29.140  14.845
23404W        W93219  14.191  17.750  13.362
23405W        W93220  38.528  31.123  12.037
23406W        W93221  12.792   5.354   0.904
23407W        W93222   7.697  43.851   0.807
23408W        W93223   0.494  43.500  13.054
23409W        W93224  18.774  39.974  14.409
23410W        W93225  19.053  26.079   4.354
23411W        W93226  21.697  30.151   4.313
23412W        W93227  43.513  39.900  11.510
23413W        W93228   4.699  34.922  12.453
23414W        W93229  38.861  31.124  13.809
23415W        W93230  41.510  33.480  11.457
23416W        W93231  37.546  23.184  11.883
23417W        W93232  28.002   8.683   4.194
23418W        W93233  41.909  44.491   1.876
23419W        W93234  15.629  26.022  11.897
23420W        W93235  41.316   1.480  11.081
23421W        W93236  16.707   5.379  14.895
23422W        W93237   8.371  14.596   4.189
23423W        W93238  43.294  15.823  11.420
23424W        W93239   8.399  41.404   2.876
23425W        W93240  29.536  41.308  10.950
23426W        W93241   7.840  35.364   1.819
23427W        W93242  28.453  37.007   1.223
23428W        W93243  12.307  14.816  14.297
23429W        W93244  28.020   7.708   0.966
23430W        W93245   8.373  12.709   1.929
23431W        W93246  17.070  32.011  14.013
23432W        W93247  17.062  17.224   5.156
23433W        W93248  35.375  14.266  12.034
23434W        W93249   5.749  15.739   0.320
23435W        W93250  40.949  41.927  13.357
23436W        W93251  36.442  34.497   4.672
23437W        W93252  28.513  44.880   4.613
23438W        W93253  10.336  17.221  11.026
23439W        W93254  17.245   3.822   1.258
23440W        W93255   9.882  27.553   0.852
23441W        W93256   4.760  33.441   1.814
23442W        W93257   1.895  24.043   4.599
23443W        W93258   2.821  37.467   1.896
23444W        W93259  25.705  18.115   1.927
23445W        W93260  37.534   6.764   2.225
23446W        W93261  18.722  35.889  14.795
23447W        W93262  12.315   2.423  14.760
23448W        W93263  29.055  10.333  12.004
23449W        W93264  30.017   9.841   4.265
23450W        W93265  42.014  34.574  13.804
23451W        W93266  41.474  29.540  13.349
23452W        W93267  19.270  17.118   2.312
23453W        W93268  27.490   7.673   0.331
23454W        W93269  40.039  16.766  12.445
23455W        W93270  25.037  21.106  11.962
23456W        W93271  41.373   4.817  13.824
23457W        W93272  26.190   8.364   2.314
23458W        W93273  42.420  38.971   0.353
23459W        W93274  13.757  17.640  11.873
23460W        W93275   2.922  22.070   3.817
23461W        W93276  16.249  28.637   1.886
23462W        W93277  21.034  41.924   0.795
23463W        W93278   6.405  42.777   2.673
23464W        W93279   3.749  40.398   2.726
23465W        W93280   4.806  27.448   3.224
23466W        W93281  19.174   1.414  10.413
23467W        W93282  29.632   4.419  13.428
23468W        W93283  43.441   1.377   0.886
23469W        W93284  34.869  28.117   9.954
23470W        W93285  35.603  15.144   2.322
23471W        W93286  43.449  43.882  13.843
23472W        W93287  10.155  25.481  13.926
23473W        W93288  14.610  35.604  10.445
23474W        W93289  23.232  13.623  12.867
23475W        W93290  19.612  36.919  13.931
23476W        W93291  26.659  15.775  14.951
23477W        W93292   8.665   2.440   2.325
23478W        W93293  24.646   2.884   2.381
23479W        W93294  17.063  37.461  14.411
23480W        W93295   7.865   1.424   1.418
23481W        W93296  20.226  26.460  10.568
23482W        W93297  22.121  19.697  12.379
23483W        W93298  33.464  13.179  10.575
23484W        W93299  19.263  39.382  12.477
23485W        W93300  31.092  28.442   1.743
23486W        W93301  14.666  13.313  13.808
23487W        W93302  37.366  35.378  11.113
23488W        W93303  11.817  12.132  14.374
23489W        W93304  12.781  36.884   1.806
23490W        W93305   1.810  13.619  11.415
23491W        W93306  38.429   1.955  14.010
23492W        W93307  39.901   6.676  13.323
23493W        W93308  42.925  43.863  13.986
23494W        W93309  42.473   4.295   4.654
23495W        W93310  20.211  36.570   4.782
23496W        W93311   1.297  41.006   0.913
23497W        W93312  12.624  25.676  10.585
23498W        W93313  30.933  23.003  11.997
23499W        W93314   6.700   7.849  14.971
23500W        W93315  40.401  10.742  12.460
23501W        W93316   6.797  37.898  12.087
23502W        W93317   2.398  26.204   2.392
23503W        W93318  25.057  13.704  14.344
23504W        W93319  14.140   5.913   0.750
23505W        W93320  12.689   8.671  11.041
23506W        W93321  26.052  23.696   2.886
23507W        W93322  14.140  33.467   4.281
23508W        W93323  13.347  43.363   1.729
23509W        W93324   4.347   6.839   1.332
23510W        W93325   1.255  31.431   2.878
23511W        W93326  28.553  25.504   0.736
23512W        W93327  31.450   1.741  13.044
23513W        W93328  11.781  13.189  14.388
23514W        W93329   0.941  25.165  10.040
23515W        W93330  20.163  42.885   4.300
23516W        W93331   2.276  42.419  12.918
23517W        W93332  20.232   5.418  13.052
23518W        W93333  24.084   9.845  14.827
23519W        W93334   3.229  19.586  13.865
23520W        W93335   1.289  44.319   4.798
23521W        W93336  30.080  24.096   4.633
23522W        W93337  14.113  39.048   1.271
23523W        W93338  33.042   4.298   3.173
23524W        W93339  20.102   3.300   3.829
23525W        W93340   0.260  31.556   2.312
23526W        W93341  39.442   7.208   0.903
23527W        W93342  20.101  20.099   0.388
23528W        W93343  11.648  19.730   1.778
23529W        W93344  39.439  42.865   3.728
23530W        W93345  19.228   1.807  11.959
23531W        W93346   6.690  38.052   1.344
23532W        W93347   9.851  22.183   1.738
23533W        W93348  20.160  43.408  14.763
23534W        W93349  34.008  15.315   2.237
23535W        W93350   0.248  39.822  11.129
23536W        W93351  20.190  36.358  11.968
23537W        W93352  26.206  24.206  11.457
23538W        W93353  17.719  25.694   4.274
23539W        W93354  31.587  43.479   0.905
23540W        W93355  28.666  39.404   2.701
23541W        W93356  25.977  28.184  12.846
23542W        W93357  22.655  23.641   1.303
23543W        W93358  11.692  14.129  10.618
23544W        W93359   6.798   6.711  13.397
23545W        W93360  26.007  39.531  11.374
23546W        W93361  43.972  12.146   3.771
23547W        W93362   1.923  33.594  10.577
23548W        W93363  37.475   9.730  14.492
23549W        W93364   1.310  40.952   0.459
23550W        W93365  11.353   0.452  14.007
23551W        W93366  38.365  40.942  10.586
23552W        W93367  22.046  12.267   2.694
23553W        W93368   0.759  10.678  13.309
23554W        W93369   4.368  21.563   3.148
23555W        W93370  33.461   3.216   3.231
23556W        W93371  32.088   7.875  13.991
23557W        W93372  23.193   0.758   0.741
23558W        W93373  35.523  12.134  14.780
23559W        W93374  25.545  23.169  12.877
23560W        W93375  37.852  26.530   1.335
23561W        W93376  38.875  41.856  14.345
23562W        W93377  38.904  38.912   3.812
23563W        W93378  16.754   6.758   3.805
23564W        W93379  36.916   3.306  11.010
23565W        W93380  36.054   6.846   1.375
23566W        W93381  29.568  18.169   3.271
23567W        W93382  39.316  43.963   0.364
23568W        W93383  11.787  21.519  12.005
23569W        W93384  10.262  29.433  13.060
23570W        W93385  40.970   6.412  14.977
23571W        W93386  18.290  28.524   2.414
23572W        W93387  24.208   5.710   0.750
23573W        W93388  34.961   0.878   3.375
23574W        W93389  12.664   6.427   3.852
23575W        W93390   0.792  31.483   3.315
23576W        W93391  44.931  37.434  13.891
23577W        W93392  30.116  25.573  13.871
23578W        W93393   0.302   3.940   0.432
23579W        W93394  28.169  37.443   0.250
23580W        W93395  16.708   4.436   3.732
23581W        W93396  42.366   1.735  11.429
23582W        W93397  18.753  28.967  10.610
23583W        W93398  39.019  15.630   1.694
23584W        W93399  35.405  25.047  11.963
23585W        W93400  20.597  32.117  13.832
23586W        W93401  13.240   8.210  14.815
23587W        W93402   7.397  17.641   0.364
23588W        W93403  40.528   9.672   0.358
23589W        W93404   9.329   0.842  13.986
23590W        W93405  35.095   5.933  13.023
23591W        W93406  18.158   1.878  11.527
23592W        W93407  21.194  23.727  11.459
23593W        W93408   3.223  37.940   3.310
23594W        W93409  21.607  37.896   4.147
23595W        W93410   2.963   8.860   4.318
23596W        W93411  39.839  39.397  14.448
23597W        W93412  27.176  31.929   2.878
23598W        W93413  14.096   9.349  12.926
23599W        W93414  22.007  43.371   4.710
23600W        W93415  34.983  31.442   3.276
23601W        W93416  17.695  10.332   2.286
23602W        W93417   2.871  20.265   0.268
23603W        W93418   6.268   7.325   0.320
23604W        W93419  16.181  17.274   3.352
23605W        W93420  13.278  22.609  13.989
23606W        W93421  33.530  43.851  12.097
23607W        W93422  23.200  15.244  14.363
23608W        W93423  35.537  24.524   1.857
23609W        W93424  29.525  11.838  12.052
23610W        W93425   7.195  16.771   1.709
23611W        W93426  15.788  38.571   2.887
23612W        W93427  41.829  38.441  10.967
23613W        W93428  15.657  36.068   4.764
23614W        W93429   9.709  40.522  13.498
23615W        W93430   5.727  33.875   4.612
23616W        W93431  10.731   8.285   0.729
23617W        W93432  39.435  34.467   4.775
23618W        W93433  40.374  39.006  13.349
23619W        W93434  22.155  34.400  11.516
23620W        W93435   6.414  29.954   1.921
23621W        W93436   1.902  29.015   4.186
23622W        W93437  26.098  21.688   2.336
23623W        W93438  38.043   0.840   5.230
23624W        W93439  40.521   8.193   4.606
23625W        W93440  26.606  17.588  14.347
23626W        W93441  18.610  38.393  14.355
23627W        W93442  33.963   1.865  11.925
23628W        W93443  18.248  12.676   1.428
23629W        W93444  21.097  12.736   2.731
23630W        W93445  16.088  13.288  14.844
23631W        W93446   4.732   1.295  12.399
23632W        W93447  24.065  33.122   2.811
23633W        W93448  11.291  20.539   3.688
23634W        W93449  17.171  38.051   0.466
23635W        W93450   5.311  37.035  11.062
23636W        W93451  21.100  37.016   4.288
23637W        W93452  44.404  11.264  13.487
23638W        W93453   7.772  27.600   0.287
23639W        W93454  44.267  11.142  11.117
23640W        W93455  23.221  26.132   1.315
23641W        W93456  31.074  41.030  10.941
23642W        W93457   5.265  30.071   2.257
23643W        W93458  32.402   6.364   3.150
23644W        W93459  21.055  15.251  10.496
23645W        W93460  28.054  41.460  12.572
23646W        W93461   7.264   5.872  11.499
23647W        W93462  27.562  31.094  13.425
23648W        W93463  32.906  31.011   1.363
23649W        W93464   6.285   0.345  11.447
23650W        W93465   7.744  28.468  14.483
23651W        W93466   2.902  20.121   3.745
23652W        W93467  34.591  37.493  11.855
23653W        W93468  38.024  22.232   3.380
23654W        W93469   0.914  38.853   4.153
23655W        W93470  43.770  35.010   4.745
23656W        W93471   0.368  10.694   3.173
23657W        W93472   8.208  43.431  12.003
23658W        W93473   2.759  31.524   0.406
23659W        W93474   9.204  27.964   3.179
23660W        W93475   2.361  23.550  11.973
23661W        W93476  39.447   2.379  13.923
23662W        W93477  11.272  17.115  11.562
23663W        W93478   3.231  15.291   4.338
23664W        W93479   8.264   3.748   3.266
23665W        W93480  29.026  11.752  13.372
23666W        W93481  13.778  41.836   3.146
23667W        W93482  30.462   3.887  12.423
23668W        W93483  33.454  26.066   0.431
23669W        W93484  16.577  36.490   1.857
23670W        W93485  29.027  26.467   3.859
23671W        W93486  38.994  20.193   3.721
23672W        W93487   5.829   3.829  13.872
23673W        W93488  19.713   4.371  10.602
23674W        W93489  28.496  43.965   3.220
23675W        W93490  33.424  26.684   4.116
23676W        W93491  12.736  31.929   0.428
23677W        W93492  14.703  11.333  14.450
23678W        W93493  44.474  42.419   0.728
23679W        W93494  25.489  27.166   3.214
23680W        W93495   7.776  17.589   0.369
23681W        W93496  13.794  20.721   0.441
23682W        W93497  23.184   9.268   3.797
23683W        W93498   1.888  34.526   3.672
23684W        W93499  22.067  15.127   3.161
23685W        W93500  31.483   5.748  12.056
23686W        W93501  37.572  31.930   0.736
23687W        W93502  41.360  16.598   1.412
23688W        W93503  17.278  32.925   3.821
23689W        W93504  11.338   5.382   4.797
23690W        W93505  11.285  41.417  10.614
23691W        W93506  24.126   5.366  13.975
23692W        W93507  31.915  17.793  11.387
23693W        W93508  12.701   0.772  12.350
23694W        W93509  24.524  30.633   1.703
23695W        W93510   0.342   0.413   4.614
23696W        W93511  34.879   3.868   3.685
23697W        W93512  15.243  29.933  13.465
23698W        W93513  39.880  11.627   3.777
23699W        W93514   9.379  32.457  14.479
23700W        W93515  22.667  26.048  12.899
23701W        W93516  30.599  18.200   2.235
23702W        W93517   0.490  22.164  13.932
23703W        W93518   5.313  29.085  14.485
23704W        W93519  36.354  41.955  13.490
23705W        W93520  26.579  14.671  14.010
23706W        W93521  14.102  14.309  13.968
23707W        W93522  30.014   3.917  14.478
23708W        W93523  40.355  41.304   2.286
23709W        W93524  20.567  33.073  12.897
23710W        W93525  20.093  21.593   1.292
23711W        W93526  16.117  28.479   2.778
23712W        W93527  41.023   5.338  11.120
23713W        W93528  12.152  27.542   3.669
23714W        W93529  29.059   2.895   4.681
23715W        W93530  29.465   2.942  10.546
23716W        W93531  33.887  12.287   1.694
23717W        W93532  37.498   2.792   0.330
23718W        W93533  11.185  28.677   4.679
23719W        W93534  39.315  33.002  13.351
23720W        W93535   4.900   5.235   0.376
23721W        W93536  41.818  17.127  12.910
23722W        W93537  26.576  27.034   3.837
23723W        W93538   1.346  10.765   2.377
23724W        W93539   9.394  19.583  13.859
23725W        W93540  29.539  19.717   9.982
23726W        W93541  22.520  34.921   2.883
23727W        W93542   9.797  41.437   3.208
23728W        W93543  17.253   5.822  14.939
23729W        W93544  23.649  31.100   2.856
23730W        W93545  10.184  27.603   2.692
23731W        W93546   8.399  24.067   3.195
23732W        W93547  43.470  12.302   2.694
23733W        W93548  10.336  10.865  11.860
23734W        W93549  17.677  38.965  13.424
23735W        W93550  13.164  25.182  10.001
23736W        W93551  26.468  28.978  13.989
23737W        W93552  21.163  38.562  11.460
23738W        W93553  23.057  23.126   3.334
23739W        W93554  24.494  29.611   4.733
23740W        W93555  31.548  27.002   0.274
23741W        W93556  10.253  42.438   2.208
23742W        W93557   3.877  11.186  12.018
23743W        W93558  15.707  12.183   5.196
23744W        W93559  10.706  20.595  12.555
23745W        W93560  39.870  38.484   4.696
23746W        W93561  21.188  32.396   0.793
23747W        W93562   2.386  34.964  10.622
23748W        W93563   3.853  18.784   0.938
23749W        W93564   1.358  13.819  14.939
23750W        W93565  20.613  34.002  10.893
23751W        W93566   7.830   8.783   4.669
23752W        W93567   9.340  34.399  10.482
23753W        W93568   7.372  41.999   0.344
23754W        W93569  11.184  42.970  12.563
23755W        W93570  23.547  22.616   1.747
23756W        W93571   5.882  33.503   4.253
23757W        W93572   9.314  12.693  14.818
23758W        W93573  43.967  34.473   0.304
23759W        W93574  25.041  30.523   0.737
23760W        W93575  30.515   7.188  13.805
23761W        W93576  18.209   5.903   3.231
23762W        W93577  20.190   2.913  13.936
23763W        W93578  26.098   4.226   3.824
23764W        W93579   0.313  38.901   4.249
23765W        W93580   0.787  21.124   0.476
23766W        W93581   7.755   6.865   2.737
23767W        W93582  11.295  16.191  12.570
23768W        W93583  34.914   8.780  10.088
23769W        W93584  26.616  43.286  14.283
23770W        W93585  23.723  28.029  11.961
23771W        W93586  31.576  40.425  14.474
23772W        W93587  30.001  20.242  14.785
23773W        W93588  17.131  17.796  13.955
23774W        W93589  24.070  24.490   0.756
23775W        W93590  37.368   8.830   0.894
23776W        W93591  11.666  15.118  10.562
23777W        W93592   5.805  37.044   4.215
23778W        W93593  13.182  29.587  13.056
23779W        W93594   9.228  16.639   2.289
23780W        W93595  15.290  35.487   2.871
23781W        W93596   8.217  26.113  11.119
23782W        W93597   7.771  35.464   3.278
23783W        W93598  13.637  17.671  14.287
23784W        W93599   6.889  30.124   1.238
23785W        W93600  25.035   1.753   0.732
23786W        W93601  20.046  44.401  12.846
23787W        W93602  33.936  18.663  14.950
23788W        W93603  35.025   2.383   0.251
23789W        W93604  21.617  36.434  11.888
23790W        W93605  43.778  37.883  11.493
23791W        W93606  43.516  37.966   2.740
23792W        W93607  29.127  21.189   1.406
23793W        W93608  29.104   0.900  14.994
23794W        W93609  16.291  29.933  14.498
23795W        W93610   3.710  38.526  11.588
23796W        W93611  23.734  28.015   3.298
23797W        W93612  31.424  11.867   4.206
23798W        W93613  39.845  24.167   0.780
23799W        W93614  19.147  17.251   1.435
23800W        W93615  26.675  23.503   0.289
23801W        W93616  23.108  12.738   4.659
23802W        W93617  14.657  27.472  10.635
23803W        W93618  36.358  35.485  12.546
23804W        W93619  30.519  12.811  11.062
23805W        W93620  26.002  25.494   3.862
23806W        W93621  23.736   4.702   2.903
23807W        W93622  10.247  12.627   2.788
23808W        W93623  23.696   6.292   0.247
23809W        W93624  23.523  40.946  13.326
23810W        W93625  17.217  37.338   0.330
23811W        W93626  44.260  31.923  13.057
23812W        W93627  41.908  42.033   0.369
23813W        W93628  13.665  37.953  14.311
23814W        W93629  44.792   3.275  12.436
23815W        W93630  16.601  15.690   4.664
23816W        W93631   5.767  10.832  11.483
23817W        W93632  39.364  21.143  11.404
23818W        W93633  40.964  30.091   3.822
23819W        W93634   5.294  39.516  10.564
23820W        W93635  17.672   0.903   3.375
23821W        W93636  14.802   4.374  12.875
23822W        W93637  26.045  33.447   1.306
23823W        W93638  36.402   8.379  11.441
23824W        W93639   4.851  41.490   3.646
23825W        W93640  44.873  26.520   2.669
23826W        W93641  44.930  10.692  14.975
23827W        W93642  30.450  25.659  10.948
23828W        W93643   4.931  25.126   4.233
23829W        W93644  16.187  29.041  12.575
23830W        W93645  42.860   3.238  12.090
23831W        W93646  40.476  20.654   0.404
23832W        W93647  35.590  11.307   3.353
23833W        W93648  42.022  19.202   3.704
23834W        W93649  17.628   3.848   4.833
23835W        W93650   8.265   1.751  10.464
23836W        W93651  30.944  33.432   5.316
23837W        W93652  26.135  22.735  14.890
23838W        W93653  42.339  15.642   2.204
23839W        W93654  24.163   4.280   0.341
23840W        W93655  17.179  40.310  10.464
23841W        W93656  40.910  22.578  12.430
23842W        W93657  31.556  34.607  14.992
23843W        W93658  28.625  13.303   4.187
23844W        W93659  13.732  14.600  14.823
23845W        W93660  29.141  41.449   3.658
23846W        W93661  34.452   4.415   1.717
23847W        W93662   4.878  44.894  13.980
23848W        W93663  41.794  25.622  11.562
23849W        W93664  29.025  27.073   3.750
23850W        W93665  10.324  25.087   0.296
23851W        W93666   3.886  16.309   3.239
23852W        W93667  19.063   7.726   1.425
23853W        W93668  30.494   8.759   1.875
23854W        W93669  17.297  34.072   2.207
23855W        W93670  15.254  21.682   4.765
23856W        W93671  22.147   3.836   0.446
23857W        W93672  24.053  44.279   3.170
23858W        W93673  31.971   9.273  14.485
23859W        W93674   4.932  35.959   2.693
23860W        W93675  18.546  28.063  12.090
23861W        W93676  26.030  12.129  13.908
23862W        W93677   1.482  37.877  10.909
23863W        W93678  19.726   0.885   4.195
23864W        W93679  38.833   4.866  11.959
23865W        W93680  30.913  38.412  12.977
23866W        W93681  37.521  10.644   3.225
23867W        W93682   2.433  15.698   4.759
23868W        W93683  17.301  20.133  13.426
23869W        W93684  43.808   5.898  14.366
23870W        W93685   0.469   2.803  14.906
23871W        W93686  38.857  43.468  10.468
23872W        W93687  19.723  21.565  11.091
23873W        W93688  24.623  31.428   4.732
23874W        W93689   7.191   9.836  13.436
23875W        W93690   9.768  25.557  12.089
23876W        W93691  34.602  15.649   1.771
23877W        W93692   1.298  33.101   3.363
23878W        W93693   3.252  25.058  13.472
23879W        W93694  37.949  15.738  11.585
23880W        W93695   5.227  42.338  10.632
23881W        W93696  20.628  35.475  11.070
23882W        W93697  32.038  43.921   4.117
23883W        W93698   3.238  34.970   4.827
23884W        W93699  41.848  21.647  13.450
23885W        W93700  16.237  12.359  11.090
23886W        W93701   5.794  44.997  14.779
23887W        W93702  12.206  12.666  12.390
23888W        W93703  12.805  23.661  13.857
23889W        W93704  27.598  12.758   2.792
23890W        W93705  41.789  15.651   5.209
23891W        W93706  14.710  33.618   3.155
23892W        W93707  15.264   9.324   2.269
23893W        W93708  36.431   5.260  12.478
23894W        W93709  44.961  23.225  13.941
23895W        W93710  12.855  36.511   4.204
23896W        W93711  37.342   7.233  11.019
23897W        W93712  15.720  11.697  13.010
23898W        W93713  38.363  44.010   0.853
23899W        W93714  15.689  28.028  11.052
23900W        W93715   8.199  37.937  11.922
23901W        W93716   8.677  10.168  10.079
23902W        W93717  27.473  25.965  12.342
23903W        W93718  32.013   1.836   4.773
23904W        W93719  39.387  38.513  13.979
23905W        W93720   2.244  13.335   4.754
23906W        W93721  35.401  35.578  11.863
23907W        W93722  10.379  41.387   1.784
23908W        W93723  33.087  21.643  14.967
23909W        W93724  28.510  20.670  13.841
23910W        W93725  11.719  42.843  12.428
23911W        W93726  42.399   7.847   2.695
23912W        W93727  34.041  14.720  13.384
23913W        W93728  28.461   8.303  12.507
23914W        W93729  38.836  32.412  13.438
23915W        W93730   7.777  19.660   2.712
23916W        W93731  34.957  31.592   9.514
23917W        W93732  23.581  29.016  12.014
23918W        W93733  38.933  22.026  10.423
23919W        W93734  21.088  43.277  10.550
23920W        W93735  28.082  43.836  11.908
23921W        W93736  11.657   3.880   1.767
23922W        W93737  35.549  14.591  11.000
23923W        W93738  23.618  25.710   3.315
23924W        W93739   9.876  10.163  14.961
23925W        W93740  26.983  32.612  12.039
23926W        W93741   8.665  18.593   5.137
23927W        W93742  42.441  18.600  14.839
23928W        W93743  30.101  30.476  12.509
23929W        W93744  28.933  32.893  14.793
23930W        W93745  16.190   4.290  14.377
23931W        W93746  16.169  13.780  13.377
23932W        W93747  26.559  13.620  10.592
23933W        W93748  16.603  21.620  10.561
23934W        W93749  10.853  18.788  14.863
23935W        W93750  32.045  21.185   3.224
23936W        W93751  12.660  36.923  13.798
23937W        W93752  44.834   2.424  13.919
23938W        W93753  23.184  28.536   0.369
23939W        W93754  41.435   2.273   0.753
23940W        W93755  17.693  36.458   3.203
23941W        W93756   1.754  10.666  11.031
23942W        W93757   2.368   3.774  14.401
23943W        W93758  33.967  35.386  11.523
23944W        W93759   9.796  27.515  11.938
23945W        W93760  39.940  26.562   4.690
23946W        W93761  20.755  30.454  12.965
23947W        W93762  28.644  22.195   3.208
23948W        W93763   8.757  20.103   2.256
23949W        W93764  32.438  36.873  11.122
23950W        W93765  44.820  12.820  10.535
23951W        W93766  28.935  37.444  12.946
23952W        W93767  21.551  24.569  14.897
23953W        W93768  18.165  26.042  13.826
23954W        W93769   6.731  17.305   2.313
23955W        W93770  29.126  28.612  14.923
23956W        W93771  21.647  31.026  11.995
23957W        W93772  11.207  25.701   0.270
23958W        W93773   5.309  27.517  14.987
23959W        W93774  23.505  14.190   1.924
23960W        W93775  29.127   3.317   0.800
23961W        W93776  26.159  44.814  13.406
23962W        W93777  33.040  31.080  12.843
23963W        W93778  31.521  15.298  12.877
23964W        W93779  43.311  30.629  12.476
23965W        W93780  30.993   1.757   2.316
23966W        W93781  23.045   2.412  11.559
23967W        W93782  34.887   5.265  14.886
23968W        W93783  10.674  42.527   2.865
23969W        W93784   2.289  12.736   1.771
23970W        W93785  13.600   2.731  14.954
23971W        W93786  38.986   1.966   2.322
23972W        W93787   9.764  33.507  14.946
23973W        W93788  27.574  43.863  11.905
23974W        W93789  25.069  38.067  10.625
23975W        W93790  27.560  17.558  11.031
23976W        W93791  33.015  39.541   4.224
23977W        W93792  34.863  44.905  14.494
23978W        W93793  38.041  39.847  13.863
23979W        W93794  15.706  21.675  14.814
23980W        W93795  27.103  17.752   2.276
23981W        W93796  17.656  28.053  11.864
23982W        W93797  14.329  27.165   2.748
23983W        W93798   1.260   8.724  11.569
23984W        W93799   9.803  35.555  10.479
23985W        W93800  10.149  19.103  14.323
23986W        W93801  18.715  36.570  11.070
23987W        W93802  29.526  16.279   0.429
23988W        W93803  14.641   7.885   4.223
23989W        W93804  36.442  29.623  14.787
23990W        W93805  19.169  18.579   0.760
23991W        W93806  44.863  17.130   0.730
23992W        W93807  37.957  38.932   2.775
23993W        W93808  24.527  36.899   1.854
23994W        W93809   8.379  12.133   0.727
23995W        W93810  25.150  10.347  14.452
23996W        W93811   2.859  11.208  14.897
23997W        W93812  18.216  36.029  13.433
23998W        W93813  39.510   9.345   5.320
23999W        W93814  31.457  15.803   4.650
24000W        W93815  38.831  26.095   3.756
24001W        W93816   5.218  41.856   3.658
24002W        W93817   8.224  38.475   2.671
24003W        W93818  11.800   4.426  14.324
24004W        W93819   6.248  39.439  14.810
24005W        W93820  18.553  30.593   4.737
24006W        W93821  38.971  44.900   4.693
24007W        W93822   2.964  23.662   2.238
24008W        W93823  10.221  13.824  14.928
24009W        W93824   8.372   5.311  14.412
24010W        W93825   2.389  20.599   2.354
24011W        W93826  26.474  41.504  12.004
24012W        W93827  31.455  32.955   3.358
24013W        W93828  35.456  13.709  12.491
24014W        W93829  27.185  17.071  10.552
24015W        W93830  16.659  21.607  13.998
24016W        W93831  21.070   6.872   0.944
24017W        W93832  39.866  40.314   0.334
24018W        W93833  36.539  35.005  13.983
24019W        W93834  43.278  40.018  13.819
24020W        W93835  18.662  42.469  13.973
24021W        W93836  32.530  32.477  11.984
24022W        W93837  22.614  12.339  11.920
24023W        W93838   6.832  19.720  11.560
24024W        W93839  11.358  33.566  14.796
24025W        W93840  21.568  31.116   0.737
24026W        W93841  36.588  31.522   2.860
24027W        W93842  21.631  22.594   4.624
24028W        W93843  39.838  28.481   0.742
24029W        W93844  20.703  29.624   2.204
24030W        W93845  26.068  14.292  13.885
24031W        W93846   5.237   3.792  10.906
24032W        W93847  14.222  11.370   4.738
24033W        W93848  22.526  28.166   9.940
24034W        W93849  39.872   5.429   4.730
24035W        W93850   0.451  33.973   3.635
24036W        W93851  34.990  42.451  14.510
24037W        W93852  16.722  12.752   3.629
24038W        W93853  32.904  31.586   0.421
24039W        W93854  34.983   7.865   1.704
24040W        W93855   6.732  36.524   3.326
24041W        W93856  27.027  32.432   1.872
24042W        W93857  21.593  15.730  10.614
24043W        W93858  11.800   9.221   3.754
24044W        W93859  41.294  19.161   2.347
24045W        W93860   4.776  34.548  10.535
24046W        W93861  33.958  22.017   2.716
24047W        W93862  43.005  41.493   3.731
24048W        W93863   8.796  29.094  13.916
24049W        W93864  26.171  41.890   2.390
24050W        W93865   3.291  28.127   2.274
24051W        W93866  28.137  38.057  11.915
24052W        W93867  22.054  18.777   5.785
24053W        W93868  44.989  20.089  12.882
24054W        W93869   2.799   7.231   3.736
24055W        W93870  17.276   8.868   0.395
24056W        W93871   5.240  20.102   4.703
24057W        W93872  13.737  26.978  13.359
24058W        W93873  23.720  31.590  11.947
24059W        W93874  40.028  21.057  12.381
24060W        W93875  12.723  21.712   4.247
24061W        W93876  43.507  29.650  11.098
24062W        W93877  20.199  44.783  13.307
24063W        W93878  37.995   3.801   0.820
24064W        W93879  17.742   1.389   2.902
24065W        W93880   6.852  21.147  10.436
24066W        W93881  20.652  31.097  12.959
24067W        W93882  23.627  38.040   2.714
24068W        W93883   2.367  15.203  14.489
24069W        W93884   2.802   3.738  14.941
24070W        W93885  41.955   6.268  14.788
24071W        W93886  14.694   4.849   1.856
24072W        W93887  37.866  37.389  10.965
24073W        W93888  11.343   4.394  13.879
24074W        W93889  34.094  10.141  14.405
24075W        W93890  39.868   3.799  14.320
24076W        W93891  24.490  14.659   3.191
24077W        W93892  28.582  37.895  11.403
24078W        W93893  12.307  30.942  13.035
24079W        W93894   0.474  13.638  11.095
24080W        W93895   8.365   9.663   4.168
24081W        W93896  36.548  22.202   0.874
24082W        W93897   5.738  11.795  11.480
24083W        W93898  25.586  17.601  12.065
24084W        W93899  28.562  18.163  11.605
24085W        W93900  42.944  39.831   4.128
24086W        W93901  26.035  21.729   0.826
24087W        W93902  24.115  31.133   0.381
24088W        W93903   9.304  28.586   2.307
24089W        W93904  35.980  42.292   3.780
24090W        W93905   6.729  40.947   3.774
24091W        W93906   8.675   9.323   5.300
24092W        W93907  36.887  32.601  13.327
24093W        W93908  39.844  17.735   1.447
24094W        W93909   4.213  39.990  14.516
24095W        W93910  14.129   0.483   2.184
24096W        W93911  24.192  44.918  13.346
24097W        W93912  31.118  34.597   2.866
24098W        W93913   7.379   5.716   3.285
24099W        W93914  14.146  44.852  11.029
24100W        W93915  33.018  16.638  10.437
24101W        W93916   6.696  42.897   1.431
24102W        W93917  15.799   8.857  13.360
24103W        W93918  26.641  25.138   3.186
24104W        W93919  29.968  38.420   0.287
24105W        W93920  42.357  27.691  13.914
24106W        W93921  32.059  38.452  14.884
24107W        W93922  38.350   3.841   0.804
24108W        W93923  28.057  25.705   4.260
24109W        W93924  43.277  11.755  13.476
24110W        W93925  21.018  29.047   0.403
24111W        W93926  32.618  42.937  14.410
24112W        W93927  26.651  16.718  11.435
24113W        W93928  40.925  40.508   1.806
24114W        W93929  15.783   6.880   4.753
24115W        W93930  11.854   4.932   2.200
24116W        W93931  38.819  22.598  13.372
24117W        W93932   3.787  28.109  10.001
24118W        W93933  33.603  11.801   3.673
24119W        W93934   0.456  13.156  12.523
24120W        W93935   1.959  42.523  11.986
24121W        W93936   8.354  17.757   4.341
24122W        W93937  31.962   3.398   4.770
24123W        W93938  18.645  24.626   0.249
24124W        W93939   2.832   7.909  14.461
24125W        W93940  24.203   2.470   1.227
24126W        W93941   1.321  17.096  12.480
24127W        W93942  20.541   3.809   1.253
24128W        W93943   2.961  10.239   2.772
24129W        W93944  32.970  41.968  11.979
24130W        W93945  32.999  12.356   3.740
24131W        W93946  16.121  40.475   1.739
24132W        W93947  26.166  32.629   1.852
24133W        W93948   6.776  16.282  10.427
24134W        W93949  35.949  30.523  11.945
24135W        W93950  23.006  36.969  10.973
24136W        W93951  39.541  27.063   2.326
24137W        W93952   5.705  27.482  14.956
24138W        W93953  12.125   2.461   2.736
24139W        W93954  31.127  23.491   9.931
24140W        W93955  39.398   4.215   4.327
24141W        W93956  29.444   4.229   0.799
24142W        W93957  29.131   2.266  10.603
24143W        W93958  41.425  33.591   5.266
24144W        W93959   9.687  42.870  11.413
24145W        W93960   3.938  35.855  12.981
24146W        W93961  13.788   8.773  14.937
24147W        W93962  44.901  32.115   2.327
24148W        W93963  29.531  34.877   3.720
24149W        W93964   2.419  39.044  12.442
24150W        W93965  28.994  14.284   2.898
24151W        W93966  11.738  30.417  11.544
24152W        W93967  27.635   3.842  11.081
24153W        W93968  35.424  24.144   3.165
24154W        W93969  31.577  20.697  14.510
24155W        W93970  25.597  10.279  13.326
24156W        W93971  34.078  35.367   0.957
24157W        W93972  21.108  12.856   2.203
24158W        W93973  26.642  20.174   1.886
24159W        W93974   9.380   6.251   1.219
24160W        W93975   3.915   3.328  13.364
24161W        W93976  28.631  24.181   1.235
24162W        W93977  41.823  25.657  12.064
24163W        W93978  28.934  31.568   1.839
24164W        W93979  34.906  43.985  14.500
24165W        W93980   1.968  28.180   3.729
24166W        W93981  35.581  41.912  14.422
24167W        W93982  18.660  37.010  11.383
24168W        W93983  31.636  28.087   3.769
24169W        W93984  15.309   0.949  12.047
24170W        W93985  21.713  15.183   3.339
24171W        W93986   4.938   3.906   2.862
24172W        W93987  17.237   5.742   1.896
24173W        W93988  20.128  36.450   4.269
24174W        W93989  13.776  35.402  12.384
24175W        W93990  12.126  40.347  12.477
24176W        W93991  23.722  11.211   2.293
24177W        W93992   6.345  15.619   1.327
24178W        W93993  18.770  44.828  12.076
24179W        W93994  17.241  14.094  11.535
24180W        W93995  37.425  35.013  11.935
24181W        W93996  33.559  35.013  11.506
24182W        W93997  44.314   7.294   0.366
24183W        W93998   6.268  29.463  11.030
24184W        W93999  23.545   4.342   3.364
24185W        W94000  42.796   3.363  11.596
24186W        W94001  21.527  37.550   4.267
24187W        W94002  29.569  22.622  11.544
24188W        W94003  15.128  44.484  11.032
24189W        W94004  38.954  17.123   5.103
24190W        W94005  43.420  14.337  11.576
24191W        W94006  43.342   9.392   1.446
24192W        W94007  33.457   2.879  11.907
24193W        W94008  36.359  18.666  10.484
24194W        W94009  16.605   3.369  14.027
24195W        W94010  27.564  40.975   3.192
24196W        W94011  34.081  40.827  11.394
24197W        W94012  26.545   0.491   4.815
24198W        W94013  26.204  15.708   3.682
24199W        W94014   3.413  25.513  13.333
24200W        W94015   7.693  40.310   1.712
24201W        W94016  36.474  13.723   4.133
24202W        W94017   9.756   3.333   1.878
24203W        W94018  18.696  44.271   1.905
24204W        W94019  13.338  19.599   3.697
24205W        W94020  20.117  23.102   1.809
24206W        W94021  36.437   7.246  12.419
24207W        W94022   0.971  12.817   4.151
24208W        W94023  43.413  43.508   1.413
24209W        W94024  28.676  26.684  14.894
24210W        W94025  18.589  38.445   3.225
24211W        W94026  32.593  23.095  12.533
24212W        W94027  35.033  23.067  12.475
24213W        W94028  23.496   7.257   2.191
24214W        W94029  14.114  43.839   3.327
24215W        W94030  25.105   4.436  14.809
24216W        W94031  13.622  24.095  14.824
24217W        W94032   3.942   5.861  13.537
24218W        W94033  38.958  13.224   0.836
24219W        W94034  25.989  19.222  13.840
24220W        W94035  28.033   9.846  10.900
24221W        W94036   2.791  22.048   4.334
24222W        W94037  10.833  26.661  12.830
24223W        W94038  15.722   3.820  14.346
24224W        W94039   4.828   0.923  14.030
24225W        W94040   5.324   7.283   3.153
24226W        W94041  33.558   6.850  11.577
24227W        W94042   9.149  25.029  14.364
24228W        W94043   3.933  44.297  10.003
24229W        W94044  20.727  35.561  11.465
24230W        W94045   7.268   5.701   4.614
24231W        W94046  43.472  25.185   2.890
24232W        W94047  28.162  14.267  13.831
24233W        W94048  30.930   8.750   0.324
24234W        W94049  37.863  10.380  12.902
24235W        W94050  18.112  26.013   2.320
24236W        W94051  10.855   2.410  12.346
24237W        W94052  18.714  38.407  12.379
24238W        W94053  10.812  36.006   4.693
24239W        W94054  37.035  30.150   3.161
24240W        W94055   9.772  41.932  14.937
24241W        W94056  23.134  15.754  11.880
24242W        W94057  15.296  16.578   1.369
24243W        W94058  22.663  26.630  13.008
24244W        W94059  26.557  14.238  12.516
24245W        W94060   7.337  35.866  14.363
24246W        W94061   9.866   0.764   1.431
24247W        W94062  29.465  38.412   4.710
24248W        W94063  26.607  25.677   1.861
24249W        W94064   6.873  10.744   3.333
24250W        W94065  32.602  13.147   2.673
24251W        W94066   0.967  37.568  10.151
24252W        W94067  35.423  27.657   3.667
24253W        W94068   7.207   5.205  11.478
24254W        W94069   4.398  17.135   1.805
24255W        W94070   3.886  36.548  11.944
24256W        W94071  39.532  11.851   3.718
24257W        W94072  23.236   1.416   1.347
24258W        W94073  41.906  23.548  12.067
24259W        W94074   2.419  26.460  12.931
24260W        W94075  35.969  30.567   4.746
24261W        W94076  32.070  19.675  10.898
24262W        W94077  35.030   2.808   0.856
24263W        W94078  24.523   5.399  10.503
24264W        W94079  25.033  42.439   4.728
24265W        W94080  23.627  25.994   0.322
24266W        W94081  22.237  31.119   4.626
24267W        W94082  31.919  31.954   9.941
24268W        W94083  44.303   4.254   4.706
24269W        W94084  19.137   9.261   0.967
24270W        W94085  37.883  28.444   4.801
24271W        W94086  41.022  10.823  11.990
24272W        W94087  32.623  40.963   1.422
24273W        W94088  22.995  38.348  12.473
24274W        W94089  38.349  33.453   4.647
24275W        W94090  15.642  29.428   2.323
24276W        W94091  14.209   4.391  13.387
24277W        W94092  26.078  32.562  13.504
24278W        W94093   9.650   3.822   1.292
24279W        W94094  29.050  26.190  11.505
24280W        W94095   9.821   4.404  13.900
24281W        W94096  30.993  13.283  12.924
24282W        W94097  34.397   6.830  11.570
24283W        W94098   7.328  15.114  13.882
24284W        W94099  22.539  41.969   0.446
24285W        W94100  41.005  31.092  10.595
24286W        W94101  24.996  10.830  14.295
24287W        W94102  31.549  22.717  13.462
24288W        W94103  18.187   6.850  10.487
24289W        W94104   2.917  22.640   2.708
24290W        W94105  44.910  26.673  13.347
24291W        W94106  18.137  16.763  13.058
24292W        W94107  40.964  35.033   1.428
24293W        W94108  24.151  34.610  10.484
24294W        W94109  37.839  19.059  12.501
24295W        W94110  18.139  19.576  10.452
24296W        W94111  22.611   0.265  12.090
24297W        W94112  25.712  25.689   2.385
24298W        W94113   2.298   2.933  14.421
24299W        W94114   6.298  33.570   2.214
24300W        W94115   8.731  11.692  12.823
24301W        W94116  37.503  10.138  10.910
24302W        W94117  34.103  22.155  12.834
24303W        W94118  18.607  33.933  13.058
24304W        W94119  30.018  42.885  12.562
24305W        W94120   3.798   1.949   4.641
24306W        W94121  40.983  13.800   4.666
24307W        W94122  40.981  21.219   1.411
24308W        W94123  36.977  32.565   0.967
24309W        W94124  43.307  21.688   1.752
24310W        W94125   1.825  44.978  14.327
24311W        W94126   4.840   0.301  13.821
24312W        W94127  37.964  25.681   4.659
24313W        W94128   2.433   0.878  10.983
24314W        W94129  26.690   9.283   1.251
24315W        W94130  19.734  41.815  14.852
24316W        W94131  27.623  22.139  10.468
24317W        W94132  33.003  14.712   4.215
24318W        W94133  38.882  41.044   2.217
24319W        W94134  40.442  25.572  11.582
24320W        W94135  24.674  22.615   0.385
24321W        W94136  21.220  17.557  10.550
24322W        W94137  14.831   5.905   0.839
24323W        W94138  10.328  30.089   0.358
24324W        W94139  38.532  35.470  12.446
24325W        W94140  14.301  18.251  11.928
24326W        W94141  14.681   2.387   3.366
24327W        W94142  20.703  41.426   1.380
24328W        W94143  22.189  40.348   2.268
24329W        W94144   2.773  21.696   2.391
24330W        W94145  21.615  42.386   1.697
24331W        W94146   1.289  18.762  13.880
24332W        W94147  38.982  15.782   1.344
24333W        W94148  41.007  30.980   0.919
24334W        W94149  10.361  36.939  10.433
24335W        W94150  39.351  29.935   1.833
24336W        W94151  18.229   8.739   3.269
24337W        W94152   7.867  14.773  10.409
24338W        W94153  36.082   0.286  13.395
24339W        W94154  24.675  13.111  10.548
24340W        W94155  34.564  31.404  10.904
24341W        W94156  35.997  42.887  11.985
24342W        W94157   5.222  30.570  13.010
24343W        W94158  16.119  12.281  14.495
24344W        W94159  42.908  10.669  12.084
24345W        W94160  10.648   0.312   2.893
24346W        W94161  24.123  11.690   0.848
24347W        W94162  17.264  21.090  12.401
24348W        W94163  14.704  21.181  12.001
24349W        W94164   1.473   1.824  13.424
24350W        W94165  13.225  28.573   2.818
24351W        W94166   8.255  32.413   0.908
24352W        W94167  42.349   2.291  12.451
24353W        W94168   4.314   2.942  14.470
24354W        W94169  21.574  29.455   1.907
24355W        W94170  37.080   3.952  13.015
24356W        W94171  12.829  38.975  11.866
24357W        W94172  23.020   2.422  12.464
24358W        W94173  22.197   2.958   3.367
24359W        W94174  34.874  44.278   1.364
24360W        W94175  21.620  42.363   2.268
24361W        W94176  37.933   7.179   0.448
24362W        W94177   2.816  38.476   2.187
24363W        W94178   5.897   1.871  12.545
24364W        W94179  12.290  33.004  12.027
24365W        W94180  41.842  16.644  14.986
24366W        W94181  16.167  28.152  10.439
24367W        W94182  42.809  32.014   0.852
24368W        W94183  27.147  43.836  11.080
24369W        W94184   5.739  38.490  11.531
24370W        W94185  16.197  17.563   4.172
24371W        W94186  16.612  27.632   3.708
24372W        W94187  20.035   2.736   1.411
24373W        W94188  37.875  35.069   0.412
24374W        W94189   1.333  21.605  12.369
24375W        W94190  20.572  26.534  13.997
24376W        W94191  41.994  37.034  12.408
24377W        W94192   7.354  42.291   1.416
24378W        W94193   5.308  23.083  10.912
24379W        W94194  42.850  35.990  10.558
24380W        W94195  25.025   1.886   0.375
24381W        W94196  42.353  36.361   0.265
24382W        W94197  38.893  31.972   1.215
24383W        W94198   3.832   8.695   0.799
24384W        W94199   0.940  25.073   4.172
24385W        W94200   2.245   2.357   3.698
24386W        W94201   6.407   4.768  11.956
24387W        W94202  32.133   8.827  14.971
24388W        W94203  29.076  27.180  14.895
24389W        W94204  34.466  44.936   4.643
24390W        W94205  29.004  40.408   3.724
24391W        W94206  38.479  39.916   2.899
24392W        W94207  19.593  42.310  14.339
24393W        W94208   7.841  15.581   4.282
24394W        W94209  27.135  32.467  14.796
24395W        W94210  20.223  25.031  13.400
24396W        W94211  16.084   5.426  13.336
24397W        W94212  27.107  32.062   2.225
24398W        W94213  28.674  31.639  12.443
24399W        W94214  32.445  39.416  12.047
24400W        W94215  42.421  25.705   0.436
24401W        W94216   6.263   6.329   4.278
24402W        W94217  13.623  44.453   3.737
24403W        W94218  25.135  39.518   3.644
24404W        W94219   0.857  14.746   0.264
24405W        W94220   6.779  42.868  14.903
24406W        W94221  17.267  43.372  14.328
24407W        W94222  27.471  13.140   1.846
24408W        W94223  38.013  25.998  14.915
24409W        W94224  12.259  40.950   1.919
24410W        W94225  11.661  44.986  10.624
24411W        W94226  20.664  14.207   3.196
24412W        W94227  40.369  16.183  13.471
24413W        W94228   7.206  38.825  12.411
24414W        W94229  23.219  44.384  12.896
24415W        W94230  17.254  17.092   4.210
24416W        W94231  22.204  29.502  13.886
24417W        W94232  31.530  42.806  14.808
24418W        W94233  26.158  40.956  14.430
24419W        W94234  17.709   3.908   3.837
24420W        W94235  29.667  15.101  14.766
24421W        W94236  36.495  21.731  11.860
24422W        W94237  24.111   4.775   3.652
24423W        W94238  13.669  39.502  12.381
24424W        W94239  43.340  16.144   2.285
24425W        W94240   4.772  44.931  12.052
24426W        W94241  17.182   1.750  13.059
24427W        W94242  11.293  40.851  14.811
24428W        W94243  20.750   3.349   0.963
24429W        W94244   5.401  40.543  12.544
24430W        W94245  14.100  33.562   3.690
24431W        W94246   3.244  36.070   2.805
24432W        W94247  22.522  31.942   2.831
24433W        W94248  34.557  33.489   2.830
24434W        W94249  26.496   2.231   4.318
24435W        W94250   1.401   5.287   2.271
24436W        W94251  44.337   9.730  12.930
24437W        W94252   5.343  17.569   0.869
24438W        W94253  12.133  25.713   4.818
24439W        W94254  31.048  33.510  12.563
24440W        W94255   6.373  13.127  11.456
24441W        W94256  20.716  42.440   2.218
24442W        W94257  40.471  18.104   2.336
24443W        W94258  10.285  41.819   3.339
24444W        W94259  19.759  19.253   0.415
24445W        W94260  31.906  18.065   4.338
24446W        W94261  41.465  20.033  14.913
24447W        W94262  19.095  24.045  14.304
24448W        W94263  29.625   7.184  14.851
24449W        W94264  14.828  18.585  10.584
24450W        W94265  36.491  15.230  11.988
24451W        W94266  11.355  39.518   1.856
24452W        W94267  38.044  36.460  10.563
24453W        W94268  29.943  40.037   4.307
24454W        W94269  30.452   0.755  11.377
24455W        W94270  24.996   5.750  14.003
24456W        W94271  38.378  13.184  10.637
24457W        W94272  35.025  19.171   0.323
24458W        W94273  15.317   8.671  13.871
24459W        W94274  11.637  44.347   4.725
24460W        W94275  43.375  25.711   0.363
24461W        W94276   5.787  10.329   1.857
24462W        W94277  39.387  32.906   0.275
24463W        W94278  32.897  39.470   1.695
24464W        W94279  10.764  25.634   4.628
24465W        W94280  42.292  26.618   0.254
24466W        W94281   1.353  14.257  13.901
24467W        W94282  23.044   2.906  12.891
24468W        W94283  24.103  41.328  13.337
24469W        W94284  10.853  10.751  13.469
24470W        W94285  25.511  39.404  13.357
24471W        W94286  28.524  39.391  10.530
24472W        W94287   4.298  25.702   2.332
24473W        W94288  23.161  17.560  13.864
24474W        W94289  41.863  20.236   1.405
24475W        W94290  26.201  43.419   0.781
24476W        W94291  38.400  15.155  10.429
24477W        W94292  13.108   6.215   3.757
24478W        W94293  40.469  10.156  12.973
24479W        W94294   2.958  10.244  14.326
24480W        W94295  37.470  13.279  14.940
24481W        W94296   9.354  20.267  12.472
24482W        W94297  11.346  27.150  13.321
24483W        W94298  16.794  18.720   3.786
24484W        W94299  22.652  18.740  12.474
24485W        W94300  29.075  23.618  13.509
24486W        W94301   4.362   9.842   2.880
24487W        W94302  41.477  13.745  14.381
24488W        W94303  37.476  27.034  13.887
24489W        W94304  21.198   7.294   4.322
24490W        W94305  22.740  13.287  13.917
24491W        W94306  36.593  12.273   1.408
24492W        W94307  32.550  36.081  10.532
24493W        W94308   1.309  28.034  11.517
24494W        W94309   3.880   3.809  12.433
24495W        W94310   8.309  15.301  11.984
24496W        W94311  19.085  25.576   4.267
24497W        W94312  26.459  31.135   2.667
24498W        W94313   4.431  10.149   0.411
24499W        W94314  36.888  15.146  12.918
24500W        W94315  13.713   4.253  11.597
24501W        W94316  39.930  16.643   3.711
24502W        W94317  26.025  42.029   2.889
24503W        W94318  39.533  22.565  11.445
24504W        W94319  18.208  16.103  13.945
24505W        W94320  18.594  25.671  13.937
24506W        W94321  26.637  43.793  10.009
24507W        W94322  20.152  43.005   4.741
24508W        W94323   6.336  37.085  13.840
24509W        W94324  22.580  22.142   4.664
24510W        W94325  16.760   3.415   0.765
24511W        W94326  24.206  37.896   4.148
24512W        W94327  13.814  11.743  12.426
24513W        W94328  30.433  14.320   0.791
24514W        W94329  21.152  25.621  12.956
24515W        W94330  28.086  33.084  10.072
24516W        W94331   5.320  44.321   2.678
24517W        W94332  32.914   2.962  14.777
24518W        W94333  27.128  34.468  14.454
24519W        W94334  36.942  25.610   4.611
24520W        W94335  29.477   4.941  12.949
24521W        W94336  37.885  38.516   0.786
24522W        W94337  41.034  18.624  12.966
24523W        W94338  13.689   2.437  13.360
24524W        W94339  19.088  37.502   5.266
24525W        W94340  21.706  18.151   3.682
24526W        W94341  15.646  33.087   2.213
24527W        W94342  34.893  18.766   0.335
24528W        W94343  29.428  21.183  12.041
24529W        W94344  25.509  43.888   3.678
24530W        W94345  40.502   2.433   2.216
24531W        W94346  37.489  19.744  13.453
24532W        W94347  24.670  13.679   4.297
24533W        W94348  16.291  24.617  10.601
24534W        W94349   3.932  22.041  12.991
24535W        W94350  11.692  11.285   2.728
24536W        W94351  38.532  10.203   0.837
24537W        W94352  16.196  33.607  14.787
24538W        W94353   9.381  23.547   4.751
24539W        W94354   3.428  27.192   1.345
24540W        W94355  15.087  34.872  11.099
24541W        W94356  12.198   4.315  13.865
24542W        W94357   5.738  40.379   4.235
24543W        W94358  42.951  17.232   5.276
24544W        W94359  33.107   3.235   3.320
24545W        W94360   5.402  32.597   3.387
24546W        W94361  17.068  32.463   2.872
24547W        W94362   2.417   4.849   4.182
24548W        W94363  42.909  41.825   4.160
24549W        W94364  26.155  11.738   2.235
24550W        W94365   1.858  44.377   2.262
24551W        W94366  22.050  20.665  13.929
24552W        W94367  19.212  38.455  13.395
24553W        W94368  28.456   2.785  10.489
24554W        W94369  44.956  28.539  10.984
24555W        W94370  22.520  10.687   1.718
24556W        W94371  22.040  33.985   4.224
24557W        W94372  10.674  19.054   5.235
24558W        W94373  23.640  28.584   0.863
24559W        W94374  13.318  28.581  14.770
24560W        W94375   8.245   8.738   3.231
24561W        W94376  27.042   1.841   4.694
24562W        W94377  35.950   1.791   1.766
24563W        W94378  28.101  44.909   1.353
24564W        W94379  17.178  22.045  11.980
24565W        W94380  30.049  23.225   3.342
24566W        W94381  20.258   9.286   3.635
24567W        W94382  43.280  14.239   5.120
24568W        W94383  38.965  24.503   1.777
24569W        W94384  23.588  43.792   1.898
24570W        W94385  34.485  38.526   2.705
24571W        W94386  37.942  21.657  14.433
24572W        W94387   3.216   4.217  13.377
24573W        W94388  38.416  16.117  10.630
24574W        W94389  26.477  16.797   4.327
24575W        W94390  29.565   7.830   0.288
24576W        W94391  36.079  25.049   4.664
24577W        W94392   5.213   3.332  11.573
24578W        W94393  34.998   8.228  11.542
24579W        W94394   9.242   0.791  12.075
24580W        W94395  17.795  14.709   4.351
24581W        W94396  41.440  21.513  12.927
24582W        W94397   0.389  41.523   2.344
24583W        W94398  11.654  34.506   0.898
24584W        W94399   7.800  39.922   5.161
24585W        W94400  27.960  23.538  10.058
24586W        W94401  30.628  37.568  14.916
24587W        W94402   3.849  15.820   0.412
24588W        W94403  28.130   3.829  11.072
24589W        W94404  39.824  34.557  12.518
24590W        W94405   4.236  41.458   2.413
24591W        W94406  26.489  43.798  13.317
24592W        W94407  20.762  32.911   2.677
24593W        W94408   6.794  10.728  13.547
24594W        W94409  11.834  35.017  14.796
24595W        W94410  32.614  12.795   2.810
24596W        W94411  19.573  14.780  13.834
24597W        W94412  17.067   1.827  13.339
24598W        W94413  39.055  26.154  12.828
24599W        W94414  35.079  16.648  13.392
24600W        W94415  26.008   0.288   1.213
24601W        W94416   4.261   5.249  14.793
24602W        W94417   1.357   7.198  10.510
24603W        W94418   5.924  44.292  14.340
24604W        W94419  31.571   3.795   2.234
24605W        W94420  27.448  40.423  10.461
24606W        W94421  19.546  24.225   2.287
24607W        W94422  29.127   1.372  12.558
24608W        W94423  35.001   7.829  14.787
24609W        W94424  16.170  10.688  10.944
24610W        W94425  21.704  35.973   2.771
24611W        W94426  36.430   2.826   2.222
24612W        W94427  14.264  32.945   3.166
24613W        W94428  23.185  32.524  14.316
24614W        W94429  16.654  19.052   0.367
24615W        W94430   7.750  27.652  11.928
24616W        W94431  27.957  39.922   0.954
24617W        W94432  43.319   7.873   2.280
24618W        W94433   7.700   8.879   1.351
24619W        W94434  38.397  23.147   2.325
24620W        W94435  16.631   0.793   3.646
24621W        W94436   4.759  33.895   4.306
24622W        W94437   2.929  44.390   2.662
24623W        W94438  11.146  24.062   3.655
24624W        W94439  19.705  36.913  12.081
24625W        W94440  22.122   6.426   1.435
24626W        W94441   6.340  21.710   1.832
24627W        W94442  27.688   7.691   3.379
24628W        W94443  42.999  28.436  13.994
24629W        W94444  37.480  41.472   2.813
24630W        W94445   5.432  39.864   3.238
24631W        W94446   2.389  30.953   3.317
24632W        W94447  17.795   1.826   2.838
24633W        W94448  34.567   7.217  13.907
24634W        W94449   1.270   4.235   1.855
24635W        W94450  42.928  11.742   2.691
24636W        W94451  38.426  25.144   0.294
24637W        W94452  37.899  39.063   1.316
24638W        W94453  20.570  25.161   4.247
24639W        W94454  42.469  30.996   3.657
24640W        W94455  12.717  44.792  14.319
24641W        W94456  21.156  10.801   5.193
24642W        W94457  33.425  36.049  13.830
24643W        W94458  31.529  41.788  14.299
24644W        W94459  28.068  41.959   4.214
24645W        W94460   0.843  18.760  11.069
24646W        W94461  38.450   7.370   3.648
24647W        W94462  16.305   1.806   0.356
24648W        W94463  37.560  19.247   4.713
24649W        W94464  42.405  14.326  13.542
24650W        W94465  19.604  21.038  10.890
24651W        W94466   0.429  23.168   1.385
24652W        W94467  19.106  30.946  14.386
24653W        W94468   4.932  17.781   2.264
24654W        W94469  35.999  33.512   4.731
24655W        W94470  20.651  31.947  14.294
24656W        W94471  19.627  40.532  14.483
24657W        W94472  27.027  25.613   0.400
24658W        W94473  16.808  16.781   0.823
24659W        W94474  15.692  15.731   1.250
24660W        W94475  22.707   8.206  12.880
24661W        W94476  37.975   6.379   3.199
24662W        W94477  25.075  36.034   1.311
24663W        W94478   7.688  39.380  13.371
24664W        W94479  36.970  21.521  14.850
24665W        W94480  33.077  13.158  11.893
24666W        W94481  44.005  25.605  11.493
24667W        W94482  44.939   2.785  12.889
24668W        W94483  11.214  14.797  12.020
24669W        W94484   5.378   6.829  13.346
24670W        W94485  14.330  44.365   3.229
24671W        W94486  28.643  36.379  12.507
24672W        W94487  23.608  24.023   0.346
24673W        W94488  21.055   0.759   3.800
24674W        W94489  15.104  34.565  14.492
24675W        W94490  33.874   9.725  12.427
24676W        W94491  37.078  25.579   0.262
24677W        W94492   9.213  34.984   1.744
24678W        W94493  23.041  10.802  13.401
24679W        W94494  36.556   3.310  12.533
24680W        W94495  37.058  34.515   2.823
24681W        W94496   2.747  35.570  12.433
24682W        W94497  31.467  28.980  10.518
24683W        W94498  25.546   2.915   4.648
24684W        W94499  18.751  16.120  14.851
24685W        W94500  37.567  12.800  10.049
24686W        W94501   3.247  43.792  12.963
24687W        W94502  21.748  30.611  11.509
24688W        W94503  23.542   3.774   4.690
24689W        W94504  14.663  33.504   0.850
24690W        W94505   9.788  41.035  11.556
24691W        W94506  18.729  43.476   0.907
24692W        W94507  32.396  28.122  12.364
24693W        W94508  31.050   1.935  13.935
24694W        W94509  40.347  10.331   5.255
24695W        W94510  26.584  26.513  14.829
24696W        W94511  32.096  16.186   4.329
24697W        W94512  23.643  14.290  12.841
24698W        W94513  16.236   2.958  13.955
24699W        W94514  25.175  39.025  13.880
24700W        W94515  30.950  40.879   3.673
24701W        W94516  19.634  15.222  11.436
24702W        W94517  21.544  39.929   4.753
24703W        W94518  19.650  35.394  14.997
24704W        W94519  12.159  34.412  14.460
24705W        W94520  19.200   5.205   0.778
24706W        W94521   1.877  29.497  11.928
24707W        W94522   2.819  35.476  14.912
24708W        W94523   2.786   8.184   3.768
24709W        W94524   3.291  17.258   3.734
24710W        W94525   4.916  23.667   1.801
24711W        W94526  36.547  24.109  12.040
24712W        W94527  19.191  41.881   0.939
24713W        W94528  40.477  21.117  12.467
24714W        W94529  27.457  43.363   3.782
24715W        W94530  16.584  40.445  14.472
24716W        W94531  20.631   9.366   2.267
24717W        W94532  17.210  12.272   3.797
24718W        W94533   2.754  14.308  14.826
24719W        W94534  37.385  43.284  11.453
24720W        W94535  33.991  10.140  11.390
24721W        W94536  28.470  21.725  11.568
24722W        W94537  33.019  24.983   5.266
24723W        W94538  13.140  14.251   2.694
24724W        W94539  19.052  29.455   2.802
24725W        W94540  31.966  13.683   2.856
24726W        W94541  42.776  42.499  13.477
24727W        W94542   1.456  22.702   3.184
24728W        W94543  21.161  13.299   0.748
24729W        W94544  22.212  36.545   0.877
24730W        W94545  41.418  19.204  14.841
24731W        W94546  15.304  13.652  11.399
24732W        W94547  15.310  36.916   0.461
24733W        W94548  19.093  22.083   1.438
24734W        W94549  17.573  39.038  10.098
24735W        W94550  38.057  10.323  10.492
24736W        W94551  19.598  37.861   3.764
24737W        W94552  26.477  40.884   2.668
24738W        W94553  36.564  25.689   1.218
24739W        W94554  44.981  34.547  14.488
24740W        W94555  42.959   2.374   1.931
24741W        W94556  13.627  42.392  10.416
24742W        W94557  12.298  11.773   0.385
24743W        W94558  37.343  11.309   1.444
24744W        W94559  36.906   6.795   4.222
24745W        W94560  36.076  32.424  13.920
24746W        W94561  10.710  27.509   1.398
24747W        W94562  20.035   2.952   3.804
24748W        W94563  43.012   7.811   0.314
24749W        W94564  18.724  18.759   0.772
24750W        W94565  36.498  42.935   4.296
24751W        W94566   3.901  23.698  12.929
24752W        W94567  37.943   3.441  11.089
24753W        W94568  27.956  36.574  14.493
24754W        W94569  12.664  15.802   4.740
24755W        W94570   7.216  13.215   4.740
24756W        W94571  12.738  33.062  11.103
24757W        W94572  11.292  17.585  13.478
24758W        W94573   8.687  19.546   3.267
24759W        W94574  16.163   2.950   0.259
24760W        W94575  30.642  42.979  10.545
24761W        W94576  20.068  16.298  12.563
24762W        W94577  33.599  15.585  13.920
24763W        W94578  13.190  18.056  13.937
24764W        W94579  37.445  17.695  12.518
24765W        W94580  22.689  10.256   0.892
24766W        W94581  42.022  40.425   1.717
24767W        W94582  44.904  41.310  12.084
24768W        W94583  27.525  25.570   2.285
24769W        W94584  16.798  43.440   2.307
24770W        W94585  15.226  17.117  11.606
24771W        W94586   8.660  23.238   3.298
24772W        W94587  28.559   2.267  13.045
24773W        W94588  12.798  14.605   4.628
24774W        W94589  34.056  37.051  14.996
24775W        W94590  15.612   6.252  13.489
24776W        W94591  17.693   4.942   2.827
24777W        W94592  34.570  18.659  10.909
24778W        W94593  34.915   2.900   2.902
24779W        W94594  39.962  24.671   0.416
24780W        W94595  38.427  42.920   2.801
24781W        W94596  30.640   5.249   1.426
24782W        W94597  39.353  27.448  14.026
24783W        W94598  27.980  31.640  11.860
24784W        W94599   7.215  33.501  14.404
24785W        W94600  41.319  28.506  12.953
24786W        W94601   9.817  15.112  13.422
24787W        W94602   2.911  14.678   4.757
24788W        W94603  27.609  32.089   1.367
24789W        W94604  20.197  44.349  13.988
24790W        W94605  42.843  44.357  11.477
24791W        W94606  16.750  17.636   3.865
24792W        W94607  26.976  24.975   2.336
24793W        W94608  23.537   3.459  14.500
24794W        W94609  20.593   9.255  10.451
24795W        W94610  29.080  39.403   4.799
24796W        W94611  14.677  40.503  11.031
24797W        W94612   1.441   2.811  13.389
24798W        W94613  24.688  17.657   2.849
24799W        W94614  25.098  31.065  11.542
24800W        W94615  11.634  40.012   0.805
24801W        W94616  33.892  21.098  10.453
24802W        W94617  17.163  24.083  14.930
24803W        W94618  25.631  13.675   1.422
24804W        W94619  41.395  42.784  11.895
24805W        W94620  17.086  30.932  14.363
24806W        W94621  19.631  37.451   1.778
24807W        W94622  14.328  43.902   4.206
24808W        W94623   3.889   0.905   4.646
24809W        W94624   2.944  32.421  11.593
24810W        W94625  24.621   7.401  11.880
24811W        W94626  42.425  28.597  10.926
24812W        W94627   2.768  29.136   1.252
24813W        W94628  24.627  31.935  12.485
24814W        W94629  21.176  44.428   2.357
24815W        W94630   7.192   5.250  13.540
24816W        W94631   0.350  29.041   3.218
24817W        W94632  37.480  30.555  10.997
24818W        W94633   1.251   2.922   2.682
24819W        W94634  43.900  29.142   4.320
24820W        W94635  41.361  35.572   1.820
24821W        W94636   9.290  11.716  14.886
24822W        W94637   8.184   9.888   0.397
24823W        W94638  27.185  33.497  14.387
24824W        W94639  41.353  41.521   4.225
24825W        W94640  28.056  35.553  10.596
24826W        W94641  42.312  42.975   4.652
24827W        W94642  15.584  24.109   2.854
24828W        W94643  34.515   3.264  13.382
24829W        W94644   7.409  40.950  10.579
24830W        W94645  40.393  27.548  14.894
24831W        W94646   0.797  24.035  14.319
24832W        W94647  15.189  44.320  12.086
24833W        W94648   0.894  41.479  14.984
24834W        W94649  43.403  18.260  10.922
24835W        W94650  35.374  21.564  13.345
24836W        W94651   2.289  32.968   3.180
24837W        W94652  18.585  31.428   2.261
24838W        W94653  19.538  31.000   3.856
24839W        W94654   5.269  41.413  14.348
24840W        W94655  36.054  32.600  10.142
24841W        W94656  35.904  44.803   2.243
24842W        W94657  39.920  20.615   4.825
24843W        W94658  12.851  11.802  11.416
24844W        W94659   8.765   5.864   4.205
24845W        W94660   9.705  22.190   0.883
24846W        W94661  30.144  25.018  11.866
24847W        W94662  17.744  40.853  10.924
24848W        W94663  19.619  34.601   4.158
24849W        W94664  36.357  28.957  12.442
24850W        W94665  17.614  24.586   4.721
24851W        W94666  31.591  31.010   4.206
24852W        W94667  29.044   5.265  11.015
24853W        W94668  32.531  41.936   0.736
24854W        W94669  40.911   2.781   2.301
24855W        W94670   0.926  43.454   3.829
24856W        W94671   5.284  25.608   3.320
24857W        W94672  30.091  35.914  12.976
24858W        W94673  16.710  37.581  14.313
24859W        W94674  44.932   2.821   2.778
24860W        W94675  23.148  18.724  11.020
24861W        W94676  32.895  27.686   4.649
24862W        W94677  44.961  23.688   1.379
24863W        W94678  10.291  10.633   3.829
24864W        W94679  35.568  17.288   1.382
24865W        W94680  32.117  33.920  13.498
24866W        W94681  41.314  40.918   0.362
24867W        W94682  19.675   3.391  13.020
24868W        W94683  27.021   3.285   0.871
24869W        W94684   6.197  30.505   4.707
24870W        W94685  20.062   6.359  13.969
24871W        W94686  27.551  34.592   1.375
24872W        W94687  24.078  41.518   2.687
24873W        W94688  16.724  16.810   3.164
24874W        W94689   2.469   6.696  10.915
24875W        W94690  29.568  16.184   3.185
24876W        W94691  36.359  25.642   1.863
24877W        W94692   2.894  22.689  13.925
24878W        W94693  19.286  27.515   1.282
24879W        W94694  19.039  28.102  13.045
24880W        W94695  41.297  38.404   4.719
24881W        W94696  41.372  41.526   1.388
24882W        W94697   4.859  16.611  14.475
24883W        W94698  21.052   0.936   1.380
24884W        W94699   0.955  35.392  11.946
24885W        W94700  36.069   9.650   3.737
24886W        W94701  31.150   0.257  12.861
24887W        W94702   3.770   2.411   0.789
24888W        W94703  14.695  41.002  14.459
24889W        W94704   5.776  14.637  12.028
24890W        W94705   3.415  34.424   3.356
24891W        W94706  33.022   2.777  10.629
24892W        W94707  43.977  10.790  14.840
24893W        W94708   1.932  21.169  14.437
24894W        W94709  10.770   4.219   3.305
24895W        W94710  19.569  27.589   1.385
24896W        W94711  17.586  35.045  11.456
24897W        W94712   0.282   0.882   0.766
24898W        W94713  28.044   8.272  14.381
24899W        W94714  25.060  44.432  11.856
24900W        W94715  24.531  15.611  13.337
24901W        W94716   8.818  36.970   1.366
24902W        W94717  10.298  27.617   2.366
24903W        W94718  40.969   2.731  14.288
24904W        W94719  38.867  28.040   2.819
24905W        W94720  32.922  41.383  13.359
24906W        W94721  43.850  24.995  14.002
24907W        W94722  30.135  18.684  10.604
24908W        W94723  32.521   1.386   0.835
24909W        W94724  33.987  34.080   1.263
24910W        W94725  15.792   9.318  11.957
24911W        W94726  19.096  44.301   4.753
24912W        W94727  22.154  20.123  11.094
24913W        W94728  37.367  19.695  10.043
24914W        W94729  11.728  12.746  11.607
24915W        W94730  41.347  36.451   1.834
24916W        W94731   5.925  27.042   2.714
24917W        W94732  19.223   1.745   2.683
24918W        W94733  41.368  21.257  10.414
24919W        W94734  30.502   7.359   4.340
24920W        W94735  29.131   2.303  13.510
24921W        W94736  28.553   2.798   4.149
24922W        W94737  27.946   0.933   9.929
24923W        W94738  16.176  30.428  11.485
24924W        W94739  22.695   1.410   0.304
24925W        W94740   0.766  13.231  12.347
24926W        W94741  39.039  23.534  13.912
24927W        W94742  10.328   8.184   0.349
24928W        W94743  37.951  42.006  14.368
24929W        W94744  34.054  28.675  12.577
24930W        W94745  33.459   1.250   3.775
24931W        W94746   5.288  19.239   3.641
24932W        W94747  21.160  42.492   2.796
24933W        W94748  38.006  33.410   5.119
24934W        W94749   1.415  23.034   2.719
24935W        W94750  41.483  41.038  12.833
24936W        W94751  23.587  10.300  13.052
24937W        W94752  19.653  25.014   1.699
24938W        W94753  24.008  28.136   4.124
24939W        W94754  43.443   2.459  10.966
24940W        W94755  17.585  38.355  10.416
24941W        W94756   9.194  42.917   5.217
24942W        W94757  17.740  20.131  13.851
24943W        W94758  16.318   6.785   0.928
24944W        W94759   1.315  38.391   0.393
24945W        W94760  11.698  27.566  12.571
24946W        W94761   7.405  42.512  14.335
24947W        W94762  16.083  31.544   0.925
24948W        W94763  44.830  35.491   2.332
24949W        W94764   7.209  43.770   3.338
24950W        W94765  38.373  27.992   0.920
24951W        W94766  40.463  39.061   3.647
24952W        W94767   1.880   6.912  10.617
24953W        W94768  13.622  32.016  12.448
24954W        W94769   6.689  10.139   0.333
24955W        W94770   2.395  41.333  13.309
24956W        W94771   0.789  20.639   3.700
24957W        W94772  10.378  28.991  14.802
24958W        W94773  44.325  12.832   2.241
24959W        W94774  17.713  20.535   4.677
24960W        W94775  41.033  14.127   3.638
24961W        W94776  42.022  18.671   1.820
24962W        W94777  34.583  33.956   0.832
24963W        W94778  32.603  26.631   0.829
24964W        W94779  25.189   0.908   3.319
24965W        W94780  34.878  18.677  11.932
24966W        W94781  44.443  11.814  12.823
24967W        W94782  43.317  35.944  13.394
24968W        W94783   3.908   4.802  13.400
24969W        W94784  15.305  18.200  14.945
24970W        W94785   4.448  43.942  11.563
24971W        W94786   1.424  17.565  14.466
24972W        W94787  24.599  40.997   4.329
24973W        W94788   8.892  19.214  12.353
24974W        W94789  29.169  17.072  12.901
24975W        W94790  22.541  23.985   2.770
24976W        W94791   0.301  16.302   2.233
24977W        W94792  25.696  16.584  14.896
24978W        W94793  29.959  14.655  11.371
24979W        W94794   6.331  41.431  14.290
24980W        W94795  24.690   7.271   4.612
24981W        W94796  14.129  40.378   2.901
24982W        W94797  27.072  12.646  11.607
24983W        W94798  20.700   3.438   4.615
24984W        W94799  34.005  33.043  10.575
24985W        W94800  31.444  44.786   4.775
24986W        W94801   3.254  25.612  14.993
24987W        W94802   1.961  20.108   3.791
24988W        W94803  22.626  12.335   2.827
24989W        W94804   6.335  36.497   0.316
24990W        W94805  32.950  38.347   1.898
24991W        W94806  12.777  18.563  14.382
24992W        W94807   9.179  10.258   0.778
24993W        W94808  22.104  17.107   4.622
24994W        W94809  13.807  17.706  11.073
24995W        W94810   6.290   5.772   4.626
24996W        W94811  13.599  33.090   0.314
24997W        W94812  36.547  42.006  14.445
24998W        W94813  26.485  39.347  14.465
24999W        W94814  28.178   4.925   4.347
25000W        W94815  10.810  19.761   0.369
25001W        W94816  21.711  36.994   2.722
25002W        W94817  16.748   2.795   1.806
25003W        W94818  24.101  32.495   3.827
25004W        W94819   8.204  39.998   9.932
25005W        W94820   7.713  10.189   1.410
25006W        W94821   5.903   4.872   0.947
25007W        W94822  31.149  37.915  12.004
25008W        W94823  25.161  43.925  12.531
25009W        W94824  13.125   5.735  12.463
25010W        W94825  34.468   6.811   0.248
25011W        W94826   0.301  41.002  10.588
25012W        W94827   9.271  15.615  11.518
25013W        W94828  32.489   1.803  13.369
25014W        W94829  26.175  26.104   2.217
25015W        W94830  32.898  42.303  10.902
25016W        W94831  30.020  27.072  12.399
25017W        W94832  34.381  13.142   4.668
25018W        W94833  42.495  40.431   0.749
25019W        W94834   6.724  16.650  14.793
25020W        W94835  19.676  39.955  13.424
25021W        W94836  16.597  13.163  10.609
25022W        W94837  12.232  35.866   3.665
25023W        W94838  11.307  27.596  10.920
25024W        W94839  21.739  11.225  10.470
25025W        W94840  17.233  18.112  12.930
25026W        W94841  11.836  14.142   4.620
25027W        W94842  33.002   1.247   2.701
25028W        W94843  28.986  21.092  12.053
25029W        W94844   5.811  13.291   2.690
25030W        W94845  20.116  23.584   4.659
25031W        W94846   8.830  14.202   5.266
25032W        W94847  21.682   1.470   0.928
25033W        W94848  24.582  28.619   1.397
25034W        W94849   5.289  29.494  10.953
25035W        W94850  19.720  35.491   1.300
25036W        W94851  16.616   4.275   3.151
25037W        W94852  12.690  29.033   4.683
25038W        W94853  30.512  33.473  11.008
25039W        W94854  38.521  34.003  14.001
25040W        W94855  33.097  11.311  12.936
25041W        W94856  32.999  36.524  14.508
25042W        W94857  29.052  21.224  10.552
25043W        W94858  37.070  39.927  12.959
25044W        W94859  22.223  31.569  12.374
25045W        W94860  26.625  29.017  12.021
25046W        W94861   8.290  37.379   3.379
25047W        W94862  32.396  33.014   2.804
25048W        W94863   2.435   6.292  13.033
25049W        W94864  22.092  18.666   9.630
25050W        W94865   3.276  26.649   0.274
25051W        W94866   7.377   0.333   1.276
25052W        W94867  23.719   2.359  12.999
25053W        W94868  40.812  30.658  11.514
25054W        W94869  34.445  44.483  12.079
25055W        W94870  36.378  12.151   0.756
25056W        W94871  33.457  35.467  11.071
25057W        W94872  25.108  30.418  14.453
25058W        W94873   7.371  13.231  14.970
25059W        W94874  11.843  13.845   3.768
25060W        W94875  43.935   2.256   2.214
25061W        W94876  38.043   5.355   3.631
25062W        W94877  12.195  31.566  14.843
25063W        W94878  39.029  30.096   4.198
25064W        W94879  40.005   0.956   4.782
25065W        W94880  22.569   9.872  11.559
25066W        W94881  35.888   2.386  11.992
25067W        W94882  20.611  11.360  13.438
25068W        W94883  20.704  18.178   3.338
25069W        W94884  17.248  33.933  11.119
25070W        W94885  12.715  23.086   0.471
25071W        W94886   1.384  36.097   2.779
25072W        W94887  10.337  16.803  14.855
25073W        W94888  38.042   2.265   1.812
25074W        W94889   0.970  35.492  13.367
25075W        W94890  39.050  35.858   3.269
25076W        W94891  38.900  10.187  13.883
25077W        W94892  27.545   7.300  10.492
25078W        W94893  36.948  38.433  12.064
25079W        W94894  37.422   0.818  11.969
25080W        W94895  11.671  42.827   1.718
25081W        W94896  25.119   4.440  12.404
25082W        W94897  23.625   5.349  10.533
25083W        W94898  17.731  21.555   2.720
25084W        W94899  11.199   9.809   1.907
25085W        W94900  13.628  15.223  10.906
25086W        W94901  15.754  12.264   4.798
25087W        W94902  18.634  24.116   0.344
25088W        W94903  28.026  40.467   1.810
25089W        W94904  27.955   3.253  13.509
25090W        W94905   2.927  25.669  14.865
25091W        W94906  42.352   3.389   4.619
25092W        W94907  28.040  35.908   1.830
25093W        W94908  14.303  13.301   5.116
25094W        W94909  18.063  20.637  12.986
25095W        W94910  30.584  15.280  13.521
25096W        W94911  33.057  31.547   4.685
25097W        W94912  39.904  17.074   4.711
25098W        W94913  30.927  19.704  11.859
25099W        W94914  20.554  12.242   4.342
25100W        W94915  20.526  16.226  13.457
25101W        W94916  40.429  41.333   0.466
25102W        W94917  21.184  38.406  14.016
25103W        W94918  17.752  12.337   0.291
25104W        W94919  20.166  40.406   2.216
25105W        W94920   1.890   0.792   3.780
25106W        W94921  39.529  39.939   1.304
25107W        W94922  26.548   6.847  14.773
25108W        W94923  11.658   1.759   2.723
25109W        W94924  33.008  34.583   3.179
25110W        W94925   1.461  35.073   1.379
25111W        W94926  17.611  17.267  11.544
25112W        W94927  34.382   8.208  11.466
25113W        W94928  17.658  18.783  12.384
25114W        W94929   1.806   9.279  12.843
25115W        W94930  25.553  37.927  14.324
25116W        W94931   6.736  22.221   3.159
25117W        W94932  36.030  16.728   2.710
25118W        W94933  22.030  39.477   3.830
25119W        W94934   0.306  11.627   2.388
25120W        W94935   2.732  37.853   0.926
25121W        W94936   3.358  34.965   3.851
25122W        W94937  24.053  14.664   1.732
25123W        W94938  38.362  19.541   4.659
25124W        W94939  41.371  27.045   4.211
25125W        W94940  17.306  29.020  14.315
25126W        W94941  41.324  11.362   1.310
25127W        W94942  40.398   7.722   3.850
25128W        W94943   4.296   5.364   0.769
25129W        W94944   3.894  31.984  13.051
25130W        W94945   3.898  17.581  14.435
25131W        W94946  30.952  37.978  14.905
25132W        W94947  15.680   7.800  11.088
25133W        W94948  39.821  32.070  13.369
25134W        W94949  34.010  32.023  13.385
25135W        W94950  39.336  25.158   2.726
25136W        W94951  16.258   4.277  11.452
25137W        W94952  12.206   4.309  11.013
25138W        W94953  41.361   6.880  10.623
25139W        W94954  37.931  12.703   4.258
25140W        W94955  39.043   5.433  11.452
25141W        W94956   0.926  38.891  14.288
25142W        W94957  28.565  15.679  10.001
25143W        W94958   2.885  17.784  12.880
25144W        W94959   7.903  13.631   3.804
25145W        W94960  40.377  30.458  11.387
25146W        W94961  37.547  34.595   0.470
25147W        W94962  10.851  23.666  10.489
25148W        W94963  44.334  29.090  13.874
25149W        W94964  38.452  35.876  13.879
25150W        W94965  29.090  40.990  14.848
25151W        W94966  34.887  10.677  11.966
25152W        W94967  27.554   5.199   3.737
25153W        W94968  44.940  41.537  11.423
25154W        W94969   9.182  34.470   4.132
25155W        W94970  21.062   7.413   1.728
25156W        W94971  38.571  22.579   2.265
25157W        W94972  36.036  37.081   1.360
25158W        W94973   3.280  39.939  13.440
25159W        W94974  26.131   2.765  12.858
25160W        W94975  32.522  25.053  12.047
25161W        W94976   8.826  25.133   3.152
25162W        W94977  16.254   4.303   0.909
25163W        W94978  35.022  38.370   4.778
25164W        W94979   5.811   4.872   4.726
25165W        W94980   0.930  15.181  13.052
25166W        W94981  35.496  16.616  11.019
25167W        W94982   7.824   2.831   4.163
25168W        W94983   5.215   8.341   3.714
25169W        W94984  12.172  43.331   4.146
25170W        W94985   0.986   2.950   0.822
25171W        W94986   2.868  39.845  12.376
25172W        W94987  19.259  27.510   1.876
25173W        W94988   9.269  41.487   3.831
25174W        W94989  14.176  23.205  11.071
25175W        W94990  35.501   7.359   2.720
25176W        W94991  33.577  37.421  12.855
25177W        W94992  35.571  29.514  12.419
25178W        W94993   9.772  33.064   3.688
25179W        W94994  42.417  15.092  14.914
25180W        W94995  33.390  29.523   1.242
25181W        W94996  32.947  32.030   2.203
25182W        W94997  29.135   8.676  11.585
25183W        W94998  39.022  12.709   0.458
25184W        W94999  26.601  42.779  10.580
25185W        W95000  13.286  19.224   1.313
25186W        W95001  17.089  39.531  13.063
25187W        W95002  17.593  44.982   2.693
25188W        W95003  30.080  20.174   2.835
25189W        W95004   6.188  33.521  10.592
25190W        W95005  23.235   3.928  11.546
25191W        W95006  16.117  42.346  13.373
25192W        W95007  38.848  40.333   2.302
25193W        W95008  19.165   6.810   2.889
25194W        W95009  36.016  22.127  12.032
25195W        W95010  15.679  40.446   4.830
25196W        W95011  44.910  20.697   0.252
25197W        W95012  14.260  23.150   1.383
25198W        W95013  18.735  38.065  13.012
25199W        W95014  32.566  30.596  14.460
25200W        W95015   3.915  19.672   9.936
25201W        W95016  36.382   8.898   1.217
25202W        W95017  39.048  36.473  13.506
25203W        W95018  32.412   3.217  14.506
25204W        W95019   6.803  43.930   2.735
25205W        W95020  40.968  34.917   4.801
25206W        W95021   3.953  27.570  12.073
25207W        W95022   2.254  14.713   4.147
25208W        W95023  14.303   0.334   0.483
25209W        W95024  37.439  43.272  10.643
25210W        W95025  18.557  27.582  13.342
25211W        W95026  21.592  40.001  14.783
25212W        W95027  21.018  22.101  14.018
25213W        W95028   3.458   7.763   2.705
25214W        W95029  40.979  38.395   2.879
25215W        W95030   8.792  23.201  13.323
25216W        W95031  12.194  23.138  11.604
25217W        W95032  31.928  35.940   0.874
25218W        W95033  15.172  14.189  13.064
25219W        W95034   7.704  33.116  11.123
25220W        W95035  29.012   0.329   0.927
25221W        W95036   3.929  25.019   2.736
25222W        W95037  40.017   3.258   0.255
25223W        W95038   9.346  39.541   2.857
25224W        W95039  43.873  31.475   1.310
25225W        W95040  32.603  21.031   1.835
25226W        W95041  18.632   1.791   2.797
25227W        W95042  28.029  34.482   3.157
25228W        W95043  14.245   8.772   4.686
25229W        W95044  44.885  41.360  12.570
25230W        W95045  34.952  24.215  11.128
25231W        W95046  21.032  40.877   1.234
25232W        W95047  18.149   9.807  13.825
25233W        W95048  39.452   4.336   2.778
25234W        W95049  34.549  44.880   3.775
25235W        W95050  16.598   6.247   4.316
25236W        W95051  36.074  22.634  14.315
25237W        W95052  36.463  10.144   0.777
25238W        W95053   1.479  26.533  13.032
25239W        W95054   8.199   1.334  14.343
25240W        W95055  28.015  40.418  12.419
25241W        W95056  19.660  41.953  12.484
25242W        W95057  32.023   2.924  14.975
25243W        W95058  25.511  12.150   3.212
25244W        W95059  30.930  17.591   4.815
25245W        W95060   5.843  35.409  14.508
25246W        W95061  10.723   8.713  13.812
25247W        W95062   2.398   0.779   4.311
25248W        W95063  43.315  40.361   2.366
25249W        W95064   6.210  19.285   3.855
25250W        W95065   7.174   9.879  11.985
25251W        W95066  20.195   0.444  14.929
25252W        W95067  35.536  22.045   0.822
25253W        W95068  43.922   0.851   3.804
25254W        W95069  20.530  15.216  14.900
25255W        W95070  17.186  39.910   1.818
25256W        W95071  27.491  18.285   2.305
25257W        W95072  35.952  40.377   3.271
25258W        W95073  22.630   6.376  14.375
25259W        W95074   0.803  16.566   3.765
25260W        W95075  35.557  30.438   0.429
25261W        W95076   8.202  19.235   2.808
25262W        W95077   4.331   5.837  11.402
25263W        W95078   6.723  40.543  10.628
25264W        W95079  34.053  12.189   4.765
25265W        W95080  24.713  23.166  13.847
25266W        W95081   1.905  13.304   0.944
25267W        W95082  29.618  35.043  12.026
25268W        W95083   7.809  24.542   2.313
25269W        W95084  26.126  11.345   2.189
25270W        W95085  29.518  30.068   3.350
25271W        W95086   1.977  32.445  12.054
25272W        W95087  24.132   1.357  10.527
25273W        W95088  41.988  32.093  14.794
25274W        W95089  35.032   0.330  13.495
25275W        W95090   4.905  18.242   2.257
25276W        W95091  15.122  37.982  10.608
25277W        W95092  10.697  43.387   3.648
25278W        W95093   8.266  35.602   0.953
25279W        W95094  10.210  30.516   4.187
25280W        W95095  30.513  12.178  11.860
25281W        W95096  27.019  25.019  10.889
25282W        W95097  28.559  12.846   0.273
25283W        W95098  23.092  22.137   2.779
25284W        W95099  13.781  23.689  14.278
25285W        W95100  20.731  22.033   3.740
25286W        W95101  39.508  23.614   2.676
25287W        W95102  34.918  14.596   0.798
25288W        W95103  29.978   6.822  11.975
25289W        W95104  35.429  37.469   1.410
25290W        W95105  14.207  24.547  13.821
25291W        W95106  25.977   4.309   3.237
25292W        W95107   8.787  20.539   2.372
25293W        W95108  11.334  43.490   1.420
25294W        W95109   1.803  30.021   0.470
25295W        W95110  42.933  26.990   0.950
25296W        W95111  11.161  19.542  12.410
25297W        W95112  40.428  43.425  14.772
25298W        W95113  38.547  34.953  11.085
25299W        W95114  42.999  30.937  12.953
25300W        W95115  23.042   3.806   3.750
25301W        W95116   3.240   6.893   1.743
25302W        W95117  43.271  31.588   3.212
25303W        W95118  40.920  42.865   1.413
25304W        W95119  40.509  27.480   2.250
25305W        W95120  29.646  25.154   2.312
25306W        W95121  34.461   6.688  11.955
25307W        W95122  20.137  25.666  13.006
25308W        W95123  21.689  28.524   0.395
25309W        W95124  12.153  31.586   2.725
25310W        W95125  37.561  23.496   1.841
25311W        W95126  12.668  26.646   2.396
25312W        W95127   3.847   4.344  14.866
25313W        W95128   7.875   3.228   0.426
25314W        W95129  26.198  13.663  11.513
25315W        W95130  17.564  17.699   1.786
25316W        W95131  38.824  43.401   2.849
25317W        W95132  24.629  35.862  12.995
25318W        W95133  20.730  25.597   0.966
25319W        W95134   5.402   5.302  11.550
25320W        W95135  19.158  33.395   1.816
25321W        W95136  17.585   6.368  10.507
25322W        W95137   1.376   3.779   4.814
25323W        W95138  33.988  37.041  12.523
25324W        W95139  17.165  21.036   2.791
25325W        W95140  28.440  29.584   1.856
25326W        W95141   6.735   3.903   3.745
25327W        W95142  35.591  38.325   3.171
25328W        W95143  36.416  30.639  13.903
25329W        W95144   1.437   3.249  10.594
25330W        W95145  11.841  25.001  12.507
25331W        W95146  42.869  29.963   4.305
25332W        W95147   2.394  34.110  14.997
25333W        W95148   3.738  33.009   4.657
25334W        W95149  12.633  20.167  11.403
25335W        W95150  32.587  22.686  11.878
25336W        W95151  43.795  31.033   4.340
25337W        W95152  43.972  22.100  13.374
25338W        W95153  30.054  19.697  14.872
25339W        W95154   9.685  17.185   1.857
25340W        W95155   5.245  17.777   4.779
25341W        W95156  28.145  38.544   3.358
25342W        W95157  33.568  10.863  11.027
25343W        W95158  34.088   7.883   3.256
25344W        W95159   9.227  12.343  10.643
25345W        W95160  37.437  37.029   0.422
25346W        W95161  15.620  32.430   3.839
25347W        W95162  11.148  21.677   0.294
25348W        W95163  36.389  10.714   2.208
25349W        W95164  31.973   3.284   2.728
25350W        W95165  44.946   6.316   4.645
25351W        W95166   5.800  24.547  14.374
25352W        W95167  23.994  29.115  11.008
25353W        W95168  32.939  30.156  10.910
25354W        W95169  17.200   6.229  10.950
25355W        W95170  35.487  26.175   0.961
25356W        W95171   5.397   3.357   5.283
25357W        W95172  25.621  40.000   4.717
25358W        W95173  19.161   1.884   3.262
25359W        W95174  13.146  40.497   2.795
25360W        W95175  30.100  27.038   1.334
25361W        W95176  39.361  32.599  10.592
25362W        W95177  44.403  27.609  11.609
25363W        W95178   2.844  26.607  13.843
25364W        W95179  11.328  11.764  10.533
25365W        W95180  44.952  31.073  13.486
25366W        W95181   8.722   5.845   2.223
25367W        W95182  35.549   8.667  11.904
25368W        W95183  12.282  22.563  10.485
25369W        W95184  21.586  39.461   2.210
25370W        W95185   6.702  33.101   1.933
25371W        W95186  33.589  24.693  13.405
25372W        W95187  38.833  23.521   0.882
25373W        W95188  28.671   7.784   0.483
25374W        W95189  39.810  10.687  12.468
25375W        W95190  23.550  36.588   2.898
25376W        W95191  42.492  25.526  12.347
25377W        W95192  27.602   3.911  11.946
25378W        W95193  44.986  26.684  12.384
25379W        W95194  28.675  28.555  14.477
25380W        W95195  12.247  13.623   0.874
25381W        W95196  41.356  41.953   3.771
25382W        W95197  35.415  39.845  10.644
25383W        W95198  25.476  28.957  14.875
25384W        W95199   4.876   9.650  10.482
25385W        W95200  41.852  28.451  10.468
25386W        W95201  12.705  25.476  13.428
25387W        W95202  36.394  41.390   3.368
25388W        W95203   9.714   0.955  10.557
25389W        W95204  27.542  44.827  12.942
25390W        W95205  28.597  30.585  11.374
25391W        W95206  30.994  31.919  13.954
25392W        W95207  30.419   9.393   4.199
25393W        W95208   2.244  28.123  14.026
25394W        W95209  14.257   8.666   1.326
25395W        W95210  21.750  15.736   3.680
25396W        W95211  28.478  12.338   4.745
25397W        W95212  22.057   6.257  12.980
25398W        W95213  36.501   6.190  12.389
25399W        W95214  36.929  43.369  10.955
25400W        W95215  25.074  44.369  10.053
25401W        W95216  16.182  24.977  13.383
25402W        W95217  13.690   5.781  14.030
25403W        W95218  38.344  23.581   4.781
25404W        W95219  22.072   6.201  13.903
25405W        W95220   9.312  21.205   5.155
25406W        W95221   3.836  18.136   2.202
25407W        W95222   6.853  28.145   3.252
25408W        W95223  14.616   1.923   4.345
25409W        W95224  36.491  38.059   0.760
25410W        W95225  37.336  21.248   1.855
25411W        W95226   6.828  36.032  13.359
25412W        W95227  10.762  38.440  13.044
25413W        W95228   6.307  31.071  10.592
25414W        W95229  25.559  39.918  13.045
25415W        W95230  33.599   0.331   1.694
25416W        W95231   7.837  21.540  12.032
25417W        W95232   8.819  18.730   1.707
25418W        W95233   5.799   2.231  10.448
25419W        W95234  43.872  34.539   2.183
25420W        W95235  28.543   8.723   0.928
25421W        W95236  43.013  13.154   2.381
25422W        W95237   2.369  30.583  11.948
25423W        W95238  22.511  15.706   1.745
25424W        W95239   2.744  18.758   4.170
25425W        W95240  37.336  15.166  13.410
25426W        W95241  34.435  33.040  10.446
25427W        W95242  33.076  24.641  11.069
25428W        W95243  11.193  42.433   1.888
25429W        W95244  38.952  29.447   4.296
25430W        W95245  13.648  19.719  12.027
25431W        W95246  10.196  28.175   2.847
25432W        W95247   4.813  20.664   4.647
25433W        W95248   8.348  33.404  12.385
25434W        W95249  24.664  11.845  14.354
25435W        W95250  25.518  12.315   1.436
25436W        W95251  32.449  29.051  13.307
25437W        W95252  12.231   5.291  11.555
25438W        W95253  18.206  28.552  14.412
25439W        W95254  11.330   5.791  10.550
25440W        W95255  40.437  16.163   4.600
25441W        W95256  42.487  17.116  10.436
25442W        W95257  21.222  28.080  12.398
25443W        W95258  24.591  43.499   4.265
25444W        W95259  38.974  43.312  12.070
25445W        W95260   0.293  34.967  12.965
25446W        W95261  10.714  40.485  10.476
25447W        W95262  22.103  28.541  11.394
25448W        W95263  19.107  13.293  12.843
25449W        W95264   2.957  13.143  12.389
25450W        W95265   3.450  13.339  10.503
25451W        W95266  27.527  27.577  12.577
25452W        W95267   4.406   5.390  13.361
25453W        W95268  36.488  37.989   0.302
25454W        W95269  29.044  32.986   1.855
25455W        W95270   2.832  34.565   0.947
25456W        W95271  10.762  35.471  10.920
25457W        W95272  31.591  24.048  13.883
25458W        W95273  30.540  34.451  13.833
25459W        W95274   6.267  34.514  10.640
25460W        W95275  34.906  29.974   2.890
25461W        W95276   6.728  42.996  11.076
25462W        W95277  31.606  11.169  12.553
25463W        W95278   8.326  24.210   0.831
25464W        W95279  30.457  18.234  12.559
25465W        W95280  30.423  39.890   1.701
25466W        W95281  30.938  17.674  13.874
25467W        W95282  33.105  38.869   0.301
25468W        W95283   5.854  23.223  14.984
25469W        W95284  19.670   0.789   3.214
25470W        W95285   0.410   9.352  12.964
25471W        W95286  33.561   0.751  11.546
25472W        W95287  12.295   1.953   2.347
25473W        W95288   6.805   3.951   2.309
25474W        W95289   1.976  24.597  13.044
25475W        W95290  42.785   2.850   1.215
25476W        W95291  14.813  16.567  10.477
25477W        W95292  34.379  23.144  13.470
25478W        W95293  36.498  27.590   2.199
25479W        W95294  10.797   3.282   3.806
25480W        W95295  21.586   2.421  13.454
25481W        W95296  21.076  43.398   0.843
25482W        W95297  34.543  42.502   1.857
25483W        W95298  25.513  19.207  11.878
25484W        W95299  38.464  27.053  10.585
25485W        W95300  12.310  12.134  11.436
25486W        W95301  20.717   4.707  14.396
25487W        W95302  40.497  10.842  14.448
25488W        W95303  19.277   2.232  14.942
25489W        W95304  24.543  34.048  10.433
25490W        W95305  13.254  12.804   2.791
25491W        W95306  37.039  25.661   1.814
25492W        W95307  23.732  26.601  13.367
25493W        W95308   9.376   6.899   3.696
25494W        W95309   7.290  24.005  13.811
25495W        W95310  16.240   6.423   3.315
25496W        W95311   0.282  37.986   2.308
25497W        W95312  20.596  12.186   2.683
25498W        W95313  33.958  40.313   0.903
25499W        W95314  10.638  44.755  14.403
25500W        W95315  33.575  21.025  12.545
25501W        W95316   8.671  40.811   0.426
25502W        W95317  19.723  42.526  10.888
25503W        W95318  40.878  34.408   1.426
25504W        W95319  43.981  13.235   4.144
25505W        W95320   1.426   8.873  11.885
25506W        W95321   1.751   9.871  10.933
25507W        W95322  12.646  10.653   2.200
25508W        W95323  34.474   9.368  14.469
25509W        W95324  22.570   6.810   4.644
25510W        W95325  31.633  39.557   2.335
25511W        W95326  43.407  39.948   3.738
25512W        W95327  24.135  37.482  14.018
25513W        W95328  26.518  33.418   4.133
25514W        W95329   1.463  10.648  13.369
25515W        W95330  28.564  10.643   3.740
25516W        W95331  34.948  15.088   0.417
25517W        W95332  18.237  18.070  12.505
25518W        W95333  40.405  30.613   0.335
25519W        W95334  26.178  29.169   3.713
25520W        W95335  23.235  16.129  13.990
25521W        W95336   1.904   4.801  14.907
25522W        W95337  43.834  12.122   0.397
25523W        W95338   4.808  28.523  14.400
25524W        W95339  18.109  20.737  12.490
25525W        W95340  15.125   8.724  10.972
25526W        W95341   3.847  38.390  10.407
25527W        W95342  20.754  26.535  14.760
25528W        W95343  29.927  13.323   1.756
25529W        W95344  20.207  28.470   2.301
25530W        W95345   9.218  23.197   2.745
25531W        W95346  34.008  43.469  14.323
25532W        W95347  34.538  18.279  12.026
25533W        W95348  27.669  38.830   3.771
25534W        W95349  37.347   0.409   4.192
25535W        W95350  13.610  10.337  10.028
25536W        W95351   2.947  24.167   0.812
25537W        W95352   3.864  30.056  10.977
25538W        W95353  19.238   1.818  13.064
25539W        W95354  42.465   7.362   1.785
25540W        W95355   0.810   4.813   3.629
25541W        W95356  44.915  11.218   0.436
25542W        W95357  21.710   6.223   1.711
25543W        W95358  32.462  25.084   3.863
25544W        W95359  43.273  35.367   1.270
25545W        W95360  18.756   0.474   2.673
25546W        W95361   8.387  41.882   9.446
25547W        W95362   6.752  35.102  13.446
25548W        W95363  29.044  13.600  10.932
25549W        W95364  32.105  13.628  13.985
25550W        W95365  26.564  12.214   4.724
25551W        W95366  20.227  22.067  12.400
25552W        W95367  39.962  23.133   2.854
25553W        W95368  30.074  38.363  11.980
25554W        W95369  28.448  27.484   3.312
25555W        W95370  21.605  34.578  10.588
25556W        W95371   2.878  15.762   1.741
25557W        W95372   8.249  34.398  13.515
25558W        W95373  18.061  16.756  14.316
25559W        W95374   6.723  26.128  11.042
25560W        W95375  13.146  40.411  12.980
25561W        W95376  39.480  31.096  14.820
25562W        W95377  11.345  29.100   3.631
25563W        W95378  29.988  40.982  14.415
25564W        W95379  21.220  28.672   4.297
25565W        W95380  44.833  16.694   2.253
25566W        W95381  29.163  40.538  13.364
25567W        W95382  26.118  22.608  11.924
25568W        W95383  18.622  15.141   3.218
25569W        W95384   3.724   7.172  12.011
25570W        W95385  42.511  24.006   2.874
25571W        W95386   5.862  15.237   2.298
25572W        W95387  18.756  36.073  11.071
25573W        W95388  27.587  11.301  14.889
25574W        W95389  32.089  24.560  11.567
25575W        W95390   0.423  16.639   3.296
25576W        W95391  37.416  37.397   2.314
25577W        W95392  10.219  41.896  14.943
25578W        W95393  38.862  26.593   2.844
25579W        W95394  38.505  35.005  12.889
25580W        W95395  33.101   0.878   0.729
25581W        W95396  18.760  25.988   2.366
25582W        W95397  37.020   6.334  14.335
25583W        W95398  39.532  33.575  10.562
25584W        W95399   7.774  16.311   1.737
25585W        W95400   9.847  11.265   4.626
25586W        W95401  19.149  10.208  13.400
25587W        W95402  43.498   1.892  14.939
25588W        W95403  44.995  23.165  12.823
25589W        W95404   8.251  29.491   3.367
25590W        W95405  21.023  10.140   0.484
25591W        W95406  10.760  25.508   0.893
25592W        W95407  25.213  16.244  14.297
25593W        W95408   6.720  28.520  12.541
25594W        W95409  18.628  42.830  13.832
25595W        W95410  37.435  28.515   3.309
25596W        W95411  28.162   8.808   1.713
25597W        W95412  22.737  15.293  11.500
25598W        W95413   2.337  10.731  11.984
25599W        W95414   6.701  40.472   3.778
25600W        W95415   3.226  10.227  13.542
25601W        W95416  34.417  40.977  13.392
25602W        W95417   8.297   6.818  11.452
25603W        W95418   4.841  14.184   5.290
25604W        W95419   6.919  30.092  13.806
25605W        W95420  24.193  33.501  14.936
25606W        W95421  12.353   4.246  12.437
25607W        W95422  39.969  28.608   1.882
25608W        W95423  21.647  26.162  11.443
25609W        W95424  40.864  39.055   4.308
25610W        W95425  28.595  11.761   4.634
25611W        W95426  44.473   6.340  13.378
25612W        W95427   3.880  27.956   3.859
25613W        W95428  10.275   0.471   2.370
25614W        W95429  42.480   9.203   2.872
25615W        W95430  37.015  10.703  11.047
25616W        W95431  11.151  37.961   0.805
25617W        W95432  15.763  14.266  11.955
25618W        W95433  38.951  32.579  10.470
25619W        W95434  21.724  35.588  11.510
25620W        W95435  16.087   1.372   4.333
25621W        W95436  34.948  32.077   1.782
25622W        W95437  44.900  42.934   1.878
25623W        W95438  33.909  33.068  11.424
25624W        W95439   4.940   7.214  10.443
25625W        W95440  28.958   6.856   1.408
25626W        W95441   7.241  27.180  12.432
25627W        W95442  29.633   7.219  11.056
25628W        W95443  21.172  17.212   3.178
25629W        W95444  20.216  14.118  14.991
25630W        W95445  26.155  26.085   1.737
25631W        W95446  11.730  30.578  10.599
25632W        W95447  41.868   7.361  14.976
25633W        W95448  20.699  29.130  13.505
25634W        W95449   5.371  26.006   3.814
25635W        W95450  17.737  22.628  12.866
25636W        W95451  13.712  33.567  14.370
25637W        W95452  17.302   5.269   4.230
25638W        W95453  29.174  32.900  11.375
25639W        W95454  38.425  21.180   1.890
25640W        W95455  18.585  27.060  11.473
25641W        W95456  41.382   4.423   0.962
25642W        W95457  36.351  18.146  11.121
25643W        W95458   9.213  27.196   0.931
25644W        W95459  22.241  10.875  10.631
25645W        W95460  39.036  43.874  14.014
25646W        W95461  34.886  37.876   2.881
25647W        W95462  16.630  35.069   2.776
25648W        W95463   8.236   1.319  13.909
25649W        W95464  10.378  34.011  12.860
25650W        W95465  39.423  25.545  14.804
25651W        W95466  19.557  42.924   0.885
25652W        W95467  31.647  27.556  14.792
25653W        W95468  12.125  18.639  12.086
25654W        W95469   6.747   0.809  10.910
25655W        W95470  27.636  13.684  11.430
25656W        W95471  16.200  44.341   4.233
25657W        W95472  17.735  22.213  14.913
25658W        W95473  20.098  10.758   3.801
25659W        W95474  20.591  15.101  12.392
25660W        W95475  37.953  42.370   4.764
25661W        W95476  12.140  27.584   1.231
25662W        W95477   1.338  11.685   0.824
25663W        W95478  10.671  39.013   0.749
25664W        W95479  10.217   6.235  12.983
25665W        W95480   5.224  14.196  12.907
25666W        W95481  11.816  20.741   1.784
25667W        W95482  23.988  30.958   4.191
25668W        W95483  42.286  30.128  11.071
25669W        W95484  38.046   2.347  14.380
25670W        W95485   9.258  31.959  11.006
25671W        W95486  25.540  18.236  14.411
25672W        W95487   7.788  20.768   0.422
25673W        W95488   8.881  14.683  11.494
25674W        W95489  31.920  22.747   2.189
25675W        W95490   5.896  44.475   1.816
25676W        W95491  17.075  34.531  14.954
25677W        W95492  23.504  33.065   0.334
25678W        W95493  21.608  14.655   3.193
25679W        W95494  21.718   6.406   4.752
25680W        W95495  44.463  10.813   0.284
25681W        W95496   9.346  17.160   4.793
25682W        W95497  20.177   8.234   2.790
25683W        W95498  18.763  12.622   4.125
25684W        W95499   6.185   6.705  13.372
25685W        W95500   8.884  21.263  13.899
25686W        W95501  13.774  23.685   1.850
25687W        W95502  23.143   1.371   0.927
25688W        W95503   8.383   9.168   4.821
25689W        W95504  29.080  14.640   0.338
25690W        W95505   9.734  29.578  10.955
25691W        W95506  35.000  12.713  10.079
25692W        W95507   1.311  20.143  10.616
25693W        W95508  19.730   3.337  13.484
25694W        W95509  16.753  10.813  11.909
25695W        W95510  20.755  19.695  14.838
25696W        W95511  19.647  16.692   4.760
25697W        W95512  38.411  14.284  12.015
25698W        W95513  37.044  20.267   1.729
25699W        W95514  40.984  26.994   1.845
25700W        W95515  36.495  30.111   1.704
25701W        W95516   8.162  38.426   1.386
25702W        W95517  17.273  22.056   2.363
25703W        W95518   2.774   0.863   3.255
25704W        W95519  30.915  29.063   4.347
25705W        W95520  27.009  14.096  13.860
25706W        W95521  22.605  31.118  14.844
25707W        W95522  40.886  23.084   4.241
25708W        W95523   3.897  23.235  13.529
25709W        W95524  43.882  41.916   4.614
25710W        W95525  19.252  33.428   0.326
25711W        W95526  20.238  12.192   2.677
25712W        W95527  43.347  24.711  13.493
25713W        W95528   3.447   5.703   2.775
25714W        W95529  34.575   2.450   2.283
25715W        W95530  36.526  33.388  12.857
25716W        W95531   2.383  17.074   1.379
25717W        W95532   7.385  29.935  11.459
25718W        W95533  26.590  13.653  14.993
25719W        W95534  20.235  24.214  10.999
25720W        W95535  12.126  10.285  13.511
25721W        W95536  38.528   8.335   2.234
25722W        W95537  12.756  41.399  13.416
25723W        W95538  25.620  18.252   5.219
25724W        W95539  33.470   8.874  10.116
25725W        W95540   7.346  16.304  13.833
25726W        W95541   1.882  16.118   1.796
25727W        W95542  25.157  29.559  10.950
25728W        W95543  34.609  38.924   3.310
25729W        W95544  24.084  32.057  12.856
25730W        W95545  42.946  30.482  13.793
25731W        W95546  28.151  29.032   0.357
25732W        W95547  41.950  11.785  12.848
25733W        W95548  17.711  38.909  11.930
25734W        W95549  17.244   8.662  13.442
25735W        W95550  24.228  39.475   5.261
25736W        W95551  39.859   0.755  11.009
25737W        W95552  40.476   1.425  12.511
25738W        W95553   2.251  26.988   0.392
25739W        W95554  35.500   5.871   1.766
25740W        W95555   1.362  26.989  12.396
25741W        W95556  23.175  14.708  11.599
25742W        W95557  35.853  26.578   2.766
25743W        W95558  25.063  24.087  11.612
25744W        W95559   2.297  33.591   4.184
25745W        W95560  21.741   6.205   0.779
25746W        W95561  44.328   1.904  12.094
25747W        W95562  17.791  33.901  10.992
25748W        W95563  24.725  12.170  11.561
25749W        W95564  16.575  32.955   1.878
25750W        W95565  39.935   7.225   4.837
25751W        W95566  16.807   1.757   4.711
25752W        W95567  37.455  18.658   3.707
25753W        W95568   0.969  26.982   2.181
25754W        W95569  35.052   1.821  10.988
25755W        W95570  10.820  21.200   2.823
25756W        W95571  13.764  36.390   2.323
25757W        W95572  32.000  15.234   4.602
25758W        W95573  39.443  11.352  12.842
25759W        W95574  39.527  15.748   4.324
25760W        W95575   2.851  41.409  10.500
25761W        W95576  11.802  30.930   4.679
25762W        W95577  35.034  36.508  12.403
25763W        W95578   9.339  24.131  14.790
25764W        W95579   7.883   6.879   4.335
25765W        W95580  37.855  31.936   1.809
25766W        W95581   8.331  23.529   1.754
25767W        W95582  21.697  36.880  11.906
25768W        W95583  10.289  30.010   1.230
25769W        W95584  20.110  27.555  13.439
25770W        W95585  20.580   4.885   1.841
25771W        W95586  18.715   5.887  10.066
25772W        W95587  21.729  16.215   2.758
25773W        W95588   1.354  14.121  11.537
25774W        W95589  40.353  27.675  12.517
25775W        W95590   3.393  15.659   1.889
25776W        W95591  35.432  13.333  14.449
25777W        W95592  21.066  16.310  10.901
25778W        W95593   2.428   3.234   5.126
25779W        W95594  19.686  26.627   1.875
25780W        W95595   0.943  22.175   2.401
25781W        W95596   4.352  20.154  11.021
25782W        W95597  43.504   5.333   0.825
25783W        W95598  14.229  35.472  13.330
25784W        W95599  18.560  12.616   2.387
25785W        W95600  19.266  22.105  12.904
25786W        W95601   9.358  43.995  14.887
25787W        W95602  28.176  13.286   3.722
25788W        W95603  28.461  29.172   3.192
25789W        W95604  38.505  24.579   4.612
25790W        W95605   1.385  11.276  13.850
25791W        W95606  31.432   3.227  13.479
25792W        W95607   3.400   4.359   1.895
25793W        W95608  31.915   8.231   0.756
25794W        W95609  19.692   5.741   0.823
25795W        W95610  27.115  12.719   0.479
25796W        W95611   2.738  29.095   3.766
25797W        W95612  15.270  11.265  11.030
25798W        W95613  23.531  33.905  12.418
25799W        W95614   8.252   1.801  11.971
25800W        W95615  40.540  32.557  12.027
25801W        W95616   0.391  17.640  14.912
25802W        W95617  29.161  10.200   0.812
25803W        W95618  22.029  18.721   1.366
25804W        W95619  40.027  40.357   3.748
25805W        W95620   0.332  12.760  12.872
25806W        W95621  40.444  26.613  12.909
25807W        W95622  26.029  30.966   1.769
25808W        W95623  38.525  31.554   2.236
25809W        W95624  31.618  39.024  10.486
25810W        W95625  38.429  44.967   2.270
25811W        W95626   0.910  42.416   2.404
25812W        W95627  43.512  16.730  13.812
25813W        W95628  27.589  39.835  13.357
25814W        W95629  16.166   4.350  10.909
25815W        W95630  43.770  29.475   3.354
25816W        W95631  37.535  43.386   4.754
25817W        W95632   7.849  24.125   3.836
25818W        W95633  16.711  19.533   2.178
25819W        W95634   7.392  29.541   1.708
25820W        W95635  31.006  34.539  14.862
25821W        W95636  14.713  14.590   2.681
25822W        W95637  14.148  32.126   2.701
25823W        W95638   4.420  11.864   1.246
25824W        W95639  26.151  38.999   2.197
25825W        W95640   7.908  25.517  12.529
25826W        W95641  37.045  12.616  12.387
25827W        W95642  44.882  38.935  12.556
25828W        W95643   1.845  43.470   2.852
25829W        W95644  16.692  44.922  14.346
25830W        W95645   0.258  18.100   2.242
25831W        W95646   2.349  35.402  13.030
25832W        W95647  12.273  30.072   2.798
25833W        W95648   2.434  34.962   3.199
25834W        W95649   1.807  29.071   3.292
25835W        W95650  27.035  32.052  13.396
25836W        W95651  41.988   9.166   4.280
25837W        W95652  27.478   8.706  11.066
25838W        W95653  36.085   9.295  10.956
25839W        W95654  28.057  38.545  12.435
25840W        W95655  24.512  10.868   2.777
25841W        W95656  12.650  21.514   0.801
25842W        W95657  34.974  11.248   2.235
25843W        W95658  10.286  16.790  13.997
25844W        W95659   4.816  21.581   1.845
25845W        W95660  33.413  42.519  12.448
25846W        W95661  15.311  16.221   2.238
25847W        W95662   7.858  40.508  10.567
25848W        W95663  42.505  35.913   1.333
25849W        W95664  22.611  18.772   0.432
25850W        W95665   0.420  14.828  13.499
25851W        W95666  44.411  17.693   2.749
25852W        W95667   8.220  34.510   3.672
25853W        W95668   8.870  30.134  11.059
25854W        W95669  38.906  40.048  13.331
25855W        W95670  37.885  31.910  13.452
25856W        W95671  31.546   8.335  12.453
25857W        W95672   9.829   2.885   4.683
25858W        W95673  34.475  12.851  11.997
25859W        W95674  34.978  35.467   1.896
25860W        W95675   1.782  36.539  11.480
25861W        W95676  38.453   9.308   2.805
25862W        W95677   4.831   0.432   2.741
25863W        W95678  40.969  27.017   1.347
25864W        W95679  38.042  26.461  13.882
25865W        W95680  27.674  36.975   2.190
25866W        W95681  27.138  15.803  10.904
25867W        W95682   9.224  28.456  10.522
25868W        W95683  42.812  19.147   3.330
25869W        W95684  27.668   7.320   4.293
25870W        W95685  27.143  32.533   4.636
25871W        W95686  40.888  33.419   0.469
25872W        W95687  14.806   7.713  11.534
25873W        W95688  37.074  33.923  13.815
25874W        W95689  12.341   2.400   0.452
25875W        W95690  26.990  33.062   0.823
25876W        W95691  41.495   8.892   1.434
25877W        W95692  16.077  26.659  14.488
25878W        W95693  29.120  17.186  14.880
25879W        W95694  20.106  41.447   2.874
25880W        W95695  39.329   6.355  12.094
25881W        W95696   7.908  35.533  14.783
25882W        W95697  20.064   6.300  12.955
25883W        W95698  31.448  28.156  14.003
25884W        W95699   8.395   2.814   2.323
25885W        W95700  27.637   1.287  11.467
25886W        W95701  33.620  29.657   2.771
25887W        W95702  13.735  32.031   3.691
25888W        W95703  36.540   3.445  12.040
25889W        W95704  17.634   7.731   3.843
25890W        W95705  13.268  24.578   1.439
25891W        W95706  15.120  29.068  13.390
25892W        W95707  25.207  16.784  14.874
25893W        W95708  30.500  12.139   2.236
25894W        W95709  33.418  40.368  14.492
25895W        W95710  22.543  11.154  12.056
25896W        W95711  40.833  25.587  12.970
25897W        W95712   1.433  13.831  10.423
25898W        W95713   2.277  33.517  13.488
25899W        W95714   0.930  14.311   0.289
25900W        W95715   2.458  30.613  11.561
25901W        W95716  19.760   7.689  10.941
25902W        W95717   9.290  41.347  12.883
25903W        W95718  33.875  12.194   0.966
25904W        W95719   1.259   3.828   1.413
25905W        W95720   4.242  41.823  14.928
25906W        W95721  24.135  26.156  11.539
25907W        W95722  24.163  29.612   0.439
25908W        W95723  41.312  14.311  11.036
25909W        W95724   3.911  17.586  13.063
25910W        W95725  42.994  17.249  11.107
25911W        W95726  17.192  22.202   3.230
25912W        W95727   2.273   2.960  12.414
25913W        W95728  10.787  42.987   2.272
25914W        W95729  19.636  26.072   3.638
25915W        W95730   7.746  21.586   0.872
25916W        W95731  34.100  30.956   0.459
25917W        W95732  28.670  41.971   0.962
25918W        W95733  17.666  27.946  11.448
25919W        W95734  24.635   2.741  14.941
25920W        W95735  36.372  26.054  10.999
25921W        W95736  43.330  29.991  11.027
25922W        W95737  35.508   7.685  14.921
25923W        W95738  20.530  39.906  12.949
25924W        W95739   0.929  11.273  14.314
25925W        W95740  17.765  34.983   2.231
25926W        W95741  17.782  20.558   2.208
25927W        W95742  23.645   2.240   1.286
25928W        W95743  17.181  33.494  14.865
25929W        W95744  42.412   9.345   1.822
25930W        W95745  31.021   2.272   4.658
25931W        W95746   6.388  22.133   3.682
25932W        W95747  10.284  11.197   1.409
25933W        W95748   0.899  18.269  11.566
25934W        W95749   8.713  16.702   2.739
25935W        W95750   8.690   9.163  12.849
25936W        W95751  23.574   7.714  11.451
25937W        W95752  18.289  42.936  13.511
25938W        W95753  43.493  23.613  13.015
25939W        W95754  27.508  12.798   1.704
25940W        W95755  23.029  31.046   1.416
25941W        W95756   1.451   5.338   4.688
25942W        W95757  33.624  38.902  13.510
25943W        W95758  34.540  19.668  13.059
25944W        W95759  11.697  43.934  11.022
25945W        W95760  38.953  27.179   4.328
25946W        W95761  14.706   0.935   4.723
25947W        W95762   1.822   1.866   2.845
25948W        W95763  12.755  16.087   3.242
25949W        W95764  14.619  26.533  12.517
25950W        W95765  28.673  38.409  13.800
25951W        W95766  19.273  39.506   3.739
25952W        W95767  32.905  12.203  10.887
25953W        W95768  14.118  41.353   4.123
25954W        W95769  20.112  12.614  13.361
25955W        W95770  38.430   9.151   4.325
25956W        W95771  12.768  36.572  10.421
25957W        W95772  35.969  17.778   0.483
25958W        W95773  26.661  31.903   2.729
25959W        W95774  13.184   6.845   3.857
25960W        W95775  19.205   6.759   4.629
25961W        W95776  22.176  21.257  10.568
25962W        W95777  21.581  19.182  12.907
25963W        W95778  11.178  35.092  11.434
25964W        W95779  16.640  37.536   1.894
25965W        W95780  41.370  37.028   3.345
25966W        W95781   7.814  18.270   2.863
25967W        W95782  23.145   8.697   3.374
25968W        W95783   8.778  24.087  13.040
25969W        W95784  21.224   3.218  12.951
25970W        W95785  19.771  21.610  13.898
25971W        W95786   5.215  28.142   3.634
25972W        W95787  32.074  44.770  10.514
25973W        W95788   8.818  28.557   2.828
25974W        W95789  10.790  42.914   3.755
25975W        W95790  26.022  16.609  10.517
25976W        W95791  11.650  28.602  13.888
25977W        W95792  30.083  27.066  11.865
25978W        W95793  41.523  16.194   1.337
25979W        W95794  13.165  40.956   3.281
25980W        W95795  31.005  18.193   3.842
25981W        W95796  38.832  10.336  11.378
25982W        W95797  28.562  37.036   4.676
25983W        W95798  40.415  14.199   1.759
25984W        W95799  44.451  12.850   2.677
25985W        W95800  27.995  16.708   2.265
25986W        W95801   2.465   5.312   4.340
25987W        W95802   1.810  39.393   2.868
25988W        W95803  15.702  25.576  12.470
25989W        W95804  18.761  19.737  14.970
25990W        W95805  37.851  22.715   4.601
25991W        W95806  29.967  13.673   0.783
25992W        W95807  40.003  34.954   2.321
25993W        W95808   3.912  19.134  11.040
25994W        W95809  27.100  29.169   0.942
25995W        W95810   4.250  40.439   1.923
25996W        W95811  24.547  30.424   1.310
25997W        W95812  19.682  13.722  14.409
25998W        W95813  32.480  10.861  14.343
25999W        W95814  12.261   7.255   0.830
26000W        W95815  43.304  31.935   1.698
26001W        W95816  34.071  28.651   0.862
26002W        W95817   4.894  41.967  12.430
26003W        W95818   0.817   3.866   3.690
26004W        W95819   3.240  22.597   2.710
26005W        W95820   9.394   6.721   0.391
26006W        W95821  33.523  33.523  12.526
26007W        W95822   4.711  30.654   1.706
26008W        W95823  43.511  38.986  12.027
26009W        W95824  23.103   8.880  12.872
26010W        W95825  18.077  28.171  10.480
26011W        W95826  44.871  40.468  11.874
26012W        W95827  31.498  36.046   4.792
26013W        W95828   2.395   6.274  13.841
26014W        W95829   9.887  18.163  12.420
26015W        W95830  41.018   1.873   3.353
26016W        W95831  11.372  30.153   2.401
26017W        W95832   6.194  29.078  13.492
26018W        W95833  36.992  13.724  10.598
26019W        W95834   6.275  30.461  11.932
26020W        W95835  11.718  41.394   4.176
26021W        W95836  34.864  39.934   0.826
26022W        W95837  17.110  40.449  10.129
26023W        W95838  35.398  20.632  11.095
26024W        W95839  25.216  43.340   0.752
26025W        W95840   7.754  19.770  14.821
26026W        W95841  20.204  24.176  10.572
26027W        W95842  20.177  22.622   5.306
26028W        W95843  30.516  40.438  14.462
26029W        W95844  30.093  22.554   1.438
26030W        W95845  11.630  36.037   9.946
26031W        W95846  35.452  35.898   1.333
26032W        W95847  24.542  38.471  10.558
26033W        W95848  43.841   5.290   2.252
26034W        W95849  11.173  31.017   0.804
26035W        W95850   6.334  34.506   4.652
26036W        W95851  28.954   8.262  14.884
26037W        W95852  26.618  12.290  12.951
26038W        W95853  16.261  39.321   4.625
26039W        W95854  42.864  37.552  10.532
26040W        W95855   6.710  26.172  13.463
26041W        W95856  36.430   6.278   4.829
26042W        W95857  31.403  36.390   1.236
26043W        W95858  17.119   5.906  10.023
26044W        W95859  12.835  21.642   1.369
26045W        W95860  36.067  34.413   1.415
26046W        W95861  18.152  17.079  12.938
26047W        W95862   5.210  10.797  14.326
26048W        W95863  29.158  35.882  11.548
26049W        W95864   5.417  37.837  11.545
26050W        W95865  26.685  25.123   4.182
26051W        W95866  32.061   8.755  13.862
26052W        W95867  19.060   9.390  12.850
26053W        W95868  28.509  39.850   2.247
26054W        W95869  34.093  39.419   1.274
26055W        W95870  14.123  25.693  12.460
26056W        W95871  38.392  26.673   1.308
26057W        W95872   8.248  37.545  14.406
26058W        W95873   0.824  23.098   3.197
26059W        W95874  35.500  18.254   2.901
26060W        W95875  40.475  42.459  14.494
26061W        W95876   6.736  24.675   2.853
26062W        W95877  33.585   4.864  14.886
26063W        W95878  18.089  31.483  13.012
26064W        W95879  22.211  14.155   4.649
26065W        W95880  25.678  17.716   4.758
26066W        W95881   6.791  13.792   2.883
26067W        W95882  38.513  38.834   0.366
26068W        W95883   9.824  28.646   2.244
26069W        W95884  29.026  19.679  13.989
26070W        W95885  16.076  42.886  10.406
26071W        W95886  31.044   4.376  11.564
26072W        W95887   7.331   6.835   2.794
26073W        W95888  29.485  30.067   1.218
26074W        W95889  39.342  38.437   0.883
26075W        W95890  37.890  13.714   2.208
26076W        W95891  33.580   9.182   4.117
26077W        W95892  41.438  26.008  12.564
26078W        W95893  22.185  13.136  13.950
26079W        W95894  27.058  11.342   3.757
26080W        W95895  22.035  27.585   3.318
26081W        W95896  11.309  16.153  10.450
26082W        W95897  25.702   1.396   2.832
26083W        W95898  26.969  10.657   0.774
26084W        W95899  34.067  12.714   2.255
26085W        W95900  44.377  30.568  11.085
26086W        W95901  35.441  33.966  11.398
26087W        W95902  30.608   1.446  12.420
26088W        W95903  37.881  13.198   3.313
26089W        W95904   6.910  11.861   4.683
26090W        W95905  40.844  12.325  11.079
26091W        W95906  14.625  39.393  13.798
26092W        W95907  32.909  33.400  14.356
26093W        W95908   1.775  26.573  10.491
26094W        W95909  27.634  25.157   0.473
26095W        W95910  23.639   2.410  11.490
26096W        W95911  23.536   0.820   2.408
26097W        W95912  38.004  43.456  11.468
26098W        W95913   7.703   4.212   4.669
26099W        W95914  37.001  31.899   2.403
26100W        W95915  40.867  37.920  14.762
26101W        W95916   5.832   2.251  12.361
26102W        W95917  23.054  18.672   2.765
26103W        W95918  37.077   2.902   1.781
26104W        W95919  32.566  42.324  13.995
26105W        W95920  16.309  12.831  11.539
26106W        W95921  39.889  31.989   4.281
26107W        W95922  15.738  35.567  11.420
26108W        W95923  27.007  27.574  13.875
26109W        W95924  41.502  24.987   1.425
26110W        W95925  37.899   8.336  11.076
26111W        W95926   1.408   2.721   3.248
26112W        W95927  11.297   6.185   4.135
26113W        W95928  14.700  24.222  11.991
26114W        W95929  18.296  31.549   1.757
26115W        W95930  30.060  43.486  14.360
26116W        W95931   1.322  26.029   3.370
26117W        W95932  16.662  38.996  13.009
26118W        W95933  41.361  11.657   5.147
26119W        W95934  34.600  29.483   3.375
26120W        W95935  24.494  36.432   0.930
26121W        W95936   4.231   9.680   4.125
26122W        W95937  37.346   1.383   2.731
26123W        W95938  10.186  21.613   3.826
26124W        W95939  27.633  27.971  10.986
26125W        W95940  27.061  27.584   3.836
26126W        W95941  23.588   0.390   2.721
26127W        W95942   4.828   2.275  14.476
26128W        W95943  24.226  44.968  14.373
26129W        W95944  23.185  43.372  13.470
26130W        W95945  28.475   3.886  13.365
26131W        W95946  20.038  11.140  12.496
26132W        W95947  18.564   6.830  11.597
26133W        W95948  15.242  16.584   3.747
26134W        W95949   0.310  44.356   3.818
26135W        W95950  15.663  31.062  13.975
26136W        W95951  37.013  18.733   2.273
26137W        W95952   5.295  12.760   4.835
26138W        W95953   7.342   9.697  12.906
26139W        W95954  18.692  27.002  13.520
26140W        W95955  23.229  31.628   4.793
26141W        W95956  12.202  12.630  11.606
26142W        W95957  26.555   3.905   2.699
26143W        W95958  34.482   3.410  14.325
26144W        W95959  25.160  10.375  14.885
26145W        W95960   3.791  40.845  13.358
26146W        W95961  11.209   6.695  13.987
26147W        W95962  43.273   2.405   0.889
26148W        W95963   0.390  29.601  11.037
26149W        W95964  30.966  15.211   4.666
26150W        W95965   9.687  23.561   0.468
26151W        W95966  40.822  33.448   4.300
26152W        W95967  43.871  17.203  14.999
26153W        W95968  29.485  22.611  10.001
26154W        W95969  16.689  11.351   2.401
26155W        W95970  44.953  37.974  11.971
26156W        W95971  26.622  15.767   3.657
26157W        W95972  40.879   1.933  14.408
26158W        W95973  11.801   4.899   1.755
26159W        W95974  15.666   5.723   0.270
26160W        W95975  11.658  21.108   5.319
26161W        W95976   7.853  11.293  12.436
26162W        W95977  21.021   8.702  13.962
26163W        W95978   2.826  25.115   4.114
26164W        W95979  43.873  13.227   2.348
26165W        W95980  37.070  44.755   1.806
26166W        W95981  42.365  31.614  13.419
26167W        W95982   7.685  24.612  10.462
26168W        W95983  29.598  35.943   4.736
26169W        W95984  33.488  20.670   2.179
26170W        W95985  25.700   7.202   4.770
26171W        W95986  36.465  20.126   4.168
26172W        W95987   8.250  17.597   2.211
26173W        W95988  29.634  34.446   3.277
26174W        W95989  13.609   8.833   1.305
26175W        W95990  35.856  44.359  12.390
26176W        W95991   7.413   5.843   0.445
26177W        W95992  17.649  22.657  14.804
26178W        W95993  27.624  44.764   1.812
26179W        W95994  33.457  11.865  12.969
26180W        W95995  22.185  14.124  12.079
26181W        W95996  41.809   3.790   3.319
26182W        W95997  40.022  44.894   3.384
26183W        W95998  39.552  39.054   2.745
26184W        W95999   6.362  13.345   3.815
26185W        W96000  31.021  20.128   2.696
26186W        W96001  24.559  41.353   3.150
26187W        W96002  35.887  28.152   5.126
26188W        W96003  39.930  32.930  12.918
26189W        W96004  28.496  37.935  14.327
26190W        W96005   7.256   2.278   1.775
26191W        W96006  26.513  18.744   2.414
26192W        W96007  30.457  34.396   2.248
26193W        W96008  33.030  44.895   1.309
26194W        W96009  44.453  39.876  11.857
26195W        W96010  30.645  35.572  13.397
26196W        W96011   4.794  44.270   4.196
26197W        W96012  12.796  32.994  13.034
26198W        W96013  18.631   8.347  14.864
26199W        W96014  42.447  26.172  12.491
26200W        W96015  19.197   1.821   1.423
26201W        W96016  31.517  11.185  12.848
26202W        W96017  22.206  23.621  12.473
26203W        W96018  35.994  30.056  10.440
26204W        W96019  28.121  18.223   3.868
26205W        W96020   4.724   9.824   2.764
26206W        W96021  43.952   3.405   4.702
26207W        W96022  36.972  23.206  14.018
26208W        W96023  36.568   6.253  12.074
26209W        W96024   8.319  16.736   0.944
26210W        W96025  14.698   4.312  12.391
26211W        W96026  33.485  34.389  10.405
26212W        W96027   5.870  23.164   1.297
26213W        W96028  27.151   2.425  12.554
26214W        W96029  34.925   0.315   3.233
26215W        W96030   5.717  26.631  12.835
26216W        W96031  23.065  28.093   4.199
26217W        W96032  25.502  41.972   4.281
26218W        W96033   8.848  13.734   1.840
26219W        W96034  43.000  14.165  13.463
26220W        W96035  33.528   5.915   3.780
26221W        W96036  38.337  10.178  12.963
26222W        W96037  25.709  19.251   4.154
26223W        W96038  44.485  15.285  14.907
26224W        W96039  42.288  13.688  11.067
26225W        W96040  11.654  19.774   9.976
26226W        W96041  10.314  39.917  12.070
26227W        W96042  12.320  17.074  11.415
26228W        W96043   6.884   8.887  13.847
26229W        W96044  29.440  17.559  12.880
26230W        W96045   1.767  41.954   3.181
26231W        W96046  31.036   0.769  14.765
26232W        W96047  21.687  16.653  13.502
26233W        W96048   7.259  24.134   0.268
26234W        W96049  34.586  20.549   1.236
26235W        W96050   5.375  17.243   0.470
26236W        W96051   8.271  11.155   0.386
26237W        W96052  21.567  37.480  14.516
26238W        W96053   6.391  12.718  10.921
26239W        W96054  40.992  21.690  14.972
26240W        W96055  28.965  13.241  14.942
26241W        W96056  34.934  30.145  12.403
26242W        W96057  18.561  44.913   1.843
26243W        W96058   4.434  37.531  13.064
26244W        W96059   7.415  37.568  12.422
26245W        W96060  33.114  18.066   2.735
26246W        W96061   6.220  30.657   1.847
26247W        W96062  20.220  19.644  11.894
26248W        W96063   8.162   7.900  12.427
26249W        W96064  36.082  26.561  14.018
26250W        W96065  43.397  28.053  13.535
26251W        W96066  41.461   7.717   4.671
26252W        W96067  25.687  25.201  11.109
26253W        W96068   6.339  43.473  12.999
26254W        W96069  30.584  25.024   4.707
26255W        W96070  19.209  34.398   1.290
26256W        W96071  23.014  38.042  13.368
26257W        W96072  43.513  28.146  13.834
26258W        W96073  35.401  40.973   1.248
26259W        W96074   8.387  33.033  10.634
26260W        W96075  28.048  29.952  12.928
26261W        W96076  14.211  39.350  13.472
26262W        W96077  26.471   5.926   2.711
26263W        W96078  25.567  30.145   3.231
26264W        W96079  31.547  32.886  12.358
26265W        W96080  29.066  27.632  11.857
26266W        W96081   0.371  42.512  12.858
26267W        W96082  35.930  30.426  10.901
26268W        W96083   0.294  42.508  12.478
26269W        W96084  32.085  39.487  13.017
26270W        W96085  19.265  11.324  13.795
26271W        W96086   5.345  38.435   4.624
26272W        W96087  30.952  35.482  12.997
26273W        W96088  44.431  22.722  13.959
26274W        W96089  33.499  24.176   4.825
26275W        W96090  18.266  16.288  12.501
26276W        W96091   4.216  32.974  12.493
26277W        W96092  21.621  25.012   3.262
26278W        W96093  24.123   2.864  11.994
26279W        W96094   2.806  42.993   2.366
26280W        W96095  41.512   7.307   2.735
26281W        W96096   0.418   4.431   4.268
26282W        W96097  14.095  16.771   4.782
26283W        W96098  38.534  36.859   1.264
26284W        W96099  14.815  32.482   1.288
26285W        W96100  34.456  23.003   1.866
26286W        W96101  12.699  42.321  12.944
26287W        W96102  15.799  14.742  12.494
26288W        W96103   2.250  28.101  12.440
26289W        W96104  37.368  33.912  11.401
26290W        W96105  30.548  27.508   4.630
26291W        W96106  10.180  12.351  10.538
26292W        W96107  42.990  13.841   4.313
26293W        W96108  17.779  39.511   3.713
26294W        W96109  32.959   2.862  13.982
26295W        W96110  12.635  43.789  13.424
26296W        W96111  25.967  23.644   4.209
26297W        W96112  35.965  22.685  12.523
26298W        W96113  25.092  37.976  14.349
26299W        W96114  28.652   2.408   2.389
26300W        W96115  42.325   8.240   4.224
26301W        W96116  41.002  27.159   2.835
26302W        W96117  32.951  12.685   1.803
26303W        W96118   9.174  44.489  12.920
26304W        W96119  11.838  31.116   1.926
26305W        W96120  30.641  33.129   1.401
26306W        W96121  36.468   1.828  14.818
26307W        W96122  11.233  13.749   0.956
26308W        W96123  14.185  33.108  12.921
26309W        W96124   9.689  38.937   0.450
26310W        W96125  41.530   5.804   1.225
26311W        W96126  43.484   4.297  11.442
26312W        W96127  35.458  34.410  14.297
26313W        W96128  11.631  14.661   1.886
26314W        W96129  17.240  17.686  12.347
26315W        W96130  10.872  18.190   3.166
26316W        W96131  44.270  44.460  10.488
26317W        W96132  31.955   1.469   4.677
26318W        W96133  14.108   4.763  14.975
26319W        W96134  22.662  40.940   1.403
26320W        W96135  43.812  14.124  10.569
26321W        W96136  31.544  14.751  12.039
26322W        W96137   9.659   4.766   3.258
26323W        W96138  12.615  17.155  11.110
26324W        W96139   8.290  13.328  14.813
26325W        W96140  41.866  13.724   4.235
26326W        W96141   5.926  31.961  14.312
26327W        W96142  11.371  15.249  13.950
26328W        W96143  16.690  28.435  12.082
26329W        W96144   5.895  12.123  12.981
26330W        W96145  25.156   1.276  11.428
26331W        W96146  19.538  15.583  14.957
26332W        W96147  25.566  24.003  13.793
26333W        W96148  30.453   3.391  13.314
26334W        W96149  15.126  14.315  10.984
26335W        W96150  27.563   0.292  10.981
26336W        W96151  12.221  23.078  12.000
26337W        W96152  11.784  26.495   3.713
26338W        W96153  38.420  27.513   3.822
26339W        W96154  28.164  40.890   3.259
26340W        W96155   2.378   1.955   1.451
26341W        W96156  16.778  30.060   2.718
26342W        W96157  38.368  11.166   3.286
26343W        W96158  23.560  27.179   0.398
26344W        W96159  29.637  37.946   2.693
26345W        W96160  14.339  11.764  12.507
26346W        W96161  32.044  25.597  14.981
26347W        W96162   0.382  19.678  11.922
26348W        W96163   1.307  30.617   0.960
26349W        W96164  23.564  42.831   0.932
26350W        W96165  12.725  12.639  14.365
26351W        W96166   0.375   3.404   3.376
26352W        W96167  10.697  44.278  14.362
26353W        W96168   2.881  33.908  12.891
26354W        W96169  21.235  37.962   5.269
26355W        W96170  41.367   1.424  13.537
26356W        W96171  19.129  30.457  14.984
26357W        W96172   4.440   2.335  12.049
26358W        W96173   5.746  27.100  11.062
26359W        W96174  35.894  42.779   0.821
26360W        W96175  31.458  39.394  14.333
26361W        W96176   8.782   6.245   0.318
26362W        W96177   1.372   2.938  14.290
26363W        W96178   3.816   9.277   3.711
26364W        W96179  13.606  16.094  12.433
26365W        W96180  38.396  15.315   2.242
26366W        W96181  25.646  14.597  13.983
26367W        W96182  19.625   8.286  10.592
26368W        W96183  39.444  35.397  12.832
26369W        W96184  37.515  31.012  12.909
26370W        W96185  24.558   2.798   3.369
26371W        W96186  16.189  12.252   4.148
26372W        W96187  41.825  43.387  12.931
26373W        W96188  27.591  31.494  11.959
26374W        W96189  33.920  20.528  13.941
26375W        W96190  38.931  17.621   1.919
26376W        W96191  17.063  20.657   0.964
26377W        W96192  11.647  22.251  11.973
26378W        W96193   2.804  44.996  14.878
26379W        W96194  16.128  10.657   4.177
26380W        W96195  14.334  39.503  12.523
26381W        W96196   5.311  39.555   2.209
26382W        W96197  34.566  37.855   4.340
26383W        W96198  18.112  19.658   4.353
26384W        W96199  20.607  25.587   4.778
26385W        W96200   1.830  32.429   1.910
26386W        W96201  14.820  36.539  11.461
26387W        W96202  42.902  21.584   0.422
26388W        W96203  14.598  14.761   0.347
26389W        W96204  41.495  30.517  11.588
26390W        W96205  10.733  39.411  12.449
26391W        W96206  18.639   8.340   0.894
26392W        W96207  12.704  12.130  12.542
26393W        W96208   2.761  30.451   1.315
26394W        W96209  18.159   4.362  13.499
26395W        W96210  16.171  28.074   9.980
26396W        W96211  38.528  23.201  12.402
26397W        W96212   8.202  39.366   9.954
26398W        W96213  13.278   8.844  11.598
26399W        W96214  35.600  44.948   4.824
26400W        W96215  38.346  33.980   2.750
26401W        W96216  26.185   7.278   2.723
26402W        W96217  24.208  24.653  13.043
26403W        W96218   0.817  11.735   0.448
26404W        W96219  34.972   1.775  10.011
26405W        W96220  23.658   7.707  14.760
26406W        W96221  25.965   4.877  11.512
26407W        W96222  28.097  40.840   1.296
26408W        W96223  22.713   3.267  14.312
26409W        W96224  33.481  35.971  14.929
26410W        W96225  28.545   0.873   4.648
26411W        W96226  21.624  38.051  11.565
26412W        W96227   5.303  27.086  11.524
26413W        W96228  33.993  14.324   2.324
26414W        W96229  37.017  42.839  10.533
26415W        W96230  30.446  26.611   3.645
26416W        W96231  43.866   6.354   1.241
26417W        W96232  28.075  20.703   3.739
26418W        W96233  24.109  14.230  10.999
26419W        W96234   4.921  40.889   1.868
26420W        W96235  12.149   4.917   1.801
26421W        W96236  37.347  31.637   2.796
26422W        W96237  27.463  32.083   0.781
26423W        W96238  35.378  40.312   1.296
26424W        W96239   2.926  31.079   2.785
26425W        W96240  43.786  35.421   3.707
26426W        W96241  12.673  12.211   0.965
26427W        W96242  17.622  43.903   3.723
26428W        W96243   7.382  12.120  13.459
26429W        W96244  19.270   5.789   1.853
26430W        W96245  19.571   2.946  12.001
26431W        W96246  32.896  37.475  14.476
26432W        W96247  16.811   7.718   0.374
26433W        W96248   4.303  18.101   2.721
26434W        W96249  24.658  13.706   2.295
26435W        W96250  32.005  22.664   5.142
26436W        W96251   0.281   1.840   0.482
26437W        W96252  16.316  23.200   4.342
26438W        W96253  43.449  29.017   4.659
26439W        W96254   9.702   1.878   1.927
26440W        W96255   4.401  32.092   4.799
26441W        W96256  41.018   2.373  13.336
26442W        W96257   0.348   6.752  12.080
26443W        W96258  26.586   6.356  13.356
26444W        W96259  23.101   8.405  10.520
26445W        W96260  19.054  25.068  11.601
26446W        W96261  17.089  43.434   4.244
26447W        W96262  40.046  27.179  14.297
26448W        W96263  40.542  12.205   2.679
26449W        W96264  37.936  26.000  13.373
26450W        W96265  36.980  25.965   2.200
26451W        W96266  21.239  18.187   4.728
26452W        W96267  26.955   7.278  13.436
26453W        W96268  43.946  36.570   0.848
26454W        W96269  43.948  32.447   4.289
26455W        W96270   1.452   7.203  14.277
26456W        W96271  11.716  17.588   1.863
26457W        W96272  26.696  22.537  14.380
26458W        W96273   1.756  11.176   1.725
26459W        W96274  37.380   7.259   5.257
26460W        W96275  23.034  20.706  10.935
26461W        W96276   5.695  19.132   2.725
26462W        W96277   0.263  32.519  11.895
26463W        W96278  28.142  16.593  14.891
26464W        W96279  43.805  24.682  11.577
26465W        W96280  23.580   3.867  12.371
26466W        W96281  43.443   9.214   4.198
26467W        W96282  35.042   3.914   3.219
26468W        W96283  13.127  36.547   1.252
26469W        W96284  16.265  12.846  12.915
26470W        W96285  24.058  35.076  14.357
26471W        W96286  17.295  27.632  13.318
26472W        W96287  14.686  34.028   3.803
26473W        W96288  37.499  29.019   0.388
26474W        W96289  37.003  18.788  14.013
26475W        W96290  22.625  44.848   4.235
26476W        W96291  31.956  13.611  11.997
26477W        W96292  12.125  42.390  14.762
26478W        W96293  36.014  36.527  12.927
26479W        W96294  37.404  33.059   3.359
26480W        W96295   6.208  42.422   3.307
26481W        W96296  34.022   4.791  14.955
26482W        W96297  29.167  23.985  10.558
26483W        W96298  11.209  26.701  11.985
26484W        W96299  19.668  33.093  14.466
26485W        W96300  11.839   4.380   0.479
26486W        W96301   0.881  31.957  12.373
26487W        W96302  18.178  15.803   5.319
26488W        W96303   1.336  42.022   0.898
26489W        W96304  22.086  12.684   2.210
26490W        W96305  28.063   4.880  13.991
26491W        W96306  29.111  16.578  12.941
26492W        W96307   4.289   7.397   1.913
26493W        W96308  43.903  30.000   4.286
26494W        W96309  40.360  26.077  12.936
26495W        W96310  14.302  17.669   1.418
26496W        W96311  10.328  24.709  14.947
26497W        W96312   7.787  38.508  13.420
26498W        W96313   8.198   8.273  13.418
26499W        W96314  25.492  19.152  13.054
26500W        W96315  19.584  24.525  11.458
26501W        W96316  24.641  11.649  11.048
26502W        W96317   9.365   5.317   1.704
26503W        W96318   8.856  23.040  13.005
26504W        W96319  12.305   3.252  11.586
26505W        W96320  22.248  25.097  14.850
26506W        W96321  44.407  38.925   3.184
26507W        W96322  20.727   7.736   1.832
26508W        W96323  13.799   9.171  13.325
26509W        W96324  16.275  39.912  10.544
26510W        W96325  36.092   6.700   0.265
26511W        W96326  34.489  12.172  12.365
26512W        W96327  14.155   2.796   2.877
26513W        W96328  43.807  20.728   4.276
26514W        W96329   5.726  21.199   3.814
26515W        W96330  27.187  34.032   3.185
26516W        W96331  32.968  36.905  11.937
26517W        W96332  15.588  31.916   1.709
26518W        W96333  24.111  29.078   4.267
26519W        W96334  34.465  20.043   4.309
26520W        W96335  44.990   8.702  11.113
26521W        W96336  19.722  20.204  11.109
26522W        W96337  38.955  20.244  13.037
26523W        W96338   6.298  11.860   1.363
26524W        W96339  41.908  13.754   0.281
26525W        W96340   4.424  18.180  13.381
26526W        W96341  29.173   5.755   3.692
26527W        W96342  36.414  18.569   5.121
26528W        W96343  20.545  30.528   0.390
26529W        W96344  11.335  16.716  10.616
26530W        W96345   2.956  18.716   0.794
26531W        W96346  14.283  44.409   2.813
26532W        W96347   8.896  19.213   1.754
26533W        W96348  34.532  23.538  14.784
26534W        W96349  29.926   4.754   4.804
26535W        W96350  34.877  12.197  11.000
26536W        W96351   1.457  43.397   1.376
26537W        W96352  32.429  35.932  13.455
26538W        W96353  15.323   4.316  14.297
26539W        W96354  26.606  44.422   4.320
26540W        W96355  23.096   2.447   0.931
26541W        W96356  31.921  31.051  10.564
26542W        W96357  14.139   5.705   4.704
26543W        W96358  26.633  34.543   1.911
26544W        W96359  40.859  32.943   3.832
26545W        W96360  16.313  40.412  14.304
26546W        W96361  15.300  38.423   1.301
26547W        W96362  19.764  18.644  11.376
26548W        W96363  10.730  26.540  13.936
26549W        W96364   6.709  42.912   2.309
26550W        W96365   8.237  21.629   3.149
26551W        W96366  18.213  14.275   4.789
26552W        W96367  33.524  39.465  10.497
26553W        W96368   8.838  15.088   4.789
26554W        W96369   4.702  21.128  11.398
26555W        W96370  44.405  10.853   4.260
26556W        W96371  13.771  28.997   0.285
26557W        W96372  14.645  11.722  14.014
26558W        W96373  20.653  30.652  11.940
26559W        W96374  19.691  36.514   2.778
26560W        W96375  41.434  29.126   3.319
26561W        W96376  18.734  17.624   4.672
26562W        W96377  18.640  22.549   1.326
26563W        W96378  33.920   0.308  13.361
26564W        W96379  31.033  30.477   3.251
26565W        W96380   8.258  42.474   5.695
26566W        W96381   8.885   8.864  13.969
26567W        W96382  17.691   4.377   3.243
26568W        W96383  34.902  19.211  14.002
26569W        W96384  14.625   8.283  11.127
26570W        W96385  29.466  19.206  13.003
26571W        W96386  41.319  23.116  14.442
26572W        W96387  15.679  35.007  12.366
26573W        W96388   9.760  38.948   0.752
26574W        W96389   1.273  41.856  11.528
26575W        W96390  44.361  26.577   4.729
26576W        W96391  24.000  28.162   5.317
26577W        W96392  18.778  30.984   0.890
26578W        W96393  22.037  33.491   1.341
26579W        W96394  21.263   0.393  13.803
26580W        W96395   1.783  25.588  13.965
26581W        W96396  13.732   0.343   4.770
26582W        W96397   7.782  10.263  12.068
26583W        W96398   8.295  28.039  10.546
26584W        W96399   5.736  12.651   4.146
26585W        W96400  39.983  21.048  13.543
26586W        W96401  25.968  33.932   2.870
26587W        W96402  17.591   4.258  12.000
26588W        W96403  19.695  44.809   1.230
26589W        W96404  33.415  29.498   5.218
26590W        W96405   8.383  31.438  11.866
26591W        W96406   3.943   6.183   3.690
26592W        W96407  20.696  28.020   1.782
26593W        W96408  20.216  22.137   0.773
26594W        W96409   2.331  34.954   4.179
26595W        W96410   1.407  35.367   0.950
26596W        W96411  19.192  11.221  12.853
26597W        W96412  20.711  41.942   1.230
26598W        W96413  20.611   2.907   0.483
26599W        W96414  36.963  35.451  12.981
26600W        W96415  23.004  10.249   2.668
26601W        W96416  27.978  36.517  14.932
26602W        W96417  32.439  27.084  11.899
26603W        W96418  32.563  37.048   3.728
26604W        W96419  16.126  14.116   4.296
26605W        W96420  14.104  34.920   2.730
26606W        W96421  28.069  21.645  12.512
26607W        W96422  10.674  24.025   4.150
26608W        W96423  44.297  31.435   1.869
26609W        W96424  34.904  26.559   3.793
26610W        W96425  15.622  43.940  12.532
26611W        W96426   5.198  24.643  14.788
26612W        W96427   8.683  36.933   2.858
26613W        W96428  31.523  17.191  11.554
26614W        W96429  23.572  15.635  12.083
26615W        W96430  22.091  23.620   3.701
26616W        W96431   5.304  44.502  10.023
26617W        W96432  42.356  10.728  13.436
26618W        W96433  17.735  21.258  12.082
26619W        W96434  22.715  21.639   2.275
26620W        W96435  26.076  11.289  10.510
26621W        W96436  33.488  41.466  11.061
26622W        W96437  31.625  18.180   0.873
26623W        W96438  26.119  36.978  12.023
26624W        W96439  44.443   1.271  13.931
26625W        W96440  44.935   8.809   2.275
26626W        W96441  20.660  29.500   2.860
26627W        W96442  20.268  12.723   0.471
26628W        W96443   4.385   2.368   2.301
26629W        W96444  11.300  33.451   2.279
26630W        W96445  19.199  21.674  11.544
26631W        W96446   5.245  43.277   1.759
26632W        W96447  44.380  20.710   3.643
26633W        W96448   8.388  33.463  14.984
26634W        W96449   8.289  21.123  12.542
26635W        W96450  27.192  34.529  11.537
26636W        W96451   4.374   3.924   4.284
26637W        W96452   3.432   8.267  14.378
26638W        W96453  12.648   7.754  11.062
26639W        W96454  38.998  29.574  11.519
26640W        W96455  43.785  18.738   1.703
26641W        W96456  24.697  10.220  13.895
26642W        W96457  24.705   8.197  11.531
26643W        W96458  39.040  16.180   2.760
26644W        W96459  15.237  26.461  11.513
26645W        W96460  11.865   6.302   2.694
26646W        W96461  34.475   9.702  12.549
26647W        W96462  38.927  28.004   4.273
26648W        W96463  28.006   0.288   3.309
26649W        W96464   9.287  37.427  10.898
26650W        W96465   6.824  22.708  11.578
26651W        W96466  32.542  25.176   0.921
26652W        W96467   8.204  40.351   9.979
26653W        W96468  19.652  36.047  11.038
26654W        W96469   6.810  18.610   3.775
26655W        W96470  10.637   1.812   3.168
26656W        W96471  15.324  39.827   1.342
26657W        W96472  30.909  34.020  14.982
26658W        W96473   2.819  16.150   0.785
26659W        W96474  30.476   8.356  13.510
26660W        W96475  33.889  14.322   3.838
26661W        W96476  27.151  18.759   0.893
26662W        W96477  11.839  41.032   4.260
26663W        W96478  41.501  41.958   0.299
26664W        W96479  10.805  10.358   3.848
26665W        W96480  19.136  31.545   3.633
26666W        W96481   1.918  38.563  12.413
26667W        W96482  23.568  13.701   2.888
26668W        W96483  34.419  39.029  14.875
26669W        W96484  39.472  25.201  11.465
26670W        W96485   8.670  31.073  13.055
26671W        W96486  42.349  30.639  13.971
26672W        W96487  44.356  14.596   0.916
26673W        W96488  41.317   1.455   1.375
26674W        W96489  39.010  19.599  11.923
26675W        W96490  27.960  29.943  14.920
26676W        W96491  20.569  14.658  12.444
26677W        W96492  17.555  40.389  14.844
26678W        W96493   7.772   1.762  11.375
26679W        W96494  24.099  20.053  12.562
26680W        W96495  15.287  23.647   1.215
26681W        W96496   4.725  44.763   3.344
26682W        W96497  39.887   6.223  14.355
26683W        W96498  37.852  20.592   1.429
26684W        W96499   8.797  22.103   2.884
26685W        W96500  20.241   0.821   1.769
26686W        W96501  41.811  12.271  14.011
26687W        W96502  34.038  27.988  12.517
26688W        W96503  23.522  26.174  11.063
26689W        W96504   7.701  35.923  10.985
26690W        W96505  27.478  18.712   4.280
26691W        W96506  17.681  32.460   4.793
26692W        W96507  26.984  41.296  14.814
26693W        W96508  31.583  25.008  14.282
26694W        W96509  40.489  11.192   0.317
26695W        W96510  23.105  25.971   2.363
26696W        W96511  30.000  20.523  13.047
26697W        W96512  13.136  36.063   3.703
26698W        W96513  40.418   8.321   0.325
26699W        W96514  16.670  41.524  11.487
26700W        W96515  34.961  41.907   4.124
26701W        W96516   9.165  40.335   2.704
26702W        W96517   8.883  24.128  11.032
26703W        W96518  15.274  23.234   0.381
26704W        W96519  26.670  12.656  11.992
26705W        W96520  40.411  26.495   5.124
26706W        W96521  33.556  18.723  11.477
26707W        W96522  16.643   9.836  11.862
26708W        W96523  37.386  23.494   2.303
26709W        W96524  28.159  24.513   2.681
26710W        W96525  15.736  32.892   5.169
26711W        W96526  40.041   6.718  11.082
26712W        W96527  15.678  14.126  11.432
26713W        W96528  10.151  24.584   3.863
26714W        W96529   5.839  13.286   0.849
26715W        W96530  24.649  16.286  12.863
26716W        W96531  42.003  23.148   1.372
26717W        W96532  15.704  37.053   0.404
26718W        W96533  27.505  21.092  13.988
26719W        W96534  33.888  31.010   1.820
26720W        W96535   7.905  24.189  11.523
26721W        W96536   3.269  11.356   1.873
26722W        W96537   4.217  23.652   3.341
26723W        W96538  18.128  20.543   3.379
26724W        W96539  15.631  27.466   0.449
26725W        W96540  27.999  41.002  10.467
26726W        W96541   4.316   9.358  11.514
26727W        W96542  29.029  25.044   4.187
26728W        W96543  38.990  12.750   3.155
26729W        W96544  38.392   9.179   4.650
26730W        W96545  11.138  24.120  11.008
26731W        W96546  44.363  25.706   0.442
26732W        W96547   6.908  14.186  12.017
26733W        W96548  23.061   4.379  11.474
26734W        W96549  29.472  38.999   9.940
26735W        W96550  20.673  40.439   1.858
26736W        W96551   3.263  34.012  11.053
26737W        W96552  25.169  39.361  11.959
26738W        W96553  14.757  33.986  10.473
26739W        W96554  13.115  29.442   2.780
26740W        W96555   4.718  31.629   1.310
26741W        W96556  22.009  16.712   5.667
26742W        W96557  36.931  23.046  12.910
26743W        W96558  12.777  24.225   0.300
26744W        W96559  14.787   6.213  14.448
26745W        W96560  11.715  14.624   1.293
26746W        W96561  34.560  41.362  10.586
26747W        W96562   4.283  34.561  14.765
26748W        W96563  30.095  20.759  14.405
26749W        W96564  41.876   7.829  14.286
26750W        W96565  42.971  18.289  11.055
26751W        W96566  37.906  39.863  11.930
26752W        W96567  15.164  19.225   3.751
26753W        W96568  18.266  23.491   2.231
26754W        W96569  38.067  10.739  14.803
26755W        W96570  22.163  33.120  13.505
26756W        W96571  43.010  35.447  12.976
26757W        W96572   5.837  16.739   3.711
26758W        W96573  24.507  40.049   2.901
26759W        W96574  10.373  14.825  13.018
26760W        W96575  17.244  12.223   0.944
26761W        W96576  40.413  14.102   0.468
26762W        W96577  39.057  36.018   0.783
26763W        W96578  42.475  31.917  10.489
26764W        W96579   7.207   9.389  14.416
26765W        W96580  27.011   8.258  12.884
26766W        W96581  10.830  40.958  13.891
26767W        W96582  33.464  17.111   2.337
26768W        W96583  18.094  24.007  13.386
26769W        W96584   4.719  38.457  12.396
26770W        W96585  32.024   1.316   1.377
26771W        W96586  22.615   1.334   0.859
26772W        W96587   5.415  34.569  12.575
26773W        W96588   4.926  34.398   1.775
26774W        W96589   9.233  16.280   0.276
26775W        W96590  12.319  38.518  14.280
26776W        W96591  24.512  43.925   3.160
26777W        W96592  18.658  40.842  11.510
26778W        W96593  14.245   5.412  12.575
26779W        W96594  28.647  37.051  14.898
26780W        W96595   7.391  36.376  13.419
26781W        W96596  33.565  16.675  10.472
26782W        W96597  20.594  41.043   4.657
26783W        W96598  36.502  36.570  13.956
26784W        W96599  22.142  39.059  14.916
26785W        W96600  44.341  21.567   4.834
26786W        W96601   7.847   0.886  13.034
26787W        W96602  14.657  21.754  12.907
26788W        W96603  13.734   2.278  12.025
26789W        W96604  38.032  41.898   3.812
26790W        W96605   3.876  26.501  11.939
26791W        W96606   6.223  25.113   2.792
26792W        W96607  29.949  30.931  12.419
26793W        W96608  41.832  38.054  14.511
26794W        W96609  21.519  40.480   0.469
26795W        W96610  33.880   5.870   0.754
26796W        W96611  35.958  35.076   0.947
26797W        W96612  21.687  10.216   0.481
26798W        W96613   4.303  19.154  14.506
26799W        W96614  14.725  44.936  10.442
26800W        W96615  22.513  30.933  13.817
26801W        W96616  28.035  25.527  11.372
26802W        W96617  33.468  34.503  12.847
26803W        W96618  24.718  20.233  14.974
26804W        W96619  22.192  24.102   0.474
26805W        W96620  20.630  28.939   0.387
26806W        W96621   6.727   1.396  14.897
26807W        W96622  23.995   4.315  14.456
26808W        W96623  11.726  24.560  14.498
26809W        W96624  40.306  36.495   5.109
26810W        W96625  29.612   7.792  11.856
26811W        W96626  21.057  19.189  11.900
26812W        W96627   9.329   9.153  11.580
26813W        W96628   7.864  26.590  14.415
26814W        W96629  21.165  35.436   3.294
26815W        W96630  27.004  44.893   1.336
26816W        W96631   0.881   6.881   3.238
26817W        W96632  31.521   6.362   4.212
26818W        W96633   3.260  24.689   0.457
26819W        W96634  33.075   5.718  11.899
26820W        W96635  33.959  13.325  13.035
26821W        W96636  23.534  39.918  14.306
26822W        W96637   9.686   1.949  12.472
26823W        W96638  16.121  37.965  12.422
26824W        W96639  24.512  37.877  12.982
26825W        W96640  40.020   6.420  14.910
26826W        W96641  37.453  40.409  11.559
26827W        W96642   5.842  33.100   0.268
26828W        W96643  10.241  42.841   2.212
26829W        W96644   1.878   5.212   2.263
26830W        W96645   4.319  17.668  14.909
26831W        W96646  19.086   3.307   1.376
26832W        W96647   3.244  20.762  10.000
26833W        W96648  32.018   2.764  12.529
26834W        W96649  23.545  29.451  12.892
26835W        W96650  19.173   0.274   0.331
26836W        W96651  31.574  42.846   3.227
26837W        W96652  41.858  36.844   2.770
26838W        W96653  11.791  14.803  13.949
26839W        W96654  14.829  12.832   3.365
26840W        W96655   1.816   6.210  11.604
26841W        W96656  14.116   3.382  11.568
26842W        W96657  29.554  18.677  13.403
26843W        W96658  29.031   9.238   2.700
26844W        W96659  12.254  12.132  11.058
26845W        W96660  39.415  32.396  12.385
26846W        W96661   6.918  40.368  14.310
26847W        W96662  16.265  12.762  14.359
26848W        W96663  22.512   4.422  13.848
26849W        W96664  21.109  15.643   0.275
26850W        W96665   6.837   2.747  13.992
26851W        W96666   5.363  41.471   3.662
26852W        W96667  37.472  21.208  10.633
26853W        W96668  18.204   7.192   4.176
26854W        W96669  20.687  36.473  12.941
26855W        W96670  31.119  33.917  13.363
26856W        W96671  10.296   1.282   0.242
26857W        W96672  14.674  42.429   3.187
26858W        W96673  14.138   0.281   4.270
26859W        W96674  37.020  38.952   0.960
26860W        W96675   5.700  23.179  12.038
26861W        W96676   6.270   4.278   2.901
26862W        W96677  22.246  25.683  12.039
26863W        W96678  41.381  25.483  12.836
26864W        W96679  37.341  15.220   4.753
26865W        W96680  23.053  44.828   2.823
26866W        W96681  30.488  15.311   2.859
26867W        W96682   1.247   4.820  10.999
26868W        W96683  18.297  31.985   0.930
26869W        W96684  43.863  34.387   3.775
26870W        W96685  33.014  10.663  12.471
26871W        W96686  18.183  42.969   2.355
26872W        W96687  18.244  40.355  13.968
26873W        W96688  25.525  14.100   3.803
26874W        W96689  44.932  15.801  14.418
26875W        W96690   6.746  31.107   2.241
26876W        W96691  31.544  13.689   1.910
26877W        W96692   8.243  39.385   3.656
26878W        W96693   5.850   3.777   0.846
26879W        W96694  12.340  42.776  13.365
26880W        W96695  44.001  10.337   0.464
26881W        W96696  17.299  14.214  10.544
26882W        W96697  31.090   6.324   3.642
26883W        W96698  44.457   0.350  11.443
26884W        W96699   5.369  38.894  14.833
26885W        W96700  31.582   5.301  11.102
26886W        W96701  13.771   5.204   0.775
26887W        W96702   8.234  10.193  14.296
26888W        W96703  26.035   5.749   0.436
26889W        W96704  18.694  31.997  10.105
26890W        W96705  29.472  24.213  14.912
26891W        W96706   5.725  29.024   3.241
26892W        W96707   1.893  29.579  14.429
26893W        W96708  36.083  27.115  11.395
26894W        W96709  28.657  31.525   4.124
26895W        W96710   4.368   0.880  12.524
26896W        W96711  35.066  20.672  11.554
26897W        W96712   3.293  41.951   5.293
26898W        W96713   5.861  15.186  13.963
26899W        W96714  10.643  24.573  12.457
26900W        W96715  32.398  34.962   0.869
26901W        W96716  36.928  31.522   5.622
26902W        W96717  23.538  15.283   3.201
26903W        W96718  12.615  30.519   0.911
26904W        W96719  15.735  44.876   2.784
26905W        W96720  15.162  10.146   1.733
26906W        W96721  22.710   1.804  11.083
26907W        W96722  36.943   0.843  11.470
26908W        W96723  19.731  20.667   3.736
26909W        W96724  12.702  29.454   4.824
26910W        W96725  13.299   1.963   2.869
26911W        W96726  43.959  25.218   0.906
26912W        W96727   7.867  43.421  14.902
26913W        W96728  44.768  31.550   4.718
26914W        W96729  13.340  28.111   0.832
26915W        W96730  18.748   4.419   1.235
26916W        W96731  19.604   3.877  12.886
26917W        W96732   4.736  19.594  14.350
26918W        W96733  13.759  28.957   1.215
26919W        W96734  22.685   9.185   4.346
26920W        W96735   1.861  16.284  13.835
26921W        W96736  10.273   6.293   5.171
26922W        W96737   1.814   6.763  11.104
26923W        W96738  19.555  20.156   0.760
26924W        W96739   8.188  41.907   5.154
26925W        W96740   5.392  36.942  14.277
26926W        W96741  19.602  21.633   4.204
26927W        W96742  25.711  15.251   2.254
26928W        W96743  16.636   0.420   4.201
26929W        W96744  37.559  26.956   0.861
26930W        W96745  21.590  18.271   0.961
26931W        W96746  37.512   6.340  14.816
26932W        W96747  32.087   3.836   3.660
26933W        W96748  11.174  31.633  12.372
26934W        W96749  17.204  30.430   9.942
26935W        W96750  27.558  30.090   3.234
26936W        W96751   5.790   5.351   0.784
26937W        W96752  27.183  43.892   2.850
26938W        W96753  42.911  42.936  13.044
26939W        W96754  37.507  24.015  13.886
26940W        W96755  41.360  16.175  11.057
26941W        W96756   8.308  19.716  14.447
26942W        W96757  19.065  18.579   4.814
26943W        W96758   5.713  15.790  13.328
26944W        W96759  11.747  32.578   0.296
26945W        W96760  43.332  12.173   2.304
26946W        W96761  36.360  26.080  13.459
26947W        W96762  32.959  26.619  12.385
26948W        W96763   2.935  26.977   0.273
26949W        W96764  29.551  41.006   2.703
26950W        W96765   7.690  41.854  11.962
26951W        W96766  42.517  29.604   2.321
26952W        W96767  42.967   0.836  14.468
26953W        W96768   6.822  28.563  10.497
26954W        W96769  31.628  10.778  10.452
26955W        W96770  43.491   8.674   2.742
26956W        W96771  40.944  32.601  11.016
26957W        W96772  31.435   3.346   2.365
26958W        W96773  41.936  21.102   4.706
26959W        W96774  21.101   0.380   9.996
26960W        W96775   1.432   8.802  10.628
26961W        W96776  25.033  11.653   4.133
26962W        W96777  21.518  15.604   4.267
26963W        W96778  13.646  29.446   1.219
26964W        W96779  34.106  38.968  13.481
26965W        W96780  16.608  40.801  10.460
26966W        W96781  39.474  37.420   1.311
26967W        W96782  10.355  29.045   1.271
26968W        W96783  23.200  22.504  11.951
26969W        W96784   3.398  10.145   4.125
26970W        W96785   5.291  10.827   3.313
26971W        W96786  40.994  35.881  12.088
26972W        W96787  29.482   9.754   2.394
26973W        W96788  16.610  12.139  10.527
26974W        W96789  43.812  16.238   1.847
26975W        W96790  14.191  42.484  12.020
26976W        W96791  29.143  14.732  14.510
26977W        W96792  36.052  35.453   1.227
26978W        W96793   2.855  31.486  14.398
26979W        W96794   4.920   6.761  11.114
26980W        W96795  35.518  20.054   4.339
26981W        W96796  42.014  12.279  14.340
26982W        W96797  35.588  39.322   1.899
26983W        W96798   9.705  44.381  11.477
26984W        W96799   0.753  11.360  11.024
26985W        W96800   1.965  35.982  12.869
26986W        W96801  14.697  27.549  14.415
26987W        W96802   6.749  39.464   4.127
26988W        W96803  43.929  26.161   2.762
26989W        W96804  41.013  10.291   2.740
26990W        W96805  16.631  39.416   3.700
26991W        W96806  22.223  31.057   3.818
26992W        W96807   2.778  28.456  14.843
26993W        W96808  44.830  18.690   3.789
26994W        W96809  24.112   8.719   5.281
26995W        W96810  33.026  34.062  14.849
26996W        W96811  17.558  34.977   0.369
26997W        W96812  39.397   0.940   2.372
26998W        W96813  37.482   7.836   2.695
26999W        W96814  25.148  25.152   1.235
27000W        W96815   6.428  39.452  13.979
27001W        W96816  27.126  11.199   3.359
27002W        W96817  42.997  31.018   2.776
27003W        W96818  37.426  20.590  12.915
27004W        W96819  20.590   7.865   2.239
27005W        W96820  34.011  19.274  12.860
27006W        W96821  27.187  24.204  12.037
27007W        W96822  35.105  15.289  12.385
27008W        W96823  25.106  16.102   4.185
27009W        W96824  25.623  26.076  13.498
27010W        W96825  18.253  22.658  11.527
27011W        W96826  42.819  24.622  11.970
27012W        W96827  34.413   6.793  14.807
27013W        W96828  19.728  16.777  14.444
27014W        W96829  12.665  43.478  10.633
27015W        W96830  23.038  10.779  14.819
27016W        W96831  40.929  42.446  13.950
27017W        W96832  43.942  28.565   1.303
27018W        W96833  26.632  31.999  13.033
27019W        W96834  26.058  33.006   1.284
27020W        W96835  38.448  28.977  14.350
27021W        W96836  35.987   4.313  12.835
27022W        W96837  25.473  18.713  10.585
27023W        W96838  20.245  33.066   1.728
27024W        W96839   2.389  26.698  12.066
27025W        W96840  38.958   5.782  14.919
27026W        W96841  44.917  39.498   3.191
27027W        W96842  39.988  24.496  11.479
27028W        W96843  36.856   1.768  11.598
27029W        W96844  35.504  24.566   0.363
27030W        W96845  14.654   9.765  14.969
27031W        W96846   6.731  40.878  12.084
27032W        W96847  43.453  38.465   2.179
27033W        W96848  40.529  34.959   0.779
27034W        W96849   1.838  11.685  14.883
27035W        W96850  25.129  14.646   3.156
27036W        W96851  23.019  31.585  11.069
27037W        W96852   4.877  39.816  11.484
27038W        W96853  13.629  33.568   0.866
27039W        W96854  17.721   3.302  14.972
27040W        W96855  35.515  24.616  11.109
27041W        W96856   2.916   8.165  11.931
27042W        W96857  31.031  24.589   0.358
27043W        W96858   7.883  19.162  14.775
27044W        W96859   2.266   3.869   1.324
27045W        W96860  31.545   8.279   2.208
27046W        W96861  38.013  29.489  12.867
27047W        W96862  18.675  10.691   2.754
27048W        W96863  31.130  34.905   0.403
27049W        W96864  39.526  11.794  13.463
27050W        W96865  35.057  11.287  12.433
27051W        W96866  17.221  11.192   1.912
27052W        W96867  21.023   8.289   5.144
27053W        W96868  15.730   4.426  10.909
27054W        W96869  12.171  40.892   1.432
27055W        W96870  17.095  38.949   1.225
27056W        W96871  11.699   1.753  10.926
27057W        W96872   8.376  17.709  10.585
27058W        W96873  25.155  22.018   4.803
27059W        W96874  33.481   3.259   1.264
27060W        W96875   5.344  44.498   3.695
27061W        W96876  36.536   0.252   2.213
27062W        W96877   7.410  43.327   3.269
27063W        W96878  25.629  20.699   0.441
27064W        W96879   1.240  26.966  13.014
27065W        W96880  36.034  28.050  13.963
27066W        W96881   6.308   1.384   0.905
27067W        W96882   8.794  22.707   2.409
27068W        W96883  26.507  34.013   3.343
27069W        W96884  20.160  28.605  11.923
27070W        W96885  44.827  37.353  12.515
27071W        W96886  18.181  31.989  12.937
27072W        W96887  20.195  19.545   1.338
27073W        W96888  25.079  30.910  14.780
27074W        W96889  22.133   0.324   3.675
27075W        W96890  29.645  44.923  13.360
27076W        W96891  18.781  30.050  13.541
27077W        W96892  42.004  16.791  10.930
27078W        W96893   8.828  40.805  14.462
27079W        W96894  35.916  20.119  10.472
27080W        W96895   6.720  23.211  13.354
27081W        W96896   4.389  18.128  12.446
27082W        W96897  43.824   6.778  12.434
27083W        W96898  10.283  10.822   4.227
27084W        W96899  11.288  24.620  14.504
27085W        W96900  10.636  40.498  11.481
27086W        W96901  18.294  14.301  13.395
27087W        W96902  40.003  40.484   2.330
27088W        W96903  39.389   6.290   5.789
27089W        W96904   8.815   7.384  10.564
27090W        W96905  16.729   3.419  12.985
27091W        W96906  35.591  29.469  10.451
27092W        W96907  23.198  21.262  11.129
27093W        W96908  25.195  35.091  12.887
27094W        W96909   1.409  30.469  12.394
27095W        W96910  35.424  28.162   4.671
27096W        W96911  40.537  14.202   2.232
27097W        W96912  14.250  30.056   3.713
27098W        W96913  40.822  14.165  12.949
27099W        W96914  26.986  24.710  10.609
27100W        W96915   9.386  32.067   3.790
27101W        W96916  44.409  11.832  11.503
27102W        W96917   9.284   3.902  13.885
27103W        W96918  17.740  15.621  11.009
27104W        W96919  27.185  22.738  14.886
27105W        W96920  21.754  39.936  11.104
27106W        W96921  36.402  24.207  12.903
27107W        W96922  10.698   1.896  14.980
27108W        W96923  12.251  39.970  10.462
27109W        W96924  40.831  24.501   2.713
27110W        W96925  13.111  31.105  11.965
27111W        W96926  18.679  40.326   1.220
27112W        W96927  22.159  44.265   3.746
27113W        W96928  43.468  13.350  11.040
27114W        W96929  18.766  29.586  10.010
27115W        W96930   9.831   1.271   4.262
27116W        W96931  27.582  30.421   1.705
27117W        W96932   3.780  14.795  12.343
27118W        W96933  34.881  14.226   3.379
27119W        W96934   6.355  14.154   5.085
27120W        W96935  14.210  22.088  14.286
27121W        W96936  14.216  43.017   3.793
27122W        W96937  33.039  14.756  13.838
27123W        W96938  36.472   1.760   2.896
27124W        W96939  25.999  39.410  10.505
27125W        W96940  36.446  19.103   2.781
27126W        W96941  29.563  32.076   0.900
27127W        W96942  12.344  36.040   1.266
27128W        W96943   5.820  33.080   0.765
27129W        W96944  18.194  14.833  13.382
27130W        W96945   3.411  37.905   1.775
27131W        W96946  26.476  13.196  12.086
27132W        W96947  20.569   8.292   1.729
27133W        W96948   0.798  15.762   2.725
27134W        W96949  14.099  40.329  12.917
27135W        W96950  27.484  34.030  11.894
27136W        W96951  11.157  44.841   2.249
27137W        W96952  30.441  13.674  14.830
27138W        W96953  20.600  14.308   2.211
27139W        W96954  32.068  28.560  12.021
27140W        W96955   7.746   7.862  10.596
27141W        W96956  36.008  18.265   4.248
27142W        W96957   1.471  13.302   3.748
27143W        W96958  37.504   9.655  10.635
27144W        W96959  12.636  33.903   0.857
27145W        W96960  12.759  15.203  11.501
27146W        W96961  20.074  24.544   2.816
27147W        W96962  41.824   0.950  14.003
27148W        W96963  31.997  30.554   3.761
27149W        W96964   4.345  34.460   1.891
27150W        W96965  15.687  13.681   2.334
27151W        W96966  36.959  41.990   4.320
27152W        W96967  17.292  44.383  13.352
27153W        W96968  10.356  19.220  14.804
27154W        W96969  11.309  37.956  13.000
27155W        W96970  25.071  42.978   4.681
27156W        W96971  43.316  29.145   3.273
27157W        W96972  44.841  42.343  11.910
27158W        W96973  33.108  11.767   1.416
27159W        W96974   7.852  16.123  11.128
27160W        W96975   7.359  22.222  14.909
27161W        W96976  34.593   7.330  10.931
27162W        W96977  31.148  31.034  11.103
27163W        W96978  35.945   2.435  12.884
27164W        W96979   0.279  30.920   2.781
27165W        W96980  14.673  23.663  13.465
27166W        W96981  30.951  29.146   0.280
27167W        W96982  38.863   1.898   4.727
27168W        W96983   3.359  32.619   1.793
27169W        W96984  25.678  35.023  10.967
27170W        W96985   5.692  13.338  14.902
27171W        W96986  40.546  22.654   5.164
27172W        W96987  15.658  27.139   2.327
27173W        W96988  13.653  30.978   0.398
27174W        W96989  21.130   5.692   1.835
27175W        W96990  24.052  10.354  13.498
27176W        W96991  24.627   6.879  14.924
27177W        W96992  42.803  34.393  14.010
27178W        W96993  27.093  35.954   0.273
27179W        W96994  38.889  15.128  12.974
27180W        W96995  23.636  14.178  14.276
27181W        W96996  28.054   4.249   4.768
27182W        W96997   7.845  41.786   3.640
27183W        W96998  22.553  19.683  12.502
27184W        W96999  40.356  24.064  13.453
27185W        W97000  33.895   8.689  12.560
27186W        W97001  21.136  35.978   2.300
27187W        W97002  21.067  42.439   0.435
27188W        W97003  22.186  43.998   0.300
27189W        W97004  39.845  30.981  13.403
27190W        W97005  15.619  16.238  14.476
27191W        W97006  36.897  44.865  13.844
27192W        W97007   2.243  33.070  13.324
27193W        W97008  41.894  10.209   3.263
27194W        W97009  14.154  27.044  14.917
27195W        W97010  37.970  17.651   4.233
27196W        W97011  17.171  34.013   1.835
27197W        W97012  24.689  33.617   4.804
27198W        W97013   1.314  36.349  11.592
27199W        W97014   2.338  25.512   4.180
27200W        W97015   4.350  23.680   3.764
27201W        W97016  18.162   6.680  14.021
27202W        W97017  34.552   6.300   0.375
27203W        W97018  20.215  25.519  12.541
27204W        W97019  23.543  11.679  14.855
27205W        W97020  22.525   8.797  10.429
27206W        W97021  27.666  28.974  14.960
27207W        W97022  42.306   3.759   1.349
27208W        W97023  42.908  37.049   2.265
27209W        W97024  44.287  37.410   0.740
27210W        W97025  27.679  31.412  11.075
27211W        W97026   9.790  32.929   2.890
27212W        W97027  44.929   1.790  10.447
27213W        W97028  33.599  30.495  13.354
27214W        W97029  31.457  24.168   4.285
27215W        W97030   4.939  30.009  11.430
27216W        W97031  10.756   1.398  13.868
27217W        W97032   5.792  21.165   0.365
27218W        W97033   5.358  21.637   2.377
27219W        W97034  22.575  32.905  12.010
27220W        W97035  17.132  44.985  12.544
27221W        W97036  40.413  24.548  13.953
27222W        W97037   1.809  22.724   1.873
27223W        W97038  22.032  18.071  14.771
27224W        W97039  37.349  26.189  12.342
27225W        W97040   4.738  33.050  10.593
27226W        W97041  44.309   7.779   2.877
27227W        W97042  33.892  31.458   0.392
27228W        W97043  14.610  18.677  11.969
27229W        W97044  31.088  42.795  14.284
27230W        W97045  15.682  14.732   2.352
27231W        W97046  13.343   7.715  11.532
27232W        W97047  15.597  24.139   0.393
27233W        W97048  20.241  33.902  11.455
27234W        W97049  36.405  13.604   2.732
27235W        W97050  43.388  17.760   1.735
27236W        W97051  43.891  27.588   2.358
27237W        W97052  11.778   7.285  13.864
27238W        W97053  24.487  25.965  13.456
27239W        W97054  12.199  17.070   5.671
27240W        W97055   5.825   7.896  10.985
27241W        W97056  15.661  39.519   1.277
27242W        W97057  29.459  39.063  14.433
27243W        W97058  43.786  21.688   1.696
27244W        W97059  17.196  31.431  14.813
27245W        W97060  33.953  16.280  13.955
27246W        W97061   4.723  26.605  13.032
27247W        W97062  11.326  42.009  12.567
27248W        W97063   8.213  35.359   4.114
27249W        W97064  21.238   0.800  13.487
27250W        W97065  16.764  30.135   3.782
27251W        W97066  23.035  19.703   1.886
27252W        W97067  38.332  35.949   2.896
27253W        W97068  31.495  14.175   1.298
27254W        W97069  27.589  13.266  13.049
27255W        W97070  41.829   9.736  12.928
27256W        W97071  22.183   0.289   4.346
27257W        W97072  33.481  27.621   2.323
27258W        W97073   0.428  36.485  13.436
27259W        W97074  11.769  37.041   1.866
27260W        W97075  12.362  10.767  14.374
27261W        W97076  36.426  22.236  12.416
27262W        W97077  28.670  33.038  11.501
27263W        W97078  38.976  17.765   9.950
27264W        W97079  13.666  18.164  10.924
27265W        W97080  29.627   5.865   4.742
27266W        W97081  22.741  19.765  13.948
27267W        W97082  40.917  22.200   0.434
27268W        W97083  27.611  23.016  11.463
27269W        W97084  35.076  28.953   4.718
27270W        W97085  17.186  17.150  11.857
27271W        W97086  18.598  21.708  12.377
27272W        W97087  10.844  31.614  11.375
27273W        W97088  38.858  24.005  10.056
27274W        W97089   0.855   2.963  12.915
27275W        W97090  22.515   3.294   0.305
27276W        W97091  41.351  13.703   0.814
27277W        W97092  21.639  35.487  14.868
27278W        W97093   5.903  21.072   4.830
27279W        W97094  42.879  13.830  10.988
27280W        W97095  10.202  17.723   5.248
27281W        W97096  17.675  10.223   0.336
27282W        W97097  43.958  33.077  13.977
27283W        W97098  20.616  36.850   2.178
27284W        W97099  31.913  26.994   0.416
27285W        W97100  19.549  30.516   3.321
27286W        W97101  24.022  43.370  10.596
27287W        W97102   9.155  31.121   2.797
27288W        W97103  28.964   2.777  11.048
27289W        W97104  38.366  36.400   3.687
27290W        W97105  24.656  13.188   0.349
27291W        W97106  22.726  10.358  10.496
27292W        W97107   9.674   2.247  14.870
27293W        W97108  27.139  42.289  10.574
27294W        W97109  17.678   2.434  11.076
27295W        W97110  28.677  30.118   3.368
27296W        W97111  21.209  38.956   2.355
27297W        W97112   1.263  20.110   2.196
27298W        W97113   2.341   5.404  12.959
27299W        W97114  41.845  25.217   9.933
27300W        W97115  28.952   3.939  14.398
27301W        W97116  39.323  24.718  12.350
27302W        W97117  15.258  43.997  11.592
27303W        W97118  36.473  35.506  10.903
27304W        W97119  26.109  37.908  14.016
27305W        W97120   1.941   3.432  12.964
27306W        W97121  14.733  31.055   3.641
27307W        W97122  41.464  33.397  10.937
27308W        W97123  24.976  17.222   2.206
27309W        W97124   4.425  14.247  12.341
27310W        W97125  21.583  12.813   4.347
27311W        W97126  33.412  24.081  14.781
27312W        W97127  19.265   1.276  13.043
27313W        W97128  41.385  26.466  13.375
27314W        W97129  16.253  40.961  11.064
27315W        W97130  30.073  21.047  10.921
27316W        W97131   6.275   0.320   0.435
27317W        W97132  37.871  28.122   0.443
27318W        W97133   8.178  10.879   4.144
27319W        W97134  42.879  43.390  12.460
27320W        W97135  22.092  19.046   9.587
27321W        W97136  29.562  22.746  10.894
27322W        W97137   8.375  22.154  11.518
27323W        W97138  15.173  26.648  13.043
27324W        W97139   2.746  37.062  12.045
27325W        W97140   6.890  31.962   2.703
27326W        W97141   4.307   7.819   0.918
27327W        W97142   2.430  19.171   2.755
27328W        W97143  20.174  39.485   0.424
27329W        W97144   9.362  32.597  13.839
27330W        W97145  35.358  18.171   1.252
27331W        W97146  21.244   1.266  13.429
27332W        W97147  11.219  39.423  12.891
27333W        W97148  40.838  28.981  10.958
27334W        W97149  18.606  40.380   1.754
27335W        W97150  24.547  18.261   1.435
27336W        W97151  41.837   3.744   4.605
27337W        W97152   0.346  10.718  13.408
27338W        W97153  14.334  14.687   3.701
27339W        W97154  19.157  15.214  13.424
27340W        W97155  25.181  44.936   3.762
27341W        W97156  31.038  26.657  10.947
27342W        W97157  23.177  12.818   0.833
27343W        W97158  36.481   2.792   1.294
27344W        W97159  34.110   4.339  14.766
27345W        W97160  34.378  25.559   0.825
27346W        W97161  36.882  10.654   0.376
27347W        W97162  44.921  22.723   1.387
27348W        W97163  32.093  44.986   0.314
27349W        W97164  10.357  15.192  11.997
27350W        W97165  32.480  42.862  11.022
27351W        W97166  18.081  11.797  12.038
27352W        W97167  19.777  20.596  14.457
27353W        W97168  32.104  27.568  12.462
27354W        W97169  34.023  29.451   0.881
27355W        W97170  32.075  23.994   4.353
27356W        W97171   0.746   5.229  12.567
27357W        W97172  24.479  29.614  14.352
27358W        W97173   1.881  35.969  10.566
27359W        W97174  34.071  28.594  11.098
27360W        W97175  17.193   7.759  13.862
27361W        W97176  23.010  27.997  13.393
27362W        W97177  44.477  16.684   3.306
27363W        W97178  32.913  25.033   2.361
27364W        W97179  17.082  36.945   0.445
27365W        W97180  15.288  28.170   0.352
27366W        W97181  41.452  26.008   1.320
27367W        W97182  29.479  16.788   2.740
27368W        W97183  44.951  43.336  13.795
27369W        W97184  41.880  12.300   3.359
27370W        W97185  18.065  19.677  14.787
27371W        W97186  44.834  19.060   4.241
27372W        W97187  31.141  37.393  13.359
27373W        W97188  42.816   0.818   2.393
27374W        W97189   1.250   8.704   4.290
27375W        W97190  30.518  13.280   4.731
27376W        W97191  32.480  23.510   4.759
27377W        W97192  17.181  31.572   0.369
27378W        W97193  28.973  43.868  12.062
27379W        W97194  23.543  39.549   0.967
27380W        W97195  40.960  12.697  11.090
27381W        W97196  10.340  42.512   4.195
27382W        W97197  10.367  23.497   0.398
27383W        W97198  38.909  40.516   5.191
27384W        W97199  16.193  28.162  13.484
27385W        W97200  39.890  28.154   4.724
27386W        W97201  42.909  30.523  12.895
27387W        W97202  27.523  24.668  12.448
27388W        W97203  44.913  39.426  14.389
27389W        W97204   9.687  27.542  14.769
27390W        W97205  10.343  29.451   1.446
27391W        W97206  18.248  23.036   2.823
27392W        W97207  16.199   1.338  10.991
27393W        W97208  10.333   4.821   1.900
27394W        W97209  26.466  42.302  14.442
27395W        W97210  29.150  19.150   1.702
27396W        W97211  41.453  18.685  13.528
27397W        W97212  29.961  21.749  11.860
27398W        W97213  25.965  35.891   3.227
27399W        W97214  44.465   0.480  10.526
27400W        W97215  38.397  19.673  13.943
27401W        W97216   5.811   8.681   3.299
27402W        W97217  35.477  13.259   2.785
27403W        W97218  27.098  32.937   3.150
27404W        W97219  34.901  12.760   4.207
27405W        W97220  31.487   2.396   2.674
27406W        W97221   8.661  12.317   2.229
27407W        W97222   6.250  31.127   1.259
27408W        W97223   7.212  31.434   1.709
27409W        W97224   8.396  27.574   1.925
27410W        W97225  15.803  36.439   0.758
27411W        W97226  10.641  42.305   4.188
27412W        W97227  43.883  23.023   0.466
27413W        W97228  27.020  29.930   3.863
27414W        W97229   5.361  41.802  14.487
27415W        W97230  34.608  28.136  14.821
27416W        W97231  42.859   2.396   2.764
27417W        W97232  15.692  12.228  10.448
27418W        W97233  22.215  25.690  13.337
27419W        W97234  37.846  14.101  13.545
27420W        W97235  16.269  44.475   1.292
27421W        W97236  39.376  39.812  13.506
27422W        W97237  25.624  43.906   2.716
27423W        W97238  36.528  23.039  13.969
27424W        W97239  37.020   0.345  14.396
27425W        W97240  36.015   9.667   1.915
27426W        W97241   2.240  24.594   1.315
27427W        W97242  36.952  18.705  12.543
27428W        W97243   3.369  41.885  13.536
27429W        W97244  42.438  35.604  11.028
27430W        W97245  32.024   3.840  11.544
27431W        W97246   3.845  26.103   0.242
27432W        W97247  18.089  28.505  14.917
27433W        W97248  36.949  27.487   1.341
27434W        W97249  40.909  13.349   1.696
27435W        W97250   0.387  24.191   1.924
27436W        W97251  23.042   0.919   3.817
27437W        W97252   2.351  32.624  13.361
27438W        W97253  12.615  38.363   4.813
27439W        W97254  31.534  29.044   0.375
27440W        W97255  19.595  41.509   1.285
27441W        W97256  37.845  15.192   2.672
27442W        W97257  18.638  31.032  12.443
27443W        W97258  20.062  22.537  10.502
27444W        W97259  35.517   4.860   2.403
27445W        W97260  17.736  41.968  13.038
27446W        W97261   7.759   0.416  13.891
27447W        W97262   8.834  41.971  13.830
27448W        W97263   2.732  15.120   2.843
27449W        W97264  44.399  18.241  12.910
27450W        W97265  18.167  17.578  14.374
27451W        W97266  33.912   5.305  14.405
27452W        W97267  19.232  16.758  12.040
27453W        W97268  25.597   4.858   3.166
27454W        W97269  39.410  13.275   1.935
27455W        W97270  32.607  31.153  12.944
27456W        W97271   8.881  12.659  11.445
27457W        W97272   8.311  24.669   3.357
27458W        W97273  12.805  41.320   1.213
27459W        W97274  23.582  44.413   2.765
27460W        W97275  26.098   2.429  11.574
27461W        W97276  36.457  29.155   2.803
27462W        W97277  36.496  32.065  11.002
27463W        W97278  39.986  40.049   3.360
27464W        W97279  31.614   3.764   1.322
27465W        W97280  41.879   3.380  14.998
27466W        W97281   7.352   3.359   2.902
27467W        W97282  16.811   7.399   1.218
27468W        W97283  28.115  32.031  12.015
27469W        W97284  44.475   9.279   2.822
27470W        W97285   9.813  21.537  11.462
27471W        W97286   6.389  42.348   4.662
27472W        W97287  33.071  20.257  14.400
27473W        W97288   7.668  41.919   4.637
27474W        W97289  19.245  29.556   1.289
27475W        W97290   7.814  39.507   9.993
27476W        W97291   4.751  42.369   0.804
27477W        W97292  33.957  10.753  13.881
27478W        W97293  35.600   8.367   4.612
27479W        W97294  38.541  13.252   1.820
27480W        W97295  35.952  30.108  12.365
27481W        W97296  22.199  29.131   0.358
27482W        W97297  27.093  30.655  13.906
27483W        W97298  34.530  38.006   1.412
27484W        W97299  43.512  14.675   0.897
27485W        W97300  17.276  19.546  14.819
27486W        W97301  11.174  30.114  12.970
27487W        W97302   4.286  44.844   2.842
27488W        W97303   3.272   2.785  11.465
27489W        W97304  16.202  20.578  12.940
27490W        W97305  25.666  16.094   0.437
27491W        W97306  28.659   8.378  13.336
27492W        W97307  12.175  11.832   4.238
27493W        W97308   9.343  22.095  12.386
27494W        W97309  27.658   9.756   4.686
27495W        W97310  21.148   7.707   2.849
27496W        W97311  11.723   2.457   1.929
27497W        W97312  22.173  44.439   0.808
27498W        W97313  43.000  26.139   4.221
27499W        W97314   3.726  44.956  12.486
27500W        W97315   6.685   0.347  12.008
27501W        W97316  12.853   3.902  11.412
27502W        W97317  21.051  38.979   1.774
27503W        W97318  28.531  35.513  12.020
27504W        W97319  37.881   5.834  12.400
27505W        W97320  21.513  29.603  12.028
27506W        W97321  39.036  11.148  13.417
27507W        W97322  12.759  44.955   4.625
27508W        W97323  32.437  11.676   1.245
27509W        W97324  18.610  27.147   1.740
27510W        W97325  36.358  20.196  12.059
27511W        W97326   2.916  27.955  11.095
27512W        W97327  44.341   2.821  11.975
27513W        W97328  29.577  22.041  14.964
27514W        W97329  23.492  36.411  14.928
27515W        W97330  42.381  29.116   2.315
27516W        W97331  35.604  44.375  12.947
27517W        W97332  37.942   5.351  13.835
27518W        W97333   5.390  27.463   4.124
27519W        W97334   5.348  30.506   3.240
27520W        W97335   4.206  13.705   2.782
27521W        W97336  37.066   5.755   1.745
27522W        W97337  23.129   1.951  12.528
27523W        W97338  36.561  17.118  11.066
27524W        W97339  42.454  13.742  12.449
27525W        W97340  39.479  36.853   1.260
27526W        W97341  33.975  17.714  11.429
27527W        W97342  22.613  23.185   2.725
27528W        W97343  11.765   6.227   1.351
27529W        W97344  10.345   7.909   2.360
27530W        W97345  12.338  26.677  11.514
27531W        W97346  32.396  27.121   1.879
27532W        W97347  24.127  12.692   3.643
27533W        W97348  29.081  19.245  14.784
27534W        W97349  37.555  39.496  12.008
27535W        W97350  20.213  20.660  10.537
27536W        W97351  40.040  43.413  10.888
27537W        W97352   1.903  44.283   4.670
27538W        W97353  12.337   4.277  14.436
27539W        W97354  39.511   9.155   3.262
27540W        W97355  14.623  44.322   1.408
27541W        W97356   5.877  35.887  11.549
27542W        W97357   5.416  37.002  12.886
27543W        W97358  32.981  31.136  13.330
27544W        W97359   9.755   9.216  13.921
27545W        W97360  14.626   0.443  10.425
27546W        W97361  26.087   4.226   1.219
27547W        W97362  12.839   9.149  12.425
27548W        W97363  11.338  24.062   1.818
27549W        W97364  22.038   5.311   3.733
27550W        W97365  28.593  34.594   3.713
27551W        W97366  27.121  29.570   2.293
27552W        W97367   0.801   8.831  13.803
27553W        W97368  28.114  29.533   3.638
27554W        W97369  16.216  13.783  11.466
27555W        W97370  28.572   0.423   3.634
27556W        W97371  20.093  25.498   1.277
27557W        W97372  24.506  13.144  13.488
27558W        W97373   8.741  11.820   0.928
27559W        W97374  20.712  31.903  11.391
27560W        W97375  20.231   3.270   0.381
27561W        W97376  10.234  27.501   1.445
27562W        W97377  22.205  12.801  14.304
27563W        W97378  33.388  18.673  13.946
27564W        W97379   1.914  44.364  12.052
27565W        W97380  40.946  19.058   2.690
27566W        W97381  32.606  44.462   3.195
27567W        W97382   6.820  30.599  10.594
27568W        W97383   1.949  26.486   3.360
27569W        W97384  26.175  18.055  11.109
27570W        W97385  36.572  39.358   0.878
27571W        W97386  35.410  13.745   3.674
27572W        W97387  32.142  12.207  13.335
27573W        W97388  13.173  38.069  10.952
27574W        W97389   8.304   8.238  13.920
27575W        W97390  33.606  41.337  13.513
27576W        W97391  40.432  18.574  12.930
27577W        W97392  34.915  39.515   2.217
27578W        W97393  18.167  13.628   3.283
27579W        W97394  40.956  23.194   3.672
27580W        W97395  40.472  42.983  11.873
27581W        W97396  30.561  21.198   0.803
27582W        W97397  44.846   4.931   0.470
27583W        W97398  39.505   1.342   9.928
27584W        W97399   9.160  33.918  11.077
27585W        W97400  19.655  16.610   2.262
27586W        W97401   2.768  25.207  13.443
27587W        W97402  30.632   8.741  12.923
27588W        W97403  31.567  23.726   0.954
27589W        W97404   5.817  22.597  13.369
27590W        W97405  10.748  12.257   1.786
27591W        W97406  16.212   3.874  10.493
27592W        W97407  38.513  21.140   3.370
27593W        W97408  34.419  17.680   2.320
27594W        W97409  34.977   4.747  12.904
27595W        W97410  24.116  27.974  12.040
27596W        W97411   2.817  34.427   4.239
27597W        W97412  44.840  14.339  13.990
27598W        W97413  40.424  13.685   0.750
27599W        W97414  20.111  18.700  12.868
27600W        W97415  44.863  27.121   4.116
27601W        W97416   4.422   2.399   1.814
27602W        W97417  25.523  30.143   0.306
27603W        W97418  40.475  38.422  11.952
27604W        W97419  14.625   7.254   0.870
27605W        W97420   2.945  18.551  11.482
27606W        W97421  22.705   7.198  14.820
27607W        W97422  26.202  36.941   4.227
27608W        W97423  39.361  17.125   3.241
27609W        W97424  10.684  13.738   3.184
27610W        W97425  42.964  12.301   3.204
27611W        W97426  16.789  33.878  13.324
27612W        W97427  33.482  26.104   0.856
27613W        W97428  31.620  21.662  11.431
27614W        W97429   6.323   5.868  13.803
27615W        W97430  27.563  24.158  10.609
27616W        W97431  21.714   8.805  12.087
27617W        W97432  18.566  23.987  13.393
27618W        W97433  17.213  14.777  14.772
27619W        W97434  10.195  37.375   0.873
27620W        W97435  32.506  19.159  13.859
27621W        W97436  44.279  24.108  12.406
27622W        W97437  31.060  26.952   4.176
27623W        W97438  34.539  25.706   4.615
27624W        W97439   5.394  28.158  14.932
27625W        W97440  14.642  20.106   0.458
27626W        W97441   1.396   7.674   3.364
27627W        W97442  20.558  10.186   0.434
27628W        W97443  39.959   3.334   1.912
27629W        W97444  37.409   0.921   3.736
27630W        W97445  37.386  32.971  11.022
27631W        W97446  31.021  26.506  11.990
27632W        W97447  15.635  41.912  13.535
27633W        W97448  40.052   6.268   0.968
27634W        W97449   5.763  17.247   4.833
27635W        W97450  24.525   3.732   2.220
27636W        W97451  18.566  23.061  12.083
27637W        W97452  38.380   1.407   2.711
27638W        W97453  38.513  23.508  11.504
27639W        W97454  16.214  10.705  14.879
27640W        W97455  31.994   1.865   2.253
27641W        W97456  38.525   0.456   3.370
27642W        W97457  29.966  43.469   1.698
27643W        W97458   8.311  19.585   3.197
27644W        W97459  36.364   0.479   3.630
27645W        W97460   7.885  12.325  10.617
27646W        W97461   1.376   2.961   0.829
27647W        W97462  22.225   9.200  13.824
27648W        W97463  17.722  37.918  12.549
27649W        W97464  20.660  25.115  10.953
27650W        W97465  35.530  29.469  14.832
27651W        W97466  31.098  19.201   1.833
27652W        W97467  17.679   5.697   0.804
27653W        W97468   2.310  28.994   1.221
27654W        W97469  25.657  27.543  12.566
27655W        W97470   4.803  24.198  11.918
27656W        W97471  18.227  17.125  12.433
27657W        W97472  16.270  21.520   0.787
27658W        W97473   0.279  33.616   4.300
27659W        W97474  38.493   4.444   1.798
27660W        W97475  31.559  40.387   1.448
27661W        W97476  42.029  14.251  11.590
27662W        W97477   0.918  16.748  11.059
27663W        W97478  38.074  28.504  12.047
27664W        W97479  26.071  16.662   1.320
27665W        W97480   0.830  15.581  12.575
27666W        W97481   2.898  36.994   4.750
27667W        W97482  19.669  10.238  14.890
27668W        W97483  26.992  26.494  14.488
27669W        W97484  39.844  15.820  12.471
27670W        W97485  10.368  31.087   0.374
27671W        W97486  19.567  20.042   4.303
27672W        W97487  18.665   7.697  11.038
27673W        W97488  12.752  21.140   3.789
27674W        W97489  26.512  17.234   4.299
27675W        W97490   1.932   0.316  13.965
27676W        W97491  42.912  21.573   4.178
27677W        W97492   9.221  15.117  13.338
27678W        W97493   3.955  32.143  11.951
27679W        W97494  37.424  19.137   4.151
27680W        W97495   6.285  32.635   4.229
27681W        W97496  41.520  35.575  14.923
27682W        W97497   7.284  35.454   1.771
27683W        W97498  17.189  35.088   0.737
27684W        W97499   9.871   0.778   1.759
27685W        W97500  38.907   2.321  12.023
27686W        W97501  20.744  26.696  12.841
27687W        W97502   4.402  12.731   2.219
27688W        W97503   3.272   4.915  12.838
27689W        W97504  18.251  12.615  13.869
27690W        W97505  23.721  41.850  10.424
27691W        W97506  44.899   3.860   3.321
27692W        W97507  26.035  33.601   3.747
27693W        W97508  38.008  20.069   0.289
27694W        W97509  12.309  11.755   3.221
27695W        W97510  20.701   4.326   2.753
27696W        W97511  34.530   9.375   1.329
27697W        W97512  42.294  18.678   4.722
27698W        W97513  36.086  41.793  12.341
27699W        W97514  27.997  29.669  13.479
27700W        W97515  28.149   0.336   0.929
27701W        W97516  41.339  42.780  13.837
27702W        W97517  44.375   5.215  13.898
27703W        W97518   5.741  36.562   3.719
27704W        W97519  43.302   1.953  13.878
27705W        W97520  10.327  37.954  12.551
27706W        W97521  15.822  22.595  13.498
27707W        W97522  26.524   5.897  10.027
27708W        W97523  44.350  22.026   2.827
27709W        W97524   6.319   8.799   3.288
27710W        W97525  30.627  10.673   0.294
27711W        W97526  38.875  37.560   0.883
27712W        W97527  38.002  28.513   0.921
27713W        W97528  14.124  22.214   0.380
27714W        W97529  36.395  12.236  14.469
27715W        W97530  20.593  21.589  14.765
27716W        W97531  15.205   0.974  11.397
27717W        W97532   2.359  11.773   4.230
27718W        W97533  20.148  23.008  10.470
27719W        W97534  34.549  27.520   0.270
27720W        W97535  11.663  35.557  13.920
27721W        W97536  21.518  41.014  10.954
27722W        W97537   1.761   7.348   1.354
27723W        W97538  42.991  12.691   4.139
27724W        W97539   3.862   1.829  10.473
27725W        W97540  24.016  36.369   5.280
27726W        W97541  16.584  32.978   0.914
27727W        W97542   4.349  26.540  13.860
27728W        W97543  36.057  31.065  13.010
27729W        W97544  31.510  25.063  14.916
27730W        W97545  40.401  19.140   2.845
27731W        W97546   6.366  10.743  10.502
27732W        W97547   3.303  16.272   1.791
27733W        W97548  21.512   2.779   2.231
27734W        W97549  43.453  40.875   1.388
27735W        W97550  17.569   5.774   0.385
27736W        W97551  31.036   4.221   1.888
27737W        W97552  29.056  17.637  12.076
27738W        W97553   9.200  18.180   1.768
27739W        W97554  13.700  25.555   0.814
27740W        W97555  32.138  30.967   2.346
27741W        W97556   4.731  24.018   2.816
27742W        W97557  39.880  12.655  14.926
27743W        W97558  18.146  30.084   4.300
27744W        W97559  37.078  16.251   1.384
27745W        W97560  15.593  31.153   0.925
27746W        W97561   2.462   8.733   5.082
27747W        W97562  19.083  44.877  12.381
27748W        W97563   7.746   2.330  11.943
27749W        W97564  33.460  28.444   1.737
27750W        W97565   4.903  34.927  14.861
27751W        W97566  30.957  24.058  14.824
27752W        W97567   8.170  10.371   2.771
27753W        W97568  43.961  15.706   4.630
27754W        W97569   7.880  20.109   2.786
27755W        W97570  13.347  32.923  12.394
27756W        W97571  10.817  30.055   2.262
27757W        W97572   8.794   9.330   0.452
27758W        W97573  40.463  11.219   3.186
27759W        W97574  40.506  30.973  12.845
27760W        W97575  16.172  15.223  10.610
27761W        W97576  34.006  22.619  12.349
27762W        W97577  35.470   0.494  13.447
27763W        W97578  16.278   9.865  13.511
27764W        W97579  19.214  12.612  12.039
27765W        W97580  33.435   4.229   1.840
27766W        W97581   7.366  33.093   3.182
27767W        W97582   0.863   6.778  11.482
27768W        W97583  35.053  43.462   3.258
27769W        W97584   0.833   0.306   1.372
27770W        W97585  16.110   0.468   4.187
27771W        W97586   4.351  18.199  11.040
27772W        W97587  37.505   9.658   4.668
27773W        W97588  41.991  18.710   4.278
27774W        W97589  35.999  36.974  13.464
27775W        W97590  37.466   0.878   9.964
27776W        W97591  36.490  37.068  13.335
27777W        W97592   4.757  10.632   3.669
27778W        W97593  37.413   2.833  11.450
27779W        W97594  21.676  27.546   4.727
27780W        W97595  33.470  28.075   5.104
27781W        W97596  22.725   3.716  14.860
27782W        W97597  31.499  20.631   0.922
27783W        W97598  14.790  33.921   2.784
27784W        W97599   2.276  18.654   0.808
27785W        W97600   1.739  40.805   1.336
27786W        W97601  19.100  38.952  13.514
27787W        W97602  40.952  15.672  12.354
27788W        W97603  29.652  20.224  10.404
27789W        W97604  43.843   9.154  11.001
27790W        W97605   1.469  11.627  11.522
27791W        W97606  32.509   8.279  14.846
27792W        W97607  20.032  11.692   4.716
27793W        W97608  21.635  13.719   4.190
27794W        W97609   5.720  32.062  14.780
27795W        W97610  39.957  26.089  10.564
27796W        W97611  42.330  36.978  11.493
27797W        W97612   6.299  37.917  10.626
27798W        W97613  16.179  25.662  13.467
27799W        W97614  18.548  22.654  13.984
27800W        W97615  38.368  42.868   1.730
27801W        W97616  24.627  38.047  14.948
27802W        W97617  11.776  17.778  10.514
27803W        W97618  15.725   6.877   3.256
27804W        W97619  30.469   7.694  10.644
27805W        W97620  25.586  34.382   1.888
27806W        W97621  31.038  22.160   0.316
27807W        W97622  35.445  32.053   0.775
27808W        W97623  20.578  20.037  13.007
27809W        W97624  32.026  44.984   2.270
27810W        W97625  42.515  22.742  11.903
27811W        W97626  16.200  13.167   2.691
27812W        W97627  24.645  24.985   2.773
27813W        W97628  18.052  32.001  10.977
27814W        W97629   0.250  19.061  14.005
27815W        W97630  33.387  28.032  11.064
27816W        W97631  32.459  32.120   2.355
27817W        W97632  29.456   1.818  12.346
27818W        W97633  16.103  23.107   3.786
27819W        W97634  32.088  27.590  13.398
27820W        W97635  34.564  32.436  10.566
27821W        W97636  42.282  21.727  14.021
27822W        W97637  15.734  25.175  14.782
27823W        W97638   6.266  41.968  12.472
27824W        W97639  43.515  31.026  12.345
27825W        W97640  21.742  37.358   0.956
27826W        W97641   0.414  20.753   2.711
27827W        W97642  13.141  19.240   0.244
27828W        W97643  38.375   3.735   3.386
27829W        W97644   1.969  42.834  11.979
27830W        W97645  19.779  25.975   0.261
27831W        W97646  42.316  40.500   1.880
27832W        W97647  15.805  35.510   4.247
27833W        W97648  40.437   0.787   1.336
27834W        W97649  16.250   3.809  12.059
27835W        W97650  20.617  30.918   2.355
27836W        W97651  32.937  32.133  11.013
27837W        W97652  11.687  42.367  10.560
27838W        W97653  42.777  38.955   1.357
27839W        W97654   6.301   2.786   4.746
27840W        W97655  35.402  32.593  14.857
27841W        W97656   8.177  31.905   4.341
27842W        W97657  26.076  37.344  13.511
27843W        W97658  43.815  25.153  10.631
27844W        W97659  28.113  36.348   2.711
27845W        W97660  31.039  24.648   2.385
27846W        W97661  12.309  27.574  10.993
27847W        W97662  28.606  31.917  10.965
27848W        W97663  42.947  40.896  13.930
27849W        W97664  12.684  43.832   0.364
27850W        W97665  20.076  39.469  14.427
27851W        W97666   1.836  38.525   4.324
27852W        W97667   4.784  43.425  14.416
27853W        W97668  15.085  11.722  11.933
27854W        W97669  10.196   7.179  10.597
27855W        W97670  11.734  40.833   3.735
27856W        W97671  21.701  27.072  13.941
27857W        W97672  11.161  40.310  13.378
27858W        W97673  34.473  34.386   0.322
27859W        W97674  13.105  19.175   0.867
27860W        W97675  33.058  25.161  13.447
27861W        W97676  22.140   5.333   1.852
27862W        W97677  29.466  40.020  12.395
27863W        W97678  24.637   1.869  14.375
27864W        W97679  13.217  44.982   3.373
27865W        W97680  39.473  28.027   4.599
27866W        W97681  32.447   6.724   4.339
27867W        W97682  10.295  14.296  10.521
27868W        W97683  15.657  29.982  14.420
27869W        W97684   7.417  11.328   2.687
27870W        W97685  21.197  13.157   3.316
27871W        W97686  27.078  13.179   1.779
27872W        W97687  17.615  28.517   0.820
27873W        W97688  15.617  16.746   4.154
27874W        W97689  40.345   3.908   0.355
27875W        W97690  32.395  43.295   2.716
27876W        W97691  27.060  38.981  14.868
27877W        W97692  37.830   6.241   4.710
27878W        W97693  32.555  19.075   1.698
27879W        W97694  10.310   3.307   4.759
27880W        W97695   4.862  20.201   3.257
27881W        W97696  18.255  44.419   4.750
27882W        W97697  27.041  44.924  12.944
27883W        W97698   3.930  24.074  12.887
27884W        W97699  43.850  38.563   0.925
27885W        W97700  35.456  18.703   1.850
27886W        W97701  44.952  28.086  11.993
27887W        W97702  43.954  30.068   2.704
27888W        W97703  18.588  29.602  13.984
27889W        W97704  20.550   1.286   2.663
27890W        W97705  43.393  19.779   0.916
27891W        W97706   4.291   7.329   0.794
27892W        W97707  19.553   9.287  13.989
27893W        W97708  44.815   0.325   0.354
27894W        W97709  20.088  32.618  13.446
27895W        W97710   3.298  20.256  14.327
27896W        W97711  37.947  19.178   0.417
27897W        W97712   1.448   5.360   1.816
27898W        W97713  22.131  21.055   3.716
27899W        W97714  18.668  42.992  13.526
27900W        W97715  29.989  32.011  12.012
27901W        W97716  36.456  10.872   4.155
27902W        W97717  12.293  13.819  12.981
27903W        W97718  23.165  28.025  10.604
27904W        W97719  17.123  37.035   1.908
27905W        W97720  31.932   0.374  12.895
27906W        W97721  11.290  18.090  12.081
27907W        W97722  25.970  26.575  12.019
27908W        W97723   4.717  24.525  10.635
27909W        W97724  11.131  44.309   2.330
27910W        W97725  41.940  40.860  13.522
27911W        W97726   7.249  17.306  13.823
27912W        W97727  19.557   9.748   3.269
27913W        W97728  20.581   5.370   4.303
27914W        W97729  29.936  37.899   1.885
27915W        W97730  44.430   9.291  12.379
27916W        W97731  17.132  14.832  13.532
27917W        W97732  36.559   1.915   4.164
27918W        W97733   8.665   1.955   0.260
27919W        W97734  43.421  26.703  13.411
27920W        W97735  30.428  27.069   2.223
27921W        W97736  33.556  25.060  14.773
27922W        W97737   1.900  26.523  14.894
27923W        W97738  26.482   3.377   5.265
27924W        W97739   9.246  10.777  12.976
27925W        W97740  40.361  27.069   1.887
27926W        W97741  16.585   7.807  11.960
27927W        W97742  16.793  39.828  11.499
27928W        W97743  19.636  32.576   4.287
27929W        W97744   1.262   7.848  11.112
27930W        W97745  18.072  32.412   4.189
27931W        W97746  34.440  34.463   2.344
27932W        W97747  29.644  22.525  14.451
27933W        W97748  44.952  27.502   4.272
27934W        W97749  34.502  31.511  14.772
27935W        W97750  28.089   1.825   4.727
27936W        W97751   2.358   4.829  11.899
27937W        W97752  37.500  44.969  11.035
27938W        W97753   2.934  23.712   2.834
27939W        W97754  44.789  13.326   1.795
27940W        W97755  44.459  35.510  14.968
27941W        W97756  37.026  19.600  11.019
27942W        W97757  20.211  39.409   1.358
27943W        W97758  18.217  40.832  13.973
27944W        W97759   6.922  23.583  11.978
27945W        W97760  28.515  19.775   0.442
27946W        W97761   6.738   8.739   1.343
27947W        W97762  19.695   5.245   0.932
27948W        W97763  43.358   4.304  11.918
27949W        W97764   6.904  28.517   4.782
27950W        W97765  16.130  13.713   2.373
27951W        W97766   2.234  11.252   4.246
27952W        W97767  16.739  33.522   0.331
27953W        W97768   8.713   8.769  12.569
27954W        W97769   6.258  31.019  11.504
27955W        W97770  13.299  33.618   1.789
27956W        W97771  39.053  20.650   3.270
27957W        W97772  27.560  33.926  12.489
27958W        W97773  17.612   1.854  12.557
27959W        W97774  38.065  10.714  11.922
27960W        W97775  22.669   6.372  10.102
27961W        W97776  37.889  41.874   2.324
27962W        W97777   3.456  28.643   3.828
27963W        W97778   3.841  28.080   0.959
27964W        W97779   9.793  33.507  10.944
27965W        W97780  37.026  26.679   4.353
27966W        W97781   0.836  12.613   5.298
27967W        W97782  37.970   3.301   3.355
27968W        W97783  40.823  24.052  14.413
27969W        W97784  25.688  26.974   3.643
27970W        W97785  44.781  17.682  10.488
27971W        W97786  13.809  30.041  11.478
27972W        W97787   7.210  24.072  10.584
27973W        W97788  35.074  44.953  12.968
27974W        W97789  13.736  24.483  14.761
27975W        W97790  23.507  39.844  12.003
27976W        W97791   4.907  42.386   0.437
27977W        W97792  26.016  26.162   0.945
27978W        W97793  24.074  12.797  11.377
27979W        W97794  33.519  35.455  11.385
27980W        W97795   5.358   6.864  14.863
27981W        W97796  40.862  38.405  11.588
27982W        W97797   2.836  30.953   0.254
27983W        W97798   2.830   2.464  10.993
27984W        W97799  15.730  32.073   3.751
27985W        W97800  42.816   4.781  13.316
27986W        W97801  12.809  19.699  13.989
27987W        W97802  29.102  23.181  14.013
27988W        W97803  42.793  11.642  11.553
27989W        W97804  39.898   6.902   3.712
27990W        W97805   8.787  41.335  10.943
27991W        W97806   6.906  28.491  11.959
27992W        W97807  34.967  10.298  11.496
27993W        W97808  37.953  32.527  11.103
27994W        W97809   5.270  14.823  11.039
27995W        W97810  32.566  34.071  14.908
27996W        W97811  39.962  27.582  11.977
27997W        W97812  38.985  37.478  11.453
27998W        W97813   2.367  44.811  12.959
27999W        W97814  24.983  33.569  13.025
28000W        W97815   6.409  38.052   0.389
28001W        W97816  11.173  19.183   4.175
28002W        W97817  29.581  26.207  11.888
28003W        W97818  42.843   9.315  13.015
28004W        W97819  32.391  11.365   0.294
28005W        W97820  34.072  40.442  12.852
28006W        W97821  31.418  26.472  14.826
28007W        W97822  16.169   5.195   4.715
28008W        W97823   9.190  12.724   5.245
28009W        W97824  15.251  30.052  12.533
28010W        W97825  28.080   8.248   0.851
28011W        W97826  25.692  15.114   3.337
28012W        W97827  32.399   2.248   2.678
28013W        W97828  30.604  14.135   4.799
28014W        W97829  30.514   5.392   4.778
28015W        W97830  33.984  10.148  10.988
28016W        W97831   7.803  43.791   4.807
28017W        W97832  42.360  15.217  10.107
28018W        W97833  10.711  20.122  12.858
28019W        W97834  38.421  10.280  11.875
28020W        W97835  27.980  10.668  10.485
28021W        W97836  20.533  26.516  13.461
28022W        W97837  43.302  37.424  14.291
28023W        W97838  33.457   4.844  12.845
28024W        W97839   3.922  15.796   2.855
28025W        W97840  12.204  21.188  13.937
28026W        W97841  30.520  29.166  10.991
28027W        W97842  24.165  24.213  13.545
28028W        W97843  25.191  31.645  14.353
28029W        W97844  24.230  39.812  14.029
28030W        W97845   3.453   6.188  12.346
28031W        W97846   0.845  36.420  11.090
28032W        W97847  29.661  40.975  10.536
28033W        W97848  39.945  24.601   4.690
28034W        W97849  29.502  28.130   2.212
28035W        W97850  33.583  42.002  14.852
28036W        W97851  13.613  23.510  13.033
28037W        W97852  19.085  17.219   4.782
28038W        W97853  44.393  21.239  10.457
28039W        W97854   7.415  13.131   3.229
28040W        W97855  13.184  25.173   1.383
28041W        W97856  12.194  42.982  10.555
28042W        W97857  35.087  16.077   2.797
28043W        W97858   6.224  37.351   4.114
28044W        W97859  11.813  30.426   2.844
28045W        W97860  22.553  16.722  13.432
28046W        W97861  33.595  21.220   2.280
28047W        W97862  18.218  18.055   2.229
28048W        W97863  41.798  13.252  11.486
28049W        W97864   7.854  34.378   3.281
28050W        W97865  27.587   7.755   1.848
28051W        W97866   3.738  17.560   0.775
28052W        W97867  35.042  15.089   1.277
28053W        W97868   1.768  26.524  11.477
28054W        W97869  12.205   6.189   0.939
28055W        W97870  27.057   6.754  13.061
28056W        W97871  25.491  31.488   3.647
28057W        W97872  31.025  19.281   1.414
28058W        W97873  10.821  25.472   4.282
28059W        W97874  42.339  11.210   0.336
28060W        W97875  37.424  10.788  14.286
28061W        W97876   0.350  25.051   4.181
28062W        W97877  34.118  23.153   2.264
28063W        W97878  44.913   2.965   1.443
28064W        W97879  24.060  30.053  13.849
28065W        W97880  20.725  28.603  13.949
28066W        W97881  20.538  15.722  11.973
28067W        W97882  39.404  31.562   2.859
28068W        W97883  25.642  33.952  12.361
28069W        W97884  36.379  30.467   5.214
28070W        W97885  11.203  10.655  13.941
28071W        W97886  10.663  34.437   1.352
28072W        W97887  44.827  14.596   2.748
28073W        W97888  35.492  35.954   3.249
28074W        W97889   0.810   6.222  13.394
28075W        W97890  30.537  24.129   3.303
28076W        W97891   8.249  33.616   3.218
28077W        W97892  32.585  23.164   1.817
28078W        W97893  37.572  38.423  10.577
28079W        W97894  34.527  18.670  13.508
28080W        W97895  33.974   3.910  14.275
28081W        W97896  10.830  15.679   2.244
28082W        W97897  23.229  26.600  10.591
28083W        W97898  11.779  29.575  10.526
28084W        W97899  15.790  19.159   0.409
28085W        W97900  21.648   0.471  14.377
28086W        W97901  43.841  20.692   4.684
28087W        W97902  11.318  19.149   9.993
28088W        W97903  40.971  18.783   2.880
28089W        W97904  22.730  40.023  12.433
28090W        W97905  34.589  16.293   4.301
28091W        W97906  41.901  42.006   1.288
28092W        W97907   6.218  20.254   0.794
28093W        W97908   8.327  22.152  11.009
28094W        W97909  33.451  10.664   4.597
28095W        W97910   1.309  43.353  13.396
28096W        W97911  33.976  34.015  13.040
28097W        W97912   7.833   0.786   0.883
28098W        W97913  44.974   6.777  14.499
28099W        W97914  31.520   0.282  12.993
28100W        W97915  15.763  10.635  13.359
28101W        W97916  36.501  21.084   4.347
28102W        W97917  32.524   8.310   1.722
28103W        W97918   3.928  16.261   4.115
28104W        W97919  18.623  38.415  12.922
28105W        W97920  41.836   8.344   1.846
28106W        W97921   2.916  33.453   4.692
28107W        W97922  39.438  36.022  13.025
28108W        W97923  17.260   1.812   3.675
28109W        W97924  42.798  32.518   2.222
28110W        W97925  43.913   6.857  11.546
28111W        W97926  42.864  10.183   0.304
28112W        W97927  18.110  23.170  13.019
28113W        W97928  23.030  10.793   2.791
28114W        W97929  28.465  40.322  14.386
28115W        W97930  33.091  12.707  11.989
28116W        W97931  21.628   5.893  13.343
28117W        W97932  11.811  18.154   4.322
28118W        W97933  33.523  36.440  14.494
28119W        W97934   3.948  19.726   0.265
28120W        W97935  32.939   9.287  10.538
28121W        W97936  18.630  33.546  11.473
28122W        W97937  44.995  17.594  14.842
28123W        W97938  26.504   4.718   2.288
28124W        W97939  16.115  38.017  11.426
28125W        W97940  24.581  34.042   0.304
28126W        W97941  24.640   3.403  14.874
28127W        W97942   3.782  41.909   1.901
28128W        W97943   7.727  38.450  13.907
28129W        W97944   6.243  13.768  14.425
28130W        W97945  43.461  40.851  10.465
28131W        W97946  42.520  44.940   1.269
28132W        W97947  21.040  10.778  11.389
28133W        W97948  34.490  26.191   1.698
28134W        W97949   3.225  36.005  13.870
28135W        W97950  12.616  23.707  10.526
28136W        W97951  23.172  33.952   4.145
28137W        W97952  11.667  28.084   0.819
28138W        W97953  24.025  30.943   1.286
28139W        W97954  40.848  38.428   2.248
28140W        W97955  29.655   0.337   9.924
28141W        W97956  43.406  19.087   4.272
28142W        W97957  32.938  10.847  13.310
28143W        W97958   9.150  19.211  14.403
28144W        W97959   7.815  14.192   2.772
28145W        W97960  10.304  17.651  14.936
28146W        W97961  27.471  39.390   4.631
28147W        W97962  14.739  29.926  12.353
28148W        W97963   6.696  35.459  11.899
28149W        W97964  21.208  25.585  11.590
28150W        W97965   9.773  29.959  13.420
28151W        W97966  11.171  10.214   2.699
28152W        W97967  16.690  43.465  11.102
28153W        W97968  37.964  36.408   0.285
28154W        W97969  33.016  16.090  14.475
28155W        W97970  19.077   7.233  11.988
28156W        W97971  22.644  15.789  12.553
28157W        W97972  30.156   6.683   1.243
28158W        W97973   9.858  22.084   0.312
28159W        W97974  17.061  23.603   0.327
28160W        W97975  34.969  37.513   2.184
28161W        W97976   4.338   6.778   2.878
28162W        W97977  24.578  19.761  10.576
28163W        W97978   8.346   0.803   0.364
28164W        W97979  22.135  43.015  13.446
28165W        W97980  17.736  42.501   0.266
28166W        W97981  32.626  30.458   1.725
28167W        W97982   3.754   9.749  10.892
28168W        W97983   4.259  25.206   4.344
28169W        W97984  21.690  22.743  11.517
28170W        W97985  26.165  32.435   3.344
28171W        W97986  28.577  10.673  12.999
28172W        W97987  22.583  27.012   0.370
28173W        W97988   5.727  36.505   2.780
28174W        W97989   8.322  25.076   2.863
28175W        W97990  44.920  30.150   1.358
28176W        W97991   2.272  42.969  10.520
28177W        W97992  28.019  28.521   2.692
28178W        W97993  39.939  22.025  14.419
28179W        W97994  32.106  26.107   0.366
28180W        W97995  38.856  13.682  11.009
28181W        W97996   3.891   0.824  12.007
28182W        W97997   6.796  31.485  11.511
28183W        W97998  15.083  44.831   3.793
28184W        W97999  37.342  15.730  12.504
28185W        W98000  28.045  12.325   1.290
28186W        W98001  39.377  35.859  11.080
28187W        W98002  30.530  10.791  13.058
28188W        W98003  38.075  33.984   4.652
28189W        W98004  16.675  43.930   2.245
28190W        W98005  22.628  30.555   4.828
28191W        W98006  32.949  24.545   1.304
28192W        W98007  35.548  32.044  14.764
28193W        W98008  40.500  23.111  12.974
28194W        W98009   8.746  23.048   0.932
28195W        W98010  36.511  13.316  13.805
28196W        W98011  11.808   8.384   3.699
28197W        W98012  22.180  21.588  13.426
28198W        W98013  19.755  39.019   4.344
28199W        W98014  28.564  28.600   0.456
28200W        W98015  15.651   5.204  11.092
28201W        W98016  19.614  24.030  11.878
28202W        W98017   4.753  31.509   0.810
28203W        W98018  18.069  33.041  14.993
28204W        W98019   2.964   3.436  10.598
28205W        W98020  12.846   2.450   3.267
28206W        W98021  24.578  30.491  13.051
28207W        W98022  27.519  25.516   0.931
28208W        W98023   7.886  41.291  11.953
28209W        W98024  12.767   5.762  12.344
28210W        W98025  43.820  11.834   1.340
28211W        W98026  23.086   3.411   3.705
28212W        W98027  40.936  40.505   0.432
28213W        W98028   9.758  10.695   3.782
28214W        W98029  44.455  26.999   1.399
28215W        W98030  16.119  33.489   0.851
28216W        W98031   7.248  37.930   1.257
28217W        W98032  10.827  19.723   2.700
28218W        W98033   1.327   3.252   2.790
28219W        W98034  36.004  26.128   3.645
28220W        W98035  32.934  29.565  12.927
28221W        W98036  21.154  43.765  12.845
28222W        W98037  28.038  33.129  12.907
28223W        W98038  27.050   6.194  12.825
28224W        W98039  38.369   5.819  10.489
28225W        W98040  30.050  24.545  14.962
28226W        W98041  22.707  20.258  14.356
28227W        W98042  18.087  17.608   4.259
28228W        W98043  12.828   8.706  11.382
28229W        W98044  21.175   7.717  12.965
28230W        W98045  21.067  33.880   4.604
28231W        W98046  33.098  10.821  11.028
28232W        W98047  18.061  32.004  13.322
28233W        W98048  19.568   2.844  11.458
28234W        W98049  12.661  34.609   0.820
28235W        W98050  19.733  32.099   1.378
28236W        W98051  15.087  41.470   4.666
28237W        W98052   4.939  29.541  11.501
28238W        W98053  30.475  22.604   2.293
28239W        W98054  37.962  33.904   3.251
28240W        W98055  35.371  44.912  10.570
28241W        W98056   0.768  13.246  10.434
28242W        W98057  37.494   0.338   2.367
28243W        W98058  15.725  40.543  11.103
28244W        W98059  34.395  16.749   4.282
28245W        W98060  26.610  40.858   1.832
28246W        W98061  19.722  41.385  12.372
28247W        W98062  18.252  32.501   4.684
28248W        W98063  30.537  11.339   4.688
28249W        W98064  13.675   1.257  13.011
28250W        W98065  10.317  35.435  12.963
28251W        W98066  25.183  34.897  10.478
28252W        W98067  14.193  16.153  13.873
28253W        W98068  13.275  30.464  11.466
28254W        W98069  15.741  10.651   1.334
28255W        W98070  36.532   5.726   9.942
28256W        W98071  18.295  20.739  10.991
28257W        W98072  42.514  29.455   1.722
28258W        W98073  27.638   5.907   4.197
28259W        W98074  27.947   5.426  13.344
28260W        W98075  22.055  38.075   3.771
28261W        W98076   9.713  13.317  11.082
28262W        W98077  31.016   4.736  12.871
28263W        W98078  17.694  31.006  10.441
28264W        W98079  11.289   8.807  14.458
28265W        W98080   5.922  40.470   2.744
28266W        W98081  33.895   4.260   2.829
28267W        W98082   1.956  13.637   2.860
28268W        W98083  21.658  25.518  12.898
28269W        W98084  19.128   2.331   1.743
28270W        W98085  13.724  10.343   2.331
28271W        W98086   6.315  10.671   3.176
28272W        W98087  25.989  43.016  13.810
28273W        W98088  19.170  33.558  14.835
28274W        W98089   9.278  13.611   0.951
28275W        W98090  31.142   0.764  11.513
28276W        W98091  33.956  32.563  13.429
28277W        W98092  32.042  13.716   4.604
28278W        W98093  25.049   0.369  11.585
28279W        W98094   8.256  14.149   3.666
28280W        W98095  33.461  11.341  13.326
28281W        W98096  33.127  39.842  10.614
28282W        W98097  13.633  12.300   4.776
28283W        W98098   5.237   8.715  12.986
28284W        W98099  35.045  31.406   1.311
28285W        W98100  19.677   7.210  14.017
28286W        W98101   2.807  44.270  10.548
28287W        W98102  27.039  12.289  14.471
28288W        W98103  32.401   5.239   4.717
28289W        W98104  41.861  36.028   4.619
28290W        W98105  37.831  38.941  11.605
28291W        W98106  44.375  16.712   0.955
28292W        W98107  35.953  15.206  14.311
28293W        W98108   5.855   9.811   3.377
28294W        W98109  15.158   0.403   0.479
28295W        W98110  28.445  38.041  12.024
28296W        W98111  20.686  33.091  13.924
28297W        W98112   7.909  29.175  14.966
28298W        W98113  37.446  15.091   2.688
28299W        W98114  39.933   3.874  13.978
28300W        W98115   9.314  43.891  11.027
28301W        W98116   7.379  34.902  12.577
28302W        W98117   8.837  24.127   3.691
28303W        W98118  40.453  29.117  14.018
28304W        W98119  10.808  44.361  14.993
28305W        W98120  24.725  21.576  14.297
28306W        W98121  21.264  44.888   4.656
28307W        W98122  25.212  35.981  14.333
28308W        W98123  11.633  17.223   5.214
28309W        W98124  31.546  41.499  10.611
28310W        W98125  15.185  42.784  14.894
28311W        W98126  10.146   4.844  11.024
28312W        W98127   8.716   4.850   3.830
28313W        W98128  16.090  29.494   2.664
28314W        W98129  19.130  42.933   2.682
28315W        W98130   3.895  22.707  11.084
28316W        W98131   4.804  34.395   2.706
28317W        W98132  18.236   7.815   1.269
28318W        W98133  42.027  17.185  11.531
28319W        W98134  25.539  40.390   9.963
28320W        W98135   0.744  17.793   2.206
28321W        W98136   5.286  43.927   2.662
28322W        W98137   9.153  19.192   0.913
28323W        W98138  19.065   4.942   1.727
28324W        W98139  34.613  30.546   0.429
28325W        W98140  44.005  27.986  11.522
28326W        W98141  10.345  34.587   4.673
28327W        W98142  35.869   6.230   2.739
28328W        W98143  44.835   1.254   3.216
28329W        W98144  22.563  22.128   3.274
28330W        W98145  13.599   9.393  11.405
28331W        W98146  33.091  28.977  14.457
28332W        W98147   9.295  16.153  10.890
28333W        W98148  24.711  41.952   4.296
28334W        W98149  23.527   0.901   2.826
28335W        W98150  42.844  34.872   0.742
28336W        W98151   5.784  17.724  12.073
28337W        W98152  23.503  30.153   1.848
28338W        W98153  42.350   0.249   0.254
28339W        W98154  19.218  26.056   2.284
28340W        W98155  19.101  18.218   2.395
28341W        W98156   0.796  32.119   1.819
28342W        W98157  19.179  42.950   5.152
28343W        W98158   4.918  20.031  14.929
28344W        W98159  33.434  38.072  11.068
28345W        W98160   1.295  10.711   4.819
28346W        W98161   2.821  19.105  12.991
28347W        W98162   4.923  14.828  13.355
28348W        W98163  14.746  25.092  12.016
28349W        W98164   4.437  32.052   0.257
28350W        W98165   2.838  41.851  13.385
28351W        W98166  20.251   4.862   0.868
28352W        W98167  31.648  33.392   2.709
28353W        W98168   6.300  42.822  12.054
28354W        W98169  10.682   5.331  12.923
28355W        W98170  41.390  37.059  13.985
28356W        W98171   0.410  16.793  10.946
28357W        W98172   7.807  24.710   1.368
28358W        W98173   0.822   3.286   1.447
28359W        W98174   2.743  39.465   0.775
28360W        W98175  19.540  29.080   4.234
28361W        W98176   4.322  36.071  12.371
28362W        W98177   9.833   2.432  13.537
28363W        W98178  32.958  34.073  14.309
28364W        W98179   2.271  40.878  10.516
28365W        W98180  31.575  32.105   1.901
28366W        W98181  14.312  35.915   4.344
28367W        W98182  37.981   6.289   2.389
28368W        W98183  28.998   0.397  14.482
28369W        W98184   8.402   5.737   3.813
28370W        W98185  18.726   4.915  10.003
28371W        W98186  29.575   6.185  13.915
28372W        W98187  11.164  16.291   1.285
28373W        W98188  25.163  19.623   3.284
28374W        W98189   3.303  19.280   1.400
28375W        W98190   1.269  32.009   1.290
28376W        W98191  33.558  25.082  10.905
28377W        W98192  34.877  42.815  10.469
28378W        W98193  41.383   0.478   1.340
28379W        W98194  40.323  15.279   2.267
28380W        W98195   1.970  19.042   4.829
28381W        W98196  11.714  38.919  12.946
28382W        W98197  30.532  15.197  11.375
28383W        W98198  31.490  17.780   0.743
28384W        W98199  43.770  25.023   2.401
28385W        W98200  38.927  29.147   1.771
28386W        W98201  31.648  18.547  11.882
28387W        W98202  24.601  13.305   3.358
28388W        W98203  32.119  31.153  11.059
28389W        W98204  27.648   4.849  11.493
28390W        W98205  20.619  15.673  10.910
28391W        W98206  20.241  20.227   1.234
28392W        W98207  33.081   8.819  12.063
28393W        W98208  26.582  22.709   2.717
28394W        W98209  24.121  41.948  13.443
28395W        W98210  42.914  32.523   0.849
28396W        W98211  40.897   7.228  14.030
28397W        W98212   7.179  21.244   4.333
28398W        W98213  29.583  21.532  13.965
28399W        W98214  39.981  17.601  12.468
28400W        W98215   9.847  26.063   0.377
28401W        W98216  35.524  34.425  11.565
28402W        W98217   9.848  31.458  11.979
28403W        W98218  25.627  22.719  10.998
28404W        W98219   4.266  36.950   1.222
28405W        W98220  14.303  30.974   4.835
28406W        W98221  27.054  15.169  11.901
28407W        W98222   2.959  17.692   0.462
28408W        W98223  10.240  28.473   2.192
28409W        W98224  15.253  22.559  11.047
28410W        W98225  25.569   6.894  11.091
28411W        W98226  15.808  14.828   3.312
28412W        W98227  18.657  24.079   4.114
28413W        W98228  11.145   1.358  14.844
28414W        W98229  35.403  41.929   2.386
28415W        W98230  29.661   6.814   3.352
28416W        W98231   9.655  31.995  12.367
28417W        W98232  31.419  12.250  14.421
28418W        W98233   3.289  19.235  12.913
28419W        W98234  27.192  22.208  14.382
28420W        W98235  39.979  20.587   1.425
28421W        W98236   9.666  30.506  11.953
28422W        W98237  10.153  16.179  14.334
28423W        W98238   8.783  27.545   1.406
28424W        W98239   6.689   4.728   1.922
28425W        W98240  17.752  25.045   3.243
28426W        W98241  32.421  37.045  12.064
28427W        W98242  39.450  25.620   2.246
28428W        W98243   0.315  27.967  10.637
28429W        W98244  32.012  27.986   4.214
28430W        W98245   9.164  28.154  12.970
28431W        W98246   2.885  35.984   4.121
28432W        W98247  43.894   4.208   4.137
28433W        W98248  23.709  28.093  14.298
28434W        W98249  23.179  25.552   1.878
28435W        W98250  38.053  28.491  13.368
28436W        W98251  33.885  14.243   1.800
28437W        W98252   5.316   2.327  13.049
28438W        W98253  23.040  17.270  13.799
28439W        W98254   3.450   7.770  13.544
28440W        W98255  11.655  19.140   5.607
28441W        W98256   6.251  35.988  13.902
28442W        W98257   4.270  25.577  13.460
28443W        W98258  30.034   0.778   0.390
28444W        W98259  22.609  18.181  12.456
28445W        W98260  42.926  38.414   4.261
28446W        W98261  11.280   5.297  11.897
28447W        W98262  35.000  11.196  13.062
28448W        W98263  20.544  44.944   3.818
28449W        W98264   7.757  35.862  10.122
28450W        W98265  31.590  28.439   4.777
28451W        W98266  12.207  15.175   0.912
28452W        W98267  11.312  33.067  14.401
28453W        W98268  14.323  16.586   2.665
28454W        W98269  21.235  14.694   2.827
28455W        W98270  37.026  23.183  10.499
28456W        W98271  21.557  44.788  12.078
28457W        W98272  14.826  42.451  13.855
28458W        W98273  17.575  43.007   1.340
28459W        W98274   9.724  11.664  11.582
28460W        W98275  29.012  36.933   0.892
28461W        W98276  20.074   8.211  10.887
28462W        W98277  40.981   2.855  12.536
28463W        W98278  11.178  36.436   1.318
28464W        W98279  33.598  33.001   0.356
28465W        W98280  35.581  24.577  11.513
28466W        W98281  40.477  13.142   3.360
28467W        W98282  32.038  12.215  14.793
28468W        W98283   7.313  31.042   2.241
28469W        W98284  18.284   5.206   0.453
28470W        W98285  28.665  18.175  14.003
28471W        W98286  39.015   0.310   2.270
28472W        W98287  13.685  21.611   1.878
28473W        W98288  29.539   8.275   0.907
28474W        W98289  41.529   0.427   1.824
28475W        W98290  17.617   7.890   2.804
28476W        W98291  40.923  30.419   2.378
28477W        W98292  39.423  30.949   1.886
28478W        W98293  22.045  30.072  12.414
28479W        W98294  39.013  33.077   3.869
28480W        W98295   7.832  31.103   3.835
28481W        W98296   7.803  41.506  10.447
28482W        W98297  29.573  26.994  13.014
28483W        W98298  18.623  19.099   4.214
28484W        W98299   0.321  25.023  11.433
28485W        W98300  15.769   3.771   0.340
28486W        W98301  17.114   2.764   4.162
28487W        W98302  17.231  42.799  10.088
28488W        W98303  31.945  10.697   3.375
28489W        W98304  20.065  16.708   2.868
28490W        W98305  43.376   1.973  12.912
28491W        W98306  39.504  33.621  10.035
28492W        W98307  43.308   7.296   4.767
28493W        W98308   5.705  40.395   3.244
28494W        W98309  11.777   7.350  13.325
28495W        W98310   9.748  24.033  13.309
28496W        W98311  30.586  37.981  12.974
28497W        W98312  40.022  36.092  13.892
28498W        W98313  18.130  10.359  10.425
28499W        W98314   8.183   2.720   4.780
28500W        W98315   3.217  14.337   3.316
28501W        W98316   6.370  17.155   9.957
28502W        W98317  38.517   6.308   1.890
28503W        W98318  24.132  33.540  11.973
28504W        W98319  24.035  31.572  11.107
28505W        W98320   7.374  28.596  10.534
28506W        W98321   1.349  32.068  11.380
28507W        W98322  43.379   0.895   4.207
28508W        W98323  19.185  42.403  12.395
28509W        W98324  39.337  44.755  14.960
28510W        W98325  15.146  30.153  10.951
28511W        W98326  43.934  41.866  10.903
28512W        W98327  32.625   9.308  12.416
28513W        W98328  17.592  24.204  14.963
28514W        W98329  39.348   7.733  12.406
28515W        W98330  14.675  37.385   4.262
28516W        W98331   1.803   8.160   3.822
28517W        W98332   1.307  24.211  13.985
28518W        W98333   6.922   6.910   3.202
28519W        W98334  15.773  30.503  14.396
28520W        W98335  39.041   6.776  13.964
28521W        W98336  20.052  38.500  14.909
28522W        W98337  28.454  13.212   1.883
28523W        W98338  28.996  23.658   3.229
28524W        W98339  38.497  27.184   4.689
28525W        W98340  36.067   2.426   2.856
28526W        W98341  21.648  31.122   4.254
28527W        W98342   3.919  11.733   2.289
28528W        W98343   4.770  20.605   1.839
28529W        W98344   3.334   6.262   2.669
28530W        W98345   0.792  27.581   2.669
28531W        W98346  23.023  31.087   1.823
28532W        W98347  16.217  24.060  14.460
28533W        W98348  26.976   6.306  11.379
28534W        W98349  29.161  24.027  13.442
28535W        W98350  24.581  38.074   5.321
28536W        W98351   6.857   9.778   1.357
28537W        W98352  26.012  26.688   0.394
28538W        W98353  22.075  31.021  10.955
28539W        W98354  42.418   1.946   0.243
28540W        W98355  38.942  43.891   2.867
28541W        W98356  10.725  11.627   1.769
28542W        W98357  19.055  38.411  13.057
28543W        W98358  16.185  31.040  10.559
28544W        W98359  34.954   4.396  10.563
28545W        W98360  18.722   7.355  12.455
28546W        W98361  24.978  24.545   4.178
28547W        W98362  43.893  11.689   3.641
28548W        W98363  27.545  37.067   2.783
28549W        W98364  10.260   4.750   0.334
28550W        W98365  42.305  44.767  13.328
28551W        W98366   7.264   5.881   0.961
28552W        W98367  24.077  16.293   2.344
28553W        W98368  11.752  25.613  11.585
28554W        W98369  34.977  19.127  14.312
28555W        W98370   5.371  42.857   1.264
28556W        W98371  35.007  10.194   3.680
28557W        W98372  35.571  43.928  10.525
28558W        W98373  23.608  14.781   1.312
28559W        W98374   4.838  39.842   1.715
28560W        W98375  42.477   2.752   0.746
28561W        W98376  27.151   0.927  10.914
28562W        W98377   7.870  37.448   1.898
28563W        W98378   5.233  19.597  13.843
28564W        W98379  33.965  19.164   4.606
28565W        W98380  15.326  28.464  13.490
28566W        W98381  25.113  40.015   3.206
28567W        W98382  27.140  27.094  12.856
28568W        W98383  18.726  41.848  12.351
28569W        W98384  24.659   4.304   3.284
28570W        W98385   9.774  10.345  10.493
28571W        W98386   7.369  28.142  14.981
28572W        W98387  41.981  22.632   5.321
28573W        W98388  21.260  40.862  11.939
28574W        W98389  12.835  42.962  12.892
28575W        W98390  10.142  13.332   5.306
28576W        W98391  19.677  16.127  14.007
28577W        W98392  40.945  43.971  13.980
28578W        W98393  29.622   5.746   0.892
28579W        W98394   7.263  22.205  13.889
28580W        W98395  15.102  19.743   2.247
28581W        W98396  34.477  21.152  12.541
28582W        W98397  37.985   0.970   4.210
28583W        W98398  32.480  10.653   3.214
28584W        W98399  37.421   7.344  10.418
28585W        W98400  23.999  31.634  14.801
28586W        W98401   0.961  26.189  11.532
28587W        W98402  24.071  31.938  14.480
28588W        W98403  40.842   9.204  11.966
28589W        W98404   9.153  41.941   1.445
28590W        W98405   2.262  24.517   1.868
28591W        W98406  22.746  20.119   1.338
28592W        W98407  20.184   8.277  14.846
28593W        W98408   0.790  38.819   1.849
28594W        W98409  34.036  42.009  13.397
28595W        W98410  40.881  36.955  13.868
28596W        W98411  19.165   0.927   2.275
28597W        W98412  33.953   2.428  14.994
28598W        W98413  27.579   3.854   0.772
28599W        W98414   9.714   0.256   3.298
28600W        W98415  27.147   7.372  12.034
28601W        W98416  21.512  36.435   3.855
28602W        W98417  27.947  19.137   0.303
28603W        W98418  36.981  43.954   1.878
28604W        W98419  20.193  25.608  14.388
28605W        W98420  34.946   1.830  10.521
28606W        W98421  37.900  31.022   4.714
28607W        W98422   8.835  29.594  12.875
28608W        W98423  18.578  24.641  10.915
28609W        W98424   9.756   9.246  13.486
28610W        W98425  38.424  35.883  10.590
28611W        W98426   7.780  35.373   2.704
28612W        W98427  28.651  26.688  12.938
28613W        W98428  40.896  14.269  14.313
28614W        W98429  15.231   6.396   4.659
28615W        W98430  10.730  27.489   3.846
28616W        W98431  26.043  32.607   2.280
28617W        W98432  10.715   8.395   3.773
28618W        W98433  27.481  43.274   2.262
28619W        W98434  21.247  18.281   3.383
28620W        W98435  28.538   1.746  14.482
28621W        W98436   2.379  17.756   1.891
28622W        W98437  17.582  30.986   3.810
28623W        W98438  13.721  17.087   4.326
28624W        W98439  43.810  44.905  13.954
28625W        W98440   4.424  28.062   1.930
28626W        W98441  38.354  35.891   0.912
28627W        W98442  39.513   4.847  14.024
28628W        W98443  12.246  38.890   4.776
28629W        W98444  43.379   7.730  12.028
28630W        W98445  24.214  41.372  10.645
28631W        W98446  13.630  42.979  10.888
28632W        W98447  20.672   5.266   2.298
28633W        W98448  16.708  24.157  11.545
28634W        W98449  12.116   5.706   2.821
28635W        W98450  14.172  42.797  14.839
28636W        W98451  27.006  30.598  13.516
28637W        W98452   9.366   1.265   3.787
28638W        W98453  41.920  43.847   2.418
28639W        W98454  14.224  38.453   4.237
28640W        W98455  44.795   9.822   3.332
28641W        W98456  33.386  15.655  12.047
28642W        W98457  27.628   3.232   4.657
28643W        W98458   5.710   7.770   0.944
28644W        W98459  32.431  37.508  10.585
28645W        W98460  38.503  17.758   2.207
28646W        W98461  44.949   5.749  14.809
28647W        W98462  34.992  38.539   1.279
28648W        W98463   8.895  42.944  13.511
28649W        W98464  17.210   9.252   1.386
28650W        W98465  28.659  43.782  11.442
28651W        W98466  29.054  31.549  12.851
28652W        W98467  13.781  43.439   2.785
28653W        W98468  20.594  16.770   3.264
28654W        W98469  15.117   9.270  12.428
28655W        W98470   4.842  35.972  10.572
28656W        W98471   2.834  29.473  11.601
28657W        W98472  16.710   1.278  14.899
28658W        W98473  13.233  22.552   4.600
28659W        W98474   0.980  32.978  14.821
28660W        W98475   0.402  41.006   3.254
28661W        W98476  19.285  34.491  14.828
28662W        W98477  44.955  42.384  13.425
28663W        W98478  19.570  17.789  13.383
28664W        W98479  41.979  10.254   2.662
28665W        W98480   1.315   7.870  10.557
28666W        W98481  14.823  44.809   4.322
28667W        W98482  30.023  21.090  13.338
28668W        W98483  11.786  38.375  11.501
28669W        W98484  26.076  13.659  13.318
28670W        W98485  21.539  43.274  14.313
28671W        W98486  21.565   7.253  13.041
28672W        W98487  18.761  29.017   0.389
28673W        W98488  42.896  30.569  14.403
28674W        W98489  13.273  26.999  13.008
28675W        W98490  16.793  26.980  13.843
28676W        W98491   9.158  37.972  11.862
28677W        W98492  43.772  36.024  12.873
28678W        W98493   8.809  23.505   1.403
28679W        W98494  11.183  33.036  11.107
28680W        W98495  32.506  17.801  11.942
28681W        W98496  40.878  27.002   3.674
28682W        W98497  16.300  39.369  10.596
28683W        W98498   0.370  18.242   1.880
28684W        W98499  37.507   3.264  12.505
28685W        W98500  28.657  10.259   3.335
28686W        W98501  40.478  20.125   2.415
28687W        W98502  42.320   3.911   4.338
28688W        W98503   0.829  35.372   3.858
28689W        W98504  30.040  32.036  13.053
28690W        W98505  10.190  10.361   3.771
28691W        W98506   1.815   0.827   4.780
28692W        W98507  42.022   1.762   3.790
28693W        W98508  25.665  35.385   0.279
28694W        W98509  37.996   6.297  12.980
28695W        W98510  14.813  17.137   2.756
28696W        W98511  17.242  16.638  14.817
28697W        W98512  20.091  15.721  14.505
28698W        W98513  38.070  19.180   1.771
28699W        W98514  28.113  30.521   1.332
28700W        W98515  37.465  38.449   2.694
28701W        W98516   6.386  44.844  13.321
28702W        W98517  23.672  35.523   0.276
28703W        W98518  31.145  29.928   4.795
28704W        W98519  12.245  25.655   2.675
28705W        W98520  17.757  14.649  14.444
28706W        W98521  33.513   7.293   3.268
28707W        W98522  36.973  42.440  12.526
28708W        W98523   6.205  40.829   3.756
28709W        W98524  35.368   5.728  13.885
28710W        W98525  42.018  24.214  13.516
28711W        W98526  25.511   5.807  14.492
28712W        W98527  42.293  20.076   1.922
28713W        W98528  21.694   4.777   4.340
28714W        W98529  37.477  23.703  12.349
28715W        W98530   9.366  33.993   4.658
28716W        W98531   8.860   2.273   0.887
28717W        W98532  39.888  43.295  12.958
28718W        W98533   6.900  34.092  14.953
28719W        W98534   1.322  33.882   4.293
28720W        W98535  13.751  20.221   2.844
28721W        W98536  33.415  22.715   5.246
28722W        W98537   9.878  27.982  14.343
28723W        W98538   5.835  13.265  10.958
28724W        W98539  38.453  42.902  12.497
28725W        W98540   3.822  25.653   3.274
28726W        W98541   8.811  31.033  11.414
28727W        W98542  38.064  40.799  14.392
28728W        W98543   1.364  21.156  13.345
28729W        W98544  27.685  17.582  13.340
28730W        W98545   8.853  13.716  14.858
28731W        W98546  43.897  10.665  11.940
28732W        W98547   8.856  43.875  10.468
28733W        W98548  14.628  28.067   3.665
28734W        W98549  14.174   1.360   0.291
28735W        W98550  12.797  29.482  11.107
28736W        W98551  37.367   4.802   3.824
28737W        W98552  33.061   1.262  12.841
28738W        W98553  36.489  11.767   4.628
28739W        W98554  42.846   9.747   0.761
28740W        W98555   5.808  12.624  10.924
28741W        W98556  16.162  19.046   0.448
28742W        W98557  19.134  23.499  11.376
28743W        W98558   6.725  14.176   3.224
28744W        W98559  41.355  10.225  14.903
28745W        W98560   1.886  43.806   0.846
28746W        W98561   3.428  21.047  11.612
28747W        W98562  44.891  12.834   3.289
28748W        W98563  10.746   1.447  14.931
28749W        W98564  23.072  42.419   1.338
28750W        W98565  14.228   5.298   1.398
28751W        W98566  40.958  16.119   0.887
28752W        W98567  17.659  22.517   3.281
28753W        W98568   4.753   1.960   3.378
28754W        W98569  14.593  37.966   3.705
28755W        W98570   5.712  28.167   0.316
28756W        W98571  42.025  23.612  10.105
28757W        W98572  25.066   8.182  12.514
28758W        W98573   7.892  22.655  10.461
28759W        W98574  28.969  24.165  12.497
28760W        W98575  29.092  24.524  10.434
28761W        W98576  31.061  10.699   1.825
28762W        W98577  35.517  25.577  14.513
28763W        W98578  38.443  26.994   2.280
28764W        W98579  37.563  42.990  12.892
28765W        W98580   7.311  31.081   4.167
28766W        W98581  13.250   4.876  10.557
28767W        W98582  23.587  19.637  11.420
28768W        W98583  19.075  24.089   2.840
28769W        W98584  40.307  41.530   1.750
28770W        W98585  11.700  13.718  13.440
28771W        W98586  42.964  29.425  10.941
28772W        W98587  26.522  29.993  12.447
28773W        W98588  26.087  44.954   3.764
28774W        W98589  32.588  12.807  11.472
28775W        W98590  21.133  21.192   5.280
28776W        W98591  18.232   8.235   0.274
28777W        W98592  10.152   7.283   2.391
28778W        W98593   3.305  12.176  13.327
28779W        W98594  13.743  29.141  14.377
28780W        W98595  34.576   7.804   0.761
28781W        W98596  24.166  37.474  10.596
28782W        W98597  28.643  15.649  10.633
28783W        W98598  43.774   9.654  13.483
28784W        W98599  29.623   7.895   2.310
28785W        W98600  38.059   9.652   2.206
28786W        W98601   3.276  42.864  12.371
28787W        W98602  19.774  37.047   0.385
28788W        W98603  41.014  18.774   1.344
28789W        W98604  17.078  30.055  13.383
28790W        W98605   1.446  30.145   1.272
28791W        W98606  24.130  40.477   2.737
28792W        W98607  32.458  25.698   2.241
28793W        W98608  21.222  43.393  12.537
28794W        W98609  11.262   7.672  14.477
28795W        W98610  21.091  27.606   0.746
28796W        W98611   4.761  36.934  10.063
28797W        W98612  10.377  14.795   2.240
28798W        W98613   3.246  13.232   4.318
28799W        W98614  34.934   3.441  11.911
28800W        W98615  14.766  30.626   2.862
28801W        W98616  37.039  15.730   1.345
28802W        W98617  34.471  40.398  13.509
28803W        W98618   1.954  26.190  13.044
28804W        W98619  42.415  21.590   1.259
28805W        W98620  35.535  29.960  13.863
28806W        W98621  42.019  16.279  11.091
28807W        W98622  15.110  11.146  12.567
28808W        W98623  21.112  44.448   0.909
28809W        W98624  24.223  18.213   0.318
28810W        W98625  38.973  24.094   3.780
28811W        W98626  40.361  42.907   2.897
28812W        W98627  44.821  14.593   3.184
28813W        W98628  37.869  35.513  12.531
28814W        W98629  15.739  40.899  13.406
28815W        W98630   1.974  23.139   0.774
28816W        W98631   0.866   5.350  10.594
28817W        W98632   0.875  19.136  14.887
28818W        W98633  12.134  12.697   2.705
28819W        W98634  34.045  41.038  13.873
28820W        W98635  35.360   9.303  14.457
28821W        W98636  18.675   7.252   0.352
28822W        W98637  21.746  23.681   4.703
28823W        W98638  42.020  38.002  12.073
28824W        W98639  13.177  26.643  14.831
28825W        W98640  36.032   9.242   0.895
28826W        W98641  10.164  44.011  14.988
28827W        W98642  30.493  43.509   3.226
28828W        W98643  42.997  35.023  13.492
28829W        W98644  14.640  33.027  12.068
28830W        W98645  16.120  27.463  13.488
28831W        W98646   7.734   7.852   0.428
28832W        W98647   7.842  16.182  11.930
28833W        W98648   6.289   8.792  10.099
28834W        W98649   1.860   8.389   4.115
28835W        W98650  14.237  37.459  12.073
28836W        W98651  28.030   7.404   0.393
28837W        W98652  29.041  38.019  12.900
28838W        W98653  23.562   5.700  10.942
28839W        W98654  25.212  13.836  10.536
28840W        W98655  43.856   7.188  11.905
28841W        W98656  34.949  34.009   3.328
28842W        W98657  33.617  41.363   0.901
28843W        W98658  22.151  24.574  14.010
28844W        W98659  17.111  28.086  13.805
28845W        W98660  33.492  10.721  14.868
28846W        W98661   0.807   7.767   0.734
28847W        W98662  15.738  36.524  14.473
28848W        W98663  37.512  43.494  13.880
28849W        W98664   2.386  38.527  13.027
28850W        W98665   0.860  14.300   1.737
28851W        W98666  24.116  15.131   4.709
28852W        W98667   0.442  14.724   0.916
28853W        W98668  35.033   0.472   5.135
28854W        W98669  25.072   2.341  14.784
28855W        W98670  32.403  27.107  13.816
28856W        W98671  43.910  39.918   2.275
28857W        W98672   4.826  40.405  11.488
28858W        W98673  33.471  31.047   4.616
28859W        W98674  30.536  34.383  11.004
28860W        W98675  40.519  44.792  12.986
28861W        W98676   7.884  38.885  13.308
28862W        W98677  13.617  12.756   4.708
28863W        W98678  15.672  42.401   2.702
28864W        W98679   4.241   6.185   2.687
28865W        W98680  15.619  36.009  13.938
28866W        W98681  34.600  21.586  12.405
28867W        W98682   5.885  33.036  13.476
28868W        W98683  35.517  16.768   2.357
28869W        W98684   7.743   2.356   4.343
28870W        W98685  11.845  26.505   5.230
28871W        W98686  27.064   0.264   3.631
28872W        W98687   0.900  27.997  11.515
28873W        W98688  27.670   4.373  13.380
28874W        W98689  17.297  23.123  13.475
28875W        W98690  26.464  41.945   5.117
28876W        W98691  19.181  28.439  14.970
28877W        W98692  44.888  33.911   4.696
28878W        W98693  41.518  22.207  14.363
28879W        W98694  30.958  33.485   0.424
28880W        W98695  42.002  12.126  11.063
28881W        W98696  30.659  25.964  12.404
28882W        W98697  25.205  30.141  14.825
28883W        W98698  21.137  39.367  12.447
28884W        W98699  36.076  42.886   2.233
28885W        W98700   3.246   6.366   5.090
28886W        W98701  42.409   2.234  10.617
28887W        W98702  23.184  42.820  14.839
28888W        W98703  17.797   8.252  14.808
28889W        W98704  19.570  23.568  11.590
28890W        W98705  31.090  43.927  11.082
28891W        W98706  28.479   4.808  10.506
28892W        W98707  18.736  24.536   3.631
28893W        W98708  42.848  18.739  11.939
28894W        W98709  29.618  40.030  14.486
28895W        W98710  44.916   0.829  12.954
28896W        W98711  44.342  32.523  14.872
28897W        W98712  16.196  37.020   3.864
28898W        W98713  23.157   9.824   0.827
28899W        W98714  32.957  44.877   3.650
28900W        W98715   1.248  21.702   1.791
28901W        W98716  42.813   0.945  14.837
28902W        W98717  42.930  29.994  12.979
28903W        W98718  13.803  21.649   3.823
28904W        W98719   9.191   0.254  11.597
28905W        W98720   3.929  18.269  13.930
28906W        W98721  33.956  39.006   1.715
28907W        W98722  16.614  32.453   4.667
28908W        W98723   7.669  42.861  14.805
28909W        W98724  26.063  30.449   2.728
28910W        W98725  19.062  12.702   2.829
28911W        W98726  40.858  37.907  11.052
28912W        W98727  42.797  16.138   3.856
28913W        W98728  26.015  25.488  11.427
28914W        W98729   0.401  34.943   4.754
28915W        W98730  33.533  12.843  13.049
28916W        W98731  38.073  20.154  14.791
28917W        W98732  18.644  11.270  11.376
28918W        W98733  39.396  19.601  10.449
28919W        W98734  13.725  21.648  12.511
28920W        W98735  44.998  25.142  11.483
28921W        W98736   7.676  43.317   0.299
28922W        W98737  30.463  34.009   2.233
28923W        W98738   2.417   9.658  13.905
28924W        W98739   5.826  34.513   0.306
28925W        W98740  34.579   5.296   3.176
28926W        W98741  15.311  30.582  12.043
28927W        W98742  18.227  26.079   0.832
28928W        W98743  38.464  23.508   3.278
28929W        W98744  43.391   3.941  12.045
28930W        W98745  44.431  27.480   3.862
28931W        W98746  14.727  39.884   4.293
28932W        W98747  13.175   3.396   4.777
28933W        W98748  14.598  32.614  10.933
28934W        W98749  33.086  17.262   0.786
28935W        W98750   8.232  27.476  12.517
28936W        W98751  13.155  43.798   3.757
28937W        W98752  40.805   9.307  14.460
28938W        W98753  36.367  22.733   2.812
28939W        W98754  17.702  41.831   1.435
28940W        W98755  27.195  38.038   1.266
28941W        W98756   8.884  11.711   1.353
28942W        W98757   3.265  22.071   9.936
28943W        W98758  14.619  16.130   3.326
28944W        W98759  23.218  14.254  14.786
28945W        W98760  22.664  21.235  10.930
28946W        W98761  29.496   3.831   4.312
28947W        W98762  12.215  18.714  14.807
28948W        W98763   1.256  25.977   3.791
28949W        W98764  10.720  15.265   4.602
28950W        W98765  34.598   1.820  13.815
28951W        W98766  41.412  29.999   3.352
28952W        W98767  42.389  41.934  14.477
28953W        W98768  38.465   8.316  10.514
28954W        W98769  34.882  41.424   0.927
28955W        W98770   3.784  33.107   2.673
28956W        W98771  18.757  39.814  12.505
28957W        W98772   0.961   9.387  11.072
28958W        W98773   0.437  23.534   0.833
28959W        W98774   6.209  27.687  13.453
28960W        W98775   8.872  30.450   0.380
28961W        W98776  13.320  14.759  10.530
28962W        W98777  37.409  34.594   3.826
28963W        W98778  34.599  33.380  13.364
28964W        W98779  36.441   4.891   3.656
28965W        W98780   2.468  19.569   5.309
28966W        W98781  40.367  35.026   1.383
28967W        W98782  38.377  39.972  10.430
28968W        W98783  12.681  24.121  14.887
28969W        W98784  40.045  37.533   2.816
28970W        W98785  34.452  23.022   2.888
28971W        W98786  25.559   7.754   3.288
28972W        W98787  38.001  21.232  13.310
28973W        W98788   3.857  27.984  14.796
28974W        W98789  25.013  40.340   1.816
28975W        W98790  18.104  23.531  13.867
28976W        W98791  42.523  40.945   2.243
28977W        W98792  38.879   7.259   2.243
28978W        W98793  17.599  28.531   2.189
28979W        W98794  37.039  28.105   0.457
28980W        W98795  42.895  25.009  11.441
28981W        W98796  42.301  19.125   1.841
28982W        W98797  10.665   2.934  13.990
28983W        W98798   8.730  34.978   5.134
28984W        W98799  26.602   2.304  12.418
28985W        W98800   8.706  23.653   1.900
28986W        W98801  34.117   3.314   1.335
28987W        W98802   1.868  36.963   2.831
28988W        W98803  33.067  41.952  11.517
28989W        W98804  38.467  18.059  14.390
28990W        W98805   4.437  10.238  11.885
28991W        W98806  34.472  26.479   4.212
28992W        W98807  27.119   1.409   1.935
28993W        W98808  15.792   6.345  12.944
28994W        W98809  25.056  11.218  11.065
28995W        W98810   2.789  23.036   2.255
28996W        W98811   3.286  30.521   1.224
28997W        W98812  38.409   5.228  11.429
28998W        W98813   6.393   8.239  14.923
28999W        W98814  18.742  12.140   4.652
29000W        W98815  32.001  29.949  12.898
29001W        W98816   9.792  24.707   2.312
29002W        W98817  41.484  35.592   3.800
29003W        W98818  15.162  14.280   3.649
29004W        W98819  33.558  12.294   0.883
29005W        W98820  20.213   5.746  14.331
29006W        W98821  41.486  11.661  13.061
29007W        W98822  43.991  25.553   2.758
29008W        W98823   4.381  31.641  10.520
29009W        W98824   7.721  28.546   4.188
29010W        W98825  31.043   7.726  12.855
29011W        W98826  13.838  20.195   2.268
29012W        W98827  28.031  20.114  12.543
29013W        W98828  12.195  26.062  11.968
29014W        W98829  30.981  41.871  13.344
29015W        W98830  25.693   3.315  12.891
29016W        W98831  36.424  41.534   4.761
29017W        W98832   4.767  26.516   4.782
29018W        W98833  35.898  13.609   1.837
29019W        W98834   2.381  33.066  11.553
29020W        W98835  14.293  14.240   0.929
29021W        W98836  26.205  44.493  11.857
29022W        W98837  40.477  43.963   0.817
29023W        W98838  33.039  42.392   4.758
29024W        W98839  40.982  40.896  13.505
29025W        W98840  30.031  35.073  12.995
29026W        W98841  11.322   6.677   1.279
29027W        W98842  33.424  37.487  14.940
29028W        W98843   3.343  42.477  14.998
29029W        W98844  28.588   4.884   3.726
29030W        W98845  33.395  10.381  10.068
29031W        W98846   3.405  36.981  11.474
29032W        W98847  24.066  26.569   4.645
29033W        W98848  29.481   3.436  13.906
29034W        W98849  25.633   2.905   4.114
29035W        W98850   5.713   3.282  11.526
29036W        W98851  43.456  24.486  14.326
29037W        W98852   3.865  33.016  13.893
29038W        W98853  23.016   4.276   2.211
29039W        W98854  27.176  19.270  12.941
29040W        W98855  29.530   7.724   1.931
29041W        W98856   4.818  35.521   4.673
29042W        W98857  38.857  37.973  11.513
29043W        W98858  20.629  30.615  14.953
29044W        W98859  39.457  38.059  12.390
29045W        W98860   5.355  20.265  11.406
29046W        W98861  15.180  13.249   4.729
29047W        W98862  33.074   0.786  14.957
29048W        W98863  44.771  44.473  13.852
29049W        W98864  17.127   4.440  14.376
29050W        W98865   7.817   2.324   5.317
29051W        W98866  13.278   0.432  13.385
29052W        W98867  15.771   4.861   1.919
29053W        W98868  21.674  10.175   0.838
29054W        W98869  21.655  28.498   3.229
29055W        W98870   6.357   5.361   2.709
29056W        W98871  28.032   6.712   1.377
29057W        W98872  33.583  14.189   1.804
29058W        W98873   3.865   1.413   4.798
29059W        W98874   9.852  42.385   2.354
29060W        W98875   8.182  21.521  12.952
29061W        W98876  23.997   6.341   2.259
29062W        W98877  23.218  42.481   4.821
29063W        W98878  37.340  18.691   0.907
29064W        W98879  28.074   6.805  11.091
29065W        W98880  29.438  20.698   3.810
29066W        W98881  20.071  17.566   1.929
29067W        W98882  13.137   8.856   3.769
29068W        W98883  20.763  41.004   1.889
29069W        W98884  16.280  36.909   2.830
29070W        W98885  40.846   7.323   5.617
29071W        W98886  17.308  15.790  11.443
29072W        W98887  27.625  27.532   4.201
29073W        W98888  41.967  41.417  13.994
29074W        W98889   9.848  44.823   2.215
29075W        W98890  38.358  37.404  10.470
29076W        W98891  27.189  18.703  14.340
29077W        W98892  21.161  11.148   2.239
29078W        W98893  25.709  33.958  13.491
29079W        W98894  20.185  26.486  11.516
29080W        W98895  34.406   9.245   2.299
29081W        W98896  14.798  34.014  12.943
29082W        W98897  10.642  26.146  10.547
29083W        W98898   8.345   6.829  10.439
29084W        W98899  41.966  34.569   1.249
29085W        W98900  32.589  30.614   1.220
29086W        W98901  21.684  14.738   4.771
29087W        W98902  36.987  12.271  14.974
29088W        W98903   9.337  40.837   4.799
29089W        W98904  23.585   5.396  12.986
29090W        W98905  27.954  21.571  10.582
29091W        W98906  21.250  43.423   1.212
29092W        W98907  21.596  20.566  10.530
29093W        W98908  26.117  27.955   0.445
29094W        W98909   3.790  16.585   3.731
29095W        W98910   8.373   4.301  12.955
29096W        W98911  44.459  37.049   2.205
29097W        W98912   6.802   0.486  14.296
29098W        W98913  21.697  40.955  12.470
29099W        W98914  17.279  36.581  11.381
29100W        W98915  24.546   2.855   2.679
29101W        W98916  13.191  17.225  10.621
29102W        W98917   9.351  34.537   0.820
29103W        W98918  15.083  35.379   1.858
29104W        W98919  44.434  33.435  14.931
29105W        W98920  10.645  10.161   0.809
29106W        W98921  33.965  35.970  14.925
29107W        W98922  40.932  35.508  10.959
29108W        W98923  31.140  39.472  12.482
29109W        W98924  26.056  25.617  11.986
29110W        W98925   7.276   5.243   2.239
29111W        W98926  31.510  27.071  11.554
29112W        W98927  35.893  31.606   3.763
29113W        W98928  18.117   5.388  14.775
29114W        W98929  44.366   0.379   2.794
29115W        W98930   3.807  10.738   2.816
29116W        W98931  11.751  35.104   2.300
29117W        W98932  22.105  17.303   1.915
29118W        W98933  33.439  30.560   4.233
29119W        W98934  42.394  44.005   3.703
29120W        W98935  25.177  36.955   4.270
29121W        W98936  16.598  10.384   2.256
29122W        W98937  25.131  36.562   1.749
29123W        W98938  11.360  28.173  11.513
29124W        W98939  32.620  12.776   1.365
29125W        W98940  14.832  41.934  10.970
29126W        W98941   9.717  31.636  12.957
29127W        W98942  21.649  32.413  11.996
29128W        W98943  15.592  35.405  10.407
29129W        W98944  37.344   7.218   0.909
29130W        W98945  18.748  29.528  12.406
29131W        W98946  31.983  38.380  13.858
29132W        W98947   9.347  44.286   0.393
29133W        W98948  21.104  40.307   2.893
29134W        W98949  10.827  35.100  13.424
29135W        W98950  15.696  11.649  14.890
29136W        W98951  38.946   4.727  10.562
29137W        W98952  23.671  27.059   4.653
29138W        W98953  27.028  35.872  12.869
29139W        W98954  36.431  42.301   2.376
29140W        W98955   4.932  12.691   0.769
29141W        W98956  13.781  23.037   2.803
29142W        W98957  36.463  31.437   1.302
29143W        W98958  23.718  36.904  12.440
29144W        W98959   8.798  14.160   4.341
29145W        W98960  14.773  38.930  11.487
29146W        W98961  41.824  15.797   4.742
29147W        W98962  44.467  36.074  13.338
29148W        W98963   3.412   5.804   2.396
29149W        W98964  24.032  37.418  14.315
29150W        W98965  13.331  11.668  14.028
29151W        W98966  42.831  22.201  12.474
29152W        W98967  15.198  21.192  14.460
29153W        W98968  32.129  24.663   4.211
29154W        W98969  31.952  41.326   0.777
29155W        W98970  28.154  30.427   4.806
29156W        W98971   6.752   3.382   4.265
29157W        W98972   1.833  14.291   4.755
29158W        W98973  11.262   4.404   2.389
29159W        W98974   9.230  40.490   4.290
29160W        W98975  44.267   3.739  12.053
29161W        W98976   0.956   3.890  14.327
29162W        W98977  16.768  44.920   0.417
29163W        W98978  43.884  35.541  12.080
29164W        W98979  22.109  25.080   1.831
29165W        W98980   9.237  41.019   1.277
29166W        W98981   2.928  34.605  11.871
29167W        W98982  39.409   2.449   4.839
29168W        W98983  43.349   8.244  13.840
29169W        W98984  15.638  11.690   2.776
29170W        W98985   5.336  18.647   0.959
29171W        W98986  44.932  25.149  12.991
29172W        W98987  40.889   9.761   3.735
29173W        W98988  33.564   2.304  14.438
29174W        W98989  37.015  37.501  12.917
29175W        W98990  15.580   1.334   0.824
29176W        W98991   0.434   5.714   0.414
29177W        W98992  42.473  40.302  10.919
29178W        W98993  35.467   2.774   0.257
29179W        W98994  37.870   5.275  11.887
29180W        W98995  38.382   9.192  11.503
29181W        W98996  24.223  42.811   4.135
29182W        W98997  43.926  34.080   2.271
29183W        W98998  16.711  18.293  13.397
29184W        W98999  25.017   4.435   2.317
29185W        W99000  34.115   9.265   0.772
29186W        W99001   9.823  32.039   1.785
29187W        W99002   5.797  19.761   0.383
29188W        W99003  39.924   3.394   3.683
29189W        W99004  15.674  14.327   2.716
29190W        W99005  13.322   9.332  11.518
29191W        W99006  12.311   6.395   4.626
29192W        W99007  16.204  12.721  12.546
29193W        W99008  23.998   5.356  11.041
29194W        W99009  41.369  18.082  13.536
29195W        W99010  12.177   3.739  11.108
29196W        W99011  20.605   1.402  12.906
29197W        W99012  37.362  24.521   0.313
29198W        W99013  35.022   1.241  11.441
29199W        W99014  17.211  10.299  12.036
29200W        W99015  24.980  27.685   0.926
29201W        W99016  32.888  33.987   1.865
29202W        W99017  28.447  12.271   2.785
29203W        W99018  11.355  14.337   2.844
29204W        W99019  18.054   3.292  12.972
29205W        W99020   2.437  36.993  10.895
29206W        W99021   8.780  35.441  14.366
29207W        W99022  39.065   7.237  12.360
29208W        W99023   4.295  30.012  12.546
29209W        W99024   1.945  35.498   1.305
29210W        W99025  18.550   2.880  12.843
29211W        W99026   9.715  32.046   1.284
29212W        W99027  26.605  35.956  11.042
29213W        W99028  10.656  35.934   0.828
29214W        W99029  28.518  23.053  12.941
29215W        W99030  21.599  13.324  11.022
29216W        W99031  40.452  33.066   0.442
29217W        W99032  10.849  14.331  14.846
29218W        W99033  39.898  38.065   1.276
29219W        W99034  34.466  27.087  11.076
29220W        W99035  32.617  43.986   4.224
29221W        W99036  29.581  15.274   1.696
29222W        W99037  19.563  30.477   0.313
29223W        W99038  44.971  14.305   1.760
29224W        W99039  34.474  30.059  13.901
29225W        W99040   5.429  37.580  10.465
29226W        W99041  10.832  24.574   2.336
29227W        W99042  26.026  42.014  12.432
29228W        W99043   2.420  13.113  11.379
29229W        W99044  23.137  10.738   0.372
29230W        W99045   4.754   6.869  11.868
29231W        W99046  30.916   9.720  12.420
29232W        W99047  35.435   4.449  14.400
29233W        W99048  35.015  28.158  11.533
29234W        W99049   4.940   1.877  10.108
29235W        W99050   8.345   7.718  11.111
29236W        W99051  31.501   2.316  12.987
29237W        W99052   4.316  32.961  14.969
29238W        W99053  16.182  20.599  13.411
29239W        W99054  44.449  12.224  10.091
29240W        W99055   4.892  39.497   3.359
29241W        W99056  40.519  11.835  13.401
29242W        W99057  13.282  36.942  13.375
29243W        W99058  28.546  24.613   0.432
29244W        W99059   3.817  23.048  13.936
29245W        W99060  14.754  10.341  11.000
29246W        W99061  30.590  24.085  14.009
29247W        W99062  34.895  27.037   0.784
29248W        W99063  41.448   4.860  14.424
29249W        W99064  44.911  19.539   5.134
29250W        W99065  29.509  14.161  10.578
29251W        W99066   9.716   3.342  13.934
29252W        W99067  34.557   7.795  12.531
29253W        W99068   3.720   3.359   4.340
29254W        W99069  13.126  19.145  14.985
29255W        W99070  31.912  31.402  10.996
29256W        W99071  11.799   3.345   2.828
29257W        W99072   9.712  16.255   2.266
29258W        W99073  37.059   3.805  11.461
29259W        W99074   4.866  23.994   5.239
29260W        W99075  18.232  24.988   0.835
29261W        W99076   6.736   0.382   0.447
29262W        W99077  33.608  37.494  13.807
29263W        W99078  22.715  23.122   3.297
29264W        W99079   8.861  28.526   3.754
29265W        W99080  23.135  24.994   1.410
29266W        W99081  33.599  29.103  14.452
29267W        W99082  11.303  19.225  13.055
29268W        W99083   9.346  21.562  14.380
29269W        W99084   8.716  34.921  13.844
29270W        W99085  21.202  35.463   1.816
29271W        W99086  12.722  10.364  14.318
29272W        W99087  23.131  27.681   1.835
29273W        W99088   5.785  33.572  14.863
29274W        W99089   0.848  18.082   4.291
29275W        W99090   8.185  31.097   1.268
29276W        W99091  42.799  20.698   0.455
29277W        W99092   4.287  30.908  12.573
29278W        W99093  19.272   5.234  14.982
29279W        W99094  42.857   7.402   4.274
29280W        W99095  16.641  19.226   3.339
29281W        W99096  42.285  17.615   1.719
29282W        W99097   2.904  20.549  11.537
29283W        W99098  43.006  12.789  11.995
29284W        W99099  32.570   2.273  14.017
29285W        W99100  27.569  33.434   0.361
29286W        W99101   1.912  24.518   0.733
29287W        W99102  21.020   1.806  10.469
29288W        W99103  43.957  18.192   4.228
29289W        W99104  42.296  14.734   1.313
29290W        W99105   3.796   0.471   0.331
29291W        W99106   3.818   3.337   0.791
29292W        W99107  11.198   1.848  13.462
29293W        W99108   7.196  21.156   2.340
29294W        W99109   1.866   3.848  10.909
29295W        W99110  25.625  34.041   2.798
29296W        W99111  37.347  35.593  13.845
29297W        W99112  38.888   2.235  13.368
29298W        W99113  29.085  37.451  11.541
29299W        W99114  38.011  17.563   4.806
29300W        W99115  38.922  16.604  14.765
29301W        W99116   9.888  33.906  12.537
29302W        W99117  29.632   7.757  14.867
29303W        W99118   5.893  34.506  14.461
29304W        W99119  14.607   1.968  12.450
29305W        W99120   3.735  28.482   4.720
29306W        W99121  32.082  31.016   1.877
29307W        W99122  37.914  21.585   0.391
29308W        W99123  23.192  21.064   2.339
29309W        W99124  26.999  41.476   0.736
29310W        W99125  21.183  40.002  14.282
29311W        W99126  28.545  30.624   0.728
29312W        W99127  15.764  11.740   5.176
29313W        W99128  16.716  36.530  12.580
29314W        W99129  22.191   4.207   3.158
29315W        W99130   7.859  42.942   0.305
29316W        W99131  35.926  17.068  14.869
29317W        W99132  42.985  24.681   2.221
29318W        W99133   0.782   7.266  13.486
29319W        W99134  40.427  11.283   1.422
29320W        W99135  25.689  40.984  13.325
29321W        W99136  28.581  12.157   0.785
29322W        W99137  36.085  44.411  11.419
29323W        W99138   6.183  31.999   1.276
29324W        W99139   4.207  31.524   1.371
29325W        W99140  18.240  36.592   2.688
29326W        W99141  31.552  27.033  13.003
29327W        W99142  26.173  26.696  14.899
29328W        W99143  38.473   1.867   0.901
29329W        W99144  14.820  35.973  12.009
29330W        W99145   2.947  12.176   1.704
29331W        W99146  14.192   6.352   2.203
29332W        W99147  17.229  24.981   1.882
29333W        W99148  19.744   9.168   5.229
29334W        W99149  17.675   4.875  13.408
29335W        W99150  38.826  20.712  13.009
29336W        W99151  33.500  26.167   2.300
29337W        W99152  22.148  28.505   3.331
29338W        W99153  26.579   0.345   1.921
29339W        W99154   4.905  35.074   2.353
29340W        W99155   1.889  38.399  10.993
29341W        W99156  15.627  26.980  11.061
29342W        W99157   9.382  12.165  13.308
29343W        W99158  31.513  24.660   1.695
29344W        W99159   9.878  28.037  12.901
29345W        W99160  40.844  30.123   3.308
29346W        W99161   7.899  34.452   0.874
29347W        W99162  16.635   3.717   2.297
29348W        W99163  27.992  40.844   0.371
29349W        W99164   5.769   4.871   3.662
29350W        W99165  25.535  18.666  13.419
29351W        W99166   8.334  16.675   2.689
29352W        W99167  17.212  29.997   1.440
29353W        W99168  17.678  17.728   4.283
29354W        W99169   8.349  42.511   3.789
29355W        W99170  39.896  35.411   1.403
29356W        W99171  25.151   0.786  13.377
29357W        W99172  44.326  18.568   0.932
29358W        W99173  37.571  43.999   1.702
29359W        W99174  10.834   6.820   2.325
29360W        W99175   9.856  39.388  12.407
29361W        W99176   7.342  11.774  13.452
29362W        W99177  38.028  13.146   4.205
29363W        W99178  10.665  12.342  13.309
29364W        W99179  34.400  26.176   2.858
29365W        W99180  42.373   5.735   2.370
29366W        W99181  37.359  21.733   3.649
29367W        W99182  33.932   9.723   3.262
29368W        W99183  18.221   4.336   2.781
29369W        W99184  27.091  38.937  11.967
29370W        W99185   9.748  21.747  14.357
29371W        W99186  42.308  33.546  12.524
29372W        W99187   6.343  40.336   2.209
29373W        W99188  39.548  22.614   1.735
29374W        W99189  20.060  26.701  14.421
29375W        W99190  27.095   6.679  14.789
29376W        W99191  32.954  43.437  13.314
29377W        W99192   2.324  25.636   3.375
29378W        W99193  14.688  24.483   4.693
29379W        W99194  42.865  31.070  14.465
29380W        W99195  10.201  20.551   0.890
29381W        W99196  28.043  37.545  11.443
29382W        W99197   8.778  12.122  13.412
29383W        W99198  43.370   1.842  10.938
29384W        W99199  38.563  36.532   0.384
29385W        W99200  44.932  34.420  11.096
29386W        W99201  17.217  17.131  14.492
29387W        W99202  33.030   3.834   0.442
29388W        W99203  11.269  25.712  13.349
29389W        W99204  13.188  14.238  13.877
29390W        W99205   7.797  34.400   1.820
29391W        W99206  36.546  24.575   3.641
29392W        W99207  34.883   9.781   2.293
29393W        W99208  31.025  27.649   2.198
29394W        W99209  15.611  28.512  13.895
29395W        W99210  11.731  43.936  12.916
29396W        W99211  27.459  33.413  11.126
29397W        W99212  31.066  28.623   2.298
29398W        W99213  31.470  11.135   1.247
29399W        W99214  17.230  39.940   4.283
29400W        W99215   1.836  16.621  12.399
29401W        W99216  16.073   2.938   2.843
29402W        W99217  13.792  21.260   0.480
29403W        W99218  40.376  28.100   1.839
29404W        W99219  26.633  21.686  12.865
29405W        W99220   3.276  22.504   0.332
29406W        W99221  16.799  15.292   2.196
29407W        W99222  12.169   8.832   5.235
29408W        W99223  24.543  36.902   4.821
29409W        W99224  39.963  38.374   0.369
29410W        W99225   9.855  30.985  13.444
29411W        W99226  26.533  21.184  14.334
29412W        W99227  23.121  17.557  11.925
29413W        W99228  13.110  41.971   4.788
29414W        W99229   3.810  10.727   1.898
29415W        W99230  27.688  21.536  12.476
29416W        W99231  43.848  17.297  13.950
29417W        W99232  11.145   6.342  11.043
29418W        W99233  16.312  27.548   1.801
29419W        W99234  38.505  10.667  13.399
29420W        W99235   1.436  41.810  12.396
29421W        W99236  24.985   3.357  11.426
29422W        W99237  23.095   2.372  13.543
29423W        W99238  26.107  29.158  11.507
29424W        W99239  39.835  34.589   3.192
29425W        W99240  40.461  40.970   3.279
29426W        W99241  32.102  22.233   1.712
29427W        W99242   5.432  15.799   0.907
29428W        W99243  20.733  26.616  11.045
29429W        W99244  39.859  26.961   3.322
29430W        W99245  31.430  39.383  12.572
29431W        W99246  43.850  24.216   0.811
29432W        W99247   2.789  31.136  14.480
29433W        W99248  18.625  44.871   4.138
29434W        W99249  21.171  20.688   4.755
29435W        W99250  26.553  43.870  12.422
29436W        W99251  30.080  25.171   2.675
29437W        W99252  27.578  23.594   1.698
29438W        W99253   0.869  40.474   1.886
29439W        W99254  39.891   5.334  11.861
29440W        W99255  33.603   4.288   3.264
29441W        W99256   2.452   1.336   3.853
29442W        W99257  10.251  24.507  11.556
29443W        W99258  36.954  19.578   0.901
29444W        W99259  21.189  24.682   0.266
29445W        W99260  14.767   4.795   1.236
29446W        W99261  31.006  25.126   4.255
29447W        W99262  31.647  18.767  14.803
29448W        W99263  29.640  29.135  14.906
29449W        W99264  38.840  27.669   1.345
29450W        W99265  25.144   1.875  14.402
29451W        W99266   4.906  26.639   0.306
29452W        W99267  26.657  31.455  13.530
29453W        W99268  36.438  24.622   4.124
29454W        W99269   5.692  10.325   3.790
29455W        W99270  19.048  35.946   4.272
29456W        W99271   9.169  40.366   3.374
29457W        W99272  13.343  23.717  12.376
29458W        W99273  12.846  37.462  13.940
29459W        W99274   1.400  22.625  14.880
29460W        W99275  18.179  41.877   2.756
29461W        W99276  22.686  25.069   1.909
29462W        W99277  11.311  35.035   3.207
29463W        W99278   8.780  41.506  12.084
29464W        W99279  28.170  18.206  12.494
29465W        W99280   0.331  26.981  14.768
29466W        W99281  37.559  31.421  13.930
29467W        W99282   5.267  16.652   4.651
29468W        W99283  43.360  23.173   0.797
29469W        W99284  34.491  25.040   4.818
29470W        W99285  37.474  22.630   4.733
29471W        W99286   9.225  15.638  10.086
29472W        W99287   9.767  23.694  11.461
29473W        W99288  37.534  19.191  11.472
29474W        W99289  30.971  43.448  11.056
29475W        W99290  16.200   3.786   3.194
29476W        W99291  25.194  16.640   1.900
29477W        W99292  16.162  32.962  12.935
29478W        W99293  23.178  14.211   1.426
29479W        W99294  12.264  37.374  12.862
29480W        W99295   4.928  15.315   0.919
29481W        W99296  17.130  28.044   1.888
29482W        W99297  17.680  35.107   1.933
29483W        W99298  18.154  30.515  12.899
29484W        W99299   4.751  22.562  13.335
29485W        W99300  26.637  19.131   0.918
29486W        W99301  20.232  25.639   2.179
29487W        W99302  41.901  42.380   1.857
29488W        W99303   9.696  39.458  14.001
29489W        W99304  28.164  23.622   0.429
29490W        W99305  25.129   4.374   1.727
29491W        W99306  15.770  20.153  14.765
29492W        W99307  28.975  42.031  10.590
29493W        W99308  23.719  40.997   1.418
29494W        W99309  10.205  36.575   3.257
29495W        W99310  31.923  15.785   1.845
29496W        W99311   5.766  22.532   2.785
29497W        W99312  38.516  21.191  14.354
29498W        W99313   2.320  34.923  14.343
29499W        W99314  25.586  36.556   1.857
29500W        W99315  35.931  40.884  11.119
29501W        W99316  43.995  12.756   2.182
29502W        W99317   7.726  38.977   1.414
29503W        W99318  43.385  41.484  12.524
29504W        W99319  12.746  28.447   3.326
29505W        W99320  26.665  32.503   1.310
29506W        W99321   4.905  39.867  12.939
29507W        W99322  10.201  10.373   3.208
29508W        W99323  30.158  30.496   2.752
29509W        W99324  36.415  32.889  10.578
29510W        W99325  10.382  17.103  11.606
29511W        W99326  32.116  18.546  14.833
29512W        W99327  25.698  19.560  12.839
29513W        W99328  28.665  40.038  12.035
29514W        W99329  44.772  34.007   2.721
29515W        W99330  28.460  21.516   2.373
29516W        W99331  22.230  40.514  11.951
29517W        W99332  24.203  24.132   4.636
29518W        W99333  33.886  21.162   2.721
29519W        W99334  20.227  13.287  13.389
29520W        W99335   3.335  40.521  10.417
29521W        W99336   9.704  17.272  12.401
29522W        W99337   6.798  21.099   1.704
29523W        W99338  39.041   7.845  11.407
29524W        W99339  23.685  44.443   0.277
29525W        W99340  11.205  17.179  13.863
29526W        W99341  14.278  11.730   0.315
29527W        W99342   7.366  18.573  11.395
29528W        W99343  31.588  38.455  13.040
29529W        W99344  22.192  31.056   1.346
29530W        W99345  13.730  32.027  13.477
29531W        W99346  12.842  26.614   1.236
29532W        W99347   7.173   5.821   4.245
29533W        W99348  19.064  24.650  13.327
29534W        W99349  21.653  27.473   1.787
29535W        W99350   7.886   1.384   1.878
29536W        W99351  16.764  29.527   1.929
29537W        W99352  39.036  33.527  12.937
29538W        W99353   2.845  26.506  11.095
29539W        W99354  20.198  31.527  10.525
29540W        W99355  39.877   4.725   4.778
29541W        W99356  26.476  20.114   3.267
29542W        W99357  16.084   0.358  13.979
29543W        W99358   4.833   3.315  10.489
29544W        W99359  43.801  11.217  14.473
29545W        W99360  26.101  36.408   2.218
29546W        W99361  41.401  28.046   4.350
29547W        W99362  16.145  41.387  10.919
29548W        W99363  22.708  44.443  12.050
29549W        W99364   0.424  34.075   4.805
29550W        W99365  30.657  34.615   3.653
29551W        W99366   2.847  43.854   2.326
29552W        W99367  25.020  43.280   1.800
29553W        W99368  39.981   0.447   9.970
29554W        W99369  21.556  17.225  13.380
29555W        W99370  21.543   2.774  10.468
29556W        W99371  36.070  14.730   5.178
29557W        W99372  19.697  41.792   1.321
29558W        W99373  25.503   0.409   2.836
29559W        W99374  17.237   8.214  12.922
29560W        W99375  33.440   3.231   2.250
29561W        W99376  31.924  26.487   3.801
29562W        W99377  43.384  30.567   4.652
29563W        W99378  16.168  27.552  14.976
29564W        W99379  42.913   7.323   2.277
29565W        W99380  35.047  25.972   2.696
29566W        W99381  22.036  35.879  12.561
29567W        W99382  30.955  43.317   3.149
29568W        W99383  35.552  30.910   1.369
29569W        W99384  24.003  13.266   0.946
29570W        W99385  31.972  29.438   3.801
29571W        W99386  36.475  37.968   3.762
29572W        W99387  39.483  36.487  11.058
29573W        W99388  11.157   6.709  14.813
29574W        W99389  23.635  27.975  10.988
29575W        W99390   8.223  22.700   3.300
29576W        W99391  39.519  28.939   4.629
29577W        W99392  26.528  13.607  11.384
29578W        W99393  28.447  11.712   4.264
29579W        W99394  10.745  15.239   4.279
29580W        W99395  19.751   2.780   4.123
29581W        W99396  23.668   1.432   2.397
29582W        W99397  10.172  39.549   2.235
29583W        W99398  29.520  38.836  11.907
29584W        W99399  30.100  36.446  14.304
29585W        W99400  31.036   8.727  13.492
29586W        W99401  14.187  17.697   2.191
29587W        W99402  21.128   3.363   0.429
29588W        W99403   6.701  41.326  11.004
29589W        W99404  13.821   7.219   1.249
29590W        W99405  23.493  15.090  13.966
29591W        W99406   8.814  38.853   1.235
29592W        W99407  24.575   6.292  11.076
29593W        W99408  44.770  13.189  14.278
29594W        W99409  34.580  32.039   4.117
29595W        W99410  40.049  29.162  14.936
29596W        W99411  21.649   2.434   1.300
29597W        W99412  27.506  29.931  10.952
29598W        W99413  26.702  25.168  10.467
29599W        W99414  27.010  17.733   1.351
29600W        W99415   6.234  10.754   0.440
29601W        W99416  27.549  26.620  13.371
29602W        W99417  17.150  18.056  11.029
29603W        W99418   0.960  14.712   4.756
29604W        W99419  16.142  12.244  11.904
29605W        W99420  39.371  37.567   0.793
29606W        W99421  24.682  16.637  11.963
29607W        W99422  29.588  42.993   0.242
29608W        W99423  34.009   8.788  11.087
29609W        W99424  41.867  38.556  12.339
29610W        W99425  38.529  24.010  13.445
29611W        W99426  33.121  13.260   2.267
29612W        W99427   4.781  22.239   0.367
29613W        W99428  30.966   7.400  11.385
29614W        W99429   9.271  21.196  12.913
29615W        W99430  36.379  31.509  10.553
29616W        W99431  35.369  42.514   0.798
29617W        W99432  20.625   8.779  10.473
29618W        W99433  10.780  21.092  13.484
29619W        W99434  32.512   7.364  14.324
29620W        W99435  27.508  31.921   2.258
29621W        W99436  35.498   6.343   0.365
29622W        W99437  32.977  40.384  14.385
29623W        W99438   6.827  39.405   2.690
29624W        W99439  34.071   2.736  14.971
29625W        W99440  44.843  26.023   4.277
29626W        W99441  22.236  43.407  13.498
29627W        W99442  15.721  41.878  11.047
29628W        W99443  39.553  25.498   4.117
29629W        W99444  36.492  17.573  13.491
29630W        W99445  10.175  23.134  12.836
29631W        W99446  24.537  26.513  11.004
29632W        W99447  30.598  14.327   2.782
29633W        W99448  14.149  30.987  14.836
29634W        W99449  42.795  44.299  12.389
29635W        W99450  11.263   9.193   4.743
29636W        W99451  24.559  40.823  11.401
29637W        W99452   1.951  10.775   3.315
29638W        W99453  17.206  37.853   2.256
29639W        W99454  26.514  29.125   4.311
29640W        W99455  20.617  43.451   5.179
29641W        W99456  30.637  33.583  12.041
29642W        W99457  43.813  43.331  12.396
29643W        W99458   4.342  25.682   4.116
29644W        W99459  40.828   7.404  13.367
29645W        W99460   1.780  29.027   2.238
29646W        W99461  35.011  24.037  13.545
29647W        W99462  13.694  10.732  14.898
29648W        W99463  20.591  44.422  12.458
29649W        W99464  16.160  33.446   3.855
29650W        W99465  21.230  32.538  12.023
29651W        W99466   4.214   4.903   1.261
29652W        W99467  44.860  24.213   3.313
29653W        W99468  21.190  24.228  13.489
29654W        W99469  19.130   2.886  12.399
29655W        W99470  35.081  37.883  12.889
29656W        W99471   8.685  36.001   3.264
29657W        W99472  21.043  30.998  13.024
29658W        W99473  43.807  29.426  12.048
29659W        W99474   7.729  35.907   1.926
29660W        W99475  15.792  12.749   4.772
29661W        W99476  36.022  30.625   2.856
29662W        W99477  21.259  42.796   4.771
29663W        W99478   1.402  39.911  11.884
29664W        W99479  16.291   8.881   3.186
29665W        W99480  20.596  24.565  14.388
29666W        W99481  35.887  41.945   2.858
29667W        W99482  13.671   8.371  13.492
29668W        W99483  38.981  43.933  12.524
29669W        W99484  10.145  34.961   1.409
29670W        W99485  18.773  25.047   2.894
29671W        W99486  42.492  18.098   0.813
29672W        W99487  17.730  25.058  10.557
29673W        W99488  26.051  15.148   2.301
29674W        W99489   9.356  40.359  10.423
29675W        W99490  11.816  33.037   0.456
29676W        W99491   0.352   9.232  11.597
29677W        W99492  34.533  35.486   3.666
29678W        W99493   4.395  40.425  11.540
29679W        W99494  11.691  11.362  14.461
29680W        W99495  44.305  28.620   0.423
29681W        W99496  15.207   0.355  12.025
29682W        W99497  19.533   5.866  14.426
29683W        W99498  11.203  29.100  11.960
29684W        W99499  17.718  40.828  12.471
29685W        W99500  18.245  30.960   2.238
29686W        W99501  19.071  34.904   1.367
29687W        W99502  33.409  44.393   4.735
29688W        W99503  26.100  20.040   2.822
29689W        W99504  42.366   3.916  13.959
29690W        W99505  15.234  38.493  14.775
29691W        W99506  44.296   1.257  10.639
29692W        W99507  25.596  33.574  13.331
29693W        W99508  29.524  15.653  12.414
29694W        W99509  43.885   3.766   2.217
29695W        W99510  28.493  44.761  11.976
29696W        W99511  21.731  30.429   0.306
29697W        W99512  25.544  36.562  12.570
29698W        W99513  34.520  44.421  12.377
29699W        W99514   3.269  21.589   1.375
29700W        W99515   1.742  23.079   2.903
29701W        W99516   3.780  27.154   0.869
29702W        W99517  36.923  36.047  10.494
29703W        W99518  34.968  31.000  14.349
29704W        W99519  25.970   5.351   0.426
29705W        W99520  40.886  38.923  12.965
29706W        W99521  22.091  22.657   2.682
29707W        W99522  24.147  27.624  10.588
29708W        W99523  22.724  16.728  14.373
29709W        W99524   7.241  17.627   3.771
29710W        W99525  15.780  41.867  12.468
29711W        W99526  12.163  43.279  12.022
29712W        W99527  13.643  37.490  10.943
29713W        W99528  30.613  19.271   2.195
29714W        W99529  37.002  20.034   4.690
29715W        W99530   9.152  10.249  10.487
29716W        W99531  18.238   8.387  14.952
29717W        W99532  17.234   8.171   2.184
29718W        W99533  43.376  26.208  10.475
29719W        W99534  27.962  35.978   3.270
29720W        W99535  15.261  33.006  13.899
29721W        W99536   3.857  18.181  12.445
29722W        W99537  35.977  20.265  14.946
29723W        W99538   1.935  25.048   0.764
29724W        W99539  28.945  19.643  14.825
29725W        W99540  16.141  21.168  12.432
29726W        W99541   0.919  11.331  10.548
29727W        W99542  12.184  22.086  10.574
29728W        W99543  23.158   7.776  12.081
29729W        W99544  37.897  32.996   2.879
29730W        W99545  39.939  10.358  10.566
29731W        W99546  13.785  13.177   0.321
29732W        W99547  19.123   9.651  11.482
29733W        W99548  38.065  20.702   1.827
29734W        W99549  39.369  43.422   2.693
29735W        W99550  32.524   0.491   0.744
29736W        W99551   6.828  27.597   4.647
29737W        W99552  28.066   5.913  12.865
29738W        W99553  25.122  32.078   2.714
29739W        W99554  24.038   2.882   1.232
29740W        W99555   6.275   5.788   2.901
29741W        W99556  39.949  27.516   0.484
29742W        W99557   4.847  19.739  14.029
29743W        W99558   5.228  17.596  12.024
29744W        W99559  17.755  33.604  11.517
29745W        W99560   5.306  30.553  14.969
29746W        W99561  24.178  19.124  12.893
29747W        W99562  16.762  29.427  10.511
29748W        W99563  18.243  18.626   1.758
29749W        W99564  35.368  25.704   2.862
29750W        W99565  13.243  14.155   4.113
29751W        W99566   9.711  21.163  13.434
29752W        W99567  11.196  14.734  12.971
29753W        W99568  23.146  36.059  10.436
29754W        W99569  32.497   7.401   2.817
29755W        W99570  32.517  40.499  12.912
29756W        W99571  17.190  21.200  13.337
29757W        W99572   6.693  38.488   1.772
29758W        W99573  36.585  20.560   1.932
29759W        W99574  33.016  41.980   1.811
29760W        W99575  34.923  39.427  10.614
29761W        W99576   4.911  39.383  12.071
29762W        W99577  36.586  16.171   2.767
29763W        W99578   6.206  14.214   9.973
29764W        W99579  16.241  30.463  14.850
29765W        W99580  17.639  30.039   4.794
29766W        W99581  12.138  23.005   0.843
29767W        W99582  36.084  28.460  10.943
29768W        W99583  24.684  26.524  12.064
29769W        W99584  24.134  17.143   3.703
29770W        W99585  15.625  17.694  11.886
29771W        W99586  37.508  14.600  12.980
29772W        W99587  22.703  28.635   4.175
29773W        W99588  12.188  40.875   4.184
29774W        W99589  13.833  24.556   1.777
29775W        W99590   8.697  13.737  13.528
29776W        W99591  34.585  12.265   1.252
29777W        W99592  28.535  31.486  12.823
29778W        W99593  20.634  16.721   2.232
29779W        W99594   7.195  24.632   4.625
29780W        W99595  25.216   0.748   4.672
29781W        W99596  24.981  38.455  11.871
29782W        W99597  28.140  17.116   2.281
29783W        W99598  22.624  24.686   4.745
29784W        W99599  33.102  32.502   0.287
29785W        W99600  20.270  10.377  13.414
29786W        W99601  38.403  27.036  12.473
29787W        W99602   7.735   0.764  13.832
29788W        W99603  36.425  13.708  14.395
29789W        W99604  12.679  19.552   3.377
29790W        W99605  41.802  42.799   4.204
29791W        W99606  16.635  20.156  13.319
29792W        W99607  19.124  16.083   3.730
29793W        W99608  21.586  43.019   4.787
29794W        W99609  34.489  28.645  14.780
29795W        W99610  22.631  14.286   2.241
29796W        W99611   4.746   8.704  10.031
29797W        W99612  34.997  28.944  13.821
29798W        W99613  33.563  18.061  11.477
29799W        W99614  15.625  15.094   3.854
29800W        W99615  36.881  14.760  12.003
29801W        W99616   9.709   9.284  10.538
29802W        W99617  40.823   4.793  14.381
29803W        W99618  28.051  34.004   2.860
29804W        W99619   4.842  42.967  11.456
29805W        W99620  21.640  34.452   1.694
29806W        W99621  39.314  20.231  14.492
29807W        W99622  23.996  10.760   1.867
29808W        W99623  23.232   9.889  14.850
29809W        W99624  37.496  11.824  13.326
29810W        W99625  14.626   6.227   3.649
29811W        W99626  34.985  41.971  13.442
29812W        W99627  13.341   5.776  11.517
29813W        W99628   0.438   2.377  11.993
29814W        W99629  12.315  14.702  13.446
29815W        W99630  43.315  27.601  13.024
29816W        W99631  36.950  20.686  11.467
29817W        W99632  33.508  33.116  14.951
29818W        W99633  43.370  25.008  11.503
29819W        W99634  20.717  29.116  14.452
29820W        W99635  44.437  24.611   2.192
29821W        W99636  14.834  38.539  14.383
29822W        W99637  38.437  30.506  13.490
29823W        W99638  39.495  37.446  12.088
29824W        W99639  28.975   7.351  14.341
29825W        W99640   2.297  13.607  12.957
29826W        W99641  16.732  11.272   0.755
29827W        W99642   6.885  25.105  14.869
29828W        W99643   3.881   6.298   2.824
29829W        W99644   2.751   9.309   0.920
29830W        W99645   1.457  19.131  14.482
29831W        W99646  42.926  28.126  10.606
29832W        W99647  36.894  37.910  11.444
29833W        W99648  16.117  21.659   0.464
29834W        W99649  41.792  33.110  10.988
29835W        W99650  14.800  40.367  13.836
29836W        W99651  22.134  42.453  12.991
29837W        W99652  12.199  22.036   1.836
29838W        W99653   3.335  34.483   3.856
29839W        W99654   6.836  23.170   2.305
29840W        W99655  33.877  43.307   4.771
29841W        W99656  33.585  40.919   2.824
29842W        W99657  14.186  22.015  13.498
29843W        W99658  12.710  14.732  13.508
29844W        W99659  10.340  15.237  10.535
29845W        W99660  29.616  41.340   3.286
29846W        W99661   2.265  13.658  14.485
29847W        W99662  14.648  44.971   0.434
29848W        W99663  27.681  25.709   4.274
29849W        W99664  28.590  13.748  11.884
29850W        W99665  27.501  14.760  14.998
29851W        W99666  31.935  27.494  14.806
29852W        W99667   0.973   0.975  10.930
29853W        W99668  14.729   7.201  13.371
29854W        W99669   7.201  44.780  14.461
29855W        W99670   9.395  16.589  10.530
29856W        W99671   2.941  18.641  12.437
29857W        W99672   7.797   0.480  14.322
29858W        W99673  22.697  12.713   2.283
29859W        W99674  17.240   5.688   2.743
29860W        W99675   5.408  21.674   3.168
29861W        W99676  35.511   9.668  13.798
29862W        W99677   4.846  33.620   1.411
29863W        W99678  44.460  12.195  12.084
29864W        W99679  25.616  11.701   1.763
29865W        W99680   9.280   0.315  12.963
29866W        W99681   8.368  41.806  14.278
29867W        W99682  26.539  10.313   4.778
29868W        W99683   2.868  20.638  13.469
29869W        W99684  40.994   1.473   3.243
29870W        W99685  28.148  23.225   4.823
29871W        W99686  39.920  44.411   0.355
29872W        W99687  39.389   9.340   2.683
29873W        W99688  43.813   1.293  13.036
29874W        W99689  33.958   1.858   4.645
29875W        W99690  43.423  37.871   1.707
29876W        W99691  37.391  11.230  12.961
29877W        W99692  27.027  15.635   2.785
29878W        W99693   5.774   0.912  13.040
29879W        W99694  42.017  20.584  11.538
29880W        W99695   2.845  33.455  10.484
29881W        W99696  23.615  40.375  10.144
29882W        W99697   3.847  29.150  10.623
29883W        W99698   1.398   4.314   2.758
29884W        W99699  16.599   9.335  13.850
29885W        W99700  36.505  25.064   0.949
29886W        W99701  18.763   2.854  11.507
29887W        W99702  31.459  20.653   4.807
29888W        W99703  30.062  39.533  12.930
29889W        W99704  27.022   5.194   1.376
29890W        W99705  28.557  16.078  13.820
29891W        W99706  37.360  11.369   0.455
29892W        W99707  37.512  22.130  13.503
29893W        W99708  31.104  36.091   5.249
29894W        W99709  38.993  11.627   0.839
29895W        W99710  30.096  36.857  13.498
29896W        W99711  23.199  25.121  12.048
29897W        W99712  30.459   5.777  13.524
29898W        W99713  15.738  33.934   3.177
29899W        W99714  12.815   2.245  13.386
29900W        W99715  27.542   5.217   0.449
29901W        W99716  27.539  25.117   4.323
29902W        W99717  44.911  36.593   1.431
29903W        W99718  33.580  31.924  11.084
29904W        W99719  13.193   9.723   3.644
29905W        W99720  35.391  12.272  10.993
29906W        W99721  36.486  44.317  12.075
29907W        W99722   4.418   6.712   3.171
29908W        W99723   6.209  44.914  10.968
29909W        W99724  34.506  18.126  11.044
29910W        W99725  35.036  42.962   2.266
29911W        W99726  22.025  43.877  11.876
29912W        W99727  24.572  42.399   4.251
29913W        W99728  15.695   2.825   4.301
29914W        W99729   3.727  39.046  14.309
29915W        W99730  20.176  33.497   4.818
29916W        W99731  15.810  38.488  13.437
29917W        W99732  17.169   8.334   2.894
29918W        W99733  42.960  41.037  12.040
29919W        W99734   7.396  40.877  13.441
29920W        W99735  21.603  11.653   0.855
29921W        W99736   1.417  26.470  12.031
29922W        W99737  18.561  10.326   0.258
29923W        W99738  19.086  18.780   4.184
29924W        W99739  16.230  42.329  13.909
29925W        W99740  18.553  11.222   0.356
29926W        W99741  14.138  23.191   2.816
29927W        W99742  29.972  23.614  11.941
29928W        W99743   4.929  30.476  14.783
29929W        W99744  31.034  13.648  12.863
29930W        W99745  17.573  35.476   3.153
29931W        W99746  40.809  42.940   4.820
29932W        W99747   0.394  32.560   4.134
29933W        W99748   8.345  44.481  12.979
29934W        W99749  27.080  42.312   0.812
29935W        W99750   0.323  12.134  12.361
29936W        W99751   9.281   5.365  14.954
29937W        W99752  14.775  36.076   0.250
29938W        W99753  11.138  28.945  13.345
29939W        W99754  32.092  33.011   3.818
29940W        W99755  40.918  22.626  14.291
29941W        W99756   3.328  43.849  13.988
29942W        W99757  43.453  43.277   0.272
29943W        W99758   6.324  40.033   2.221
29944W        W99759  37.932  38.892  12.462
29945W        W99760  34.590  25.535  14.818
29946W        W99761   9.287  24.530   0.385
29947W        W99762  43.426   6.238  13.037
29948W        W99763   5.308  35.032  13.503
29949W        W99764  19.056  30.517   3.640
29950W        W99765   2.729  32.994  13.351
29951W        W99766  15.782  37.027  10.115
29952W        W99767  36.952  19.119   4.349
29953W        W99768  16.242  24.618   1.257
29954W        W99769   3.414  20.529  11.089
29955W        W99770  31.043  20.172  13.975
29956W        W99771  29.924  22.647  11.497
29957W        W99772  12.672   7.351  14.304
29958W        W99773   0.322   0.366   1.390
29959W        W99774  24.148  28.103  10.621
29960W        W99775   9.262  37.938   2.824
29961W        W99776  18.592  43.946   3.807
29962W        W99777  12.646  41.946  14.940
29963W        W99778  11.829   1.285   0.792
29964W        W99779  26.088  13.743  12.993
29965W        W99780  28.062  16.083   0.443
29966W        W99781   5.252  16.711  13.943
29967W        W99782  40.919  11.303   1.382
29968W        W99783  27.464  34.945  12.379
29969W        W99784   5.403  28.008  11.555
29970W        W99785  27.154  20.549  14.786
29971W        W99786  38.435  36.358   4.156
29972W        W99787  13.607   9.824   4.247
29973W        W99788  13.627   4.297  12.433
29974W        W99789  25.130  41.893   3.835
29975W        W99790  13.795  20.112  13.311
29976W        W99791  18.743  43.836  12.024
29977W        W99792  21.187  37.458   3.373
29978W        W99793  20.187  11.269   3.822
29979W        W99794  10.326   9.818  12.023
29980W        W99795   9.698   9.655   2.249
29981W        W99796  36.870   3.953  11.001
29982W        W99797   2.354  25.206   1.264
29983W        W99798   7.180   9.273  14.028
29984W        W99799   3.906   7.238  10.971
29985W        W99800  39.560  18.779   4.680
29986W        W99801   7.724  29.647  14.799
29987W        W99802  33.511   4.731   9.928
29988W        W99803  42.893   5.339   3.756
29989W        W99804  39.539  44.349  14.831
29990W        W99805  26.688  10.747  13.838
29991W        W99806   7.833   8.354   2.392
29992W        W99807   8.381  26.577  12.360
29993W        W99808  25.478  36.086  10.482
29994W        W99809  23.098   9.382   0.253
29995W        W99810  25.632  22.247   2.855
29996W        W99811   8.861  26.976  11.058
29997W        W99812  10.211  25.538   4.201
29998W        W99813   2.721  39.923  13.422
29999W        W99814   6.850  43.351  10.521
30000W        W99815  16.218  18.111   3.678
30001W        W99816   7.362   1.770  13.343
30002W        W99817  11.756  13.750   1.769
30003W        W99818   7.744  38.560   4.712
30004W        W99819  39.047  27.000   2.703
30005W        W99820  35.106  29.050  13.447
30006W        W99821  22.595  31.148  12.357
30007W        W99822  27.989  36.969   1.315
30008W        W99823  37.485  40.364   3.868
30009W        W99824   2.897  23.157   1.928
30010W        W99825  20.134  44.949  12.942
30011W        W99826  23.071  27.032  11.893
30012W        W99827  21.636   3.858   3.752
30013W        W99828  19.148  25.988  12.359
30014W        W99829  11.126   9.288  10.462
30015W        W99830   2.367  23.041   0.877
30016W        W99831  32.541   5.712  11.048
30017W        W99832  10.671  41.806  13.948
30018W        W99833   0.460  17.158   1.837
30019W        W99834  15.815   6.306   0.479
30020W        W99835  14.772  13.789  10.494
30021W        W99836   4.240  26.612  12.538
30022W        W99837  20.683  34.012   3.329
30023W        W99838  31.143  23.623   0.961
30024W        W99839  22.169  10.183  14.501
30025W        W99840   9.691  20.097   2.729
30026W        W99841  24.172  40.053   9.964
30027W        W99842  29.528  13.328  12.889
30028W        W99843  40.397   6.875  14.431
30029W        W99844   4.208  16.578  14.354
30030W        W99845  21.164  13.655  13.061
30031W        W99846  44.009   1.273  11.574
30032W        W99847  42.473  37.432   2.369
30033W        W99848   1.483  15.638   1.923
30034W        W99849  11.754  32.000  14.870
30035W        W99850  33.602  29.581   1.775
30036W        W99851   3.717  40.030   0.316
30037W        W99852  40.394   5.335   0.914
30038W        W99853  34.047  34.091   3.642
30039W        W99854  13.836  14.729   4.680
30040W        W99855   5.285  31.431   2.704
30041W        W99856   3.858  12.840  11.441
30042W        W99857  20.543   1.860  11.566
30043W        W99858  13.239  23.543  12.084
30044W        W99859  37.987  27.451  11.051
30045W        W99860   5.283  11.812  11.552
30046W        W99861  20.268  44.335  14.395
30047W        W99862  39.392   6.771   3.760
30048W        W99863  43.316  38.453  13.533
30049W        W99864  38.933  26.953  13.919
30050W        W99865  44.400  20.543   4.182
30051W        W99866  19.239  23.074  12.863
30052W        W99867   0.897  29.450   0.417
30053W        W99868  18.224  15.208  13.359
30054W        W99869   2.364  43.349   1.759
30055W        W99870  10.175  33.929  14.804
30056W        W99871  35.581  14.168   1.311
30057W        W99872  43.939  14.149   2.678
30058W        W99873   1.276   5.822   2.899
30059W        W99874  37.964  27.449  14.982
30060W        W99875  34.090  34.944  10.037
30061W        W99876  17.793  32.993  13.441
30062W        W99877   2.750  20.173   1.778
30063W        W99878  12.751  39.969   4.706
30064W        W99879  15.204   8.192   0.418
30065W        W99880  12.668  42.296   4.751
30066W        W99881  13.798  13.764  13.923
30067W        W99882  13.192  31.153  11.023
30068W        W99883  32.029  35.438   5.178
30069W        W99884   4.448  23.569  13.499
30070W        W99885   3.782  10.296   3.238
30071W        W99886   7.385  13.779   0.362
30072W        W99887   2.925   3.760   1.303
30073W        W99888  32.461  12.357  11.093
30074W        W99889   4.699  27.008  13.041
30075W        W99890  14.163  23.501  14.864
30076W        W99891  32.943   9.183  14.373
30077W        W99892  40.371   7.271   4.295
30078W        W99893  15.800  17.207  14.029
30079W        W99894   1.303  25.063  11.423
30080W        W99895  20.080  18.225   4.814
30081W        W99896  14.283   0.753   4.228
30082W        W99897   8.394  15.608  10.619
30083W        W99898  17.573  24.983  11.558
30084W        W99899  28.554   4.350  13.397
30085W        W99900  39.443  21.131  12.504
30086W        W99901  13.248  22.237  13.931
30087W        W99902  30.107   0.841   1.850
30088W        W99903  18.276  22.195  13.486
30089W        W99904   0.794  41.005  10.539
30090W        W99905  16.768   2.386  12.862
30091W        W99906   7.896  15.758   0.838
30092W        W99907  11.271  36.024  14.890
30093W        W99908  43.273  40.441   4.287
30094W        W99909  40.424   8.163  13.437
30095W        W99910  12.208  37.875  14.460
30096W        W99911  25.007  25.489   1.413
30097W        W99912  37.045  14.192   0.833
30098W        W99913  14.769  30.582  11.911
30099W        W99914   2.248  19.683  11.091
30100W        W99915   9.715  30.016   2.393
30101W        W99916  36.495  40.457   5.215
30102W        W99917   3.370  32.890   1.295
30103W        W99918  32.119  32.581   3.670
30104W        W99919   2.450  22.083  14.310
30105W        W99920  20.226  24.600   3.361
30106W        W99921  19.561  32.103   2.708
30107W        W99922  34.398  29.461  13.432
30108W        W99923  13.288   4.894  11.584
30109W        W99924  40.004  11.700  10.436
30110W        W99925  31.569  39.048  14.955
30111W        W99926  11.838   2.461  13.879
30112W        W99927  25.155   6.718  12.855
30113W        W99928  31.967  28.025   3.784
30114W        W99929  30.640  11.215  11.126
30115W        W99930  37.893  12.644  14.508
30116W        W99931  41.022  36.520  11.926
30117W        W99932   7.812  20.696   2.893
30118W        W99933  31.549  19.184  10.625
30119W        W99934  42.008  31.047  13.330
30120W        W99935  44.337  21.145   0.890
30121W        W99936  13.800  26.126   4.284
30122W        W99937  29.470  37.887  11.911
30123W        W99938  10.159  25.194  14.907
30124W        W99939  24.046   4.341  13.383
30125W        W99940  17.195  29.970   2.732
30126W        W99941   1.357  37.006  14.789
30127W        W99942  40.345  19.604   3.250
30128W        W99943  32.946  31.584  13.393
30129W        W99944  32.012  10.158  13.333
30130W        W99945  18.659   1.803  11.949
30131W        W99946  18.621  14.097  14.369
30132W        W99947   7.807   0.347  10.450
30133W        W99948  26.665  30.131   1.229
30134W        W99949  30.577   9.259  13.919
30135W        W99950  29.605   1.340   2.350
30136W        W99951  20.703  24.065   3.807
30137W        W99952  38.532  10.251  12.351
30138W        W99953  43.816  38.399   4.782
30139W        W99954   2.908  21.228   4.140
30140W        W99955   5.898  37.930  12.837
30141W        W99956  35.953  19.208   3.276
30142W        W99957  30.641  39.042   2.261
30143W        W99958   2.406  27.674   0.759
30144W        W99959  39.997  43.318   2.787
30145W        W99960   9.885  43.980  13.386
30146W        W99961  39.478  43.775  12.844
30147W        W99962  35.393  37.483   4.328
30148W        W99963   6.292  27.944   3.870
30149W        W99964  18.635  31.535  10.622
30150W        W99965  14.694  15.183  12.933
30151W        W99966  16.645  16.573  14.323
30152W        W99967  24.193   6.367   4.665
30153W        W99968  13.647   7.305  11.457
30154W        W99969  24.994   4.208  11.398
30155W        W99970  44.426  22.995  12.486
30156W        W99971  15.144  17.587   3.208
30157W        W99972  20.572   0.768   0.326
30158W        W99973  11.164  34.569  12.418
30159W        W99974  41.449  21.224  10.129
30160W        W99975  35.533  17.294   3.228
30161W        W99976  15.698  27.991   5.284
30162W        W99977  11.135  37.071   1.326
30163W        W99978  43.816  14.106   3.720
30164W        W99979   1.255  22.643  14.008
30165W        W99980  38.404  14.694  11.427
30166W        W99981  18.266  21.646  14.014
30167W        W99982  14.276  29.650  14.452
30168W        W99983   4.243  18.731   4.339
30169W        W99984  31.050  35.944   4.254
30170W        W99985  17.126   0.844  14.460
30171W        W99986  35.999   5.725  13.894
30172W        W99987  20.563  27.477  11.012
30173W        W99988  11.804  27.502  14.982
30174W        W99989  14.711   8.796   2.826
30175W        W99990   0.954   1.878   5.194
30176W        W99991  30.609  20.248  14.403
30177W        W99992   2.721  22.507   0.344
30178W        W99993  30.031  40.935   3.839
30179W        W99994  32.520   1.788   0.853
30180W        W99995   3.454  17.064  13.463
30181W        W99996   1.260  39.854  14.369
30182W        W99997  42.452  16.772  10.542
30183W        W99998  16.581  40.940  13.030
30184W        W99999   0.970  20.222  12.049
30185W        W    0  24.225  32.473  12.866
30186W        W    1  23.490  14.264  13.953
30187W        W    2  25.541   5.393   3.832
30188W        W    3  17.088  11.809   4.640
30189W        W    4  40.505  44.288   3.640
30190W        W    5  13.834  38.558   0.464
30191W        W    6  42.986  43.786   0.252
30192W        W    7  23.580  25.520  10.967
30193W        W    8  37.839  39.315  14.287
30194W        W    9  29.551  19.260  14.852
30195W        W   10  41.014  42.954  14.322
30196W        W   11  24.065   1.304   1.417
30197W        W   12  17.712  18.072   4.631
30198W        W   13   3.809  18.220   0.376
30199W        W   14  10.320   6.370   1.321
30200W        W   15   2.848  22.201   1.231
30201W        W   16  21.698   2.292   2.713
30202W        W   17   4.337  25.631  10.465
30203W        W   18  43.401  36.962  12.828
30204W        W   19  18.235  11.219  14.380
30205W        W   20  11.243   0.471  10.601
30206W        W   21   0.924  35.934   1.767
30207W        W   22  28.158   4.345  14.422
30208W        W   23  21.737  23.598  14.822
30209W        W   24  13.266  42.470   3.732
30210W        W   25   0.323  41.890  13.919
30211W        W   26  16.172   0.423   1.819
30212W        W   27  19.205  19.146  14.514
30213W        W   28  12.140  13.108   3.371
30214W        W   29  28.677  34.420   1.235
30215W        W   30  18.784  40.440  12.473
30216W        W   31  41.447   0.259  12.922
30217W        W   32  19.648  20.116  12.573
30218W        W   33   8.306  24.589  11.038
30219W        W   34  36.021  30.075  13.375
30220W        W   35  25.564  21.102   1.236
30221W        W   36  29.485  23.715   4.723
30222W        W   37  25.086  16.313  11.607
30223W        W   38  16.086   1.748  12.493
30224W        W   39  29.095  35.890  13.909
30225W        W   40  11.252  34.539   0.896
30226W        W   41   5.229  10.761  13.857
30227W        W   42  31.454  36.590   3.244
30228W        W   43  38.974  23.555   1.793
30229W        W   44  18.625  21.075  10.515
30230W        W   45   4.312  18.142   4.777
30231W        W   46  38.906  42.896   2.392
30232W        W   47  35.947  38.352   4.146
30233W        W   48  39.895  35.420  12.405
30234W        W   49  30.949  43.455  12.880
30235W        W   50  30.545   1.274  13.444
30236W        W   51   6.390  38.034   4.117
30237W        W   52  11.834  14.796   0.448
30238W        W   53  41.917  40.860   3.694
30239W        W   54   5.787  30.004   1.775
30240W        W   55  43.324  15.105  13.517
30241W        W   56  37.842   2.421   0.348
30242W        W   57  26.462  19.140  13.988
30243W        W   58  17.147   0.969  12.504
30244W        W   59  33.531  19.185  13.500
30245W        W   60   4.281  26.689   1.795
30246W        W   61  15.267  35.864  11.577
30247W        W   62  16.629  39.326   1.916
30248W        W   63  25.965  36.949   3.713
30249W        W   64   1.473  12.849  12.407
30250W        W   65  40.468  15.218   0.373
30251W        W   66  26.497  41.409  11.601
30252W        W   67  16.222   5.800   1.273
30253W        W   68  18.616  26.538   3.778
30254W        W   69  28.671  33.383   0.384
30255W        W   70  34.077  34.936   3.219
30256W        W   71  33.028  28.668   3.700
30257W        W   72  41.444  18.065   2.316
30258W        W   73  37.921  35.406   1.807
30259W        W   74  41.450  37.551   3.714
30260W        W   75  36.079  12.170  11.989
30261W        W   76  43.840  44.993  11.536
30262W        W   77  43.458   4.264  10.437
30263W        W   78   3.950  42.956  11.873
30264W        W   79   6.428  35.595  11.881
30265W        W   80  12.690   6.185   3.346
30266W        W   81  11.304  40.507   2.260
30267W        W   82   9.661  18.272   9.993
30268W        W   83  18.063   2.831   1.876
30269W        W   84  38.071  41.944  11.047
30270W        W   85  38.350  12.307  10.579
30271W        W   86  12.206  28.076   0.899
30272W        W   87  11.690   8.668   2.882
30273W        W   88  20.071  16.239  14.840
30274W        W   89  40.811  22.200   3.271
30275W        W   90   7.772  24.005  13.311
30276W        W   91  36.903  23.159  14.862
30277W        W   92  11.849  22.699  11.076
30278W        W   93  32.606  12.362  12.526
30279W        W   94  16.786  15.618   1.349
30280W        W   95  33.033   3.826  11.385
30281W        W   96  37.061  42.487  14.889
30282W        W   97  32.451  28.646   3.288
30283W        W   98   2.833  31.629  12.866
30284W        W   99   0.322  25.510   4.309
30285W        W  100  25.638   3.444   4.669
30286W        W  101  30.024  42.308  14.302
30287W        W  102  20.256  43.880  12.078
30288W        W  103  35.452  28.654   3.786
30289W        W  104  10.863   2.946   4.685
30290W        W  105  15.807  23.229  12.094
30291W        W  106  37.390  21.220   3.867
30292W        W  107  40.414  11.732   3.187
30293W        W  108  24.078  16.706   4.727
30294W        W  109  42.846  20.705   1.862
30295W        W  110   2.281  38.539  11.477
30296W        W  111  12.821   1.896  10.493
30297W        W  112  27.129  38.849  13.519
30298W        W  113  43.007   2.820  13.374
30299W        W  114   6.194  40.868  12.459
30300W        W  115  18.222  29.116   2.348
30301W        W  116   1.261   9.244  11.044
30302W        W  117  12.129  17.664   4.171
30303W        W  118  13.742   7.182  12.891
30304W        W  119  24.503  21.729  10.404
30305W        W  120  24.173  14.631  12.904
30306W        W  121   9.722   1.447   1.764
30307W        W  122  28.513   3.710   4.786
30308W        W  123   8.322   1.952   3.343
30309W        W  124  40.803  43.498   1.412
30310W        W  125  22.716   0.813  10.897
30311W        W  126   0.825  32.512  12.576
30312W        W  127  19.121   2.863  11.415
30313W        W  128  35.898  21.718  12.927
30314W        W  129  14.728  29.541  10.435
30315W        W  130  29.994  36.443  10.970
30316W        W  131  27.994  14.108  13.333
30317W        W  132  25.471  44.818  10.471
30318W        W  133  32.976  16.808   3.164
30319W        W  134  19.129  39.880   2.766
30320W        W  135  39.820   9.256  12.503
30321W        W  136   2.857   0.845   2.671
30322W        W  137  24.582   2.326  13.043
30323W        W  138  14.649  10.872   3.313
30324W        W  139   1.882  21.666   4.658
30325W        W  140  35.969   4.238   4.305
30326W        W  141  27.623  40.048   3.709
30327W        W  142  36.582   6.891  11.074
30328W        W  143  41.894  20.264  10.635
30329W        W  144   0.920  13.232   2.342
30330W        W  145  28.452  23.721  12.412
30331W        W  146   5.270  14.302   2.716
30332W        W  147   5.350  32.990  10.631
30333W        W  148   2.324  41.370  12.009
30334W        W  149  10.293  30.433   4.836
30335W        W  150  18.178  37.492   2.682
30336W        W  151   1.353  17.112   1.442
30337W        W  152  38.017  33.440   1.891
30338W        W  153  26.693  19.055   1.867
30339W        W  154  24.165  21.667   0.790
30340W        W  155  15.185  12.188   4.198
30341W        W  156  35.410  40.810  12.013
30342W        W  157  31.142  15.278   1.816
30343W        W  158  13.639   9.727  14.437
30344W        W  159  25.592  35.536  14.991
30345W        W  160  30.059  33.933  12.894
30346W        W  161   5.877  32.100  12.564
30347W        W  162   5.790   2.740  12.565
30348W        W  163  37.867  41.898   0.837
30349W        W  164   9.298   8.746   2.871
30350W        W  165  41.495   7.829  11.581
30351W        W  166  33.616  43.396  11.550
30352W        W  167  18.140  11.278  10.581
30353W        W  168   7.764  24.172  11.045
30354W        W  169  15.810   5.405  10.422
30355W        W  170  25.201   6.737   1.294
30356W        W  171   5.757   6.872  12.471
30357W        W  172  31.461  40.973   3.199
30358W        W  173   5.801  40.307  10.420
30359W        W  174  41.469  13.255  12.904
30360W        W  175   7.364  17.593  14.510
30361W        W  176  38.010   8.831  11.065
30362W        W  177  31.643  39.327   0.773
30363W        W  178  28.083  11.144  12.395
30364W        W  179  19.730  40.362   2.884
30365W        W  180  32.409   9.814   2.757
30366W        W  181  14.695  10.756   2.687
30367W        W  182  41.811  41.992  14.862
30368W        W  183  31.571   2.317   4.630
30369W        W  184  35.985  13.276  12.565
30370W        W  185  16.733  33.888   3.205
30371W        W  186  24.181  23.061  13.029
30372W        W  187  35.921  30.994  11.454
30373W        W  188  15.686  25.565   4.756
30374W        W  189   6.269  12.253  11.442
30375W        W  190  19.107  22.244   3.814
30376W        W  191  11.690  39.881  11.961
30377W        W  192  14.685   8.895  12.380
30378W        W  193  22.702   3.225   1.398
30379W        W  194  22.151  17.568   1.328
30380W        W  195   3.734  36.949  11.574
30381W        W  196  10.840  30.918  13.965
30382W        W  197  44.966   7.240  10.493
30383W        W  198   8.290  40.418   2.397
30384W        W  199  16.224   7.357   3.827
30385W        W  200   9.359  35.456   3.203
30386W        W  201  23.548   3.247   3.740
30387W        W  202  26.500  10.185   2.787
30388W        W  203  29.433  25.680  12.016
30389W        W  204  27.596  34.078  10.428
30390W        W  205  22.646  30.148   1.917
30391W        W  206   2.953  19.047  13.809
30392W        W  207  30.917  29.116  11.901
30393W        W  208   0.845   3.369  10.100
30394W        W  209  14.118  13.119   0.920
30395W        W  210  22.076  27.087   0.745
30396W        W  211  42.932  41.304  11.874
30397W        W  212  42.784  18.118  11.586
30398W        W  213   3.415  28.590  12.431
30399W        W  214  33.038   1.448  14.447
30400W        W  215  35.975  30.946  14.490
30401W        W  216  40.429  12.648   1.280
30402W        W  217  44.438   7.291  14.820
30403W        W  218  23.609  42.902  14.306
30404W        W  219   9.677   1.261   1.279
30405W        W  220  39.819  32.913  10.972
30406W        W  221  24.711  35.056   3.679
30407W        W  222  30.618   4.269   1.267
30408W        W  223  44.380  39.914   4.680
30409W        W  224  25.478  43.987  12.862
30410W        W  225  38.406  21.245   2.767
30411W        W  226  22.141   2.722   1.226
30412W        W  227  39.322   7.208   0.245
30413W        W  228  15.193  29.436   4.226
30414W        W  229   8.726  12.722  13.357
30415W        W  230  33.889  14.646   4.729
30416W        W  231  36.863   3.379   1.783
30417W        W  232   9.235  36.004   2.212
30418W        W  233  36.084  26.061   4.670
30419W        W  234  32.623   0.852   3.222
30420W        W  235   0.866  25.200   5.121
30421W        W  236  16.593  15.232   4.751
30422W        W  237  21.217  32.449   1.242
30423W        W  238  43.506  30.972   3.739
30424W        W  239  44.992  15.274  12.082
30425W        W  240  22.515  36.098   3.147
30426W        W  241  18.130   3.777   4.281
30427W        W  242  28.549  12.333  14.435
30428W        W  243  41.455  33.950   0.451
30429W        W  244  39.053  30.065   0.299
30430W        W  245  41.892   2.424  14.943
30431W        W  246  31.098   8.813   5.160
30432W        W  247  24.501  36.564   4.797
30433W        W  248  33.929   9.842   1.871
30434W        W  249  31.640   2.235  12.341
30435W        W  250  35.866   2.409   1.450
30436W        W  251   2.416  43.000   1.401
30437W        W  252  30.997  23.580  13.542
30438W        W  253   8.254  24.124   2.695
30439W        W  254  23.177  20.734  13.365
30440W        W  255  14.795  32.127   4.131
30441W        W  256  30.157  18.205  14.851
30442W        W  257  29.162  34.097   4.815
30443W        W  258  33.391  24.712  12.427
30444W        W  259  12.228  40.010  13.498
30445W        W  260  33.080  28.615  14.937
30446W        W  261  23.196  16.655   5.138
30447W        W  262  13.671   2.730   0.941
30448W        W  263  42.963  15.108   1.429
30449W        W  264  33.876  17.697  13.913
30450W        W  265  36.384  23.639  14.281
30451W        W  266  34.033  10.871   3.227
30452W        W  267  19.625  29.109   4.816
30453W        W  268  31.476  18.126  11.419
30454W        W  269   1.457  41.958   2.328
30455W        W  270  18.703  23.668  13.878
30456W        W  271  35.572  42.836  12.074
30457W        W  272  13.283  11.844   5.132
30458W        W  273   4.828  29.978  14.354
30459W        W  274  25.626  21.094  13.997
30460W        W  275  11.153   2.428  12.860
30461W        W  276  30.532  17.307  11.000
30462W        W  277  19.121  31.001   1.325
30463W        W  278  34.045  23.681  11.542
30464W        W  279  27.162   2.899   2.752
30465W        W  280  14.211   7.817   0.321
30466W        W  281  39.405   1.445   1.407
30467W        W  282  35.496  40.046   1.344
30468W        W  283   0.292  15.132   3.773
30469W        W  284   1.842  16.769   0.909
30470W        W  285  10.863  40.533  10.024
30471W        W  286  22.116  29.141  14.836
30472W        W  287  36.062  36.853   2.390
30473W        W  288  22.168  27.474   1.830
30474W        W  289   9.220  40.853  12.017
30475W        W  290  44.000   3.946  13.012
30476W        W  291  15.730  31.151  13.011
30477W        W  292  26.536  43.323   0.744
30478W        W  293  26.152  30.918   3.224
30479W        W  294  31.638  22.076   4.711
30480W        W  295  13.134  32.055  10.426
30481W        W  296  19.237   5.743  10.437
30482W        W  297  43.883  43.949  11.531
30483W        W  298  34.109  44.949  14.009
30484W        W  299  40.863   1.942   0.406
30485W        W  300   9.206  26.151   2.677
30486W        W  301  43.388  41.962   2.878
30487W        W  302  36.961   3.909   2.233
30488W        W  303  29.032   9.691  12.907
30489W        W  304  41.792  41.919  12.405
30490W        W  305  40.905  15.769  14.909
30491W        W  306  26.572   9.158  10.950
30492W        W  307  34.869  35.552  13.513
30493W        W  308  37.500  38.840   4.237
30494W        W  309  30.513  23.119  10.475
30495W        W  310  29.533  24.139   1.255
30496W        W  311  27.547   3.391  13.988
30497W        W  312  30.509  41.346   1.375
30498W        W  313  40.490   4.394   4.670
30499W        W  314  25.551  19.272   2.773
30500W        W  315  16.739  24.720  12.853
30501W        W  316  32.424  18.709  11.534
30502W        W  317  17.565   0.872  12.568
30503W        W  318   4.942  10.720   1.785
30504W        W  319  24.088   5.839  11.016
30505W        W  320   0.826  38.337   2.225
30506W        W  321  21.529  33.937  13.997
30507W        W  322  24.001  32.535   4.347
30508W        W  323  39.524   1.299  12.038
30509W        W  324  25.058  11.235   3.743
30510W        W  325  42.954   4.741  11.414
30511W        W  326  33.122  42.933  11.450
30512W        W  327   0.446   8.815   3.159
30513W        W  328  18.636  21.642   2.783
30514W        W  329  26.494  42.478   2.290
30515W        W  330  27.144  23.592   2.680
30516W        W  331  42.496  10.296  11.936
30517W        W  332   0.834  28.170  12.469
30518W        W  333  22.125  37.082  11.488
30519W        W  334  15.791  25.611   0.951
30520W        W  335  30.042  10.195   4.158
30521W        W  336  44.267  26.484  10.936
30522W        W  337  40.908  15.211   4.642
30523W        W  338  29.571   1.400   0.914
30524W        W  339  22.181  18.175  12.058
30525W        W  340  22.699  21.716  14.896
30526W        W  341  28.483  44.880   2.713
30527W        W  342   6.272  12.159  12.538
30528W        W  343  26.977   2.253   2.263
30529W        W  344  34.883  12.279   1.263
30530W        W  345   3.404  16.291   4.225
30531W        W  346  22.139   1.783   3.700
30532W        W  347  20.077   8.287   0.885
30533W        W  348  36.555   2.309   1.899
30534W        W  349  26.685  44.478   3.857
30535W        W  350  44.825  29.064   4.697
30536W        W  351  27.647   7.298   0.428
30537W        W  352  31.051  30.656   3.827
30538W        W  353  34.429  42.373   3.322
30539W        W  354  35.931  39.549   1.397
30540W        W  355  27.568  26.063   2.330
30541W        W  356  27.602  26.078  13.839
30542W        W  357  34.951  40.395  12.484
30543W        W  358  27.585  17.644  13.912
30544W        W  359  27.543  42.818   3.634
30545W        W  360  20.742  33.527   1.424
30546W        W  361  39.376  26.486   0.340
30547W        W  362  39.967  16.180   1.834
30548W        W  363   9.795   4.881   4.249
30549W        W  364  38.372  40.873  14.425
30550W        W  365  22.147  11.277  12.870
30551W        W  366  37.571  26.675   2.276
30552W        W  367  34.876  43.776  10.943
30553W        W  368  22.121  26.465  12.861
30554W        W  369   8.173  10.231  13.041
30555W        W  370   6.727  37.048   0.914
30556W        W  371  27.962  44.961  13.854
30557W        W  372  43.775   7.249  13.537
30558W        W  373  18.295  44.369   0.269
30559W        W  374  30.972  26.042  10.443
30560W        W  375  16.243  27.958  13.977
30561W        W  376  33.445  32.391  10.565
30562W        W  377  35.531  44.281  14.384
30563W        W  378  22.696  20.693  11.098
30564W        W  379  36.968  34.481  13.400
30565W        W  380  31.583   1.959  14.838
30566W        W  381  21.608  17.229   2.743
30567W        W  382  34.868  42.313  13.417
30568W        W  383  11.172  44.468   9.953
30569W        W  384  33.618  37.473   0.380
30570W        W  385  40.328  38.472   3.205
30571W        W  386  16.226  17.743  12.549
30572W        W  387  12.128  25.080   0.730
30573W        W  388  15.643  41.511   3.333
30574W        W  389  13.820   0.744   3.290
30575W        W  390  40.414  44.388   2.337
30576W        W  391   3.282   8.189  12.563
30577W        W  392   6.832  39.819   4.305
30578W        W  393  33.100  28.128   1.725
30579W        W  394   4.820  44.361   3.353
30580W        W  395   3.297  16.574   1.356
30581W        W  396  23.565  15.172  12.408
30582W        W  397   5.400  31.584  12.002
30583W        W  398  14.726   3.266   1.295
30584W        W  399  13.750  25.080  13.430
30585W        W  400  44.270  15.690  12.047
30586W        W  401  41.807  18.675  14.457
30587W        W  402  30.071  36.095   3.833
30588W        W  403   6.913  34.373   3.246
30589W        W  404   7.706   9.387   0.873
30590W        W  405  18.227   1.874  11.909
30591W        W  406  18.666  43.867  14.769
30592W        W  407  31.989  38.935   3.326
30593W        W  408   7.260  42.313  14.961
30594W        W  409  41.793   9.329  10.570
30595W        W  410  40.855  23.559   1.869
30596W        W  411  44.944   0.415   2.763
30597W        W  412  39.843  28.037   0.289
30598W        W  413  32.510  17.566  12.392
30599W        W  414  28.664  42.002  13.027
30600W        W  415  18.255  43.972   1.907
30601W        W  416   2.916  22.621   0.739
30602W        W  417  19.554  35.440  10.592
30603W        W  418  18.276  37.542   4.701
30604W        W  419  38.978  29.930  10.454
30605W        W  420  29.923  19.758   2.883
30606W        W  421   0.472  13.669  12.085
30607W        W  422   9.207   7.896  14.849
30608W        W  423   4.253  34.584  11.933
30609W        W  424   6.214  27.001  14.850
30610W        W  425  27.674  17.611  12.433
30611W        W  426   8.878   2.815  13.496
30612W        W  427  18.181  43.856  10.425
30613W        W  428   9.886  25.128  13.885
30614W        W  429  30.068  20.751   2.829
30615W        W  430  33.969  23.706   2.219
30616W        W  431  27.572  38.997  12.976
30617W        W  432  15.668  10.371  11.504
30618W        W  433  42.450  40.303   2.181
30619W        W  434  10.639  43.932  13.820
30620W        W  435  36.390  34.590   3.702
30621W        W  436  39.056  30.048   3.269
30622W        W  437  40.973   1.910  13.902
30623W        W  438  37.348  28.118  13.408
30624W        W  439  30.623  25.688  13.825
30625W        W  440  37.874  11.798   3.189
30626W        W  441   3.426  10.878   4.285
30627W        W  442  39.875  40.855   3.318
30628W        W  443   3.907   5.739  12.375
30629W        W  444  44.865  22.162  14.449
30630W        W  445  35.377  21.203   3.684
30631W        W  446  44.782  29.485  14.023
30632W        W  447   0.929  41.388  11.495
30633W        W  448  36.528  23.498   2.409
30634W        W  449  38.424  41.951   1.810
30635W        W  450  40.905  31.594   1.379
30636W        W  451  15.640  36.558  10.478
30637W        W  452  25.568  17.093   0.946
30638W        W  453  15.243  31.923  13.327
30639W        W  454  31.941  38.561   3.871
30640W        W  455  32.537  42.966   0.461
30641W        W  456  41.399  28.953  11.978
30642W        W  457   8.170  10.736  13.314
30643W        W  458  12.256  10.264   1.403
30644W        W  459  17.738  30.048   3.299
30645W        W  460   8.367   2.832   3.351
30646W        W  461  28.487  21.626   4.747
30647W        W  462  26.472  16.095  11.080
30648W        W  463  23.532   3.352  13.455
30649W        W  464   6.279  31.402   1.796
30650W        W  465  25.074  12.824   4.346
30651W        W  466  12.290  27.000   3.814
30652W        W  467  36.083  20.043  10.922
30653W        W  468  40.533  18.120  12.425
30654W        W  469   9.802   0.358   0.392
30655W        W  470  44.917  22.042   4.342
30656W        W  471   4.762  10.837   4.328
30657W        W  472  35.974  27.140  10.435
30658W        W  473   9.151  35.857   4.706
30659W        W  474  36.512  23.174  11.596
30660W        W  475  18.593   0.348   4.157
30661W        W  476  28.088  37.963   0.357
30662W        W  477  38.420   4.821  10.142
30663W        W  478  41.372  11.202  11.126
30664W        W  479  32.005  36.017  14.813
30665W        W  480  35.430  16.198   2.673
30666W        W  481   0.413  18.671  10.511
30667W        W  482  15.273  36.488  13.386
30668W        W  483  23.714  28.567  10.899
30669W        W  484  27.573  21.699  13.414
30670W        W  485  35.596  17.218  13.451
30671W        W  486  27.084  37.088  12.003
30672W        W  487  11.133  16.715   4.601
30673W        W  488  13.234   1.932  11.389
30674W        W  489  44.958   2.886  11.965
30675W        W  490  20.220  14.684  13.033
30676W        W  491  30.619  40.022  12.051
30677W        W  492  38.850  20.273   4.311
30678W        W  493  25.127  28.055  10.636
30679W        W  494   2.333  43.806  14.843
30680W        W  495  14.292  15.620   0.823
30681W        W  496  40.013  42.380   0.882
30682W        W  497  38.553  24.712   1.245
30683W        W  498  39.474  24.713  14.947
30684W        W  499   5.348  29.492   1.349
30685W        W  500   3.323  23.200   4.744
30686W        W  501   0.490  24.507   0.373
30687W        W  502   2.333  17.683  10.536
30688W        W  503  40.832  39.340   0.849
30689W        W  504  41.026   4.306   3.671
30690W        W  505  23.209  28.187   3.830
30691W        W  506  31.067  25.021  14.452
30692W        W  507  14.323  38.541   0.769
30693W        W  508   6.906  28.587   2.190
30694W        W  509  42.299   8.743  14.421
30695W        W  510   7.371  31.950   4.810
30696W        W  511   0.850  29.924   4.701
30697W        W  512  40.466  26.068  13.482
30698W        W  513  32.554   7.669  14.860
30699W        W  514  30.492  44.990  11.910
30700W        W  515  11.325   0.449  14.912
30701W        W  516  30.138  11.207   0.919
30702W        W  517  24.604  35.995   0.797
30703W        W  518  27.544  19.634   1.867
30704W        W  519  40.462  29.153  14.803
30705W        W  520   5.386  10.854   1.448
30706W        W  521  42.951  37.979   2.887
30707W        W  522  30.528  27.962   4.189
30708W        W  523  43.470   5.841   4.201
30709W        W  524  34.369  22.244   0.340
30710W        W  525  24.029  22.048  11.953
30711W        W  526   2.385  39.555  14.760
30712W        W  527  20.145  14.327   1.910
30713W        W  528  19.169   4.298   3.729
30714W        W  529   2.359  10.857  12.421
30715W        W  530  39.828  27.945   3.385
30716W        W  531  36.886   0.305  12.886
30717W        W  532   4.340   8.832   2.216
30718W        W  533   9.859  21.261  14.824
30719W        W  534  34.027  18.291  12.500
30720W        W  535  14.707  23.170  10.943
30721W        W  536  23.017  43.309   0.247
30722W        W  537  21.044  25.029  14.408
30723W        W  538  25.625  26.070   0.777
30724W        W  539  28.969  41.474  14.842
30725W        W  540  16.209  10.722   1.343
30726W        W  541  14.101  28.574  13.534
30727W        W  542  38.847   5.782   0.382
30728W        W  543  11.739  30.934  13.977
30729W        W  544  17.111  25.624  11.588
30730W        W  545  38.819   5.765  12.387
30731W        W  546  41.380  10.202  10.641
30732W        W  547  24.164   9.838   1.253
30733W        W  548  38.833  13.332   4.836
30734W        W  549  13.177   0.373   2.827
30735W        W  550  18.769  15.272   4.267
30736W        W  551  18.573  27.975   0.809
30737W        W  552  41.317  31.972  13.495
30738W        W  553  22.533  25.675  11.456
30739W        W  554  38.831  41.862  10.493
30740W        W  555  30.483  39.404   4.130
30741W        W  556  34.504   5.847  10.599
30742W        W  557  15.600  16.212  12.382
30743W        W  558  19.579  17.252  13.024
30744W        W  559  24.998  35.402  13.485
30745W        W  560  27.663  34.528  12.079
30746W        W  561  26.630  11.732   2.411
30747W        W  562  42.961  11.360  14.301
30748W        W  563  19.225  16.593   3.681
30749W        W  564   5.799  34.956  10.916
30750W        W  565   6.333  18.137   2.775
30751W        W  566  17.666  34.091   3.151
30752W        W  567  30.940  29.492   0.419
30753W        W  568  44.782  28.953  13.822
30754W        W  569  30.103  40.842  12.547
30755W        W  570  39.441  24.528   1.231
30756W        W  571  21.196  30.980  10.518
30757W        W  572  17.164   7.365   2.409
30758W        W  573   3.816  42.375  13.393
30759W        W  574  10.330  35.984   0.816
30760W        W  575  16.114  32.566   0.263
30761W        W  576  12.290   5.743   4.631
30762W        W  577  30.983   1.440  13.523
30763W        W  578  17.074  21.736   0.763
30764W        W  579  43.280  41.411  10.410
30765W        W  580  12.159  28.158  11.607
30766W        W  581  31.081  14.100   4.613
30767W        W  582  36.972  29.621  12.366
30768W        W  583   7.748   0.819   5.230
30769W        W  584  23.666  21.024   3.278
30770W        W  585   8.175   8.697  13.997
30771W        W  586  37.528  20.608   2.237
30772W        W  587   9.665   6.724  13.809
30773W        W  588  24.133  14.769  14.930
30774W        W  589  20.574  20.063  11.931
30775W        W  590  37.393  43.009   0.759
30776W        W  591  16.268  34.610   0.930
30777W        W  592  42.333   3.911  14.311
30778W        W  593  31.555  44.829  13.802
30779W        W  594  36.429   9.261  12.091
30780W        W  595   7.909  15.174  13.838
30781W        W  596  38.885  41.960   4.258
30782W        W  597  22.102  15.716  10.459
30783W        W  598  39.015  27.103  10.526
30784W        W  599  25.968  23.646  14.427
30785W        W  600   5.213   9.180  12.503
30786W        W  601   1.758  28.554   2.361
30787W        W  602   2.749  24.589   1.238
30788W        W  603  35.916   6.758   3.819
30789W        W  604  21.248  12.326   3.312
30790W        W  605  38.337  32.093   3.387
30791W        W  606   7.299  20.076   4.687
30792W        W  607  18.192  37.541   2.195
30793W        W  608  21.604  25.572  11.604
30794W        W  609  40.423  42.434  11.899
30795W        W  610   4.396  41.899  14.321
30796W        W  611  32.603  21.153   3.846
30797W        W  612  31.584  21.070  12.094
30798W        W  613  26.673   7.722  14.303
30799W        W  614  18.263  39.991  11.497
30800W        W  615  27.621  12.308   5.198
30801W        W  616  28.517   1.892   1.299
30802W        W  617  14.788  33.025   2.309
30803W        W  618  36.427  29.659  13.935
30804W        W  619  34.447  38.839  10.992
30805W        W  620  27.110  37.371  12.886
30806W        W  621  32.054  41.827  14.856
30807W        W  622  42.325  13.750  12.948
30808W        W  623   0.483  20.107   1.279
30809W        W  624   5.696  39.383   3.758
30810W        W  625  23.225  10.249  12.929
30811W        W  626   8.261  31.475  14.309
30812W        W  627  34.930  34.998  14.295
30813W        W  628   0.854  38.946   0.451
30814W        W  629  35.068  14.134   0.727
30815W        W  630  24.167  41.457   5.162
30816W        W  631  28.520   0.984   0.945
30817W        W  632  28.119   4.439  13.858
30818W        W  633  41.444  11.257   4.782
30819W        W  634  28.471  21.555  13.421
30820W        W  635  21.047  21.659   2.775
30821W        W  636   5.324  21.242  10.529
30822W        W  637  42.890  41.787   3.166
30823W        W  638  38.012   6.392  10.561
30824W        W  639  12.155  43.318  13.999
30825W        W  640   8.871  36.417   0.748
30826W        W  641  22.746  13.608   3.209
30827W        W  642  30.481   0.395   2.809
30828W        W  643  26.021   2.400  10.449
30829W        W  644   0.869  18.631  13.328
30830W        W  645  12.834  13.651  13.317
30831W        W  646  28.578  11.364   0.247
30832W        W  647  30.581  41.870   0.402
30833W        W  648  34.991  11.321  11.095
30834W        W  649  42.298  42.345  12.481
30835W        W  650   9.728  16.189   1.404
30836W        W  651  13.257  13.626   2.831
30837W        W  652  24.661  31.502  11.114
30838W        W  653   1.404  10.845   3.739
30839W        W  654  18.592  21.566   2.292
30840W        W  655  31.985  11.692   3.770
30841W        W  656  25.022  19.066   1.425
30842W        W  657  24.043  12.665  13.868
30843W        W  658   8.358  28.436  13.344
30844W        W  659  28.551  13.736  14.381
30845W        W  660  10.361  17.738  12.961
30846W        W  661  20.233   7.382   4.674
30847W        W  662   3.924  16.811  11.895
30848W        W  663  21.176  43.843   1.913
30849W        W  664  22.635  32.088   3.775
30850W        W  665  23.701  38.871   9.936
30851W        W  666   0.487  42.855  10.052
30852W        W  667  25.026  19.579   4.246
30853W        W  668  18.101  40.908  12.463
30854W        W  669  17.123  31.119  13.871
30855W        W  670   5.896  10.685  11.886
30856W        W  671   0.783  24.590   4.801
30857W        W  672   1.928  36.054  14.972
30858W        W  673   0.757  39.346  11.579
30859W        W  674   1.731   5.905  12.382
30860W        W  675   3.420  31.632  11.500
30861W        W  676  34.998  31.081  11.379
30862W        W  677   7.373   6.287   0.314
30863W        W  678   9.835  23.105  13.537
30864W        W  679  41.921  33.507   2.300
30865W        W  680   4.755   0.871   4.148
30866W        W  681  33.470  26.112   4.234
30867W        W  682  22.549  44.387  11.124
30868W        W  683  39.980  16.258  11.087
30869W        W  684  23.223  22.198   1.365
30870W        W  685  13.289  43.016  10.498
30871W        W  686   7.210   0.355  11.461
30872W        W  687  27.054  10.181  11.567
30873W        W  688  12.216  24.041  13.960
30874W        W  689  25.510  29.086   3.168
30875W        W  690   4.932  12.786  14.776
30876W        W  691   8.826  11.649   4.150
30877W        W  692  43.888  26.462  13.540
30878W        W  693   2.256   0.253   3.294
30879W        W  694  20.165   6.862   0.805
30880W        W  695  22.565  18.726   1.367
30881W        W  696   4.345  35.074  13.374
30882W        W  697   0.778  19.647  12.355
30883W        W  698  39.999  16.684   4.786
30884W        W  699  29.655  14.667   3.782
30885W        W  700  39.931  34.897   4.282
30886W        W  701  11.224   7.859   1.847
30887W        W  702   2.359  14.302  14.304
30888W        W  703   0.382  27.638   0.797
30889W        W  704   2.361  11.213   0.855
30890W        W  705  18.679  29.159  11.585
30891W        W  706  29.635  44.416  12.914
30892W        W  707  38.063  27.570  11.875
30893W        W  708  26.620  21.609   1.840
30894W        W  709   3.926  11.211   2.275
30895W        W  710  41.459  30.077   0.441
30896W        W  711  10.202  37.047   2.747
30897W        W  712   3.378   0.339   4.683
30898W        W  713  12.153  37.502  12.075
30899W        W  714   4.233  37.549  10.934
30900W        W  715  30.652  43.495   2.664
30901W        W  716  17.120  13.775  12.996
30902W        W  717   1.456  43.474  12.956
30903W        W  718  10.269  27.686   4.782
30904W        W  719  10.383  32.398  11.491
30905W        W  720   0.979   0.904   4.327
30906W        W  721  18.661  38.362  13.905
30907W        W  722  44.970  25.008  10.625
30908W        W  723  43.409  16.195   0.300
30909W        W  724  29.572  23.598   3.846
30910W        W  725  39.321  29.050  12.345
30911W        W  726  37.941   6.794   1.351
30912W        W  727  28.160  18.557  14.901
30913W        W  728   7.687   3.369   4.824
30914W        W  729   7.202  43.280  14.436
30915W        W  730   4.758   8.184  12.070
30916W        W  731   9.392  32.627   2.359
30917W        W  732  43.968  21.208  11.067
30918W        W  733  34.546   0.947  13.493
30919W        W  734  15.578   2.431  13.337
30920W        W  735  16.275  17.146  13.502
30921W        W  736  22.230  25.146   4.649
30922W        W  737  11.167   6.763  13.396
30923W        W  738  34.502  17.636   4.789
30924W        W  739  14.724  22.208  10.610
30925W        W  740  17.106  18.273  13.964
30926W        W  741   6.237  38.399   2.298
30927W        W  742  27.162  30.097  12.379
30928W        W  743  22.651  22.621   5.082
30929W        W  744  27.548   6.259  12.940
30930W        W  745  39.482  11.241  12.390
30931W        W  746  33.495  14.288  11.939
30932W        W  747   5.801   3.903   4.170
30933W        W  748   1.366  41.294   2.792
30934W        W  749   1.438  34.376   4.732
30935W        W  750  11.732   5.741   1.376
30936W        W  751  35.419   6.918  13.544
30937W        W  752  19.577  27.608   1.799
30938W        W  753  15.705  21.205  13.052
30939W        W  754  17.305  10.338  13.540
30940W        W  755  26.094   8.287  13.476
30941W        W  756  10.773  20.175  13.804
30942W        W  757   3.848  38.937  11.524
30943W        W  758  15.712  29.573   4.641
30944W        W  759  34.109  34.981   1.886
30945W        W  760   6.379  22.584  12.402
30946W        W  761  10.242   7.312   3.764
30947W        W  762  35.983   0.310   2.242
30948W        W  763  32.939   5.228   3.743
30949W        W  764   2.234  18.576   4.831
30950W        W  765  13.824  35.920   4.677
30951W        W  766  35.896  24.192  12.956
30952W        W  767   2.288  44.456  13.980
30953W        W  768  29.541  21.037   3.759
30954W        W  769  28.648   5.690  12.379
30955W        W  770  31.153  22.653  14.866
30956W        W  771   8.318  18.589   2.214
30957W        W  772   5.337  25.566   1.782
30958W        W  773   9.769  42.508  10.426
30959W        W  774  35.373   0.370  11.947
30960W        W  775   3.293  25.071  13.845
30961W        W  776  41.440  11.774   2.867
30962W        W  777   5.732  36.842   4.805
30963W        W  778  14.659  20.231   3.363
30964W        W  779  29.565  34.106   2.396
30965W        W  780  44.885  43.371   4.736
30966W        W  781  19.634   9.647   0.946
30967W        W  782   0.411  22.196   4.799
30968W        W  783  22.995   5.328  11.067
30969W        W  784   5.791  33.590  11.611
30970W        W  785   6.704   7.350  11.032
30971W        W  786  22.582  26.558   0.808
30972W        W  787  21.749  29.978  12.394
30973W        W  788  36.864  12.152  11.470
30974W        W  789   7.741   0.449  11.546
30975W        W  790   8.788  18.626  13.355
30976W        W  791  32.552  32.574   3.224
30977W        W  792   4.914  11.159  12.827
30978W        W  793  42.013   1.856   0.813
30979W        W  794   0.455  14.133  14.898
30980W        W  795  18.728  42.814  12.469
30981W        W  796  43.954  30.912  12.929
30982W        W  797  44.892   9.744   2.249
30983W        W  798  12.659  43.357  14.501
30984W        W  799  20.108   4.314  10.622
30985W        W  800  38.965  10.317   0.338
30986W        W  801  36.591  20.168  13.497
30987W        W  802  20.096  39.019   4.340
30988W        W  803  10.223   8.311   0.879
30989W        W  804   3.403  36.850   2.736
30990W        W  805  31.041  27.619  14.440
30991W        W  806  11.361  32.465   4.818
30992W        W  807   4.731   4.405   2.254
30993W        W  808  31.604  17.684   0.423
30994W        W  809  34.110  12.174  12.051
30995W        W  810  15.150   3.778   0.885
30996W        W  811  34.448  23.137   4.690
30997W        W  812  26.461  43.416  12.994
30998W        W  813  32.549  16.151   2.689
30999W        W  814  23.210  42.906  13.376
31000W        W  815  33.574  24.637   1.785
31001W        W  816  42.463  28.624   3.817
31002W        W  817   8.802  10.366   0.369
31003W        W  818  31.431  26.209  11.891
31004W        W  819  15.225  36.865   4.292
31005W        W  820  40.448  15.295   3.161
31006W        W  821   8.831  16.072  10.498
31007W        W  822   1.264   7.407   3.856
31008W        W  823  24.069   0.350   3.203
31009W        W  824  39.508  37.449  14.421
31010W        W  825  22.538   5.425  10.978
31011W        W  826  18.256  44.289  14.819
31012W        W  827   4.793  37.030   4.272
31013W        W  828  26.040  19.724   4.793
31014W        W  829  11.673  37.501  10.076
31015W        W  830  37.336   5.717  13.398
31016W        W  831   2.880  43.875   2.785
31017W        W  832  33.457  25.982  14.925
31018W        W  833  12.782  18.074   1.818
31019W        W  834  24.208  22.106  12.979
31020W        W  835  33.124  43.980  11.003
31021W        W  836  25.481   9.687   1.712
31022W        W  837   7.716  11.779   0.271
31023W        W  838  44.295  18.554  13.825
31024W        W  839  24.548  37.067  14.028
31025W        W  840  13.794  26.672  13.322
31026W        W  841  29.988   0.853   1.270
31027W        W  842  27.512  15.811   3.701
31028W        W  843  23.542  11.337   1.720
31029W        W  844  26.608  24.073   0.293
31030W        W  845  29.573  35.856  10.004
31031W        W  846   2.909   1.753   0.303
31032W        W  847  27.558  31.459   1.784
31033W        W  848   3.772  21.577  11.093
31034W        W  849   0.938  41.903  12.512
31035W        W  850  11.135  25.204   1.911
31036W        W  851  15.616  19.084  10.625
31037W        W  852  14.094  14.172   5.285
31038W        W  853  28.444  16.158  14.321
31039W        W  854  20.190   2.367  10.628
31040W        W  855  24.134   5.739  10.576
31041W        W  856  41.486   1.366  12.094
31042W        W  857   7.396  23.121  14.955
31043W        W  858  31.052  21.167  13.445
31044W        W  859  32.481  34.608  10.570
31045W        W  860  12.197  16.123  13.856
31046W        W  861  40.353  43.434   3.257
31047W        W  862  14.188  40.396   3.649
31048W        W  863  34.023  13.826   3.793
31049W        W  864  43.853  18.171   2.315
31050W        W  865  34.573  37.437  10.935
31051W        W  866  39.946  16.292   3.230
31052W        W  867  18.151  13.224   4.615
31053W        W  868  13.274  21.535  12.006
31054W        W  869   8.815  33.928  14.903
31055W        W  870  41.846  22.550   2.743
31056W        W  871  10.171  11.367  13.964
31057W        W  872  10.359  27.133   3.839
31058W        W  873  31.102  40.905   2.777
31059W        W  874   2.378  13.681  12.474
31060W        W  875  29.959  28.456  12.872
31061W        W  876  25.661  44.850   3.634
31062W        W  877  44.840  43.329   1.265
31063W        W  878  22.569   4.834  10.970
31064W        W  879  38.914  44.499   3.724
31065W        W  880  35.920  41.499   3.795
31066W        W  881  28.447  12.729  14.335
31067W        W  882  15.275  10.235   1.243
31068W        W  883  18.075  23.058  13.386
31069W        W  884  41.894  26.175  14.980
31070W        W  885   4.723  32.073  14.386
31071W        W  886   7.339  30.100   4.626
31072W        W  887  12.123  14.266  13.447
31073W        W  888  41.451  24.541   4.127
31074W        W  889  42.423  34.059   4.337
31075W        W  890  13.133   5.929   0.743
31076W        W  891   1.970  41.873  11.387
31077W        W  892  18.189  39.971   4.187
31078W        W  893  27.984  11.866  11.016
31079W        W  894  43.342  28.606  14.280
31080W        W  895   8.404  24.123   3.812
31081W        W  896  23.542  40.464   0.774
31082W        W  897  28.456   1.937   2.403
31083W        W  898  23.146  12.616  12.018
31084W        W  899   6.396  28.475  11.906
31085W        W  900   2.468  23.609  12.433
31086W        W  901  29.495   1.946  13.527
31087W        W  902  19.192  35.923   3.651
31088W        W  903  35.459  22.563   3.370
31089W        W  904  42.811   5.707  14.874
31090W        W  905  24.529   4.727  11.473
31091W        W  906  15.172  32.969   3.196
31092W        W  907   9.870   9.878  13.442
31093W        W  908   9.757   1.763   0.869
31094W        W  909   9.329   3.408  11.897
31095W        W  910  44.003  16.231  12.371
31096W        W  911  41.528   4.942   0.278
31097W        W  912  21.615  42.515  12.930
31098W        W  913  37.038  27.598  11.083
31099W        W  914  28.129  32.544  12.379
31100W        W  915  11.790  14.269  11.048
31101W        W  916  19.700  42.960   4.346
31102W        W  917  27.541  21.581  10.456
31103W        W  918  33.085  12.243   2.201
31104W        W  919  23.497   4.371  14.846
31105W        W  920  16.701   1.441  13.307
31106W        W  921  11.860  17.300   3.301
31107W        W  922  43.379   3.461   3.309
31108W        W  923  15.250  30.562   3.384
31109W        W  924  27.503  17.209   0.793
31110W        W  925  18.742   9.352   0.941
31111W        W  926  22.637   6.407   0.886
31112W        W  927   3.391  21.151   1.279
31113W        W  928  20.109  44.976  13.847
31114W        W  929  21.148  30.072   1.266
31115W        W  930   9.149  14.679  12.053
31116W        W  931  35.857  16.091   2.232
31117W        W  932   6.410  39.013  13.021
31118W        W  933  19.044   5.914  14.836
31119W        W  934  42.987   9.774  13.315
31120W        W  935  36.566   3.279  13.970
31121W        W  936   4.382  38.338  11.500
31122W        W  937   4.369  43.946  13.962
31123W        W  938  15.194  26.623  13.841
31124W        W  939  23.198  14.633  13.541
31125W        W  940   8.321  36.927  11.074
31126W        W  941  38.973   4.446  12.087
31127W        W  942  39.992  25.042  14.314
31128W        W  943  15.756  22.544  12.355
31129W        W  944  43.862  27.179   4.244
31130W        W  945  12.685  37.535   0.395
31131W        W  946  42.347  33.508  11.919
31132W        W  947  42.304  29.034   1.713
31133W        W  948  24.697  14.602  14.396
31134W        W  949  21.256  23.553   2.375
31135W        W  950  43.934  32.518  14.983
31136W        W  951  24.625   6.299  11.904
31137W        W  952  20.563  28.123  13.525
31138W        W  953  22.643  36.377   4.126
31139W        W  954  20.033   5.356   3.344
31140W        W  955   1.293  11.813  14.021
31141W        W  956  33.493  41.869  10.127
31142W        W  957  16.696   8.233   1.766
31143W        W  958  27.166  13.310   3.724
31144W        W  959   8.775  43.772  12.382
31145W        W  960  10.648   8.758  12.904
31146W        W  961  30.029   7.794   0.418
31147W        W  962  26.601  32.452  11.390
31148W        W  963  38.472  10.869  12.923
31149W        W  964   0.932  41.037   0.764
31150W        W  965  11.256  31.513  14.872
31151W        W  966  36.934  24.174   0.876
31152W        W  967  29.114  28.493   1.870
31153W        W  968   8.818  43.349  12.543
31154W        W  969   3.747   2.291  10.581
31155W        W  970   6.739  38.339   3.793
31156W        W  971  36.400  41.406   0.800
31157W        W  972  30.497  11.683  12.931
31158W        W  973  21.121  35.537   3.824
31159W        W  974  40.539   1.366   0.469
31160W        W  975   2.349  17.693  11.059
31161W        W  976  18.755  23.069  12.996
31162W        W  977  37.560  14.624  14.935
31163W        W  978   6.764  42.341   0.441
31164W        W  979  16.098  19.542  11.544
31165W        W  980  23.594   4.709  14.776
31166W        W  981   6.815   0.428  12.885
31167W        W  982   9.860  18.247   2.359
31168W        W  983  37.963   2.908   3.814
31169W        W  984  38.897  33.980  12.958
31170W        W  985  36.481  15.313   0.404
31171W        W  986  13.187   7.872   1.353
31172W        W  987  16.173   7.766  12.036
31173W        W  988  30.440  29.556  13.321
31174W        W  989  44.989   3.231   4.827
31175W        W  990  24.486   0.867   2.205
31176W        W  991   7.878   7.683   0.853
31177W        W  992   8.267   7.771  11.877
31178W        W  993  30.945  10.719  13.448
31179W        W  994   5.410  27.511  11.964
31180W        W  995  22.737  44.924   0.356
31181W        W  996  24.677  34.054   2.318
31182W        W  997  24.578  16.708   2.796
31183W        W  998   3.760  33.076  12.936
31184W        W  999  34.078  34.385   1.230
31185W        W 1000  33.064  18.251   0.881
31186W        W 1001  14.758  32.397  12.831
31187W        W 1002   5.431  42.393  12.885
31188W        W 1003  23.228  38.025   2.893
31189W        W 1004  13.225  40.960  12.031
31190W        W 1005  28.144   4.433   3.211
31191W        W 1006   3.376  44.944  10.465
31192W        W 1007  29.955  42.440  13.534
31193W        W 1008   6.886  14.312   1.354
31194W        W 1009   0.434   7.383  11.048
31195W        W 1010  13.659  27.167  11.057
31196W        W 1011  12.357  17.616   2.389
31197W        W 1012  42.850  13.620   1.415
31198W        W 1013  27.985  17.164  12.023
31199W        W 1014  20.251  17.280   5.143
31200W        W 1015  44.916  36.008  11.611
31201W        W 1016  34.534  15.677  13.964
31202W        W 1017  12.842   6.242   4.761
31203W        W 1018  13.261  20.142  13.908
31204W        W 1019  38.043  22.733   1.212
31205W        W 1020  37.525  13.823   1.803
31206W        W 1021   6.799  36.555   4.838
31207W        W 1022  30.445  41.968  10.460
31208W        W 1023   9.785  39.518  13.536
31209W        W 1024  23.534  34.053  10.610
31210W        W 1025  39.930  13.203   4.178
31211W        W 1026  41.827  27.541   1.236
31212W        W 1027   2.873  36.349   4.795
31213W        W 1028   9.700  30.436  11.606
31214W        W 1029  15.136  22.538   0.357
31215W        W 1030  29.123  22.017  11.386
31216W        W 1031   0.866   3.242  14.498
31217W        W 1032  13.272   6.845  11.015
31218W        W 1033   3.713  27.052  14.282
31219W        W 1034  16.227  26.975  14.031
31220W        W 1035  19.286   4.816   1.330
31221W        W 1036   0.897  40.006  11.556
31222W        W 1037  11.354  27.587  14.462
31223W        W 1038  34.462  22.675  13.933
31224W        W 1039   9.830  26.528   1.323
31225W        W 1040  15.672  41.407  14.288
31226W        W 1041  43.288   7.704   1.233
31227W        W 1042  28.070  11.261   4.827
31228W        W 1043   7.735  23.612  11.450
31229W        W 1044  36.415  17.647  13.871
31230W        W 1045  38.888  24.521   3.224
31231W        W 1046  35.370  35.389   4.614
31232W        W 1047  17.745  37.512  12.485
31233W        W 1048  17.787   3.853  12.407
31234W        W 1049  25.041   5.798  13.428
31235W        W 1050  38.345  38.998  11.051
31236W        W 1051   8.753  27.136  13.425
31237W        W 1052  15.659  27.624  14.364
31238W        W 1053  44.797   3.853  11.943
31239W        W 1054  34.574   4.247  12.913
31240W        W 1055  26.599  16.572   4.790
31241W        W 1056  22.187  35.875   0.752
31242W        W 1057  16.098  14.716   4.195
31243W        W 1058  21.103  22.025  10.602
31244W        W 1059  43.367  27.147  11.116
31245W        W 1060   7.343   6.260  12.409
31246W        W 1061  30.624  38.408   0.847
31247W        W 1062  19.749  26.677   3.281
31248W        W 1063  18.654   4.908  10.580
31249W        W 1064  31.637   9.359  13.049
31250W        W 1065  12.839  33.401   0.420
31251W        W 1066  38.546   6.363   3.343
31252W        W 1067  31.614  27.106   3.632
31253W        W 1068  38.973  33.974  12.000
31254W        W 1069  19.616   2.299  11.501
31255W        W 1070  33.978  28.607  13.411
31256W        W 1071  34.426  14.214   3.644
31257W        W 1072  17.120  26.012   1.694
31258W        W 1073  14.271   5.247  13.943
31259W        W 1074  31.951  17.567   3.156
31260W        W 1075  30.550  24.213  11.394
31261W        W 1076   0.834   4.347  14.030
31262W        W 1077  24.619  13.320  12.340
31263W        W 1078  18.634   0.262  11.883
31264W        W 1079  40.898  27.617   1.697
31265W        W 1080  39.509  23.492   2.251
31266W        W 1081   5.687  23.228  13.339
31267W        W 1082  32.905  38.526  14.484
31268W        W 1083  20.153  21.513  11.005
31269W        W 1084  23.128  29.603  13.895
31270W        W 1085  14.744  20.583  11.569
31271W        W 1086  25.586   7.729  12.932
31272W        W 1087  16.212  43.973  12.013
31273W        W 1088   9.315  11.312  12.508
31274W        W 1089  31.130   1.849  11.553
31275W        W 1090   1.396   3.864  13.984
31276W        W 1091  35.555  15.108  14.277
31277W        W 1092  40.885  29.051   2.212
31278W        W 1093   1.441  21.615  10.454
31279W        W 1094  11.808  15.088   2.840
31280W        W 1095  24.605   8.861  10.575
31281W        W 1096  37.541   5.337  13.527
31282W        W 1097  41.915   3.253  14.432
31283W        W 1098  39.387  11.819  13.049
31284W        W 1099  15.791  40.373  12.016
31285W        W 1100  37.570  44.350  10.507
31286W        W 1101   9.836  42.914  10.957
31287W        W 1102  43.885  29.059   2.892
31288W        W 1103  23.506  29.665  10.577
31289W        W 1104  41.847  21.633  14.875
31290W        W 1105   9.807   0.760  13.913
31291W        W 1106  37.389   5.215  11.915
31292W        W 1107   8.241  20.752  13.486
31293W        W 1108  43.934  15.319   0.801
31294W        W 1109  42.931   0.365   1.279
31295W        W 1110  30.532  30.908   0.263
31296W        W 1111   3.323   8.736   5.296
31297W        W 1112  41.027  15.223  11.592
31298W        W 1113  29.169  35.389   1.925
31299W        W 1114  33.063  41.370   3.823
31300W        W 1115   9.201   7.170  13.037
31301W        W 1116   4.870   3.797   2.358
31302W        W 1117  19.713   1.384  12.069
31303W        W 1118  30.085   2.966  12.037
31304W        W 1119  16.212  44.991   3.694
31305W        W 1120   2.964   3.356  11.406
31306W        W 1121  29.615  22.677   2.387
31307W        W 1122   2.953   3.361   0.755
31308W        W 1123   7.372  41.869  13.479
31309W        W 1124   4.762  14.709   2.315
31310W        W 1125  29.640   6.756   1.923
31311W        W 1126  40.902  25.115   0.354
31312W        W 1127  44.473  31.488  11.916
31313W        W 1128  36.541  15.796   0.277
31314W        W 1129  25.575   1.426  10.588
31315W        W 1130   0.275  42.915   2.758
31316W        W 1131  18.791  13.151   3.850
31317W        W 1132  35.959  23.995  13.952
31318W        W 1133  17.615  26.469  12.564
31319W        W 1134   8.778  41.833  12.578
31320W        W 1135  13.311  19.689   2.896
31321W        W 1136  24.059  32.628   1.247
31322W        W 1137   2.849   9.766   0.888
31323W        W 1138  28.094   1.435   3.220
31324W        W 1139  36.051  35.070   3.757
31325W        W 1140   3.884  27.072   3.263
31326W        W 1141   5.435  30.595   0.901
31327W        W 1142  39.356  37.892  10.432
31328W        W 1143  38.995  39.422   4.614
31329W        W 1144  12.262  28.617   2.323
31330W        W 1145   4.333  40.002  11.076
31331W        W 1146  13.230   4.864  12.855
31332W        W 1147  41.003  34.087   0.955
31333W        W 1148  19.702  35.092  10.499
31334W        W 1149  27.664  28.059   4.215
31335W        W 1150  15.144  34.053  14.494
31336W        W 1151  21.550  11.259  14.026
31337W        W 1152   7.872   0.942  11.554
31338W        W 1153   8.898   6.201   1.888
31339W        W 1154  31.983  13.108  10.504
31340W        W 1155  24.994  16.273   3.860
31341W        W 1156  36.409  37.565  14.500
31342W        W 1157   9.362  22.715   1.819
31343W        W 1158  32.586  11.163   1.816
31344W        W 1159  18.262  36.426  14.477
31345W        W 1160  22.650   3.440   4.798
31346W        W 1161  15.328  30.029   1.317
31347W        W 1162  39.986  14.207  14.842
31348W        W 1163  37.854   9.244  12.959
31349W        W 1164  44.924  12.291   1.335
31350W        W 1165   6.361  34.061  13.443
31351W        W 1166  22.520   2.355   2.340
31352W        W 1167  22.551  13.160  12.527
31353W        W 1168   4.771  43.327   5.172
31354W        W 1169  22.659   2.309   1.731
31355W        W 1170   7.393   3.375   0.322
31356W        W 1171  25.089  44.006  14.018
31357W        W 1172  28.651  13.745  10.950
31358W        W 1173  44.489  36.512   3.843
31359W        W 1174  24.183   3.750   0.385
31360W        W 1175  18.237  44.951   3.867
31361W        W 1176   5.918  23.085   2.356
31362W        W 1177  27.104  34.093   4.334
31363W        W 1178  33.440  26.529   0.906
31364W        W 1179  22.112  34.458   1.903
31365W        W 1180  34.600  24.068  11.612
31366W        W 1181  33.498  34.973  13.339
31367W        W 1182  40.522  20.180   0.857
31368W        W 1183  29.018  13.249   0.292
31369W        W 1184  17.162  15.673   4.135
31370W        W 1185  37.007  25.660   2.797
31371W        W 1186  35.550  32.037  11.570
31372W        W 1187  18.730   0.847  14.290
31373W        W 1188  43.371  20.583  14.897
31374W        W 1189   7.818  32.117   3.376
31375W        W 1190  26.135  22.512   2.722
31376W        W 1191  44.874  13.772  13.979
31377W        W 1192  26.569  28.545  13.855
31378W        W 1193  12.690  10.336   2.286
31379W        W 1194  26.697  37.531  12.438
31380W        W 1195  28.475  24.649   1.326
31381W        W 1196   1.883  13.664  13.879
31382W        W 1197  30.503  13.691  12.522
31383W        W 1198  33.575   3.946  13.337
31384W        W 1199   7.732  29.110  10.077
31385W        W 1200  42.401  42.002   1.386
31386W        W 1201  33.382  18.296   0.832
31387W        W 1202  22.708  29.109  14.475
31388W        W 1203  31.063   8.829   2.733
31389W        W 1204  42.975  39.826  13.792
31390W        W 1205  32.947  14.274   1.776
31391W        W 1206  32.592  17.716   1.410
31392W        W 1207  15.085  38.035   0.242
31393W        W 1208  12.358  37.542   4.651
31394W        W 1209  41.897  38.050  13.971
31395W        W 1210  13.715  40.042   1.373
31396W        W 1211  25.184  30.625  14.816
31397W        W 1212   5.435  24.172   3.720
31398W        W 1213  33.523  24.209   5.112
31399W        W 1214  21.251  23.592  14.426
31400W        W 1215  29.476   4.375   2.775
31401W        W 1216  41.977   7.188  10.999
31402W        W 1217  35.383  26.096   4.678
31403W        W 1218  27.452   4.211   1.836
31404W        W 1219  19.679  11.624   1.869
31405W        W 1220  34.085  33.497  11.966
31406W        W 1221  11.252  13.170   2.252
31407W        W 1222  43.457  43.772   4.825
31408W        W 1223  39.526  37.519   2.394
31409W        W 1224  20.558  33.990  11.427
31410W        W 1225  34.458  17.599  12.926
31411W        W 1226   7.362  39.455   0.324
31412W        W 1227   3.815  31.462  11.033
31413W        W 1228   1.851  34.930   5.179
31414W        W 1229  41.907  43.978  13.896
31415W        W 1230   4.884  36.862  11.444
31416W        W 1231   8.323  13.786   3.233
31417W        W 1232   6.747   6.757  11.593
31418W        W 1233  42.504   0.885   1.842
31419W        W 1234  13.143  13.624  11.480
31420W        W 1235   7.275  19.619  10.590
31421W        W 1236  39.504  27.536   2.345
31422W        W 1237  11.688  37.977  12.544
31423W        W 1238   3.250  11.768  10.929
31424W        W 1239  42.880  29.436   1.727
31425W        W 1240  27.053  38.546  13.432
31426W        W 1241  39.450  22.174   3.157
31427W        W 1242  27.967  17.611   0.959
31428W        W 1243  21.608   1.427  10.605
31429W        W 1244  29.635  28.936  14.418
31430W        W 1245   6.283  31.628   1.237
31431W        W 1246   0.308  15.746  13.036
31432W        W 1247  38.945   3.791   3.714
31433W        W 1248  11.159  40.014  10.970
31434W        W 1249   1.919  32.887   2.191
31435W        W 1250  14.327  25.008   4.821
31436W        W 1251  15.328  42.023   4.289
31437W        W 1252  21.087  41.023   4.263
31438W        W 1253  44.296  17.243   3.744
31439W        W 1254  43.868  20.252   1.439
31440W        W 1255  10.684  20.582  11.455
31441W        W 1256  29.579  30.630  13.417
31442W        W 1257  25.651   7.193  14.988
31443W        W 1258  23.067   3.425  12.355
31444W        W 1259  41.527   7.805   4.145
31445W        W 1260  38.855   4.423  12.903
31446W        W 1261  38.973  40.857  13.032
31447W        W 1262  44.906  26.162   1.422
31448W        W 1263  42.022  43.967   1.217
31449W        W 1264   7.752  37.904   0.395
31450W        W 1265   5.923  37.426   0.243
31451W        W 1266  32.446   0.485   2.216
31452W        W 1267  29.922  11.173   4.166
31453W        W 1268  31.952  31.507   3.206
31454W        W 1269  23.683  24.053  11.922
31455W        W 1270  37.925   5.282  12.547
31456W        W 1271  19.727   5.343   2.299
31457W        W 1272  32.972   3.885  12.078
31458W        W 1273  44.842  37.856   0.931
31459W        W 1274  33.039  34.075   0.319
31460W        W 1275  14.213   2.853  11.094
31461W        W 1276  28.629  36.517   4.693
31462W        W 1277  29.527  24.693  12.394
31463W        W 1278   5.883  35.505  12.354
31464W        W 1279  16.567  41.790  14.002
31465W        W 1280  21.682  21.203   0.762
31466W        W 1281  29.996  19.713  12.561
31467W        W 1282   2.279   9.734  14.858
31468W        W 1283  11.736   0.973  12.448
31469W        W 1284  30.534  21.754  12.072
31470W        W 1285  29.548  35.358  10.995
31471W        W 1286  38.961   3.339  14.327
31472W        W 1287  11.847  31.145  11.505
31473W        W 1288  12.189  16.724   5.206
31474W        W 1289  34.983  21.584  14.390
31475W        W 1290  28.067  43.868  14.404
31476W        W 1291   1.736   3.223   2.735
31477W        W 1292  36.448  14.236   2.328
31478W        W 1293   5.795  22.230   3.858
31479W        W 1294  15.817  24.650  10.922
31480W        W 1295  32.079  33.461  12.849
31481W        W 1296  22.643  13.599  13.480
31482W        W 1297  33.532   8.719  11.602
31483W        W 1298  39.453  27.135  13.940
31484W        W 1299   6.849  44.376   0.339
31485W        W 1300  23.146  41.529   4.199
31486W        W 1301  41.945  44.404  14.944
31487W        W 1302   1.965  17.150  13.008
31488W        W 1303  11.726  13.785  11.947
31489W        W 1304   4.868   8.384  11.112
31490W        W 1305  40.313  17.292   4.703
31491W        W 1306   1.347  12.772   1.715
31492W        W 1307  20.685   9.740   2.255
31493W        W 1308   1.775  35.025  13.366
31494W        W 1309  27.475   1.966  13.833
31495W        W 1310  20.756   3.832   2.368
31496W        W 1311   0.747  36.027   9.989
31497W        W 1312  14.764  18.648  14.839
31498W        W 1313  17.142  23.518  12.035
31499W        W 1314   2.948  44.811   4.721
31500W        W 1315   8.800  38.913  14.384
31501W        W 1316   4.410  41.422  13.322
31502W        W 1317  22.651   1.788  12.036
31503W        W 1318  18.074  28.560   2.761
31504W        W 1319   4.831   9.219  13.880
31505W        W 1320  17.603   4.434  10.552
31506W        W 1321   3.828  37.336   5.112
31507W        W 1322  44.320  34.399  10.576
31508W        W 1323  32.019   7.749   4.725
31509W        W 1324  23.562  38.558   4.117
31510W        W 1325   6.742  15.600   2.379
31511W        W 1326  22.663  24.555  13.337
31512W        W 1327  43.516   4.402   2.739
31513W        W 1328  17.163  15.128   3.709
31514W        W 1329  30.065   6.262  10.979
31515W        W 1330   2.361   0.378  11.006
31516W        W 1331  23.196   8.831   1.291
31517W        W 1332  37.528   8.335   2.394
31518W        W 1333   9.797  38.920   3.741
31519W        W 1334  15.163  31.127   2.270
31520W        W 1335  10.809  18.098  13.440
31521W        W 1336  31.060   5.863  13.008
31522W        W 1337  17.158  16.073  13.983
31523W        W 1338   5.235   2.302  14.414
31524W        W 1339  35.473  41.478  14.003
31525W        W 1340  17.709  29.484   2.192
31526W        W 1341  31.515  41.818   0.374
31527W        W 1342   9.850  40.473  11.494
31528W        W 1343  27.050  21.732  14.988
31529W        W 1344  18.750  42.877   4.809
31530W        W 1345   1.239  34.459   0.814
31531W        W 1346   1.244  14.269   2.861
31532W        W 1347   7.799  42.511   2.344
31533W        W 1348  12.838   0.486   3.193
31534W        W 1349  17.188  22.050  10.160
31535W        W 1350  12.633  32.467  13.441
31536W        W 1351  10.301   9.772  12.944
31537W        W 1352  40.533  29.587  12.454
31538W        W 1353  22.086  25.993   4.716
31539W        W 1354  36.440  32.485  13.422
31540W        W 1355  13.694  12.722   1.764
31541W        W 1356  15.161  17.724  13.334
31542W        W 1357   4.355   1.846  11.954
31543W        W 1358  21.057  17.766   1.923
31544W        W 1359  34.517  40.805  11.383
31545W        W 1360  34.381  24.226   1.331
31546W        W 1361  40.419  21.725  14.341
31547W        W 1362   6.853  23.679  11.082
31548W        W 1363  11.329  30.119  14.882
31549W        W 1364  15.142  32.031  12.966
31550W        W 1365  28.598   8.256   0.749
31551W        W 1366  12.308  24.068   0.426
31552W        W 1367  38.544   3.217  10.409
31553W        W 1368  32.511  35.048   2.223
31554W        W 1369  23.013  16.677   0.765
31555W        W 1370  41.481  14.774   2.329
31556W        W 1371  10.279  31.421   0.386
31557W        W 1372   6.857   9.311  11.449
31558W        W 1373  35.009   9.332   3.158
31559W        W 1374  29.107  32.627  14.356
31560W        W 1375  38.397   6.325   3.860
31561W        W 1376  28.605   6.319   2.241
31562W        W 1377  23.685  28.998   0.798
31563W        W 1378  17.216  20.700   1.730
31564W        W 1379  26.107  13.767   1.339
31565W        W 1380  41.970  41.308  12.027
31566W        W 1381  32.024  38.528  10.510
31567W        W 1382  15.141  33.520  11.126
31568W        W 1383  30.416  38.854  11.374
31569W        W 1384   3.772  20.137  13.472
31570W        W 1385  27.051  28.639   2.767
31571W        W 1386   9.784  24.107   1.423
31572W        W 1387  38.821  43.848   2.356
31573W        W 1388  33.077  29.607   0.825
31574W        W 1389   1.887   9.225   1.292
31575W        W 1390  25.092  12.307   2.217
31576W        W 1391  32.545  29.516   4.835
31577W        W 1392  29.108   9.880   2.708
31578W        W 1393   9.317   2.232  11.548
31579W        W 1394  43.006  24.615   3.286
31580W        W 1395  20.240  33.597   0.297
31581W        W 1396  10.825  10.170   3.347
31582W        W 1397  25.680  34.469   1.289
31583W        W 1398  13.281  17.260   2.870
31584W        W 1399  44.876  27.446  12.461
31585W        W 1400  23.667  21.604  12.845
31586W        W 1401  37.419  24.148   1.847
31587W        W 1402  43.878   8.704   2.728
31588W        W 1403  26.097  25.674   2.707
31589W        W 1404  24.616  44.873  13.056
31590W        W 1405  26.655  12.340  12.476
31591W        W 1406  16.176  23.589   1.396
31592W        W 1407  11.254  32.023  11.592
31593W        W 1408  19.252  12.624  10.912
31594W        W 1409  19.278   3.829   2.838
31595W        W 1410  20.614  37.964  12.032
31596W        W 1411  31.448  27.974   4.164
31597W        W 1412  26.972   9.660   4.193
31598W        W 1413  35.016  29.159  14.816
31599W        W 1414  12.793  40.476   0.731
31600W        W 1415  21.723  25.657  14.320
31601W        W 1416  36.426  40.877   2.299
31602W        W 1417  21.184  23.241  11.009
31603W        W 1418  38.963  29.535   1.422
31604W        W 1419  14.763  28.535  12.485
31605W        W 1420   1.421  13.197  13.478
31606W        W 1421  40.935  40.411  10.594
31607W        W 1422  35.377  19.702  10.954
31608W        W 1423  40.990   0.766  11.590
31609W        W 1424   9.265  44.389   1.824
31610W        W 1425  13.161  41.344   0.789
31611W        W 1426   4.307  24.137   4.642
31612W        W 1427  24.684  22.640  11.556
31613W        W 1428   5.930   7.184   2.676
31614W        W 1429  36.591  39.499  13.928
31615W        W 1430  23.987  16.615  14.355
31616W        W 1431  29.034   0.745  11.591
31617W        W 1432  16.798  32.958  11.559
31618W        W 1433  29.089  30.947   4.230
31619W        W 1434  29.124  24.718  12.051
31620W        W 1435  36.954  21.558   0.915
31621W        W 1436  28.948   6.409   4.344
31622W        W 1437  38.359  28.513  13.049
31623W        W 1438  18.149  10.264   3.250
31624W        W 1439  43.455  18.623  11.574
31625W        W 1440  41.446  23.493  11.050
31626W        W 1441  32.558   0.260   4.661
31627W        W 1442  27.001  37.513  10.517
31628W        W 1443  27.177  41.959   0.914
31629W        W 1444  37.552  36.457   4.757
31630W        W 1445  26.640  18.575   0.954
31631W        W 1446  19.062  29.629  12.030
31632W        W 1447  28.167   8.397  12.550
31633W        W 1448  19.728  10.864   3.222
31634W        W 1449  38.880  25.080   3.660
31635W        W 1450  32.524   5.796   1.395
31636W        W 1451  40.021  23.519  13.512
31637W        W 1452  17.685  44.818   4.748
31638W        W 1453  34.095  40.460   3.790
31639W        W 1454  43.442  14.813  14.785
31640W        W 1455  32.561  43.509   3.182
31641W        W 1456   2.933  26.152  11.491
31642W        W 1457  11.833  20.600   4.120
31643W        W 1458   8.728  24.539   4.773
31644W        W 1459  33.422   1.922   4.767
31645W        W 1460   9.190  31.614  12.502
31646W        W 1461  17.778  24.126   0.753
31647W        W 1462  30.162   7.822  11.023
31648W        W 1463  25.668  12.135   9.927
31649W        W 1464  33.533   5.796  10.556
31650W        W 1465  25.049  27.988  12.874
31651W        W 1466  27.541  21.744  10.909
31652W        W 1467   8.721  38.066  14.009
31653W        W 1468  23.122  40.832  13.897
31654W        W 1469  18.672  34.373   0.850
31655W        W 1470   1.323  43.317  11.608
31656W        W 1471  12.131   6.417  13.795
31657W        W 1472  36.989  33.601   3.826
31658W        W 1473  12.302   6.727  14.836
31659W        W 1474  15.266   6.373   2.792
31660W        W 1475  32.028  11.167   0.275
31661W        W 1476   5.742  25.534   3.659
31662W        W 1477   4.237   4.366  11.952
31663W        W 1478  42.853   8.390   2.274
31664W        W 1479  12.254  10.835   4.799
31665W        W 1480  38.466   7.183   2.260
31666W        W 1481  31.048  36.980   3.162
31667W        W 1482  14.731   6.384   4.730
31668W        W 1483  43.410  32.991  10.556
31669W        W 1484  42.918   6.263   0.961
31670W        W 1485  31.067  20.678  12.997
31671W        W 1486  20.229  34.515  11.936
31672W        W 1487  44.453  37.059  13.958
31673W        W 1488  40.350  41.499   3.780
31674W        W 1489  23.684  18.757  12.575
31675W        W 1490  22.530  29.934  12.910
31676W        W 1491  35.885  32.043   0.914
31677W        W 1492  26.465   3.868  13.873
31678W        W 1493   7.244  19.700   1.288
31679W        W 1494  32.015   7.831  11.605
31680W        W 1495  40.920   7.860   9.506
31681W        W 1496  23.236  12.724   2.221
31682W        W 1497  38.391  34.031  10.530
31683W        W 1498  25.635  41.959  12.342
31684W        W 1499  31.994  22.511  13.033
31685W        W 1500   4.333  18.610   2.789
31686W        W 1501  25.471   5.692  11.490
31687W        W 1502  27.996   1.250   4.129
31688W        W 1503  21.074  10.194  10.609
31689W        W 1504  16.248  18.163   2.320
31690W        W 1505  17.637  36.460  14.871
31691W        W 1506  13.260  35.014   2.811
31692W        W 1507   9.243  20.163  13.799
31693W        W 1508  16.311  13.661   2.813
31694W        W 1509  19.067  32.936  10.463
31695W        W 1510  41.890  18.243  14.451
31696W        W 1511   9.874   2.963   0.959
31697W        W 1512  13.220  14.150  13.019
31698W        W 1513  38.496  28.058   1.379
31699W        W 1514  10.181  25.498   2.698
31700W        W 1515  19.573  19.087   2.203
31701W        W 1516  11.315  11.204   0.834
31702W        W 1517  17.164  43.329  12.875
31703W        W 1518   9.383  39.032  14.981
31704W        W 1519   1.856  16.211   3.308
31705W        W 1520  35.602  30.632   1.835
31706W        W 1521  22.673  19.174   3.288
31707W        W 1522  41.299  10.650   4.607
31708W        W 1523   0.386  41.426  14.995
31709W        W 1524  26.048  10.868   0.427
31710W        W 1525  14.608  42.320   2.346
31711W        W 1526  37.994  31.524   5.728
31712W        W 1527  33.965  41.363   2.350
31713W        W 1528  39.424  28.083  10.897
31714W        W 1529  37.943  36.373   3.708
31715W        W 1530  22.157  31.002   4.154
31716W        W 1531  21.154   4.882   3.222
31717W        W 1532  40.012   1.899   2.250
31718W        W 1533  29.486  17.299  13.891
31719W        W 1534  31.046  23.217   1.216
31720W        W 1535  40.038  17.098  13.515
31721W        W 1536  15.104  12.193  12.048
31722W        W 1537  13.295   5.888  13.885
31723W        W 1538  13.681  11.829  14.285
31724W        W 1539   9.746  29.637  11.432
31725W        W 1540  18.600   6.337   3.236
31726W        W 1541  13.626   3.800  11.469
31727W        W 1542  43.832  30.414   4.677
31728W        W 1543  34.387  17.295  11.876
31729W        W 1544  29.005   4.920  14.978
31730W        W 1545  42.456  30.444  10.425
31731W        W 1546  27.548  42.827  12.859
31732W        W 1547  40.505   1.875  11.403
31733W        W 1548  32.544  41.414  12.451
31734W        W 1549  13.618  38.999  11.935
31735W        W 1550  27.173  18.714  11.589
31736W        W 1551  41.300   2.315  11.971
31737W        W 1552  13.111  36.017  12.860
31738W        W 1553  36.916   1.483  11.489
31739W        W 1554  40.469  14.121  13.034
31740W        W 1555  41.323  39.815   2.282
31741W        W 1556   8.810   0.799   5.282
31742W        W 1557  35.873  28.064   2.274
31743W        W 1558  32.441  44.813  14.831
31744W        W 1559  17.094  19.570  12.350
31745W        W 1560  21.682  17.256  12.848
31746W        W 1561  28.957  20.098  10.973
31747W        W 1562  23.106  11.718   0.788
31748W        W 1563  31.149  17.244  11.444
31749W        W 1564  12.275   1.905  12.879
31750W        W 1565   1.305  15.100   0.874
31751W        W 1566  30.931  40.505   0.344
31752W        W 1567  16.097  32.553   3.702
31753W        W 1568  14.099  33.041   0.403
31754W        W 1569  41.820  11.146   1.308
31755W        W 1570  31.565  14.644  11.479
31756W        W 1571   6.727  17.223  14.007
31757W        W 1572   7.277  41.819   5.182
31758W        W 1573  12.123  19.049  11.985
31759W        W 1574  10.148  30.020  11.470
31760W        W 1575  14.211  27.590   2.276
31761W        W 1576   4.251  32.897   1.900
31762W        W 1577   7.869  15.116  12.437
31763W        W 1578  16.264  28.556  12.862
31764W        W 1579  11.773  24.143   2.733
31765W        W 1580  13.657  36.385   3.175
31766W        W 1581  33.526  12.822   0.949
31767W        W 1582  41.324   8.216   2.359
31768W        W 1583   7.674  12.741   2.210
31769W        W 1584  17.166  44.996   1.911
31770W        W 1585  27.627   3.822  11.443
31771W        W 1586   3.866  15.151  12.476
31772W        W 1587  15.782  21.589  10.478
31773W        W 1588  38.866  19.146  11.423
31774W        W 1589  28.143  22.236   3.644
31775W        W 1590   1.968   8.659  10.453
31776W        W 1591  15.163   9.875   2.718
31777W        W 1592  34.422   1.794   1.375
31778W        W 1593   3.402  16.152  14.018
31779W        W 1594   0.367  32.602   4.702
31780W        W 1595  38.433  17.556  11.495
31781W        W 1596  44.268  37.480  13.014
31782W        W 1597   8.197  18.194  13.493
31783W        W 1598  20.575   9.818   4.141
31784W        W 1599  18.290  14.828   2.375
31785W        W 1600  36.583   7.846   2.827
31786W        W 1601  39.955  26.492  11.054
31787W        W 1602  18.743  20.086  12.020
31788W        W 1603  38.437  20.067  13.403
31789W        W 1604  41.456  26.957   1.361
31790W        W 1605  24.642  26.087  12.083
31791W        W 1606  12.251  15.220  14.326
31792W        W 1607  32.030  34.937   2.821
31793W        W 1608   4.714  33.402  12.006
31794W        W 1609  39.888  17.802  10.423
31795W        W 1610   0.485   7.309  13.806
31796W        W 1611  25.588  36.365  13.852
31797W        W 1612  37.858   6.713   4.142
31798W        W 1613  23.669  34.985  13.535
31799W        W 1614  10.699  44.397   1.801
31800W        W 1615   6.402  37.501  12.494
31801W        W 1616   8.843  19.125   1.367
31802W        W 1617   0.922   1.386   4.737
31803W        W 1618   2.395  38.895   4.314
31804W        W 1619  22.523  18.629   2.679
31805W        W 1620  37.511  22.041   0.839
31806W        W 1621  13.120   2.352   4.128
31807W        W 1622  22.192  34.484   0.738
31808W        W 1623   5.402  18.578   4.230
31809W        W 1624  38.967  30.587   2.871
31810W        W 1625  31.084  40.819  13.485
31811W        W 1626  28.569  43.825   4.778
31812W        W 1627  38.390  40.458  12.960
31813W        W 1628   7.801  27.485   2.735
31814W        W 1629   7.206   3.872  12.555
31815W        W 1630  13.686  38.331   3.697
31816W        W 1631  39.387   0.368   3.209
31817W        W 1632  23.986  24.669  14.397
31818W        W 1633   4.318  18.234  10.594
31819W        W 1634  44.823  15.645  12.904
31820W        W 1635   4.286   6.267   0.772
31821W        W 1636  41.484  28.995   3.677
31822W        W 1637  36.562  40.034   3.822
31823W        W 1638  29.923  34.965   3.683
31824W        W 1639  12.747  39.339   1.909
31825W        W 1640  15.629   4.409  10.415
31826W        W 1641  16.093  27.687   3.282
31827W        W 1642  44.341  40.429  13.427
31828W        W 1643  11.233  43.498  14.316
31829W        W 1644  17.155  16.080   1.903
31830W        W 1645  28.509  40.013  12.564
31831W        W 1646  41.441   8.835   4.352
31832W        W 1647  34.553   4.267   2.271
31833W        W 1648  37.533  31.476   3.864
31834W        W 1649  12.667   8.279   2.769
31835W        W 1650  12.228   5.370  11.067
31836W        W 1651  12.683  16.672  10.985
31837W        W 1652  30.545  35.479  14.884
31838W        W 1653  42.515  19.201   0.968
31839W        W 1654  43.283  36.013   3.291
31840W        W 1655  43.945  26.154  14.819
31841W        W 1656  13.225  14.784   2.681
31842W        W 1657  33.389  17.696   0.271
31843W        W 1658  27.113  25.176  10.435
31844W        W 1659  17.560  30.431   4.807
31845W        W 1660   9.159  41.977  14.371
31846W        W 1661  13.119  10.286   0.860
31847W        W 1662  41.404  25.082   1.825
31848W        W 1663  27.643   3.245  14.837
31849W        W 1664  31.905  38.946  10.421
31850W        W 1665  19.176  26.456  11.498
31851W        W 1666  16.260  36.554  12.394
31852W        W 1667   7.238  23.620   1.241
31853W        W 1668  10.754  28.139  12.001
31854W        W 1669  12.248  44.382   1.706
31855W        W 1670  25.203  16.098   2.706
31856W        W 1671  25.531   1.372   4.761
31857W        W 1672  30.530  29.580   3.796
31858W        W 1673   3.419  33.393  10.465
31859W        W 1674   0.915  38.966  12.339
31860W        W 1675  29.464   5.286  12.429
31861W        W 1676  43.273   2.372  14.379
31862W        W 1677   2.760  36.961   0.303
31863W        W 1678   3.349   7.764  13.862
31864W        W 1679   6.763   9.789  14.807
31865W        W 1680  15.785  20.071   4.354
31866W        W 1681  27.622  34.070   1.826
31867W        W 1682  10.251  16.742  11.496
31868W        W 1683  27.604  41.418   1.867
31869W        W 1684  39.933  41.948  13.839
31870W        W 1685   4.397  18.583  14.930
31871W        W 1686  36.466  12.628   4.735
31872W        W 1687  28.579   2.375  10.503
31873W        W 1688  15.261   1.838  13.440
31874W        W 1689   5.348   0.316   4.702
31875W        W 1690  43.772  32.143   0.470
31876W        W 1691  15.812   5.897  12.014
31877W        W 1692   7.793  38.916  12.426
31878W        W 1693  35.857  25.018   2.763
31879W        W 1694   9.157  33.422   3.714
31880W        W 1695  24.049  28.482   4.210
31881W        W 1696   8.342  34.497  12.380
31882W        W 1697  25.708  32.516  11.599
31883W        W 1698  37.003  32.109  13.428
31884W        W 1699  42.520   9.387  13.864
31885W        W 1700  42.365  11.652   0.434
31886W        W 1701  11.843   0.954  14.012
31887W        W 1702   5.324  44.486   4.735
31888W        W 1703  40.898   0.943  12.953
31889W        W 1704  25.525  37.548   2.331
31890W        W 1705  41.370  24.141  11.957
31891W        W 1706  44.794  43.811   0.901
31892W        W 1707   8.660  36.551  12.535
31893W        W 1708  13.201  33.091   1.863
31894W        W 1709   9.721  26.109  14.768
31895W        W 1710  28.113  17.605  11.072
31896W        W 1711   9.789  21.043   3.635
31897W        W 1712  40.477   6.368  12.971
31898W        W 1713  37.004  28.443  13.463
31899W        W 1714  42.488   2.332   2.725
31900W        W 1715  26.468  29.516   3.641
31901W        W 1716  12.281  41.855  10.483
31902W        W 1717  12.119  19.263  13.391
31903W        W 1718  29.519  34.392   2.672
31904W        W 1719  37.339   7.177   1.865
31905W        W 1720  21.063  19.187  14.343
31906W        W 1721  24.534  30.155  12.484
31907W        W 1722  22.252  39.811   4.693
31908W        W 1723  40.387  25.664  14.946
31909W        W 1724  26.692  39.822   0.961
31910W        W 1725  16.273  14.695   3.304
31911W        W 1726   4.232  28.992  13.033
31912W        W 1727   8.400  13.282  11.113
31913W        W 1728   8.873   0.952  14.876
31914W        W 1729   0.787  10.155  13.488
31915W        W 1730  25.581   6.694  12.411
31916W        W 1731  28.680  42.875  14.475
31917W        W 1732  20.747  21.123   3.257
31918W        W 1733  33.062   6.818  13.862
31919W        W 1734  40.920  10.711   0.431
31920W        W 1735  36.056  14.630  14.857
31921W        W 1736   7.292  34.063   4.664
31922W        W 1737  13.614  34.005  11.869
31923W        W 1738  29.528   1.831  10.991
31924W        W 1739  41.803  29.522   1.372
31925W        W 1740  43.005  32.526   0.355
31926W        W 1741  12.708  11.218   0.897
31927W        W 1742  40.310  12.262   0.751
31928W        W 1743  40.839  26.977   2.288
31929W        W 1744  18.135   7.313  13.864
31930W        W 1745  26.086  17.676   1.322
31931W        W 1746  34.120  20.625   1.852
31932W        W 1747  38.539  25.057   3.778
31933W        W 1748  38.821   9.647   0.367
31934W        W 1749  28.186   9.865   4.183
31935W        W 1750   0.964  13.743   3.765
31936W        W 1751   4.727  13.623  11.537
31937W        W 1752  41.503  20.688  14.477
31938W        W 1753  21.218  14.255   1.794
31939W        W 1754   9.647  13.688   2.712
31940W        W 1755  29.051   9.872  14.780
31941W        W 1756  38.491  39.375  10.963
31942W        W 1757  42.895  14.805   0.465
31943W        W 1758  26.207  14.204   0.878
31944W        W 1759  16.676   0.868   1.281
31945W        W 1760  14.665  35.392   4.659
31946W        W 1761  31.620  43.397   3.833
31947W        W 1762  17.779  35.928   2.723
31948W        W 1763   7.305   3.877   4.781
31949W        W 1764  26.085  24.999   4.793
31950W        W 1765  36.911  24.989  10.632
31951W        W 1766  12.290   9.686   1.293
31952W        W 1767  28.513  16.607  11.414
31953W        W 1768  22.602  41.293  10.947
31954W        W 1769   5.337   4.889   4.830
31955W        W 1770  14.158  35.973  10.609
31956W        W 1771  32.396  26.508  11.593
31957W        W 1772  39.064  40.946   3.341
31958W        W 1773  19.257  28.988   4.649
31959W        W 1774  36.000  44.001  13.346
31960W        W 1775  42.387  12.818  14.765
31961W        W 1776  11.709  44.333  10.407
31962W        W 1777  31.468  38.875  14.468
31963W        W 1778  43.995  35.101  11.910
31964W        W 1779  31.569  44.426   2.300
31965W        W 1780  23.735  14.176   2.799
31966W        W 1781  17.146  27.985  13.351
31967W        W 1782  14.828  16.607   2.201
31968W        W 1783  22.550  29.073   3.729
31969W        W 1784  32.914  42.882   1.864
31970W        W 1785  19.635  30.951  11.073
31971W        W 1786  38.908  44.471   1.899
31972W        W 1787  31.446   5.402   2.246
31973W        W 1788  36.967  35.415  11.973
31974W        W 1789  43.803  41.825  13.327
31975W        W 1790  34.073  23.225   4.775
31976W        W 1791  34.580  28.511  12.360
31977W        W 1792   0.464  31.123  13.871
31978W        W 1793   3.734  10.344   2.371
31979W        W 1794  10.265   3.231   0.857
31980W        W 1795  33.914  10.769   1.378
31981W        W 1796  41.029  29.168  11.922
31982W        W 1797   6.380  22.223  10.618
31983W        W 1798  25.033  20.066   5.181
31984W        W 1799  35.400  18.243   4.740
31985W        W 1800   7.223  35.108  13.339
31986W        W 1801  24.038  16.250  14.914
31987W        W 1802   4.798  27.682  14.809
31988W        W 1803  44.359  29.615   1.270
31989W        W 1804  41.989  27.948   3.193
31990W        W 1805   8.327  38.961  13.850
31991W        W 1806  29.114  42.934   0.823
31992W        W 1807   4.859  19.164   0.932
31993W        W 1808  38.896  35.461  12.056
31994W        W 1809  44.784   7.749  12.386
31995W        W 1810  21.636  38.844   3.851
31996W        W 1811   7.709  40.532   4.140
31997W        W 1812  36.363  23.160   4.804
31998W        W 1813  33.030   4.338   1.786
31999W        W 1814  34.024  36.018  10.914
32000W        W 1815  17.652  27.613  14.472
32001W        W 1816  29.975  30.114   1.702
32002W        W 1817   3.945  43.883  12.402
32003W        W 1818  41.318  17.681  11.899
32004W        W 1819  41.824   4.387   3.180
32005W        W 1820   5.384   8.262   0.773
32006W        W 1821  27.962  26.079  11.001
32007W        W 1822  16.734  34.986   0.449
32008W        W 1823   2.829  39.332  11.987
32009W        W 1824  18.136  36.865   2.230
32010W        W 1825   6.218  26.565  12.836
32011W        W 1826   8.851  23.189  14.488
32012W        W 1827   8.403  38.995   5.132
32013W        W 1828  38.513  26.675   2.876
32014W        W 1829  28.937  12.719   1.361
32015W        W 1830   3.360  31.064   4.144
32016W        W 1831   6.309  23.163   2.783
32017W        W 1832  19.643  32.550   4.624
32018W        W 1833   8.782   4.834  13.481
32019W        W 1834   7.889  21.192   1.268
32020W        W 1835   3.941  12.724  12.907
32021W        W 1836  38.458  18.691   4.831
32022W        W 1837  28.005   8.739   3.267
32023W        W 1838  18.218   6.692   1.451
32024W        W 1839  40.006  33.003   4.190
32025W        W 1840  18.286  24.015   2.276
32026W        W 1841  31.939  15.153   3.822
32027W        W 1842  31.531  44.331  13.982
32028W        W 1843  35.593  40.366   3.714
32029W        W 1844  15.126  22.204   1.319
32030W        W 1845  19.165  36.943  13.982
32031W        W 1846  25.071  37.423   2.304
32032W        W 1847   5.232  34.968  10.506
32033W        W 1848  43.859  32.508  10.482
32034W        W 1849   1.438   0.869   1.345
32035W        W 1850  35.855   5.407  11.082
32036W        W 1851  18.204  43.500  12.841
32037W        W 1852  40.376   0.954  11.462
32038W        W 1853  39.341  24.643  14.483
32039W        W 1854   1.329  44.997   4.694
32040W        W 1855  14.149  28.178  10.938
32041W        W 1856  21.073  39.445   1.850
32042W        W 1857  37.844   7.209  12.425
32043W        W 1858  41.880  13.621   2.823
32044W        W 1859  42.453  32.112  12.085
32045W        W 1860  35.437  38.832   4.342
32046W        W 1861  41.819  44.897  10.428
32047W        W 1862   3.822  34.494  11.942
32048W        W 1863  11.691  25.057  14.858
32049W        W 1864   0.801  39.824   0.934
32050W        W 1865  39.490  16.257  12.462
32051W        W 1866  30.467  31.076   1.866
32052W        W 1867  35.091  44.836   0.395
32053W        W 1868  35.034  12.801   0.910
32054W        W 1869  22.546  34.017   1.759
32055W        W 1870  17.713  31.440  10.958
32056W        W 1871  41.439  27.965   5.317
32057W        W 1872   3.787  14.718   1.417
32058W        W 1873  44.270  41.427  12.544
32059W        W 1874   8.790  24.058  12.458
32060W        W 1875  35.069  16.296  13.483
32061W        W 1876   6.401  33.949  11.061
32062W        W 1877  27.023  31.926  13.027
32063W        W 1878  18.085  32.449   3.307
32064W        W 1879  21.652  35.040  12.860
32065W        W 1880  20.224  29.491   3.783
32066W        W 1881   9.870   9.857   1.211
32067W        W 1882  35.591  34.975   0.432
32068W        W 1883  21.054  17.702  13.924
32069W        W 1884  14.690  36.856  13.481
32070W        W 1885   3.742  16.220  11.384
32071W        W 1886  16.658  27.112   0.308
32072W        W 1887  37.579  10.159   1.702
32073W        W 1888   9.824  42.931   4.693
32074W        W 1889  33.501  39.448   5.272
32075W        W 1890  37.353  16.157  10.418
32076W        W 1891  37.559   6.376   2.313
32077W        W 1892   8.249  19.169  10.556
32078W        W 1893  11.847   1.764  13.048
32079W        W 1894   9.208   9.339   1.871
32080W        W 1895  12.689  21.513   3.161
32081W        W 1896  42.778   7.227   4.757
32082W        W 1897  22.528  36.456  10.632
32083W        W 1898  14.202   4.935  10.986
32084W        W 1899   7.765  37.915  11.372
32085W        W 1900   2.924   7.327   1.292
32086W        W 1901  38.338  13.742  13.307
32087W        W 1902   3.293  27.961   2.691
32088W        W 1903   7.183   4.392  14.824
32089W        W 1904  17.658  23.149  14.784
32090W        W 1905  30.064  22.119   2.289
32091W        W 1906  36.467  12.333  12.536
32092W        W 1907  41.810   2.228  11.419
32093W        W 1908  23.016  43.848  13.325
32094W        W 1909  11.264  33.086  13.369
32095W        W 1910  38.381  29.543  13.411
32096W        W 1911  31.128  30.055  12.446
32097W        W 1912  19.089  38.939   3.869
32098W        W 1913  22.198  13.619   3.213
32099W        W 1914  12.840  17.182   3.837
32100W        W 1915  42.812  28.126  12.493
32101W        W 1916  13.144   0.483   1.794
32102W        W 1917  39.507   0.296  14.383
32103W        W 1918  35.903  39.809   4.199
32104W        W 1919   2.748   4.364   1.893
32105W        W 1920  36.955   4.790   3.863
32106W        W 1921  44.459   8.661  13.807
32107W        W 1922   1.770  21.745  13.381
32108W        W 1923   6.423  37.952  11.126
32109W        W 1924  44.350  32.407   3.734
32110W        W 1925  43.379  39.936   0.320
32111W        W 1926  41.941  21.607   1.211
32112W        W 1927  36.075  41.001   2.837
32113W        W 1928   5.817  25.571  12.476
32114W        W 1929  11.362  18.279   3.790
32115W        W 1930  21.149   3.431   4.228
32116W        W 1931  23.592  25.630  14.031
32117W        W 1932  39.454   7.684  14.310
32118W        W 1933  39.454  12.166  13.000
32119W        W 1934  13.189  31.118  12.400
32120W        W 1935  34.945  34.943  11.920
32121W        W 1936   0.762  21.220   5.166
32122W        W 1937  37.046  37.498  12.557
32123W        W 1938   8.213  44.791  14.395
32124W        W 1939  40.998   7.350   3.309
32125W        W 1940  36.473   1.473   4.726
32126W        W 1941  35.601  18.760  14.789
32127W        W 1942  28.592  35.000   4.188
32128W        W 1943  21.152   2.848   2.221
32129W        W 1944  17.739  18.725  12.844
32130W        W 1945  15.127  13.240   0.837
32131W        W 1946  23.641   0.771  13.458
32132W        W 1947   6.878  24.180   2.667
32133W        W 1948  12.639   8.737   0.855
32134W        W 1949  28.055  24.016  12.903
32135W        W 1950  35.034   3.314   1.850
32136W        W 1951  10.309  26.571   4.336
32137W        W 1952  13.653  29.438  11.403
32138W        W 1953  12.728  15.322  14.298
32139W        W 1954  30.094  39.315  12.495
32140W        W 1955  21.591   1.773   0.313
32141W        W 1956  33.503  15.708  10.558
32142W        W 1957   7.247  38.945  11.041
32143W        W 1958   7.412  31.940   1.719
32144W        W 1959  27.106  18.054  11.861
32145W        W 1960  20.041  42.459   4.141
32146W        W 1961  29.610  44.425   1.375
32147W        W 1962  29.099  31.599   2.876
32148W        W 1963   7.734  31.060  11.542
32149W        W 1964  41.450  22.727  10.431
32150W        W 1965   9.316  40.819   4.267
32151W        W 1966  33.408   1.793  11.901
32152W        W 1967  44.993  19.716  12.406
32153W        W 1968  22.586  22.667  14.362
32154W        W 1969  39.931  23.144  10.532
32155W        W 1970  17.129  25.185   3.356
32156W        W 1971   5.330   4.288   4.315
32157W        W 1972  23.678   5.340  13.367
32158W        W 1973  37.053   9.703   0.243
32159W        W 1974  25.481  19.566   5.267
32160W        W 1975  25.067  39.887  10.953
32161W        W 1976  15.115  12.289  10.460
32162W        W 1977  30.458  18.603  11.887
32163W        W 1978  14.321  17.070  12.000
32164W        W 1979  17.158  28.680   0.348
32165W        W 1980   9.844  15.248   2.367
32166W        W 1981  14.755  26.107   2.763
32167W        W 1982  14.219  17.211   3.368
32168W        W 1983   0.865  29.549  14.351
32169W        W 1984   9.347  38.386   4.630
32170W        W 1985  22.678  12.348  13.034
32171W        W 1986  30.507  34.938  11.460
32172W        W 1987  18.745  41.472   1.772
32173W        W 1988  15.588  18.598  12.477
32174W        W 1989  22.577  29.657  10.911
32175W        W 1990  38.962  43.278   1.412
32176W        W 1991  42.376  11.185   1.321
32177W        W 1992  14.779  35.872   5.292
32178W        W 1993   7.826  10.236  14.947
32179W        W 1994   3.268  13.177   3.757
32180W        W 1995  14.310  30.012   0.958
32181W        W 1996  12.136  34.023  14.982
32182W        W 1997  37.372  22.596  13.403
32183W        W 1998  34.048  40.381   0.326
32184W        W 1999  22.637   9.763   0.891
32185W        W 2000  12.694  23.214  11.127
32186W        W 2001   1.807   4.773   3.291
32187W        W 2002  22.667   2.815   1.932
32188W        W 2003  32.608  39.949   5.283
32189W        W 2004   0.468  15.813  11.106
32190W        W 2005  40.376  40.494   3.717
32191W        W 2006  44.337  18.219   5.282
32192W        W 2007  13.627   7.308   0.286
32193W        W 2008  11.798   2.917  12.525
32194W        W 2009  23.074  38.908  13.932
32195W        W 2010  31.417  23.065   4.671
32196W        W 2011  26.161  31.062  12.870
32197W        W 2012  44.008  34.922   3.722
32198W        W 2013  30.161  26.630   3.846
32199W        W 2014   6.248  41.988  13.465
32200W        W 2015   9.158  24.098   2.886
32201W        W 2016   1.965  28.007  12.843
32202W        W 2017  21.079  17.097   2.266
32203W        W 2018  20.115   0.941  14.945
32204W        W 2019  12.823   7.217  10.423
32205W        W 2020  21.674   4.717   1.705
32206W        W 2021  23.635   7.790   1.305
32207W        W 2022  10.286  40.526  10.453
32208W        W 2023  17.252   0.438  10.445
32209W        W 2024   5.699   6.390  11.902
32210W        W 2025  15.085  31.435   4.258
32211W        W 2026   5.402   2.782   4.151
32212W        W 2027   4.788  26.526   3.329
32213W        W 2028  39.500   2.389   3.786
32214W        W 2029   1.931  25.098   0.336
32215W        W 2030  24.699  16.568   1.290
32216W        W 2031  23.595  41.436  14.996
32217W        W 2032  28.563  39.892   0.340
32218W        W 2033  14.749  34.868   3.635
32219W        W 2034   5.345   2.795  13.530
32220W        W 2035   3.721  13.760  13.827
32221W        W 2036  43.422  27.078  14.951
32222W        W 2037  41.341  34.909  11.587
32223W        W 2038  17.556  33.461   1.873
32224W        W 2039   7.174   1.847   1.762
32225W        W 2040   6.346  44.403  12.019
32226W        W 2041   1.390  12.238   2.391
32227W        W 2042   8.838  22.698   3.713
32228W        W 2043  11.852  21.756   3.243
32229W        W 2044   4.936  43.448   1.415
32230W        W 2045  17.690  31.567  10.527
32231W        W 2046  21.748  28.669   3.758
32232W        W 2047  15.115  20.063   1.336
32233W        W 2048  30.432   9.228   4.745
32234W        W 2049  17.265  29.531  10.005
32235W        W 2050  11.723  44.347   1.402
32236W        W 2051  22.521   4.763  13.506
32237W        W 2052   5.878  27.126   1.757
32238W        W 2053   6.275  21.236  12.834
32239W        W 2054  19.093  42.864   0.279
32240W        W 2055  14.804  13.336  12.458
32241W        W 2056  30.097  29.106  14.358
32242W        W 2057  40.370  15.587   3.639
32243W        W 2058  37.486   3.294  12.025
32244W        W 2059  13.620  17.113  14.846
32245W        W 2060  40.375  12.275  12.570
32246W        W 2061  14.293  14.203  12.047
32247W        W 2062  25.546  10.203   2.763
32248W        W 2063   4.415  28.574   3.189
32249W        W 2064  16.141   4.313   2.278
32250W        W 2065  31.575  28.661  11.998
32251W        W 2066  34.571  37.487   2.258
32252W        W 2067  27.491   8.304  14.316
32253W        W 2068  31.614  32.417  13.817
32254W        W 2069   1.438  10.193  14.346
32255W        W 2070  24.532  41.984  13.862
32256W        W 2071  38.379  15.175   2.860
32257W        W 2072  32.969  33.582  11.893
32258W        W 2073  31.151  19.606  11.371
32259W        W 2074  37.939  30.075   3.201
32260W        W 2075  11.627  23.079  10.431
32261W        W 2076   2.471  18.584  11.997
32262W        W 2077   2.248  37.066  12.044
32263W        W 2078  18.164  34.956   3.361
32264W        W 2079   8.858  29.043   3.864
32265W        W 2080  38.904  30.640   0.754
32266W        W 2081  15.241  25.551   2.863
32267W        W 2082  40.987  27.646  14.964
32268W        W 2083   4.375  15.151  13.539
32269W        W 2084   0.492   3.326  13.940
32270W        W 2085   3.458  38.932  14.493
32271W        W 2086  27.458  13.233   0.772
32272W        W 2087  25.071  13.313  14.406
32273W        W 2088  33.929  19.202  13.546
32274W        W 2089  22.578  44.422  10.634
32275W        W 2090  39.446  10.362   0.968
32276W        W 2091  30.450   9.726   1.918
32277W        W 2092  18.097  38.552   4.125
32278W        W 2093  10.205  25.026  10.409
32279W        W 2094  34.070  41.854   4.608
32280W        W 2095   9.229  29.664  10.545
32281W        W 2096  13.791   1.400   4.303
32282W        W 2097   3.848  20.196  10.904
32283W        W 2098  34.977  31.451   5.193
32284W        W 2099   4.930   0.777  11.413
32285W        W 2100  10.640  22.076   2.386
32286W        W 2101   2.313  29.960  14.839
32287W        W 2102  10.875   0.445   0.267
32288W        W 2103  41.332  43.854   3.745
32289W        W 2104   8.173  29.425   0.840
32290W        W 2105  10.252  36.538  14.822
32291W        W 2106  27.045  39.848  14.498
32292W        W 2107  43.384  35.439  12.431
32293W        W 2108  11.700   4.885  14.902
32294W        W 2109  28.567   5.846  11.949
32295W        W 2110  13.198  23.709  13.918
32296W        W 2111  14.277  21.643  14.794
32297W        W 2112  34.059  19.635  10.480
32298W        W 2113  32.400  35.452   0.874
32299W        W 2114  19.711  37.037  13.330
32300W        W 2115  41.930  17.177  13.428
32301W        W 2116  41.386  32.034  11.107
32302W        W 2117   8.734  14.100   2.270
32303W        W 2118  29.437  26.504  12.490
32304W        W 2119  10.180  39.853   0.451
32305W        W 2120  17.179  43.850   3.341
32306W        W 2121  35.998  33.576   2.844
32307W        W 2122  22.629  14.823   2.278
32308W        W 2123  41.836  21.137   9.961
32309W        W 2124  29.101   1.239   0.912
32310W        W 2125  32.462  15.238  12.519
32311W        W 2126   6.302  11.170  10.582
32312W        W 2127  33.936  21.587  13.906
32313W        W 2128  37.394  33.442  13.855
32314W        W 2129  40.387  32.124  12.468
32315W        W 2130  25.622  42.504  10.618
32316W        W 2131  38.004  13.220  13.031
32317W        W 2132  19.150  15.697  14.392
32318W        W 2133  12.328  24.072   1.252
32319W        W 2134  21.607  40.441   1.440
32320W        W 2135  33.908  19.202   1.428
32321W        W 2136  19.623  25.617   3.367
32322W        W 2137   7.825   5.831   4.149
32323W        W 2138  15.672  22.665  11.443
32324W        W 2139   9.342  38.524  13.032
32325W        W 2140   5.845  31.976   3.651
32326W        W 2141   3.394  11.203   2.340
32327W        W 2142  44.383   1.744   1.337
32328W        W 2143   1.279   3.883   2.845
32329W        W 2144  23.734  34.475  12.989
32330W        W 2145  24.163  44.421  14.894
32331W        W 2146  21.672  34.374  12.342
32332W        W 2147  20.752  37.978   1.853
32333W        W 2148  12.770   1.465  12.932
32334W        W 2149  16.310  15.122  12.459
32335W        W 2150  32.516  11.790   0.383
32336W        W 2151   7.787  17.292  12.520
32337W        W 2152  24.544  44.401  11.529
32338W        W 2153  14.665  16.122  12.837
32339W        W 2154  38.860  21.207  11.490
32340W        W 2155  21.216  22.527   5.303
32341W        W 2156   4.261  13.761  14.912
32342W        W 2157  27.644  41.867  14.306
32343W        W 2158  15.708  19.202  13.513
32344W        W 2159   7.254  10.246  12.919
32345W        W 2160   7.276  14.183   2.775
32346W        W 2161  15.244  29.002   4.727
32347W        W 2162  27.106   6.754  11.857
32348W        W 2163  43.823  18.259   0.791
32349W        W 2164   7.687  33.480   1.828
32350W        W 2165  17.070  43.292  10.564
32351W        W 2166  33.937  39.452  13.881
32352W        W 2167  29.527  26.544  10.110
32353W        W 2168   8.201   7.265   4.183
32354W        W 2169   2.882   4.766   3.191
32355W        W 2170   0.762  19.266  13.037
32356W        W 2171  30.487  22.614   0.412
32357W        W 2172  14.683   5.401   4.114
32358W        W 2173  31.489  44.914   1.263
32359W        W 2174  35.918  12.668  12.084
32360W        W 2175  14.742  39.327  10.604
32361W        W 2176  29.520  25.101   1.787
32362W        W 2177  26.469  36.977  10.555
32363W        W 2178  10.352  29.056  14.419
32364W        W 2179  29.932  14.159  14.916
32365W        W 2180  30.612   1.767   1.750
32366W        W 2181  39.040  18.764  14.008
32367W        W 2182  19.692  37.075   4.241
32368W        W 2183  31.574  12.853   3.631
32369W        W 2184   2.449   6.789  11.952
32370W        W 2185  43.361  11.795  13.978
32371W        W 2186  38.451  24.140  12.426
32372W        W 2187  25.685  10.699   2.767
32373W        W 2188  39.405  12.811  14.893
32374W        W 2189  41.805  24.123  11.024
32375W        W 2190  16.119  41.888   0.909
32376W        W 2191   6.853   5.367  13.446
32377W        W 2192  15.259   1.327  13.918
32378W        W 2193  10.165  25.024   1.872
32379W        W 2194   7.873  32.547   3.692
32380W        W 2195  40.337  33.569   0.288
32381W        W 2196  28.181  29.096   4.355
32382W        W 2197  12.214  30.035  13.042
32383W        W 2198  16.132   4.336   0.269
32384W        W 2199  34.603  11.271   3.290
32385W        W 2200   4.874  43.292  13.433
32386W        W 2201   9.804   6.772  12.523
32387W        W 2202   3.828   0.398   2.260
32388W        W 2203  23.509  10.676  14.901
32389W        W 2204   6.835  27.032   1.272
32390W        W 2205  43.858  29.476   4.748
32391W        W 2206  39.959  32.458   2.776
32392W        W 2207  27.458  40.478  12.016
32393W        W 2208  43.826  41.818   0.351
32394W        W 2209  25.587  15.823   4.829
32395W        W 2210  16.691  42.834  10.091
32396W        W 2211  32.471  30.623  12.529
32397W        W 2212  39.373  16.220   2.274
32398W        W 2213   2.266  18.219  12.530
32399W        W 2214  27.460   0.963  13.010
32400W        W 2215   0.309  43.991  11.107
32401W        W 2216  37.923   4.284  10.933
32402W        W 2217  25.128   3.912  14.850
32403W        W 2218  41.992   1.385   2.274
32404W        W 2219  24.647  18.570  11.109
32405W        W 2220   1.381  28.666  12.955
32406W        W 2221  44.951  29.942  11.570
32407W        W 2222  29.500  24.648  14.831
32408W        W 2223   9.686  24.100   4.762
32409W        W 2224   8.322  11.338  12.071
32410W        W 2225  16.288  40.330  12.094
32411W        W 2226  15.776  38.522  11.925
32412W        W 2227  41.978  26.652  11.600
32413W        W 2228  24.014  44.442   2.711
32414W        W 2229  15.102  28.669  14.343
32415W        W 2230  16.226  23.008   0.860
32416W        W 2231  35.491  37.893   0.963
32417W        W 2232  33.089  42.924  14.284
32418W        W 2233  10.641   4.420   4.179
32419W        W 2234   7.253   4.917  13.384
32420W        W 2235  23.729  31.465   3.345
32421W        W 2236  19.651   9.256   0.389
32422W        W 2237  33.086   8.332  10.461
32423W        W 2238  25.610  15.737   3.162
32424W        W 2239  19.070  44.910  10.431
32425W        W 2240   9.199  17.133   2.707
32426W        W 2241  32.037  35.524   0.370
32427W        W 2242  34.511  42.480   4.236
32428W        W 2243  20.739   2.406  13.823
32429W        W 2244  28.939  25.522  13.475
32430W        W 2245   0.391  13.629  12.843
32431W        W 2246  18.199   8.661  11.540
32432W        W 2247  26.542   7.291   4.239
32433W        W 2248  31.028  39.959   3.255
32434W        W 2249  22.733  44.470   0.390
32435W        W 2250  19.085   0.938   1.896
32436W        W 2251  21.669  42.029  11.514
32437W        W 2252  32.529  35.871  13.880
32438W        W 2253  39.377  32.530   1.740
32439W        W 2254  43.929  35.587  11.049
32440W        W 2255  20.132  25.152  13.006
32441W        W 2256   7.732  26.089   2.225
32442W        W 2257  19.285  33.503  13.857
32443W        W 2258  11.707  10.295  10.601
32444W        W 2259  38.380  21.671  13.496
32445W        W 2260  33.076  33.898   4.618
32446W        W 2261  34.486  37.952  13.022
32447W        W 2262  28.571  33.938   3.688
32448W        W 2263  13.211  27.641   4.607
32449W        W 2264   6.711  14.182  12.510
32450W        W 2265  18.212  36.961  13.464
32451W        W 2266  13.148   5.430   4.126
32452W        W 2267  32.983  35.989  11.427
32453W        W 2268  33.888  24.088  14.907
32454W        W 2269  40.862  37.020   1.230
32455W        W 2270   0.915  41.367  10.021
32456W        W 2271  22.132  39.887  14.281
32457W        W 2272  32.101  25.139  14.416
32458W        W 2273   3.840  35.417  13.421
32459W        W 2274   8.218   2.737  13.502
32460W        W 2275  19.754  33.914  13.413
32461W        W 2276  22.654  15.328  14.343
32462W        W 2277  13.160  31.919  13.961
32463W        W 2278   8.848   3.737   5.088
32464W        W 2279  21.152   4.270  13.451
32465W        W 2280   7.245   9.771  10.492
32466W        W 2281  15.328  24.498   4.329
32467W        W 2282  32.542  17.074   2.323
32468W        W 2283   8.724  17.632   4.642
32469W        W 2284  26.141   6.421  11.987
32470W        W 2285  35.487  33.512   0.324
32471W        W 2286  16.680   1.474   1.881
32472W        W 2287  28.996  25.677  11.495
32473W        W 2288  15.813  20.634   4.225
32474W        W 2289  22.599  23.994   1.374
32475W        W 2290  11.717  20.232  12.553
32476W        W 2291  12.150  16.678   3.327
32477W        W 2292   1.915  10.189  14.008
32478W        W 2293  18.074  26.152   1.722
32479W        W 2294  32.621  19.187   4.136
32480W        W 2295  35.082  43.925  11.573
32481W        W 2296  27.047  26.480  10.114
32482W        W 2297  23.624  15.180   4.131
32483W        W 2298   3.340  40.856  14.284
32484W        W 2299  18.646   4.708   4.225
32485W        W 2300  19.099  44.452  12.070
32486W        W 2301  12.641  27.177  14.290
32487W        W 2302  42.486  20.225   4.758
32488W        W 2303   4.735  42.323   1.735
32489W        W 2304  16.138  28.579  14.510
32490W        W 2305  22.606   0.779   3.706
32491W        W 2306   4.317  19.738   0.805
32492W        W 2307  36.434   1.753  13.001
32493W        W 2308  14.099  27.604  13.000
32494W        W 2309  42.374  12.850  10.472
32495W        W 2310  17.637  21.613  10.455
32496W        W 2311  44.372  34.877  13.795
32497W        W 2312  28.600  35.866   4.162
32498W        W 2313  18.129  35.468   1.709
32499W        W 2314  38.891   0.939  12.913
32500W        W 2315  41.013  23.631  12.453
32501W        W 2316  20.031  29.080   4.716
32502W        W 2317   4.816  44.880  14.787
32503W        W 2318  27.061   3.774  14.887
32504W        W 2319  27.685  37.988  11.534
32505W        W 2320  10.707  22.690  11.974
32506W        W 2321  24.985  26.501  11.912
32507W        W 2322  17.588  30.613  11.519
32508W        W 2323   8.368  36.945   3.190
32509W        W 2324   0.330  16.182   4.710
32510W        W 2325  25.200  40.527  12.889
32511W        W 2326   0.818  23.524  14.858
32512W        W 2327   5.797  26.591  11.870
32513W        W 2328  12.802   1.244  11.869
32514W        W 2329  25.569  37.484  10.645
32515W        W 2330  19.081  37.845   2.261
32516W        W 2331  38.495  31.455  11.985
32517W        W 2332  38.367  32.629   2.673
32518W        W 2333  31.071  39.387  12.826
32519W        W 2334  15.586   0.863   1.769
32520W        W 2335  37.345  40.403  10.995
32521W        W 2336  10.375  16.578   3.802
32522W        W 2337  31.091   7.260   0.854
32523W        W 2338  38.369   0.792   3.188
32524W        W 2339   4.822   1.361  13.008
32525W        W 2340  12.152  13.751  13.426
32526W        W 2341  36.494  15.324  13.815
32527W        W 2342  12.288  22.126  12.413
32528W        W 2343  22.600  16.215   4.318
32529W        W 2344  26.510  44.899  13.968
32530W        W 2345   6.825  18.682  12.890
32531W        W 2346  27.962  34.069   0.749
32532W        W 2347  41.902  24.059   3.320
32533W        W 2348  18.220  41.845   3.376
32534W        W 2349  39.957  24.693  12.055
32535W        W 2350  28.548   2.873  11.090
32536W        W 2351  41.001  40.526   0.933
32537W        W 2352  37.389  43.279   3.172
32538W        W 2353   7.231  35.539   4.258
32539W        W 2354  38.462   9.681   1.368
32540W        W 2355   3.218  43.286   1.420
32541W        W 2356  39.941  39.956  12.445
32542W        W 2357   7.376   9.699   1.738
32543W        W 2358  41.532  17.070   1.925
32544W        W 2359  24.680  13.752  13.412
32545W        W 2360  40.446   8.842   3.165
32546W        W 2361  12.632   6.873  12.064
32547W        W 2362  26.168   6.259   4.631
32548W        W 2363  37.047  31.144  11.074
32549W        W 2364  13.345   2.360  11.980
32550W        W 2365  44.910  40.408  14.290
32551W        W 2366   7.699  30.061   0.939
32552W        W 2367  39.882  40.865   3.630
32553W        W 2368  22.536  35.548   3.723
32554W        W 2369  33.944  12.259   2.294
32555W        W 2370  10.750  15.819   0.384
32556W        W 2371  42.414  37.571   4.273
32557W        W 2372  27.604  19.673   4.617
32558W        W 2373   8.788  27.960   0.402
32559W        W 2374  22.705  19.624   0.842
32560W        W 2375   4.243   3.732  14.899
32561W        W 2376  44.809  19.166  14.956
32562W        W 2377  39.541   9.722  11.115
32563W        W 2378  31.552  14.679  11.051
32564W        W 2379   1.343  40.309  12.382
32565W        W 2380   0.306   7.356   3.169
32566W        W 2381  20.037  44.401   0.482
32567W        W 2382  38.340  24.087  10.412
32568W        W 2383  22.525  39.039  13.397
32569W        W 2384   5.917   8.781   4.286
32570W        W 2385  31.975  43.500   5.196
32571W        W 2386  20.751  14.701   3.714
32572W        W 2387   0.926  29.545   2.719
32573W        W 2388  12.843   1.831  14.947
32574W        W 2389  20.543   7.726   3.649
32575W        W 2390   5.775  41.942   2.203
32576W        W 2391   3.451   5.791  13.376
32577W        W 2392  44.882  33.911   1.764
32578W        W 2393  13.316  16.617   5.090
32579W        W 2394  28.503  11.741   1.403
32580W        W 2395  10.709  37.434   0.811
32581W        W 2396  15.730  42.817   0.345
32582W        W 2397  37.431  32.969   2.191
32583W        W 2398  36.058   9.781   1.303
32584W        W 2399  27.198  22.556  12.436
32585W        W 2400  19.669   1.954  10.437
32586W        W 2401  41.891  11.800   2.770
32587W        W 2402  33.031   4.801  12.925
32588W        W 2403  37.377  25.564  11.541
32589W        W 2404  30.422   1.836   0.914
32590W        W 2405  40.499   1.331   5.669
32591W        W 2406  29.091  19.772   2.745
32592W        W 2407   0.930  44.778  11.405
32593W        W 2408  31.134   2.463  13.979
32594W        W 2409  17.290  42.417   0.857
32595W        W 2410  38.511  30.963   2.303
32596W        W 2411  21.053  24.987  11.613
32597W        W 2412  32.424   1.402   2.283
32598W        W 2413  10.645  21.068   2.264
32599W        W 2414  33.088  16.594  13.969
32600W        W 2415  26.515  34.001  11.067
32601W        W 2416  10.253  26.676   3.730
32602W        W 2417  20.693   7.319  14.926
32603W        W 2418   3.910  12.748  10.521
32604W        W 2419  41.857  35.934  11.961
32605W        W 2420  17.104  39.905   0.289
32606W        W 2421   0.923  36.075   0.416
32607W        W 2422  32.620  37.894  12.876
32608W        W 2423  18.168  35.944  14.377
32609W        W 2424  24.674  30.491  10.900
32610W        W 2425  20.232   2.240   0.336
32611W        W 2426  39.517   2.888   0.476
32612W        W 2427  16.751  25.162  11.065
32613W        W 2428  38.994  32.897   1.884
32614W        W 2429  16.139  10.777  14.413
32615W        W 2430  15.123  35.890  10.429
32616W        W 2431  42.384   5.737  12.010
32617W        W 2432  33.470  22.063  14.779
32618W        W 2433   7.397  42.301  11.606
32619W        W 2434  17.688  38.403  11.372
32620W        W 2435  20.124  18.600   4.728
32621W        W 2436  37.372  41.018   0.282
32622W        W 2437  37.874  43.503   4.187
32623W        W 2438  28.612   7.212   3.695
32624W        W 2439  35.561   3.771  12.488
32625W        W 2440  33.533   7.708  11.890
32626W        W 2441   1.887  21.734  13.876
32627W        W 2442  16.147  29.020   1.229
32628W        W 2443  21.075  30.619  11.580
32629W        W 2444  19.096  25.647   2.844
32630W        W 2445  42.791  34.529   3.204
32631W        W 2446   6.353  30.931   3.811
32632W        W 2447   2.289  18.208  13.993
32633W        W 2448   5.231  15.687   1.905
32634W        W 2449   8.674  17.073  11.986
32635W        W 2450  41.347  18.787  13.820
32636W        W 2451  21.079  16.254  14.911
32637W        W 2452   8.736  15.276  11.895
32638W        W 2453   2.965  23.512  13.514
32639W        W 2454  16.661  22.741   0.465
32640W        W 2455  36.561  21.222  12.992
32641W        W 2456   7.204   8.219   4.210
32642W        W 2457  43.375   0.823   1.873
32643W        W 2458   7.222  39.043   2.894
32644W        W 2459  22.210  24.208  11.503
32645W        W 2460  44.764  31.035   2.388
32646W        W 2461  22.160  32.940   1.752
32647W        W 2462   4.730  30.991   0.940
32648W        W 2463  23.555  13.715   1.830
32649W        W 2464  21.678  24.101  13.494
32650W        W 2465  38.450  17.713  12.516
32651W        W 2466  25.129  20.085   3.725
32652W        W 2467   0.247  16.795  13.850
32653W        W 2468  26.195  41.316  11.102
32654W        W 2469   9.671  16.811   3.296
32655W        W 2470   0.962  21.129   4.706
32656W        W 2471  11.255  37.386  10.512
32657W        W 2472  43.435  18.690  13.492
32658W        W 2473  27.089   7.709   0.944
32659W        W 2474   6.215  14.226  12.545
32660W        W 2475  32.951  25.650  11.480
32661W        W 2476  16.299  37.514  13.381
32662W        W 2477   9.303  33.091   2.854
32663W        W 2478  12.238  42.808   4.834
32664W        W 2479   0.329  19.086  11.027
32665W        W 2480  22.108  33.037  11.945
32666W        W 2481  34.379  10.733   4.260
32667W        W 2482   9.237  29.473   0.862
32668W        W 2483  25.685  20.692  10.622
32669W        W 2484   1.916  40.402  11.925
32670W        W 2485  44.999   9.838  13.324
32671W        W 2486  17.566  16.778   0.739
32672W        W 2487  15.103   7.886  13.886
32673W        W 2488  14.597  15.745  11.871
32674W        W 2489  31.004   1.280   3.839
32675W        W 2490  24.982  44.946  15.000
32676W        W 2491  18.550  40.368  10.569
32677W        W 2492  24.208  33.951  13.392
32678W        W 2493  19.272  30.951  14.796
32679W        W 2494  18.559  28.479   0.823
32680W        W 2495   8.185  31.072   4.119
32681W        W 2496  18.747  35.923   2.756
32682W        W 2497  35.579   0.328   1.782
32683W        W 2498  37.390  33.926  10.925
32684W        W 2499  27.052  30.143   0.421
32685W        W 2500  30.574   2.275  12.885
32686W        W 2501  13.796  16.265   1.710
32687W        W 2502  26.159  20.595  14.871
32688W        W 2503   5.855  25.988  13.475
32689W        W 2504  34.473   5.894   2.304
32690W        W 2505   9.858  22.522   4.635
32691W        W 2506  38.855  44.316  11.449
32692W        W 2507  34.872  13.185  14.925
32693W        W 2508  22.218  41.325   0.784
32694W        W 2509  20.116  40.890  14.876
32695W        W 2510  43.947   2.325   0.912
32696W        W 2511  16.607  36.017  11.871
32697W        W 2512  26.611  33.486   0.376
32698W        W 2513   6.196   0.408   4.695
32699W        W 2514  24.630  39.980   1.308
32700W        W 2515  29.429  37.068   2.894
32701W        W 2516  43.963  44.308   3.763
32702W        W 2517  17.156   2.385  10.972
32703W        W 2518  16.143   1.904   4.186
32704W        W 2519   4.279  34.020  10.590
32705W        W 2520  37.877  10.334   2.668
32706W        W 2521  16.277   0.296  14.986
32707W        W 2522  40.818  33.429  10.519
32708W        W 2523   8.899   8.725   2.866
32709W        W 2524  34.071  25.611   1.364
32710W        W 2525   5.192  19.544  12.987
32711W        W 2526  23.228   3.841  10.540
32712W        W 2527  23.688   7.759  11.976
32713W        W 2528  19.085  43.914  11.886
32714W        W 2529  30.942  16.599   3.702
32715W        W 2530  13.649  27.494   3.783
32716W        W 2531  31.615  25.494   0.843
32717W        W 2532  18.202  18.051   4.244
32718W        W 2533  24.659  14.167   2.802
32719W        W 2534   9.284  24.975  13.313
32720W        W 2535  11.864  14.304  12.919
32721W        W 2536  22.666   2.329  13.928
32722W        W 2537  40.363  26.698   0.481
32723W        W 2538  24.211  22.063   4.312
32724W        W 2539  27.608   9.288  12.923
32725W        W 2540  29.019  19.131   0.788
32726W        W 2541  34.007   5.262  11.409
32727W        W 2542   9.704  28.542   4.343
32728W        W 2543  15.780   0.398  11.988
32729W        W 2544  29.022  31.919   2.308
32730W        W 2545  26.023  20.667   1.862
32731W        W 2546   8.244   1.892  13.937
32732W        W 2547   5.931  23.121  12.564
32733W        W 2548  17.757   8.313   3.779
32734W        W 2549  40.907  34.529  11.440
32735W        W 2550  15.629  33.106  13.481
32736W        W 2551  27.506  44.004   0.753
32737W        W 2552  13.799   5.207  12.511
32738W        W 2553  18.067  26.536  12.926
32739W        W 2554   6.869  43.779  10.502
32740W        W 2555  28.079   7.351   9.961
32741W        W 2556  36.357  24.638   0.480
32742W        W 2557  28.100   9.879  11.477
32743W        W 2558  35.017   3.896   0.461
32744W        W 2559   6.912  42.818  11.950
32745W        W 2560  43.405  11.852  11.974
32746W        W 2561  13.151  41.316  13.390
32747W        W 2562   1.755   7.276   0.331
32748W        W 2563  40.313  24.057  14.967
32749W        W 2564  36.964  10.702  13.883
32750W        W 2565  27.946  19.644   5.150
32751W        W 2566  37.947  24.628   2.842
32752W        W 2567  28.456  33.576  10.403
32753W        W 2568  17.756  16.239   0.264
32754W        W 2569  23.677  29.087  14.997
32755W        W 2570  28.083   7.368  10.552
32756W        W 2571  25.188  23.052   1.265
32757W        W 2572  12.622  20.523  13.460
32758W        W 2573  11.794  44.341  13.811
32759W        W 2574   7.897  32.498  11.032
32760W        W 2575  32.396   2.863   3.666
32761W        W 2576  38.903  22.532   3.371
32762W        W 2577  10.708  29.614   2.859
32763W        W 2578  42.887  36.565  13.831
32764W        W 2579  15.305  22.539  10.537
32765W        W 2580  39.446  39.937   4.118
32766W        W 2581  21.100  25.598   0.814
32767W        W 2582  15.178  27.983   4.269
32768W        W 2583  18.061  14.716   0.845
32769W        W 2584  44.866  16.735   0.932
32770W        W 2585  24.195  36.092   0.351
32771W        W 2586  17.149   4.410  13.936
32772W        W 2587  42.018  24.664   4.742
32773W        W 2588  21.192   9.321  14.342
32774W        W 2589  17.652  38.550  13.362
32775W        W 2590  39.327  22.116  11.981
32776W        W 2591   3.935  41.463  14.304
32777W        W 2592  10.743  25.174  11.556
32778W        W 2593  44.494  11.774   1.700
32779W        W 2594  11.638   0.945  10.460
32780W        W 2595  12.751  34.534  13.537
32781W        W 2596   7.804  24.147  11.889
32782W        W 2597   5.309  43.375  14.769
32783W        W 2598  20.540   2.268   1.755
32784W        W 2599   9.652   0.284  13.014
32785W        W 2600  23.698  20.613   3.637
32786W        W 2601  21.552  18.162  10.936
32787W        W 2602  36.038   3.710  14.808
32788W        W 2603  14.598   2.789   2.743
32789W        W 2604   7.763  25.624  11.513
32790W        W 2605  38.400  38.570   1.443
32791W        W 2606   5.360  26.598   3.331
32792W        W 2607  33.110  37.992   1.315
32793W        W 2608  14.166  29.977   0.314
32794W        W 2609  42.288  27.085  10.922
32795W        W 2610   0.925   7.794  12.420
32796W        W 2611  36.384  26.156   1.853
32797W        W 2612  40.852  41.531  13.986
32798W        W 2613  27.959  32.548   4.660
32799W        W 2614  11.261   5.389   0.930
32800W        W 2615  12.713   6.199  13.926
32801W        W 2616   4.850  44.825   2.278
32802W        W 2617  14.798  29.426  14.343
32803W        W 2618  23.079  38.954   0.963
32804W        W 2619  27.149  20.048  12.479
32805W        W 2620  17.745   3.453  13.484
32806W        W 2621  40.005  12.139   3.858
32807W        W 2622  30.537  20.718   1.696
32808W        W 2623  25.469  25.589   4.145
32809W        W 2624  14.825   6.195  13.547
32810W        W 2625   4.318   4.942   2.682
32811W        W 2626  23.646   1.972   4.284
32812W        W 2627  34.400  25.626  10.569
32813W        W 2628  36.483  40.372   3.735
32814W        W 2629  17.062  44.933  14.336
32815W        W 2630   6.298  40.434  14.317
32816W        W 2631  30.121  40.012   1.868
32817W        W 2632  37.056  27.039  11.956
32818W        W 2633   3.284   5.298   2.419
32819W        W 2634   0.361  10.277  10.443
32820W        W 2635   5.934  33.019   1.826
32821W        W 2636  31.011  16.214   2.403
32822W        W 2637  20.589  42.420   2.853
32823W        W 2638   7.754  11.198  13.536
32824W        W 2639  20.568  17.152   4.837
32825W        W 2640   0.368   8.181   2.792
32826W        W 2641  43.358  34.421   4.694
32827W        W 2642  19.652  28.165  11.857
32828W        W 2643  35.592  33.614  13.337
32829W        W 2644  25.206  35.002  13.491
32830W        W 2645   1.831  14.761   4.143
32831W        W 2646  19.637  42.456   4.646
32832W        W 2647  32.988  25.631  12.893
32833W        W 2648  24.140  28.005  10.903
32834W        W 2649   9.741   8.296  10.419
32835W        W 2650  23.029   0.866   4.823
32836W        W 2651  16.593  29.161  10.615
32837W        W 2652  15.264  15.115   2.334
32838W        W 2653  21.177   9.335  14.962
32839W        W 2654  15.701  19.093   4.639
32840W        W 2655  18.715  33.571   2.755
32841W        W 2656  11.217  10.373  10.113
32842W        W 2657  41.950  30.915   0.425
32843W        W 2658  41.499  37.537   2.771
32844W        W 2659  31.418  43.335   4.276
32845W        W 2660  42.521  35.601   4.734
32846W        W 2661  28.143   2.327  11.960
32847W        W 2662  11.694   4.888  12.977
32848W        W 2663  14.331  20.065   0.767
32849W        W 2664   4.266  30.958  13.536
32850W        W 2665  11.851  14.620   3.801
32851W        W 2666  37.463   8.759  14.891
32852W        W 2667  18.587  36.346   4.758
32853W        W 2668  12.853   2.433  14.926
32854W        W 2669  10.762   3.242  11.057
32855W        W 2670  38.523  24.974  10.407
32856W        W 2671  33.940  11.284   1.757
32857W        W 2672   2.777  16.167  11.507
32858W        W 2673  33.045  43.385   2.839
32859W        W 2674  19.643  43.919  11.993
32860W        W 2675  15.790  32.127   5.245
32861W        W 2676  10.216  28.140  11.386
32862W        W 2677  28.643  44.785  12.499
32863W        W 2678  10.743   0.915   3.332
32864W        W 2679   7.772  24.098  12.962
32865W        W 2680  29.501   8.692   9.945
32866W        W 2681  30.566  21.210   1.916
32867W        W 2682   6.197  35.491   3.755
32868W        W 2683  30.464  27.114   0.358
32869W        W 2684  32.451  20.725   0.943
32870W        W 2685  39.851  36.362  12.416
32871W        W 2686  22.595  24.126  10.477
32872W        W 2687  18.082  44.280   2.750
32873W        W 2688  15.658  13.683   0.446
32874W        W 2689  37.434  42.519  11.371
32875W        W 2690  32.437  22.690  12.432
32876W        W 2691  11.820  37.440  13.339
32877W        W 2692  26.499   8.312  11.610
32878W        W 2693  43.318  14.779   1.405
32879W        W 2694  24.512  25.529   1.423
32880W        W 2695  18.657  14.214  10.098
32881W        W 2696  31.981  12.124  13.011
32882W        W 2697  26.605   6.208   1.261
32883W        W 2698  16.671  44.431   3.222
32884W        W 2699  21.716  42.967  14.805
32885W        W 2700  22.510  24.603   2.804
32886W        W 2701  15.267  19.536   1.887
32887W        W 2702  24.998  11.773   3.312
32888W        W 2703  18.637   6.318   5.179
32889W        W 2704  20.638   0.470  12.946
32890W        W 2705   3.310  36.512  10.895
32891W        W 2706  18.163  25.498   2.680
32892W        W 2707  10.782  44.962   0.264
32893W        W 2708  34.610  43.985   2.813
32894W        W 2709  30.066  19.171  13.965
32895W        W 2710  12.853   7.313  13.467
32896W        W 2711   2.430   5.213  11.399
32897W        W 2712  23.607   0.755   1.880
32898W        W 2713  16.626  20.053   0.389
32899W        W 2714   3.254  26.525  14.944
32900W        W 2715  42.320  38.062  13.515
32901W        W 2716  33.468  31.597  13.846
32902W        W 2717  18.679  28.177  10.634
32903W        W 2718  32.411  16.648   3.746
32904W        W 2719  22.048  43.459  12.942
32905W        W 2720  28.650   4.369   1.696
32906W        W 2721  18.749  25.700   0.798
32907W        W 2722  29.620  31.495  13.047
32908W        W 2723   8.257  13.706   4.728
32909W        W 2724   9.235  44.991  11.961
32910W        W 2725  26.551  16.211  13.865
32911W        W 2726  15.626   6.699  11.545
32912W        W 2727   4.444  40.427  12.904
32913W        W 2728  17.254  22.746   0.795
32914W        W 2729  15.097  13.757   1.703
32915W        W 2730   8.676  19.563  12.043
32916W        W 2731   7.181  37.854  11.021
32917W        W 2732  37.576  40.942   0.755
32918W        W 2733   0.870   3.451   4.218
32919W        W 2734  24.511   0.304   4.789
32920W        W 2735  10.763  22.501  13.008
32921W        W 2736  14.097  39.055   5.094
32922W        W 2737   7.354   5.804  14.305
32923W        W 2738  17.614  28.961  12.473
32924W        W 2739  22.120   9.183   3.170
32925W        W 2740  24.134  31.607   4.293
32926W        W 2741  22.582   9.316  11.511
32927W        W 2742   2.883  29.071  14.410
32928W        W 2743  10.155  22.231   0.356
32929W        W 2744  11.788  22.602   2.830
32930W        W 2745  41.431   3.937   3.379
32931W        W 2746  14.681  28.589   4.615
32932W        W 2747  18.248   9.218   4.168
32933W        W 2748  35.463  23.593   4.760
32934W        W 2749  43.928  20.178  10.975
32935W        W 2750   8.301   3.227   2.712
32936W        W 2751  22.606  37.512  11.594
32937W        W 2752  28.150  23.683   1.263
32938W        W 2753  44.276   8.182   1.889
32939W        W 2754  33.081   8.694  14.313
32940W        W 2755  34.508  36.966   0.849
32941W        W 2756  14.238  15.142  13.915
32942W        W 2757  33.005  29.994   0.330
32943W        W 2758  13.752  35.034   2.250
32944W        W 2759   4.870  35.571   5.101
32945W        W 2760  13.836  44.356  10.045
32946W        W 2761   6.420  41.003  12.897
32947W        W 2762  34.520   6.321  12.039
32948W        W 2763  25.205  44.390  12.518
32949W        W 2764  38.844  22.998  12.507
32950W        W 2765  29.631  40.474   3.776
32951W        W 2766   9.241  35.473  11.450
32952W        W 2767  22.531  11.783   3.844
32953W        W 2768  38.556  18.244  10.541
32954W        W 2769   5.898   5.413   4.770
32955W        W 2770  16.614  40.811   2.329
32956W        W 2771   3.220  28.116  11.882
32957W        W 2772  31.606  23.183  14.423
32958W        W 2773   1.789  37.353  11.889
32959W        W 2774  15.091  29.962   4.758
32960W        W 2775   3.775  34.871   2.387
32961W        W 2776   7.813  29.979  14.447
32962W        W 2777  10.808  27.026  12.539
32963W        W 2778  36.570   4.256   4.601
32964W        W 2779  21.612  23.099  10.482
32965W        W 2780  14.723  14.233   4.311
32966W        W 2781  13.228  29.962  10.900
32967W        W 2782   8.856   6.280  11.982
32968W        W 2783  37.832  43.784   1.915
32969W        W 2784  19.108  30.909  13.967
32970W        W 2785   5.414  21.611   3.832
32971W        W 2786  33.070  27.595   1.726
32972W        W 2787  23.626  38.343   5.145
32973W        W 2788  11.718  29.984   2.324
32974W        W 2789   5.719  23.199   4.244
32975W        W 2790   9.375  19.595   4.340
32976W        W 2791   9.699   0.291   0.787
32977W        W 2792  26.623  32.579  13.340
32978W        W 2793  17.098   7.794   2.297
32979W        W 2794  28.097  39.843  14.764
32980W        W 2795  19.143  38.400   1.300
32981W        W 2796  22.646   5.395  11.491
32982W        W 2797  39.867   5.435   4.119
32983W        W 2798   9.384   7.885  11.871
32984W        W 2799  34.882  14.296   0.276
32985W        W 2800  33.950  24.684  13.353
32986W        W 2801  40.034  22.570   1.252
32987W        W 2802  33.109   2.441   3.353
32988W        W 2803   1.967  20.619  11.407
32989W        W 2804   2.411  31.130  12.398
32990W        W 2805  21.528  10.657   3.648
32991W        W 2806  17.295  20.699  13.503
32992W        W 2807  29.635  15.148  10.542
32993W        W 2808  22.110  39.433   2.272
32994W        W 2809  33.502  41.987   3.846
32995W        W 2810  30.966  22.194   1.856
32996W        W 2811  34.419  32.583   3.854
32997W        W 2812  11.334   0.778  12.509
32998W        W 2813  39.012  13.679   4.147
32999W        W 2814  31.989  34.498  10.464
33000W        W 2815  44.299  44.938  12.022
33001W        W 2816   1.463   4.898  13.967
33002W        W 2817  11.688   4.445  12.373
33003W        W 2818  39.416  38.906  13.385
33004W        W 2819  42.498  35.091  14.302
33005W        W 2820  23.716  33.878  13.022
33006W        W 2821  28.571   5.396  10.930
33007W        W 2822  16.264   3.929  14.279
33008W        W 2823   4.915  22.253  10.143
33009W        W 2824  17.707  40.898  13.014
33010W        W 2825  43.427  25.524  11.548
33011W        W 2826  19.695  44.836  14.882
33012W        W 2827  40.321   4.748  14.480
33013W        W 2828   9.753   8.686  12.572
33014W        W 2829  42.412  20.213  14.892
33015W        W 2830   1.470  38.021   4.265
33016W        W 2831   4.797  20.646  13.981
33017W        W 2832  26.094  27.194   0.335
33018W        W 2833  33.015   8.778   4.700
33019W        W 2834   8.888  23.636   3.284
33020W        W 2835  17.085   4.321  13.381
33021W        W 2836  29.932  33.080   0.812
33022W        W 2837  36.074  34.112  12.826
33023W        W 2838  34.585  32.113   5.256
33024W        W 2839  21.166  12.221  13.452
33025W        W 2840   9.318   4.244   0.306
33026W        W 2841  16.799   2.297   0.886
33027W        W 2842  37.054  31.631  13.913
33028W        W 2843  13.218  15.288   4.278
33029W        W 2844  20.174  22.225  14.841
33030W        W 2845  27.961  22.645  10.953
33031W        W 2846  12.641  32.453   0.887
33032W        W 2847  15.601  42.342   3.242
33033W        W 2848  13.781  16.610  12.011
33034W        W 2849  29.010  11.772   1.215
33035W        W 2850  18.296   8.253  14.309
33036W        W 2851  28.492  43.807   2.745
33037W        W 2852   3.815  32.892  11.073
33038W        W 2853   6.402  12.661  14.019
33039W        W 2854  24.227  42.287  14.339
33040W        W 2855  24.588  17.794   5.238
33041W        W 2856  34.101  37.506  10.981
33042W        W 2857   9.764  18.128   4.120
33043W        W 2858  37.942  32.945  13.463
33044W        W 2859   6.680  23.735   3.157
33045W        W 2860  41.952  15.692   3.310
33046W        W 2861  33.435  28.141   2.371
33047W        W 2862  44.492   0.776   2.300
33048W        W 2863  27.988  23.578   2.334
33049W        W 2864  24.703  19.267   2.276
33050W        W 2865  27.622  28.554  11.962
33051W        W 2866   0.779  43.941  10.600
33052W        W 2867  23.515  28.140   3.794
33053W        W 2868  27.084  28.943  10.970
33054W        W 2869  32.486  19.595   0.286
33055W        W 2870   4.437  42.491  12.074
33056W        W 2871  41.335  22.529   4.339
33057W        W 2872  29.170  12.297  13.373
33058W        W 2873   5.315   2.927   0.261
33059W        W 2874  30.608  33.941   3.814
33060W        W 2875  38.555  23.692   2.834
33061W        W 2876  18.057  33.109  11.991
33062W        W 2877  11.294  23.143   2.287
33063W        W 2878  12.856  44.293  11.891
33064W        W 2879  33.500  33.951  14.378
33065W        W 2880  14.340  35.879  11.129
33066W        W 2881  10.349  11.649  12.427
33067W        W 2882  41.417  10.208   3.194
33068W        W 2883  41.384  31.488  13.458
33069W        W 2884  17.739  14.117  11.856
33070W        W 2885  21.018  35.397  13.903
33071W        W 2886  41.981  20.549  13.532
33072W        W 2887   9.751  31.511  12.431
33073W        W 2888   3.395  17.647  13.325
33074W        W 2889  29.994  19.751   1.815
33075W        W 2890   6.768  38.995   3.699
33076W        W 2891   6.377  10.196  14.403
33077W        W 2892  25.657  34.916   4.238
33078W        W 2893  29.019   6.244   2.703
33079W        W 2894  11.268  29.918  14.286
33080W        W 2895   7.232  43.882  13.911
33081W        W 2896  17.665  43.983   4.793
33082W        W 2897  21.538   2.268   4.771
33083W        W 2898  40.543  26.510  12.039
33084W        W 2899  26.642  11.642  13.543
33085W        W 2900   6.312  26.542  11.956
33086W        W 2901  11.755  15.134  12.041
33087W        W 2902  23.718  44.312  10.924
33088W        W 2903   2.406  32.412  11.070
33089W        W 2904  10.657  16.249   3.255
33090W        W 2905  33.081  26.034   0.788
33091W        W 2906   1.786   3.362  14.466
33092W        W 2907  12.778  41.805   4.277
33093W        W 2908  42.413  11.146   0.910
33094W        W 2909  42.822   2.357  11.872
33095W        W 2910  32.577  11.800  13.976
33096W        W 2911  21.548  44.290   2.695
33097W        W 2912  35.052  23.529   9.979
33098W        W 2913  44.860  21.140  13.968
33099W        W 2914  43.313   7.253  11.438
33100W        W 2915  28.462   9.183   3.726
33101W        W 2916   7.853  38.873   4.699
33102W        W 2917  38.844  17.610  13.382
33103W        W 2918   4.369  30.007  11.400
33104W        W 2919  28.508  41.447  14.000
33105W        W 2920  16.722  33.382   1.713
33106W        W 2921  10.728  30.067  14.854
33107W        W 2922   1.271  13.165   4.718
33108W        W 2923  24.712  33.462  13.815
33109W        W 2924  17.158  29.660   4.128
33110W        W 2925  13.826  20.636   1.421
33111W        W 2926  36.938  16.780   1.696
33112W        W 2927  30.061  34.566  12.860
33113W        W 2928  39.842   0.872   1.738
33114W        W 2929  33.551  40.875  11.896
33115W        W 2930  24.705  37.021   1.338
33116W        W 2931  38.408  38.501  12.901
33117W        W 2932  29.574  41.403   5.171
33118W        W 2933   1.851  26.519  14.283
33119W        W 2934   6.776   0.885  12.000
33120W        W 2935  38.057  18.240  13.510
33121W        W 2936  41.520  36.364  13.499
33122W        W 2937   5.922  20.748  11.035
33123W        W 2938  36.916  39.420   4.613
33124W        W 2939  11.191  27.056   4.610
33125W        W 2940  21.583  17.771   0.330
33126W        W 2941  15.093  40.468  14.349
33127W        W 2942  28.172  41.949  13.331
33128W        W 2943   2.890  29.656   3.823
33129W        W 2944  39.535  39.860  14.318
33130W        W 2945  41.942   0.326   2.704
33131W        W 2946  40.449  38.391   0.481
33132W        W 2947   7.220  36.499  11.870
33133W        W 2948  27.540   2.332  12.520
33134W        W 2949  13.130  11.711  13.310
33135W        W 2950  36.033  43.300  10.504
33136W        W 2951  14.635  29.959  11.454
33137W        W 2952   5.922  37.532  11.607
33138W        W 2953  25.480  34.939   3.857
33139W        W 2954  11.150  44.345   3.333
33140W        W 2955  21.706  15.320   1.890
33141W        W 2956  14.140  13.715   4.132
33142W        W 2957  44.285  23.216   1.268
33143W        W 2958  19.254  25.078   3.780
33144W        W 2959  35.565  32.472  11.084
33145W        W 2960  15.329  24.485   2.371
33146W        W 2961  24.975  35.506   0.455
33147W        W 2962   3.333  15.578  10.009
33148W        W 2963   4.885  41.458   2.337
33149W        W 2964   9.169  27.593  13.376
33150W        W 2965  24.080  13.599  11.481
33151W        W 2966  14.182  18.753   1.251
33152W        W 2967  23.669  14.264   2.409
33153W        W 2968  43.310  32.408   2.322
33154W        W 2969  16.701  34.421   1.935
33155W        W 2970  10.247   6.733   3.166
33156W        W 2971  30.053  33.011   1.862
33157W        W 2972  41.961  32.607  14.417
33158W        W 2973  30.435  39.815   2.323
33159W        W 2974  43.355  14.659   1.799
33160W        W 2975  25.973   4.927  14.496
33161W        W 2976  24.118   6.686   2.393
33162W        W 2977   0.431  21.048   4.734
33163W        W 2978  34.374  31.623   0.480
33164W        W 2979  12.790   9.333  13.938
33165W        W 2980  43.000   3.837   4.168
33166W        W 2981  18.662   3.817  12.055
33167W        W 2982  12.710  15.648  13.001
33168W        W 2983  23.019  13.110   3.749
33169W        W 2984  20.685  10.338   2.825
33170W        W 2985  16.728   0.296   0.435
33171W        W 2986  32.097  10.245  13.011
33172W        W 2987  27.082  34.531  13.993
33173W        W 2988  24.127  36.347   3.735
33174W        W 2989   1.766  34.007  11.856
33175W        W 2990   6.308  44.405   3.743
33176W        W 2991  24.581  10.656   0.736
33177W        W 2992  35.601  43.984  13.458
33178W        W 2993  12.202  32.592  10.959
33179W        W 2994  43.831  30.449  13.365
33180W        W 2995  20.589  18.689   4.308
33181W        W 2996   7.327  41.939  12.410
33182W        W 2997  24.161  32.501   1.816
33183W        W 2998  20.146  33.519   1.905
33184W        W 2999  18.731  31.501   0.926
33185W        W 3000   1.851  17.655  10.539
33186W        W 3001  40.359   7.786  14.012
33187W        W 3002  38.036  25.081   4.778
33188W        W 3003   3.709  28.640  13.994
33189W        W 3004  32.565  22.673   1.791
33190W        W 3005  35.856   1.754  14.765
33191W        W 3006  15.198  28.646   0.454
33192W        W 3007   2.331  35.912  12.990
33193W        W 3008  44.907  18.746  12.342
33194W        W 3009  37.834  17.063   2.391
33195W        W 3010   6.264  14.678   2.799
33196W        W 3011  43.321  42.389  12.906
33197W        W 3012  18.755  30.627  10.940
33198W        W 3013  12.749  25.477  14.892
33199W        W 3014  25.119  38.910  13.422
33200W        W 3015  34.520  25.987   1.298
33201W        W 3016  35.897   8.830  14.339
33202W        W 3017  29.140  15.115   2.309
33203W        W 3018  11.855  13.687  13.022
33204W        W 3019  37.489  11.304  13.943
33205W        W 3020  17.573  35.857   2.334
33206W        W 3021  36.903   1.359   1.341
33207W        W 3022   6.904  41.836   4.148
33208W        W 3023   0.901   6.226   4.821
33209W        W 3024  10.249  10.706   2.208
33210W        W 3025  10.312  15.191  14.386
33211W        W 3026  18.269  21.538   1.735
33212W        W 3027  16.591   2.412  13.352
33213W        W 3028  31.014  18.745   4.228
33214W        W 3029  12.772  30.627  14.343
33215W        W 3030  32.072  39.822   2.888
33216W        W 3031  32.573  41.788   3.790
33217W        W 3032  32.410  11.689   2.229
33218W        W 3033   1.956  43.452   1.399
33219W        W 3034  39.065  34.414  11.463
33220W        W 3035  11.783  17.743  11.531
33221W        W 3036  25.692  30.128   0.839
33222W        W 3037  14.808   8.337   0.859
33223W        W 3038  39.002  36.437  10.052
33224W        W 3039  28.450  12.658   4.674
33225W        W 3040  17.697  29.084   3.680
33226W        W 3041  13.285  25.103  10.629
33227W        W 3042  28.503   7.709  12.870
33228W        W 3043   1.862   3.259  14.946
33229W        W 3044  35.496  25.708  13.869
33230W        W 3045  12.711  44.334   4.828
33231W        W 3046   5.195  42.976  10.922
33232W        W 3047  16.168  19.756  13.441
33233W        W 3048   6.681   9.866   3.830
33234W        W 3049  38.406  27.631  13.528
33235W        W 3050   9.847  19.683   1.266
33236W        W 3051  42.429  24.567   4.615
33237W        W 3052  13.784  42.351  14.935
33238W        W 3053  37.384  13.270   0.310
33239W        W 3054  12.794   3.277  11.084
33240W        W 3055  28.656  25.528   2.194
33241W        W 3056  33.446  28.119   0.912
33242W        W 3057  34.057  28.084  11.859
33243W        W 3058  28.179  21.661   1.721
33244W        W 3059   7.274  22.157   2.286
33245W        W 3060  36.040  19.564   1.228
33246W        W 3061   8.889   2.391   2.740
33247W        W 3062  22.150   3.825   4.602
33248W        W 3063  35.914  24.008   2.804
33249W        W 3064  40.999  26.537   0.901
33250W        W 3065  12.242  43.993   0.820
33251W        W 3066  16.772  42.450  14.941
33252W        W 3067  33.610  34.070  10.099
33253W        W 3068  16.785  24.667   3.771
33254W        W 3069  30.614   6.784   2.673
33255W        W 3070  41.842  27.548  14.946
33256W        W 3071  21.150  39.849   3.709
33257W        W 3072  41.433  26.686   4.792
33258W        W 3073  30.604  19.246   3.703
33259W        W 3074  10.255   5.408  13.854
33260W        W 3075  10.154  34.113   1.718
33261W        W 3076  24.080  33.416  10.066
33262W        W 3077  38.375  44.464  13.972
33263W        W 3078  12.787   9.780  10.899
33264W        W 3079  33.420  43.785  11.512
33265W        W 3080  36.892   4.357  11.074
33266W        W 3081  40.487  42.977   0.273
33267W        W 3082  23.671   6.753   4.822
33268W        W 3083  10.755  25.697  11.515
33269W        W 3084   6.307  33.063  11.384
33270W        W 3085   2.420  14.788   0.928
33271W        W 3086  24.532  22.728  10.432
33272W        W 3087  29.492  31.107  11.441
33273W        W 3088  23.066   6.682   2.820
33274W        W 3089  34.981   0.425  14.841
33275W        W 3090  31.118  11.646  11.006
33276W        W 3091  32.035  17.626   0.390
33277W        W 3092   8.660   0.318   4.126
33278W        W 3093   1.454  30.644  13.476
33279W        W 3094  14.118  12.201   3.368
33280W        W 3095  24.195   1.810   4.248
33281W        W 3096  16.108  29.167  12.914
33282W        W 3097   0.420  32.966   3.746
33283W        W 3098  22.039  33.616   4.777
33284W        W 3099  26.990  43.315  11.865
33285W        W 3100  42.396   5.280  12.538
33286W        W 3101   1.768  41.486  11.956
33287W        W 3102  26.953   2.877  12.416
33288W        W 3103   9.727  36.864   0.282
33289W        W 3104  31.035  36.507   2.818
33290W        W 3105  11.189  41.498  14.422
33291W        W 3106  24.634  38.876   3.757
33292W        W 3107  33.126  28.156   3.160
33293W        W 3108  39.859  29.541   2.807
33294W        W 3109   0.811  25.077  10.974
33295W        W 3110  43.852  43.953  14.289
33296W        W 3111  25.992  19.256   0.303
33297W        W 3112   8.329  16.765  14.919
33298W        W 3113  31.011  27.071  11.888
33299W        W 3114  19.274  14.274  11.539
33300W        W 3115  18.230  41.929   4.160
33301W        W 3116  17.708  23.235   3.214
33302W        W 3117  38.978  34.478   2.373
33303W        W 3118   8.679  27.121   0.935
33304W        W 3119  13.756   4.300   4.630
33305W        W 3120  20.239   3.406  10.445
33306W        W 3121  37.961   5.257   1.397
33307W        W 3122   8.246  14.316   0.851
33308W        W 3123  11.336  36.394  14.325
33309W        W 3124  36.530  23.576   3.747
33310W        W 3125  14.663  22.084  14.377
33311W        W 3126  18.618  13.784   0.363
33312W        W 3127  24.724  38.888  12.037
33313W        W 3128  25.645  30.080  12.070
33314W        W 3129   1.382   7.843  12.058
33315W        W 3130   3.229  24.111   4.751
33316W        W 3131  42.296  11.727   3.148
33317W        W 3132  36.566  19.121   1.357
33318W        W 3133  38.957  42.284  11.011
33319W        W 3134  38.997  28.176  13.017
33320W        W 3135  28.508  32.547   2.242
33321W        W 3136  19.640  24.167   3.794
33322W        W 3137  41.304  28.104   1.335
33323W        W 3138  14.789  44.396   2.837
33324W        W 3139  33.042   5.873   2.324
33325W        W 3140  25.626  36.888   1.380
33326W        W 3141  33.399  34.073   0.299
33327W        W 3142  21.647  14.624  14.943
33328W        W 3143  27.960  33.088   4.684
33329W        W 3144   2.410  40.392  14.293
33330W        W 3145   7.331   7.705   3.318
33331W        W 3146  24.081  34.587   2.201
33332W        W 3147  29.439  13.845   0.939
33333W        W 3148  22.096  15.255   1.293
33334W        W 3149  19.630  27.662   4.646
33335W        W 3150  40.943  37.493  12.011
33336W        W 3151  19.082  25.616  14.293
33337W        W 3152  33.436  38.007  11.587
33338W        W 3153  42.857  21.060   0.401
33339W        W 3154  39.015  31.542  12.439
33340W        W 3155  25.058   9.786   4.299
33341W        W 3156   3.437  10.704  11.861
33342W        W 3157  25.013  41.927  13.995
33343W        W 3158  15.578  37.379   1.808
33344W        W 3159   8.334   1.257   1.832
33345W        W 3160   2.834  13.751  14.411
33346W        W 3161   2.778  24.205  11.041
33347W        W 3162  36.568  15.631   3.343
33348W        W 3163  35.014  30.989   1.742
33349W        W 3164   3.441   2.235  14.890
33350W        W 3165  13.326   4.440   0.886
33351W        W 3166  39.399  28.973  14.414
33352W        W 3167  25.991   0.858  13.039
33353W        W 3168   5.893  29.503   1.402
33354W        W 3169  22.617  29.557   0.403
33355W        W 3170   9.217  21.092   2.895
33356W        W 3171  33.390  19.626   2.393
33357W        W 3172  25.026   5.265   4.790
33358W        W 3173  29.146  25.188  12.427
33359W        W 3174  29.145   0.806   2.283
33360W        W 3175  22.028  29.093   4.761
33361W        W 3176  11.265  14.212   4.769
33362W        W 3177  10.200  13.142   4.282
33363W        W 3178   9.758  28.498  11.023
33364W        W 3179   8.324   8.231   0.335
33365W        W 3180   0.852  43.995   0.918
33366W        W 3181   3.784  34.890   2.712
33367W        W 3182  12.213  25.169  11.947
33368W        W 3183  16.742  11.724   2.688
33369W        W 3184  11.133  42.453   1.308
33370W        W 3185  13.143  39.834   2.697
33371W        W 3186  11.852  14.146  12.370
33372W        W 3187  28.523   5.224  14.759
33373W        W 3188  25.059  35.912   2.181
33374W        W 3189   2.359  19.592   2.324
33375W        W 3190  44.822  41.307   1.701
33376W        W 3191  39.448   6.225   9.971
33377W        W 3192  24.153   7.814   2.397
33378W        W 3193  33.382  34.580  14.444
33379W        W 3194  24.613  28.045  11.979
33380W        W 3195   6.228  39.063   3.157
33381W        W 3196  29.468  42.915  11.039
33382W        W 3197   5.809  32.100  11.077
33383W        W 3198  34.483   2.423  13.498
33384W        W 3199  12.802  10.268  11.420
33385W        W 3200  43.466  39.498   4.137
33386W        W 3201  13.643  16.740   0.812
33387W        W 3202  36.566   4.271   2.288
33388W        W 3203  12.728  33.621   2.356
33389W        W 3204  32.090  42.881  12.039
33390W        W 3205  11.675  32.915  12.843
33391W        W 3206   8.341  32.020   2.261
33392W        W 3207  32.616  13.189  10.562
33393W        W 3208  20.676  13.288  14.465
33394W        W 3209  18.638  33.921  13.376
33395W        W 3210   0.450  34.459   2.378
33396W        W 3211   3.769  20.253   4.222
33397W        W 3212  29.958  24.016   2.402
33398W        W 3213   9.393  16.638   3.285
33399W        W 3214  23.996  12.183   1.884
33400W        W 3215   3.453  41.470   2.261
33401W        W 3216   9.761  37.514   5.234
33402W        W 3217   6.901  25.034   4.127
33403W        W 3218   0.295   8.820   4.225
33404W        W 3219  20.652  20.255   2.283
33405W        W 3220  20.655  39.967   4.830
33406W        W 3221  13.783  20.139  14.304
33407W        W 3222   6.194   0.964   0.371
33408W        W 3223  34.883  24.200  14.905
33409W        W 3224  35.025  11.155   0.302
33410W        W 3225  37.991  22.151   4.757
33411W        W 3226  24.081  38.379   3.697
33412W        W 3227  30.960  35.586  10.599
33413W        W 3228   0.817  27.635  14.428
33414W        W 3229   8.324  37.067  11.866
33415W        W 3230   2.260   3.412   0.746
33416W        W 3231  24.488   6.872  12.405
33417W        W 3232  42.494  27.115   0.731
33418W        W 3233  40.936  17.205   4.350
33419W        W 3234  40.389   4.751  10.151
33420W        W 3235  36.028  25.624  10.922
33421W        W 3236  11.159  23.723  14.385
33422W        W 3237  38.934  27.972   0.869
33423W        W 3238   4.853  15.595  14.804
33424W        W 3239  20.630  21.699  11.414
33425W        W 3240  12.263  12.678  14.014
33426W        W 3241  19.241   4.861   0.791
33427W        W 3242   1.915  21.017   4.347
33428W        W 3243  10.779   8.690  13.360
33429W        W 3244  38.030  41.009   3.264
33430W        W 3245  41.919  30.516   5.315
33431W        W 3246  32.434  18.080  12.504
33432W        W 3247  27.609   0.274   1.394
33433W        W 3248  24.647  13.187  12.995
33434W        W 3249  35.360   4.262   4.745
33435W        W 3250  21.658   3.328   1.326
33436W        W 3251  14.823  34.445  14.350
33437W        W 3252  37.887  34.956  12.565
33438W        W 3253  22.565   8.190  12.406
33439W        W 3254  36.855  20.711   2.691
33440W        W 3255  40.499  15.100  10.153
33441W        W 3256   4.357  26.681  14.775
33442W        W 3257  30.917  42.295   3.273
33443W        W 3258  12.725  36.500  11.956
33444W        W 3259  34.056  37.478  14.307
33445W        W 3260  34.512  22.507  10.620
33446W        W 3261  42.425  13.141  13.998
33447W        W 3262   1.859   6.706  14.499
33448W        W 3263  20.760  24.995  12.907
33449W        W 3264  24.167  42.810  13.430
33450W        W 3265  33.483  11.666   4.115
33451W        W 3266  39.034  17.216  11.917
33452W        W 3267   7.192  24.502  13.507
33453W        W 3268  34.610  38.979  11.512
33454W        W 3269  28.489   2.914  12.355
33455W        W 3270  31.473  41.977  12.366
33456W        W 3271   7.888   1.961   1.729
33457W        W 3272  39.946  23.621   4.783
33458W        W 3273   4.261  32.953   4.302
33459W        W 3274   8.319  40.504   5.198
33460W        W 3275  23.036  16.583  11.494
33461W        W 3276  22.161  13.625   2.312
33462W        W 3277  13.678  22.233   1.256
33463W        W 3278   4.233   9.854   2.312
33464W        W 3279  22.175  25.548   3.298
33465W        W 3280  25.631  22.716  11.488
33466W        W 3281  11.310  33.041  11.493
33467W        W 3282  11.159  16.237   0.361
33468W        W 3283  29.157  43.301   2.694
33469W        W 3284  17.239  37.340  13.996
33470W        W 3285  17.748  17.268   4.638
33471W        W 3286  20.244  33.409  11.394
33472W        W 3287  31.045  10.787  12.404
33473W        W 3288   7.341  20.203  14.515
33474W        W 3289  13.802  28.508  11.609
33475W        W 3290   6.195   9.160  14.290
33476W        W 3291  26.006   6.882   2.684
33477W        W 3292  32.033  11.809   0.385
33478W        W 3293   6.185  31.069  14.762
33479W        W 3294  32.636  38.928   1.270
33480W        W 3295   9.877  19.622   1.860
33481W        W 3296  35.572  25.084  12.530
33482W        W 3297  27.010  25.686  14.375
33483W        W 3298  25.632  33.471   1.834
33484W        W 3299  42.320   1.376  13.823
33485W        W 3300   0.314  21.103  13.325
33486W        W 3301  20.148  20.745  13.438
33487W        W 3302  27.647   1.966   2.411
33488W        W 3303  31.646  35.973  11.473
33489W        W 3304  27.180  37.418   3.337
33490W        W 3305  18.091  22.155  11.483
33491W        W 3306  32.905  41.331  14.379
33492W        W 3307  30.148  31.623  13.344
33493W        W 3308  10.363  39.887  10.555
33494W        W 3309  42.296  16.763   1.230
33495W        W 3310   1.862   6.887  13.545
33496W        W 3311   1.868  22.614   0.365
33497W        W 3312   4.275  31.112   4.123
33498W        W 3313  25.482  36.975  11.007
33499W        W 3314  27.582  34.467   2.252
33500W        W 3315  43.270   3.249  13.496
33501W        W 3316  11.145  21.226  11.062
33502W        W 3317   2.467  27.668  10.439
33503W        W 3318  38.444  27.479  14.825
33504W        W 3319  34.981   4.330   1.417
33505W        W 3320  26.063   3.817   1.908
33506W        W 3321  36.517   1.788   3.654
33507W        W 3322  23.052  13.171   1.922
33508W        W 3323  41.824  34.085  12.371
33509W        W 3324  18.154  15.197   2.707
33510W        W 3325  38.056   5.723   0.435
33511W        W 3326  27.466  20.155   4.254
33512W        W 3327  21.159  11.672  14.931
33513W        W 3328  42.954   1.394  10.599
33514W        W 3329   8.741  38.439  10.930
33515W        W 3330   9.734   2.293   0.738
33516W        W 3331  17.073  12.822  14.341
33517W        W 3332  27.106  44.764  14.964
33518W        W 3333  36.055  23.576   0.246
33519W        W 3334   1.855  43.322  11.446
33520W        W 3335  25.060  26.046  14.480
33521W        W 3336  31.493   4.815   4.267
33522W        W 3337  30.950   6.731  11.599
33523W        W 3338  15.292  35.015   0.408
33524W        W 3339  34.885   4.803   0.831
33525W        W 3340  44.432  38.902   3.633
33526W        W 3341  16.688  35.562   0.285
33527W        W 3342  30.561  25.678  12.055
33528W        W 3343   9.163   5.704   3.829
33529W        W 3344  28.487   8.835   3.240
33530W        W 3345  18.072   6.698   2.697
33531W        W 3346   0.261  36.920  11.513
33532W        W 3347  43.495   9.718  14.288
33533W        W 3348   3.379  26.497   4.322
33534W        W 3349  39.029   2.409   2.315
33535W        W 3350  32.926  21.654   4.743
33536W        W 3351  20.196  42.375   0.837
33537W        W 3352   8.307  19.563   2.682
33538W        W 3353  17.616  19.270   3.732
33539W        W 3354  11.231  44.475   3.678
33540W        W 3355  11.286   2.316   0.906
33541W        W 3356  15.252  35.372   0.395
33542W        W 3357   8.692  35.953  14.423
33543W        W 3358  10.640  18.720  11.914
33544W        W 3359  38.874  42.800  12.946
33545W        W 3360  23.015  12.310   1.928
33546W        W 3361  29.135  26.567  13.506
33547W        W 3362  11.788  12.341  12.458
33548W        W 3363   9.238  31.113  12.399
33549W        W 3364  29.017  36.975  11.968
33550W        W 3365  40.511   7.271   1.253
33551W        W 3366  12.166   6.805  13.045
33552W        W 3367  26.569  10.651   9.997
33553W        W 3368  28.125  34.093   2.358
33554W        W 3369  11.199  26.577   3.362
33555W        W 3370  22.216  30.096  11.447
33556W        W 3371  43.997  28.676   2.184
33557W        W 3372   8.286  12.840   3.146
33558W        W 3373   9.840  30.637   4.675
33559W        W 3374  27.617   8.373   1.734
33560W        W 3375  39.871  37.387   0.302
33561W        W 3376  19.763  37.945   3.327
33562W        W 3377  29.935   7.699  12.496
33563W        W 3378  36.867  36.486  13.375
33564W        W 3379  26.117  31.975   2.801
33565W        W 3380   5.845  20.749   0.780
33566W        W 3381  18.141  32.597  11.466
33567W        W 3382  20.200   4.944  14.915
33568W        W 3383   7.417  38.992  14.346
33569W        W 3384   8.200  27.173   1.744
33570W        W 3385  34.467   2.783   1.840
33571W        W 3386  41.941   9.290  14.435
33572W        W 3387  23.080  26.674  11.019
33573W        W 3388  23.667  41.870   0.321
33574W        W 3389  32.588   6.729  11.500
33575W        W 3390  25.041  44.350   5.124
33576W        W 3391  16.618  41.002  11.995
33577W        W 3392  37.460  26.163  14.298
33578W        W 3393  37.002   7.763  11.910
33579W        W 3394  17.203  36.410  12.392
33580W        W 3395  13.246  30.469   1.921
33581W        W 3396   4.899  30.934  11.542
33582W        W 3397   6.297  20.647   2.898
33583W        W 3398  13.692  24.610   2.264
33584W        W 3399  26.563  25.647   1.412
33585W        W 3400  22.090  24.618  12.344
33586W        W 3401   5.704  24.674   4.155
33587W        W 3402   7.254  33.425  12.018
33588W        W 3403  40.420  14.185  12.573
33589W        W 3404   8.380  10.634  13.863
33590W        W 3405   8.883   5.770   3.270
33591W        W 3406  21.194   0.986  13.855
33592W        W 3407  40.516  28.661  11.500
33593W        W 3408  31.415  20.105   0.259
33594W        W 3409  14.679   7.680  14.771
33595W        W 3410  31.623  11.209  11.047
33596W        W 3411  32.946   5.755  13.386
33597W        W 3412  34.066  43.771   3.751
33598W        W 3413  12.279  13.106   1.906
33599W        W 3414  17.576  20.544  12.859
33600W        W 3415  23.064  11.802   4.829
33601W        W 3416  15.754  24.169  11.393
33602W        W 3417  24.611  11.692   0.348
33603W        W 3418  14.659  38.865   4.333
33604W        W 3419   9.880  37.003   1.275
33605W        W 3420  30.979   6.889   3.745
33606W        W 3421  25.688  27.953  14.887
33607W        W 3422  42.932  16.765  11.587
33608W        W 3423  42.437  14.708   3.685
33609W        W 3424  32.409   9.324   3.208
33610W        W 3425  41.870  36.481  12.462
33611W        W 3426  15.590  17.273  12.953
33612W        W 3427  44.321  38.862   1.874
33613W        W 3428  21.179  35.095  13.439
33614W        W 3429  13.769   6.378   2.372
33615W        W 3430  34.512   7.886   2.708
33616W        W 3431  34.477  17.617   0.784
33617W        W 3432  22.628  39.946  14.846
33618W        W 3433  38.328  16.746  13.040
33619W        W 3434   0.358  33.379  11.587
33620W        W 3435  22.622  11.825  12.572
33621W        W 3436  40.332  28.068  11.399
33622W        W 3437  37.360  36.878  11.057
33623W        W 3438   0.304  31.962  13.489
33624W        W 3439  30.436  36.089   0.252
33625W        W 3440  22.166   6.714  12.922
33626W        W 3441  17.676   2.394  13.318
33627W        W 3442  16.672  30.930  12.091
33628W        W 3443  18.262  40.028   0.421
33629W        W 3444  43.337  18.166  13.882
33630W        W 3445  27.527   6.210  14.861
33631W        W 3446  12.184   5.233  14.863
33632W        W 3447   4.945  43.367   3.676
33633W        W 3448  35.974   9.167  13.995
33634W        W 3449  25.707  22.531   2.741
33635W        W 3450  34.007  40.391   2.678
33636W        W 3451  16.792   4.843   0.430
33637W        W 3452  10.318  43.996   2.810
33638W        W 3453  13.812  20.086   3.800
33639W        W 3454  10.655  44.889  11.441
33640W        W 3455  12.721   3.218  11.526
33641W        W 3456  25.481   2.245   1.705
33642W        W 3457  28.466   9.795  14.424
33643W        W 3458  41.830  22.087   1.772
33644W        W 3459   2.374   8.269  11.041
33645W        W 3460  27.137  43.341   4.353
33646W        W 3461   0.485  44.402  10.021
33647W        W 3462  32.964  43.437   1.368
33648W        W 3463  42.882  23.629   3.727
33649W        W 3464  10.806  27.999   1.232
33650W        W 3465   1.463  19.285  10.973
33651W        W 3466  35.109  23.725  10.432
33652W        W 3467  42.320   4.229   3.754
33653W        W 3468  18.784  35.361   2.696
33654W        W 3469  32.436  44.949   0.895
33655W        W 3470   5.431   5.215  12.097
33656W        W 3471  20.098  13.319  10.069
33657W        W 3472  35.102   6.363   1.753
33658W        W 3473  41.512  33.621   4.715
33659W        W 3474  40.494   2.261  10.445
33660W        W 3475  34.887   2.431  11.946
33661W        W 3476  23.018   0.743   1.918
33662W        W 3477  14.160  43.868  12.488
33663W        W 3478   4.727  34.894   1.241
33664W        W 3479  15.127   6.722  12.452
33665W        W 3480  41.465  23.160   2.744
33666W        W 3481   6.807  15.176   1.814
33667W        W 3482  41.995  27.599  12.506
33668W        W 3483   6.845  22.007  14.947
33669W        W 3484  31.996  34.074  14.399
33670W        W 3485   4.835  17.757  10.898
33671W        W 3486  28.958  38.903   3.773
33672W        W 3487  23.505  15.281  11.422
33673W        W 3488  41.384  16.644   1.782
33674W        W 3489  39.533  39.486  14.920
33675W        W 3490  43.491  28.170   2.801
33676W        W 3491   9.791  28.478   1.909
33677W        W 3492   8.221  14.707  11.445
33678W        W 3493  42.497   9.686  14.872
33679W        W 3494  33.404  18.766   2.760
33680W        W 3495  32.021   5.295   2.338
33681W        W 3496  19.595   7.879   4.213
33682W        W 3497  17.130  41.947   2.801
33683W        W 3498  38.441  13.240  10.928
33684W        W 3499  14.132  37.397   3.157
33685W        W 3500  17.216  17.788   2.808
33686W        W 3501   7.776  37.444   2.715
33687W        W 3502  17.792   9.232   1.862
33688W        W 3503  36.849   8.887  12.439
33689W        W 3504  41.397   8.747  11.912
33690W        W 3505  24.724  10.853   4.341
33691W        W 3506  38.881   4.837   5.131
33692W        W 3507  35.421  42.833  13.808
33693W        W 3508  30.486  31.960  12.841
33694W        W 3509  11.772  10.307  12.450
33695W        W 3510   3.835  31.927   0.758
33696W        W 3511  25.560  11.251  13.378
33697W        W 3512  35.598  18.642   4.820
33698W        W 3513  13.273  10.366   4.787
33699W        W 3514  42.362  35.985   4.743
33700W        W 3515  33.463  28.480  12.569
33701W        W 3516  40.953  20.531   2.373
33702W        W 3517   1.350  10.309  12.889
33703W        W 3518  13.170   7.746   0.933
33704W        W 3519  24.092   5.907  12.477
33705W        W 3520  13.276  43.942  13.353
33706W        W 3521  16.074   3.237   1.784
33707W        W 3522   6.226  32.422   0.358
33708W        W 3523  11.778   5.372   4.305
33709W        W 3524  10.782  20.158   0.407
33710W        W 3525   3.337  27.067   4.138
33711W        W 3526   9.819  12.326   2.822
33712W        W 3527   5.749  36.521  12.033
33713W        W 3528  10.265  32.116  13.363
33714W        W 3529   9.371  35.501   1.304
33715W        W 3530  40.368  10.691   3.739
33716W        W 3531   2.877  15.187   2.202
33717W        W 3532  26.151  13.340   3.258
33718W        W 3533   4.386  37.390  14.468
33719W        W 3534   3.252   2.731  14.933
33720W        W 3535  31.515  25.021   4.723
33721W        W 3536  44.903   1.971  14.371
33722W        W 3537  35.046   3.307   9.975
33723W        W 3538  35.365  30.506  10.922
33724W        W 3539  40.374   3.392   1.308
33725W        W 3540  22.680  10.265  12.883
33726W        W 3541  28.563   5.827  10.503
33727W        W 3542  41.491  33.577   3.698
33728W        W 3543  32.519  36.089  12.428
33729W        W 3544  22.581  13.228   4.330
33730W        W 3545   4.939  37.970  11.562
33731W        W 3546  22.709  19.185   5.110
33732W        W 3547  22.525  29.517  13.378
33733W        W 3548  22.644   9.783  13.878
33734W        W 3549  18.674  20.228  14.391
33735W        W 3550  13.771  13.262   4.175
33736W        W 3551   0.760  17.562   4.273
33737W        W 3552  27.983  35.009   2.278
33738W        W 3553   3.287  29.005  14.476
33739W        W 3554  23.032  22.033  10.482
33740W        W 3555  10.328   7.809  11.001
33741W        W 3556  20.665  12.155  13.928
33742W        W 3557  11.224  44.318  10.513
33743W        W 3558  10.326  20.045   4.732
33744W        W 3559  39.425   5.376   1.328
33745W        W 3560  40.371  39.050  12.914
33746W        W 3561  19.269  29.086   3.791
33747W        W 3562  13.190  38.394   3.756
33748W        W 3563  23.520  36.505  12.457
33749W        W 3564   2.753  28.503   4.798
33750W        W 3565   5.797  12.118  10.538
33751W        W 3566  17.611  32.470   2.390
33752W        W 3567  35.425  32.446  12.824
33753W        W 3568  32.562  18.232  13.414
33754W        W 3569  15.727   4.923   0.473
33755W        W 3570  13.107  33.000  10.560
33756W        W 3571  31.139  30.497  11.963
33757W        W 3572  16.630  42.441   3.680
33758W        W 3573  22.616   9.225  11.963
33759W        W 3574  43.772  39.349   4.150
33760W        W 3575  31.079  36.066  11.007
33761W        W 3576  42.891  13.296   0.870
33762W        W 3577   6.704   3.349   3.297
33763W        W 3578   8.687  37.004  11.575
33764W        W 3579  18.122   3.298  14.851
33765W        W 3580  29.443   6.397   3.715
33766W        W 3581   1.771  35.033   1.305
33767W        W 3582  15.682  17.204   4.126
33768W        W 3583   8.265  21.714  11.579
33769W        W 3584  35.537   5.228   3.805
33770W        W 3585   5.369  11.278   1.857
33771W        W 3586  25.986   9.376   3.225
33772W        W 3587  19.550   1.908   1.694
33773W        W 3588  13.778  40.307   2.389
33774W        W 3589  37.873  33.541  13.875
33775W        W 3590  17.199  22.659  11.400
33776W        W 3591  27.595  31.098  14.421
33777W        W 3592   3.286   0.971   2.866
33778W        W 3593  12.339  18.766  13.521
33779W        W 3594  29.445  27.593   2.237
33780W        W 3595  42.470  37.053  11.109
33781W        W 3596  30.554  40.940   3.769
33782W        W 3597  32.911  37.988   2.745
33783W        W 3598  28.994  13.644   2.311
33784W        W 3599  16.581   9.699   0.834
33785W        W 3600  26.494   5.710   1.904
33786W        W 3601  19.608  14.626   1.350
33787W        W 3602   2.961  26.199  10.415
33788W        W 3603  26.492  14.674  14.373
33789W        W 3604  26.591  10.191  10.977
33790W        W 3605  12.351  16.676   9.630
33791W        W 3606  34.612  30.585   4.256
33792W        W 3607  12.685   0.964  13.388
33793W        W 3608  43.776  32.542   0.744
33794W        W 3609  34.405  44.902  10.599
33795W        W 3610  23.694  11.824  10.635
33796W        W 3611  33.977  18.673  10.479
33797W        W 3612   3.455   4.938   5.262
33798W        W 3613  21.198   3.293  14.903
33799W        W 3614  31.538  32.900  14.461
33800W        W 3615  37.083   5.414  14.310
33801W        W 3616  38.363  40.949   4.754
33802W        W 3617   0.873  44.940   3.385
33803W        W 3618  28.442   1.977   1.865
33804W        W 3619  33.551  34.440   1.426
33805W        W 3620  21.615  21.511  11.613
33806W        W 3621  31.648  44.994  14.444
33807W        W 3622  11.827  32.401  14.478
33808W        W 3623   9.698  11.156   2.847
33809W        W 3624  33.454  34.372  11.125
33810W        W 3625  31.427  42.377   4.662
33811W        W 3626  44.363   3.410  11.925
33812W        W 3627  33.587  21.133   1.394
33813W        W 3628  27.630   9.811   5.246
33814W        W 3629   1.951  34.411  11.901
33815W        W 3630   5.845   0.278   2.196
33816W        W 3631  26.702  16.610  12.435
33817W        W 3632   1.780  40.035  14.822
33818W        W 3633  37.866  23.000  14.921
33819W        W 3634  13.689  12.240   1.244
33820W        W 3635  12.116   2.722  10.411
33821W        W 3636  13.690  33.982   2.199
33822W        W 3637  26.516  31.456  12.434
33823W        W 3638  27.577  41.466  13.016
33824W        W 3639   3.946   6.221   3.161
33825W        W 3640  36.582  12.837   3.703
33826W        W 3641  26.574  32.094   0.787
33827W        W 3642  42.854  40.482  12.445
33828W        W 3643  26.669  18.083  14.955
33829W        W 3644   1.819   2.455  10.905
33830W        W 3645  40.334  42.306   2.689
33831W        W 3646  23.516  23.238   1.278
33832W        W 3647  31.434  11.350   0.260
33833W        W 3648  13.254  12.298  10.560
33834W        W 3649  31.950  35.065   0.467
33835W        W 3650  36.566  25.193   0.346
33836W        W 3651  34.482  18.133  12.345
33837W        W 3652  11.163   2.825   1.365
33838W        W 3653  39.358  31.111  12.370
33839W        W 3654  31.423  35.386   4.264
33840W        W 3655  31.078   8.855  13.847
33841W        W 3656   2.955  37.974  12.090
33842W        W 3657  29.138  23.718   1.896
33843W        W 3658  19.059  10.335   0.289
33844W        W 3659  11.630   3.896  11.859
33845W        W 3660  26.034  43.960  10.471
33846W        W 3661  28.614  19.214   0.357
33847W        W 3662  23.997  15.775   0.826
33848W        W 3663  32.515  38.434   4.699
33849W        W 3664  43.765   4.293   1.795
33850W        W 3665  25.071   2.744   2.902
33851W        W 3666  39.530  22.015  12.867
33852W        W 3667  33.045   7.192  13.921
33853W        W 3668  21.097  41.455  13.945
33854W        W 3669  19.206   3.934  13.812
33855W        W 3670  44.362   3.821  10.957
33856W        W 3671   5.321  10.298  14.816
33857W        W 3672  11.318  40.347  11.385
33858W        W 3673   7.735   2.811   2.187
33859W        W 3674  13.139  25.972  11.078
33860W        W 3675  39.336  13.601   4.164
33861W        W 3676   5.202   8.344   4.825
33862W        W 3677  13.707  28.173  12.441
33863W        W 3678  33.398  43.441  14.031
33864W        W 3679  13.148  15.729  11.598
33865W        W 3680  44.984  34.426   2.405
33866W        W 3681   4.710  25.535   3.747
33867W        W 3682  22.631  21.094   1.440
33868W        W 3683  37.386   0.830   0.310
33869W        W 3684  40.969  33.006   0.351
33870W        W 3685  28.542  40.365  12.445
33871W        W 3686  38.411   9.752  11.982
33872W        W 3687  19.143  10.138   4.612
33873W        W 3688  36.396  12.828  12.998
33874W        W 3689  39.430   0.941   1.806
33875W        W 3690  33.044  18.672  11.945
33876W        W 3691  11.238   3.797   2.299
33877W        W 3692  17.639  22.092  12.957
33878W        W 3693   8.811   1.265  14.810
33879W        W 3694   9.370   1.329   2.682
33880W        W 3695   8.298  35.436   2.274
33881W        W 3696  28.996  17.171  13.825
33882W        W 3697  28.143  12.811   2.186
33883W        W 3698  19.041  41.317   1.402
33884W        W 3699  13.715  42.912  12.854
33885W        W 3700  30.654  38.006   0.374
33886W        W 3701  24.578   0.400   0.425
33887W        W 3702  41.945  42.427  11.068
33888W        W 3703  32.889  39.477  11.058
33889W        W 3704  15.774   8.683  12.556
33890W        W 3705  43.925   0.265   0.465
33891W        W 3706  27.099  40.879  13.505
33892W        W 3707  34.074   9.209   4.239
33893W        W 3708  35.055  23.185   0.332
33894W        W 3709   2.292  26.483   3.701
33895W        W 3710  10.247  30.084  12.497
33896W        W 3711   2.760  36.943  13.364
33897W        W 3712   6.243   5.398   3.181
33898W        W 3713  14.230  29.102  12.467
33899W        W 3714  17.698  23.660  11.006
33900W        W 3715   2.872  38.540  11.585
33901W        W 3716  27.125  43.353  13.807
33902W        W 3717   8.732  37.463   3.187
33903W        W 3718  15.320  20.180   2.746
33904W        W 3719  38.431  25.502  14.320
33905W        W 3720  20.040  29.125   3.843
33906W        W 3721   8.312   2.313  14.329
33907W        W 3722  10.809  42.916   1.245
33908W        W 3723  10.656  17.782  10.464
33909W        W 3724  35.957  32.979   1.836
33910W        W 3725   4.361  11.819   0.794
33911W        W 3726  22.231  24.720  10.511
33912W        W 3727  18.194   5.244   2.834
33913W        W 3728  41.398  35.550   2.418
33914W        W 3729  11.777  44.329   4.319
33915W        W 3730   4.390  40.998  14.809
33916W        W 3731  14.181   5.864  12.060
33917W        W 3732  28.517  23.229   0.789
33918W        W 3733  33.435  21.588   3.159
33919W        W 3734   1.761  21.677   4.155
33920W        W 3735   2.397  25.106  14.295
33921W        W 3736  31.500  31.447   1.873
33922W        W 3737  29.537  16.102   0.962
33923W        W 3738   4.206  19.278  11.048
33924W        W 3739  17.282  12.734   1.823
33925W        W 3740  42.918  37.552   2.833
33926W        W 3741  12.286  35.951   3.164
33927W        W 3742  15.083  42.998  14.317
33928W        W 3743  32.454  19.713  10.407
33929W        W 3744  33.128  20.263  13.320
33930W        W 3745  25.010  15.310   4.271
33931W        W 3746   0.336  10.849   3.864
33932W        W 3747   8.217  38.544   0.390
33933W        W 3748  38.837  15.095  14.481
33934W        W 3749  36.926  10.150   2.800
33935W        W 3750  22.242  36.354   1.906
33936W        W 3751  38.515  29.066  13.487
33937W        W 3752  22.213  29.539  11.425
33938W        W 3753  44.754  43.468  11.087
33939W        W 3754  29.507  14.257   1.765
33940W        W 3755   6.190  25.067   4.632
33941W        W 3756  28.652  40.987  14.944
33942W        W 3757  15.815   4.865   5.214
33943W        W 3758  22.697  32.627  11.984
33944W        W 3759  12.817  17.772  12.495
33945W        W 3760  24.143  21.168  11.007
33946W        W 3761  39.047  28.519   2.840
33947W        W 3762  16.098  16.264  14.402
33948W        W 3763  31.525   5.247  13.837
33949W        W 3764  42.879   1.257   0.294
33950W        W 3765  14.115  44.344  11.124
33951W        W 3766   1.352   2.762   0.393
33952W        W 3767   9.680  10.762  10.521
33953W        W 3768  38.863  41.350   4.697
33954W        W 3769  19.199  34.893   4.260
33955W        W 3770  36.044  25.601   3.712
33956W        W 3771  34.957  30.503   5.262
33957W        W 3772   4.774  27.198   3.650
33958W        W 3773  32.612  44.797  12.470
33959W        W 3774   3.908   2.447   0.373
33960W        W 3775   4.242  40.468   2.670
33961W        W 3776  43.464  38.357   4.632
33962W        W 3777  22.644   6.908  13.943
33963W        W 3778  38.410  21.177  14.814
33964W        W 3779  41.955  17.631  11.980
33965W        W 3780  32.550   3.276  13.956
33966W        W 3781  39.913   1.275   0.897
33967W        W 3782  13.653  41.427   4.292
33968W        W 3783   1.737  23.529  11.457
33969W        W 3784  16.705  32.427   3.783
33970W        W 3785  21.647  11.217  13.426
33971W        W 3786  10.163  38.036   1.891
33972W        W 3787  11.345  25.635   1.817
33973W        W 3788  44.314   9.385  10.478
33974W        W 3789  32.023  33.947  12.047
33975W        W 3790  10.688  24.712   4.814
33976W        W 3791  19.641  33.011  13.320
33977W        W 3792  42.361  40.848   0.788
33978W        W 3793   6.294  26.068   1.717
33979W        W 3794   7.358  27.019   0.304
33980W        W 3795   7.768   8.791  12.070
33981W        W 3796  40.002  38.936   3.203
33982W        W 3797  15.083  40.975  10.594
33983W        W 3798  19.215   1.797  13.993
33984W        W 3799  27.148  14.675   4.818
33985W        W 3800  40.035   9.839   3.190
33986W        W 3801  22.085  35.018  13.933
33987W        W 3802  39.394  44.788   1.415
33988W        W 3803  38.967  23.637  14.331
33989W        W 3804  26.636  12.785   2.220
33990W        W 3805  33.995  10.726   4.686
33991W        W 3806  14.606  10.150  13.464
33992W        W 3807  18.223  42.408   1.388
33993W        W 3808  20.740  24.140   4.211
33994W        W 3809   5.854  33.473  10.495
33995W        W 3810  25.133  35.974   4.280
33996W        W 3811  33.057  35.453  12.546
33997W        W 3812  26.500  15.610  11.979
33998W        W 3813  17.156  15.800  10.574
33999W        W 3814  27.575  10.747  12.979
34000W        W 3815   3.805  28.135  11.101
34001W        W 3816  16.795  41.410   4.285
34002W        W 3817  11.179  26.954  11.545
34003W        W 3818  24.669  23.708   0.945
34004W        W 3819  24.095  36.593   3.345
34005W        W 3820  24.013   3.741   4.268
34006W        W 3821  30.638  30.558  14.321
34007W        W 3822  43.421   8.234   0.459
34008W        W 3823   7.851   8.391   2.812
34009W        W 3824   6.303  23.628  13.382
34010W        W 3825  10.301  35.996   3.253
34011W        W 3826  32.557  19.755   1.858
34012W        W 3827  31.123  34.532  12.476
34013W        W 3828  15.307  27.636  10.527
34014W        W 3829  36.586   0.468   3.271
34015W        W 3830  37.523  37.952  12.957
34016W        W 3831   9.227  21.654  11.959
34017W        W 3832  28.930  12.790   3.684
34018W        W 3833   7.282  35.031   3.688
34019W        W 3834  17.595  21.688  11.061
34020W        W 3835   2.404  29.431   0.263
34021W        W 3836  18.560  15.127   2.877
34022W        W 3837  20.116  35.972  14.798
34023W        W 3838  10.717  42.399   0.437
34024W        W 3839  44.944  17.106   4.255
34025W        W 3840  39.313   5.693   3.232
34026W        W 3841  11.250  10.831  11.463
34027W        W 3842  28.438  44.492   2.341
34028W        W 3843  40.944   9.724   2.406
34029W        W 3844  23.010  41.509  12.966
34030W        W 3845  26.186   0.466  13.960
34031W        W 3846  14.730   5.714  13.007
34032W        W 3847  23.535   0.448  12.428
34033W        W 3848  18.585  24.060   1.897
34034W        W 3849  10.795  23.498   1.403
34035W        W 3850   2.339  39.876   3.179
34036W        W 3851  40.358  41.833   4.624
34037W        W 3852  25.096  25.040  12.902
34038W        W 3853  39.401   6.792   2.307
34039W        W 3854  21.183  25.517   4.637
34040W        W 3855  35.951   3.856  12.905
34041W        W 3856  30.077  31.908   3.696
34042W        W 3857  30.428  21.538  10.965
34043W        W 3858  15.785  24.584   4.637
34044W        W 3859   6.241   6.721   0.475
34045W        W 3860   2.745  31.435  11.479
34046W        W 3861  20.159   5.420   1.846
34047W        W 3862   3.289  43.382  14.498
34048W        W 3863   8.775  42.416   4.773
34049W        W 3864  13.773  13.142  11.051
34050W        W 3865  10.831  36.927   0.469
34051W        W 3866  20.716  24.983  14.376
34052W        W 3867  28.470   1.869   0.770
34053W        W 3868  19.156  28.509  14.499
34054W        W 3869  20.749  44.832  10.427
34055W        W 3870   0.882  39.548  12.033
34056W        W 3871  18.150   9.826   3.725
34057W        W 3872   0.329   0.428   3.353
34058W        W 3873  34.068  37.496   4.819
34059W        W 3874  39.484  20.631  12.398
34060W        W 3875  20.036  30.462   2.414
34061W        W 3876  27.544  34.508  13.489
34062W        W 3877  25.206  11.162   0.278
34063W        W 3878  29.474  38.911   3.831
34064W        W 3879  17.203  42.439   4.161
34065W        W 3880  25.626  11.793   0.785
34066W        W 3881  41.368   8.325   3.147
34067W        W 3882  33.009   5.780   2.748
34068W        W 3883  39.438   8.227  13.807
34069W        W 3884  18.116  39.416  12.062
34070W        W 3885  12.194  23.707   3.237
34071W        W 3886   2.915  17.093   3.758
34072W        W 3887   0.469  33.544   0.435
34073W        W 3888  10.299  19.154   4.694
34074W        W 3889  27.967  15.199   3.259
34075W        W 3890  26.625  15.307   4.281
34076W        W 3891  10.149  38.991  11.409
34077W        W 3892  36.517   9.873   0.896
34078W        W 3893  12.842  14.164  12.474
34079W        W 3894  34.410  38.924   2.827
34080W        W 3895  44.914   6.911   0.474
34081W        W 3896  30.568  17.751  12.002
34082W        W 3897  13.773  33.080  12.084
34083W        W 3898   9.805  30.138   0.911
34084W        W 3899  31.577  32.444   2.850
34085W        W 3900   2.461   5.738  13.428
34086W        W 3901  34.962  20.701   0.954
34087W        W 3902  27.448   3.364   3.663
34088W        W 3903  24.521  12.793  10.524
34089W        W 3904  26.637  12.249   9.574
34090W        W 3905   8.397   0.799   0.732
34091W        W 3906   5.750   3.912  14.349
34092W        W 3907  35.035  37.420  12.436
34093W        W 3908  25.587  16.185  12.419
34094W        W 3909  42.943  29.461   0.417
34095W        W 3910   4.769  27.183   0.831
34096W        W 3911  33.414  16.193  13.852
34097W        W 3912  44.903  31.042  14.377
34098W        W 3913  28.672  24.088  11.873
34099W        W 3914   3.797  35.513   1.806
34100W        W 3915   8.332   4.714   1.886
34101W        W 3916  44.359  39.032  13.849
34102W        W 3917   7.901   8.770  11.473
34103W        W 3918  13.844  35.480  13.537
34104W        W 3919  29.567  28.560  13.430
34105W        W 3920  17.165   0.792   3.739
34106W        W 3921  33.886  31.042   4.288
34107W        W 3922  18.106  10.217  13.810
34108W        W 3923  32.422  15.085   2.287
34109W        W 3924   9.205  39.428   3.741
34110W        W 3925  34.443  38.446   3.176
34111W        W 3926  34.870  43.379  11.124
34112W        W 3927  43.451  11.720  14.279
34113W        W 3928   2.800   9.244   4.326
34114W        W 3929   1.310  10.177  13.436
34115W        W 3930  16.140  34.875   1.373
34116W        W 3931  26.077  23.082  14.784
34117W        W 3932  36.348  33.482  13.904
34118W        W 3933  25.708  33.058   0.873
34119W        W 3934   0.756  33.972   3.304
34120W        W 3935  33.621  29.524  14.375
34121W        W 3936  25.073  39.909   1.291
34122W        W 3937  40.494  41.885  10.528
34123W        W 3938  37.036  14.173   1.771
34124W        W 3939  27.572  19.279   3.653
34125W        W 3940  11.645  44.431   0.260
34126W        W 3941  29.080  20.068  13.923
34127W        W 3942  10.360  43.317  12.841
34128W        W 3943   1.821   2.766  14.336
34129W        W 3944  40.897   3.279   4.605
34130W        W 3945  35.523  27.142  11.502
34131W        W 3946   6.307   8.238   4.248
34132W        W 3947  12.134  28.581  14.315
34133W        W 3948  37.373  27.565   1.342
34134W        W 3949   4.889   7.901  11.548
34135W        W 3950  35.027   7.796   2.826
34136W        W 3951   6.239   7.179  14.873
34137W        W 3952  31.038  41.399  12.340
34138W        W 3953   2.445  20.734  14.424
34139W        W 3954  33.078  24.494  13.062
34140W        W 3955  12.229  20.682   3.854
34141W        W 3956   9.199   0.432   1.933
34142W        W 3957  32.609  18.699   1.829
34143W        W 3958  15.790  34.544  10.153
34144W        W 3959  30.445  11.641   3.260
34145W        W 3960  20.757  29.655  13.806
34146W        W 3961  29.081   7.174   0.860
34147W        W 3962   4.279  26.560  14.493
34148W        W 3963  13.132  35.864  11.941
34149W        W 3964  40.865   8.298   2.182
34150W        W 3965  36.419   9.234   3.639
34151W        W 3966  24.128  18.649  13.954
34152W        W 3967  42.950  14.801   3.246
34153W        W 3968  19.539  37.836  13.841
34154W        W 3969   5.747  16.151   0.731
34155W        W 3970  44.942  11.834   0.460
34156W        W 3971  25.588  40.936  12.893
34157W        W 3972  14.769  41.812  11.585
34158W        W 3973  25.990  11.163  13.426
34159W        W 3974  35.077  10.749  12.408
34160W        W 3975  13.650  31.943   0.483
34161W        W 3976   7.818  33.957  13.887
34162W        W 3977   9.738   1.732   3.319
34163W        W 3978  28.025  25.699   3.346
34164W        W 3979   7.332  40.331   1.879
34165W        W 3980  16.654  42.285  10.563
34166W        W 3981  24.198   4.261   1.817
34167W        W 3982  34.943  27.495   4.788
34168W        W 3983  12.207  34.038   1.715
34169W        W 3984  17.122  20.057  12.044
34170W        W 3985   6.879  10.329  10.110
34171W        W 3986  28.664  44.321   0.918
34172W        W 3987  12.833  13.627   0.752
34173W        W 3988  37.957   6.186  10.915
34174W        W 3989   6.694  12.150   4.330
34175W        W 3990  37.022  29.644   4.171
34176W        W 3991   4.426  30.163   0.827
34177W        W 3992  35.431  44.440   0.829
34178W        W 3993  21.035  15.631   2.809
34179W        W 3994  37.446  43.808  13.318
34180W        W 3995  18.181  39.460   2.746
34181W        W 3996  14.683  43.810  14.473
34182W        W 3997   9.187  12.676   4.135
34183W        W 3998  37.513  12.275  13.023
34184W        W 3999  10.289  41.420   1.435
34185W        W 4000  30.501  11.313  13.427
34186W        W 4001  28.645  11.164   2.396
34187W        W 4002   8.352  23.574   2.815
34188W        W 4003  11.621  17.171  11.494
34189W        W 4004  35.013  38.828  12.925
34190W        W 4005  30.973  27.606  13.901
34191W        W 4006  36.937  31.899  12.407
34192W        W 4007   5.707  36.955   1.754
34193W        W 4008  13.683  35.096   0.445
34194W        W 4009  19.257   7.356   4.655
34195W        W 4010   1.749  41.864   0.956
34196W        W 4011  37.582  37.053  13.011
34197W        W 4012  41.512  15.172   5.087
34198W        W 4013  25.549  37.934  13.039
34199W        W 4014   5.210  14.203  11.552
34200W        W 4015  43.790  28.562  14.878
34201W        W 4016  18.118   8.747   4.205
34202W        W 4017  23.681  32.924   3.748
34203W        W 4018  21.645   9.195   0.300
34204W        W 4019   5.235  24.674  14.386
34205W        W 4020  40.528  24.989   4.806
34206W        W 4021  26.508   0.822   2.876
34207W        W 4022  12.237  15.095   2.264
34208W        W 4023   0.278   7.343  12.900
34209W        W 4024  35.948  44.501   3.214
34210W        W 4025  17.621  24.194  12.030
34211W        W 4026   6.213  34.020   3.852
34212W        W 4027  17.190  25.688  13.951
34213W        W 4028   5.300  14.310  14.424
34214W        W 4029  37.838  11.270  14.914
34215W        W 4030  42.959  18.663   2.789
34216W        W 4031  43.501   1.404  10.464
34217W        W 4032  35.594  35.557   2.293
34218W        W 4033   5.305  11.724   1.719
34219W        W 4034  38.954   9.754   3.738
34220W        W 4035  36.884  35.391   3.713
34221W        W 4036  12.833  38.505  11.987
34222W        W 4037  34.986  37.052   2.406
34223W        W 4038  21.129  42.315  12.424
34224W        W 4039  33.391  32.437   4.646
34225W        W 4040  28.600   6.836  12.391
34226W        W 4041  41.930  25.146   3.833
34227W        W 4042  24.539  26.675  14.868
34228W        W 4043   7.354  31.645  11.591
34229W        W 4044  23.595  34.049  13.397
34230W        W 4045  28.593  27.946   2.204
34231W        W 4046   4.756  43.362   0.459
34232W        W 4047  28.094  10.725  11.539
34233W        W 4048   5.930  33.978   1.440
34234W        W 4049  33.957  27.096   2.761
34235W        W 4050  30.483  26.585  14.937
34236W        W 4051  14.724  38.891  13.416
34237W        W 4052  33.487  29.434   0.286
34238W        W 4053  18.708   4.260  12.879
34239W        W 4054  44.425  30.438  12.425
34240W        W 4055  29.426  20.765  11.027
34241W        W 4056  25.688  34.519   4.201
34242W        W 4057  40.518  20.580   3.182
34243W        W 4058  41.820  37.521  13.473
34244W        W 4059   3.836  14.256   2.701
34245W        W 4060  44.960  43.792   3.223
34246W        W 4061  31.628   5.225   2.892
34247W        W 4062  38.374  44.396   2.241
34248W        W 4063  34.546  35.542  14.335
34249W        W 4064  37.366  38.038  11.428
34250W        W 4065  42.868  13.303  10.615
34251W        W 4066  31.137  14.125   5.271
34252W        W 4067  26.006   4.755   0.792
34253W        W 4068  33.559  34.908   2.724
34254W        W 4069  15.198  36.438  11.998
34255W        W 4070  13.762  35.594   0.804
34256W        W 4071   7.227  29.013   4.685
34257W        W 4072  11.175  34.099   3.167
34258W        W 4073   5.868  35.006  10.503
34259W        W 4074   4.923  19.145   4.344
34260W        W 4075  33.606   1.270  13.396
34261W        W 4076  31.632  38.409   2.361
34262W        W 4077  30.510  28.536  11.118
34263W        W 4078   9.250  20.532   1.291
34264W        W 4079  37.536  21.030  11.001
34265W        W 4080  44.789  39.981   3.329
34266W        W 4081  28.029  32.907   4.322
34267W        W 4082  34.977   3.286  13.971
34268W        W 4083  19.070  24.564   3.640
34269W        W 4084   8.289  19.133   1.380
34270W        W 4085   2.420   2.352  11.100
34271W        W 4086  33.118   4.324   1.244
34272W        W 4087  17.581   1.917  11.593
34273W        W 4088  40.499  27.522   3.334
34274W        W 4089  39.329  30.149   3.847
34275W        W 4090  39.502  12.230   2.247
34276W        W 4091  15.237   2.383  11.486
34277W        W 4092  43.421  16.785   3.783
34278W        W 4093  20.645  29.995  14.901
34279W        W 4094  33.553   4.387  10.981
34280W        W 4095  25.611  44.337  12.972
34281W        W 4096   9.817  12.853   0.876
34282W        W 4097  27.148  25.682   0.919
34283W        W 4098  40.438   2.753  14.007
34284W        W 4099   2.449  31.000   0.788
34285W        W 4100  38.341   8.218  11.479
34286W        W 4101  37.346   8.764  14.412
34287W        W 4102  36.864  11.368  14.430
34288W        W 4103  28.139  34.997   4.301
34289W        W 4104  31.422  41.456   1.909
34290W        W 4105  22.082  12.673  13.053
34291W        W 4106   6.691  12.665  12.528
34292W        W 4107  41.435  19.045  13.796
34293W        W 4108  15.212  39.920  12.950
34294W        W 4109   0.483  26.164  10.989
34295W        W 4110  37.560  22.730  14.978
34296W        W 4111  29.925  44.480   1.785
34297W        W 4112   2.367  31.410  12.350
34298W        W 4113  33.991  23.574  12.539
34299W        W 4114   6.284   6.390   0.925
34300W        W 4115  30.126  42.380  12.449
34301W        W 4116   2.928  30.117   1.294
34302W        W 4117   9.862  26.677   3.303
34303W        W 4118   6.879  23.190   4.263
34304W        W 4119   7.734  43.769   1.375
34305W        W 4120  35.446  29.997   0.446
34306W        W 4121  20.181  17.247   0.775
34307W        W 4122   2.469  19.661   4.225
34308W        W 4123  27.649   6.688   4.839
34309W        W 4124  19.710   5.899   1.435
34310W        W 4125  39.488  15.797  13.994
34311W        W 4126  10.644  31.505  13.882
34312W        W 4127   7.278  35.030   3.221
34313W        W 4128  34.462  15.309  10.967
34314W        W 4129  16.217  40.807   3.718
34315W        W 4130   7.274  15.122  14.974
34316W        W 4131  40.375  17.193  14.459
34317W        W 4132  14.225  29.059  13.967
34318W        W 4133   4.331   4.876   3.744
34319W        W 4134  23.562  16.154  14.852
34320W        W 4135  26.478  24.645   0.274
34321W        W 4136  30.416   1.759   2.861
34322W        W 4137  15.701  27.630   1.310
34323W        W 4138  13.817   3.796   1.738
34324W        W 4139  15.789  12.684   2.687
34325W        W 4140   2.894  17.161  14.394
34326W        W 4141   0.939   7.282   2.753
34327W        W 4142  10.287  40.015  14.355
34328W        W 4143  34.911  44.857   1.728
34329W        W 4144  29.013  42.358  12.847
34330W        W 4145  43.470   0.780   0.939
34331W        W 4146  35.433  44.807  13.467
34332W        W 4147  44.436  33.555   0.439
34333W        W 4148  29.085  38.882  10.899
34334W        W 4149  38.506  17.175  10.897
34335W        W 4150  10.165  17.063  10.025
34336W        W 4151   7.669  15.238  10.552
34337W        W 4152   2.909   4.287  11.063
34338W        W 4153   9.753  40.487   4.694
34339W        W 4154  41.396  30.626   4.695
34340W        W 4155  36.948  10.806   4.683
34341W        W 4156  26.534  28.565   4.663
34342W        W 4157   0.834  12.746  13.003
34343W        W 4158  12.811  30.480   1.254
34344W        W 4159  15.629  16.591  11.520
34345W        W 4160  40.940   3.948  14.476
34346W        W 4161  41.030  18.723   2.360
34347W        W 4162  36.092  31.558  10.048
34348W        W 4163  14.163  20.081  13.449
34349W        W 4164  12.677  27.650   3.167
34350W        W 4165  30.477   6.215  12.365
34351W        W 4166  30.509  38.409   3.339
34352W        W 4167  22.635  14.147  12.437
34353W        W 4168   3.760  14.707   2.261
34354W        W 4169  14.281  42.992  12.978
34355W        W 4170  15.724  42.344   4.811
34356W        W 4171  37.999   7.733   0.945
34357W        W 4172  30.907  33.041  11.862
34358W        W 4173  23.549   7.717   3.183
34359W        W 4174  16.774  14.201  12.543
34360W        W 4175  41.972  42.854  11.378
34361W        W 4176  25.128   6.192   0.393
34362W        W 4177  34.009  17.154  13.529
34363W        W 4178  15.676  17.555   3.324
34364W        W 4179   5.273  26.650  11.410
34365W        W 4180   2.913  27.196   1.380
34366W        W 4181  26.666   9.198   0.249
34367W        W 4182   9.819  29.466  13.508
34368W        W 4183  41.518  28.988  12.528
34369W        W 4184  37.521  28.087   1.707
34370W        W 4185   5.796  13.698  10.462
34371W        W 4186  24.630  28.062   2.404
34372W        W 4187   4.296  18.197   0.245
34373W        W 4188  17.121   6.390   1.383
34374W        W 4189  20.169  19.753  10.126
34375W        W 4190  41.997  28.522  14.437
34376W        W 4191  38.447  19.769  11.372
34377W        W 4192  37.037   4.356  13.880
34378W        W 4193  39.864  19.582   4.597
34379W        W 4194  28.996  41.984  10.950
34380W        W 4195  22.580  36.083  13.846
34381W        W 4196  14.147  36.992  10.621
34382W        W 4197  40.374   3.880  14.979
34383W        W 4198  14.285  24.993  11.490
34384W        W 4199  25.095  23.548  11.871
34385W        W 4200  19.576  40.424  12.529
34386W        W 4201  42.520  39.391  13.918
34387W        W 4202  10.365  16.133   3.847
34388W        W 4203  27.048  39.986  12.951
34389W        W 4204  24.007  39.054   3.743
34390W        W 4205  19.077  34.514  13.835
34391W        W 4206   6.330  38.426   3.674
34392W        W 4207   4.725  31.059  11.985
34393W        W 4208  41.513  19.114   1.352
34394W        W 4209  35.994   8.404  14.921
34395W        W 4210  38.991   3.452  10.087
34396W        W 4211  16.699  17.291   1.440
34397W        W 4212  33.958   5.773  11.388
34398W        W 4213  33.568  17.300   3.304
34399W        W 4214   0.983  34.408  13.442
34400W        W 4215  26.085   9.668   1.333
34401W        W 4216  30.058  28.643   0.244
34402W        W 4217  33.036   6.330   2.891
34403W        W 4218   8.231   2.744   0.253
34404W        W 4219  25.139  33.964  11.911
34405W        W 4220  33.920  17.186   4.771
34406W        W 4221  31.440   8.331   2.680
34407W        W 4222   3.427  18.714  14.332
34408W        W 4223  25.680  21.184   1.708
34409W        W 4224   0.894  27.018  14.808
34410W        W 4225  26.485  26.686  13.445
34411W        W 4226  36.575  43.326  14.399
34412W        W 4227  34.079  22.670   1.751
34413W        W 4228  13.129  22.565  10.908
34414W        W 4229   4.736  17.241  13.940
34415W        W 4230  33.602  42.982   4.639
34416W        W 4231  15.203  35.977   1.769
34417W        W 4232  16.097  28.034  11.407
34418W        W 4233  44.304  32.517   3.275
34419W        W 4234   8.175  17.598  12.561
34420W        W 4235  44.952   6.698  13.884
34421W        W 4236  12.320  28.054   3.700
34422W        W 4237  16.755  29.149   4.313
34423W        W 4238  24.538   4.858  11.090
34424W        W 4239   6.785  23.154  10.536
34425W        W 4240  38.521  38.017   1.789
34426W        W 4241  32.612  35.893   4.687
34427W        W 4242   6.894  22.626  14.455
34428W        W 4243  36.575   7.821   4.169
34429W        W 4244   4.217  10.817   1.331
34430W        W 4245   2.249  21.560   3.323
34431W        W 4246   0.448  17.731  11.547
34432W        W 4247  21.162  39.406  10.894
34433W        W 4248  11.759  16.312   0.951
34434W        W 4249  37.034   1.428  14.982
34435W        W 4250  38.980  43.965   3.712
34436W        W 4251  19.209  28.139  12.509
34437W        W 4252  22.572  28.144  12.986
34438W        W 4253  34.048  43.359   2.221
34439W        W 4254  33.456   7.301  10.030
34440W        W 4255  19.185   1.874   3.655
34441W        W 4256  18.741  32.516  14.844
34442W        W 4257   4.324  26.031  14.032
34443W        W 4258  24.479   6.393  11.465
34444W        W 4259  24.690  18.592  14.778
34445W        W 4260  12.788  32.463   3.769
34446W        W 4261  13.333  32.561   4.723
34447W        W 4262  33.422  36.846   3.865
34448W        W 4263  30.621   6.300  11.595
34449W        W 4264  21.031  11.766  12.451
34450W        W 4265  16.230   7.681   3.249
34451W        W 4266  44.007  42.952  14.430
34452W        W 4267  18.621  35.881  13.833
34453W        W 4268  37.485  23.594   0.381
34454W        W 4269  34.980  28.480  14.476
34455W        W 4270  36.446  19.110  13.347
34456W        W 4271  25.171  27.484  12.513
34457W        W 4272  17.689  22.177  13.534
34458W        W 4273  39.861  19.218  14.779
34459W        W 4274   8.835  29.076  11.379
34460W        W 4275  33.513   0.876   1.406
34461W        W 4276  22.118   8.859   4.645
34462W        W 4277  43.971  21.020   0.404
34463W        W 4278   6.708  40.528   5.179
34464W        W 4279   3.942  23.582   0.356
34465W        W 4280  33.510  33.544  13.546
34466W        W 4281  22.998  17.176   0.788
34467W        W 4282   3.241   4.428  14.368
34468W        W 4283  26.092  18.756   2.856
34469W        W 4284   7.744   0.790   3.368
34470W        W 4285  11.335  19.582   2.272
34471W        W 4286  27.497   6.789   3.723
34472W        W 4287  26.206  11.708   4.757
34473W        W 4288  25.479  24.651  11.503
34474W        W 4289  15.674  22.621  11.107
34475W        W 4290  24.048  44.886   3.841
34476W        W 4291  22.094   5.367  11.043
34477W        W 4292  28.050  11.252   0.340
34478W        W 4293   9.833  32.468   2.325
34479W        W 4294  13.119  26.606   2.208
34480W        W 4295   6.418  26.198   4.134
34481W        W 4296  19.245  43.877  12.526
34482W        W 4297  12.646  18.241  10.460
34483W        W 4298  42.516   2.354  14.501
34484W        W 4299   7.195  24.043   1.386
34485W        W 4300  27.128   9.298  11.517
34486W        W 4301  42.353  23.503   0.884
34487W        W 4302  14.698  24.679  10.563
34488W        W 4303  22.561  34.898  14.312
34489W        W 4304   6.911  39.487  13.897
34490W        W 4305  39.951  43.985  11.906
34491W        W 4306  21.610  26.458   3.813
34492W        W 4307   4.811   1.853  13.045
34493W        W 4308   6.904  25.114   2.303
34494W        W 4309  37.918  20.666  12.491
34495W        W 4310  35.896  25.524  12.073
34496W        W 4311  15.780  23.216   3.230
34497W        W 4312   0.400  18.108   4.242
34498W        W 4313  14.207  27.067  14.350
34499W        W 4314  14.122  21.227  13.826
34500W        W 4315  21.522   3.449   2.255
34501W        W 4316  21.542   4.867   3.690
34502W        W 4317  13.680  34.468   1.817
34503W        W 4318  36.979   3.333  11.493
34504W        W 4319   3.384  13.713  14.316
34505W        W 4320   6.787  31.131  11.594
34506W        W 4321   6.760   0.256  10.440
34507W        W 4322  29.025  20.526   1.323
34508W        W 4323  20.065  18.673   3.210
34509W        W 4324   6.874   2.844  12.897
34510W        W 4325   9.848  20.606  12.525
34511W        W 4326  38.470  11.749  14.970
34512W        W 4327  42.435  26.042   3.306
34513W        W 4328  36.441   1.881   0.822
34514W        W 4329  20.195  13.780  14.351
34515W        W 4330  35.898  19.157  13.355
34516W        W 4331  30.524   1.408  12.834
34517W        W 4332   0.781  21.618  13.368
34518W        W 4333  43.515  43.491   4.809
34519W        W 4334  36.556   8.204  10.525
34520W        W 4335  15.094  42.962   3.298
34521W        W 4336  27.966  19.048  11.499
34522W        W 4337  17.112  33.536   2.878
34523W        W 4338   0.363  32.453   2.849
34524W        W 4339  18.716  30.137   3.720
34525W        W 4340  39.316   1.815  14.886
34526W        W 4341  41.439   9.242   2.408
34527W        W 4342   5.779  15.086  13.030
34528W        W 4343   2.797  30.454   2.701
34529W        W 4344  39.367  13.298   4.717
34530W        W 4345   5.690  25.045   1.730
34531W        W 4346  40.828  13.218   3.219
34532W        W 4347  35.894  31.993   9.975
34533W        W 4348  43.768   7.703  12.840
34534W        W 4349   8.333  23.205   2.900
34535W        W 4350   2.425  38.326  11.029
34536W        W 4351  36.433  27.020  12.403
34537W        W 4352  10.354  18.108  13.424
34538W        W 4353  23.506   2.856  12.038
34539W        W 4354   6.685  26.150  11.531
34540W        W 4355   4.808  32.987  12.482
34541W        W 4356   4.207   8.216  13.377
34542W        W 4357  33.475  24.018  14.405
34543W        W 4358  34.431  34.535  10.993
34544W        W 4359  19.147  20.182   1.739
34545W        W 4360  17.647   9.816   3.713
34546W        W 4361  42.389   3.807   3.281
34547W        W 4362  42.397   8.760   2.334
34548W        W 4363  14.122  27.450  14.359
34549W        W 4364   7.819   3.877   1.220
34550W        W 4365   1.274  32.111   3.260
34551W        W 4366   9.685  18.670  10.009
34552W        W 4367  26.599  19.162   2.735
34553W        W 4368  12.725  44.414  10.913
34554W        W 4369   0.930  24.029   5.158
34555W        W 4370  43.946  15.677  13.962
34556W        W 4371  34.584  14.175  10.991
34557W        W 4372  14.757  10.308  12.388
34558W        W 4373   9.281  37.990  10.641
34559W        W 4374  15.741   0.909   2.744
34560W        W 4375  18.178  32.061   1.397
34561W        W 4376  14.324  25.983  14.850
34562W        W 4377   9.845  25.689  13.042
34563W        W 4378   9.686  35.873   4.267
34564W        W 4379  30.587  16.588   1.759
34565W        W 4380   1.433  11.300   4.659
34566W        W 4381  29.472   9.241  10.603
34567W        W 4382   1.347  15.709   1.427
34568W        W 4383  26.543   5.199  11.058
34569W        W 4384  25.631  40.881  12.564
34570W        W 4385   5.889   8.728   2.831
34571W        W 4386  26.577   7.682  10.494
34572W        W 4387   3.248  21.041   1.891
34573W        W 4388   3.279   0.416  12.987
34574W        W 4389  30.099  10.262  13.990
34575W        W 4390  44.412  31.437   4.694
34576W        W 4391  23.490  33.604  13.462
34577W        W 4392  42.896   2.811  11.036
34578W        W 4393  11.215  22.134   1.303
34579W        W 4394  21.023  38.989   2.887
34580W        W 4395   6.404  14.669  14.792
34581W        W 4396  14.333  27.980  11.480
34582W        W 4397  22.604  35.361  10.076
34583W        W 4398  18.231  39.482  14.846
34584W        W 4399  34.433  11.771  14.298
34585W        W 4400   3.733  43.400  10.891
34586W        W 4401  11.634  35.508  10.410
34587W        W 4402  13.290  36.994  12.842
34588W        W 4403  43.274  21.126   2.305
34589W        W 4404  37.026  21.118  14.504
34590W        W 4405   3.251  10.271   2.871
34591W        W 4406  36.007  37.431   4.285
34592W        W 4407  21.238   3.433  13.940
34593W        W 4408  44.819  42.831   1.354
34594W        W 4409   6.916  42.490  10.959
34595W        W 4410  35.360  10.681  11.601
34596W        W 4411  16.234   9.866   4.130
34597W        W 4412  34.389  15.680  13.032
34598W        W 4413  30.986  28.503  12.838
34599W        W 4414  27.554   2.918  11.088
34600W        W 4415  27.527  23.104   1.915
34601W        W 4416  44.763   3.406  10.957
34602W        W 4417  12.810  34.958   1.722
34603W        W 4418   1.890  35.362  10.581
34604W        W 4419   7.298   7.732  10.553
34605W        W 4420  27.189  28.077  11.077
34606W        W 4421  21.661   9.351   1.707
34607W        W 4422   4.828   9.345   0.253
34608W        W 4423  25.594  31.570  11.010
34609W        W 4424  14.327  35.881  12.420
34610W        W 4425  19.765  38.023  14.457
34611W        W 4426  33.972   7.197   4.297
34612W        W 4427   9.237  21.098  10.453
34613W        W 4428   5.415   5.275  14.772
34614W        W 4429   2.962  18.103  13.047
34615W        W 4430   7.257   9.812   3.827
34616W        W 4431  41.019  17.776  11.421
34617W        W 4432  29.045  43.816  12.836
34618W        W 4433  15.775  29.969   0.839
34619W        W 4434  44.383  19.088  10.559
34620W        W 4435   1.448  36.920   1.921
34621W        W 4436  42.318  24.536   0.911
34622W        W 4437  22.692  21.663  14.404
34623W        W 4438  38.822  23.079   4.715
34624W        W 4439  23.027  18.286   2.350
34625W        W 4440  19.040  17.694  14.982
34626W        W 4441  38.569  22.244  14.869
34627W        W 4442  44.412  10.319   2.207
34628W        W 4443  32.917   4.885   2.834
34629W        W 4444  13.628  20.640  14.295
34630W        W 4445   6.683  17.267  14.330
34631W        W 4446  39.935  34.453  10.443
34632W        W 4447   8.816   2.324  11.992
34633W        W 4448  35.479  25.585   4.307
34634W        W 4449  14.339  24.119  13.350
34635W        W 4450  22.018  38.046  13.458
34636W        W 4451  31.125  35.896  14.879
34637W        W 4452  31.124  28.495  10.574
34638W        W 4453  29.463  13.756  13.461
34639W        W 4454  28.446  20.691  14.765
34640W        W 4455   7.706  15.708  10.467
34641W        W 4456  25.650  18.091   3.211
34642W        W 4457  18.643  13.211   4.148
34643W        W 4458   4.211  19.606  10.482
34644W        W 4459  13.661   2.402  14.390
34645W        W 4460  37.512  18.649  11.538
34646W        W 4461  36.936  10.197   4.811
34647W        W 4462  41.840  37.338   4.749
34648W        W 4463  10.759  34.868   3.250
34649W        W 4464  19.666  11.141  14.446
34650W        W 4465  42.808  18.210  12.440
34651W        W 4466  29.477  23.676   0.250
34652W        W 4467  32.890  32.541   2.297
34653W        W 4468  35.431   2.958  12.955
34654W        W 4469   8.363  29.634   2.265
34655W        W 4470  14.688  29.050   1.729
34656W        W 4471  15.243   5.416  13.941
34657W        W 4472   3.286  44.824   1.334
34658W        W 4473  38.472  20.162  14.301
34659W        W 4474  29.074  20.072  11.899
34660W        W 4475  15.261   0.957  12.405
34661W        W 4476  38.970  20.047   1.426
34662W        W 4477  38.433  22.055   0.888
34663W        W 4478  42.305   9.694   0.421
34664W        W 4479  20.085   0.939  13.870
34665W        W 4480  20.600  19.716   1.769
34666W        W 4481  14.149  19.733  10.526
34667W        W 4482   1.960  36.062   0.773
34668W        W 4483  43.775   8.200   2.830
34669W        W 4484  30.140   4.902   3.795
34670W        W 4485  26.586  31.978   5.153
34671W        W 4486  11.196   5.852   3.334
34672W        W 4487  34.530  26.021  10.474
34673W        W 4488  25.156  23.062  12.500
34674W        W 4489  32.573  18.729  10.150
34675W        W 4490  15.111   7.854   2.670
34676W        W 4491   3.424  12.293  11.547
34677W        W 4492  35.570   1.450  14.321
34678W        W 4493  24.981   0.957  12.361
34679W        W 4494  39.940  37.874  10.899
34680W        W 4495  32.895  41.444  14.011
34681W        W 4496   2.833  32.621   2.220
34682W        W 4497  19.245   1.731  13.418
34683W        W 4498  24.223  30.108  14.818
34684W        W 4499  33.500  19.146  14.890
34685W        W 4500   9.664  41.460   0.429
34686W        W 4501  37.841  32.551   5.756
34687W        W 4502  30.604  36.930  11.581
34688W        W 4503  42.915  28.170   1.761
34689W        W 4504  19.735  40.916  14.858
34690W        W 4505  22.683  24.044   4.153
34691W        W 4506   6.343   3.748   1.844
34692W        W 4507   2.923  17.279  12.017
34693W        W 4508  14.117  15.717   1.898
34694W        W 4509  43.336  14.626  11.521
34695W        W 4510  23.015  32.450   0.795
34696W        W 4511  30.489  22.175   1.720
34697W        W 4512  35.073  40.303   0.430
34698W        W 4513  33.105  33.072  11.939
34699W        W 4514  30.010  27.994  11.085
34700W        W 4515  32.008   9.734  10.482
34701W        W 4516  10.816  34.481   3.365
34702W        W 4517  12.749  24.094   4.172
34703W        W 4518  18.139   7.780   0.415
34704W        W 4519   8.774  32.994   0.789
34705W        W 4520  21.538  42.353  13.505
34706W        W 4521   0.411  23.584  10.535
34707W        W 4522  28.157  43.313  13.504
34708W        W 4523  30.580  22.073  11.418
34709W        W 4524   9.751   5.860  14.368
34710W        W 4525  39.420  33.078   1.385
34711W        W 4526  13.703  36.521  11.985
34712W        W 4527   4.255  35.865  12.059
34713W        W 4528  14.626  35.038   9.989
34714W        W 4529  44.894   6.235   4.182
34715W        W 4530   7.820  31.011  14.442
34716W        W 4531  30.080   9.234  12.936
34717W        W 4532  19.115  44.833   2.893
34718W        W 4533   5.200   2.323   1.358
34719W        W 4534  42.978  11.337  11.513
34720W        W 4535   7.308  39.874   0.436
34721W        W 4536  38.372   1.884   0.402
34722W        W 4537   2.779   1.428  11.016
34723W        W 4538   8.253   4.869  10.516
34724W        W 4539  40.035  38.548   3.228
34725W        W 4540  37.906  23.115  11.495
34726W        W 4541  43.406  41.807   4.761
34727W        W 4542  44.843  27.158   2.236
34728W        W 4543  44.855  23.207   2.714
34729W        W 4544  14.197  42.909   4.751
34730W        W 4545  29.502  32.014  11.989
34731W        W 4546   5.417   8.791  11.023
34732W        W 4547  17.769   8.163  11.968
34733W        W 4548  44.378  13.755  12.564
34734W        W 4549  21.593  27.147  12.046
34735W        W 4550  27.999  32.616   0.868
34736W        W 4551   4.290  12.285  13.913
34737W        W 4552  24.532  38.400  12.023
34738W        W 4553   8.836   5.897   1.266
34739W        W 4554  27.648   7.195   1.243
34740W        W 4555  38.907  32.892   0.247
34741W        W 4556  38.385  11.734   4.745
34742W        W 4557  39.524  44.415  11.059
34743W        W 4558   0.766  15.738   2.336
34744W        W 4559   3.220   7.413  10.635
34745W        W 4560  44.843  22.032  12.862
34746W        W 4561  38.448  34.470   4.706
34747W        W 4562  10.155   8.306  10.572
34748W        W 4563  37.393  12.321   4.634
34749W        W 4564   9.368   4.449   2.743
34750W        W 4565  20.257  33.894   2.698
34751W        W 4566  11.642  19.572   0.483
34752W        W 4567  29.437  20.136  14.882
34753W        W 4568  30.446  25.111  13.443
34754W        W 4569  25.492   9.222   0.293
34755W        W 4570   4.350   4.936  13.812
34756W        W 4571  21.558  25.588  10.640
34757W        W 4572  38.549  39.524   2.798
34758W        W 4573  16.309  29.148   0.255
34759W        W 4574  13.841  25.591   4.792
34760W        W 4575  25.477  16.702  14.329
34761W        W 4576  14.231  41.331  12.065
34762W        W 4577  34.034  12.687  14.304
34763W        W 4578  29.975  27.155   2.827
34764W        W 4579  12.341  14.769  11.943
34765W        W 4580  33.401  20.258  10.571
34766W        W 4581  38.008   6.703  11.402
34767W        W 4582  11.165  36.466   2.691
34768W        W 4583  20.557  10.737   4.332
34769W        W 4584  11.759  33.007   1.333
34770W        W 4585  16.278   7.347   3.152
34771W        W 4586  38.475   0.838  10.595
34772W        W 4587  14.331   0.752  12.036
34773W        W 4588   3.848   1.890   3.704
34774W        W 4589  12.675  36.026   4.159
34775W        W 4590  35.011  39.032  11.078
34776W        W 4591  11.296  30.508   0.732
34777W        W 4592  11.237  13.166  13.796
34778W        W 4593  43.804  32.983  14.891
34779W        W 4594  37.514  42.938  14.985
34780W        W 4595   1.426  19.224  13.322
34781W        W 4596  27.490  13.748   4.139
34782W        W 4597   6.880   1.247   0.926
34783W        W 4598  23.553  10.687   1.758
34784W        W 4599  42.901  26.012   3.305
34785W        W 4600  31.934  36.583   4.795
34786W        W 4601  11.674   4.238  11.942
34787W        W 4602  32.561  35.941  12.047
34788W        W 4603  42.846  29.583  14.907
34789W        W 4604  36.093  14.777   0.739
34790W        W 4605   7.184  23.617   0.950
34791W        W 4606  44.782  37.990   1.444
34792W        W 4607  10.153  39.950  12.981
34793W        W 4608  34.960   9.149  11.092
34794W        W 4609  32.528   1.398   4.354
34795W        W 4610  35.951  13.748  11.864
34796W        W 4611  17.225   6.395   2.757
34797W        W 4612  22.505  25.069   3.151
34798W        W 4613  38.350  24.578   2.901
34799W        W 4614  40.460  23.132  14.400
34800W        W 4615  15.743  23.525   1.274
34801W        W 4616  39.976   7.888   2.901
34802W        W 4617   8.402   6.267   0.306
34803W        W 4618  14.673  23.542   1.373
34804W        W 4619   9.295  41.489   0.798
34805W        W 4620  28.560  44.992  10.941
34806W        W 4621   6.889  21.117   0.434
34807W        W 4622   3.293  17.736  12.452
34808W        W 4623   8.833  20.042  14.867
34809W        W 4624  36.069  35.874  13.524
34810W        W 4625  18.143  18.259   3.782
34811W        W 4626  17.111   3.717  10.507
34812W        W 4627   1.479  28.449  10.580
34813W        W 4628   2.793  13.255   2.893
34814W        W 4629  16.678  32.899   4.605
34815W        W 4630   1.378  21.694  12.033
34816W        W 4631  13.693  22.113  10.982
34817W        W 4632  40.549  43.466  13.484
34818W        W 4633  25.006  42.851   3.200
34819W        W 4634  21.031  35.509  11.592
34820W        W 4635  37.563  30.102  10.617
34821W        W 4636  35.402  12.729  11.506
34822W        W 4637  13.834   4.915   3.732
34823W        W 4638  38.036   4.259  11.864
34824W        W 4639  23.228  19.670  14.889
34825W        W 4640  22.745  38.550  14.499
34826W        W 4641  29.459   9.174  12.517
34827W        W 4642  31.411  22.535   2.395
34828W        W 4643  34.913   5.728   4.636
34829W        W 4644  30.468  32.557   2.686
34830W        W 4645  10.698  26.043  14.362
34831W        W 4646   9.738  37.943   0.794
34832W        W 4647   9.884  10.306  12.863
34833W        W 4648  42.836  13.672   4.820
34834W        W 4649  23.013   8.358   2.775
34835W        W 4650  34.476   7.318  13.058
34836W        W 4651  13.330   9.890  12.843
34837W        W 4652   7.269  32.899  14.438
34838W        W 4653  11.791  37.852  11.575
34839W        W 4654  33.490   5.266   2.415
34840W        W 4655  33.619   1.840  13.837
34841W        W 4656   6.807  26.621   1.284
34842W        W 4657   4.715  18.211  13.874
34843W        W 4658  41.967  31.993  12.918
34844W        W 4659   2.344  14.662  11.525
34845W        W 4660   7.862  32.041  12.056
34846W        W 4661  14.189  12.197   4.721
34847W        W 4662  14.637  30.447  12.573
34848W        W 4663  20.597  28.975   0.799
34849W        W 4664  40.827  21.076  11.965
34850W        W 4665  16.134  36.540   0.404
34851W        W 4666   1.467  12.214   3.326
34852W        W 4667  10.314   6.780   3.784
34853W        W 4668   6.680  32.042   1.409
34854W        W 4669   5.849  25.592  14.837
34855W        W 4670   4.294  35.010  11.982
34856W        W 4671   2.749  35.992  12.525
34857W        W 4672  36.854  44.836   4.168
34858W        W 4673  17.748  23.601   0.315
34859W        W 4674  14.590   2.949  11.017
34860W        W 4675  10.681   5.878   1.432
34861W        W 4676  30.021  10.752  14.801
34862W        W 4677  37.007  26.005  14.818
34863W        W 4678  37.538   7.293   4.621
34864W        W 4679  16.806  28.099   1.825
34865W        W 4680  31.959  28.598  12.399
34866W        W 4681  39.847   8.375   3.180
34867W        W 4682  33.572  27.654   2.726
34868W        W 4683  24.573  17.659   3.718
34869W        W 4684  29.140  32.494  10.602
34870W        W 4685  26.682   6.888   3.348
34871W        W 4686  16.182  20.733   3.786
34872W        W 4687  23.569  11.633  13.831
34873W        W 4688  12.236  34.491   3.262
34874W        W 4689   3.364   5.926   4.137
34875W        W 4690   5.405  32.930  14.318
34876W        W 4691  38.824  17.186   1.931
34877W        W 4692  38.910  24.175  10.453
34878W        W 4693   2.786   7.861  13.482
34879W        W 4694  13.210  41.999   3.171
34880W        W 4695  44.457   2.864   3.697
34881W        W 4696  20.670  26.200   4.166
34882W        W 4697  34.966   9.339  14.908
34883W        W 4698  33.402   8.378   1.442
34884W        W 4699   1.774  42.985  12.859
34885W        W 4700  31.959  11.205   4.159
34886W        W 4701  42.835  23.507   0.826
34887W        W 4702  17.782  22.212  11.378
34888W        W 4703   1.371  24.706   0.303
34889W        W 4704   9.307  37.942  12.472
34890W        W 4705  29.168  39.470   1.358
34891W        W 4706  15.206   9.300  10.542
34892W        W 4707   0.371  22.149  12.826
34893W        W 4708  20.125  16.567   0.350
34894W        W 4709  37.449  40.038   3.219
34895W        W 4710  39.445  21.594  12.887
34896W        W 4711  32.976  33.072  14.844
34897W        W 4712  44.885  19.751  11.458
34898W        W 4713  32.522  40.894  10.956
34899W        W 4714  23.150  44.419  13.820
34900W        W 4715  33.920  39.010   3.188
34901W        W 4716   6.200  27.972  12.392
34902W        W 4717  17.680   6.253   0.318
34903W        W 4718   1.272  32.925  11.953
34904W        W 4719  33.095  40.050  12.003
34905W        W 4720  25.164  24.060  12.847
34906W        W 4721  18.598  16.279  12.365
34907W        W 4722  43.821  13.179   3.821
34908W        W 4723  42.816   6.287  10.949
34909W        W 4724  24.662   4.773  13.808
34910W        W 4725  13.238  23.568  10.089
34911W        W 4726  11.854  35.053  11.553
34912W        W 4727   5.296  31.900   5.305
34913W        W 4728  39.398  18.740   2.822
34914W        W 4729  19.239  42.311   3.160
34915W        W 4730  11.645  40.514  11.059
34916W        W 4731   4.267   2.961  13.827
34917W        W 4732  33.558   2.265   4.137
34918W        W 4733  12.811  32.463   0.365
34919W        W 4734  22.216  23.633  12.966
34920W        W 4735  15.213  22.646   2.678
34921W        W 4736  38.941  30.551   2.180
34922W        W 4737   9.202  29.580   2.801
34923W        W 4738  19.136   0.396  11.871
34924W        W 4739  33.518  27.676   1.347
34925W        W 4740  40.838   6.873  14.344
34926W        W 4741   4.773  36.579   4.664
34927W        W 4742   1.975  37.033   3.362
34928W        W 4743  36.983  16.210  13.878
34929W        W 4744  44.805   4.728   1.363
34930W        W 4745   0.352   2.873   4.119
34931W        W 4746  10.795  13.681  12.923
34932W        W 4747  29.071  19.537  11.499
34933W        W 4748  36.991  12.848   2.879
34934W        W 4749  37.403  32.986  14.014
34935W        W 4750  37.015  29.467  13.406
34936W        W 4751  23.556  18.125  14.005
34937W        W 4752  42.487  35.940  11.396
34938W        W 4753  41.977   3.231  13.524
34939W        W 4754  33.500  18.578  11.864
34940W        W 4755  31.456   3.714  14.485
34941W        W 4756  27.144   3.741   2.871
34942W        W 4757  32.502  37.892  14.011
34943W        W 4758  41.008  13.141   0.967
34944W        W 4759  16.614  44.392   4.696
34945W        W 4760  25.659  11.273   2.267
34946W        W 4761   9.832  38.336  10.932
34947W        W 4762  41.927  15.743  13.924
34948W        W 4763  12.817  31.150  11.002
34949W        W 4764  42.033  27.460  10.976
34950W        W 4765   3.313  15.683   1.337
34951W        W 4766  37.452  22.508   0.748
34952W        W 4767  25.516  17.599  13.310
34953W        W 4768  24.528   7.813  12.560
34954W        W 4769  25.609  29.507   1.932
34955W        W 4770  43.385  27.062  12.958
34956W        W 4771  21.203  24.532   1.442
34957W        W 4772  12.674  16.724  10.610
34958W        W 4773  36.918  10.326   3.726
34959W        W 4774  15.591  36.368  12.825
34960W        W 4775  34.877  35.401  10.925
34961W        W 4776  40.930  27.006  11.609
34962W        W 4777  36.893  43.969   0.894
34963W        W 4778  27.945  27.001   1.213
34964W        W 4779  15.270  15.276   4.781
34965W        W 4780  41.876  32.440  12.845
34966W        W 4781  19.534  12.140   2.371
34967W        W 4782  24.213  39.049  11.884
34968W        W 4783   8.298  40.930  14.391
34969W        W 4784   8.688  42.300  10.641
34970W        W 4785  22.559  16.260  14.406
34971W        W 4786   6.408  34.874  10.971
34972W        W 4787  15.582  11.294  14.807
34973W        W 4788  24.212  16.764   0.402
34974W        W 4789  38.870  17.175   4.259
34975W        W 4790  18.641  25.561   3.844
34976W        W 4791   7.777  15.253   1.873
34977W        W 4792  13.816  28.496  10.621
34978W        W 4793  25.509  41.974  11.966
34979W        W 4794  32.070  23.072  12.932
34980W        W 4795  29.656  40.399  14.997
34981W        W 4796  10.724  41.987  11.408
34982W        W 4797  23.192   8.776   4.803
34983W        W 4798  41.508  42.470   4.245
34984W        W 4799  21.094  42.454   0.730
34985W        W 4800  41.453  34.890  14.934
34986W        W 4801  13.350  20.163   1.370
34987W        W 4802  10.326   8.393   2.664
34988W        W 4803  39.966  12.617   0.757
34989W        W 4804  11.188  24.676  10.423
34990W        W 4805  17.099  23.141   4.737
34991W        W 4806  31.028  42.840   3.331
34992W        W 4807  30.046  30.496   2.221
34993W        W 4808  36.448  17.757   0.747
34994W        W 4809  39.341  23.042   1.388
34995W        W 4810  32.060  44.366  10.417
34996W        W 4811  44.359   0.294  13.821
34997W        W 4812  30.522  16.227   2.704
34998W        W 4813  23.530  24.000  13.930
34999W        W 4814  11.143  14.606  13.913
35000W        W 4815  32.140  38.014   3.678
35001W        W 4816  37.582  20.768  10.432
35002W        W 4817  13.656  21.553  14.307
35003W        W 4818  24.082  20.696  12.369
35004W        W 4819  15.728  32.536  13.385
35005W        W 4820  42.935  31.585   2.207
35006W        W 4821  22.555  32.513  12.450
35007W        W 4822  36.058  19.768  14.914
35008W        W 4823  14.106   3.251  13.059
35009W        W 4824  39.416   9.771   2.335
35010W        W 4825  38.562  37.513   1.329
35011W        W 4826  38.493  15.770  14.965
35012W        W 4827  24.639   2.849  14.014
35013W        W 4828  18.721   9.735  12.860
35014W        W 4829   8.900  32.411   2.895
35015W        W 4830  23.528  38.936   0.863
35016W        W 4831  14.113  23.103  11.479
35017W        W 4832  31.948  31.969   0.357
35018W        W 4833  31.062  10.294  13.024
35019W        W 4834  34.479  41.868   3.368
35020W        W 4835  25.478   4.356  10.600
35021W        W 4836  42.001   5.797  13.950
35022W        W 4837  32.974  14.800   2.249
35023W        W 4838  34.992   5.801  13.920
35024W        W 4839  26.553   4.925  10.513
35025W        W 4840  36.561  28.018   2.805
35026W        W 4841  19.148  44.913  10.963
35027W        W 4842  20.229  15.696   9.969
35028W        W 4843  31.043  22.628  11.586
35029W        W 4844  24.201  13.746   1.701
35030W        W 4845  42.933  21.579   4.674
35031W        W 4846   1.473  40.010   2.253
35032W        W 4847  36.015  14.675   2.780
35033W        W 4848  44.408   7.836   2.334
35034W        W 4849   2.348  23.177   0.469
35035W        W 4850  14.686  29.589  11.375
35036W        W 4851  15.594   5.709   3.163
35037W        W 4852  31.047   7.345   3.697
35038W        W 4853  30.001  28.494   4.661
35039W        W 4854  40.950  17.677  13.392
35040W        W 4855  12.307  28.109   1.365
35041W        W 4856  20.068  12.760   2.683
35042W        W 4857  42.888  24.702  13.537
35043W        W 4858  30.485  25.071   0.291
35044W        W 4859  39.358  20.145  10.622
35045W        W 4860  44.989  12.811  12.413
35046W        W 4861   1.954   8.381  14.302
35047W        W 4862  19.681   4.701  11.105
35048W        W 4863  34.065  11.216   3.675
35049W        W 4864  25.494   4.717   0.291
35050W        W 4865  28.034  19.680  14.888
35051W        W 4866  35.049  32.617  11.042
35052W        W 4867  30.655  40.944   2.760
35053W        W 4868  23.024   4.214  13.855
35054W        W 4869  29.931   5.756   0.891
35055W        W 4870   3.355  19.661  13.405
35056W        W 4871  17.721  43.349   4.273
35057W        W 4872  38.480  36.434  10.620
35058W        W 4873   3.411   0.883  11.947
35059W        W 4874   7.372  17.684  10.991
35060W        W 4875   7.387  19.156  12.988
35061W        W 4876  35.921  39.529   0.915
35062W        W 4877  23.701  25.585  11.449
35063W        W 4878   9.186  24.079  14.022
35064W        W 4879   3.717   3.878   1.883
35065W        W 4880  33.042   6.426  13.318
35066W        W 4881  12.708  29.038  13.837
35067W        W 4882  44.916  44.853  12.947
35068W        W 4883  20.202  23.728   1.321
35069W        W 4884  32.542   8.830   2.780
35070W        W 4885  41.292  37.940   0.392
35071W        W 4886   5.741   9.247  11.866
35072W        W 4887  21.126  19.553   3.368
35073W        W 4888  33.511  11.197   3.852
35074W        W 4889  26.961  35.401  10.597
35075W        W 4890  12.622   9.283   1.870
35076W        W 4891  31.101   8.709  10.546
35077W        W 4892   0.878  13.751   0.950
35078W        W 4893   9.367  22.150   3.715
35079W        W 4894  41.310  11.691   1.218
35080W        W 4895   2.731  42.820  13.890
35081W        W 4896  21.613  38.950  13.353
35082W        W 4897  20.653   1.445  14.899
35083W        W 4898  34.089  17.702  12.389
35084W        W 4899  19.244   2.259   4.119
35085W        W 4900   2.730  27.109   0.768
35086W        W 4901  39.418  41.977  12.432
35087W        W 4902  15.133   8.350   3.292
35088W        W 4903  18.630  32.434   1.231
35089W        W 4904  17.680  32.106   4.694
35090W        W 4905  32.952   1.893   4.201
35091W        W 4906  25.641  36.055   4.791
35092W        W 4907  24.677   6.319  10.597
35093W        W 4908  12.345  41.992   2.246
35094W        W 4909  37.526  28.150   3.747
35095W        W 4910  40.849  29.669  12.532
35096W        W 4911  25.982  23.660  12.510
35097W        W 4912  34.906   1.281   4.254
35098W        W 4913  31.899   5.775   0.897
35099W        W 4914  26.097  20.648  11.891
35100W        W 4915  24.114  31.035   1.712
35101W        W 4916  43.003  27.044   4.694
35102W        W 4917   6.346  24.709  13.338
35103W        W 4918  31.077  16.137   4.794
35104W        W 4919  34.930   1.972  14.515
35105W        W 4920  21.066  18.777   3.263
35106W        W 4921   5.422  39.833   1.735
35107W        W 4922  34.548  42.473   4.834
35108W        W 4923  37.554  20.208  13.331
35109W        W 4924   2.745   0.876  13.864
35110W        W 4925  41.516   0.334  11.434
35111W        W 4926  37.954  20.564  10.967
35112W        W 4927  10.667  41.483   3.772
35113W        W 4928  38.493  22.679  12.089
35114W        W 4929  15.118  21.170   4.200
35115W        W 4930  31.406  16.786   0.867
35116W        W 4931   1.272  27.053  13.829
35117W        W 4932  34.529  18.218   2.775
35118W        W 4933   7.183  16.172  11.871
35119W        W 4934  20.050  21.607  11.942
35120W        W 4935  13.691   0.273  13.851
35121W        W 4936   7.234  28.052   0.323
35122W        W 4937  18.252  14.167   0.416
35123W        W 4938  40.872  24.705  11.005
35124W        W 4939  30.543  10.175  10.956
35125W        W 4940  41.029  25.101  11.393
35126W        W 4941  20.264  21.576   0.814
35127W        W 4942   8.357   7.209   0.733
35128W        W 4943   2.276   7.862   1.272
35129W        W 4944  41.857  24.682  11.078
35130W        W 4945  30.464  24.482   0.909
35131W        W 4946  14.759  14.175   1.363
35132W        W 4947   8.267  29.640   0.330
35133W        W 4948  36.874  29.441   2.288
35134W        W 4949  27.476  24.079   2.902
35135W        W 4950  21.623  21.151  14.309
35136W        W 4951  33.895  11.351  10.521
35137W        W 4952  21.129  32.085  11.463
35138W        W 4953  38.534  42.848   1.378
35139W        W 4954  44.385  19.720  10.936
35140W        W 4955  21.115   1.241   1.277
35141W        W 4956  25.139  40.016  11.392
35142W        W 4957  41.479  43.945   3.272
35143W        W 4958  32.140  25.560  13.950
35144W        W 4959  40.988  10.143  11.900
35145W        W 4960  22.236  25.679   1.740
35146W        W 4961  14.262  23.554   2.364
35147W        W 4962  35.534  16.111   4.804
35148W        W 4963  22.664   1.366   1.291
35149W        W 4964  44.291   7.359   1.244
35150W        W 4965  25.684  40.499  12.461
35151W        W 4966   9.315  30.102   2.355
35152W        W 4967  25.606  16.129   1.449
35153W        W 4968  27.153  23.117  13.888
35154W        W 4969  38.427  21.122  12.510
35155W        W 4970  16.683   1.772  13.811
35156W        W 4971  37.385  37.016   3.780
35157W        W 4972   8.405  43.310   1.899
35158W        W 4973  35.453  24.671   4.662
35159W        W 4974  27.025  39.831   3.333
35160W        W 4975  41.399  41.838   1.796
35161W        W 4976   2.465   3.384  11.423
35162W        W 4977  18.267  26.571   3.357
35163W        W 4978  41.320   0.470  10.523
35164W        W 4979  36.932  36.045   0.431
35165W        W 4980  43.017   5.335   4.649
35166W        W 4981  15.625  18.065  13.897
35167W        W 4982  13.714  42.791   2.224
35168W        W 4983  44.874   8.390   1.367
35169W        W 4984  24.051  13.219  11.117
35170W        W 4985  37.457   5.316   1.826
35171W        W 4986  35.988  24.082   1.803
35172W        W 4987   3.880  39.503   1.745
35173W        W 4988  27.975  12.840   4.229
35174W        W 4989  37.575  15.821  10.530
35175W        W 4990  42.505  15.725   1.440
35176W        W 4991   0.386  23.111   1.773
35177W        W 4992  21.248  41.949   2.341
35178W        W 4993   3.860   0.278  12.912
35179W        W 4994  11.129  30.549  13.869
35180W        W 4995  17.076   8.766   9.958
35181W        W 4996  35.002   3.889  14.792
35182W        W 4997   8.370  40.830  11.975
35183W        W 4998   9.824  12.177   3.283
35184W        W 4999   3.858  13.632  14.442
35185W        W 5000   5.230  26.151  12.409
35186W        W 5001  33.424  37.353   5.259
35187W        W 5002  23.556  37.837   4.198
35188W        W 5003   4.438  11.667  14.779
35189W        W 5004  32.526  17.585  14.359
35190W        W 5005  37.923  30.587   0.455
35191W        W 5006   0.870   7.208   3.708
35192W        W 5007   3.449  34.999   0.763
35193W        W 5008  36.842   3.419  12.486
35194W        W 5009  37.896  36.410  14.024
35195W        W 5010   2.813  30.527   3.768
35196W        W 5011   5.352  19.162   3.251
35197W        W 5012   1.890  11.343  12.930
35198W        W 5013   5.720  32.073  14.010
35199W        W 5014   4.376   8.279   0.824
35200W        W 5015  24.696  11.186   2.258
35201W        W 5016  25.596  14.162  14.452
35202W        W 5017  10.706  13.310   2.329
35203W        W 5018  38.450  38.421   4.799
35204W        W 5019  19.759   7.822   3.244
35205W        W 5020   3.277   4.780  10.424
35206W        W 5021  40.445   1.860   1.867
35207W        W 5022  11.827  31.013   0.832
35208W        W 5023   3.939  26.161  10.894
35209W        W 5024  33.972  21.727   4.322
35210W        W 5025  11.812   1.815  13.475
35211W        W 5026  44.307   2.278  14.921
35212W        W 5027  10.217  28.511   1.356
35213W        W 5028  38.073  27.075   4.159
35214W        W 5029  22.607  39.879  13.535
35215W        W 5030  32.916  18.289   0.270
35216W        W 5031   3.856  37.497   0.753
35217W        W 5032  12.699  37.557   4.701
35218W        W 5033  31.504   7.211  13.350
35219W        W 5034  17.709  13.348   0.825
35220W        W 5035   1.840   7.227   3.247
35221W        W 5036  41.431   8.213   1.239
35222W        W 5037  11.239  33.387   4.710
35223W        W 5038   7.251  31.591  14.299
35224W        W 5039  16.569  31.573  14.308
35225W        W 5040  20.074  27.178   4.795
35226W        W 5041  15.814  35.963   3.817
35227W        W 5042   1.459   9.190  14.497
35228W        W 5043  20.621   3.409  10.565
35229W        W 5044  15.727  42.854  10.928
35230W        W 5045  39.916  32.905  13.847
35231W        W 5046  33.436  26.115   3.298
35232W        W 5047   2.279  22.026  11.405
35233W        W 5048  44.771  42.907   4.736
35234W        W 5049  34.928  39.017   1.375
35235W        W 5050  25.031  35.043  11.592
35236W        W 5051  20.527  18.137   3.732
35237W        W 5052   4.726  34.954  13.796
35238W        W 5053   7.345  11.646   1.816
35239W        W 5054  38.042  15.281   1.807
35240W        W 5055  28.060  24.166   0.437
35241W        W 5056  15.768   9.294  14.778
35242W        W 5057  33.024  42.434  13.375
35243W        W 5058  36.429  37.475  10.569
35244W        W 5059  34.410  15.247   2.746
35245W        W 5060  11.324  20.752  14.785
35246W        W 5061  16.736  11.139  11.528
35247W        W 5062  40.961  23.499  14.492
35248W        W 5063  23.720  16.792   5.121
35249W        W 5064   9.330  14.104   4.799
35250W        W 5065   1.237  40.803  10.538
35251W        W 5066  26.190  28.635  13.433
35252W        W 5067  40.046  35.366  11.380
35253W        W 5068  20.120  12.165  12.465
35254W        W 5069   6.409  33.483  11.572
35255W        W 5070   4.274  33.060   3.678
35256W        W 5071  27.073  30.461   2.766
35257W        W 5072  44.412  30.503   3.863
35258W        W 5073  17.700  29.526   2.758
35259W        W 5074   6.805  27.607   2.378
35260W        W 5075  27.979   2.839  12.548
35261W        W 5076   1.910  27.079   2.844
35262W        W 5077  11.733  40.335   3.685
35263W        W 5078  31.091   4.864   4.185
35264W        W 5079  12.178  24.580  11.549
35265W        W 5080   0.810   1.406  14.425
35266W        W 5081  23.043   2.280  11.889
35267W        W 5082  13.610  30.053  13.994
35268W        W 5083  38.508  44.807   2.665
35269W        W 5084  42.990  40.344  12.012
35270W        W 5085  13.633  34.413  12.464
35271W        W 5086  23.002  38.033   0.422
35272W        W 5087  30.121   9.168  13.385
35273W        W 5088  31.573  38.009  12.879
35274W        W 5089  25.111  22.127  12.084
35275W        W 5090  18.189  35.873   0.806
35276W        W 5091  43.428   6.735  12.553
35277W        W 5092  27.176  21.607  10.485
35278W        W 5093  29.918  43.395  12.094
35279W        W 5094  13.316  33.446   3.865
35280W        W 5095  34.016  10.261  12.029
35281W        W 5096  35.895  31.621   4.631
35282W        W 5097  22.731  23.029  11.087
35283W        W 5098  28.953  40.548  14.013
35284W        W 5099  10.805  26.473   1.760
35285W        W 5100  10.741  36.375   1.871
35286W        W 5101   3.360  18.221  14.998
35287W        W 5102  16.294  26.116  12.439
35288W        W 5103  29.583  10.713   0.958
35289W        W 5104  10.332  10.285  14.849
35290W        W 5105  41.822   0.382  13.541
35291W        W 5106   9.395   4.718   1.416
35292W        W 5107   3.329  23.685  11.486
35293W        W 5108  44.826   6.730  13.447
35294W        W 5109  22.106  21.117   1.409
35295W        W 5110  41.000  39.890  14.871
35296W        W 5111   5.773  21.515   4.836
35297W        W 5112  34.980   3.452  14.439
35298W        W 5113  43.919  11.625  14.768
35299W        W 5114  32.058  17.276   0.479
35300W        W 5115   8.814  35.470   3.306
35301W        W 5116  43.297  12.286  13.334
35302W        W 5117   5.192  17.307   1.836
35303W        W 5118  19.574  37.922   1.391
35304W        W 5119  35.362  13.150   0.418
35305W        W 5120   0.780  36.931  12.412
35306W        W 5121  32.100  29.474   3.384
35307W        W 5122  18.731  33.514   0.302
35308W        W 5123  13.330   7.318   0.339
35309W        W 5124  42.964  33.088  12.905
35310W        W 5125  30.626  18.721  13.370
35311W        W 5126  13.686  15.756  11.982
35312W        W 5127  39.460  32.579   3.855
35313W        W 5128  32.459   5.302   2.230
35314W        W 5129   3.867   9.652   1.376
35315W        W 5130  20.578  23.000   2.877
35316W        W 5131  16.671  29.436  11.516
35317W        W 5132  42.419  32.024   4.341
35318W        W 5133   3.360  21.546  12.446
35319W        W 5134  23.586  29.433   1.751
35320W        W 5135  42.946  24.193  12.824
35321W        W 5136  36.915  32.928   3.301
35322W        W 5137  13.328  24.627   2.674
35323W        W 5138  14.782  24.122  14.976
35324W        W 5139  37.362   9.304   2.889
35325W        W 5140  44.488  22.173  13.033
35326W        W 5141  43.452  23.581  10.447
35327W        W 5142  31.105  11.635  13.441
35328W        W 5143  43.339  42.521  14.424
35329W        W 5144  27.089  10.280  10.034
35330W        W 5145  11.338   3.901  13.399
35331W        W 5146  43.792  28.121   2.817
35332W        W 5147   8.740   1.761  14.766
35333W        W 5148   0.389  25.161  12.998
35334W        W 5149  29.455  32.610  13.424
35335W        W 5150  15.616  13.627  13.842
35336W        W 5151  19.620  43.986  14.896
35337W        W 5152  24.010  13.152  14.309
35338W        W 5153   9.860  13.813   3.219
35339W        W 5154  27.555   9.392   4.202
35340W        W 5155  28.051  12.332  10.895
35341W        W 5156  20.092  33.938   3.223
35342W        W 5157   6.360  13.306   1.210
35343W        W 5158   2.472  34.614   4.279
35344W        W 5159  31.036  42.428  10.539
35345W        W 5160  31.983   6.831   1.262
35346W        W 5161  14.207   8.286   4.631
35347W        W 5162  21.243  22.074   4.710
35348W        W 5163   7.291  15.631   2.373
35349W        W 5164  20.642  32.076  12.972
35350W        W 5165  23.514  13.796   0.817
35351W        W 5166  23.665  17.293  14.481
35352W        W 5167  34.515  31.986  12.074
35353W        W 5168   0.952  16.304  13.432
35354W        W 5169  12.321  29.029  11.002
35355W        W 5170  38.882  31.968   4.778
35356W        W 5171  39.365  35.944   2.785
35357W        W 5172   8.192   7.213  10.988
35358W        W 5173  40.367  33.036  11.912
35359W        W 5174  41.808   1.951  10.026
35360W        W 5175   8.898  37.985  12.092
35361W        W 5176  42.413  40.377   3.630
35362W        W 5177  34.081  13.296  11.030
35363W        W 5178  39.866  43.354   0.300
35364W        W 5179  16.165  18.132  14.392
35365W        W 5180  18.078   6.211  11.480
35366W        W 5181  34.044   5.219  12.999
35367W        W 5182  21.724  11.765  12.580
35368W        W 5183  28.648  41.427   1.308
35369W        W 5184  33.539  31.039  11.073
35370W        W 5185  10.699  31.567  14.311
35371W        W 5186  13.278  25.674   0.778
35372W        W 5187  10.358  36.958  10.952
35373W        W 5188   0.760  36.980  10.027
35374W        W 5189   0.857  36.380   3.800
35375W        W 5190  37.952  32.543   9.522
35376W        W 5191  31.482  12.217   0.404
35377W        W 5192   1.390  41.377   3.824
35378W        W 5193  28.158  14.181   2.373
35379W        W 5194   7.778  21.705  10.539
35380W        W 5195  24.527  26.108   1.401
35381W        W 5196  36.055  27.678   2.287
35382W        W 5197  39.868  30.068  13.029
35383W        W 5198   2.856  25.066  12.026
35384W        W 5199  17.650  35.958  14.808
35385W        W 5200  17.134  38.963   0.324
35386W        W 5201  18.153  17.254  14.987
35387W        W 5202  40.033  24.095  10.630
35388W        W 5203  34.049  36.349  10.501
35389W        W 5204   8.672  18.650  10.628
35390W        W 5205   9.279   9.218   3.683
35391W        W 5206  43.382  44.349  12.504
35392W        W 5207  20.129   9.717   2.197
35393W        W 5208  19.251  22.517   4.640
35394W        W 5209  10.765  29.956   2.899
35395W        W 5210   0.983  33.583  11.592
35396W        W 5211  44.442   9.854  10.081
35397W        W 5212  39.960   8.708   3.868
35398W        W 5213  31.142  43.878  13.871
35399W        W 5214  18.708  35.065   0.447
35400W        W 5215  21.756   2.818  11.463
35401W        W 5216  35.405  39.513   3.248
35402W        W 5217  41.824  42.306  14.404
35403W        W 5218  17.304   1.396   1.333
35404W        W 5219  22.574  15.255   3.754
35405W        W 5220  29.963   5.752   2.851
35406W        W 5221  38.539  22.220   2.250
35407W        W 5222  39.479  21.625   3.309
35408W        W 5223   3.358  11.230   4.728
35409W        W 5224  33.495  19.729  12.452
35410W        W 5225  11.252  17.189  10.418
35411W        W 5226   7.737  20.757   3.319
35412W        W 5227   1.916  29.076  11.928
35413W        W 5228  19.659  36.484   3.755
35414W        W 5229  31.144  20.245  14.984
35415W        W 5230  27.066  28.109  12.434
35416W        W 5231  28.122  41.529  14.440
35417W        W 5232  12.327  31.564  11.888
35418W        W 5233  37.552   0.427  11.101
35419W        W 5234  13.105   8.303  13.870
35420W        W 5235  36.096  34.927  14.369
35421W        W 5236  14.659  31.536  11.563
35422W        W 5237   9.730  10.826  13.317
35423W        W 5238  30.005  15.745   4.792
35424W        W 5239  20.079  15.596  11.999
35425W        W 5240  29.612  39.854   1.891
35426W        W 5241  34.882  10.802   2.734
35427W        W 5242  19.150   6.806  14.951
35428W        W 5243  37.843  28.577   3.778
35429W        W 5244  37.952  40.360  11.540
35430W        W 5245   0.270   3.282  14.780
35431W        W 5246  31.101   8.171  13.057
35432W        W 5247  13.765  33.036  14.931
35433W        W 5248   0.807  24.660   3.158
35434W        W 5249   0.256  26.049   1.237
35435W        W 5250  37.371  26.607  11.019
35436W        W 5251  24.007  11.247  11.924
35437W        W 5252  14.273  21.643   1.887
35438W        W 5253  25.003  13.846   0.406
35439W        W 5254  30.057  17.577   4.258
35440W        W 5255  33.942  34.423   3.204
35441W        W 5256  14.320  36.914   1.839
35442W        W 5257  19.603  39.397  11.102
35443W        W 5258  31.140  24.498   4.800
35444W        W 5259  35.011  19.109  10.942
35445W        W 5260  40.947  19.141  11.491
35446W        W 5261  24.989  39.841   9.490
35447W        W 5262  43.514  26.581  14.792
35448W        W 5263  41.880   9.743  14.487
35449W        W 5264  10.333  19.212   5.256
35450W        W 5265  35.007   3.220   4.699
35451W        W 5266   8.290  10.685  11.129
35452W        W 5267  25.101  25.064  11.391
35453W        W 5268  33.001  15.095   1.831
35454W        W 5269  17.192  32.479  12.869
35455W        W 5270  33.530   9.262  10.523
35456W        W 5271  11.196  10.378  13.542
35457W        W 5272  30.014  13.264  10.890
35458W        W 5273  37.942   0.967  12.455
35459W        W 5274  35.517  15.603   4.614
35460W        W 5275  36.485  40.824  10.572
35461W        W 5276  18.070  33.595   1.210
35462W        W 5277   6.772  20.556   1.862
35463W        W 5278  38.887   5.918   5.112
35464W        W 5279  13.307   6.280  12.503
35465W        W 5280  44.489  39.479  14.912
35466W        W 5281  12.222  10.291   4.736
35467W        W 5282   9.861  41.369  11.102
35468W        W 5283  35.398  30.957  10.424
35469W        W 5284  33.408  19.058  12.481
35470W        W 5285  11.737  37.434   2.367
35471W        W 5286   4.855  43.875   3.325
35472W        W 5287  29.463  15.714  12.030
35473W        W 5288   3.956   1.349   0.938
35474W        W 5289  39.485  39.527   4.675
35475W        W 5290  24.644  40.444   1.822
35476W        W 5291  39.384  32.087   0.392
35477W        W 5292  41.828   4.754  12.911
35478W        W 5293  15.273  40.403  11.534
35479W        W 5294  10.818  19.260   1.762
35480W        W 5295  17.282  20.234   0.934
35481W        W 5296  32.610  24.193  10.518
35482W        W 5297   6.798  24.995   4.765
35483W        W 5298  15.706  23.118   2.862
35484W        W 5299  17.112  42.478   2.303
35485W        W 5300  35.538   7.899   4.202
35486W        W 5301  25.184  12.347  10.905
35487W        W 5302   8.826  22.199  13.010
35488W        W 5303  44.309  33.517   5.105
35489W        W 5304  18.713   6.261   3.658
35490W        W 5305  36.471  12.643  12.468
35491W        W 5306   0.402  24.074   4.697
35492W        W 5307  38.566   2.909  14.810
35493W        W 5308  20.189   3.330   1.731
35494W        W 5309  39.856  33.526   4.652
35495W        W 5310  10.830  14.259   2.695
35496W        W 5311   0.861   9.751   1.819
35497W        W 5312  12.810   1.246   2.257
35498W        W 5313  32.544  37.962  13.370
35499W        W 5314  23.549   0.488   0.759
35500W        W 5315  27.471  27.552  11.499
35501W        W 5316  39.050   6.679   2.275
35502W        W 5317  22.086  33.390  13.324
35503W        W 5318  16.093  36.424   2.851
35504W        W 5319  40.858  27.603   0.319
35505W        W 5320   5.828   0.324   3.848
35506W        W 5321   6.204   7.235   1.225
35507W        W 5322  13.766  15.689   4.622
35508W        W 5323  11.356  31.937   2.724
35509W        W 5324   9.332  30.613  10.074
35510W        W 5325   0.448  15.646  14.400
35511W        W 5326  17.239  29.968   4.690
35512W        W 5327  12.318   7.729   3.641
35513W        W 5328  17.764  24.190  11.484
35514W        W 5329   4.208  29.656   2.200
35515W        W 5330  30.963  15.628   1.391
35516W        W 5331  37.002  39.993  10.425
35517W        W 5332  16.614  11.193   1.296
35518W        W 5333   9.327  37.368   2.748
35519W        W 5334  27.576  22.609   1.931
35520W        W 5335  21.145  18.773   5.177
35521W        W 5336  10.641  40.525  14.479
35522W        W 5337  34.613  26.095   4.329
35523W        W 5338  17.627   0.939  14.847
35524W        W 5339   8.274  25.666  12.889
35525W        W 5340  24.507  44.956  12.400
35526W        W 5341   1.753  14.822   3.385
35527W        W 5342  19.174  38.486   2.239
35528W        W 5343  32.439   3.285  10.114
35529W        W 5344  44.945  13.801  13.404
35530W        W 5345  10.762  40.388  10.972
35531W        W 5346  24.546   7.791   0.829
35532W        W 5347  21.640  19.680  14.471
35533W        W 5348  39.955  18.124   4.353
35534W        W 5349  17.784  34.534  13.330
35535W        W 5350  44.818  21.098   1.832
35536W        W 5351  30.108  15.225   3.638
35537W        W 5352  38.501  20.559   2.196
35538W        W 5353  29.172   5.405  11.959
35539W        W 5354  44.905  16.591  11.998
35540W        W 5355  13.793   7.327  13.988
35541W        W 5356   1.892  20.644  12.494
35542W        W 5357  13.262  33.504   0.378
35543W        W 5358   7.369  19.750   3.661
35544W        W 5359  17.163   5.773  10.537
35545W        W 5360  29.061  11.734   2.795
35546W        W 5361  34.043  38.990   1.432
35547W        W 5362  34.509  39.832   1.800
35548W        W 5363   4.728  12.190   0.253
35549W        W 5364  14.144  22.540  13.952
35550W        W 5365  15.598   9.848  14.918
35551W        W 5366   6.321  41.926   2.294
35552W        W 5367  12.616  24.493   4.786
35553W        W 5368  37.079  22.606  12.510
35554W        W 5369  21.127  14.793   1.879
35555W        W 5370  24.513  41.038   0.877
35556W        W 5371  27.461  33.399   0.772
35557W        W 5372  24.506  36.489  12.005
35558W        W 5373  13.211  41.012  12.974
35559W        W 5374  40.898  10.806  11.028
35560W        W 5375  38.848  33.542  11.603
35561W        W 5376  37.863  27.607   3.253
35562W        W 5377   8.283  36.514  13.836
35563W        W 5378   3.230  43.018   2.416
35564W        W 5379  40.908  43.992   4.599
35565W        W 5380  20.685   1.753   3.256
35566W        W 5381   7.201  21.684   1.434
35567W        W 5382  17.700  29.026  14.514
35568W        W 5383  22.510   2.847   4.679
35569W        W 5384   5.837  28.022   4.802
35570W        W 5385  18.550   4.712  13.454
35571W        W 5386  36.917  13.676  13.955
35572W        W 5387   5.880  43.451   3.384
35573W        W 5388  32.041   9.849  13.428
35574W        W 5389   0.249  16.690  13.512
35575W        W 5390  17.672  27.640  14.973
35576W        W 5391  37.912   9.210  13.831
35577W        W 5392  33.952  37.526   0.788
35578W        W 5393  41.517  36.901  12.008
35579W        W 5394  42.889  14.762  11.928
35580W        W 5395  18.112  37.906   4.247
35581W        W 5396  18.241  30.987  13.933
35582W        W 5397  41.981  29.929  11.045
35583W        W 5398  19.668  22.511   3.186
35584W        W 5399   2.815  41.916  11.473
35585W        W 5400  21.112  21.259  11.440
35586W        W 5401  22.163   0.366   1.395
35587W        W 5402  37.477  12.838   3.366
35588W        W 5403  26.527  34.988  11.493
35589W        W 5404  37.496  41.028   1.722
35590W        W 5405  13.836  36.978   4.651
35591W        W 5406  15.114  20.651  11.015
35592W        W 5407  28.478  22.080  14.319
35593W        W 5408  33.428  18.110  10.909
35594W        W 5409  24.583  11.812  11.419
35595W        W 5410  17.131  18.612   4.675
35596W        W 5411  38.543  43.511   0.339
35597W        W 5412  34.895   1.852   4.725
35598W        W 5413  31.605  25.973   1.431
35599W        W 5414  19.130  41.036   2.841
35600W        W 5415  40.962  41.985  11.021
35601W        W 5416  39.525  19.200  11.897
35602W        W 5417  13.188  34.548  13.853
35603W        W 5418   1.390  34.078   2.178
35604W        W 5419  24.188  44.500   1.358
35605W        W 5420  14.744  20.593  11.908
35606W        W 5421  40.927   1.242   4.791
35607W        W 5422  30.064   3.790   2.186
35608W        W 5423  14.210  25.470   2.839
35609W        W 5424  19.140   5.347  12.551
35610W        W 5425  31.918  12.263  12.090
35611W        W 5426  38.982  41.808   3.285
35612W        W 5427   7.253  29.559   2.195
35613W        W 5428  28.440  39.510  11.914
35614W        W 5429  42.473   3.456  12.064
35615W        W 5430  22.084  32.994   1.379
35616W        W 5431  11.836  34.594  11.037
35617W        W 5432  17.721   3.876  11.039
35618W        W 5433  25.498   3.222   0.452
35619W        W 5434  28.945  43.824   2.341
35620W        W 5435  13.127  22.599  14.458
35621W        W 5436   1.298   8.188   0.926
35622W        W 5437  34.416   6.340   4.268
35623W        W 5438   4.240  17.208   4.711
35624W        W 5439   7.780  39.039  14.980
35625W        W 5440  22.041  21.054  13.351
35626W        W 5441  35.382   4.238   1.792
35627W        W 5442  19.258  15.276   3.272
35628W        W 5443  24.649  21.517   1.255
35629W        W 5444  42.028  12.856   9.998
35630W        W 5445  39.332   8.215   4.252
35631W        W 5446   6.716  44.895   0.759
35632W        W 5447  25.657  40.969   3.757
35633W        W 5448  10.653  30.551  10.628
35634W        W 5449   3.420  18.159   0.821
35635W        W 5450   2.792  30.416  14.834
35636W        W 5451   9.873   2.922   1.799
35637W        W 5452  16.255  22.104   4.756
35638W        W 5453   5.395  15.762   1.443
35639W        W 5454  33.420  39.476   2.343
35640W        W 5455  21.528   9.248   3.712
35641W        W 5456  20.182  22.132   1.933
35642W        W 5457  18.164   0.416   4.614
35643W        W 5458  38.527  32.906   0.736
35644W        W 5459   3.809   8.180   0.245
35645W        W 5460  16.281   1.351  10.598
35646W        W 5461  29.524   4.354  11.595
35647W        W 5462  30.121  33.996  14.841
35648W        W 5463  23.150  36.874  14.430
35649W        W 5464  37.526  21.089   0.297
35650W        W 5465  34.970  15.605  13.314
35651W        W 5466  36.482  32.419   2.239
35652W        W 5467   5.326  21.576  11.561
35653W        W 5468  20.586  42.352  13.492
35654W        W 5469  36.380  18.681   1.706
35655W        W 5470   8.655   4.800   1.743
35656W        W 5471   6.760  29.590   3.324
35657W        W 5472  27.078  34.958   4.660
35658W        W 5473  14.126   2.275  11.488
35659W        W 5474  27.177   2.944   1.342
35660W        W 5475  24.126  28.049   2.341
35661W        W 5476   3.851  30.542   2.828
35662W        W 5477   2.748  16.732  13.412
35663W        W 5478  19.065   4.770   4.124
35664W        W 5479  21.545   8.883   3.149
35665W        W 5480  11.229  38.565  13.530
35666W        W 5481  29.561  43.484   1.370
35667W        W 5482  11.170  24.987   3.775
35668W        W 5483  26.607   5.395  14.952
35669W        W 5484   5.228  31.609  13.812
35670W        W 5485  22.674  15.277  12.888
35671W        W 5486   0.807  34.479  11.857
35672W        W 5487  39.869   3.350  11.379
35673W        W 5488  15.220  10.790  14.926
35674W        W 5489  44.268  25.087   1.364
35675W        W 5490  36.867  11.663   4.757
35676W        W 5491  24.135  33.945   2.846
35677W        W 5492  36.928  20.571   4.667
35678W        W 5493  11.644  26.149   3.240
35679W        W 5494  13.773  29.467   3.693
35680W        W 5495  35.013  11.786   3.371
35681W        W 5496  37.993   8.375  13.886
35682W        W 5497  34.375  37.551   0.261
35683W        W 5498  37.531  34.988  11.049
35684W        W 5499  18.749  42.973  10.985
35685W        W 5500  31.992   5.888  10.954
35686W        W 5501  17.062  13.839  11.453
35687W        W 5502  19.203   2.904  11.994
35688W        W 5503  41.840  34.560   2.312
35689W        W 5504  24.047   3.799  11.863
35690W        W 5505   9.844  18.679   3.365
35691W        W 5506  36.004  12.226   0.242
35692W        W 5507  27.139   2.762  11.448
35693W        W 5508  30.107  38.927  11.959
35694W        W 5509  29.012  20.636   1.797
35695W        W 5510  27.479  32.400   0.325
35696W        W 5511  35.534  41.455  10.937
35697W        W 5512   5.335  28.631  11.480
35698W        W 5513  41.797   9.370  12.939
35699W        W 5514  34.995   2.242  14.924
35700W        W 5515  12.314  24.066   4.185
35701W        W 5516  22.576  34.038  14.394
35702W        W 5517  21.140  36.896  14.299
35703W        W 5518   2.412  38.938  11.527
35704W        W 5519  41.479  34.589  10.488
35705W        W 5520   9.161   5.783   4.171
35706W        W 5521  22.031  41.834  11.927
35707W        W 5522  21.615  17.100   1.349
35708W        W 5523  13.626  24.202   3.709
35709W        W 5524  20.221  43.778   0.752
35710W        W 5525   3.374   2.769   3.237
35711W        W 5526  44.386   6.245   0.428
35712W        W 5527  14.622  15.812   0.437
35713W        W 5528  42.851  17.649  14.292
35714W        W 5529  16.088   3.734  12.910
35715W        W 5530  20.758  17.284   2.411
35716W        W 5531  22.154  21.602  12.081
35717W        W 5532   0.973  44.289  12.970
35718W        W 5533  40.351  32.901  14.477
35719W        W 5534  32.133   2.463   2.188
35720W        W 5535  38.984  12.225   4.684
35721W        W 5536   8.807  18.677  10.988
35722W        W 5537  35.939  22.675  11.607
35723W        W 5538   3.905   7.366   0.861
35724W        W 5539  15.127  42.306  11.002
35725W        W 5540  39.926  18.178  14.466
35726W        W 5541  22.248  19.592  13.496
35727W        W 5542  25.208  36.867   0.299
35728W        W 5543  13.144  35.420   0.938
35729W        W 5544  31.582  39.354  13.399
35730W        W 5545  13.316  37.412  11.001
35731W        W 5546  12.646  35.485   3.356
35732W        W 5547  32.080  17.600  13.539
35733W        W 5548  24.720  26.202  12.520
35734W        W 5549   7.747  35.987  11.931
35735W        W 5550   4.437  40.977   2.339
35736W        W 5551  36.088   8.826  14.000
35737W        W 5552  32.928  16.274  13.027
35738W        W 5553  38.363   8.332   5.302
35739W        W 5554   8.338  40.382   3.828
35740W        W 5555  39.053   2.392   0.294
35741W        W 5556  10.759  12.177   3.252
35742W        W 5557  44.399  41.920   2.217
35743W        W 5558  26.056  28.018   2.341
35744W        W 5559   5.734   0.875  11.437
35745W        W 5560  28.033  40.478   9.974
35746W        W 5561   2.845  32.901  11.941
35747W        W 5562  36.089  38.328   3.289
35748W        W 5563   1.370  34.115   4.620
35749W        W 5564  17.724  21.235  13.831
35750W        W 5565  37.045  30.098   2.371
35751W        W 5566  44.420  34.869  12.857
35752W        W 5567  44.964  23.523   4.755
35753W        W 5568  44.768  42.308  13.004
35754W        W 5569  12.230  23.168   4.649
35755W        W 5570  16.639   0.350  11.484
35756W        W 5571  13.829  41.339  10.599
35757W        W 5572   7.250  14.745   2.348
35758W        W 5573  39.383  37.843   4.263
35759W        W 5574  33.045  42.033   3.199
35760W        W 5575  26.599  44.364  13.953
35761W        W 5576  13.814  32.562  11.073
35762W        W 5577  29.937  26.169   3.811
35763W        W 5578  44.970  18.665   4.664
35764W        W 5579  15.782  42.327  12.378
35765W        W 5580  33.556  10.832   2.216
35766W        W 5581   1.828  11.140   3.770
35767W        W 5582   1.972   3.712   3.383
35768W        W 5583   1.408  22.728  10.909
35769W        W 5584  37.946  17.181   0.373
35770W        W 5585   5.438   0.442  13.928
35771W        W 5586  34.103  35.020  14.499
35772W        W 5587  30.430  37.377  11.978
35773W        W 5588   9.775  28.566  12.982
35774W        W 5589  29.498  11.719  14.397
35775W        W 5590  35.461  25.471   1.360
35776W        W 5591  36.846  34.091   1.261
35777W        W 5592  30.112  10.811  13.345
35778W        W 5593  33.875  39.376   4.623
35779W        W 5594  19.273  29.619  14.323
35780W        W 5595  14.708  43.947  12.445
35781W        W 5596  29.112  16.156  13.051
35782W        W 5597  23.017  15.817   0.329
35783W        W 5598  38.571  36.947  14.828
35784W        W 5599  14.111  13.345   4.238
35785W        W 5600   0.443  12.837  13.433
35786W        W 5601  25.513  39.491   4.267
35787W        W 5602  39.954  11.680  13.868
35788W        W 5603  33.575   7.402   1.827
35789W        W 5604  36.567  18.261  10.471
35790W        W 5605  12.683  12.649  13.061
35791W        W 5606  20.233  38.566   3.793
35792W        W 5607  24.194  18.234  11.006
35793W        W 5608   8.679  27.552  10.974
35794W        W 5609  40.965  21.129  10.454
35795W        W 5610   7.878   9.772   4.349
35796W        W 5611   1.754  21.205  10.957
35797W        W 5612  42.524   1.808   0.858
35798W        W 5613  40.459   4.832   3.776
35799W        W 5614  34.996  25.007   1.773
35800W        W 5615  29.950  40.857  10.452
35801W        W 5616   3.277   1.418  14.499
35802W        W 5617  11.637  13.246  11.434
35803W        W 5618  21.020   0.921   4.196
35804W        W 5619  28.932  38.004  14.839
35805W        W 5620   7.833  11.150   2.813
35806W        W 5621  39.999  10.284   3.372
35807W        W 5622   6.799  34.050   0.420
35808W        W 5623  15.283  30.020   2.301
35809W        W 5624  38.329   1.249  11.863
35810W        W 5625  35.548  18.782  14.461
35811W        W 5626  39.964  13.642   9.546
35812W        W 5627  39.399  21.643   2.663
35813W        W 5628   3.951  12.332   1.332
35814W        W 5629   7.798   5.383   0.354
35815W        W 5630  28.101  42.451   0.283
35816W        W 5631  38.362  16.105   0.768
35817W        W 5632  18.555  16.196  13.406
35818W        W 5633  20.639   6.291  14.820
35819W        W 5634  21.250  13.342   2.707
35820W        W 5635  10.295   7.886   0.306
35821W        W 5636  21.067  15.644  13.844
35822W        W 5637  19.758  26.655  11.086
35823W        W 5638  44.470  34.580  11.478
35824W        W 5639  25.073   0.263  14.928
35825W        W 5640  13.628  28.167  14.486
35826W        W 5641  19.176   2.264   4.678
35827W        W 5642   0.784  31.919  14.867
35828W        W 5643  18.734  21.062   2.273
35829W        W 5644   2.807   5.406  13.924
35830W        W 5645  11.131  11.143  13.038
35831W        W 5646   7.875  41.845   0.428
35832W        W 5647   4.430  31.061  11.099
35833W        W 5648  37.575  43.878   2.763
35834W        W 5649   5.200  11.699  11.046
35835W        W 5650  22.070   7.393  14.940
35836W        W 5651  26.657   8.740   3.729
35837W        W 5652   9.326   7.253   2.192
35838W        W 5653  30.433  21.652  12.540
35839W        W 5654  15.185   4.918  12.350
35840W        W 5655   8.655  20.161  14.490
35841W        W 5656  39.981   6.685   1.745
35842W        W 5657  23.667  14.287   1.236
35843W        W 5658  32.951  35.463   2.824
35844W        W 5659   3.934   9.158  14.383
35845W        W 5660  23.679  20.258  11.098
35846W        W 5661  44.425  33.623  14.363
35847W        W 5662  31.064  39.056  13.420
35848W        W 5663  16.286  20.126  13.794
35849W        W 5664  31.570  21.630  10.929
35850W        W 5665  43.435  26.478  12.419
35851W        W 5666  30.163  29.968  10.985
35852W        W 5667  40.503  11.191   2.736
35853W        W 5668  41.376  41.298  10.478
35854W        W 5669  36.392  14.109   9.949
35855W        W 5670  15.808  43.391  13.542
35856W        W 5671  31.441  39.822   4.345
35857W        W 5672  44.297  15.792   1.865
35858W        W 5673  12.275  20.591   2.833
35859W        W 5674  34.495   9.747  12.897
35860W        W 5675  24.062  24.179  14.900
35861W        W 5676  17.171  17.120   1.715
35862W        W 5677  44.910  28.998  14.311
35863W        W 5678  38.559  39.511   2.186
35864W        W 5679  38.493  10.260   1.827
35865W        W 5680  43.505  31.084   0.927
35866W        W 5681  19.229   6.369  10.587
35867W        W 5682  44.420  29.578  11.561
35868W        W 5683  17.147   7.386   1.402
35869W        W 5684  14.154  12.307   3.729
35870W        W 5685  42.320  44.940   4.296
35871W        W 5686   6.392  19.243  11.468
35872W        W 5687  25.136  14.798  13.431
35873W        W 5688  42.927   4.282  11.504
35874W        W 5689  28.020  13.792   1.423
35875W        W 5690  17.193  27.115  11.009
35876W        W 5691   8.283  18.205   0.345
35877W        W 5692   3.416   0.839   4.128
35878W        W 5693   5.866  38.876   2.764
35879W        W 5694  25.141  22.182  14.295
35880W        W 5695  31.584  17.766  14.368
35881W        W 5696  10.207  26.573  13.037
35882W        W 5697   7.677  34.447   4.260
35883W        W 5698  30.565   9.169   0.344
35884W        W 5699   8.258  38.887  13.314
35885W        W 5700  36.928  20.660   0.401
35886W        W 5701  13.284   9.303   3.239
35887W        W 5702  17.595  17.083   1.853
35888W        W 5703   0.875  30.078   0.871
35889W        W 5704  27.110  44.397  12.567
35890W        W 5705  32.393  36.543   1.238
35891W        W 5706  32.057  35.946   1.405
35892W        W 5707  37.864  16.639   2.252
35893W        W 5708   5.717   9.887   1.291
35894W        W 5709  43.475  35.374   2.710
35895W        W 5710   6.343  30.944   1.868
35896W        W 5711   3.797  12.739   3.258
35897W        W 5712  18.615  22.194   2.407
35898W        W 5713  24.587  11.272  13.926
35899W        W 5714  15.743  38.905   0.466
35900W        W 5715  12.125   4.925  13.833
35901W        W 5716   2.373  34.019  10.589
35902W        W 5717   1.333  40.036   4.181
35903W        W 5718  39.514   5.264  10.522
35904W        W 5719  42.285  14.824  10.535
35905W        W 5720  20.196  42.806  12.038
35906W        W 5721  41.491   6.325   2.820
35907W        W 5722   0.305  14.626   3.791
35908W        W 5723  13.340  28.582  10.986
35909W        W 5724  42.867   2.836   2.847
35910W        W 5725   9.384  15.704   2.725
35911W        W 5726  22.080   8.274   3.317
35912W        W 5727   4.299  43.430  10.939
35913W        W 5728  26.045  39.047   3.166
35914W        W 5729  44.499  14.295   3.176
35915W        W 5730  14.145  31.983   1.332
35916W        W 5731  22.711  14.218   0.316
35917W        W 5732   8.712   7.855  11.412
35918W        W 5733   4.729  33.113   4.605
35919W        W 5734  36.045  26.685   1.798
35920W        W 5735  12.322  32.074   1.908
35921W        W 5736  27.634  18.253  14.336
35922W        W 5737  22.587  14.282   1.337
35923W        W 5738  43.783  23.543  10.563
35924W        W 5739  37.511  14.588  11.459
35925W        W 5740  23.054  31.496  14.878
35926W        W 5741  24.709  12.288   2.816
35927W        W 5742  35.424  34.909  11.560
35928W        W 5743  11.288  31.072  14.282
35929W        W 5744   6.288   3.289  10.564
35930W        W 5745  14.206   9.262  10.977
35931W        W 5746  22.177  35.403  14.952
35932W        W 5747  22.576  32.988   3.318
35933W        W 5748  14.740   2.917  14.429
35934W        W 5749  17.661   5.701  13.415
35935W        W 5750  20.642  38.565   1.278
35936W        W 5751  32.635  44.451   2.831
35937W        W 5752   3.245  31.617  13.508
35938W        W 5753  16.250  34.915   2.753
35939W        W 5754  13.734   6.412  13.004
35940W        W 5755  27.080  41.521  10.595
35941W        W 5756  15.114  38.875   4.681
35942W        W 5757  34.027  34.583  12.581
35943W        W 5758  41.005  18.173  11.532
35944W        W 5759   0.757  42.367   1.433
35945W        W 5760  27.101   3.461  13.996
35946W        W 5761  36.912  21.658  12.963
35947W        W 5762  32.425  29.919  12.884
35948W        W 5763  38.459  10.252   0.297
35949W        W 5764  41.392  13.128   3.774
35950W        W 5765   0.303   9.742   2.738
35951W        W 5766  40.381  29.623   5.306
35952W        W 5767  21.101  20.082  13.313
35953W        W 5768  24.649  24.138   4.124
35954W        W 5769  25.092  13.639   4.221
35955W        W 5770  42.337  44.431   3.356
35956W        W 5771  33.580  17.630  14.893
35957W        W 5772  35.041  14.171   4.663
35958W        W 5773  10.872  28.675   0.748
35959W        W 5774  21.630  14.806  10.486
35960W        W 5775  38.013  18.609   3.252
35961W        W 5776   0.856  44.297  11.963
35962W        W 5777   3.240  20.600   3.331
35963W        W 5778   0.311  44.005  13.887
35964W        W 5779  25.610  35.466  11.009
35965W        W 5780  14.322   7.713  14.310
35966W        W 5781  14.738  23.203  12.898
35967W        W 5782   0.804  40.021  12.023
35968W        W 5783  36.060  18.749  13.317
35969W        W 5784  40.855  35.873   2.394
35970W        W 5785  10.162  37.558   1.215
35971W        W 5786  37.898  17.716  11.585
35972W        W 5787  42.357  34.524   2.360
35973W        W 5788  32.079  17.299   4.797
35974W        W 5789   7.266   1.328   3.357
35975W        W 5790  38.529  42.410  10.407
35976W        W 5791  34.546  21.051  13.002
35977W        W 5792  33.987  27.474   0.294
35978W        W 5793   7.695   0.385   1.781
35979W        W 5794  29.137   5.771  10.925
35980W        W 5795  18.670  15.657   0.866
35981W        W 5796  42.333   5.822   0.274
35982W        W 5797  34.577   7.414  11.990
35983W        W 5798  43.008  29.155   1.448
35984W        W 5799   1.351  39.056   4.766
35985W        W 5800  28.512   9.774   0.368
35986W        W 5801  25.624  15.764   3.715
35987W        W 5802  12.193   4.785   2.347
35988W        W 5803  19.589  14.626   0.359
35989W        W 5804  34.429  36.995  10.450
35990W        W 5805  17.577  18.217  12.565
35991W        W 5806   1.401   7.292   2.289
35992W        W 5807   5.809  26.698   2.352
35993W        W 5808  14.724  12.335   1.710
35994W        W 5809  44.964  36.543  12.530
35995W        W 5810  27.691  18.117  11.102
35996W        W 5811  22.714   6.291   3.762
35997W        W 5812  44.505  29.045  14.375
35998W        W 5813  39.054  10.239  12.983
35999W        W 5814  18.216   9.695  11.902
36000W        W 5815  32.024   8.329  14.396
36001W        W 5816  39.404  32.472   2.329
36002W        W 5817  25.972   7.811   0.743
36003W        W 5818   2.312  44.400  10.951
36004W        W 5819   6.805   5.743   1.318
36005W        W 5820  37.921  27.476   4.726
36006W        W 5821  35.002  23.513   0.757
36007W        W 5822  36.852  17.632   1.836
36008W        W 5823   9.672  33.514   3.762
36009W        W 5824  19.591   7.836   0.264
36010W        W 5825  30.153  16.107  14.815
36011W        W 5826  40.381  21.243   0.249
36012W        W 5827  39.502  38.333   2.851
36013W        W 5828  21.588   1.753  11.425
36014W        W 5829   1.363  16.077  13.042
36015W        W 5830  28.134  33.029   1.280
36016W        W 5831  26.624   9.765  11.435
36017W        W 5832  13.702   1.478  13.418
36018W        W 5833   7.891  32.045  11.090
36019W        W 5834  19.126   4.388   2.778
36020W        W 5835   8.876  26.002  12.503
36021W        W 5836  33.948  44.340   2.748
36022W        W 5837   6.251  29.598  13.886
36023W        W 5838  10.791  34.076  13.342
36024W        W 5839   5.294  26.135   1.313
36025W        W 5840  12.144  42.520  11.883
36026W        W 5841  43.986  24.479   1.845
36027W        W 5842  38.368  23.071   2.742
36028W        W 5843  11.315  13.662   0.269
36029W        W 5844   2.907  43.492   0.307
36030W        W 5845  17.173  41.937   0.869
36031W        W 5846  17.743  15.266  14.450
36032W        W 5847   3.226   1.342  13.426
36033W        W 5848  30.069   2.236   1.770
36034W        W 5849  37.001  38.922  14.797
36035W        W 5850  23.142  32.559  11.460
36036W        W 5851  17.748   4.378  13.819
36037W        W 5852  23.576  22.076   4.763
36038W        W 5853   4.409  15.635   3.760
36039W        W 5854  17.293  14.778   1.747
36040W        W 5855  26.619  10.665  12.566
36041W        W 5856   2.226  44.853   1.815
36042W        W 5857  22.733  44.997   3.333
36043W        W 5858  32.582  38.340   1.899
36044W        W 5859  13.277  22.588  11.951
36045W        W 5860   5.828   0.981   3.230
36046W        W 5861  19.192  22.023   4.303
36047W        W 5862  30.590   6.747  11.445
36048W        W 5863  41.852  30.086   2.866
36049W        W 5864  27.675  43.983  11.534
36050W        W 5865  31.630   0.273   2.883
36051W        W 5866  30.637  26.544   0.794
36052W        W 5867  26.510   4.244  13.543
36053W        W 5868  21.124  18.051   2.334
36054W        W 5869  17.249  26.199  13.875
36055W        W 5870   2.738   0.382  12.464
36056W        W 5871   6.194  21.604   3.712
36057W        W 5872   1.886  16.636   1.321
36058W        W 5873  37.908  27.596  13.502
36059W        W 5874  35.366  34.371   4.238
36060W        W 5875  36.025  36.556   3.303
36061W        W 5876   8.288  31.992   1.885
36062W        W 5877   8.719  27.604  13.810
36063W        W 5878   4.449   3.899   3.359
36064W        W 5879  41.842  33.524   1.872
36065W        W 5880  36.561   9.312  13.307
36066W        W 5881  13.778   3.795   2.774
36067W        W 5882  30.632  16.089  14.977
36068W        W 5883  37.497  21.701  14.914
36069W        W 5884  36.007  31.101   0.298
36070W        W 5885  16.687  26.611   0.291
36071W        W 5886   7.232  22.062   3.313
36072W        W 5887  29.154   3.390   2.242
36073W        W 5888  38.834  25.585   1.771
36074W        W 5889  33.013  24.672   0.354
36075W        W 5890  26.957  17.288  12.096
36076W        W 5891  20.180  32.633  11.994
36077W        W 5892  14.236  26.599  13.802
36078W        W 5893  29.545   3.937  14.478
36079W        W 5894  15.320  22.114   4.644
36080W        W 5895  29.435   7.767  13.363
36081W        W 5896  39.991  12.303   1.251
36082W        W 5897  41.479  37.578   1.411
36083W        W 5898  31.141   4.430  10.995
36084W        W 5899  13.327  42.443  13.058
36085W        W 5900  28.655  22.649  14.415
36086W        W 5901  40.944  34.044   3.733
36087W        W 5902  10.244  40.962   4.828
36088W        W 5903   4.208  23.152   3.244
36089W        W 5904  16.654  43.960   3.650
36090W        W 5905  34.073  13.724   2.683
36091W        W 5906   4.328  36.558  10.994
36092W        W 5907  28.154  11.268   3.157
36093W        W 5908   0.809  42.985  10.575
36094W        W 5909  32.532  35.435  12.981
36095W        W 5910  40.496  24.522   1.353
36096W        W 5911   2.452  44.431   0.319
36097W        W 5912  30.013  42.492  12.096
36098W        W 5913  32.942  15.125  13.861
36099W        W 5914  28.528  10.374  10.635
36100W        W 5915  42.283   4.322  13.934
36101W        W 5916  10.808  18.294  11.920
36102W        W 5917  38.524   4.221   4.136
36103W        W 5918  24.492  34.386   0.896
36104W        W 5919  17.198  43.780   1.358
36105W        W 5920   4.337  30.140  12.978
36106W        W 5921   4.295  36.464   2.345
36107W        W 5922  31.035  15.687  12.067
36108W        W 5923   8.241   7.332   2.221
36109W        W 5924  16.201  36.961  14.489
36110W        W 5925  17.258  43.773  13.400
36111W        W 5926  24.652  28.467  11.128
36112W        W 5927  13.830   4.841   2.742
36113W        W 5928   0.290   0.374  11.485
36114W        W 5929  32.577  39.433   1.405
36115W        W 5930  43.846   3.257   1.889
36116W        W 5931   7.803  26.050   3.370
36117W        W 5932  22.136  26.689   0.385
36118W        W 5933   5.711  14.685   4.694
36119W        W 5934  12.166  13.684   1.317
36120W        W 5935  24.631  29.106   0.951
36121W        W 5936  32.115   2.751  13.997
36122W        W 5937  11.345  14.601   3.237
36123W        W 5938  22.188  26.138  10.491
36124W        W 5939   4.239  13.265  12.888
36125W        W 5940  44.491  35.976  11.522
36126W        W 5941  14.115  30.041   1.218
36127W        W 5942  39.949  44.865   0.736
36128W        W 5943  13.155  30.591   4.735
36129W        W 5944  38.821  29.032   3.722
36130W        W 5945  32.542  41.966   0.400
36131W        W 5946  29.561  25.704   0.328
36132W        W 5947  26.457  17.717  10.623
36133W        W 5948  27.987  15.665   1.742
36134W        W 5949  22.138  44.264  10.634
36135W        W 5950  41.491  43.355  11.457
36136W        W 5951   8.297  18.241  13.980
36137W        W 5952   6.816  14.756  12.479
36138W        W 5953  39.047  11.863   4.293
36139W        W 5954  14.130  26.480   3.194
36140W        W 5955  10.200  11.166   0.881
36141W        W 5956  32.600  32.140  11.095
36142W        W 5957  21.693   4.406  13.837
36143W        W 5958   8.858  39.399  10.417
36144W        W 5959   2.299  43.944   1.866
36145W        W 5960   0.468  29.451   0.879
36146W        W 5961  35.537  25.172   3.365
36147W        W 5962   8.840   9.325   1.426
36148W        W 5963  16.187  44.484   1.760
36149W        W 5964   6.377  38.397   4.811
36150W        W 5965  16.735  36.457   0.884
36151W        W 5966  38.547  11.146   4.289
36152W        W 5967   7.201  34.608   4.657
36153W        W 5968   7.830  37.930  12.384
36154W        W 5969  35.066  38.421  14.990
36155W        W 5970  43.339  28.939   2.332
36156W        W 5971  10.202  17.073   3.161
36157W        W 5972  16.761  31.080  13.930
36158W        W 5973  44.954   1.952   1.418
36159W        W 5974  37.859  27.601  12.564
36160W        W 5975  12.753  11.257   4.601
36161W        W 5976   0.324  17.159   0.832
36162W        W 5977  30.437   2.770  12.448
36163W        W 5978  19.161  39.883   0.866
36164W        W 5979  25.689  12.777  13.052
36165W        W 5980  14.716  26.975  13.910
36166W        W 5981  15.190  43.350   0.906
36167W        W 5982   6.289  31.899   2.896
36168W        W 5983   1.837  26.572  10.946
36169W        W 5984   1.287   7.697   3.863
36170W        W 5985   0.304   8.358  11.446
36171W        W 5986   3.951  23.705  12.468
36172W        W 5987  29.029  40.912   0.905
36173W        W 5988  20.158  20.647  13.967
36174W        W 5989  30.440  30.004  13.381
36175W        W 5990  38.904   5.254  13.980
36176W        W 5991   1.938  36.988  11.954
36177W        W 5992   6.419  22.690  13.946
36178W        W 5993   3.776  31.931   1.445
36179W        W 5994  25.698  14.711   2.404
36180W        W 5995  21.517   1.924   2.389
36181W        W 5996  17.285  17.765   0.790
36182W        W 5997  10.351  41.377   4.711
36183W        W 5998   1.927  38.368   0.962
36184W        W 5999   4.343  18.720  13.501
36185W        W 6000  44.344   8.347  14.027
36186W        W 6001   1.272   0.411   0.381
36187W        W 6002  38.453  21.128   4.803
36188W        W 6003  19.685  29.022   0.835
36189W        W 6004  24.585  42.809   2.228
36190W        W 6005  41.412  13.202   4.283
36191W        W 6006  41.043  18.064   2.788
36192W        W 6007  22.110  27.174  11.953
36193W        W 6008   8.727  33.542   4.250
36194W        W 6009  33.026   8.718   1.434
36195W        W 6010  12.167  23.201  10.463
36196W        W 6011  18.117   3.242  12.353
36197W        W 6012  44.394  42.851   4.823
36198W        W 6013  11.183  33.400   3.820
36199W        W 6014  18.085  24.626   2.705
36200W        W 6015  43.895   9.247  11.546
36201W        W 6016  13.716  25.474   3.292
36202W        W 6017  21.512  12.278  10.458
36203W        W 6018  44.770  31.111  12.976
36204W        W 6019  33.123   9.670   0.882
36205W        W 6020  31.621  43.272  14.277
36206W        W 6021  22.547  15.165   2.348
36207W        W 6022  36.407  25.033   4.215
36208W        W 6023  39.052  23.198   1.371
36209W        W 6024  27.158  10.351  10.965
36210W        W 6025  41.346  33.542   2.884
36211W        W 6026  26.584  25.562   2.859
36212W        W 6027  22.590  31.505   0.849
36213W        W 6028  14.680  18.727   9.924
36214W        W 6029  13.121   7.787   4.162
36215W        W 6030  13.325   4.934  14.771
36216W        W 6031   8.341  28.437   0.300
36217W        W 6032  43.965   2.291   3.275
36218W        W 6033  42.330  43.013   2.413
36219W        W 6034  39.535  35.422  13.800
36220W        W 6035   8.201  39.992  11.095
36221W        W 6036  27.010  12.854  12.362
36222W        W 6037  43.850  23.666   1.751
36223W        W 6038  11.219  32.082   1.230
36224W        W 6039  39.832  11.685   3.265
36225W        W 6040  29.463  30.655  12.034
36226W        W 6041  38.438  41.401  10.578
36227W        W 6042  27.050  30.563   3.651
36228W        W 6043  36.571  39.504  14.838
36229W        W 6044  39.856   2.813  10.993
36230W        W 6045  39.995   2.746   4.648
36231W        W 6046  25.529   4.715  10.541
36232W        W 6047  27.461  19.103   3.200
36233W        W 6048  14.780   9.269  13.324
36234W        W 6049   1.379  38.384  14.454
36235W        W 6050  29.160   5.312  10.465
36236W        W 6051   6.847  37.426  10.562
36237W        W 6052  28.960  12.155   2.186
36238W        W 6053  22.564  12.639  12.570
36239W        W 6054  17.591  29.017  14.935
36240W        W 6055  34.382  19.123   4.676
36241W        W 6056  16.112  15.299   4.736
36242W        W 6057  18.159  15.767   4.598
36243W        W 6058   9.756  31.072   1.764
36244W        W 6059  40.484  14.105  11.981
36245W        W 6060  33.975   3.439  14.278
36246W        W 6061  36.364  37.346   1.253
36247W        W 6062  26.628  23.122  11.538
36248W        W 6063  21.048   1.284  14.918
36249W        W 6064  12.247  35.964  13.976
36250W        W 6065  43.341  13.720  12.947
36251W        W 6066  44.849   6.263   1.802
36252W        W 6067   6.738  15.104  11.866
36253W        W 6068  13.279  27.003   4.676
36254W        W 6069  20.078  36.347   2.760
36255W        W 6070  11.353  34.105   1.913
36256W        W 6071  43.501   8.264  11.572
36257W        W 6072  17.568  19.656   1.238
36258W        W 6073   7.243  13.599   0.822
36259W        W 6074   8.745   3.379   4.683
36260W        W 6075  13.648  34.985  12.850
36261W        W 6076  42.333  38.923  13.403
36262W        W 6077  20.131  36.983   4.194
36263W        W 6078  10.260  42.927   1.225
36264W        W 6079  30.934  44.831   2.891
36265W        W 6080   8.672  22.697   1.725
36266W        W 6081  36.053  10.354  11.889
36267W        W 6082  27.588  20.232  13.036
36268W        W 6083  29.017  25.975   4.263
36269W        W 6084  24.150  36.593  10.888
36270W        W 6085  33.925  12.728   1.333
36271W        W 6086  24.565  17.692  12.950
36272W        W 6087   3.365  37.347   3.797
36273W        W 6088  23.032  29.099   1.867
36274W        W 6089  31.914   2.927  11.470
36275W        W 6090  22.110  17.258  10.581
36276W        W 6091   0.332  33.052  12.869
36277W        W 6092  39.550  32.625  13.451
36278W        W 6093   9.226  21.562   2.280
36279W        W 6094  40.955  18.602  11.412
36280W        W 6095  22.198  32.429  10.934
36281W        W 6096  42.399  40.938  14.947
36282W        W 6097  19.760  27.185   0.449
36283W        W 6098   3.268  44.922  11.889
36284W        W 6099   2.806  22.502  10.969
36285W        W 6100  11.347   3.316   0.955
36286W        W 6101  40.961  38.070   1.851
36287W        W 6102  33.536  17.683  14.504
36288W        W 6103   2.452  22.685   2.213
36289W        W 6104  12.166   4.937  12.044
36290W        W 6105  14.830  16.611  14.018
36291W        W 6106  26.677  20.586   2.317
36292W        W 6107   9.349  38.846  12.934
36293W        W 6108   9.838   2.277   2.258
36294W        W 6109  33.570  29.545  10.612
36295W        W 6110  43.976  11.154   0.333
36296W        W 6111   6.782  17.168   0.887
36297W        W 6112  23.574  32.088   2.266
36298W        W 6113  35.504   7.308   1.761
36299W        W 6114   5.401  14.150   4.176
36300W        W 6115  22.034  40.433   2.760
36301W        W 6116  44.989  27.075   2.899
36302W        W 6117  22.743  27.097  12.577
36303W        W 6118   2.340   6.853   2.339
36304W        W 6119  22.708  20.648   0.783
36305W        W 6120   8.322   1.952   3.649
36306W        W 6121  39.355   5.227   9.507
36307W        W 6122   2.826  33.883  14.970
36308W        W 6123  16.661  43.809   4.269
36309W        W 6124  44.287  37.575  10.950
36310W        W 6125  36.485   6.247  13.793
36311W        W 6126  35.107  40.992  11.001
36312W        W 6127  16.112  42.325   0.454
36313W        W 6128   4.832   1.377   2.848
36314W        W 6129   4.818  40.403   4.237
36315W        W 6130  22.578   2.862   4.140
36316W        W 6131   2.922   4.407  12.936
36317W        W 6132  27.194  19.055   2.822
36318W        W 6133  21.098  17.077   4.798
36319W        W 6134  27.628  37.401  11.479
36320W        W 6135  19.684  15.101   0.849
36321W        W 6136  40.970   0.986  13.356
36322W        W 6137  40.903   4.234  12.068
36323W        W 6138  39.011   1.872   1.826
36324W        W 6139   4.738  43.944   1.931
36325W        W 6140  28.558  11.253   4.691
36326W        W 6141  18.241  32.909   2.717
36327W        W 6142   7.897   1.955   4.625
36328W        W 6143  21.084   5.205   1.747
36329W        W 6144   3.316  27.585  10.124
36330W        W 6145  29.933  37.526   2.396
36331W        W 6146  44.855  31.080   4.649
36332W        W 6147  17.691  44.974  11.871
36333W        W 6148  26.692  36.984   0.729
36334W        W 6149  33.935  23.012  11.451
36335W        W 6150  37.579  32.453   5.123
36336W        W 6151  39.901  24.128   3.637
36337W        W 6152  44.414   8.349  11.980
36338W        W 6153  40.951  22.122  14.819
36339W        W 6154  23.679   9.213   4.633
36340W        W 6155   0.360   4.900  14.503
36341W        W 6156   9.822   6.425  14.330
36342W        W 6157  17.303  10.683  12.992
36343W        W 6158  35.431  27.619  14.365
36344W        W 6159  15.589   4.842  12.367
36345W        W 6160  27.139   4.916  12.452
36346W        W 6161  33.566   3.410   0.260
36347W        W 6162  37.392  20.645   3.354
36348W        W 6163  39.358  32.093  10.423
36349W        W 6164  29.492   7.274  13.422
36350W        W 6165  18.684  23.683  14.354
36351W        W 6166  14.285  28.480  13.843
36352W        W 6167  39.050   5.415  12.546
36353W        W 6168  11.349  34.114  11.900
36354W        W 6169  35.575  39.557   3.682
36355W        W 6170  11.314   2.246   4.193
36356W        W 6171  30.032  24.068   1.221
36357W        W 6172  17.629  17.069  12.359
36358W        W 6173  14.188   1.810  13.461
36359W        W 6174   9.738  34.540   4.176
36360W        W 6175  25.965   6.725  10.592
36361W        W 6176  15.797   2.823  14.475
36362W        W 6177  28.994  23.502   2.844
36363W        W 6178  41.938  40.034  14.797
36364W        W 6179  24.654  18.651  13.064
36365W        W 6180  22.520  10.734  14.321
36366W        W 6181  21.541   9.874   1.723
36367W        W 6182  44.299  11.346   4.177
36368W        W 6183  13.840   9.857  12.511
36369W        W 6184  36.053  27.117   2.220
36370W        W 6185  39.056   7.311   3.659
36371W        W 6186  41.302   7.201  14.470
36372W        W 6187  36.354  22.523   1.825
36373W        W 6188  43.009  33.572   1.423
36374W        W 6189  27.649  36.010   0.938
36375W        W 6190  29.615  23.618   1.812
36376W        W 6191  21.602  25.159  13.793
36377W        W 6192  25.989  14.805  12.959
36378W        W 6193  35.981  18.146  14.297
36379W        W 6194  34.595  23.146   3.275
36380W        W 6195  10.676  33.601   9.949
36381W        W 6196   8.691  15.670   0.313
36382W        W 6197   6.738   5.336  14.510
36383W        W 6198  19.060  26.981   0.843
36384W        W 6199  18.589  41.517  10.974
36385W        W 6200  42.478   6.842   1.907
36386W        W 6201  17.583  38.496  13.871
36387W        W 6202   7.361  14.288   3.163
36388W        W 6203   4.750  18.667  14.804
36389W        W 6204  37.365   3.793  12.484
36390W        W 6205  22.177   4.283  14.818
36391W        W 6206   0.420  16.594   3.864
36392W        W 6207   6.406  20.551  14.289
36393W        W 6208  14.116   6.190  12.055
36394W        W 6209   2.772   7.689  11.126
36395W        W 6210  44.388  23.504   0.286
36396W        W 6211  15.154  38.422  13.906
36397W        W 6212  16.214  25.977  13.335
36398W        W 6213  42.885  43.356  14.491
36399W        W 6214   7.897  44.289   1.281
36400W        W 6215  31.089  20.559  14.417
36401W        W 6216  16.099  24.011   4.715
36402W        W 6217  30.115  14.179  13.859
36403W        W 6218  41.868  40.871   1.906
36404W        W 6219   0.275  25.594  13.432
36405W        W 6220  12.347  40.865   2.870
36406W        W 6221   4.869  16.110   1.398
36407W        W 6222  11.660  38.885  12.012
36408W        W 6223   3.424  13.634  13.314
36409W        W 6224  33.568   1.891   3.804
36410W        W 6225  30.574  26.001  10.628
36411W        W 6226  40.417   0.903  13.362
36412W        W 6227  29.928   1.866  11.952
36413W        W 6228  21.573   2.326  10.947
36414W        W 6229  41.358  29.466  11.430
36415W        W 6230   7.730   5.899   2.759
36416W        W 6231   6.844  21.660   3.733
36417W        W 6232   9.170  37.552   1.758
36418W        W 6233   1.937  34.461   2.243
36419W        W 6234  20.186  18.751   4.158
36420W        W 6235  44.301  24.668  11.518
36421W        W 6236  41.815  26.659  13.821
36422W        W 6237  43.389  21.247   2.762
36423W        W 6238  33.878  43.864  10.453
36424W        W 6239   6.845  30.422  12.993
36425W        W 6240  28.998  22.220   0.821
36426W        W 6241  44.352  27.446  12.033
36427W        W 6242  18.639  20.061  14.009
36428W        W 6243   5.765  43.892   1.451
36429W        W 6244  17.772  39.012   0.768
36430W        W 6245   9.805  35.935  13.997
36431W        W 6246  37.424  37.085   0.818
36432W        W 6247  19.630  16.613   0.803
36433W        W 6248  34.497  24.548  12.939
36434W        W 6249  14.201  39.947   2.871
36435W        W 6250  15.184  41.894   1.910
36436W        W 6251  12.739  43.977   4.328
36437W        W 6252  15.777  17.134   0.961
36438W        W 6253   7.303  37.496   0.818
36439W        W 6254  39.387  32.610  11.936
36440W        W 6255  37.365  12.643   3.717
36441W        W 6256  25.636   3.323  14.422
36442W        W 6257   7.877  11.241   0.914
36443W        W 6258  15.106  19.720   1.314
36444W        W 6259  37.875  33.100   5.715
36445W        W 6260  34.051  23.991   1.299
36446W        W 6261  19.205   0.903   0.248
36447W        W 6262   2.469  42.338   3.825
36448W        W 6263   9.722  24.565  10.578
36449W        W 6264  14.225  42.984  13.950
36450W        W 6265   4.297  19.727   4.267
36451W        W 6266   1.248   9.167   1.862
36452W        W 6267  13.306  40.339   4.259
36453W        W 6268  15.298  23.179  14.981
36454W        W 6269   0.895  14.748  12.547
36455W        W 6270  40.431  37.989  14.465
36456W        W 6271  20.551  11.308  11.603
36457W        W 6272  30.654  15.752   1.394
36458W        W 6273  23.155   6.186  13.873
36459W        W 6274  41.036  37.362   0.468
36460W        W 6275   2.431  10.656   3.311
36461W        W 6276   2.458  27.087  11.912
36462W        W 6277   7.176   4.214   4.171
36463W        W 6278  21.655  36.012   2.322
36464W        W 6279  14.288  23.117   2.276
36465W        W 6280  17.196  16.233   2.182
36466W        W 6281  14.623  24.989   1.210
36467W        W 6282   7.194  24.975  11.387
36468W        W 6283  15.757  14.728   1.792
36469W        W 6284   8.343  32.078   0.321
36470W        W 6285  14.234   4.447  10.600
36471W        W 6286  32.043  12.740  10.109
36472W        W 6287  25.564  35.526  11.409
36473W        W 6288  30.986  12.742  11.879
36474W        W 6289  12.295   2.845   3.707
36475W        W 6290   7.764  21.252  10.555
36476W        W 6291  31.003  40.939  11.484
36477W        W 6292   6.253   3.343   3.247
36478W        W 6293  35.365  33.436  13.916
36479W        W 6294  33.919  22.995  14.966
36480W        W 6295  25.516  34.503  14.421
36481W        W 6296  13.671  30.130   3.327
36482W        W 6297   6.794  12.189  14.888
36483W        W 6298   2.941   6.718  10.898
36484W        W 6299  33.100  13.152   3.295
36485W        W 6300  27.169  11.280  14.387
36486W        W 6301  39.044  17.661  14.369
36487W        W 6302  37.034  32.922  10.993
36488W        W 6303  12.326  26.181   2.830
36489W        W 6304  25.474  13.845  12.339
36490W        W 6305  34.561  11.707  13.990
36491W        W 6306  42.526  37.375   1.698
36492W        W 6307   7.870  20.220  12.507
36493W        W 6308  15.697  27.022   2.715
36494W        W 6309  18.088  25.498  12.080
36495W        W 6310   1.761  25.058   1.267
36496W        W 6311   8.885  41.906  14.400
36497W        W 6312  24.101  28.953   0.271
36498W        W 6313  11.150  14.173  11.873
36499W        W 6314  29.591  17.121   4.700
36500W        W 6315  31.938  11.192  12.019
36501W        W 6316  23.658  14.785  10.434
36502W        W 6317  37.982  36.386   2.376
36503W        W 6318  40.549  16.729  13.967
36504W        W 6319  20.628  34.397   0.308
36505W        W 6320  36.967  41.003  11.103
36506W        W 6321  36.972  35.998  12.444
36507W        W 6322  13.196  19.213   2.383
36508W        W 6323  39.338   6.210   3.230
36509W        W 6324   1.440   9.818   3.386
36510W        W 6325  32.417  41.804   4.251
36511W        W 6326  39.557  24.221   1.741
36512W        W 6327   7.181  12.627   4.754
36513W        W 6328  22.136  36.025   2.324
36514W        W 6329   2.233  32.128   0.363
36515W        W 6330  35.984  37.034   0.746
36516W        W 6331  22.180  29.149   0.735
36517W        W 6332  17.674  14.219   3.658
36518W        W 6333   7.680  12.659  12.909
36519W        W 6334  23.003  41.992   2.690
36520W        W 6335  20.608  28.984   3.180
36521W        W 6336   3.900   0.744  12.900
36522W        W 6337  43.016  14.748   4.697
36523W        W 6338   1.776  26.051   2.229
36524W        W 6339  20.688  41.834   3.864
36525W        W 6340  40.522   8.674  12.467
36526W        W 6341  19.187  32.935   2.729
36527W        W 6342  13.340  16.186   2.184
36528W        W 6343  30.024   9.658  13.388
36529W        W 6344  27.053  13.782  12.922
36530W        W 6345  24.174  39.050  14.965
36531W        W 6346  12.139   8.260  12.997
36532W        W 6347  37.057  18.693   3.360
36533W        W 6348  23.208  38.491  14.984
36534W        W 6349   5.718  29.624   0.251
36535W        W 6350  30.456  21.681   0.370
36536W        W 6351   2.252   9.279   3.833
36537W        W 6352  33.948  43.806  14.768
36538W        W 6353  40.837  11.747   4.242
36539W        W 6354  22.113   3.238   1.226
36540W        W 6355  44.797   8.250  11.523
36541W        W 6356  23.065  27.982   1.420
36542W        W 6357  42.798  23.148   2.730
36543W        W 6358   6.353  11.659  13.854
36544W        W 6359  19.189  43.413   2.274
36545W        W 6360  28.600  36.882  11.572
36546W        W 6361  20.746  28.647  14.882
36547W        W 6362  37.000  30.447  10.565
36548W        W 6363   4.383  39.873  13.041
36549W        W 6364  10.753  14.605   2.359
36550W        W 6365  33.957   0.419   4.766
36551W        W 6366   0.356   5.254  14.339
36552W        W 6367  30.639   1.439   0.351
36553W        W 6368  19.613  36.053   3.335
36554W        W 6369  35.890  41.312  12.983
36555W        W 6370  37.959   9.840   3.653
36556W        W 6371  33.054  24.098   0.433
36557W        W 6372  41.921  39.393   1.800
36558W        W 6373  30.151  19.630  10.632
36559W        W 6374  25.986  25.709  10.976
36560W        W 6375   9.822  15.806  11.888
36561W        W 6376  31.411  34.942   3.747
36562W        W 6377   2.458  15.702  11.604
36563W        W 6378  23.173  10.639   4.163
36564W        W 6379  18.235  22.014   2.755
36565W        W 6380   6.873  35.529   0.429
36566W        W 6381  36.898  23.702  12.033
36567W        W 6382  42.418  23.577   0.419
36568W        W 6383  28.138  40.913  13.989
36569W        W 6384  19.048  22.525  12.930
36570W        W 6385   6.376   4.336   3.373
36571W        W 6386   9.691  29.665   0.483
36572W        W 6387  36.096   4.212   2.667
36573W        W 6388   6.901  10.663   1.255
36574W        W 6389  40.458   5.818   0.456
36575W        W 6390  37.917  22.712   2.308
36576W        W 6391  19.241  29.115  14.866
36577W        W 6392  26.652  13.304  12.878
36578W        W 6393  23.106  36.013   4.652
36579W        W 6394   3.402  38.017  13.823
36580W        W 6395  14.630  41.030  13.420
36581W        W 6396   9.741  39.465   3.145
36582W        W 6397  37.879  17.258  12.864
36583W        W 6398  39.378   7.226  12.828
36584W        W 6399   6.851   8.805   0.461
36585W        W 6400  44.331  20.102   3.767
36586W        W 6401  40.801  36.048   1.856
36587W        W 6402  13.198  25.556  10.579
36588W        W 6403  20.141  32.526  12.357
36589W        W 6404  31.955   4.760   4.802
36590W        W 6405  13.714   6.411  13.308
36591W        W 6406  17.070  42.458  11.118
36592W        W 6407  40.442   6.801   9.938
36593W        W 6408  40.970  38.990  12.046
36594W        W 6409  19.610  19.084   0.742
36595W        W 6410  37.874  41.341  10.525
36596W        W 6411  23.199  33.084  12.909
36597W        W 6412  44.850   7.806  11.473
36598W        W 6413  42.495  19.183   2.724
36599W        W 6414  27.512  29.110  13.930
36600W        W 6415  31.036  21.069  13.003
36601W        W 6416  44.385   5.351   0.453
36602W        W 6417  29.969  17.766  12.869
36603W        W 6418  35.871  10.702  13.323
36604W        W 6419   0.324  28.055  10.917
36605W        W 6420  26.067  37.385   3.204
36606W        W 6421   9.718  13.604   0.252
36607W        W 6422   0.883  28.186  10.600
36608W        W 6423  26.007   3.285   0.825
36609W        W 6424  11.179   7.880  13.920
36610W        W 6425  35.906   5.232   1.720
36611W        W 6426  38.553  27.516   0.831
36612W        W 6427  12.833  16.648   3.833
36613W        W 6428  13.308  29.161   4.826
36614W        W 6429  35.904   3.756   1.343
36615W        W 6430  21.721  22.540  13.533
36616W        W 6431   2.402  29.462  12.451
36617W        W 6432  34.950  22.077   1.891
36618W        W 6433  30.996  33.602  10.571
36619W        W 6434  17.625   5.428   3.325
36620W        W 6435  24.148  37.468  12.859
36621W        W 6436  25.554  32.427   2.828
36622W        W 6437   0.829  28.064  14.310
36623W        W 6438  23.064   3.416  12.973
36624W        W 6439  24.163   3.324   0.469
36625W        W 6440  15.795  12.791   4.303
36626W        W 6441   0.922  21.613   3.150
36627W        W 6442  42.826   3.341  13.803
36628W        W 6443  11.369   3.936  12.023
36629W        W 6444  44.768  12.814   2.834
36630W        W 6445  13.147  14.308  10.905
36631W        W 6446   8.869  39.036   4.243
36632W        W 6447   1.415   6.399  14.805
36633W        W 6448  26.595  26.047   1.836
36634W        W 6449  25.066  41.852  11.986
36635W        W 6450  10.765  12.186   3.795
36636W        W 6451  15.784  15.161  14.385
36637W        W 6452  39.516  23.656   1.311
36638W        W 6453  28.024  13.753  13.408
36639W        W 6454  26.031   7.703  11.503
36640W        W 6455   2.730  43.512   1.772
36641W        W 6456  40.996  20.034   0.295
36642W        W 6457  32.007   6.369   5.109
36643W        W 6458  19.656  44.300  11.466
36644W        W 6459  31.975   2.270  11.962
36645W        W 6460   4.445   4.232   3.210
36646W        W 6461  44.392  43.282   1.856
36647W        W 6462  39.542  12.131   1.447
36648W        W 6463  16.750  34.054  14.890
36649W        W 6464  40.028  11.833   1.922
36650W        W 6465  17.225  36.869  14.950
36651W        W 6466   5.934  15.108  14.467
36652W        W 6467  31.431  20.568  11.585
36653W        W 6468  27.041  19.115   3.666
36654W        W 6469  36.482  20.526  14.336
36655W        W 6470  41.857  20.117  13.826
36656W        W 6471  13.313   1.867   0.471
36657W        W 6472  24.067  29.946   1.726
36658W        W 6473  33.471   7.867  13.820
36659W        W 6474  32.398   3.281   0.892
36660W        W 6475   4.214  25.630  12.916
36661W        W 6476  15.763  40.527   2.893
36662W        W 6477  15.676  10.282  10.911
36663W        W 6478  24.073   5.326   0.816
36664W        W 6479  34.482   4.898   9.934
36665W        W 6480  21.664  11.829  14.410
36666W        W 6481  11.264  30.160  10.407
36667W        W 6482  32.028  15.285  11.948
36668W        W 6483  26.554   1.408  13.879
36669W        W 6484  38.008  35.509   2.756
36670W        W 6485  31.501  10.295   3.853
36671W        W 6486  37.833  17.593   3.826
36672W        W 6487  35.983  42.456  11.392
36673W        W 6488  33.611  34.390   0.836
36674W        W 6489  43.301  12.773  13.446
36675W        W 6490  16.778  19.265   4.298
36676W        W 6491  19.156   9.312   2.760
36677W        W 6492  41.363  34.970  11.932
36678W        W 6493  34.920   0.935   0.477
36679W        W 6494  13.302  42.981   2.799
36680W        W 6495  29.648  28.009   0.473
36681W        W 6496  18.279   4.377   3.186
36682W        W 6497  32.893  30.444   0.814
36683W        W 6498  33.944  39.957   3.152
36684W        W 6499  36.555  33.511  10.000
36685W        W 6500  36.932   0.955   4.303
36686W        W 6501   8.830  35.475  10.892
36687W        W 6502  40.468  16.313  11.423
36688W        W 6503   8.847  23.046   2.199
36689W        W 6504  39.874   9.649  13.431
36690W        W 6505  31.027   3.909  11.589
36691W        W 6506  41.360  16.175  13.799
36692W        W 6507  36.054  43.960  11.400
36693W        W 6508   8.734  24.720  12.481
36694W        W 6509   2.836  39.476  13.382
36695W        W 6510  26.972   4.368   0.749
36696W        W 6511  16.761  22.118   4.625
36697W        W 6512  16.778  42.008   4.749
36698W        W 6513  11.293  25.089   0.795
36699W        W 6514  16.155  19.714   2.261
36700W        W 6515  27.098   2.419   3.351
36701W        W 6516  35.593  39.983  14.400
36702W        W 6517   9.212  10.878   4.789
36703W        W 6518  24.193  36.432   2.308
36704W        W 6519   0.960  43.313  11.023
36705W        W 6520   8.774  14.697  12.983
36706W        W 6521   9.851   0.900  13.526
36707W        W 6522  25.669  34.049  14.909
36708W        W 6523  22.026  44.387  12.500
36709W        W 6524  16.726  12.300   4.177
36710W        W 6525  18.756  14.694   4.213
36711W        W 6526  25.004  17.569  11.462
36712W        W 6527  11.830  35.932   3.305
36713W        W 6528  23.122   1.772  12.863
36714W        W 6529  36.057  22.246  11.416
36715W        W 6530  31.934  38.417  11.882
36716W        W 6531  12.163  27.505  14.425
36717W        W 6532  17.147  10.167   1.308
36718W        W 6533  42.823   7.702  14.956
36719W        W 6534   5.805  27.452   1.432
36720W        W 6535   5.256   5.397   2.689
36721W        W 6536   4.231  39.906   2.344
36722W        W 6537   7.287  13.762  11.937
36723W        W 6538  21.144  20.056  12.907
36724W        W 6539  36.996  29.994  14.907
36725W        W 6540   0.979   8.286  13.050
36726W        W 6541  24.172  14.292  14.397
36727W        W 6542  28.009  18.203   1.403
36728W        W 6543  43.326  16.681  13.025
36729W        W 6544  13.162   3.239  10.044
36730W        W 6545  15.249  36.000   1.304
36731W        W 6546   3.791  28.080   1.909
36732W        W 6547   7.708  19.741   2.230
36733W        W 6548   5.843  10.340   1.232
36734W        W 6549  34.507  31.087  11.477
36735W        W 6550  44.368  13.107  12.845
36736W        W 6551  14.638  20.111   2.857
36737W        W 6552  21.553   3.744   4.677
36738W        W 6553  44.822   5.811   2.662
36739W        W 6554  26.180  28.092  13.322
36740W        W 6555  16.136  11.635   2.819
36741W        W 6556  36.028  33.395   1.860
36742W        W 6557  19.537  32.887   0.391
36743W        W 6558  30.586  12.338  12.519
36744W        W 6559  41.473  41.321  12.080
36745W        W 6560   7.333  43.809   1.893
36746W        W 6561  29.933   6.364   1.770
36747W        W 6562   9.798  27.541  10.521
36748W        W 6563  34.093  37.087  11.995
36749W        W 6564  12.818  35.101  10.532
36750W        W 6565  44.375   0.283  13.363
36751W        W 6566  13.722  39.924  13.373
36752W        W 6567  29.552  23.999  10.055
36753W        W 6568  18.226  44.818   0.395
36754W        W 6569  19.726  24.183   0.819
36755W        W 6570  23.654  39.872   2.778
36756W        W 6571  21.211  28.561  14.821
36757W        W 6572   6.704  21.611  13.517
36758W        W 6573  28.171  40.470   2.664
36759W        W 6574  16.155  42.848  11.064
36760W        W 6575  19.689  25.067  13.362
36761W        W 6576   9.770   4.706   2.901
36762W        W 6577   5.733  10.372   4.639
36763W        W 6578  36.965  29.145   0.409
36764W        W 6579   8.882  44.922   2.270
36765W        W 6580  30.130  13.765  14.933
36766W        W 6581  28.584  20.198  11.472
36767W        W 6582  31.499  32.979   0.779
36768W        W 6583   4.787  13.194  10.492
36769W        W 6584  17.729  28.482  11.570
36770W        W 6585  33.110  26.645  13.480
36771W        W 6586  37.391  33.109   4.191
36772W        W 6587   3.797   9.331   1.738
36773W        W 6588  39.371  13.764  14.776
36774W        W 6589  44.354   6.422  12.384
36775W        W 6590  17.605  30.100  11.467
36776W        W 6591  42.820   2.390   3.295
36777W        W 6592  15.777  25.627  11.098
36778W        W 6593  28.061  27.192  10.897
36779W        W 6594  23.708  23.600   2.378
36780W        W 6595  30.922   4.882  12.521
36781W        W 6596   6.757  44.846   3.672
36782W        W 6597  33.053  30.048   2.894
36783W        W 6598  14.636  32.013   3.184
36784W        W 6599  41.421  31.435  14.793
36785W        W 6600  10.353  22.668  14.918
36786W        W 6601  29.497  38.538  11.555
36787W        W 6602  29.626  19.267   4.205
36788W        W 6603  15.600  15.269   4.833
36789W        W 6604  26.608  18.135  12.027
36790W        W 6605  35.045   0.435   1.934
36791W        W 6606  20.060   6.918   1.745
36792W        W 6607  36.874   5.752   2.737
36793W        W 6608  26.639   7.296  11.402
36794W        W 6609  40.932   7.417   4.127
36795W        W 6610   0.868  40.535  10.975
36796W        W 6611   3.926  32.885   0.378
36797W        W 6612  28.070  39.519  12.349
36798W        W 6613  25.131  34.948  14.423
36799W        W 6614  30.155  20.687   0.391
36800W        W 6615  26.969   2.310  14.279
36801W        W 6616  23.658   6.321   2.190
36802W        W 6617  29.021  10.708   2.230
36803W        W 6618  34.059  35.990  11.515
36804W        W 6619   7.298  18.553   2.900
36805W        W 6620  13.126  28.616  13.345
36806W        W 6621   0.839  16.726   4.824
36807W        W 6622  36.485   1.347  11.424
36808W        W 6623   8.695  24.976   2.776
36809W        W 6624   6.884  37.014  14.883
36810W        W 6625  44.270  19.776  10.030
36811W        W 6626  24.072  10.750   3.323
36812W        W 6627  26.650   8.796  13.371
36813W        W 6628  22.172   3.721   2.710
36814W        W 6629   6.707  24.480  12.520
36815W        W 6630   7.287  28.079   2.206
36816W        W 6631  35.409   5.194   1.739
36817W        W 6632  17.193  25.982   2.691
36818W        W 6633  26.988  12.167  13.828
36819W        W 6634   4.323  40.446   4.172
36820W        W 6635  31.043  26.668   2.247
36821W        W 6636  27.080  25.637   3.170
36822W        W 6637  11.713  13.284  14.002
36823W        W 6638  36.428  41.947   0.909
36824W        W 6639   3.906  24.077   2.818
36825W        W 6640   4.275  10.311   4.137
36826W        W 6641   4.906   3.441   0.434
36827W        W 6642  35.502   7.896   2.714
36828W        W 6643  37.837  43.999  11.522
36829W        W 6644  41.029  10.328   3.843
36830W        W 6645   7.753  23.529  11.983
36831W        W 6646  38.047  40.318  13.320
36832W        W 6647  20.122  21.613  10.533
36833W        W 6648   0.445  28.590  10.613
36834W        W 6649  37.001  35.019   3.208
36835W        W 6650   9.740  16.127   0.431
36836W        W 6651   1.297  31.576  14.007
36837W        W 6652   0.925  18.203   4.672
36838W        W 6653  16.308  35.907  11.537
36839W        W 6654  16.674  37.463  11.511
36840W        W 6655   7.865  21.574   1.707
36841W        W 6656  23.660  14.709  13.352
36842W        W 6657  22.621  32.465  10.552
36843W        W 6658  33.625   1.840  11.403
36844W        W 6659  34.570  44.830   4.227
36845W        W 6660   9.380   1.376  13.796
36846W        W 6661   2.333  14.232  10.050
36847W        W 6662   2.954  30.147   3.637
36848W        W 6663   8.743  19.103   0.888
36849W        W 6664  41.792  21.612  12.492
36850W        W 6665   4.365  24.224  12.039
36851W        W 6666  44.905  13.695   0.951
36852W        W 6667  27.953  28.545   1.301
36853W        W 6668   9.793  31.033  13.811
36854W        W 6669   0.414  41.016   1.260
36855W        W 6670  38.042   2.951   1.809
36856W        W 6671  26.660  44.343   4.793
36857W        W 6672  21.716  39.469   2.666
36858W        W 6673  37.505  16.149   2.724
36859W        W 6674  13.794  14.803   0.404
36860W        W 6675  37.411  13.271   2.860
36861W        W 6676   7.793  28.621  12.498
36862W        W 6677  38.541  16.207   4.189
36863W        W 6678  14.626  33.014  11.071
36864W        W 6679   2.424  24.169   4.171
36865W        W 6680  35.391  18.552  10.949
36866W        W 6681  36.856  41.445   0.447
36867W        W 6682  42.860  20.151   0.321
36868W        W 6683  31.927  44.811   1.399
36869W        W 6684   5.343  37.044  13.849
36870W        W 6685  22.190   0.304   0.850
36871W        W 6686  21.628  27.028  10.541
36872W        W 6687  39.422  12.265   4.629
36873W        W 6688  20.151  44.832   3.175
36874W        W 6689   4.346  36.046  11.116
36875W        W 6690   3.742  10.857  13.308
36876W        W 6691  10.284  28.586  14.784
36877W        W 6692   0.349   3.842  14.357
36878W        W 6693  41.304  44.917   1.397
36879W        W 6694  33.012  24.006   4.162
36880W        W 6695  13.213  42.306  11.898
36881W        W 6696  10.277  34.932  11.594
36882W        W 6697  21.094   4.281   3.296
36883W        W 6698  30.932  17.186   2.320
36884W        W 6699  15.648  38.864  14.878
36885W        W 6700  27.493  21.233   0.242
36886W        W 6701  41.914  27.980  12.487
36887W        W 6702  29.093  30.462  13.025
36888W        W 6703  20.122   7.327  11.403
36889W        W 6704  19.634  37.922   0.343
36890W        W 6705  38.974  17.621   3.755
36891W        W 6706  26.583  37.484  11.976
36892W        W 6707  25.004  31.470   0.740
36893W        W 6708  23.715  36.534  13.344
36894W        W 6709   3.713  21.023   0.854
36895W        W 6710  29.942  12.288   3.261
36896W        W 6711  20.707  19.754   4.276
36897W        W 6712   9.343  18.063  13.316
36898W        W 6713  19.572  16.125   2.720
36899W        W 6714  31.643  10.317  10.577
36900W        W 6715   8.713  24.112   0.354
36901W        W 6716  32.407  22.743   4.113
36902W        W 6717  10.322  27.536  11.071
36903W        W 6718  42.521  20.175  13.870
36904W        W 6719  44.816  18.240   3.776
36905W        W 6720  28.998  44.477   0.354
36906W        W 6721  29.514   1.762   1.746
36907W        W 6722  13.146   8.657   0.843
36908W        W 6723  14.773   3.885   3.242
36909W        W 6724  18.252   8.357  13.868
36910W        W 6725  38.486  26.020   0.451
36911W        W 6726  13.833  36.983   2.410
36912W        W 6727  13.149  41.537  10.007
36913W        W 6728   2.256  23.224  14.317
36914W        W 6729  41.499  11.738  12.452
36915W        W 6730   3.805  30.446  10.635
36916W        W 6731  23.504  18.067  10.966
36917W        W 6732   5.387  20.081  13.402
36918W        W 6733  13.753  27.561   0.408
36919W        W 6734  33.570  32.948  12.063
36920W        W 6735  42.985  24.537   0.415
36921W        W 6736   6.790  41.993   0.947
36922W        W 6737   7.849  42.362  11.988
36923W        W 6738  32.941  19.648   3.312
36924W        W 6739   4.758   7.272  11.891
36925W        W 6740   3.941  43.864   2.311
36926W        W 6741  30.129  33.000   1.246
36927W        W 6742  30.444  22.554   3.196
36928W        W 6743  28.529  34.985  10.537
36929W        W 6744  39.016  29.532  12.086
36930W        W 6745  30.522  33.435   4.140
36931W        W 6746  13.822  18.184   4.273
36932W        W 6747  25.039   6.803  10.920
36933W        W 6748  34.489  37.500  13.370
36934W        W 6749  24.010  26.616   1.356
36935W        W 6750  22.527  20.687   3.823
36936W        W 6751  21.251   6.803  14.816
36937W        W 6752  11.217  41.366   1.903
36938W        W 6753  31.547  17.194  10.637
36939W        W 6754  42.386  29.086   4.278
36940W        W 6755  11.861  19.226   9.554
36941W        W 6756  26.006   9.344  14.301
36942W        W 6757  41.332  18.717  14.471
36943W        W 6758  35.878  13.846  10.450
36944W        W 6759  10.869  15.175   1.211
36945W        W 6760  32.950  33.068   1.745
36946W        W 6761  38.552   2.728   0.405
36947W        W 6762   9.673  17.790  14.967
36948W        W 6763  34.463   2.461  10.421
36949W        W 6764   8.369   1.427  11.871
36950W        W 6765  14.278  38.434  13.395
36951W        W 6766  13.191   2.850   4.242
36952W        W 6767   8.267  24.078  11.581
36953W        W 6768  34.062   3.884  14.827
36954W        W 6769  25.008  37.924   9.607
36955W        W 6770   0.837  34.495  14.853
36956W        W 6771  43.868   7.402  12.399
36957W        W 6772  36.380   2.865   3.271
36958W        W 6773   9.235  41.520   3.333
36959W        W 6774  26.615  15.084   2.387
36960W        W 6775   9.747  44.411   0.780
36961W        W 6776   7.200  25.204   2.873
36962W        W 6777  42.411  12.228   1.433
36963W        W 6778  36.389  43.444  13.852
36964W        W 6779  24.147  33.479  10.910
36965W        W 6780  32.935  11.718  11.890
36966W        W 6781   0.455  10.704  11.461
36967W        W 6782  13.125  27.464   2.255
36968W        W 6783   1.888  21.248  14.924
36969W        W 6784  24.650  21.226   0.470
36970W        W 6785  26.132  32.103   2.376
36971W        W 6786  27.123  35.600  12.348
36972W        W 6787  33.407   9.324   2.892
36973W        W 6788   3.396  16.716   1.804
36974W        W 6789   1.824  25.214  12.875
36975W        W 6790  39.811  28.085  14.503
36976W        W 6791  41.041  36.477   0.246
36977W        W 6792  31.431  39.341  11.374
36978W        W 6793  18.121   1.351   1.222
36979W        W 6794  25.175   6.226   2.186
36980W        W 6795  15.322  22.250   1.812
36981W        W 6796   7.342  11.212   3.156
36982W        W 6797   1.777   2.782   0.435
36983W        W 6798  30.010  29.521   1.760
36984W        W 6799  35.912  29.523   4.707
36985W        W 6800  13.316  30.628   2.280
36986W        W 6801  17.739  41.493   1.784
36987W        W 6802  30.934  11.697  14.859
36988W        W 6803  42.926  29.588  11.960
36989W        W 6804  40.040   2.351  12.911
36990W        W 6805  20.695  32.445  12.986
36991W        W 6806  25.199   0.845   1.821
36992W        W 6807  27.945  22.568   4.221
36993W        W 6808  43.447   2.733   3.286
36994W        W 6809  20.628  39.004   0.298
36995W        W 6810  27.953  13.637   4.150
36996W        W 6811   2.960  42.817  14.852
36997W        W 6812  13.299  36.071   2.327
36998W        W 6813  38.922   3.420  14.796
36999W        W 6814  10.337  34.107   0.347
37000W        W 6815   2.239   2.944   4.618
37001W        W 6816  27.679  28.167   0.459
37002W        W 6817  34.511  28.505  11.554
37003W        W 6818  43.852  43.413   2.864
37004W        W 6819   3.362   4.243   0.257
37005W        W 6820  38.475  11.634   2.334
37006W        W 6821   3.788  31.496  10.598
37007W        W 6822  13.643  17.223   1.368
37008W        W 6823  44.935   5.198  13.364
37009W        W 6824  21.716   3.404  14.412
37010W        W 6825  36.064  32.066   1.334
37011W        W 6826   5.255   5.404  10.546
37012W        W 6827  40.841  34.881  12.462
37013W        W 6828  38.981  36.858   3.653
37014W        W 6829  36.475  14.601   4.671
37015W        W 6830  18.068  17.779  12.083
37016W        W 6831  39.938  13.212  10.578
37017W        W 6832  35.899  43.018   0.447
37018W        W 6833  34.588  16.795   1.795
37019W        W 6834   4.867   4.241  10.405
37020W        W 6835   4.748  39.489   3.672
37021W        W 6836  26.481  21.756  11.509
37022W        W 6837  16.707  17.237   0.866
37023W        W 6838   7.744  40.997  10.887
37024W        W 6839  29.106  34.435   4.204
37025W        W 6840  26.140  38.532  12.845
37026W        W 6841  33.094  35.082  11.470
37027W        W 6842  13.165  25.136   2.393
37028W        W 6843  12.296  14.109   5.163
37029W        W 6844  38.969  22.630   4.697
37030W        W 6845  17.104   3.435   3.801
37031W        W 6846  44.439  27.679  14.303
37032W        W 6847   0.788  19.590   2.322
37033W        W 6848  28.612  33.065  11.964
37034W        W 6849  31.105   7.743   2.241
37035W        W 6850  43.791  14.137   0.293
37036W        W 6851   4.748  33.616   3.824
37037W        W 6852   9.753  33.621  11.454
37038W        W 6853   9.821  16.632   4.622
37039W        W 6854   8.841   5.252  11.863
37040W        W 6855  40.458   9.826  14.444
37041W        W 6856  43.856  20.161  11.611
37042W        W 6857  25.996  17.116  12.907
37043W        W 6858  25.555   6.260   2.890
37044W        W 6859  22.551  19.253   2.739
37045W        W 6860   2.362   5.875  12.410
37046W        W 6861  42.306   6.849   2.192
37047W        W 6862  17.766   2.965  12.999
37048W        W 6863  27.521  12.764  12.429
37049W        W 6864   3.846  13.283  13.018
37050W        W 6865  16.186  32.636   1.818
37051W        W 6866  18.755  34.432   3.764
37052W        W 6867  43.389  36.020   2.352
37053W        W 6868   8.237  35.003   0.483
37054W        W 6869   5.804  20.074   1.279
37055W        W 6870   7.372  30.160   0.727
37056W        W 6871  11.752  44.981  11.589
37057W        W 6872  14.282  15.796  10.968
37058W        W 6873   5.931  23.543   4.223
37059W        W 6874   1.907  23.099   4.255
37060W        W 6875  26.984  39.514   1.445
37061W        W 6876  26.456  24.112   3.315
37062W        W 6877  23.143   7.307  12.086
37063W        W 6878  18.279  13.627   1.241
37064W        W 6879  32.564  26.153  12.824
37065W        W 6880  21.618   6.417   4.304
37066W        W 6881  25.215  10.709   0.269
37067W        W 6882  30.590  28.089   2.670
37068W        W 6883  10.744  39.403  14.281
37069W        W 6884   9.167  13.710   2.232
37070W        W 6885  23.028  34.522   1.329
37071W        W 6886  21.724  22.523  11.086
37072W        W 6887  41.976  39.389  11.885
37073W        W 6888  25.490  27.571   2.203
37074W        W 6889   8.685  31.432  14.473
37075W        W 6890   0.914  17.203  10.472
37076W        W 6891  35.854  10.159   3.661
37077W        W 6892   1.952  12.666   0.841
37078W        W 6893  13.159  19.099  14.317
37079W        W 6894  36.014  37.368  14.900
37080W        W 6895  33.447   6.748   0.361
37081W        W 6896  44.836  16.267  11.011
37082W        W 6897   5.751  39.060  11.096
37083W        W 6898   1.400   6.803  14.901
37084W        W 6899  42.470  16.752  14.880
37085W        W 6900  17.639  40.428   1.816
37086W        W 6901  10.159  19.678  12.548
37087W        W 6902  27.119  43.929  14.913
37088W        W 6903   7.809  36.953   4.244
37089W        W 6904  31.628  38.860  10.966
37090W        W 6905  25.472  37.058  13.021
37091W        W 6906  17.627  34.437  14.365
37092W        W 6907  36.951  25.015  13.871
37093W        W 6908  34.120  32.116  12.975
37094W        W 6909  10.302   9.869   1.885
37095W        W 6910   4.297  40.499  11.045
37096W        W 6911   1.904  34.512  11.125
37097W        W 6912  26.519  36.868   3.192
37098W        W 6913   0.411  42.959   0.934
37099W        W 6914  27.050  19.177   0.827
37100W        W 6915  30.492  43.325   3.793
37101W        W 6916  37.058  26.982   4.115
37102W        W 6917  13.692  10.879  11.936
37103W        W 6918  36.446  19.630   3.664
37104W        W 6919  32.999   4.220  12.834
37105W        W 6920  26.632  30.466   4.671
37106W        W 6921   9.828  31.917  13.390
37107W        W 6922  35.097  38.073   2.271
37108W        W 6923   9.882   7.670   1.318
37109W        W 6924  18.259  11.834   4.798
37110W        W 6925  10.726  26.119  11.534
37111W        W 6926   3.877  28.075   4.748
37112W        W 6927  10.347  34.005   1.264
37113W        W 6928  23.064   4.365  12.471
37114W        W 6929   8.226   2.872  13.855
37115W        W 6930   3.225  15.256   3.844
37116W        W 6931  13.797  11.219  11.014
37117W        W 6932  24.621  40.513  10.509
37118W        W 6933  19.698  26.652  14.449
37119W        W 6934  22.515  39.470   0.271
37120W        W 6935   4.858  23.701  13.413
37121W        W 6936  39.811  19.157  12.542
37122W        W 6937  19.051   7.376  12.489
37123W        W 6938   6.745  21.197  10.918
37124W        W 6939  35.993  32.493   2.229
37125W        W 6940   4.826   7.735  10.945
37126W        W 6941  23.717  29.052   1.294
37127W        W 6942  17.207  17.636   1.422
37128W        W 6943  29.591  35.991   5.149
37129W        W 6944  30.595  40.946  10.608
37130W        W 6945  37.882   8.178   1.398
37131W        W 6946  24.078  31.986   5.101
37132W        W 6947  36.882  23.578  11.591
37133W        W 6948  32.481   1.326   1.745
37134W        W 6949  35.377   8.812  13.920
37135W        W 6950  21.218  25.044  11.030
37136W        W 6951  21.612  40.415  12.400
37137W        W 6952  27.084  37.397  11.565
37138W        W 6953  39.955  22.741  13.906
37139W        W 6954  12.819   4.277  13.348
37140W        W 6955  44.874  40.311   1.934
37141W        W 6956  26.086  40.814  13.836
37142W        W 6957  19.726  13.196   4.788
37143W        W 6958   1.267  37.518  10.406
37144W        W 6959   9.387  20.075   2.766
37145W        W 6960  37.946  28.041   3.364
37146W        W 6961  12.707   1.861   0.450
37147W        W 6962  16.246  29.627   4.331
37148W        W 6963   4.225  27.192   4.325
37149W        W 6964   6.777   2.449   1.374
37150W        W 6965   6.690  37.894  12.406
37151W        W 6966  27.008  35.425  12.005
37152W        W 6967  39.906  37.908   4.781
37153W        W 6968  39.508  39.514  11.591
37154W        W 6969  20.691  10.331  11.539
37155W        W 6970  25.491  27.956   0.873
37156W        W 6971  13.254  20.089   2.225
37157W        W 6972  25.085  44.947  11.928
37158W        W 6973  34.990  28.091   1.885
37159W        W 6974  20.213  30.560  13.042
37160W        W 6975   9.156  41.015  12.374
37161W        W 6976  41.788  40.050  14.429
37162W        W 6977  33.098  23.235  13.541
37163W        W 6978  31.570  19.201   0.262
37164W        W 6979   2.312   5.207   3.737
37165W        W 6980  27.170   2.444  12.940
37166W        W 6981   9.200  37.891   4.681
37167W        W 6982  35.427  13.310   0.798
37168W        W 6983  18.546  36.851  14.878
37169W        W 6984  28.519  43.419   3.647
37170W        W 6985  35.449  22.238  11.988
37171W        W 6986  16.681  22.507  13.806
37172W        W 6987  34.939  30.472   0.859
37173W        W 6988  39.319  13.800   3.851
37174W        W 6989   5.750  11.353   2.384
37175W        W 6990  24.626  35.940  14.925
37176W        W 6991  24.077  27.602   1.244
37177W        W 6992  16.658  42.827   3.733
37178W        W 6993  16.107   7.343  11.104
37179W        W 6994  20.598  30.115   1.367
37180W        W 6995  29.467  35.512   4.832
37181W        W 6996   8.749  39.390   2.839
37182W        W 6997  29.648  44.879  13.060
37183W        W 6998  20.076  37.516   1.750
37184W        W 6999  33.625   3.282   5.199
37185W        W 7000  34.536  25.167  12.424
37186W        W 7001  40.968  42.420  12.487
37187W        W 7002   7.231  10.323   2.341
37188W        W 7003  13.781  41.866  13.381
37189W        W 7004  42.445  42.493   3.812
37190W        W 7005  43.868  10.862   3.694
37191W        W 7006   3.809   6.319  12.364
37192W        W 7007  41.315  36.493  14.018
37193W        W 7008   9.767   7.887   4.340
37194W        W 7009  18.647   6.858   1.405
37195W        W 7010  24.054  13.214  14.943
37196W        W 7011  44.880   0.444  14.470
37197W        W 7012  19.119  28.978   0.829
37198W        W 7013   8.245   6.898  12.846
37199W        W 7014  22.037  23.060   0.794
37200W        W 7015  17.138  39.364  14.286
37201W        W 7016  14.653  43.894  13.319
37202W        W 7017  24.043  15.176   0.295
37203W        W 7018  31.512   9.187  10.979
37204W        W 7019  11.812   3.758  13.052
37205W        W 7020  24.998  28.438  10.542
37206W        W 7021  12.169  43.867  12.454
37207W        W 7022  13.613  24.621   1.323
37208W        W 7023  32.423  33.380  11.947
37209W        W 7024  43.961   8.401  13.331
37210W        W 7025  38.446   7.189  12.580
37211W        W 7026   2.329  42.016   3.726
37212W        W 7027   8.823  20.257   3.695
37213W        W 7028  10.218  25.529  10.603
37214W        W 7029   7.289   4.241  12.545
37215W        W 7030  10.233   1.338   2.839
37216W        W 7031  43.298  20.576   3.682
37217W        W 7032  18.696  40.862   2.300
37218W        W 7033  28.168  43.408  12.990
37219W        W 7034  40.390  28.172  10.432
37220W        W 7035   8.675   0.354   3.703
37221W        W 7036   4.407  40.844  11.075
37222W        W 7037  16.681  17.757  12.439
37223W        W 7038  12.173  33.564  10.451
37224W        W 7039  40.834  39.423   2.248
37225W        W 7040  39.814  11.840   4.343
37226W        W 7041  27.468  24.135  13.525
37227W        W 7042  31.949  22.153  12.482
37228W        W 7043  33.447  12.785   2.768
37229W        W 7044  21.263  11.316  12.465
37230W        W 7045  26.021  33.455  12.833
37231W        W 7046  23.668  31.943   4.794
37232W        W 7047  16.673   2.310   1.279
37233W        W 7048  16.797  36.005  11.404
37234W        W 7049  14.708  35.868  12.567
37235W        W 7050  36.375  28.093   1.317
37236W        W 7051  42.916   5.805   0.742
37237W        W 7052  20.070   0.430  10.528
37238W        W 7053  27.121  23.039  11.528
37239W        W 7054   2.798  36.899  10.449
37240W        W 7055  44.279   0.974  12.426
37241W        W 7056  23.683  19.630   2.202
37242W        W 7057  10.342  37.078  10.014
37243W        W 7058  13.730   9.776   2.728
37244W        W 7059   9.734  35.458   4.699
37245W        W 7060  11.710  16.272   1.871
37246W        W 7061   0.299   6.778   1.419
37247W        W 7062  12.236  32.106   0.242
37248W        W 7063  42.283   1.346  13.336
37249W        W 7064  40.997  29.156   3.731
37250W        W 7065  42.341  24.614   1.366
37251W        W 7066  16.755  40.918  12.541
37252W        W 7067  31.075  28.009  10.592
37253W        W 7068  24.149   2.454   4.208
37254W        W 7069  32.544   3.436   4.777
37255W        W 7070  36.550  30.122   4.734
37256W        W 7071  30.503   9.778  11.953
37257W        W 7072  43.923   3.955   0.369
37258W        W 7073  40.843  10.264   4.191
37259W        W 7074  40.376  10.755  10.465
37260W        W 7075   6.307  22.023   4.735
37261W        W 7076  11.833  10.669   4.672
37262W        W 7077  37.002   8.671  14.872
37263W        W 7078  28.658  32.072  12.381
37264W        W 7079  22.224  32.593  13.528
37265W        W 7080  15.723  21.652   1.879
37266W        W 7081  16.177  32.092  11.426
37267W        W 7082  41.369  31.900   1.268
37268W        W 7083  37.077  23.120   3.775
37269W        W 7084  28.173  41.813   3.718
37270W        W 7085  17.171  25.536   1.760
37271W        W 7086  18.697  35.482  12.015
37272W        W 7087   4.873  23.588  12.524
37273W        W 7088   3.747  19.210   1.238
37274W        W 7089  31.447  18.677   4.303
37275W        W 7090  24.543  31.087  11.947
37276W        W 7091  31.972   1.885  13.042
37277W        W 7092  17.215  33.937  13.878
37278W        W 7093  39.377  22.176   2.193
37279W        W 7094  44.878  27.105   1.802
37280W        W 7095  26.681  16.611   1.793
37281W        W 7096  33.566  19.542  10.021
37282W        W 7097   1.432  22.539   4.150
37283W        W 7098  34.943  10.802  14.323
37284W        W 7099  21.206  30.536   2.295
37285W        W 7100   0.826   1.419  11.543
37286W        W 7101  13.331  26.075  13.445
37287W        W 7102  40.320  10.204   0.367
37288W        W 7103  42.839   5.822  13.492
37289W        W 7104  18.548  42.979   2.702
37290W        W 7105  25.530  26.138  13.808
37291W        W 7106  29.926  19.743  11.372
37292W        W 7107  43.361  16.145   3.633
37293W        W 7108  36.943   9.797   4.346
37294W        W 7109  13.215   8.733   1.303
37295W        W 7110   9.334  44.839  12.533
37296W        W 7111   3.366   7.334  13.033
37297W        W 7112  33.077  29.035  11.947
37298W        W 7113  44.498  17.143  14.942
37299W        W 7114  31.555  10.823   0.962
37300W        W 7115  12.177  44.990   2.298
37301W        W 7116  37.987   9.839   1.772
37302W        W 7117  40.538  30.589  12.940
37303W        W 7118  30.055   3.413  13.977
37304W        W 7119  20.676  21.123  14.290
37305W        W 7120  25.011   8.343  14.486
37306W        W 7121  34.949   6.319   3.271
37307W        W 7122  16.153  33.003  10.608
37308W        W 7123  10.681   1.338  11.001
37309W        W 7124  30.091  11.361   3.743
37310W        W 7125  41.342  19.128  11.938
37311W        W 7126   4.390  23.091   2.245
37312W        W 7127  18.128   8.690   2.800
37313W        W 7128  11.163   3.767  14.882
37314W        W 7129   4.719  38.394   2.705
37315W        W 7130  16.583  34.011  11.464
37316W        W 7131   3.912  38.925  10.436
37317W        W 7132  26.653  39.908   1.862
37318W        W 7133  14.248  30.085  12.034
37319W        W 7134  35.969   1.746   0.388
37320W        W 7135   4.431  14.772   2.183
37321W        W 7136  43.775   7.867   2.192
37322W        W 7137  17.614  39.491  11.604
37323W        W 7138   5.918  42.484  11.612
37324W        W 7139  40.821   1.813  10.594
37325W        W 7140  18.593  19.186   2.694
37326W        W 7141  31.561  30.954  14.418
37327W        W 7142  34.881  13.603   2.214
37328W        W 7143  17.256  20.044  11.573
37329W        W 7144  22.648   2.878   3.693
37330W        W 7145  21.669  19.220  12.458
37331W        W 7146  43.773   4.314   0.274
37332W        W 7147  42.916  31.432   4.635
37333W        W 7148  43.975  39.874  13.912
37334W        W 7149  19.116  24.082   1.356
37335W        W 7150  28.078  25.049  14.849
37336W        W 7151   9.391  41.455  12.081
37337W        W 7152   9.324  23.524   1.305
37338W        W 7153  11.256  12.277  14.825
37339W        W 7154  29.164  11.306   0.318
37340W        W 7155  35.867  30.461   4.141
37341W        W 7156  35.006  24.643   3.150
37342W        W 7157  17.075  10.812   3.646
37343W        W 7158   3.434  20.643  10.426
37344W        W 7159  21.702   7.721   0.461
37345W        W 7160  19.605  26.208  14.354
37346W        W 7161  32.037  10.732  11.085
37347W        W 7162   8.858  34.933   4.697
37348W        W 7163  16.202  40.444   3.794
37349W        W 7164  24.585   7.407   1.282
37350W        W 7165  11.140  30.945  14.866
37351W        W 7166   0.930  23.590   4.300
37352W        W 7167  40.838  41.294   0.362
37353W        W 7168   0.455   1.906  14.777
37354W        W 7169  21.599  23.707   0.955
37355W        W 7170  29.935  26.056   2.330
37356W        W 7171  22.708   0.389   5.285
37357W        W 7172  19.058   9.890   2.189
37358W        W 7173   6.910   4.716   0.375
37359W        W 7174   7.199  42.421  12.474
37360W        W 7175   2.471  20.046  13.439
37361W        W 7176  32.049  15.225  12.392
37362W        W 7177  21.233  42.849   2.891
37363W        W 7178  30.955  33.479   4.286
37364W        W 7179  34.107  13.730  14.797
37365W        W 7180  16.688  16.167   1.704
37366W        W 7181  36.382  10.774  13.403
37367W        W 7182  40.812  44.785   3.817
37368W        W 7183  35.920  37.993  12.366
37369W        W 7184  17.081  14.724   1.388
37370W        W 7185  21.114   3.745   2.887
37371W        W 7186  11.821  24.510  10.601
37372W        W 7187  35.456  29.976   0.727
37373W        W 7188  21.643  12.203  13.974
37374W        W 7189  31.515  17.228   1.311
37375W        W 7190   9.230  16.274  12.836
37376W        W 7191  41.417  35.584  10.957
37377W        W 7192  42.838  21.048   5.174
37378W        W 7193  28.101  14.320   3.346
37379W        W 7194  19.196  34.561  12.506
37380W        W 7195  32.459  41.830  14.801
37381W        W 7196  39.438  17.787  12.957
37382W        W 7197   4.445  30.070  10.636
37383W        W 7198   8.822  36.532   3.824
37384W        W 7199  30.026  21.567   3.692
37385W        W 7200  27.593  10.303   0.292
37386W        W 7201  31.067  23.682  10.642
37387W        W 7202  11.838  29.158   2.299
37388W        W 7203  41.961  32.075  13.441
37389W        W 7204  44.413  37.984  12.855
37390W        W 7205  11.631  31.487  14.853
37391W        W 7206  44.850  29.105  10.940
37392W        W 7207  26.108  41.402  12.529
37393W        W 7208  43.927   0.310  12.886
37394W        W 7209   9.350  44.810   1.243
37395W        W 7210   8.325  42.473   0.952
37396W        W 7211   4.776  40.845  10.447
37397W        W 7212  36.934  30.146  10.528
37398W        W 7213  29.957  22.673   4.316
37399W        W 7214  13.274  12.185   0.942
37400W        W 7215  29.455  32.979   2.812
37401W        W 7216  13.636  35.002  13.489
37402W        W 7217  29.654   6.300   0.464
37403W        W 7218  25.037  19.206  14.347
37404W        W 7219  33.458   5.398  14.377
37405W        W 7220   7.827  41.867  14.806
37406W        W 7221  17.157   7.409  11.517
37407W        W 7222  12.183   4.272   0.267
37408W        W 7223  37.437  16.093   3.306
37409W        W 7224  10.340  21.257  10.624
37410W        W 7225  23.603  17.773  14.280
37411W        W 7226  40.910   9.709  14.315
37412W        W 7227  22.223  22.236  12.527
37413W        W 7228  31.483  22.007   3.695
37414W        W 7229   9.211  41.999   4.609
37415W        W 7230  41.853  14.258  14.458
37416W        W 7231  18.617  23.677   3.843
37417W        W 7232  21.262  44.897  13.009
37418W        W 7233   5.931  38.829  14.515
37419W        W 7234   1.247  13.814  13.527
37420W        W 7235  44.984  28.455   1.423
37421W        W 7236   1.324  40.391   1.716
37422W        W 7237  22.080  41.480   0.344
37423W        W 7238  33.881   0.977  12.437
37424W        W 7239   6.855   7.321  12.857
37425W        W 7240  14.648   5.890   4.662
37426W        W 7241  39.850   1.768   4.339
37427W        W 7242  38.510  42.318   2.253
37428W        W 7243   5.298  42.817   4.240
37429W        W 7244  40.326  20.716  12.537
37430W        W 7245  23.086  33.039  10.919
37431W        W 7246  30.483  13.153  10.938
37432W        W 7247  29.600  23.630  14.424
37433W        W 7248  43.425  24.582   4.807
37434W        W 7249   2.804  43.270   1.373
37435W        W 7250  12.664  10.183   2.813
37436W        W 7251  29.667  41.435  13.837
37437W        W 7252  40.014   2.402   4.673
37438W        W 7253  11.655  22.686   3.364
37439W        W 7254  19.234  37.843  13.867
37440W        W 7255  28.087  17.218  10.503
37441W        W 7256  24.208   9.158   4.600
37442W        W 7257  36.482  36.446   4.177
37443W        W 7258  38.951  30.114   4.810
37444W        W 7259  42.821  17.656  12.485
37445W        W 7260  15.712  30.621   3.293
37446W        W 7261  21.125   9.789  11.893
37447W        W 7262   8.267   3.325   2.338
37448W        W 7263   0.331  22.590   2.259
37449W        W 7264   9.759  35.069   0.730
37450W        W 7265   0.298  28.681  14.458
37451W        W 7266  25.559  25.676  14.329
37452W        W 7267   0.403   2.831   4.630
37453W        W 7268  30.491  32.625   0.840
37454W        W 7269  12.847  11.321   1.256
37455W        W 7270  36.460  30.626  14.921
37456W        W 7271  12.120  13.619   2.284
37457W        W 7272  17.621  29.642   1.856
37458W        W 7273  37.560   9.798   0.797
37459W        W 7274  16.581   6.230  12.970
37460W        W 7275  40.010  11.692  11.522
37461W        W 7276  24.044  30.506   2.211
37462W        W 7277  30.538  27.667  13.035
37463W        W 7278  24.478  14.138  10.539
37464W        W 7279   1.893  33.007  13.511
37465W        W 7280  22.160  36.889   3.258
37466W        W 7281   0.339  25.188  10.642
37467W        W 7282  16.635  12.263  14.876
37468W        W 7283  26.083  17.628  11.605
37469W        W 7284   1.339   0.260  12.579
37470W        W 7285  13.143  41.368   5.163
37471W        W 7286  22.217  19.641  13.849
37472W        W 7287   4.798   5.419   1.360
37473W        W 7288  42.281   0.423   4.213
37474W        W 7289  11.848  34.100   0.856
37475W        W 7290  17.722  28.140  12.459
37476W        W 7291  11.138  21.599   1.433
37477W        W 7292   5.394  25.578   0.441
37478W        W 7293  39.943   5.302  13.953
37479W        W 7294  31.473  19.757   3.701
37480W        W 7295   4.918  16.118  12.985
37481W        W 7296  25.165  11.310   0.893
37482W        W 7297  41.925  23.547   0.443
37483W        W 7298  13.151  13.107  11.915
37484W        W 7299  41.013  29.512  13.945
37485W        W 7300  35.476  35.413  12.385
37486W        W 7301  30.520   9.226  11.893
37487W        W 7302   2.389  27.100   1.811
37488W        W 7303   7.880   5.269  11.433
37489W        W 7304  31.600  30.485  14.284
37490W        W 7305  26.011  38.895   0.737
37491W        W 7306  31.967  31.137  12.033
37492W        W 7307  20.033  18.244   4.240
37493W        W 7308  11.335  31.965   0.812
37494W        W 7309   1.248   5.776  13.796
37495W        W 7310  12.231  32.405   2.245
37496W        W 7311  26.199  29.139   1.234
37497W        W 7312   3.941  38.410   0.243
37498W        W 7313  24.175  27.115   1.391
37499W        W 7314   6.921  28.174  13.479
37500W        W 7315   1.428  12.275   1.389
37501W        W 7316  12.673   6.296   2.284
37502W        W 7317  25.705   8.890  11.962
37503W        W 7318   5.348  14.146  10.916
37504W        W 7319  38.419   8.804  12.345
37505W        W 7320  20.689  27.071  12.884
37506W        W 7321  22.684  32.402  14.388
37507W        W 7322  32.576  32.580  10.966
37508W        W 7323  24.577   1.421  12.974
37509W        W 7324  39.473  31.473  13.512
37510W        W 7325   6.329  26.663   0.430
37511W        W 7326   2.918   2.383   2.251
37512W        W 7327   8.176  43.301   0.883
37513W        W 7328  36.993  34.864  13.502
37514W        W 7329  39.355  36.456   1.793
37515W        W 7330  44.456  17.077   4.752
37516W        W 7331  10.842  39.999  13.334
37517W        W 7332  23.124  39.551  12.866
37518W        W 7333  11.841  32.954   2.378
37519W        W 7334  37.956  42.506  13.932
37520W        W 7335  41.810   2.261  10.598
37521W        W 7336   5.797  16.737  13.357
37522W        W 7337  32.923  34.939   1.783
37523W        W 7338   7.179  26.593   0.781
37524W        W 7339  43.429  37.988  11.423
37525W        W 7340  37.554  36.944  13.934
37526W        W 7341  30.603   6.830   2.240
37527W        W 7342  25.092  38.868   1.927
37528W        W 7343  44.802  23.017   4.305
37529W        W 7344   3.818  29.663   2.900
37530W        W 7345  16.744  13.724  14.383
37531W        W 7346   4.728  30.507   3.871
37532W        W 7347  40.373  36.378  13.430
37533W        W 7348  27.558  26.191   3.865
37534W        W 7349   8.717  37.530  14.498
37535W        W 7350  19.085  27.077   2.844
37536W        W 7351  23.665  28.651  14.485
37537W        W 7352  24.541  25.158   0.382
37538W        W 7353  23.651  10.179   0.914
37539W        W 7354  12.786  13.818  14.340
37540W        W 7355  16.792  41.006   4.287
37541W        W 7356  36.944  32.131  11.051
37542W        W 7357  23.012  42.860   0.252
37543W        W 7358   7.877   4.869  12.967
37544W        W 7359  33.949  38.374   1.233
37545W        W 7360  32.510  37.993  10.533
37546W        W 7361  44.467  41.859   0.757
37547W        W 7362  39.418   5.814   3.704
37548W        W 7363  40.429  36.001   1.906
37549W        W 7364  25.549  32.558   3.260
37550W        W 7365  30.907  42.482  13.917
37551W        W 7366   8.249  10.358   4.277
37552W        W 7367  20.148  22.703   2.259
37553W        W 7368  38.398   9.311  10.622
37554W        W 7369  37.534  23.676   9.936
37555W        W 7370   6.705  29.055   4.735
37556W        W 7371   2.726  25.480   2.834
37557W        W 7372   1.328  40.503   0.734
37558W        W 7373  23.574  37.031   4.235
37559W        W 7374  13.609  27.004   3.737
37560W        W 7375  22.555  39.881   3.745
37561W        W 7376   3.418   7.887   5.231
37562W        W 7377  12.356  18.054  10.974
37563W        W 7378  11.373   1.932  13.798
37564W        W 7379  40.409   6.749  10.565
37565W        W 7380   8.166  36.434   2.847
37566W        W 7381  44.889  11.315  12.504
37567W        W 7382  10.712   6.342   0.843
37568W        W 7383  13.690  16.800   4.684
37569W        W 7384   1.925   7.882  10.601
37570W        W 7385  37.579  44.272  11.600
37571W        W 7386  18.605  19.204   3.274
37572W        W 7387  24.526  27.945   0.459
37573W        W 7388  22.996  31.025   0.752
37574W        W 7389  13.118   8.192   3.701
37575W        W 7390   5.732  26.999  12.089
37576W        W 7391  25.138   7.739   4.793
37577W        W 7392  38.517  15.721   3.684
37578W        W 7393  40.401  16.648  11.992
37579W        W 7394  23.506  26.566  12.531
37580W        W 7395   7.176  21.042   2.870
37581W        W 7396   4.931  44.466  10.516
37582W        W 7397  39.490  21.723  14.939
37583W        W 7398  27.618  16.782   2.305
37584W        W 7399  27.029  33.959   0.390
37585W        W 7400  35.042  22.584   0.759
37586W        W 7401  13.146  24.605   4.678
37587W        W 7402  26.640  21.094   4.743
37588W        W 7403  19.596  19.734   4.662
37589W        W 7404  41.802  36.348   0.480
37590W        W 7405   9.814  23.001   3.256
37591W        W 7406  38.926  31.000  11.090
37592W        W 7407   9.657  22.239   4.836
37593W        W 7408  23.530  38.979   4.115
37594W        W 7409   9.804   9.817   1.804
37595W        W 7410  26.592   5.852   4.280
37596W        W 7411  13.164  16.756   5.784
37597W        W 7412   0.901  13.712  12.463
37598W        W 7413  31.031   8.874  11.876
37599W        W 7414  30.038  33.917  11.517
37600W        W 7415  18.749  39.474  11.423
37601W        W 7416   0.478  25.630  13.815
37602W        W 7417  32.907   4.325  11.858
37603W        W 7418  11.767  14.778  14.859
37604W        W 7419   9.241   4.895  14.900
37605W        W 7420  33.082  18.182   3.155
37606W        W 7421  14.243  29.532   3.298
37607W        W 7422  27.160  13.244   4.830
37608W        W 7423  20.607  39.982   0.727
37609W        W 7424   8.759   4.763   4.668
37610W        W 7425  43.328  43.341   1.833
37611W        W 7426   2.289  39.325   2.891
37612W        W 7427   3.417  32.961  13.815
37613W        W 7428  22.162   3.904  14.347
37614W        W 7429  25.989   0.914  13.345
37615W        W 7430  40.472  19.644  10.994
37616W        W 7431  36.958  19.572   1.315
37617W        W 7432  14.108  42.298   1.447
37618W        W 7433  30.077  20.222   2.267
37619W        W 7434  18.630  16.123   3.365
37620W        W 7435  29.516   5.741   3.844
37621W        W 7436  38.843  23.207   3.807
37622W        W 7437  21.726  29.936   1.406
37623W        W 7438  15.748  15.752   0.726
37624W        W 7439  38.961  14.804  14.888
37625W        W 7440  14.109  33.007   2.887
37626W        W 7441   3.773  19.589   2.298
37627W        W 7442  35.433  39.437  14.766
37628W        W 7443  35.478  31.570  13.055
37629W        W 7444   6.797  14.719   1.217
37630W        W 7445   9.157  42.858  12.369
37631W        W 7446  38.369  24.683   0.380
37632W        W 7447  16.287  21.626  13.878
37633W        W 7448   2.828  14.657  11.079
37634W        W 7449  44.295  28.120  13.415
37635W        W 7450   5.775  42.904  12.996
37636W        W 7451   8.799  20.616   2.829
37637W        W 7452  20.101  31.053   4.208
37638W        W 7453  11.235  42.376   4.598
37639W        W 7454  26.667  20.263  10.599
37640W        W 7455  30.052  39.014   0.798
37641W        W 7456  20.601  31.490  10.964
37642W        W 7457  25.478  12.240  11.958
37643W        W 7458  20.671   0.882  13.345
37644W        W 7459  11.825  20.160   0.482
37645W        W 7460  17.129  17.615  12.091
37646W        W 7461   6.708  15.123  14.876
37647W        W 7462  21.530  27.581  11.987
37648W        W 7463  14.716  43.774  14.843
37649W        W 7464   6.753  28.072   1.241
37650W        W 7465  33.954   4.893  11.567
37651W        W 7466  27.635  14.704   1.280
37652W        W 7467  32.047   2.379   0.795
37653W        W 7468  22.027  31.612  14.454
37654W        W 7469  19.556  13.808   3.654
37655W        W 7470  31.498   5.739  10.623
37656W        W 7471  23.528   7.837  10.911
37657W        W 7472   1.894  16.803  14.840
37658W        W 7473  40.317  13.784   2.411
37659W        W 7474  41.357  30.006   0.838
37660W        W 7475  26.156   1.791  10.606
37661W        W 7476  18.178   6.306   1.229
37662W        W 7477   9.816  13.625  13.400
37663W        W 7478  23.525  14.662   0.380
37664W        W 7479  23.690  12.680   0.866
37665W        W 7480   0.399  22.139   4.172
37666W        W 7481  32.400  34.120   4.269
37667W        W 7482  24.528  28.579   4.669
37668W        W 7483   4.775  26.552  14.989
37669W        W 7484  20.123  22.103  11.873
37670W        W 7485  39.996  20.273  13.342
37671W        W 7486  11.222   5.251  12.968
37672W        W 7487  23.024  20.547  14.308
37673W        W 7488   8.360  28.588   3.261
37674W        W 7489  36.576  25.483  13.046
37675W        W 7490  15.659  18.648  14.477
37676W        W 7491   5.295  26.686  10.513
37677W        W 7492  33.903  12.729   4.121
37678W        W 7493  23.190  11.856   1.832
37679W        W 7494  15.258  38.464  13.452
37680W        W 7495  29.086  19.619   3.657
37681W        W 7496  40.510   8.196  14.440
37682W        W 7497  19.138   4.239  14.008
37683W        W 7498  17.140   5.751  11.113
37684W        W 7499  33.933  25.044   4.260
37685W        W 7500  29.639  28.138   4.784
37686W        W 7501   2.842  16.268  10.910
37687W        W 7502  11.262  33.916  14.388
37688W        W 7503   3.739  31.044   4.122
37689W        W 7504  20.594  38.838  14.352
37690W        W 7505   7.883  14.789  14.352
37691W        W 7506   6.913   7.338   1.804
37692W        W 7507   8.330   7.676  10.547
37693W        W 7508  16.292   9.794  11.016
37694W        W 7509  37.383  38.840   0.962
37695W        W 7510  37.400  23.673   4.351
37696W        W 7511  28.620  27.042   3.728
37697W        W 7512  25.502  19.050   1.809
37698W        W 7513   7.184  28.473  14.941
37699W        W 7514  39.366  42.912  12.433
37700W        W 7515  21.116   5.931   1.221
37701W        W 7516  28.004   1.451   4.742
37702W        W 7517  26.559  16.585   0.944
37703W        W 7518  22.539   1.386   3.176
37704W        W 7519  37.896  30.925  11.038
37705W        W 7520  36.985   3.876   0.376
37706W        W 7521  25.047   4.827  14.939
37707W        W 7522  15.188  42.993  11.892
37708W        W 7523  36.456   5.721  12.428
37709W        W 7524  10.669  11.827  12.453
37710W        W 7525   4.276  38.049   0.448
37711W        W 7526  39.367  16.280   3.717
37712W        W 7527  34.984   2.456   3.642
37713W        W 7528  32.968  38.425   0.844
37714W        W 7529  12.803  44.298  13.968
37715W        W 7530   3.804   5.239   4.609
37716W        W 7531   2.406  39.828  10.463
37717W        W 7532  26.051  24.612  13.462
37718W        W 7533  12.330  43.494   1.391
37719W        W 7534  35.546   5.246  10.890
37720W        W 7535  20.168  29.535   1.404
37721W        W 7536  44.315   8.675   3.667
37722W        W 7537  24.554  12.674   2.845
37723W        W 7538   5.882  21.525   3.201
37724W        W 7539  15.726  21.746  12.446
37725W        W 7540  35.086  20.088   2.275
37726W        W 7541  18.145  24.016   3.705
37727W        W 7542   0.802   7.752   1.295
37728W        W 7543  34.939   8.197  13.380
37729W        W 7544   1.789  24.547   4.134
37730W        W 7545   1.962  13.318   4.735
37731W        W 7546  28.441   7.359   4.640
37732W        W 7547  38.526  38.825   1.890
37733W        W 7548  44.409  28.508  14.778
37734W        W 7549  10.761   8.665   0.469
37735W        W 7550   6.698  28.967  14.408
37736W        W 7551  24.052  30.495   4.281
37737W        W 7552  35.051  42.331  11.879
37738W        W 7553  19.681  42.791   1.279
37739W        W 7554  42.505  42.482   0.741
37740W        W 7555  25.574   4.936  10.029
37741W        W 7556   3.267  11.228  12.478
37742W        W 7557   9.773  34.088  12.941
37743W        W 7558  37.966  34.864  12.031
37744W        W 7559  14.669  25.479  14.779
37745W        W 7560  25.134  21.040  12.900
37746W        W 7561  13.289  40.867  13.485
37747W        W 7562  16.288   5.850   4.248
37748W        W 7563  29.520   0.931  14.993
37749W        W 7564   7.365  10.237  14.411
37750W        W 7565  41.039  27.963   4.709
37751W        W 7566  21.573   5.390   4.618
37752W        W 7567  29.609  17.160  14.801
37753W        W 7568   8.692  33.581  13.047
37754W        W 7569  18.193  22.703  12.972
37755W        W 7570  34.042  22.724   4.153
37756W        W 7571  25.679  40.917   5.614
37757W        W 7572  18.738   3.330   0.468
37758W        W 7573  37.581  31.131   0.327
37759W        W 7574  34.429  16.286  11.486
37760W        W 7575  37.912   8.793  11.997
37761W        W 7576  21.643   4.935  11.856
37762W        W 7577  13.705  31.010  12.005
37763W        W 7578  29.037   0.946   1.373
37764W        W 7579  11.839  24.058   0.309
37765W        W 7580  29.014  11.271   3.838
37766W        W 7581  30.507  19.160  12.546
37767W        W 7582   8.290  19.657  11.077
37768W        W 7583  21.177  12.789   0.805
37769W        W 7584   1.389  27.180   1.870
37770W        W 7585  26.621   9.215   3.800
37771W        W 7586  24.072  35.956  12.404
37772W        W 7587  15.694   8.696   2.836
37773W        W 7588   3.222  24.034   3.712
37774W        W 7589  28.128  15.148  12.859
37775W        W 7590  22.069   3.432  10.935
37776W        W 7591  28.931  43.493  10.930
37777W        W 7592  37.538  22.615   2.196
37778W        W 7593  19.194  14.709  13.858
37779W        W 7594  17.065  32.626  14.297
37780W        W 7595  24.525  39.428   1.850
37781W        W 7596  14.112  12.680   4.640
37782W        W 7597  40.454  11.344  11.376
37783W        W 7598  24.129  10.759  14.998
37784W        W 7599  10.737  33.028  14.404
37785W        W 7600  25.553   8.306  10.502
37786W        W 7601   8.314   3.919   3.758
37787W        W 7602  12.177  11.865   4.773
37788W        W 7603  39.999  20.195   1.855
37789W        W 7604  14.633   0.408   1.931
37790W        W 7605  17.747  43.423  12.022
37791W        W 7606  16.583   9.786   0.483
37792W        W 7607   8.842  17.742   2.396
37793W        W 7608   2.398   3.873   0.424
37794W        W 7609  31.048  34.040  10.607
37795W        W 7610  14.183  20.136  11.420
37796W        W 7611  38.461  26.628   0.302
37797W        W 7612  17.135  14.114  13.828
37798W        W 7613   3.794   3.396  11.482
37799W        W 7614  25.983   1.447  14.900
37800W        W 7615   4.280   3.920   2.737
37801W        W 7616  14.743  43.792  12.856
37802W        W 7617  12.690  16.663  14.976
37803W        W 7618  42.341  35.399   3.713
37804W        W 7619  11.730  35.056   2.843
37805W        W 7620  32.529  27.520   3.791
37806W        W 7621  18.113  39.476  13.477
37807W        W 7622  30.636  35.908  11.868
37808W        W 7623  41.307  19.252  12.571
37809W        W 7624  35.863  10.672   0.913
37810W        W 7625   9.166  38.525  10.544
37811W        W 7626  37.879   6.871  14.393
37812W        W 7627  13.608  33.397   0.362
37813W        W 7628  42.867   0.973  11.925
37814W        W 7629  13.191  22.220  12.981
37815W        W 7630  21.745  11.255  12.067
37816W        W 7631  11.640  11.676   2.349
37817W        W 7632   2.342  11.275   2.228
37818W        W 7633  36.531   8.274   4.182
37819W        W 7634  24.985   5.276  14.380
37820W        W 7635  10.781  14.745   1.863
37821W        W 7636   3.757  14.632  13.004
37822W        W 7637  11.768   5.325   0.933
37823W        W 7638  41.900  42.288   2.865
37824W        W 7639   8.335  30.949  11.553
37825W        W 7640   5.324  28.473   2.313
37826W        W 7641  24.624  28.063  14.788
37827W        W 7642  42.487  21.064   0.834
37828W        W 7643  35.953  33.100   4.695
37829W        W 7644  40.389  35.889   2.743
37830W        W 7645  29.604  27.554   4.702
37831W        W 7646  29.130  37.408   2.376
37832W        W 7647  29.096  37.547  14.478
37833W        W 7648  18.109  32.965  10.407
37834W        W 7649  34.593   6.789   4.735
37835W        W 7650  10.846  17.079  14.386
37836W        W 7651  22.007  15.795  12.513
37837W        W 7652  39.930  40.858  12.567
37838W        W 7653  21.043   8.764   1.830
37839W        W 7654   4.766  15.184   2.825
37840W        W 7655  26.141  30.453  12.941
37841W        W 7656  11.325  15.594   0.737
37842W        W 7657  22.158  32.574   1.721
37843W        W 7658  42.326  38.559   2.756
37844W        W 7659  41.854  15.279  11.041
37845W        W 7660  31.065  22.122  11.062
37846W        W 7661  32.131   8.828   0.432
37847W        W 7662  33.529  11.352   2.734
37848W        W 7663   4.239  23.078   1.381
37849W        W 7664  28.043  20.523   2.757
37850W        W 7665  29.663  15.732   1.879
37851W        W 7666   1.362  37.362  13.871
37852W        W 7667   9.233  41.372  10.917
37853W        W 7668  11.704  35.987  14.975
37854W        W 7669  12.766  29.042  14.809
37855W        W 7670   8.895   4.446   2.291
37856W        W 7671  40.045  34.491  12.852
37857W        W 7672   0.361  33.536   2.781
37858W        W 7673  12.352  37.501   4.180
37859W        W 7674  14.693  39.965  13.906
37860W        W 7675  10.870   2.360  13.016
37861W        W 7676  16.138  34.013  14.831
37862W        W 7677  32.550   7.248  13.485
37863W        W 7678  23.531  22.660   1.404
37864W        W 7679  41.859  13.644   0.963
37865W        W 7680   6.196  26.024   4.601
37866W        W 7681  39.396  27.675   0.746
37867W        W 7682  27.662   0.304  13.919
37868W        W 7683  27.944   2.816   2.341
37869W        W 7684  39.825  22.680  13.045
37870W        W 7685  39.340  19.146  14.821
37871W        W 7686  12.145  33.957  11.455
37872W        W 7687  23.074   9.850  12.366
37873W        W 7688  26.011  18.204  10.622
37874W        W 7689  19.631  26.625   4.706
37875W        W 7690  10.197  26.536   0.901
37876W        W 7691  41.489  39.446   2.408
37877W        W 7692  42.307  33.421   0.301
37878W        W 7693  40.955  16.678   4.811
37879W        W 7694  41.020   4.437   4.182
37880W        W 7695  24.722  14.796  10.607
37881W        W 7696  36.014  37.874  12.890
37882W        W 7697  39.410   1.959   4.647
37883W        W 7698   4.411   7.716  10.484
37884W        W 7699  37.382  18.212   2.892
37885W        W 7700  28.028  14.106   2.802
37886W        W 7701  16.750  25.138  13.035
37887W        W 7702  21.651  42.405   0.961
37888W        W 7703  15.127   1.776   1.736
37889W        W 7704   4.829   4.833  11.913
37890W        W 7705  17.071  26.062   0.887
37891W        W 7706   9.305  15.665  10.616
37892W        W 7707  26.633  39.886   2.370
37893W        W 7708   1.306  10.767   3.169
37894W        W 7709  29.992   6.193  14.832
37895W        W 7710  12.857  32.577   4.126
37896W        W 7711   5.362  42.851  14.458
37897W        W 7712  33.518  35.392  12.086
37898W        W 7713  42.877  26.615  12.029
37899W        W 7714  32.513   5.318   0.893
37900W        W 7715  15.313  21.081   0.291
37901W        W 7716  39.817   0.845  12.413
37902W        W 7717  10.827  25.548   1.343
37903W        W 7718  40.364  30.588   2.739
37904W        W 7719  44.324  41.318  13.894
37905W        W 7720  41.838  35.046  13.466
37906W        W 7721   1.749  21.592  14.470
37907W        W 7722  31.057  34.375   1.781
37908W        W 7723  33.502  22.561   0.769
37909W        W 7724  29.940  20.242   4.671
37910W        W 7725   2.445  28.531   4.262
37911W        W 7726   4.842  30.566  10.949
37912W        W 7727  31.116  18.275  14.305
37913W        W 7728   2.752  12.791  14.870
37914W        W 7729  24.019  25.097   2.859
37915W        W 7730  33.891   5.361   2.851
37916W        W 7731  36.897  38.345  14.883
37917W        W 7732   5.400  27.632  12.913
37918W        W 7733  32.908  24.719   0.867
37919W        W 7734  39.963  19.761  14.934
37920W        W 7735  18.690  28.526  11.883
37921W        W 7736  38.833  11.830   1.416
37922W        W 7737  29.098  39.036  12.963
37923W        W 7738   5.817   9.385   1.442
37924W        W 7739  18.786  19.252  12.397
37925W        W 7740  16.080  34.872  11.887
37926W        W 7741   4.823  33.051  13.015
37927W        W 7742   1.893   1.749   1.318
37928W        W 7743   8.741  26.637  10.627
37929W        W 7744  35.426  39.500   0.845
37930W        W 7745   0.776  35.378  11.392
37931W        W 7746  11.820  39.443   0.381
37932W        W 7747   6.759  43.395  12.943
37933W        W 7748  24.629  11.139  11.591
37934W        W 7749  12.819   8.729   0.444
37935W        W 7750  24.532   0.861   0.325
37936W        W 7751  10.650  15.707   3.169
37937W        W 7752  28.635  28.498   1.248
37938W        W 7753  18.179  36.053   0.361
37939W        W 7754   5.820   6.233   2.271
37940W        W 7755   6.850  31.012   1.348
37941W        W 7756   8.891  25.670  14.497
37942W        W 7757  32.483  26.016  12.503
37943W        W 7758  26.131  27.596   1.391
37944W        W 7759   6.340  21.085  14.370
37945W        W 7760   8.677  39.335  13.308
37946W        W 7761  43.346  24.491   2.749
37947W        W 7762  37.946  39.556  12.014
37948W        W 7763  22.204  16.594  10.964
37949W        W 7764  33.594  11.655   2.832
37950W        W 7765  12.658  23.120   4.801
37951W        W 7766  15.136  37.081   1.786
37952W        W 7767  28.560  35.387  11.505
37953W        W 7768   3.915  19.669   4.752
37954W        W 7769  13.315  19.627  13.408
37955W        W 7770  19.180   8.355  11.431
37956W        W 7771   5.885  25.180  13.945
37957W        W 7772   7.356   8.212   0.327
37958W        W 7773  35.506  39.538  11.588
37959W        W 7774  17.211  25.189   5.191
37960W        W 7775  37.051  31.944  10.006
37961W        W 7776  33.511  18.055  10.089
37962W        W 7777  27.094   0.362   2.808
37963W        W 7778  43.769   5.833  13.960
37964W        W 7779  33.907  43.899  12.531
37965W        W 7780  15.815  41.997   1.310
37966W        W 7781  38.940   5.730  11.042
37967W        W 7782   6.919  20.738  13.533
37968W        W 7783  17.798  28.645  13.885
37969W        W 7784  16.601  21.197   0.935
37970W        W 7785  10.156  32.004   4.185
37971W        W 7786  22.520  37.000   1.447
37972W        W 7787   1.293  20.665   1.846
37973W        W 7788  43.937  38.017  11.016
37974W        W 7789  13.291   1.401   0.375
37975W        W 7790  22.997  19.539   0.912
37976W        W 7791  41.812  18.173  11.073
37977W        W 7792  16.590  22.739   3.715
37978W        W 7793  26.638  23.512   4.280
37979W        W 7794  33.965  25.597   3.321
37980W        W 7795  41.975  18.187  14.890
37981W        W 7796  40.500  37.506   0.421
37982W        W 7797  38.055   0.908   1.902
37983W        W 7798  23.186  14.654  10.553
37984W        W 7799  16.298   5.280   4.351
37985W        W 7800  29.466  19.591   1.375
37986W        W 7801  35.452  16.190  12.565
37987W        W 7802   5.789   1.969  13.413
37988W        W 7803   6.194  40.833  14.445
37989W        W 7804  12.345  44.464   1.448
37990W        W 7805   5.810  34.549  13.935
37991W        W 7806  18.279  12.790   0.810
37992W        W 7807  37.955  26.473  11.894
37993W        W 7808   3.763  40.914   1.352
37994W        W 7809  31.908   6.344   1.840
37995W        W 7810  20.654  41.890  13.047
37996W        W 7811  30.487  13.759   2.221
37997W        W 7812  17.599   9.356   4.217
37998W        W 7813  31.476   2.269   3.844
37999W        W 7814   2.273   9.770  13.028
38000W        W 7815   0.398  24.603   1.385
38001W        W 7816   6.737  24.041  14.931
38002W        W 7817  20.758  30.595  12.536
38003W        W 7818  20.628   2.397  14.826
38004W        W 7819   2.873  32.889   4.755
38005W        W 7820  10.837   8.195   0.366
38006W        W 7821  43.425  39.554   3.863
38007W        W 7822  44.803  20.589  13.444
38008W        W 7823  23.685  15.135  10.941
38009W        W 7824   3.269  25.511   1.895
38010W        W 7825  10.151   3.244  11.014
38011W        W 7826  26.621  12.766  11.394
38012W        W 7827  32.404  34.040   3.649
38013W        W 7828  38.511  15.275   4.265
38014W        W 7829   5.221  31.119   1.810
38015W        W 7830  31.919   2.950   0.864
38016W        W 7831  24.587  26.105  11.398
38017W        W 7832  30.067   2.871  11.112
38018W        W 7833  36.493  14.287  13.936
38019W        W 7834  24.598  13.619  12.457
38020W        W 7835   2.749   2.428  12.895
38021W        W 7836  36.415  32.089   3.263
38022W        W 7837  27.986  12.307   4.664
38023W        W 7838  24.595  16.161  11.433
38024W        W 7839   7.733  24.022  14.898
38025W        W 7840  42.820  40.855  13.370
38026W        W 7841  37.042  14.593  10.580
38027W        W 7842  19.054  32.031   4.810
38028W        W 7843  20.531  16.301   1.714
38029W        W 7844  38.870  23.665   0.447
38030W        W 7845  11.273  22.132   0.948
38031W        W 7846  23.999  18.125  14.903
38032W        W 7847   4.205   9.347  13.914
38033W        W 7848  13.768  44.002   1.867
38034W        W 7849  27.676  19.717  12.462
38035W        W 7850  28.448  35.547   0.914
38036W        W 7851  33.546  35.993   9.976
38037W        W 7852  31.644   5.254   0.263
38038W        W 7853  17.742   8.813   3.156
38039W        W 7854   2.317  16.161  13.321
38040W        W 7855  41.999  22.621  11.433
38041W        W 7856   1.372  25.178  14.360
38042W        W 7857  13.128  39.359   4.189
38043W        W 7858  42.409  10.365   3.807
38044W        W 7859   4.918  32.105   1.926
38045W        W 7860  22.032   2.322   3.164
38046W        W 7861  21.033  39.983   2.184
38047W        W 7862  10.278  37.062  14.410
38048W        W 7863  22.089  10.248   1.851
38049W        W 7864  18.161  39.854   4.649
38050W        W 7865   1.741  23.135  12.345
38051W        W 7866   9.361  43.407  12.544
38052W        W 7867   0.852  36.021   3.286
38053W        W 7868   4.850  38.368   3.175
38054W        W 7869  44.474  35.581   0.753
38055W        W 7870  30.597   1.853   3.787
38056W        W 7871  11.715  16.608   3.840
38057W        W 7872  15.284  37.350   2.837
38058W        W 7873  28.597  31.016   0.932
38059W        W 7874  25.962   9.330  10.429
38060W        W 7875  41.001  42.930  13.883
38061W        W 7876  41.475  23.045   1.765
38062W        W 7877  20.210  15.685   0.909
38063W        W 7878  22.654  20.532   3.145
38064W        W 7879   7.301   7.756   4.265
38065W        W 7880  15.620  13.728   3.363
38066W        W 7881  37.513   6.364  13.335
38067W        W 7882   6.915  38.464  14.919
38068W        W 7883  35.523  23.695   2.276
38069W        W 7884  29.449   9.261  14.851
38070W        W 7885  42.387  13.260  11.479
38071W        W 7886  31.925  14.789  10.518
38072W        W 7887  13.739  11.659   0.337
38073W        W 7888  33.021  19.060   3.310
38074W        W 7889  43.985   9.650   0.894
38075W        W 7890  33.988  38.387   4.164
38076W        W 7891  14.653  35.364   0.334
38077W        W 7892  23.082   2.861   4.137
38078W        W 7893  40.435  19.626   2.679
38079W        W 7894  12.302  27.976  12.422
38080W        W 7895  38.384  43.874  12.572
38081W        W 7896  44.470  21.133   1.888
38082W        W 7897   9.153  25.640  14.450
38083W        W 7898  26.091  36.007  14.371
38084W        W 7899  21.023   1.356   0.358
38085W        W 7900   8.343  41.879   3.368
38086W        W 7901  30.513   0.411   2.294
38087W        W 7902  25.986   1.949  10.913
38088W        W 7903  43.514   4.436   4.257
38089W        W 7904  35.527  24.985   0.459
38090W        W 7905   4.248   6.325  11.597
38091W        W 7906  15.111  19.124  12.881
38092W        W 7907  16.295  11.716   9.976
38093W        W 7908   2.779   7.402   2.777
38094W        W 7909  23.589   0.825   4.622
38095W        W 7910  19.146  39.452   4.153
38096W        W 7911  35.554  11.219  10.980
38097W        W 7912  34.866  43.418   0.757
38098W        W 7913  44.441  42.370  12.579
38099W        W 7914  17.640  11.847  10.969
38100W        W 7915  21.033  13.252  10.465
38101W        W 7916  28.599   5.203   1.242
38102W        W 7917  12.705  20.578  14.867
38103W        W 7918  31.072  32.554  13.387
38104W        W 7919   3.936  36.953  13.955
38105W        W 7920  10.821  18.778  14.393
38106W        W 7921  20.568   9.209   2.869
38107W        W 7922  22.696  43.828   0.353
38108W        W 7923  29.477  21.173   2.191
38109W        W 7924  27.180  20.582  10.437
38110W        W 7925  16.662   3.266   9.993
38111W        W 7926   1.280   5.812   4.180
38112W        W 7927  13.701  36.084  13.912
38113W        W 7928  25.619  20.625   1.696
38114W        W 7929  27.613  11.222  10.462
38115W        W 7930  44.302  38.907   2.772
38116W        W 7931   7.327  23.595  14.291
38117W        W 7932  19.665  33.406   1.233
38118W        W 7933  42.802  26.164  12.900
38119W        W 7934  25.574  38.010  12.405
38120W        W 7935  28.557  27.037   0.758
38121W        W 7936   1.417  25.027   0.353
38122W        W 7937   3.228  25.661   2.375
38123W        W 7938  10.367   6.364   0.757
38124W        W 7939  18.171   4.311  14.838
38125W        W 7940   6.261   9.200   4.681
38126W        W 7941  28.981  24.685  10.955
38127W        W 7942  42.317  18.287   2.749
38128W        W 7943  29.090  28.609  14.343
38129W        W 7944  22.690  30.994   1.746
38130W        W 7945  18.617  42.785  11.963
38131W        W 7946  34.941  35.921   5.193
38132W        W 7947   5.847  18.737  11.559
38133W        W 7948   3.856  31.995   2.771
38134W        W 7949   3.886  43.829   0.906
38135W        W 7950  28.555  38.535  12.471
38136W        W 7951   1.913  44.272  11.549
38137W        W 7952   1.325  38.433  13.527
38138W        W 7953   7.743   9.713   3.298
38139W        W 7954  26.982  38.052   3.213
38140W        W 7955   7.851  23.572   0.398
38141W        W 7956  13.693  18.656  10.632
38142W        W 7957   8.776  37.399   1.314
38143W        W 7958  42.846  38.893  11.512
38144W        W 7959   0.913   4.885  11.611
38145W        W 7960   0.258  33.568  12.969
38146W        W 7961  44.786  39.019  14.825
38147W        W 7962   2.279  42.988  11.022
38148W        W 7963  22.614  10.707   3.161
38149W        W 7964  27.468  21.135   3.160
38150W        W 7965  15.580   0.781  12.035
38151W        W 7966  13.210   1.737   4.114
38152W        W 7967  25.046   8.212   1.874
38153W        W 7968  29.590  27.129   3.328
38154W        W 7969  34.060   7.245   0.773
38155W        W 7970  24.081   9.363  12.564
38156W        W 7971  30.032  17.206   2.828
38157W        W 7972  15.210  11.143  11.572
38158W        W 7973   9.750  22.547  13.343
38159W        W 7974  26.669  21.108   3.783
38160W        W 7975   6.204   5.722   3.152
38161W        W 7976   6.390  16.700  11.554
38162W        W 7977   2.725  19.169   1.353
38163W        W 7978   5.248  34.563  10.450
38164W        W 7979  42.293  39.315  13.396
38165W        W 7980  17.651  41.876  14.816
38166W        W 7981  32.390   4.229   3.757
38167W        W 7982   2.379  20.606  12.025
38168W        W 7983  17.177  20.179   1.798
38169W        W 7984  20.641  23.987   2.783
38170W        W 7985  40.498   4.867   3.380
38171W        W 7986   2.453   6.234  11.465
38172W        W 7987  21.197   0.300  14.953
38173W        W 7988  27.609  27.042  12.991
38174W        W 7989   3.756  28.612   0.788
38175W        W 7990  21.155   9.781   2.308
38176W        W 7991  33.468   4.915   3.277
38177W        W 7992  34.436   4.822   0.840
38178W        W 7993  38.826  12.714   5.276
38179W        W 7994   7.801  40.449   0.472
38180W        W 7995  13.348  17.111   4.186
38181W        W 7996  20.624  30.952  14.002
38182W        W 7997   2.809   2.846  14.767
38183W        W 7998  30.073   1.353  10.411
38184W        W 7999   1.325  32.456  10.523
38185W        W 8000  32.909  41.309  12.363
38186W        W 8001  10.868  15.104  12.469
38187W        W 8002  18.646   5.430   4.230
38188W        W 8003  17.209  23.172   2.178
38189W        W 8004   7.206  21.188   3.278
38190W        W 8005  17.751  15.204  11.405
38191W        W 8006  10.208  36.076   2.306
38192W        W 8007  34.514  17.609   0.295
38193W        W 8008  13.759  13.153   2.396
38194W        W 8009   3.389   1.434   1.873
38195W        W 8010  32.424  40.481  13.435
38196W        W 8011  13.125  14.589  13.790
38197W        W 8012  24.657  24.590  12.559
38198W        W 8013  13.299  19.222  11.587
38199W        W 8014   9.257  29.664  12.979
38200W        W 8015  32.514  22.681   3.317
38201W        W 8016  17.264  34.943  13.866
38202W        W 8017   7.814  12.210   1.725
38203W        W 8018  28.000  11.788   0.462
38204W        W 8019  31.402  34.563  12.512
38205W        W 8020  40.951   9.756  13.910
38206W        W 8021   5.762  36.036  10.952
38207W        W 8022   4.247   6.267  12.394
38208W        W 8023  31.103   5.368  10.505
38209W        W 8024  20.209  38.003  10.614
38210W        W 8025  44.868  43.977  13.028
38211W        W 8026   3.745  32.089   4.286
38212W        W 8027  31.896  10.778  14.930
38213W        W 8028  12.689  21.613   0.272
38214W        W 8029  28.483  27.491  10.449
38215W        W 8030   1.808  30.437   1.895
38216W        W 8031  15.641  31.530   1.699
38217W        W 8032  32.896  10.822   4.306
38218W        W 8033   8.788  17.724  13.896
38219W        W 8034  22.042  37.851  11.571
38220W        W 8035  30.938  29.590  12.447
38221W        W 8036  35.993   9.254  12.988
38222W        W 8037  26.996  10.731   4.605
38223W        W 8038  12.845  14.659   2.189
38224W        W 8039  27.171  12.688   4.323
38225W        W 8040  30.970  42.857   4.783
38226W        W 8041   6.240  34.880   4.295
38227W        W 8042  10.666  33.018   1.421
38228W        W 8043  42.984  31.632   4.150
38229W        W 8044  40.411  11.371  11.889
38230W        W 8045  20.620  35.864  14.917
38231W        W 8046  41.433  15.806   4.632
38232W        W 8047  20.102  37.939   1.792
38233W        W 8048   7.173  13.636  13.802
38234W        W 8049  28.178  29.919  14.361
38235W        W 8050  23.140  23.661   2.413
38236W        W 8051  31.485  44.260   0.350
38237W        W 8052   2.746  38.955  11.029
38238W        W 8053  40.496  41.463  14.385
38239W        W 8054  28.607  32.112  14.877
38240W        W 8055  22.120   6.250   0.334
38241W        W 8056   5.892   2.407  12.016
38242W        W 8057  24.098  26.083  14.027
38243W        W 8058  25.975   2.885   3.717
38244W        W 8059  28.110  42.340   4.242
38245W        W 8060  31.081  13.307   0.382
38246W        W 8061   9.864  36.367  11.538
38247W        W 8062  44.319   4.398  14.767
38248W        W 8063  35.910   8.168  13.809
38249W        W 8064  39.933  14.242   4.214
38250W        W 8065  16.315  24.538   2.679
38251W        W 8066   6.191   8.381   0.922
38252W        W 8067  24.489  20.712  12.453
38253W        W 8068  20.761   1.255  13.321
38254W        W 8069  11.789  24.605   1.339
38255W        W 8070   6.680   5.833   3.335
38256W        W 8071  35.602  29.516   2.227
38257W        W 8072  43.322  40.472  11.587
38258W        W 8073  21.088  32.130  12.058
38259W        W 8074   7.409   4.277   2.862
38260W        W 8075  20.220   9.224  12.450
38261W        W 8076  23.532  12.163  14.981
38262W        W 8077  31.071  30.053   3.282
38263W        W 8078  20.669  34.613  11.586
38264W        W 8079   6.684   5.780  14.960
38265W        W 8080  40.395  37.976   2.680
38266W        W 8081   7.218  20.104  13.525
38267W        W 8082  17.125  12.803  12.841
38268W        W 8083  21.649  39.487   3.656
38269W        W 8084  37.437  25.015  13.496
38270W        W 8085  39.821  27.597  13.032
38271W        W 8086  40.871  42.496   0.343
38272W        W 8087   9.777  29.956  10.459
38273W        W 8088  18.230   8.180   4.304
38274W        W 8089   3.228  24.551   3.344
38275W        W 8090  17.630  42.948   3.786
38276W        W 8091  41.869  19.720  10.544
38277W        W 8092  40.359  28.679  14.990
38278W        W 8093  20.600   8.787  12.091
38279W        W 8094  43.328  27.184  13.443
38280W        W 8095   1.770  30.445  11.456
38281W        W 8096   3.238  24.549  13.374
38282W        W 8097  42.469  35.488  12.546
38283W        W 8098  11.726   9.155  13.316
38284W        W 8099   9.763  34.495  13.442
38285W        W 8100  19.284  42.956   0.838
38286W        W 8101  12.675   3.224  13.837
38287W        W 8102  19.163  34.923  11.489
38288W        W 8103  35.374  38.424  12.067
38289W        W 8104  17.612  14.796   1.847
38290W        W 8105  41.883  11.845  14.009
38291W        W 8106  35.489   4.444  13.863
38292W        W 8107  35.889  44.267   1.906
38293W        W 8108  10.346  26.608   4.631
38294W        W 8109  29.489  33.586  10.540
38295W        W 8110  43.895   7.802  11.415
38296W        W 8111  25.063  28.931   3.276
38297W        W 8112  26.053  29.029  14.441
38298W        W 8113   9.251  19.085  14.966
38299W        W 8114  40.002  44.888  11.382
38300W        W 8115  34.419  16.593   4.640
38301W        W 8116   1.793  28.484  13.990
38302W        W 8117  17.269  36.003   4.626
38303W        W 8118  32.511   2.883   2.807
38304W        W 8119  22.550  33.056  14.504
38305W        W 8120  36.437  11.321  13.514
38306W        W 8121  40.043  20.054  11.043
38307W        W 8122   3.405   0.362   1.716
38308W        W 8123   4.210   2.863   3.707
38309W        W 8124  19.247  15.149  10.644
38310W        W 8125  29.942  26.579   2.307
38311W        W 8126  28.186   3.820  10.640
38312W        W 8127  12.778  34.490  14.318
38313W        W 8128   5.344  22.034   0.873
38314W        W 8129  32.474  14.318   2.213
38315W        W 8130  24.225  26.980  14.314
38316W        W 8131  25.706  34.491  10.637
38317W        W 8132  29.495  28.163  10.481
38318W        W 8133  36.014  39.058   1.368
38319W        W 8134  35.934  26.054   4.136
38320W        W 8135   2.232  12.296  11.536
38321W        W 8136  26.986  16.645  14.025
38322W        W 8137   9.704  32.602  14.011
38323W        W 8138  19.120  11.678  11.517
38324W        W 8139  42.356  32.097   0.359
38325W        W 8140   4.772  13.629  13.510
38326W        W 8141  15.283  43.402  11.926
38327W        W 8142  39.368  11.354   2.662
38328W        W 8143  13.606  37.432   1.921
38329W        W 8144  21.595  42.354   2.898
38330W        W 8145  23.218  39.889   0.299
38331W        W 8146   5.921  25.139   1.398
38332W        W 8147  16.758  35.916   3.743
38333W        W 8148  37.572  37.524   3.195
38334W        W 8149   3.382   1.906  13.326
38335W        W 8150  42.978   3.334   0.790
38336W        W 8151  16.164  10.312  10.621
38337W        W 8152   1.306   5.335   0.816
38338W        W 8153  29.978  34.957  11.610
38339W        W 8154  15.265   0.800  10.930
38340W        W 8155  31.456   5.362  10.459
38341W        W 8156  21.665  31.021   1.785
38342W        W 8157  35.039  22.584   4.801
38343W        W 8158  23.150  35.496  10.561
38344W        W 8159  41.471   3.261   2.837
38345W        W 8160   9.807  41.933  10.476
38346W        W 8161  44.346  11.841  13.976
38347W        W 8162  26.557  19.105  14.868
38348W        W 8163  36.409  10.309  14.934
38349W        W 8164  21.622  42.853  12.862
38350W        W 8165   7.314  17.246   1.933
38351W        W 8166   6.884   3.883   4.773
38352W        W 8167  20.728  12.316   1.845
38353W        W 8168  12.309  28.627   1.737
38354W        W 8169  33.537  20.055   1.879
38355W        W 8170  23.542   7.837   1.844
38356W        W 8171  27.655  36.372  11.969
38357W        W 8172  18.546   4.406  12.393
38358W        W 8173  22.193  40.018  13.849
38359W        W 8174  32.065  14.202  14.869
38360W        W 8175  18.239  19.563  12.057
38361W        W 8176  33.425  20.555  11.460
38362W        W 8177  41.795  31.437  11.991
38363W        W 8178  44.757  36.853  12.567
38364W        W 8179  44.335   5.413   3.772
38365W        W 8180  31.443  13.254   1.868
38366W        W 8181  42.005  21.713  14.459
38367W        W 8182   4.274   7.693  12.549
38368W        W 8183   8.215   8.771  10.546
38369W        W 8184  19.247  21.141  12.026
38370W        W 8185  32.093  43.319  12.565
38371W        W 8186  38.413  26.038  14.891
38372W        W 8187  36.012  43.431  14.489
38373W        W 8188  29.105  22.204  12.561
38374W        W 8189  38.030  42.317   0.321
38375W        W 8190  38.861  33.027  14.769
38376W        W 8191  26.193  16.578  11.064
38377W        W 8192  15.201   8.197  10.404
38378W        W 8193  19.735   6.916   0.383
38379W        W 8194   7.343  27.486   1.399
38380W        W 8195  22.535  36.477   2.235
38381W        W 8196  34.522  43.297  14.389
38382W        W 8197  37.980   2.258   3.376
38383W        W 8198  35.106  31.559   0.761
38384W        W 8199   5.315  15.109   0.853
38385W        W 8200  44.941   5.410   0.367
38386W        W 8201  19.536  35.861   1.797
38387W        W 8202  26.503  20.700   0.843
38388W        W 8203   2.732  17.731  10.965
38389W        W 8204  37.494  22.100   4.144
38390W        W 8205   4.419  29.522   4.150
38391W        W 8206  44.986  17.789  11.987
38392W        W 8207  16.131   6.770  14.351
38393W        W 8208  17.798   7.745  10.636
38394W        W 8209  27.503  28.480   2.769
38395W        W 8210  33.528  18.651   2.323
38396W        W 8211  35.462  23.676   1.223
38397W        W 8212  27.003  19.172   0.347
38398W        W 8213   2.798  44.761   0.773
38399W        W 8214  12.769  19.722   5.309
38400W        W 8215  23.586  20.634  13.436
38401W        W 8216  17.616  44.304   0.892
38402W        W 8217  17.620  11.626  12.461
38403W        W 8218  29.667  19.657  11.102
38404W        W 8219  22.608   7.201  12.076
38405W        W 8220   4.941  11.764   4.827
38406W        W 8221  27.536   9.367   4.787
38407W        W 8222  10.876  20.731   1.798
38408W        W 8223  21.122  43.435   3.353
38409W        W 8224  18.582  32.072  11.486
38410W        W 8225  18.283  37.572   1.854
38411W        W 8226  16.625  21.543   2.263
38412W        W 8227  22.660  34.606   1.216
38413W        W 8228  21.230  29.436   0.395
38414W        W 8229   1.752  21.258  12.825
38415W        W 8230  25.628  42.838   2.380
38416W        W 8231  30.416  16.800  14.848
38417W        W 8232   9.334  29.581  11.408
38418W        W 8233  32.104  24.572   4.673
38419W        W 8234  39.060  32.974   1.359
38420W        W 8235  29.018   0.913   4.210
38421W        W 8236  11.775   4.709  10.568
38422W        W 8237  32.061  42.866  12.905
38423W        W 8238   9.327  34.046  11.948
38424W        W 8239  33.919  23.587  14.769
38425W        W 8240   9.357   1.427   0.457
38426W        W 8241  31.112   7.259   1.314
38427W        W 8242  32.460   4.902   4.640
38428W        W 8243  37.877  19.197  13.945
38429W        W 8244   8.317  31.501  13.814
38430W        W 8245  15.807   9.303   3.711
38431W        W 8246   3.441   5.405  11.902
38432W        W 8247   1.757  10.278  12.555
38433W        W 8248  42.476  20.101   2.247
38434W        W 8249  36.538  14.335  11.504
38435W        W 8250  41.309   9.309  10.409
38436W        W 8251  39.878  21.228   4.160
38437W        W 8252   4.282   8.166   2.733
38438W        W 8253  20.757  15.224   2.698
38439W        W 8254  26.552  21.739   1.316
38440W        W 8255  34.999  30.153  10.558
38441W        W 8256  20.225   3.786  13.491
38442W        W 8257   4.429  14.661  13.414
38443W        W 8258  33.935  17.595   0.895
38444W        W 8259   1.760  26.006   0.428
38445W        W 8260  15.798  13.242  12.997
38446W        W 8261  28.607  33.527  12.406
38447W        W 8262  44.824   3.898  11.116
38448W        W 8263  23.055  26.157  11.533
38449W        W 8264   5.202  29.127  11.602
38450W        W 8265  18.204  33.892   0.421
38451W        W 8266   6.196   7.758  11.860
38452W        W 8267  26.599  40.871   2.248
38453W        W 8268   9.832  34.908  12.354
38454W        W 8269  11.767   2.741   0.462
38455W        W 8270  22.628  11.731   2.244
38456W        W 8271   5.921  39.330   1.318
38457W        W 8272  44.934  28.978   3.863
38458W        W 8273  27.962  24.531  12.931
38459W        W 8274   8.659  28.679  10.563
38460W        W 8275   1.956  31.061   2.307
38461W        W 8276  23.645   7.297   3.826
38462W        W 8277  34.417  24.129   4.224
38463W        W 8278   9.851  27.524  13.442
38464W        W 8279  35.551  17.189   0.932
38465W        W 8280  33.540  26.525   4.659
38466W        W 8281  28.480  28.622   0.785
38467W        W 8282  32.409  28.061  13.865
38468W        W 8283  30.160  11.266  12.031
38469W        W 8284  35.462  14.201   4.619
38470W        W 8285  23.095   7.805  14.428
38471W        W 8286  29.576  37.377   0.959
38472W        W 8287  32.979  30.510   1.258
38473W        W 8288   7.894   3.826  10.544
38474W        W 8289  41.918  32.539  11.570
38475W        W 8290  32.401   1.926  12.398
38476W        W 8291  11.673  12.626  10.472
38477W        W 8292  35.861  31.044   1.405
38478W        W 8293   3.803   9.666   4.792
38479W        W 8294  38.891  33.915  11.460
38480W        W 8295  21.119  43.352   9.999
38481W        W 8296  38.039  12.705   0.947
38482W        W 8297   0.463  11.709  13.819
38483W        W 8298  38.354  16.276  12.408
38484W        W 8299  40.486  27.494  11.949
38485W        W 8300  18.228  33.621  14.929
38486W        W 8301  29.954  39.843  14.769
38487W        W 8302  13.761  42.894   2.763
38488W        W 8303   8.858  26.614  13.413
38489W        W 8304   7.848  39.928  13.405
38490W        W 8305  36.078  35.551  14.794
38491W        W 8306  11.247  31.980   0.362
38492W        W 8307   9.734  18.738   0.257
38493W        W 8308   2.327  38.076   2.711
38494W        W 8309  15.772  19.218  14.798
38495W        W 8310   5.884   1.931  13.854
38496W        W 8311  18.253  15.637   2.820
38497W        W 8312  37.966  43.277  11.950
38498W        W 8313  32.939  14.335  11.511
38499W        W 8314  30.070  21.554   4.673
38500W        W 8315  19.265  12.280  11.412
38501W        W 8316  42.779  17.277  13.837
38502W        W 8317  20.594   3.457  12.097
38503W        W 8318  38.547  38.016   4.115
38504W        W 8319  39.027   6.352  12.000
38505W        W 8320   0.325  17.201   3.168
38506W        W 8321  26.662  38.886  10.596
38507W        W 8322  24.121  37.459   1.704
38508W        W 8323  27.076  14.810  13.948
38509W        W 8324  15.742   4.446  12.499
38510W        W 8325   5.321   9.884   4.759
38511W        W 8326  14.308  40.315   0.359
38512W        W 8327  43.888  21.686  13.333
38513W        W 8328  27.623  44.269   2.864
38514W        W 8329   2.958  37.866  13.339
38515W        W 8330  25.558  31.099  10.480
38516W        W 8331  40.413  36.471  11.448
38517W        W 8332  11.768   0.974   2.736
38518W        W 8333  22.507   2.466   3.275
38519W        W 8334  20.579   8.347  13.536
38520W        W 8335  17.735  17.676  11.483
38521W        W 8336  10.156  29.960  11.967
38522W        W 8337  13.751  20.769   1.892
38523W        W 8338  39.836   1.371   9.479
38524W        W 8339  19.719   0.938  14.435
38525W        W 8340  38.838  19.719   4.273
38526W        W 8341   5.427  26.511   1.934
38527W        W 8342   7.384  29.015  10.526
38528W        W 8343  25.596  29.568  12.570
38529W        W 8344  15.805  22.174  10.127
38530W        W 8345  33.606  27.601  11.859
38531W        W 8346  15.685  40.357  14.882
38532W        W 8347  34.045  11.365   3.266
38533W        W 8348  40.839  31.415   1.695
38534W        W 8349  16.640  27.471   3.224
38535W        W 8350  39.996  42.522   4.717
38536W        W 8351  21.225  14.646   0.257
38537W        W 8352   1.288  29.011   0.749
38538W        W 8353  23.544  33.535  12.356
38539W        W 8354  19.612  14.139  11.943
38540W        W 8355   1.733  23.117   4.821
38541W        W 8356   2.891  43.992  11.450
38542W        W 8357   8.255   3.327   1.422
38543W        W 8358   5.899  16.122  10.477
38544W        W 8359  26.175  18.640  12.419
38545W        W 8360   4.893  20.045  10.140
38546W        W 8361  17.115  31.554   4.155
38547W        W 8362   5.832  30.431   1.368
38548W        W 8363  21.588   9.200  11.089
38549W        W 8364  34.575  28.668  10.522
38550W        W 8365  23.731  26.466   0.390
38551W        W 8366  12.336  33.906   1.291
38552W        W 8367   2.237   1.961  11.056
38553W        W 8368  22.728   8.182   2.367
38554W        W 8369  29.041  25.496   2.339
38555W        W 8370   3.409   8.252  14.888
38556W        W 8371  36.375  15.706   2.683
38557W        W 8372  36.069  16.110   3.366
38558W        W 8373   4.802  33.001   2.409
38559W        W 8374  22.251  13.267  14.485
38560W        W 8375   4.298  40.976   0.729
38561W        W 8376  34.957   4.817  12.576
38562W        W 8377  14.595  40.439  13.398
38563W        W 8378   1.736  35.929  13.938
38564W        W 8379   8.399  18.587   4.614
38565W        W 8380  38.482   6.915   0.265
38566W        W 8381  44.867   6.901  10.484
38567W        W 8382   5.410  15.151   1.815
38568W        W 8383   0.843  15.639   5.273
38569W        W 8384  34.885  23.558  11.569
38570W        W 8385  15.294  13.682  12.451
38571W        W 8386  24.622   7.764  13.362
38572W        W 8387   9.658  20.061   0.441
38573W        W 8388   4.756   6.737   2.811
38574W        W 8389  20.034  28.563   3.241
38575W        W 8390  27.948  36.932  13.541
38576W        W 8391  37.002   1.462  14.370
38577W        W 8392  19.774  18.187   3.181
38578W        W 8393  22.149  22.707  10.913
38579W        W 8394  24.719   6.192   3.164
38580W        W 8395  16.126   3.829   2.729
38581W        W 8396  21.659  37.535   1.800
38582W        W 8397  14.305  40.493   1.219
38583W        W 8398  42.915   7.337  14.459
38584W        W 8399  43.495   4.294   1.817
38585W        W 8400  28.973  12.806   4.720
38586W        W 8401  31.076   7.719   0.929
38587W        W 8402  39.407  15.769  10.546
38588W        W 8403   2.862   5.344  10.927
38589W        W 8404  40.358  30.060   4.643
38590W        W 8405  30.489  33.578  12.918
38591W        W 8406  29.647  27.596  11.933
38592W        W 8407  21.256   6.918   3.219
38593W        W 8408   8.886  14.194   3.680
38594W        W 8409  42.818  26.072   2.229
38595W        W 8410  22.538  25.511  14.437
38596W        W 8411  17.083  11.625   5.137
38597W        W 8412   6.241   5.335   4.751
38598W        W 8413   9.284  25.096   0.285
38599W        W 8414   5.699  22.054  11.478
38600W        W 8415  42.364   5.847   0.867
38601W        W 8416  30.577   4.707   0.759
38602W        W 8417   6.695  25.653  11.007
38603W        W 8418  24.584   6.682  13.434
38604W        W 8419  36.405  37.509   5.306
38605W        W 8420   8.169  33.958   4.727
38606W        W 8421  19.704  25.704  12.392
38607W        W 8422   1.464   4.944   1.750
38608W        W 8423   7.389  20.271  11.028
38609W        W 8424   5.740  11.794   2.189
38610W        W 8425  37.502  32.478   0.421
38611W        W 8426   5.331   0.753  12.479
38612W        W 8427   9.783  31.009   4.118
38613W        W 8428   2.754  28.937  14.821
38614W        W 8429  19.774  10.867  13.471
38615W        W 8430  21.044   5.692   3.181
38616W        W 8431  16.623  37.464   3.339
38617W        W 8432  27.944  32.055   0.794
38618W        W 8433  23.992  22.719  12.006
38619W        W 8434  20.205  32.898   3.374
38620W        W 8435  28.470   6.717   2.180
38621W        W 8436   6.865  41.849   1.860
38622W        W 8437   9.662   5.199   3.637
38623W        W 8438  16.659  41.293   1.932
38624W        W 8439  27.968  40.370   0.943
38625W        W 8440  25.992  30.024  14.767
38626W        W 8441   0.459  19.685  11.417
38627W        W 8442  16.165  35.524  12.383
38628W        W 8443  32.534  18.271   2.742
38629W        W 8444  18.252  29.989   2.406
38630W        W 8445  30.928  40.918  14.879
38631W        W 8446   2.435  22.544  12.088
38632W        W 8447  20.714  10.821  13.823
38633W        W 8448  12.297   5.881   3.244
38634W        W 8449   0.817  17.140   2.342
38635W        W 8450  30.638  33.578   1.415
38636W        W 8451  32.442  13.674  14.997
38637W        W 8452  17.597   8.866  10.475
38638W        W 8453  19.189  14.208  13.946
38639W        W 8454  22.064   8.870  11.011
38640W        W 8455   7.356   4.303   4.716
38641W        W 8456  41.976  24.505   2.666
38642W        W 8457  37.915   9.384  14.995
38643W        W 8458  39.845  42.828   2.717
38644W        W 8459  14.711  13.631   3.233
38645W        W 8460   9.824   9.194   4.249
38646W        W 8461  14.158  28.627  12.037
38647W        W 8462  32.404  40.334  14.370
38648W        W 8463  12.297  12.846  13.336
38649W        W 8464  16.201  24.664  13.857
38650W        W 8465  15.264  32.988  11.971
38651W        W 8466  10.797  13.324   3.652
38652W        W 8467  25.031   4.765   0.754
38653W        W 8468   8.357  19.590  11.951
38654W        W 8469  12.310  27.562  13.420
38655W        W 8470  44.454  11.372   3.634
38656W        W 8471   0.281  14.616   3.282
38657W        W 8472  11.182  44.826  12.522
38658W        W 8473  29.937  16.120  11.026
38659W        W 8474  20.718  31.405  14.827
38660W        W 8475  18.213  17.736   0.859
38661W        W 8476  40.815  28.149  14.930
38662W        W 8477  15.595   5.356   2.267
38663W        W 8478  31.041  36.557  12.553
38664W        W 8479  44.268  25.610  13.406
38665W        W 8480  36.558  18.154  13.841
38666W        W 8481   9.257  39.419  13.488
38667W        W 8482  10.234  23.011  11.587
38668W        W 8483  22.051   3.790   1.809
38669W        W 8484  15.301  16.580   1.927
38670W        W 8485   6.400  14.594  13.535
38671W        W 8486  41.404   5.230  11.024
38672W        W 8487   4.435   3.452  13.041
38673W        W 8488  22.218   4.412  12.484
38674W        W 8489  22.123  11.221   1.344
38675W        W 8490   9.212  36.914   0.776
38676W        W 8491   9.824   8.661  10.429
38677W        W 8492  33.613   0.404  11.878
38678W        W 8493   4.771   6.823   4.352
38679W        W 8494  43.302  14.253  13.923
38680W        W 8495  18.658  43.798   2.321
38681W        W 8496  10.174  44.295  13.995
38682W        W 8497   8.665  27.514  10.596
38683W        W 8498  40.829  37.941   3.154
38684W        W 8499  12.339  25.525   4.237
38685W        W 8500  23.681  31.454  14.014
38686W        W 8501  39.526  34.519  11.060
38687W        W 8502  32.610  31.429  13.992
38688W        W 8503  40.420  22.641  11.954
38689W        W 8504  19.066  11.176   1.289
38690W        W 8505  25.180  37.024   2.213
38691W        W 8506  43.800   0.952  11.582
38692W        W 8507  21.721  29.996  11.606
38693W        W 8508  24.086   8.198   2.338
38694W        W 8509   6.393   5.267   2.412
38695W        W 8510   5.919  22.154   4.226
38696W        W 8511   2.330  19.230   3.309
38697W        W 8512  10.333  21.561  13.816
38698W        W 8513  14.820   1.249  14.919
38699W        W 8514  25.116  27.591   2.838
38700W        W 8515  22.703  42.819  14.000
38701W        W 8516   4.347  37.085  10.960
38702W        W 8517  12.126  11.339   0.779
38703W        W 8518  34.115  36.369   4.321
38704W        W 8519  36.913  29.569   2.889
38705W        W 8520  19.170   0.291  12.467
38706W        W 8521  44.841  21.642  10.634
38707W        W 8522  15.795  10.762  11.946
38708W        W 8523  38.496  12.274   2.265
38709W        W 8524  20.029  36.397  14.320
38710W        W 8525  17.211   7.390  13.928
38711W        W 8526  19.587  12.719   1.755
38712W        W 8527  34.465  21.194   4.839
38713W        W 8528  33.974  10.775  10.509
38714W        W 8529   5.742   7.808   2.809
38715W        W 8530  14.696  41.494   2.218
38716W        W 8531  20.687  42.355  12.893
38717W        W 8532  22.597  24.043   3.275
38718W        W 8533   2.448  43.388   4.721
38719W        W 8534  15.704   5.246   2.802
38720W        W 8535  33.502   6.902   3.682
38721W        W 8536  13.271  42.394  11.515
38722W        W 8537   1.748  39.820  11.376
38723W        W 8538  33.936  30.624   2.706
38724W        W 8539   8.381  11.286   3.206
38725W        W 8540  11.353  25.152  12.034
38726W        W 8541  38.824  20.084  12.009
38727W        W 8542  20.601  40.913   4.225
38728W        W 8543   0.900  28.456  13.415
38729W        W 8544  14.195  14.700   1.820
38730W        W 8545  18.096   9.201  12.543
38731W        W 8546  24.568  22.109   0.411
38732W        W 8547  41.537  29.103  11.541
38733W        W 8548   7.413  39.981   4.734
38734W        W 8549   8.293  31.485   2.204
38735W        W 8550   5.741  21.050   1.295
38736W        W 8551  34.530  16.625   3.192
38737W        W 8552  34.391  36.428   2.415
38738W        W 8553  21.618  21.022  13.996
38739W        W 8554  35.048  25.053   0.772
38740W        W 8555  24.114  40.951  13.887
38741W        W 8556  15.134  37.471  11.569
38742W        W 8557  44.353  37.405   3.326
38743W        W 8558  43.364  18.172   0.273
38744W        W 8559  39.985  33.025   4.796
38745W        W 8560  26.104  26.197   3.263
38746W        W 8561  29.525  18.607   1.700
38747W        W 8562  34.113  33.031   3.213
38748W        W 8563  13.215  26.594   3.184
38749W        W 8564  33.530  24.992   1.273
38750W        W 8565  38.933  25.604  11.087
38751W        W 8566  30.520   2.315  14.392
38752W        W 8567  44.327  39.900  14.501
38753W        W 8568   7.366  43.900  14.990
38754W        W 8569  39.330  40.823  13.421
38755W        W 8570  25.574  10.240   4.809
38756W        W 8571  36.488  27.613  13.416
38757W        W 8572   4.741  24.022  13.015
38758W        W 8573  18.649  14.242   3.750
38759W        W 8574  36.866  26.090  13.438
38760W        W 8575  19.173  43.275   3.146
38761W        W 8576  30.585  27.016  13.833
38762W        W 8577   1.911  27.111  11.470
38763W        W 8578   8.785  38.511  12.927
38764W        W 8579  22.716  37.470   0.370
38765W        W 8580  36.386  26.968  13.536
38766W        W 8581  11.839   5.778  13.903
38767W        W 8582   0.785  39.869   3.825
38768W        W 8583   7.674  23.120   4.612
38769W        W 8584  19.776  11.656   3.773
38770W        W 8585  13.799  41.474  12.578
38771W        W 8586  29.974  33.538  12.928
38772W        W 8587  11.352  33.587   2.899
38773W        W 8588  37.428   6.212   4.176
38774W        W 8589  40.376  17.560  14.506
38775W        W 8590   2.961  16.223   1.325
38776W        W 8591  21.698   6.416   3.351
38777W        W 8592  36.398   6.364   2.309
38778W        W 8593  10.264  19.545   1.367
38779W        W 8594  10.784  41.818   3.277
38780W        W 8595  27.169  21.718  11.044
38781W        W 8596  27.134  10.326   0.779
38782W        W 8597   7.683   2.937  11.100
38783W        W 8598  35.485  26.597  14.845
38784W        W 8599  42.370  24.633  13.513
38785W        W 8600  42.946  29.113   2.379
38786W        W 8601   6.880  15.725   0.421
38787W        W 8602   9.857  19.099   5.637
38788W        W 8603  11.645   8.801   3.818
38789W        W 8604   4.384   9.308  12.040
38790W        W 8605  44.334   0.310  10.903
38791W        W 8606  37.015  36.095   4.811
38792W        W 8607   7.901  34.046  11.502
38793W        W 8608  12.355  25.143   1.741
38794W        W 8609   0.405  29.433   2.760
38795W        W 8610  35.484  21.565  12.067
38796W        W 8611  41.436  25.118   2.840
38797W        W 8612  31.908  41.371   3.170
38798W        W 8613  12.840  14.712   3.223
38799W        W 8614   2.374   6.883   0.825
38800W        W 8615   1.364   7.176   4.340
38801W        W 8616  27.036  21.540  13.465
38802W        W 8617  12.839  18.240  14.760
38803W        W 8618   6.407  22.071   0.242
38804W        W 8619  39.431  41.825   4.675
38805W        W 8620  18.588  28.504  14.774
38806W        W 8621   6.708  26.050   2.334
38807W        W 8622  15.191   2.372   0.248
38808W        W 8623  15.602  42.334  13.851
38809W        W 8624  37.838  22.185   4.339
38810W        W 8625  39.408  40.397   4.329
38811W        W 8626  14.767  43.926  11.081
38812W        W 8627  38.516  25.496   2.729
38813W        W 8628  28.537  24.159   1.822
38814W        W 8629  15.136  25.069   4.728
38815W        W 8630   2.248  39.536   2.213
38816W        W 8631   5.267   3.284  12.924
38817W        W 8632  15.636  19.049   4.269
38818W        W 8633  38.019  37.897  10.543
38819W        W 8634  36.406  28.457   3.315
38820W        W 8635   4.317  37.909  14.976
38821W        W 8636   6.270  31.998  10.953
38822W        W 8637  20.536  43.446   2.714
38823W        W 8638  27.580  34.532   3.160
38824W        W 8639  37.938  42.375  12.852
38825W        W 8640  27.967  31.607  11.412
38826W        W 8641  35.552  19.747  10.557
38827W        W 8642  10.664   5.407   2.276
38828W        W 8643  23.572  34.014   0.787
38829W        W 8644  44.323  41.013  10.940
38830W        W 8645  29.101  39.520   2.274
38831W        W 8646   6.850  29.974   4.320
38832W        W 8647  43.458  27.602  13.467
38833W        W 8648  38.509   4.228  12.496
38834W        W 8649   5.393  39.373   0.305
38835W        W 8650  16.772  40.977   1.220
38836W        W 8651  35.573  21.607  14.504
38837W        W 8652  11.312   5.797   0.272
38838W        W 8653  30.465  13.642   0.317
38839W        W 8654   7.771  16.261  13.332
38840W        W 8655  34.106  43.386  11.441
38841W        W 8656   0.797  42.782  11.064
38842W        W 8657  11.176  25.669   2.867
38843W        W 8658  17.693   6.813  12.964
38844W        W 8659  26.006  32.984   1.792
38845W        W 8660  33.561  22.724  11.041
38846W        W 8661  23.184  24.168  10.968
38847W        W 8662  10.282  37.042   1.235
38848W        W 8663  38.997   3.744  11.067
38849W        W 8664  41.363  39.395  11.428
38850W        W 8665  27.068  11.174   2.673
38851W        W 8666  31.100   4.850  14.864
38852W        W 8667  11.688  21.606  14.855
38853W        W 8668  32.068  30.074   2.713
38854W        W 8669  37.336   6.186  10.534
38855W        W 8670  30.066  35.048   1.898
38856W        W 8671  36.512  42.845  12.922
38857W        W 8672  43.438  18.604  11.080
38858W        W 8673   3.450  21.546  13.986
38859W        W 8674   1.929  27.593  11.983
38860W        W 8675   4.392   4.398  13.524
38861W        W 8676  33.077  23.166   2.673
38862W        W 8677  19.534  12.221  12.540
38863W        W 8678  40.038  28.040  12.865
38864W        W 8679   2.888  41.525   3.384
38865W        W 8680  11.776  42.450  14.855
38866W        W 8681  27.058  39.369  10.418
38867W        W 8682  33.445   2.889  11.090
38868W        W 8683  43.949  19.682  10.610
38869W        W 8684   7.279  36.451  10.530
38870W        W 8685  39.854  22.618   0.726
38871W        W 8686   5.435  15.816   2.896
38872W        W 8687   7.231  22.581  14.498
38873W        W 8688  29.003  30.003   1.387
38874W        W 8689  41.451  38.479   0.917
38875W        W 8690  16.102   3.327  14.021
38876W        W 8691  18.166  21.601   1.441
38877W        W 8692  38.336  42.326  12.426
38878W        W 8693  40.963   5.747   4.671
38879W        W 8694  41.030  31.544   3.721
38880W        W 8695  39.517  14.241   1.778
38881W        W 8696  11.175  24.194  12.057
38882W        W 8697  20.187   0.862  12.061
38883W        W 8698  36.975  19.554   1.814
38884W        W 8699  13.716  32.094   1.427
38885W        W 8700  21.193  37.909  11.596
38886W        W 8701  27.506  22.223   0.426
38887W        W 8702  17.218  26.053   3.344
38888W        W 8703  29.174  19.640   1.922
38889W        W 8704  21.697   3.924   3.324
38890W        W 8705  40.390  30.086  14.832
38891W        W 8706  29.108  27.473  12.386
38892W        W 8707  31.506  19.687  10.948
38893W        W 8708  25.162  15.585  12.425
38894W        W 8709   8.697  34.996   3.201
38895W        W 8710  34.610  24.499   4.671
38896W        W 8711  25.032  22.662  14.019
38897W        W 8712  11.818  13.210   1.873
38898W        W 8713  42.937   6.425  10.530
38899W        W 8714  25.185  23.087  12.056
38900W        W 8715   0.387  30.063   1.295
38901W        W 8716  20.580  20.633   2.770
38902W        W 8717  14.762  14.269   4.684
38903W        W 8718  29.080  38.843   0.317
38904W        W 8719   3.875  41.449   1.732
38905W        W 8720  29.485   7.242  13.050
38906W        W 8721  27.173   1.831  12.944
38907W        W 8722  24.103  41.407  11.396
38908W        W 8723  32.960   3.868  14.292
38909W        W 8724  16.083  24.988   0.258
38910W        W 8725  18.715   2.911  14.874
38911W        W 8726  31.983  12.220  14.482
38912W        W 8727  23.680   9.155   0.431
38913W        W 8728  14.688  18.756  14.404
38914W        W 8729  30.147  28.644   2.764
38915W        W 8730  27.602   9.163  13.338
38916W        W 8731  32.448  30.414   3.159
38917W        W 8732  19.558  28.556  11.029
38918W        W 8733   2.965   6.310   3.312
38919W        W 8734  40.382  27.449   0.860
38920W        W 8735  27.951  29.476  13.909
38921W        W 8736   3.446  13.128  14.971
38922W        W 8737  23.144  36.472  10.599
38923W        W 8738  17.630  25.608  11.450
38924W        W 8739  32.550  30.081   1.386
38925W        W 8740  27.464  42.027   0.454
38926W        W 8741  17.082  32.489   2.317
38927W        W 8742  18.262  23.550   4.335
38928W        W 8743  44.774   0.947  14.016
38929W        W 8744  13.729  28.126  12.013
38930W        W 8745   8.887  33.954  11.001
38931W        W 8746  20.238  38.562   2.701
38932W        W 8747  20.106   1.860   1.316
38933W        W 8748  29.648  15.295   4.236
38934W        W 8749  10.843  25.048   2.769
38935W        W 8750   7.757  23.503   3.235
38936W        W 8751  27.450  43.271  12.048
38937W        W 8752  36.891  33.458  14.966
38938W        W 8753  37.475  20.755   2.843
38939W        W 8754  31.550  30.631   2.831
38940W        W 8755  18.070  15.150   4.312
38941W        W 8756  32.468  36.519   0.899
38942W        W 8757   5.356  33.951   0.335
38943W        W 8758   1.766   1.902  14.964
38944W        W 8759   6.423  40.049  10.442
38945W        W 8760  25.050  37.578   0.246
38946W        W 8761  35.957  13.809  13.887
38947W        W 8762  11.828   8.850  14.410
38948W        W 8763  20.529   7.290   3.780
38949W        W 8764  33.462   1.308   0.867
38950W        W 8765  24.178  40.427  10.035
38951W        W 8766  25.653  36.402   1.302
38952W        W 8767   4.863  18.626  13.829
38953W        W 8768   2.454  23.541   0.321
38954W        W 8769  27.625  30.445  12.386
38955W        W 8770   3.784  15.710  10.904
38956W        W 8771  22.021  19.041   9.972
38957W        W 8772   3.342   6.879   2.348
38958W        W 8773  23.710   2.887   0.854
38959W        W 8774   2.422   7.245   2.188
38960W        W 8775  18.058  29.560  12.994
38961W        W 8776  11.351  30.041   0.947
38962W        W 8777  11.149  41.929  14.466
38963W        W 8778  23.199  26.062  13.430
38964W        W 8779  36.499  29.920   4.160
38965W        W 8780  21.710   3.454   3.823
38966W        W 8781  15.691  40.521   5.322
38967W        W 8782   0.796  42.909  14.306
38968W        W 8783   2.337  30.522   3.797
38969W        W 8784   3.800  44.294  14.435
38970W        W 8785  30.640  32.901  14.030
38971W        W 8786  29.063  36.860  13.307
38972W        W 8787  14.188  23.636  14.430
38973W        W 8788   9.242   5.241   4.809
38974W        W 8789   4.258  24.561  14.932
38975W        W 8790  27.676  30.147  11.414
38976W        W 8791  35.013  27.184  13.906
38977W        W 8792   0.412   5.748  11.061
38978W        W 8793   5.195   4.289   1.349
38979W        W 8794   0.468   3.268  12.875
38980W        W 8795  39.044  14.217  11.972
38981W        W 8796  43.905  38.444  13.514
38982W        W 8797  16.145  41.909  13.835
38983W        W 8798  21.135  18.637  13.530
38984W        W 8799   0.459   8.205  13.032
38985W        W 8800  26.102  39.832   2.196
38986W        W 8801  40.406  23.153  10.531
38987W        W 8802  14.331  33.556  14.864
38988W        W 8803  19.671  34.473  14.768
38989W        W 8804  39.316  14.700  10.465
38990W        W 8805   3.461  44.953   2.306
38991W        W 8806   8.782  33.982  13.404
38992W        W 8807   0.842  12.738   2.798
38993W        W 8808  34.000   1.417   3.198
38994W        W 8809  38.913   5.824  11.864
38995W        W 8810  34.374  28.549   2.789
38996W        W 8811  33.542  35.562  14.847
38997W        W 8812  32.611  43.455   1.236
38998W        W 8813  32.006  42.928  11.435
38999W        W 8814  42.794  36.909  11.437
39000W        W 8815   0.905  40.834   2.831
39001W        W 8816  39.843  30.450  13.370
39002W        W 8817  34.877   0.913   1.696
39003W        W 8818  22.177   7.177   4.644
39004W        W 8819  23.030  32.001   2.303
39005W        W 8820   6.295  17.558  14.316
39006W        W 8821   8.314   8.693  12.828
39007W        W 8822  19.610  13.137   0.794
39008W        W 8823  17.796   0.316   1.876
39009W        W 8824  40.503  31.626   1.240
39010W        W 8825  11.206  39.928   2.860
39011W        W 8826  20.254  31.952   3.844
39012W        W 8827  16.269  25.682   3.157
39013W        W 8828   1.809  31.416   2.307
39014W        W 8829  25.666  24.076   3.868
39015W        W 8830  38.042  28.119  12.571
39016W        W 8831  32.954  21.061   2.229
39017W        W 8832  36.552  22.649   2.184
39018W        W 8833  14.119   0.419  12.456
39019W        W 8834  24.641   9.378   3.382
39020W        W 8835  32.122  11.622  14.412
39021W        W 8836  38.492  43.942   2.189
39022W        W 8837  39.559  21.048  14.391
39023W        W 8838  25.036  11.845  11.901
39024W        W 8839  12.170  14.733  12.448
39025W        W 8840  31.425  32.531  11.909
39026W        W 8841  13.116   3.435   3.232
39027W        W 8842  29.613  38.449  13.854
39028W        W 8843  38.543   1.380   1.850
39029W        W 8844  11.189   8.225   4.178
39030W        W 8845   3.714  25.158  12.876
39031W        W 8846  44.769  17.235  12.356
39032W        W 8847  19.113  43.874  13.793
39033W        W 8848  15.315  40.988   1.781
39034W        W 8849   9.191  19.556   2.315
39035W        W 8850  17.610  10.265   9.985
39036W        W 8851   5.927  28.678   4.328
39037W        W 8852  29.510  21.755   1.328
39038W        W 8853   8.889  26.523  11.867
39039W        W 8854  11.849  16.780  10.077
39040W        W 8855  40.466  31.952   4.220
39041W        W 8856   3.428  26.984  12.975
39042W        W 8857   7.388   2.448   2.222
39043W        W 8858   5.264   0.356   0.274
39044W        W 8859  25.593  26.562   1.384
39045W        W 8860   7.867  23.492   5.145
39046W        W 8861  28.012  15.254  11.905
39047W        W 8862  41.307  30.998   4.269
39048W        W 8863  40.898  25.678   2.222
39049W        W 8864  28.162   7.781  13.886
39050W        W 8865  31.900  24.060  10.490
39051W        W 8866   8.190  29.561  12.942
39052W        W 8867   4.437  29.463  11.946
39053W        W 8868  21.638  14.329  12.033
39054W        W 8869   1.308  32.491  13.794
39055W        W 8870  16.758  33.548  10.540
39056W        W 8871  35.104   5.432  10.989
39057W        W 8872  35.386   8.854  12.422
39058W        W 8873  10.696  26.467  10.454
39059W        W 8874  30.571  17.192   2.698
39060W        W 8875  25.188   4.732   0.368
39061W        W 8876   3.392  18.217  11.971
39062W        W 8877  12.349  23.675   0.915
39063W        W 8878   5.399  33.511  13.829
39064W        W 8879  28.140  32.411  10.635
39065W        W 8880   9.766   4.228  12.988
39066W        W 8881  33.507  29.506   0.734
39067W        W 8882  39.023   6.716   0.334
39068W        W 8883  12.750  41.879  12.545
39069W        W 8884   0.744  21.629  14.862
39070W        W 8885  24.721  27.465  11.016
39071W        W 8886  22.570   7.175  13.896
39072W        W 8887  25.590   8.749  14.850
39073W        W 8888  24.089  21.149  10.641
39074W        W 8889   4.910  30.422   5.124
39075W        W 8890  32.459  16.260  10.625
39076W        W 8891  15.684  27.689  12.422
39077W        W 8892   3.365  34.550   2.406
39078W        W 8893  24.062  10.301   2.286
39079W        W 8894   1.918  31.521  14.457
39080W        W 8895  25.216  26.553   3.281
39081W        W 8896  12.238   9.358   4.721
39082W        W 8897   1.372  16.651  13.334
39083W        W 8898   9.166  36.920  12.411
39084W        W 8899  10.716  38.977   4.270
39085W        W 8900  39.390  19.759  12.966
39086W        W 8901   2.245  44.293  14.381
39087W        W 8902  18.562  10.658  13.493
39088W        W 8903   3.248  20.534  12.081
39089W        W 8904   4.785  11.198   2.237
39090W        W 8905   9.271  37.469   5.319
39091W        W 8906  43.466  35.576  14.921
39092W        W 8907  31.122  28.512  11.557
39093W        W 8908  34.503  10.811   4.783
39094W        W 8909  32.441  23.537   3.855
39095W        W 8910   1.446  34.432   3.814
39096W        W 8911   1.895  38.056   0.466
39097W        W 8912  32.616   1.469   3.241
39098W        W 8913  11.175  15.681   4.790
39099W        W 8914  10.874  44.775  12.987
39100W        W 8915  20.526  23.585   4.281
39101W        W 8916  44.316  24.214  11.496
39102W        W 8917  31.569  21.235  10.427
39103W        W 8918  26.008  41.534   1.390
39104W        W 8919  25.616  19.657  14.509
39105W        W 8920   8.405  43.899   4.213
39106W        W 8921  29.143  20.586   2.348
39107W        W 8922  42.004  44.982   4.696
39108W        W 8923  25.492   8.311   0.358
39109W        W 8924  11.249   9.729   2.284
39110W        W 8925   6.185  35.476  14.384
39111W        W 8926   1.328  26.144  13.795
39112W        W 8927  16.714  44.912  13.517
39113W        W 8928  26.551  28.126  10.643
39114W        W 8929  11.833  26.008   1.233
39115W        W 8930  31.507  44.936   0.445
39116W        W 8931   1.934  44.407  14.465
39117W        W 8932  14.690  40.465   4.753
39118W        W 8933   7.787  14.752   0.387
39119W        W 8934  37.938  40.439   2.300
39120W        W 8935   4.918  10.732  10.558
39121W        W 8936  17.070   3.711  13.514
39122W        W 8937  32.618  35.070   4.160
39123W        W 8938  39.372   5.842  13.506
39124W        W 8939  36.854  23.208   0.321
39125W        W 8940  17.748  31.124  14.930
39126W        W 8941  37.865  38.343   2.239
39127W        W 8942  33.537  40.397   2.778
39128W        W 8943  30.632  19.707   4.295
39129W        W 8944  40.528  22.555  10.909
39130W        W 8945  11.333   9.680  13.958
39131W        W 8946  36.048  33.120   0.811
39132W        W 8947  20.719  44.966   2.371
39133W        W 8948  16.256  33.044   2.893
39134W        W 8949  30.060   1.459  11.941
39135W        W 8950  15.636   5.340   0.427
39136W        W 8951   1.410   9.723   0.404
39137W        W 8952   0.822  26.703   4.781
39138W        W 8953  13.844   8.861  13.521
39139W        W 8954   2.867  33.999  11.498
39140W        W 8955  24.118  31.119  12.542
39141W        W 8956  23.153  22.041  12.417
39142W        W 8957  13.145  18.162   1.907
39143W        W 8958  14.629  15.110  11.589
39144W        W 8959  28.173  38.840   5.309
39145W        W 8960  36.043  22.637   1.349
39146W        W 8961  40.895  19.100  12.085
39147W        W 8962  18.588  44.287   4.776
39148W        W 8963  33.060  30.121  13.443
39149W        W 8964   5.753  19.172  10.577
39150W        W 8965  31.583  44.482  11.929
39151W        W 8966   1.421  11.813   1.732
39152W        W 8967  39.543  42.383   3.347
39153W        W 8968  13.808  12.346  10.970
39154W        W 8969  30.519  38.328   1.372
39155W        W 8970  25.098  25.600  12.483
39156W        W 8971  43.412  27.586   1.784
39157W        W 8972  13.836  24.225   2.225
39158W        W 8973   8.749  36.518  12.993
39159W        W 8974  24.090  13.668   0.729
39160W        W 8975   1.738  24.038   1.358
39161W        W 8976  43.893   4.815   0.268
39162W        W 8977  27.154  28.452   3.253
39163W        W 8978  39.004   2.461  10.607
39164W        W 8979  44.359  26.965   3.733
39165W        W 8980  44.346  38.362   1.231
39166W        W 8981  39.834  37.956  10.436
39167W        W 8982  20.606  30.046  13.810
39168W        W 8983  35.370   1.278  10.584
39169W        W 8984   5.754  35.979   2.192
39170W        W 8985  28.567  33.446  13.441
39171W        W 8986  44.264  23.597   4.255
39172W        W 8987  11.214  30.613   4.242
39173W        W 8988  19.181  23.669  14.490
39174W        W 8989   4.861  29.966   3.684
39175W        W 8990  42.957   3.767   1.844
39176W        W 8991   8.823  42.022   1.752
39177W        W 8992  32.063   2.283  14.363
39178W        W 8993   7.346   4.865   1.754
39179W        W 8994  26.473  13.805  12.367
39180W        W 8995  29.458  19.558  14.951
39181W        W 8996  26.530  12.215   4.237
39182W        W 8997  38.828  24.510   4.240
39183W        W 8998  10.146  42.421   0.351
39184W        W 8999  23.990  20.712   1.933
39185W        W 9000  43.377  30.931  11.011
39186W        W 9001   0.379  17.677  10.562
39187W        W 9002  23.135  26.054  11.942
39188W        W 9003   8.293  39.851  11.913
39189W        W 9004  12.802  17.627   4.770
39190W        W 9005  36.960  30.487  11.440
39191W        W 9006  43.455  23.642   0.450
39192W        W 9007  18.205  11.763   0.859
39193W        W 9008  29.447   7.329  10.064
39194W        W 9009  43.969  16.126  14.320
39195W        W 9010  15.137  37.438  14.440
39196W        W 9011  25.658  41.849  12.871
39197W        W 9012  19.179   2.859   4.649
39198W        W 9013  30.989  12.332  11.094
39199W        W 9014  22.194   7.730  14.443
39200W        W 9015   9.307  40.500  14.971
39201W        W 9016  42.991   0.443   4.136
39202W        W 9017  18.065  35.409  14.979
39203W        W 9018  14.798   0.297  14.363
39204W        W 9019   7.293   0.941  14.977
39205W        W 9020  21.189   0.439   3.207
39206W        W 9021  35.497  40.831  11.048
39207W        W 9022  30.005  18.226   0.825
39208W        W 9023  12.839  34.527  11.115
39209W        W 9024  11.176  28.452   3.191
39210W        W 9025  37.946  40.465  13.866
39211W        W 9026  44.278   2.742   3.153
39212W        W 9027  18.250  41.425   0.935
39213W        W 9028  15.686  41.527  14.003
39214W        W 9029   0.316  30.956   0.829
39215W        W 9030  37.965  33.031  11.910
39216W        W 9031  17.696  28.582   1.362
39217W        W 9032  25.205  44.376  13.968
39218W        W 9033  11.647  37.470   1.877
39219W        W 9034  31.445  10.734   0.354
39220W        W 9035  11.196  32.916   4.716
39221W        W 9036   2.281  14.646  12.856
39222W        W 9037   0.468   7.715   1.368
39223W        W 9038  35.491  39.963  11.566
39224W        W 9039   6.842  30.512   0.758
39225W        W 9040  13.338  13.186   2.893
39226W        W 9041  22.249   0.938   1.928
39227W        W 9042  42.896  39.947  13.405
39228W        W 9043  42.389   8.870   1.256
39229W        W 9044  16.255  18.173   4.748
39230W        W 9045  11.807  35.398  13.364
39231W        W 9046   7.179   3.878  10.635
39232W        W 9047   0.301  28.448  14.813
39233W        W 9048  33.459   8.249   2.196
39234W        W 9049   8.282   0.873   4.713
39235W        W 9050  40.438   9.718  13.937
39236W        W 9051  10.790  39.459   0.465
39237W        W 9052   3.905  23.058   1.749
39238W        W 9053   5.379   6.724   3.850
39239W        W 9054  33.619  25.140   1.755
39240W        W 9055  28.100  41.383   0.809
39241W        W 9056  39.445  22.501  10.532
39242W        W 9057  30.013  42.811  13.968
39243W        W 9058  44.785   2.807   3.173
39244W        W 9059  37.851   4.813  14.025
39245W        W 9060  33.083  32.560   0.805
39246W        W 9061  35.530  34.043  12.527
39247W        W 9062  23.629  27.017  11.958
39248W        W 9063  19.202  35.407  11.103
39249W        W 9064  39.483  39.360   2.363
39250W        W 9065  32.418  17.203   2.730
39251W        W 9066   4.304  35.931  11.422
39252W        W 9067  44.347  10.842   2.831
39253W        W 9068  40.865  30.149  11.504
39254W        W 9069  23.154  35.497   0.480
39255W        W 9070  29.933  10.252  11.119
39256W        W 9071  29.635  13.248   4.150
39257W        W 9072   4.747  13.295   4.658
39258W        W 9073   1.954  44.278  12.514
39259W        W 9074  26.004  33.900   1.384
39260W        W 9075  43.841  28.984  12.487
39261W        W 9076  36.563   8.750  13.451
39262W        W 9077  11.128  14.623  11.034
39263W        W 9078   9.240  18.198   0.421
39264W        W 9079   6.313  16.203  11.886
39265W        W 9080  19.245   7.709   0.370
39266W        W 9081  29.614  34.942   4.269
39267W        W 9082   8.267  18.727  11.032
39268W        W 9083  31.005  33.436  11.912
39269W        W 9084  28.072  39.066   3.856
39270W        W 9085  21.071  23.609   3.269
39271W        W 9086  43.884  27.586   1.934
39272W        W 9087  39.330  36.477   4.671
39273W        W 9088  14.150  19.205  12.371
39274W        W 9089   2.835  43.504  12.429
39275W        W 9090  22.194   9.386  12.824
39276W        W 9091  39.378  29.041  14.978
39277W        W 9092   9.342  15.676  14.397
39278W        W 9093  18.625  43.368  12.939
39279W        W 9094  19.625   6.823  12.027
39280W        W 9095  31.902  39.920   4.166
39281W        W 9096   0.412  36.411   4.602
39282W        W 9097  36.566  44.917  13.408
39283W        W 9098   1.459  39.886   4.802
39284W        W 9099  42.871  41.478   2.330
39285W        W 9100  18.566   8.707  12.020
39286W        W 9101  16.180  36.013  11.910
39287W        W 9102  28.952  16.202   3.673
39288W        W 9103  43.918  23.685  13.810
39289W        W 9104  26.101   8.859  13.431
39290W        W 9105  34.965  35.971   1.748
39291W        W 9106   3.736  11.647   3.377
39292W        W 9107   6.387  20.160  12.507
39293W        W 9108   0.252  42.820  14.891
39294W        W 9109  18.262  17.275   2.707
39295W        W 9110  28.453  18.260   0.808
39296W        W 9111  20.190   2.249  13.036
39297W        W 9112   3.810  21.085   2.299
39298W        W 9113  26.067  12.796  11.443
39299W        W 9114  22.125  41.305  12.884
39300W        W 9115   5.216  26.153   0.786
39301W        W 9116  25.025   8.196   3.759
39302W        W 9117  29.423  14.615  13.819
39303W        W 9118  19.736   5.371  13.866
39304W        W 9119  25.047   7.900  10.942
39305W        W 9120  31.050  31.450   2.358
39306W        W 9121  15.613  33.528  14.457
39307W        W 9122   3.871  11.300   1.222
39308W        W 9123  42.791  25.504  14.864
39309W        W 9124  10.154  34.092   2.257
39310W        W 9125   3.791  19.244  12.858
39311W        W 9126   9.180  34.977  14.827
39312W        W 9127   0.432   1.854   3.699
39313W        W 9128   3.279  20.032   3.664
39314W        W 9129  41.353  21.223   2.773
39315W        W 9130  21.230  33.084  13.941
39316W        W 9131  41.892  14.737   3.772
39317W        W 9132  41.396  27.448  11.382
39318W        W 9133  42.854   0.791   2.666
39319W        W 9134  42.445   0.364   1.849
39320W        W 9135  24.223  34.525   2.736
39321W        W 9136  23.553  40.514   2.216
39322W        W 9137  35.892  14.727  10.412
39323W        W 9138  21.717  17.798   4.239
39324W        W 9139  35.500  20.575   2.213
39325W        W 9140  39.820  33.400   3.836
39326W        W 9141  13.806   3.345   2.319
39327W        W 9142  18.050  11.860  10.511
39328W        W 9143  29.029  31.469   4.789
39329W        W 9144   2.867  41.523   1.786
39330W        W 9145  33.037  32.583   4.793
39331W        W 9146  24.091  14.684  10.495
39332W        W 9147  40.843  14.771  13.888
39333W        W 9148  13.336  30.073  13.454
39334W        W 9149  29.078  27.979  14.879
39335W        W 9150   8.887  29.174   2.389
39336W        W 9151  15.628  32.015   2.181
39337W        W 9152  23.730   0.915  10.573
39338W        W 9153  29.022  12.200  12.842
39339W        W 9154  36.469  44.762   4.655
39340W        W 9155  29.636  43.811  10.443
39341W        W 9156  40.962  34.464   2.260
39342W        W 9157  43.493  39.881  14.309
39343W        W 9158  25.687  38.452   2.672
39344W        W 9159  36.376  36.011  13.876
39345W        W 9160  13.278   5.337  10.926
39346W        W 9161  17.227  32.462   1.817
39347W        W 9162  40.462  19.113   1.771
39348W        W 9163  30.996  20.763  13.836
39349W        W 9164  18.226  27.618   1.279
39350W        W 9165  39.455  13.234  14.395
39351W        W 9166  17.232  13.211   1.450
39352W        W 9167  30.630  31.520  14.974
39353W        W 9168  44.856  15.314   1.436
39354W        W 9169   5.824  40.009   4.144
39355W        W 9170   7.778  28.953   0.265
39356W        W 9171  31.604  18.623   1.438
39357W        W 9172  40.842  37.356   0.884
39358W        W 9173  43.361  37.988   1.307
39359W        W 9174  26.118  28.174   2.705
39360W        W 9175  10.640  17.105   4.309
39361W        W 9176   6.385  36.432  12.427
39362W        W 9177   5.250  42.950  10.023
39363W        W 9178  30.046   1.736  13.811
39364W        W 9179  18.566  39.423  12.519
39365W        W 9180  20.254  39.870  12.878
39366W        W 9181   1.360  20.177  13.548
39367W        W 9182   5.282  32.998  11.419
39368W        W 9183  11.332  28.173  13.929
39369W        W 9184   6.255  12.294  12.957
39370W        W 9185  18.130  24.069  13.852
39371W        W 9186   9.365   5.248   0.357
39372W        W 9187  38.070  44.779   4.711
39373W        W 9188  42.331  19.564   0.339
39374W        W 9189   8.307  43.269   4.334
39375W        W 9190   5.341  20.561   2.206
39376W        W 9191  27.940  23.106  12.447
39377W        W 9192  11.863  21.521   2.226
39378W        W 9193   5.839  37.990   0.285
39379W        W 9194   8.315  27.548  14.283
39380W        W 9195  25.637  19.704  11.391
39381W        W 9196  31.037   2.848   3.254
39382W        W 9197   8.378  29.126  12.961
39383W        W 9198  28.540  32.467  12.395
39384W        W 9199  34.060  13.661  12.413
39385W        W 9200  15.779  10.811   2.182
39386W        W 9201  11.357  42.854  10.425
39387W        W 9202  39.508  19.746   0.376
39388W        W 9203  19.639  26.578  13.339
39389W        W 9204  12.139  33.594  13.987
39390W        W 9205  28.006  36.845  11.003
39391W        W 9206  34.036  37.415  12.054
39392W        W 9207  36.348  16.621   0.832
39393W        W 9208  41.374  22.027   2.319
39394W        W 9209  36.355  36.962   3.196
39395W        W 9210  32.948  38.969  12.541
39396W        W 9211  24.672  30.929   4.743
39397W        W 9212   6.772  23.069   1.252
39398W        W 9213  12.633  30.101   0.866
39399W        W 9214  13.813  34.396   4.291
39400W        W 9215  18.654   3.882   3.311
39401W        W 9216  10.654  17.113   1.273
39402W        W 9217  29.543  38.505   3.763
39403W        W 9218   5.284  17.735  14.380
39404W        W 9219   4.804  34.097  12.373
39405W        W 9220  10.156  19.206   4.294
39406W        W 9221  44.923  13.316   4.162
39407W        W 9222  32.939  35.365   3.305
39408W        W 9223   2.723  37.002   3.298
39409W        W 9224  15.816  15.203  12.041
39410W        W 9225   9.883  24.108  13.963
39411W        W 9226  23.032  20.630  13.963
39412W        W 9227  37.959  34.112  11.576
39413W        W 9228  18.765  29.145  10.922
39414W        W 9229  15.682  33.061  14.396
39415W        W 9230  40.983  20.610  12.458
39416W        W 9231  42.824   9.747   1.264
39417W        W 9232  32.044  27.998   3.159
39418W        W 9233  39.425   4.707  11.915
39419W        W 9234  38.952  14.757  11.388
39420W        W 9235  37.994  43.953  12.998
39421W        W 9236   3.855  32.544   0.916
39422W        W 9237  20.569  16.073  14.879
39423W        W 9238  10.668   6.294   2.260
39424W        W 9239  25.516   6.329   3.203
39425W        W 9240  32.929  32.433  12.910
39426W        W 9241  31.494  34.072   0.779
39427W        W 9242  17.209  27.955   3.647
39428W        W 9243   8.280   5.300   2.287
39429W        W 9244   9.833  28.032   4.119
39430W        W 9245  40.824   4.277  13.395
39431W        W 9246  27.008  21.244   1.836
39432W        W 9247   0.920   3.263  10.558
39433W        W 9248  34.018   5.932   4.692
39434W        W 9249  14.133  33.549   4.836
39435W        W 9250  12.702  14.634  13.849
39436W        W 9251  13.279  17.592  13.987
39437W        W 9252  10.261  43.959  11.552
39438W        W 9253  18.643   4.930   0.862
39439W        W 9254  39.830  32.464  12.966
39440W        W 9255  24.071  39.007   2.370
39441W        W 9256  27.648   8.358  12.416
39442W        W 9257   0.813  32.971  12.095
39443W        W 9258  30.156   8.329   1.748
39444W        W 9259  22.227   5.405  13.432
39445W        W 9260   8.819  40.043  14.835
39446W        W 9261  20.619  37.980  14.953
39447W        W 9262   6.422  39.840  14.407
39448W        W 9263   8.885  24.005   2.896
39449W        W 9264  26.084   4.420   2.725
39450W        W 9265  32.890  17.304  11.529
39451W        W 9266   0.321  11.258   0.348
39452W        W 9267  36.538  29.929  13.343
39453W        W 9268   6.362   0.391   2.818
39454W        W 9269  40.516   7.725  10.504
39455W        W 9270  43.446  35.013  10.989
39456W        W 9271  11.206  32.982   1.694
39457W        W 9272  38.011  38.556  10.464
39458W        W 9273  34.517   6.831  13.447
39459W        W 9274  13.274  15.616   3.666
39460W        W 9275  13.734  25.558   4.195
39461W        W 9276  24.182   1.956   3.164
39462W        W 9277  41.883   5.764   3.828
39463W        W 9278  25.503  38.519  14.992
39464W        W 9279  16.668  38.502  14.018
39465W        W 9280   1.259  34.107   0.424
39466W        W 9281  14.668  28.028  11.887
39467W        W 9282  10.362  42.445   0.954
39468W        W 9283  19.094  21.054   3.382
39469W        W 9284   1.861   4.238  10.460
39470W        W 9285  23.105  37.062   3.346
39471W        W 9286  14.691   3.398   5.174
39472W        W 9287  21.143  30.092  13.436
39473W        W 9288  36.900   4.305   1.708
39474W        W 9289   7.315  13.205   0.397
39475W        W 9290  14.661  34.082   4.325
39476W        W 9291  29.602  33.925   0.775
39477W        W 9292  17.225  19.204  11.970
39478W        W 9293  12.645  27.486   2.305
39479W        W 9294   4.430   3.391  12.391
39480W        W 9295   2.442   5.368  10.456
39481W        W 9296  16.567  22.618  11.434
39482W        W 9297  24.622   6.377   1.239
39483W        W 9298  20.762   3.940  13.480
39484W        W 9299  41.854  12.754   2.883
39485W        W 9300  30.488   8.364   0.249
39486W        W 9301  34.430   9.245  13.321
39487W        W 9302  44.409  26.539   0.824
39488W        W 9303  18.654  26.604  12.922
39489W        W 9304  41.997   7.695   5.116
39490W        W 9305  40.442   4.810   4.352
39491W        W 9306  18.617  22.747  12.973
39492W        W 9307  37.563  10.671  10.981
39493W        W 9308  32.536  24.014  13.468
39494W        W 9309  24.487   1.843  12.096
39495W        W 9310  23.040  17.648  13.517
39496W        W 9311  11.138  10.811  10.437
39497W        W 9312  33.495  30.993   2.745
39498W        W 9313  35.871  31.647   5.132
39499W        W 9314  24.213  15.649   5.166
39500W        W 9315  20.599  44.471   4.131
39501W        W 9316  20.105  39.002  14.892
39502W        W 9317  28.576  37.425  10.561
39503W        W 9318  24.682  25.503  12.978
39504W        W 9319  11.754  25.509  14.318
39505W        W 9320  26.134  25.553  13.943
39506W        W 9321  40.423  42.987  10.464
39507W        W 9322   8.713   3.801   4.200
39508W        W 9323  30.033  41.511  13.892
39509W        W 9324  31.907  15.790   4.627
39510W        W 9325  19.756  26.100  12.413
39511W        W 9326  12.643  22.032   1.238
39512W        W 9327   4.373  12.636  13.399
39513W        W 9328  28.045  34.107   1.413
39514W        W 9329   2.909  18.613  10.486
39515W        W 9330  15.283  34.904   0.820
39516W        W 9331  38.430  26.130   4.759
39517W        W 9332  12.778  13.186   4.346
39518W        W 9333  27.037   9.770   2.713
39519W        W 9334  23.581   9.368   2.789
39520W        W 9335  29.960   7.176  13.897
39521W        W 9336  35.489  20.762   1.370
39522W        W 9337  25.003  32.481   2.221
39523W        W 9338  29.509   1.914   4.293
39524W        W 9339  22.175  29.446  12.493
39525W        W 9340  22.542  13.179  13.388
39526W        W 9341  24.536  23.985   3.293
39527W        W 9342  36.848  39.425  11.063
39528W        W 9343   7.334  34.442  11.419
39529W        W 9344  35.370  23.114   1.839
39530W        W 9345   7.688  24.133   1.233
39531W        W 9346  35.952  35.037  12.922
39532W        W 9347   5.347  40.447   0.262
39533W        W 9348  31.013  44.940   3.794
39534W        W 9349  44.849   7.733  10.928
39535W        W 9350   5.339  38.910  11.391
39536W        W 9351  40.044   4.731  11.907
39537W        W 9352  11.834   2.269  14.992
39538W        W 9353   1.460  23.086  12.968
39539W        W 9354  27.143   1.759  14.448
39540W        W 9355  11.210  42.850   2.257
39541W        W 9356  27.948  24.123   4.724
39542W        W 9357  44.767  32.506   2.808
39543W        W 9358  22.021  16.696  13.908
39544W        W 9359  30.478  29.501   1.856
39545W        W 9360  31.424  11.257   1.761
39546W        W 9361  16.742  38.026  13.481
39547W        W 9362  26.960  38.539  11.907
39548W        W 9363  39.515   5.717  10.980
39549W        W 9364  16.671  27.015   2.735
39550W        W 9365   2.245  15.126   1.840
39551W        W 9366  36.958  25.534  10.576
39552W        W 9367  12.688  37.934  14.761
39553W        W 9368  29.936  24.119   0.358
39554W        W 9369  30.993  39.975   2.355
39555W        W 9370  32.945  33.621   4.624
39556W        W 9371  26.560  34.108  12.896
39557W        W 9372  41.358  13.840   5.131
39558W        W 9373   0.879  20.674   4.308
39559W        W 9374  27.686  21.092  14.383
39560W        W 9375   7.409  17.754  12.011
39561W        W 9376  27.519  21.698  11.898
39562W        W 9377  15.691  24.634   4.218
39563W        W 9378  27.077  18.212   2.863
39564W        W 9379   5.273  19.772  11.957
39565W        W 9380  41.481  41.416   0.305
39566W        W 9381   4.773  32.955   4.160
39567W        W 9382  36.498  31.039   5.752
39568W        W 9383  27.006  23.627  13.821
39569W        W 9384  28.673  24.697   0.827
39570W        W 9385  17.141  26.012  12.935
39571W        W 9386  34.918  28.589  13.427
39572W        W 9387  29.008  19.634   1.381
39573W        W 9388  21.087   0.842   3.281
39574W        W 9389  12.618  27.526   4.662
39575W        W 9390  35.416  22.624   3.781
39576W        W 9391  33.084  44.276  12.478
39577W        W 9392   9.839  42.427   3.856
39578W        W 9393  12.817  33.054  14.896
39579W        W 9394  25.986  19.716   3.287
39580W        W 9395  29.955  27.579   4.753
39581W        W 9396  34.421  35.542   4.645
39582W        W 9397  35.929   3.390   0.746
39583W        W 9398  36.025  26.687   0.928
39584W        W 9399   1.367   2.849  14.861
39585W        W 9400  13.719  15.622  10.924
39586W        W 9401   4.729  37.465  12.855
39587W        W 9402  12.245   9.672   2.378
39588W        W 9403  18.591  35.454   1.908
39589W        W 9404  40.371  29.096   4.117
39590W        W 9405  11.368  21.240   3.267
39591W        W 9406  24.680  26.473   5.111
39592W        W 9407   0.300  33.065  12.499
39593W        W 9408  28.475  37.403   0.255
39594W        W 9409  22.545  16.738   2.263
39595W        W 9410  42.380  40.474  10.484
39596W        W 9411  39.372   3.249  12.001
39597W        W 9412  23.019  20.117   1.700
39598W        W 9413  27.592  43.285  13.331
39599W        W 9414  13.299  12.215   4.119
39600W        W 9415  39.027  42.291   3.695
39601W        W 9416  39.560  12.843  11.406
39602W        W 9417  10.674  42.852   0.315
39603W        W 9418  22.711  12.249   2.298
39604W        W 9419   3.460  18.576   3.714
39605W        W 9420   3.887  37.408   2.889
39606W        W 9421  13.265   9.674   2.313
39607W        W 9422   6.426  14.112  14.762
39608W        W 9423  27.490  41.475   1.444
39609W        W 9424  27.966  20.753   1.432
39610W        W 9425  36.854  36.576   3.709
39611W        W 9426  26.003  16.126   2.788
39612W        W 9427  37.481  21.224  13.050
39613W        W 9428  22.555  42.345  11.563
39614W        W 9429  24.621  20.262   1.929
39615W        W 9430  25.500   8.900   5.245
39616W        W 9431  13.761  34.603  13.811
39617W        W 9432   9.885  38.029   3.361
39618W        W 9433  34.955  31.547   4.184
39619W        W 9434  37.452  21.553  14.032
39620W        W 9435  32.081   6.366  11.890
39621W        W 9436  14.112  28.656   0.336
39622W        W 9437  13.740  25.983  12.936
39623W        W 9438  10.719  13.668   4.316
39624W        W 9439  13.111   3.392   0.785
39625W        W 9440  22.660   7.880  10.541
39626W        W 9441  15.671  42.294   2.259
39627W        W 9442   1.364  28.546   3.288
39628W        W 9443  23.236  15.122  13.061
39629W        W 9444  33.018  14.330  10.600
39630W        W 9445  14.745  23.629   4.657
39631W        W 9446   0.933  24.043   3.260
39632W        W 9447  14.202  13.157  10.968
39633W        W 9448  25.673   7.357   3.809
39634W        W 9449  36.491  21.228  12.045
39635W        W 9450  14.701  13.121  14.861
39636W        W 9451  28.580  14.103   1.313
39637W        W 9452   2.806  10.724   1.768
39638W        W 9453  14.815   5.777   0.277
39639W        W 9454  12.262   9.319  14.822
39640W        W 9455  40.886  19.750   4.350
39641W        W 9456  27.010  21.263   3.263
39642W        W 9457  23.711  35.974   1.227
39643W        W 9458  36.473  26.130  14.928
39644W        W 9459  16.089  40.527  11.596
39645W        W 9460  30.473  27.071   2.685
39646W        W 9461  11.267  30.432   2.309
39647W        W 9462   2.855  16.098  11.928
39648W        W 9463   7.275  25.470   2.364
39649W        W 9464  27.142  30.063  10.627
39650W        W 9465   9.801  13.776   4.162
39651W        W 9466  26.984  34.055  10.467
39652W        W 9467  31.896  41.398  11.589
39653W        W 9468   6.708  22.129  11.546
39654W        W 9469  22.660  40.835   1.897
39655W        W 9470   6.412  39.914   3.269
39656W        W 9471  26.184  20.744  10.482
39657W        W 9472  44.809  19.720   2.785
39658W        W 9473   4.234   6.394   0.399
39659W        W 9474  24.176  22.064   3.331
39660W        W 9475  41.399  24.575   1.814
39661W        W 9476  21.532  16.091   1.230
39662W        W 9477  14.768  26.518  14.914
39663W        W 9478  32.573  38.827  10.455
39664W        W 9479  38.900   7.279   9.998
39665W        W 9480  42.006  17.717  12.504
39666W        W 9481  28.097   2.447   0.399
39667W        W 9482  41.919  29.440   0.354
39668W        W 9483  15.720  44.424   4.611
39669W        W 9484  11.685  37.055  10.422
39670W        W 9485  43.385  36.379  12.999
39671W        W 9486  10.290  42.379  14.856
39672W        W 9487  23.543  34.598   0.475
39673W        W 9488  38.508  36.573  14.983
39674W        W 9489   3.914  21.101   0.311
39675W        W 9490  16.584  28.981   0.858
39676W        W 9491  44.394  36.502  14.885
39677W        W 9492   1.402  25.551  14.380
39678W        W 9493  34.906  19.173   2.750
39679W        W 9494  32.500  40.522  13.834
39680W        W 9495  35.395  40.001  13.394
39681W        W 9496  18.641  39.895  14.912
39682W        W 9497  28.076  28.469   0.396
39683W        W 9498  27.997  26.624   1.328
39684W        W 9499  37.057  40.549  14.989
39685W        W 9500  24.645  21.219  13.882
39686W        W 9501   9.218  21.183  10.947
39687W        W 9502  34.107  31.006  12.828
39688W        W 9503   7.844  10.227  14.430
39689W        W 9504  26.567  19.754   0.377
39690W        W 9505  24.977  14.614  10.443
39691W        W 9506  30.590  16.654  13.513
39692W        W 9507   1.333  36.857   2.228
39693W        W 9508  22.655  39.467  11.115
39694W        W 9509  21.513   1.348   9.446
39695W        W 9510  20.068  27.085  11.024
39696W        W 9511   0.444  33.610   1.696
39697W        W 9512   1.333  37.561   4.695
39698W        W 9513   0.924  20.599   2.784
39699W        W 9514  18.116   1.361  12.960
39700W        W 9515   7.886   1.809   1.256
39701W        W 9516   2.327   3.819  14.951
39702W        W 9517  33.914  31.567   2.311
39703W        W 9518  25.003  14.643   5.177
39704W        W 9519  15.763  13.838   1.736
39705W        W 9520  25.984  40.918  13.041
39706W        W 9521   9.335  22.123  11.024
39707W        W 9522  10.807  22.206  14.982
39708W        W 9523  44.389  37.979   0.789
39709W        W 9524   8.691  26.638   4.789
39710W        W 9525  14.672   3.873  12.392
39711W        W 9526   3.414  37.057   3.746
39712W        W 9527  10.774  35.403   2.339
39713W        W 9528   3.232  35.542   1.912
39714W        W 9529  20.133   1.857  13.062
39715W        W 9530  25.692  41.320  10.414
39716W        W 9531   2.301  35.377   3.726
39717W        W 9532  34.530  40.409   4.723
39718W        W 9533  36.486  29.647   0.904
39719W        W 9534  29.601  17.133   1.388
39720W        W 9535  24.093   2.722  13.311
39721W        W 9536  11.128   2.840   1.718
39722W        W 9537   6.250   5.933   1.373
39723W        W 9538  24.017  22.519   0.336
39724W        W 9539  11.830  28.034  10.617
39725W        W 9540  25.690  40.397   4.161
39726W        W 9541  19.595  35.565   2.182
39727W        W 9542  38.457   8.172  11.080
39728W        W 9543  30.501  35.374  11.380
39729W        W 9544  13.720  36.005  14.866
39730W        W 9545  36.028  28.456  10.554
39731W        W 9546  24.540  44.353   2.841
39732W        W 9547   3.790   7.351   0.340
39733W        W 9548  12.853  44.820  11.606
39734W        W 9549  22.067   8.176  10.981
39735W        W 9550   2.738   6.829  11.605
39736W        W 9551  33.880  10.696   2.806
39737W        W 9552  33.924  42.443   0.753
39738W        W 9553  30.435   3.423  14.861
39739W        W 9554  15.260  26.551  11.001
39740W        W 9555  36.386  10.263  14.356
39741W        W 9556  33.004   5.903   3.192
39742W        W 9557  26.148  31.898   5.218
39743W        W 9558  40.877   3.738   2.269
39744W        W 9559   7.843   6.708   1.881
39745W        W 9560  37.473  34.012  13.034
39746W        W 9561  40.426  37.935  11.943
39747W        W 9562  25.032   7.345   2.698
39748W        W 9563  13.178  12.671   2.354
39749W        W 9564  18.189  35.905  14.798
39750W        W 9565   1.242  35.428  13.019
39751W        W 9566  41.431   0.345   5.184
39752W        W 9567   7.869  44.289  12.065
39753W        W 9568  24.063  32.076  10.101
39754W        W 9569  35.999  33.462   0.754
39755W        W 9570  33.108   2.402  12.041
39756W        W 9571  26.679  16.704   2.206
39757W        W 9572  14.724  41.537  12.043
39758W        W 9573  39.990  37.084   0.946
39759W        W 9574  37.883  30.639   2.180
39760W        W 9575  34.595   8.717  14.955
39761W        W 9576   2.307  26.105   4.205
39762W        W 9577  36.380  38.463   1.219
39763W        W 9578  35.976  23.156   1.296
39764W        W 9579   9.685  12.709  14.848
39765W        W 9580  21.614   0.834   0.359
39766W        W 9581  41.798   0.269  13.815
39767W        W 9582   4.938   7.694  14.369
39768W        W 9583  11.356  17.714   4.303
39769W        W 9584   8.274  30.479  11.881
39770W        W 9585  25.192  40.920   4.710
39771W        W 9586  27.196  40.304  11.934
39772W        W 9587  36.879  27.130   0.963
39773W        W 9588  42.484  36.452  11.390
39774W        W 9589  39.976  21.183  11.030
39775W        W 9590  38.871  26.092   1.890
39776W        W 9591  15.670  38.328  10.010
39777W        W 9592  27.536  13.776  10.543
39778W        W 9593  37.045  24.601  10.578
39779W        W 9594  18.086  38.429  12.464
39780W        W 9595  14.255  15.181  11.571
39781W        W 9596  16.149   5.438  14.761
39782W        W 9597  21.661  11.312  13.028
39783W        W 9598  40.465  35.943   1.278
39784W        W 9599   7.773  36.905   3.218
39785W        W 9600  10.152  15.282   4.731
39786W        W 9601  40.856  38.035   2.800
39787W        W 9602   2.425  40.868   3.343
39788W        W 9603  30.651  33.003   4.642
39789W        W 9604  19.646  44.944   2.713
39790W        W 9605  34.902  14.794   0.365
39791W        W 9606  43.401  35.554   1.819
39792W        W 9607  33.073   6.722   2.686
39793W        W 9608  20.139  36.020   2.300
39794W        W 9609  40.418  34.507   4.153
39795W        W 9610   4.267  44.378  12.482
39796W        W 9611  32.595   1.473  11.997
39797W        W 9612   9.159  33.403  11.078
39798W        W 9613  36.066  13.705   2.217
39799W        W 9614   4.220   8.745   1.408
39800W        W 9615  40.909  33.494  14.823
39801W        W 9616  22.580  35.583   1.908
39802W        W 9617  14.187  41.441   0.902
39803W        W 9618   5.400  24.617  12.960
39804W        W 9619  39.425   6.395   9.467
39805W        W 9620  16.238  19.134   3.759
39806W        W 9621   7.755  22.512   0.443
39807W        W 9622  15.662  25.580  13.393
39808W        W 9623  18.207   6.827   0.369
39809W        W 9624   9.273  34.953   0.479
39810W        W 9625   4.914   5.822   4.297
39811W        W 9626  17.255  44.898   3.338
39812W        W 9627  12.301  16.315   2.709
39813W        W 9628  33.928  11.184  14.455
39814W        W 9629  20.689   6.691   4.309
39815W        W 9630  23.116   8.818  11.528
39816W        W 9631  17.282  25.566   2.391
39817W        W 9632   2.399  43.911  12.911
39818W        W 9633  22.657  31.932   5.238
39819W        W 9634  31.512  31.427  12.455
39820W        W 9635  14.660  40.400   1.724
39821W        W 9636  16.721  42.407   0.327
39822W        W 9637  22.123  24.202  14.290
39823W        W 9638  36.021  37.998   0.792
39824W        W 9639  21.546  10.353  12.881
39825W        W 9640  33.081  42.879   2.740
39826W        W 9641  23.080  44.380   2.322
39827W        W 9642  28.542   3.874   0.268
39828W        W 9643  24.226  35.999   1.841
39829W        W 9644  28.064   0.402  12.843
39830W        W 9645  21.643  20.115   2.868
39831W        W 9646  20.183  42.982  14.801
39832W        W 9647  37.990  13.716   0.297
39833W        W 9648  18.172   6.687   2.320
39834W        W 9649  44.943   5.774  14.428
39835W        W 9650  11.150  25.546   1.252
39836W        W 9651  34.502   9.695  11.582
39837W        W 9652  25.545  16.578   3.854
39838W        W 9653   0.493   3.807   4.132
39839W        W 9654  16.179  32.083  12.938
39840W        W 9655  36.857  31.903  11.378
39841W        W 9656   0.327  31.560  11.981
39842W        W 9657  40.885   4.408   0.846
39843W        W 9658  43.483  25.493   3.306
39844W        W 9659  26.609  11.761  12.540
39845W        W 9660  43.002  18.780  13.022
39846W        W 9661  16.220  15.609   1.774
39847W        W 9662  33.040  32.622  13.522
39848W        W 9663  37.568  34.027   0.292
39849W        W 9664  24.106   7.234  10.511
39850W        W 9665  44.784  26.645  11.899
39851W        W 9666  18.755  31.638   1.344
39852W        W 9667  21.539  15.635  11.440
39853W        W 9668  35.474  11.682  10.416
39854W        W 9669  16.741   0.424  12.077
39855W        W 9670   9.209  17.555   1.318
39856W        W 9671  29.599  40.002  12.927
39857W        W 9672  35.516  18.163  10.452
39858W        W 9673  19.067   0.807  11.495
39859W        W 9674   7.384  12.638  13.470
39860W        W 9675  33.471  44.907   0.476
39861W        W 9676  33.125  42.343   4.267
39862W        W 9677   3.372  17.634   1.235
39863W        W 9678  19.667  25.621   4.753
39864W        W 9679  21.229  25.539   1.272
39865W        W 9680  31.962  16.082  11.877
39866W        W 9681   8.218  15.747   2.857
39867W        W 9682  38.074  29.140  14.318
39868W        W 9683  15.599  15.256   1.273
39869W        W 9684  34.921  22.660   1.451
39870W        W 9685  25.541  17.163   3.214
39871W        W 9686  21.649  27.128   4.801
39872W        W 9687   4.774  19.112  13.329
39873W        W 9688  19.226  15.641  10.961
39874W        W 9689  44.790  12.844   3.667
39875W        W 9690  43.393   0.961   0.377
39876W        W 9691  19.174  18.149   3.788
39877W        W 9692  18.666  11.780  12.391
39878W        W 9693   2.258  44.400   5.206
39879W        W 9694   8.188  43.978  11.068
39880W        W 9695  23.548  38.062  11.988
39881W        W 9696   1.945   9.780   3.800
39882W        W 9697  42.516  34.897  11.592
39883W        W 9698  18.761  28.106  10.986
39884W        W 9699   3.750  31.482   0.888
39885W        W 9700   3.294  11.179   1.237
39886W        W 9701  21.238   7.676   3.266
39887W        W 9702  27.089  32.432   2.415
39888W        W 9703  10.302  36.463  13.519
39889W        W 9704  35.469  14.094   0.274
39890W        W 9705  22.586  40.906  14.912
39891W        W 9706  15.163  41.322   1.726
39892W        W 9707  13.339   1.767   9.963
39893W        W 9708  42.498  23.158   3.193
39894W        W 9709  29.144  27.520  11.015
39895W        W 9710  29.107  21.525  11.448
39896W        W 9711   0.473   5.330   0.363
39897W        W 9712  10.378  16.809   4.144
39898W        W 9713   4.378  29.565  13.870
39899W        W 9714  31.136   8.656  11.584
39900W        W 9715  27.180   8.315   3.774
39901W        W 9716  32.888  12.753   3.285
39902W        W 9717  15.613  23.687   1.933
39903W        W 9718   2.314  31.466   4.806
39904W        W 9719  31.509   1.240  11.496
39905W        W 9720  29.077   6.706   2.831
39906W        W 9721   3.775   7.694  10.463
39907W        W 9722  43.784  26.081   0.450
39908W        W 9723   1.476  42.293  14.302
39909W        W 9724   0.917  41.959   2.680
39910W        W 9725  31.990   5.901  14.425
39911W        W 9726  44.365   0.292  12.975
39912W        W 9727  17.724  35.557  14.840
39913W        W 9728  19.275  34.386  11.006
39914W        W 9729  18.751   9.845   4.680
39915W        W 9730  25.168   7.731   5.102
39916W        W 9731   6.887  26.131  12.037
39917W        W 9732  31.589  33.567   2.277
39918W        W 9733  35.408   2.785   3.311
39919W        W 9734  13.700  11.177   3.776
39920W        W 9735   8.668   9.225  14.407
39921W        W 9736  20.746  41.993  14.827
39922W        W 9737   1.749   5.816  10.979
39923W        W 9738  18.775  35.913  11.550
39924W        W 9739  37.540  34.538   2.760
39925W        W 9740  29.160  39.815  12.426
39926W        W 9741  13.311  10.634   1.908
39927W        W 9742  16.736  14.774   0.810
39928W        W 9743  32.432  33.904   2.309
39929W        W 9744  28.641  29.099   1.860
39930W        W 9745  25.989  21.693  14.028
39931W        W 9746  12.355  44.356   2.242
39932W        W 9747  44.313  12.743  11.530
39933W        W 9748  28.631   5.927   1.379
39934W        W 9749   0.924  25.964  10.564
39935W        W 9750  40.994   5.315   0.461
39936W        W 9751  16.241  13.805   1.830
39937W        W 9752  33.518  38.015   0.938
39938W        W 9753  21.192  18.056  12.887
39939W        W 9754  11.358   1.797  13.006
39940W        W 9755   5.356  36.939   2.836
39941W        W 9756  28.582  43.900  14.844
39942W        W 9757   6.331  16.300   4.179
39943W        W 9758  28.176  29.636  11.976
39944W        W 9759  28.643   3.323  14.763
39945W        W 9760  34.498  43.504   4.212
39946W        W 9761  44.828  24.981   3.288
39947W        W 9762  40.955   2.784  13.359
39948W        W 9763  36.975  12.117  13.548
39949W        W 9764  17.270   5.778  14.384
39950W        W 9765  16.769  11.373  12.342
39951W        W 9766  25.487  42.900  14.948
39952W        W 9767  10.219  15.128   4.252
39953W        W 9768  37.850  17.676   2.383
39954W        W 9769  17.265  19.177   3.810
39955W        W 9770   2.832   3.352  12.390
39956W        W 9771  40.836  21.024  12.554
39957W        W 9772  30.649  43.836   1.356
39958W        W 9773   1.255  39.013   4.249
39959W        W 9774  20.569  34.503   4.124
39960W        W 9775  42.885  19.102  12.940
39961W        W 9776  44.271  24.677   1.858
39962W        W 9777   0.264   5.400  10.936
39963W        W 9778  23.064   2.812   0.380
39964W        W 9779  32.089  33.387   4.159
39965W        W 9780  40.038  25.531   3.158
39966W        W 9781  15.766  13.664  13.434
39967W        W 9782  40.473  40.368  11.410
39968W        W 9783   8.349  15.665   1.386
39969W        W 9784  18.630  24.631  12.019
39970W        W 9785  24.511  19.204   3.252
39971W        W 9786  38.843  35.996  14.467
39972W        W 9787  28.532  40.390   1.420
39973W        W 9788  44.495  40.454   0.258
39974W        W 9789  12.170  33.126  11.587
39975W        W 9790  26.603  22.095  12.872
39976W        W 9791  33.902  15.133   4.202
39977W        W 9792  34.416  44.429  10.967
39978W        W 9793  19.768  17.616   4.251
39979W        W 9794  26.121  11.814   3.746
39980W        W 9795   9.186  15.707  12.901
39981W        W 9796   2.244  41.386  14.794
39982W        W 9797  42.004  34.010  10.516
39983W        W 9798  40.980  32.539   2.797
39984W        W 9799  12.839   1.387   2.861
39985W        W 9800  19.585  19.161  13.000
39986W        W 9801  29.485  14.282   4.144
39987W        W 9802  21.526  15.763  12.349
39988W        W 9803  13.164  10.167  11.377
39989W        W 9804   6.361   9.795  14.341
39990W        W 9805  30.137  15.193   4.311
39991W        W 9806  44.872   4.930  10.585
39992W        W 9807  10.731  37.085  12.869
39993W        W 9808  10.179   9.248  14.859
39994W        W 9809  25.692  42.481   0.929
39995W        W 9810  24.492  25.032  14.372
39996W        W 9811  24.191  19.253   0.767
39997W        W 9812  36.519  21.748  10.475
39998W        W 9813  35.397  38.038  11.539
39999W        W 9814  31.119  36.459  13.347
40000W        W 9815  34.585  10.184   4.312
40001W        W 9816  23.503  42.945  10.942
40002W        W 9817  22.218   6.733  11.872
40003W        W 9818  28.572  12.249   1.216
40004W        W 9819  26.485  39.964  10.025
40005W        W 9820   7.278  35.888   4.814
40006W        W 9821  14.213  44.754  13.842
40007W        W 9822  19.284  43.998  14.845
40008W        W 9823  39.549  34.381   1.329
40009W        W 9824   2.264  11.270  10.915
40010W        W 9825  34.947  38.866  10.633
40011W        W 9826  25.159  36.930   9.994
40012W        W 9827  43.430   1.815   2.191
40013W        W 9828   5.754  41.450  14.025
40014W        W 9829  24.051  25.622   2.667
40015W        W 9830  28.548   0.824  13.391
40016W        W 9831  22.511  28.109  11.605
40017W        W 9832  39.394  16.291   1.415
40018W        W 9833   8.176  28.134   1.868
40019W        W 9834  21.615  35.503   0.771
40020W        W 9835  14.615  18.204   4.299
40021W        W 9836  43.362   0.282  13.020
40022W        W 9837   2.391  34.076   4.737
40023W        W 9838  26.182  35.495  10.982
40024W        W 9839  44.504  22.099  14.450
40025W        W 9840   6.709  32.075   0.798
40026W        W 9841   7.251  38.380   1.343
40027W        W 9842  41.935   1.788   2.187
40028W        W 9843   2.911  18.548  13.878
40029W        W 9844  18.727  34.524  11.576
40030W        W 9845  42.908  28.510  10.643
40031W        W 9846  44.455  38.838  12.417
40032W        W 9847  38.893   9.239   4.287
40033W        W 9848  24.650   5.791   3.870
40034W        W 9849  21.112  19.742   5.132
40035W        W 9850   7.879  18.292  14.803
40036W        W 9851  22.014  37.423   5.223
40037W        W 9852  42.795  22.565  12.006
40038W        W 9853  20.716  26.589  12.487
40039W        W 9854  31.520   7.416  12.555
40040W        W 9855  13.728  34.595   3.803
40041W        W 9856  20.560   2.747  12.432
40042W        W 9857  22.019  27.684   0.337
40043W        W 9858  36.939  23.663   2.755
40044W        W 9859  37.936   8.705   3.738
40045W        W 9860  17.637  30.141  10.404
40046W        W 9861   9.722   7.741  11.965
40047W        W 9862  43.284  32.556  11.468
40048W        W 9863  14.697  21.125  13.439
40049W        W 9864  18.155  14.695   3.368
40050W        W 9865   8.788  20.572  14.929
40051W        W 9866  38.955  29.520  12.350
40052W        W 9867   4.278  31.571   3.709
40053W        W 9868  11.251   6.194  12.367
40054W        W 9869  30.543  41.037  11.407
40055W        W 9870  43.826  42.952   4.625
40056W        W 9871  21.140  19.729   2.869
40057W        W 9872  22.183  36.482  12.487
40058W        W 9873  39.322   0.826  13.357
40059W        W 9874   4.824   4.912  12.430
40060W        W 9875  32.053   9.759   0.745
40061W        W 9876  41.292  42.379  13.418
40062W        W 9877  25.682  34.610   2.827
40063W        W 9878  37.960   9.798   3.243
40064W        W 9879  26.149  10.148   5.144
40065W        W 9880  41.304  41.390  11.018
40066W        W 9881  30.150  24.102   0.850
40067W        W 9882  35.452  37.513   3.251
40068W        W 9883  29.440  17.593   2.867
40069W        W 9884  30.609  32.396  12.436
40070W        W 9885  18.686   1.355  13.507
40071W        W 9886  44.957  35.954  11.874
40072W        W 9887   4.255  16.226   1.262
40073W        W 9888  11.756  36.549   3.286
40074W        W 9889  19.164   3.385   3.224
40075W        W 9890  17.241  18.114  13.437
40076W        W 9891  25.667  11.812  13.548
40077W        W 9892  44.802  13.160  12.885
40078W        W 9893  34.560  23.187   0.318
40079W        W 9894  23.110  19.694  11.954
40080W        W 9895  38.064  39.508  13.334
40081W        W 9896   2.878  36.496  13.819
40082W        W 9897   4.425   2.879  11.378
40083W        W 9898   4.773  36.048   0.436
40084W        W 9899  37.481  28.438   0.433
40085W        W 9900  16.226  28.997  13.879
40086W        W 9901  12.708  33.983  12.356
40087W        W 9902  29.160  14.143   0.763
40088W        W 9903  32.621  27.118  14.985
40089W        W 9904  21.562   5.404   1.273
40090W        W 9905  16.119  24.498  14.884
40091W        W 9906  42.992  14.697  10.605
40092W        W 9907  36.553  28.048   0.414
40093W        W 9908  16.254  20.187  12.886
40094W        W 9909  29.930   2.824   4.719
40095W        W 9910   3.262  29.482   2.207
40096W        W 9911  27.628  40.033   0.304
40097W        W 9912   9.179   6.847  10.581
40098W        W 9913   2.424  39.986   0.268
40099W        W 9914   9.387  43.822   1.349
40100W        W 9915  22.501  35.467  11.454
40101W        W 9916  14.159   7.172   4.755
40102W        W 9917  27.558  31.898  12.474
40103W        W 9918  35.532   8.802   4.786
40104W        W 9919  44.367  41.856  12.829
40105W        W 9920  21.666  25.166   5.236
40106W        W 9921  26.066   9.718   1.766
40107W        W 9922   3.890  12.287  10.536
40108W        W 9923  43.419  39.002  13.814
40109W        W 9924  31.648   6.301  13.483
40110W        W 9925  16.229  15.208   0.891
40111W        W 9926  19.737  18.113  10.617
40112W        W 9927  20.046  13.678   3.660
40113W        W 9928  29.636   6.710   4.309
40114W        W 9929   2.831  33.051  10.486
40115W        W 9930   3.793  20.136   1.789
40116W        W 9931   4.323  15.819   2.735
40117W        W 9932  28.469   3.868  14.768
40118W        W 9933  30.543  29.570   4.177
40119W        W 9934  34.970  17.100  11.489
40120W        W 9935  26.528  20.188   0.964
40121W        W 9936  11.299  36.467  12.483
40122W        W 9937  34.405  32.079   4.638
40123W        W 9938  40.459  32.606   2.808
40124W        W 9939   8.896  11.726   4.635
40125W        W 9940  24.143  12.317  12.573
40126W        W 9941   8.256  25.472  14.998
40127W        W 9942  24.718  35.541  14.415
40128W        W 9943  25.571  14.272  13.497
40129W        W 9944  19.257   8.654  12.006
40130W        W 9945  36.077  37.041  10.428
40131W        W 9946  24.496  29.648  14.937
40132W        W 9947   7.724  36.467  10.922
40133W        W 9948  26.600  41.362  10.449
40134W        W 9949  13.153   8.225  14.413
40135W        W 9950  25.544   1.452  14.873
40136W        W 9951  40.478   5.211  14.906
40137W        W 9952  27.965  29.664   2.888
40138W        W 9953  40.517  22.177  11.959
40139W        W 9954   7.874  18.571   0.418
40140W        W 9955  34.895   6.428  14.912
40141W        W 9956  15.115  14.825   2.377
40142W        W 9957  17.075  42.828  11.525
40143W        W 9958  18.751  41.438  12.841
40144W        W 9959  23.527   8.669  10.630
40145W        W 9960  38.876  13.601  13.380
40146W        W 9961  39.530   4.380   3.278
40147W        W 9962  14.634  23.595   2.846
40148W        W 9963  28.000   6.184   3.642
40149W        W 9964  41.331  13.648   3.853
40150W        W 9965  10.687  18.271  12.892
40151W        W 9966  12.244   5.313   2.381
40152W        W 9967   1.918   9.798   0.920
40153W        W 9968  35.042  26.145   0.408
40154W        W 9969  12.777  33.514   1.933
40155W        W 9970  16.140  40.986  10.534
40156W        W 9971  42.445  21.248   1.852
40157W        W 9972  24.703  25.064   4.831
40158W        W 9973  44.403  13.607  13.351
40159W        W 9974   0.327  22.063  14.512
40160W        W 9975  40.999  32.395   4.787
40161W        W 9976   2.231  23.024  12.893
40162W        W 9977  33.509  35.046  13.848
40163W        W 9978  38.386  35.862   3.167
40164W        W 9979  43.479  12.278  12.467
40165W        W 9980  16.163  33.874   2.214
40166W        W 9981  41.375   6.212   3.739
40167W        W 9982  44.798   2.768  14.971
40168W        W 9983   7.213   7.684   2.393
40169W        W 9984   1.918  26.197  10.953
40170W        W 9985   7.791  22.103  11.881
40171W        W 9986   0.381   9.684  12.377
40172W        W 9987  32.011  29.564   2.267
40173W        W 9988  24.494  29.504  12.015
40174W        W 9989  27.962  37.944  14.400
40175W        W 9990   4.435   3.307   0.279
40176W        W 9991  23.588  11.822  12.362
40177W        W 9992  39.364  29.018   0.301
40178W        W 9993  41.992   6.253   2.379
40179W        W 9994  13.170  31.076  13.464
40180W        W 9995  13.214  44.452  13.834
40181W        W 9996   5.440  40.842   4.751
40182W        W 9997  11.737  16.278   1.322
40183W        W 9998  23.010   1.739   4.354
40184W        W 9999   1.827  39.893   3.644
40185W        W10000  37.950  34.534  11.073
40186W        W10001  26.167  12.618  11.073
40187W        W10002  28.041  35.972  10.619
40188W        W10003   3.948   9.871   1.728
40189W        W10004   2.818  40.040   1.397
40190W        W10005  37.582  35.494  14.995
40191W        W10006   3.219  17.665   0.379
40192W        W10007  10.329  29.529   3.212
40193W        W10008  19.115  42.514  13.924
40194W        W10009  34.574  42.913  14.340
40195W        W10010  29.158  11.209  11.490
40196W        W10011  28.011  11.729   3.705
40197W        W10012  44.991   1.882   3.655
40198W        W10013  23.668  30.081   1.438
40199W        W10014   6.916  30.655   4.717
40200W        W10015   2.374  25.470   0.272
40201W        W10016  14.289   2.357  13.490
40202W        W10017  11.859  40.008  13.956
40203W        W10018  42.462  35.564   0.908
40204W        W10019  24.645   2.838  12.520
40205W        W10020  29.035  33.010   2.878
40206W        W10021  23.520  25.163   4.133
40207W        W10022   9.643  19.598  12.422
40208W        W10023  24.544  13.608   2.684
40209W        W10024  39.021  38.972   0.482
40210W        W10025  24.528   3.886   4.198
40211W        W10026  29.152  16.759   1.309
40212W        W10027   0.263  27.531   4.208
40213W        W10028   1.238  36.057   3.345
40214W        W10029   6.914  41.985   0.435
40215W        W10030   5.779  17.232   1.352
40216W        W10031  18.161  44.928  11.432
40217W        W10032  42.786  26.076  14.375
40218W        W10033  17.727  14.157  13.054
40219W        W10034  26.695  25.649  14.475
40220W        W10035  26.688  27.968  14.836
40221W        W10036  18.761  20.552  13.840
40222W        W10037  24.203   3.267  13.814
40223W        W10038  18.708  29.605   0.936
40224W        W10039  27.638  16.761  13.861
40225W        W10040  20.561  38.356  14.490
40226W        W10041   3.407  33.052   0.396
40227W        W10042  26.592  34.999  12.983
40228W        W10043  15.094  34.033   3.190
40229W        W10044  15.245  33.499   4.603
40230W        W10045  30.539  43.887   4.255
40231W        W10046  22.155  31.430   4.254
40232W        W10047  33.482  28.562  12.882
40233W        W10048  13.805   1.775  12.899
40234W        W10049  28.980  28.059   2.688
40235W        W10050  36.915  18.180  13.060
40236W        W10051  40.960   8.831   3.368
40237W        W10052  22.042  18.151   0.959
40238W        W10053  16.135  15.677   1.268
40239W        W10054  10.361  41.447   0.781
40240W        W10055  32.621  10.241   4.263
40241W        W10056  34.989   3.347   1.369
40242W        W10057  31.953  23.516   0.850
40243W        W10058  11.306  42.460   2.197
40244W        W10059  37.582  14.752   0.320
40245W        W10060  11.292  13.344  13.502
40246W        W10061  43.839   1.272   3.816
40247W        W10062  30.071  37.443   1.378
40248W        W10063  24.667  37.906  14.421
40249W        W10064  28.991  44.352   3.640
40250W        W10065  23.239   3.333   4.743
40251W        W10066  10.304  14.768  14.858
40252W        W10067  33.958  15.706  11.917
40253W        W10068   1.279  14.653   3.635
40254W        W10069  41.388   1.908  14.983
40255W        W10070  29.143  21.054   2.415
40256W        W10071  21.178  36.562  10.977
40257W        W10072  15.294  13.261  11.889
40258W        W10073   2.286  34.104  13.851
40259W        W10074  20.547   9.258   3.817
40260W        W10075  20.170   0.460  10.005
40261W        W10076  36.944   6.764   2.749
40262W        W10077   4.785  14.194   9.969
40263W        W10078  18.224  20.048   2.704
40264W        W10079  14.236  36.983  12.479
40265W        W10080  31.599  36.349  12.396
40266W        W10081  24.023  28.450  11.856
40267W        W10082   8.814  31.627  13.494
40268W        W10083  42.861  35.455   1.434
40269W        W10084  26.064  44.352   3.188
40270W        W10085   9.258  31.139  12.826
40271W        W10086   2.422  26.171   1.807
40272W        W10087  31.932  43.455  11.907
40273W        W10088   1.798  22.582  14.449
40274W        W10089  23.734  12.759   0.482
40275W        W10090  12.283  17.763  10.981
40276W        W10091  22.051  42.466  13.941
40277W        W10092  19.724  43.832   3.369
40278W        W10093   0.819  33.893  13.942
40279W        W10094   2.765  13.206   4.618
40280W        W10095  38.947   3.328  13.881
40281W        W10096  43.370  43.884  12.958
40282W        W10097   3.266  40.994  10.983
40283W        W10098  24.118  28.091  12.460
40284W        W10099   0.296  37.854   3.741
40285W        W10100  32.907  42.364  11.945
40286W        W10101   9.363  18.709  10.953
40287W        W10102  16.094   2.851   4.179
40288W        W10103  42.882  17.570   0.412
40289W        W10104  23.099  22.738  11.034
40290W        W10105  40.972  29.626  12.887
40291W        W10106   0.265   6.773   4.751
40292W        W10107  30.121  44.400  11.907
40293W        W10108  38.384  43.309  13.434
40294W        W10109  37.022  27.638  14.959
40295W        W10110  43.895   5.746  14.784
40296W        W10111  33.985  42.878   4.607
40297W        W10112  22.086  23.516  13.347
40298W        W10113  25.509  41.841   3.208
40299W        W10114  10.762   1.420   3.670
40300W        W10115  32.484  23.140  11.055
40301W        W10116  14.275  38.002   4.171
40302W        W10117  37.063  43.461  13.449
40303W        W10118  44.327  26.110   0.405
40304W        W10119   5.316  25.071   3.761
40305W        W10120  15.102  34.108  13.048
40306W        W10121   2.774  22.745   2.218
40307W        W10122   6.859  14.729  11.980
40308W        W10123  33.452  37.365   1.899
40309W        W10124  15.234  34.057  11.597
40310W        W10125  12.189  16.132   2.385
40311W        W10126   5.360  24.484   3.301
40312W        W10127  30.984  41.930   2.289
40313W        W10128  35.973  35.424   1.850
40314W        W10129  30.089  12.710  13.009
40315W        W10130  23.042   3.285   0.936
40316W        W10131   0.472  20.225  11.906
40317W        W10132   4.394  32.947  14.018
40318W        W10133  21.734  15.197   2.886
40319W        W10134  32.442  42.917  13.322
40320W        W10135  38.528   4.931  12.869
40321W        W10136   7.851  30.125  14.011
40322W        W10137  15.807  21.546   2.664
40323W        W10138  15.174  34.962  12.384
40324W        W10139  43.777  18.283   3.842
40325W        W10140  17.657  35.468   0.456
40326W        W10141  11.322  34.475   4.206
40327W        W10142  44.971  14.658   0.334
40328W        W10143  17.178  25.704   2.865
40329W        W10144  10.222  22.154   1.336
40330W        W10145  41.017  41.008  14.879
40331W        W10146  26.994  17.584   3.346
40332W        W10147  38.482  20.671  14.510
40333W        W10148  40.419  34.875   5.319
40334W        W10149  17.600  10.325   1.240
40335W        W10150  44.973  19.660   4.820
40336W        W10151  15.264  28.021  14.806
40337W        W10152  15.715   5.857   1.895
40338W        W10153  41.452  29.970  12.833
40339W        W10154  29.631   3.853  11.393
40340W        W10155  27.496  23.502   4.635
40341W        W10156  27.068   6.881  12.580
40342W        W10157  28.182   3.850  13.902
40343W        W10158   2.807  38.453   0.780
40344W        W10159  17.636  34.115   3.852
40345W        W10160   9.711  42.965   1.820
40346W        W10161   1.915   4.274  13.054
40347W        W10162  11.323  12.787   0.784
40348W        W10163  17.069  34.003  12.942
40349W        W10164   7.173  35.569  14.843
40350W        W10165  36.346   2.287  10.944
40351W        W10166  38.445  21.704   4.810
40352W        W10167  36.565  27.050  10.976
40353W        W10168  17.170  23.601   2.766
40354W        W10169  41.906  41.472  11.452
40355W        W10170  17.690  32.096   3.797
40356W        W10171  44.293  41.884   4.239
40357W        W10172  35.858  32.472   2.830
40358W        W10173  40.989  41.897  11.420
40359W        W10174  13.109  12.626  10.539
40360W        W10175  12.175   9.247  12.544
40361W        W10176  24.220  21.120   4.341
40362W        W10177   3.379  34.956  12.944
40363W        W10178   1.955  32.394  11.598
40364W        W10179  32.394  10.263   1.887
40365W        W10180   6.696  37.341   2.875
40366W        W10181  31.918   5.719   4.719
40367W        W10182  40.306  15.776  14.383
40368W        W10183  38.408  42.288   0.786
40369W        W10184  16.671  22.227  13.481
40370W        W10185  32.611  23.024  12.904
40371W        W10186   9.311  23.561  13.900
40372W        W10187  38.051   3.275   2.362
40373W        W10188   6.290  22.160  11.864
40374W        W10189   8.829  27.962  13.941
40375W        W10190   5.438  42.316  14.008
40376W        W10191  15.235  21.229  12.933
40377W        W10192  44.932  23.203   1.850
40378W        W10193  17.246   5.290   2.779
40379W        W10194  37.840  25.991   4.249
40380W        W10195  43.507  30.442  14.868
40381W        W10196  18.213  32.561   0.437
40382W        W10197  38.430  38.513   4.142
40383W        W10198  30.616  16.154   2.345
40384W        W10199   8.718  37.445   5.158
40385W        W10200  15.636  35.905  14.903
40386W        W10201  14.256  32.571   1.702
40387W        W10202  30.926  14.212  14.819
40388W        W10203  10.199   4.448  10.084
40389W        W10204  20.087  24.508  13.014
40390W        W10205  28.666   8.333  11.037
40391W        W10206  19.678   6.303   0.885
40392W        W10207  36.089  35.508  13.368
40393W        W10208  40.990   3.857  10.488
40394W        W10209  26.104   4.270  11.888
40395W        W10210  15.703   1.865  11.051
40396W        W10211  32.016  22.712  14.387
40397W        W10212   0.274   5.774  11.581
40398W        W10213  30.040  11.295  13.933
40399W        W10214  43.002   9.828  11.980
40400W        W10215   7.386  32.143   2.899
40401W        W10216   3.398  42.360   2.419
40402W        W10217  16.267  37.540   0.482
40403W        W10218  17.275   9.754  11.413
40404W        W10219  10.876  34.887   1.920
40405W        W10220  41.392  34.375  14.958
40406W        W10221  10.759   0.432  10.503
40407W        W10222  27.072  15.248   0.440
40408W        W10223  35.042  37.348   0.383
40409W        W10224   4.351  44.758  13.877
40410W        W10225  31.093  32.418   3.693
40411W        W10226  24.721  10.206  14.922
40412W        W10227  11.808  11.359   4.250
40413W        W10228   4.730   9.654  14.408
40414W        W10229  21.613   0.862   2.766
40415W        W10230  20.750  17.062  12.492
40416W        W10231  39.521  23.059  12.865
40417W        W10232  21.178  34.442  13.938
40418W        W10233  16.147  37.429  14.974
40419W        W10234  41.787  28.535  11.971
40420W        W10235   9.725  30.569   3.146
40421W        W10236  22.130  34.054   1.224
40422W        W10237  25.018  23.565   0.400
40423W        W10238  37.034  22.223   2.282
40424W        W10239   1.946  11.793  13.330
40425W        W10240  38.402  12.320  14.349
40426W        W10241   2.888  42.354  13.853
40427W        W10242  33.920   0.868   1.916
40428W        W10243  23.496  39.421  11.083
40429W        W10244  13.824   9.693   3.274
40430W        W10245   0.755  36.374  12.512
40431W        W10246  44.367   4.762  10.081
40432W        W10247  12.197  37.976   4.598
40433W        W10248   9.247  11.352  11.379
40434W        W10249   3.253  21.106   4.824
40435W        W10250   0.378  26.514  13.045
40436W        W10251  19.243  20.225   4.712
40437W        W10252  37.982  30.576   1.903
40438W        W10253  18.083  36.543  13.446
40439W        W10254   4.739  39.912   2.795
40440W        W10255  38.011  19.727  11.036
40441W        W10256   2.762  27.638  13.447
40442W        W10257  28.674  29.998   1.752
40443W        W10258  25.202  10.248   2.291
40444W        W10259  24.109  11.134  14.286
40445W        W10260  17.284  38.887   3.650
40446W        W10261  19.723   5.769  11.489
40447W        W10262  21.732  18.641  11.476
40448W        W10263   0.425  26.650  12.406
40449W        W10264   7.275  41.402  13.422
40450W        W10265  39.390  16.728   3.644
40451W        W10266   7.835  44.986  11.985
40452W        W10267  31.013  34.397  14.469
40453W        W10268  18.774  16.608  11.917
40454W        W10269  31.409   0.809   0.939
40455W        W10270  35.478  11.366   3.768
40456W        W10271  35.983  11.863   0.909
40457W        W10272   3.427  23.653  11.991
40458W        W10273  22.043  22.200   2.278
40459W        W10274  15.677  38.027   0.730
40460W        W10275  39.337   7.187   2.804
40461W        W10276  30.956   9.668   3.181
40462W        W10277   1.780  35.365  12.840
40463W        W10278  41.421   9.389  13.005
40464W        W10279  39.846   8.753  14.480
40465W        W10280  41.015   5.249  14.762
40466W        W10281  28.621  34.922  13.474
40467W        W10282  44.970  27.597   3.697
40468W        W10283  34.118  29.593   0.266
40469W        W10284  19.570   5.396   0.307
40470W        W10285  33.391  22.232  11.519
40471W        W10286  42.877  39.480   1.350
40472W        W10287  23.592  40.526   2.900
40473W        W10288  29.453  42.443   3.827
40474W        W10289   4.419   0.322   2.808
40475W        W10290   2.875  23.995   3.847
40476W        W10291   9.222  39.540  11.909
40477W        W10292  13.132  12.708  12.001
40478W        W10293  27.661  41.040   4.305
40479W        W10294  31.574  27.605   4.336
40480W        W10295  31.071  37.352   2.849
40481W        W10296  40.409  14.788  13.337
40482W        W10297  34.435  44.452  13.861
40483W        W10298  15.193  32.519  14.339
40484W        W10299  36.525  44.883   2.844
40485W        W10300  37.836  19.263   3.817
40486W        W10301  35.890  29.966  14.415
40487W        W10302  18.615  34.529   5.104
40488W        W10303  39.048  33.611   2.406
40489W        W10304   6.382  42.462  14.782
40490W        W10305  31.122  23.057   0.417
40491W        W10306  13.825   2.740   1.766
40492W        W10307   8.382  41.367   3.261
40493W        W10308  24.699  16.085  13.857
40494W        W10309   0.318  29.429  10.565
40495W        W10310  30.916  29.491   4.142
40496W        W10311  30.046   8.695  12.453
40497W        W10312  36.555  43.940   1.326
40498W        W10313   1.404  31.602  11.982
40499W        W10314  13.723   2.341  14.858
40500W        W10315  20.230  27.677   4.133
40501W        W10316   9.244  21.594   1.884
40502W        W10317  38.362  41.981   3.379
40503W        W10318   9.777  42.811   1.393
40504W        W10319  34.580  25.998   2.397
40505W        W10320  38.050  40.546   4.195
40506W        W10321  21.682  14.255   3.305
40507W        W10322  27.536   1.768   0.443
40508W        W10323  13.207   4.249  14.420
40509W        W10324   6.393  39.979   2.759
40510W        W10325  14.781  22.556  14.800
40511W        W10326  14.124  33.407   5.138
40512W        W10327   4.927   1.898   3.756
40513W        W10328   1.953  42.900   3.696
40514W        W10329  12.718   9.880  14.390
40515W        W10330   0.912   4.733   4.158
40516W        W10331  42.921  20.044  10.438
40517W        W10332   7.332  22.731  11.980
40518W        W10333  33.892   4.360   1.322
40519W        W10334  25.098   3.399   4.800
40520W        W10335   7.751  40.342  12.465
40521W        W10336  23.003   2.846  12.431
40522W        W10337   5.349  10.188   2.745
40523W        W10338   3.809  44.879   3.714
40524W        W10339   4.939   8.850  12.401
40525W        W10340  20.531  25.531  14.819
40526W        W10341  13.271   0.370   3.805
40527W        W10342   7.763   4.885   1.403
40528W        W10343  23.999  21.554  12.418
40529W        W10344   5.287  29.662   0.321
40530W        W10345  17.199   6.711  12.937
40531W        W10346  40.045  33.487   0.264
40532W        W10347  11.784  33.988  12.070
40533W        W10348  13.602  24.070   0.337
40534W        W10349  10.175  20.188  12.468
40535W        W10350   5.913   1.976   1.305
40536W        W10351  31.945  25.685  11.603
40537W        W10352  24.689  16.113  14.959
40538W        W10353  34.021   8.332  11.112
40539W        W10354  36.968  38.056  13.791
40540W        W10355  27.512  26.502   0.776
40541W        W10356  28.636  22.007   1.731
40542W        W10357  40.929   2.352  10.623
40543W        W10358  27.009  31.039   4.287
40544W        W10359   4.368  39.890   2.736
40545W        W10360   5.814  33.501  11.895
40546W        W10361  44.987   9.649   4.814
40547W        W10362  20.122  33.000   3.766
40548W        W10363  40.919  34.996  13.060
40549W        W10364   0.922  29.476   3.322
40550W        W10365   5.733  18.724   2.808
40551W        W10366  30.012  22.590  10.554
40552W        W10367  12.840  41.854  13.383
40553W        W10368  36.373   2.321   2.267
40554W        W10369  22.502  12.682   1.327
40555W        W10370  39.368  10.695  12.366
40556W        W10371  12.212  23.720  13.489
40557W        W10372  16.786  14.281   3.742
40558W        W10373  38.507  20.123  14.884
40559W        W10374   8.776  22.210   3.359
40560W        W10375  40.937  32.040  10.548
40561W        W10376  23.722   6.820  11.390
40562W        W10377  13.619  30.553  10.418
40563W        W10378  27.552  23.082   1.392
40564W        W10379  39.539  38.545   2.193
40565W        W10380  10.715   3.926  13.322
40566W        W10381  25.480  35.873   1.695
40567W        W10382  37.563   0.254  11.968
40568W        W10383  11.814  12.736   1.292
40569W        W10384  38.906  26.640  14.911
40570W        W10385  38.039  10.209   1.768
40571W        W10386   7.776   1.936  12.428
40572W        W10387  42.435  38.824   4.789
40573W        W10388  44.897  26.967  13.335
40574W        W10389  34.982  13.117   2.242
40575W        W10390   8.771  26.471   0.933
40576W        W10391  23.542   9.716   2.817
40577W        W10392  35.001   2.902  10.420
40578W        W10393  25.042   0.281  13.844
40579W        W10394  11.751  44.499  12.368
40580W        W10395  11.635   9.277  12.941
40581W        W10396  40.900  44.303   4.258
40582W        W10397   8.823  22.699  14.280
40583W        W10398  13.218  11.128  13.892
40584W        W10399  25.627  31.548   0.731
40585W        W10400  10.262   1.887  12.041
40586W        W10401  17.607  31.899   2.760
40587W        W10402  12.227   6.277  13.362
40588W        W10403  37.481  10.857   4.348
40589W        W10404  36.370   9.646   4.831
40590W        W10405  39.026  41.411   1.744
40591W        W10406  26.560  32.474  13.975
40592W        W10407   0.853  20.063   2.850
40593W        W10408  39.441  21.628  12.044
40594W        W10409   0.745  16.072   2.782
40595W        W10410  30.616  11.701  10.969
40596W        W10411  30.615  21.102   1.406
40597W        W10412   3.717  25.616  14.458
40598W        W10413  30.413  24.996  14.851
40599W        W10414  30.623  12.760   4.117
40600W        W10415  17.590  14.284   3.314
40601W        W10416  27.135  13.639   0.918
40602W        W10417  35.862   9.794   3.263
40603W        W10418   5.881  39.965  12.355
40604W        W10419  13.274   2.859  14.332
40605W        W10420  36.576  23.663   2.667
40606W        W10421  19.723  18.183  12.036
40607W        W10422  11.796  41.469  12.517
40608W        W10423  30.628  20.534  12.565
40609W        W10424  34.451  19.683  14.476
40610W        W10425   2.964  23.521  10.602
40611W        W10426  17.195   5.717   4.174
40612W        W10427  37.861  21.629   3.218
40613W        W10428   6.274   1.959  11.574
40614W        W10429   5.919   4.904   2.365
40615W        W10430  40.370  22.201  13.042
40616W        W10431  12.817  28.660  14.939
40617W        W10432  40.309  35.068  12.425
40618W        W10433  30.433  33.586   3.746
40619W        W10434  15.746   8.830   4.277
40620W        W10435  29.633  35.862   3.798
40621W        W10436  34.590  33.916   1.910
40622W        W10437  14.813  38.346  11.915
40623W        W10438   7.401  18.069   0.962
40624W        W10439  19.549   3.746   4.298
40625W        W10440  31.913  23.526   1.737
40626W        W10441  22.168  24.219  12.898
40627W        W10442  12.352  22.018  12.884
40628W        W10443  11.743  23.641  11.441
40629W        W10444  19.051  26.482  10.558
40630W        W10445  40.955  13.156   4.735
40631W        W10446  34.587   9.744  14.505
40632W        W10447  15.665   0.300  12.563
40633W        W10448  25.089  29.036  11.944
40634W        W10449  34.995  43.329  12.903
40635W        W10450   8.742  43.299  14.004
40636W        W10451  26.656   6.720   5.206
40637W        W10452  16.274  33.480   2.188
40638W        W10453  30.111  10.827  11.053
40639W        W10454  29.143  41.882   1.843
40640W        W10455  20.680  33.016  13.407
40641W        W10456  25.664  41.019  11.404
40642W        W10457  24.131   9.771   4.307
40643W        W10458   5.432  25.151   2.855
40644W        W10459  15.278  33.603   3.853
40645W        W10460  30.963  39.887   4.634
40646W        W10461   6.367  41.940   4.314
40647W        W10462  25.094   0.972  13.926
40648W        W10463  35.102   1.332   4.633
40649W        W10464  38.023   7.752   2.787
40650W        W10465  35.466  33.056  13.021
40651W        W10466  27.167  32.889  10.600
40652W        W10467   8.742  22.638  10.407
40653W        W10468  17.118  12.176  11.025
40654W        W10469  24.498  25.515   0.276
40655W        W10470  37.521   3.907   1.794
40656W        W10471  35.019  44.871   4.672
40657W        W10472  35.490  33.049   1.229
40658W        W10473  34.375   7.396   3.825
40659W        W10474  23.601   5.705   0.251
40660W        W10475  20.658   8.752  11.112
40661W        W10476  31.086   2.302  14.783
40662W        W10477  23.069  15.644  11.382
40663W        W10478  18.275   7.691  10.600
40664W        W10479   5.822  14.624  13.411
40665W        W10480   5.215  41.879  12.865
40666W        W10481  33.994   7.707   0.446
40667W        W10482  14.145   8.742  14.469
40668W        W10483   9.842  13.763  12.539
40669W        W10484  10.190  12.241   2.869
40670W        W10485  10.371  21.727   2.270
40671W        W10486   0.792  11.842   4.244
40672W        W10487  17.621  15.821   4.647
40673W        W10488  29.125  11.232   3.271
40674W        W10489   1.802  18.676  14.287
40675W        W10490   5.783  27.136  14.796
40676W        W10491   5.434   0.913  14.926
40677W        W10492  17.564  32.494   3.242
40678W        W10493  40.894   6.256   4.756
40679W        W10494  30.039   0.432   0.862
40680W        W10495   9.233  27.144  13.517
40681W        W10496  36.471   9.861   3.294
40682W        W10497  40.501  12.164   0.382
40683W        W10498  13.691   0.432   0.851
40684W        W10499  17.700   4.286   4.241
40685W        W10500  26.111   0.795   2.691
40686W        W10501  35.374  16.682   1.293
40687W        W10502  31.128  39.004  10.145
40688W        W10503  42.828  18.217   1.795
40689W        W10504   7.321  25.602   3.684
40690W        W10505  37.569  39.323   2.246
40691W        W10506  15.782  16.241   0.363
40692W        W10507  10.748  32.078   2.749
40693W        W10508  36.908  26.110   2.689
40694W        W10509  20.208  25.994   0.967
40695W        W10510  30.028  29.992   2.700
40696W        W10511  28.541   4.785  14.879
40697W        W10512  19.569  43.311  13.451
40698W        W10513  42.382  18.291  12.538
40699W        W10514  30.124  17.166   4.780
40700W        W10515  16.094  25.036  12.856
40701W        W10516  17.256  19.646   2.402
40702W        W10517  11.316  33.596  10.411
40703W        W10518  40.875   9.295  14.802
40704W        W10519   9.264  23.528   0.789
40705W        W10520  31.484  16.253  14.420
40706W        W10521   0.331  26.589   4.703
40707W        W10522  41.357   7.400  12.038
40708W        W10523  41.385  11.185   3.173
40709W        W10524  29.156  28.977  12.868
40710W        W10525  42.889  20.155   5.116
40711W        W10526  43.469  41.319   4.224
40712W        W10527  30.574  32.510   4.150
40713W        W10528   0.747  12.154  12.990
40714W        W10529  23.148   2.362   2.891
40715W        W10530   4.341  14.800  14.504
40716W        W10531  15.085  35.463   0.883
40717W        W10532  11.308  29.597   2.190
40718W        W10533   2.924  23.135   4.295
40719W        W10534   6.250  42.506  13.544
40720W        W10535  30.522  32.607   0.415
40721W        W10536  13.254  37.576   1.342
40722W        W10537  18.100   7.281  11.010
40723W        W10538   2.753  31.068   1.421
40724W        W10539  32.573  13.611   2.408
40725W        W10540  29.466  12.285  10.932
40726W        W10541   6.765   8.220  10.563
40727W        W10542   1.972  22.676  13.510
40728W        W10543   8.268   3.450  14.819
40729W        W10544  35.478   1.362  11.037
40730W        W10545  41.032  32.593   3.209
40731W        W10546  18.111  23.178  11.447
40732W        W10547  21.085   7.898   3.814
40733W        W10548   2.829  20.717   3.760
40734W        W10549  10.229   6.803  10.903
40735W        W10550  17.764  34.452   2.730
40736W        W10551  12.300  10.235  12.886
40737W        W10552   1.303  31.483   1.268
40738W        W10553  14.723  16.767  13.366
40739W        W10554  31.576  35.358  13.814
40740W        W10555   0.905  44.895  13.931
40741W        W10556  32.093   4.350  13.506
40742W        W10557  22.050   5.200  14.790
40743W        W10558   2.770  22.571   1.356
40744W        W10559  26.646  38.824  12.873
40745W        W10560  40.340  25.590   4.312
40746W        W10561  41.951  26.466  10.409
40747W        W10562  30.471  28.549  13.838
40748W        W10563  11.301  18.167   5.149
40749W        W10564  24.144  17.302   1.814
40750W        W10565  14.790  15.578  14.992
40751W        W10566  17.623  14.602  12.396
40752W        W10567  25.092   7.216   0.409
40753W        W10568  16.222  24.096   1.800
40754W        W10569  40.388   6.868  11.924
40755W        W10570  29.652  12.132  10.486
40756W        W10571   3.913  36.461   2.244
40757W        W10572   1.761   6.224  14.815
40758W        W10573  23.136  25.480  12.843
40759W        W10574   5.211  34.921   3.775
40760W        W10575  19.084   8.401   2.235
40761W        W10576   5.780  14.311  14.442
40762W        W10577  13.214  24.184  14.364
40763W        W10578   7.335  15.693  12.978
40764W        W10579   3.457  37.037   2.308
40765W        W10580  25.514   1.740   3.230
40766W        W10581  35.996  30.918  13.969
40767W        W10582  34.520  30.037  12.055
40768W        W10583  43.941   6.264   3.363
40769W        W10584  28.185  23.726  11.429
40770W        W10585  10.340  38.513  13.891
40771W        W10586  27.026  21.668   2.194
40772W        W10587  12.288  15.161  14.032
40773W        W10588  14.150   6.782   2.180
40774W        W10589  22.165  16.596   5.158
40775W        W10590  24.510  39.970  13.479
40776W        W10591  42.488  27.653  10.990
40777W        W10592  28.031   0.938   5.188
40778W        W10593  19.134  19.706  11.874
40779W        W10594  17.200  18.117   1.734
40780W        W10595  25.591  43.847  14.858
40781W        W10596  37.954  44.771  11.538
40782W        W10597   1.945  35.941   1.370
40783W        W10598   3.331  12.155  12.898
40784W        W10599  38.840  13.326   1.806
40785W        W10600  10.820  32.948  12.412
40786W        W10601   2.414  19.076  11.574
40787W        W10602  41.824  13.803  10.088
40788W        W10603   9.870   3.433   4.652
40789W        W10604  14.237   3.371   2.849
40790W        W10605  31.051  13.154   0.886
40791W        W10606  13.811   3.231  13.444
40792W        W10607  29.625  28.675   3.777
40793W        W10608   4.852  16.107   2.737
40794W        W10609  43.013  44.363  10.630
40795W        W10610  10.702  23.204   1.886
40796W        W10611  23.992  12.798  14.356
40797W        W10612  41.836   3.437   4.283
40798W        W10613   0.332  21.208   2.387
40799W        W10614   9.305  34.453   2.276
40800W        W10615   0.280  44.947  13.391
40801W        W10616  20.632  40.388   2.405
40802W        W10617  36.903   4.916   0.728
40803W        W10618  26.095  21.651  12.059
40804W        W10619   9.887  42.473  14.505
40805W        W10620   5.354  23.513   3.200
40806W        W10621  36.952  28.969  13.815
40807W        W10622  37.841  16.089   3.708
40808W        W10623  10.366  31.574  11.083
40809W        W10624  27.469  36.955  14.503
40810W        W10625   0.810  17.558  14.776
40811W        W10626  39.494   2.903   3.864
40812W        W10627  43.482  23.204   2.792
40813W        W10628   6.389  32.442  14.404
40814W        W10629   4.225  24.220   3.183
40815W        W10630  34.025  15.637  11.564
40816W        W10631  12.265  36.520  13.494
40817W        W10632  17.637  44.909   0.761
40818W        W10633  22.635   2.731  13.515
40819W        W10634   2.231   8.225  13.334
40820W        W10635   1.842  42.990   1.789
40821W        W10636  32.628  22.077  13.459
40822W        W10637  22.008  30.020   4.810
40823W        W10638  33.590  13.747   4.180
40824W        W10639  31.623  42.358  11.084
40825W        W10640   2.825  15.772  14.472
40826W        W10641  42.356  23.157  10.425
40827W        W10642   0.428  34.899  12.344
40828W        W10643  38.018  28.441  12.500
40829W        W10644  39.905  23.004  13.957
40830W        W10645  10.754  19.681  12.031
40831W        W10646  42.431  14.715  12.440
40832W        W10647   0.804  31.635  14.344
40833W        W10648  36.862   3.760   4.768
40834W        W10649   8.659   9.823  13.898
40835W        W10650  15.130  21.061  13.858
40836W        W10651  23.095   4.249   1.813
40837W        W10652  24.632  15.760   3.338
40838W        W10653  41.380  16.074   4.161
40839W        W10654   1.391  16.256   0.253
40840W        W10655   4.230  31.922   3.338
40841W        W10656  23.041  39.342   3.728
40842W        W10657   1.418  18.252  13.807
40843W        W10658  11.306  22.654  11.472
40844W        W10659  35.860  26.969  12.988
40845W        W10660  26.529  35.880   3.840
40846W        W10661  29.041  20.194   2.729
40847W        W10662  30.916   6.239   4.128
40848W        W10663  33.043   3.456   2.298
40849W        W10664  10.776  25.010   0.830
40850W        W10665   4.251  41.877   2.772
40851W        W10666  13.180  29.503  14.935
40852W        W10667  14.233  17.270   0.948
40853W        W10668   4.380  43.294   3.287
40854W        W10669  31.152  22.621  13.428
40855W        W10670  14.769  39.520   2.325
40856W        W10671   7.174  12.335  12.388
40857W        W10672  26.081   3.947  12.352
40858W        W10673   7.822  16.177   0.783
40859W        W10674  25.688  31.065  11.388
40860W        W10675  16.582   2.876  13.410
40861W        W10676  22.214   0.962  14.018
40862W        W10677  28.487  41.949   0.365
40863W        W10678  30.567  36.586   2.682
40864W        W10679   1.965  42.852   4.702
40865W        W10680   1.811  12.838  14.306
40866W        W10681  12.808  30.552   0.452
40867W        W10682  31.077   6.748  12.382
40868W        W10683  10.724  42.337   4.660
40869W        W10684  22.079  18.577  11.898
40870W        W10685  25.040  17.223   1.783
40871W        W10686   7.861  28.480  11.600
40872W        W10687  23.041   4.781  11.119
40873W        W10688  27.502   7.224   4.605
40874W        W10689  43.882   8.794  12.007
40875W        W10690  25.159  38.983   0.341
40876W        W10691   2.721   3.787   4.685
40877W        W10692  21.663  25.128  12.523
40878W        W10693  28.995   8.381   3.369
40879W        W10694  20.062  37.470  12.984
40880W        W10695  12.351  35.551  10.528
40881W        W10696  38.996  43.815   1.238
40882W        W10697  29.608  31.404   4.289
40883W        W10698  13.156  24.172   0.916
40884W        W10699  42.363   4.935   3.740
40885W        W10700  20.242  29.004  14.368
40886W        W10701  36.528  37.960  10.588
40887W        W10702  24.058   7.315  12.012
40888W        W10703  30.441  29.122  10.517
40889W        W10704  31.438  42.462  14.836
40890W        W10705  19.771  44.912   4.319
40891W        W10706  21.058  41.811  12.568
40892W        W10707  25.013  15.202  12.065
40893W        W10708   5.698  41.941   4.348
40894W        W10709   2.850   1.948   3.342
40895W        W10710  21.594   7.796  13.540
40896W        W10711  22.699  31.993  11.866
40897W        W10712  19.696  17.583   0.434
40898W        W10713  10.262   0.920   1.803
40899W        W10714  20.256   8.758  11.105
40900W        W10715  38.328  36.923  13.795
40901W        W10716  26.973   0.364  13.874
40902W        W10717  10.711  30.536   0.273
40903W        W10718  17.083  15.804   2.751
40904W        W10719  40.839  28.106  10.559
40905W        W10720  36.576  34.092  13.416
40906W        W10721  40.356  19.671   0.302
40907W        W10722  16.117  28.073   0.797
40908W        W10723  30.983   8.226   2.402
40909W        W10724   7.844  21.027   2.275
40910W        W10725  30.652  30.612   4.319
40911W        W10726   8.216  30.523  14.434
40912W        W10727   8.765  38.891  12.081
40913W        W10728   1.850  16.639   3.753
40914W        W10729   2.725  11.702   3.242
40915W        W10730   8.273  23.098   0.772
40916W        W10731  35.904  35.451   0.282
40917W        W10732  12.857  41.532  14.030
40918W        W10733   9.274  21.185   3.648
40919W        W10734  14.835   9.315   1.422
40920W        W10735  33.601  20.539   0.442
40921W        W10736  32.470  32.889  14.346
40922W        W10737  41.485  15.657   5.624
40923W        W10738  11.239   9.816   0.891
40924W        W10739  21.123  37.016   2.714
40925W        W10740  37.940  19.572   0.907
40926W        W10741  42.505  10.848   2.870
40927W        W10742  44.265   8.190  11.586
40928W        W10743  34.864  27.587  11.016
40929W        W10744   6.817   3.281   0.794
40930W        W10745  17.185  22.060  12.905
40931W        W10746  35.054  17.590   3.241
40932W        W10747  26.607  17.715   3.216
40933W        W10748  17.698   2.351   1.330
40934W        W10749  16.692  16.225  11.068
40935W        W10750   0.935  43.480  11.873
40936W        W10751  27.155  21.653   4.185
40937W        W10752   2.720  35.370  11.894
40938W        W10753  42.849  31.004   0.274
40939W        W10754  35.530  44.793   1.415
40940W        W10755  40.910  13.677  14.779
40941W        W10756  14.236  43.766  13.903
40942W        W10757  11.683   2.422   3.680
40943W        W10758   4.851  34.530  12.503
40944W        W10759  42.842  13.740   3.708
40945W        W10760  22.099   8.376   0.766
40946W        W10761  24.105  16.640   5.628
40947W        W10762  41.465  29.435   3.188
40948W        W10763  20.592  19.654  13.962
40949W        W10764  20.220  26.147   4.642
40950W        W10765  43.915  22.731  12.580
40951W        W10766  37.905  35.526   4.189
40952W        W10767  12.740  34.002   0.406
40953W        W10768   0.406   6.805  13.428
40954W        W10769   2.955   8.873   2.234
40955W        W10770  30.519  30.568  13.911
40956W        W10771   9.172   8.693  13.460
40957W        W10772  35.480  43.837   2.750
40958W        W10773  33.422  27.027  12.061
40959W        W10774  44.842  37.086   1.329
40960W        W10775  26.989  30.034  12.088
40961W        W10776  25.070   5.437   2.195
40962W        W10777  22.059  33.505   4.128
40963W        W10778  13.748   9.294   4.791
40964W        W10779  14.103  31.578   4.293
40965W        W10780  18.732   3.256  14.867
40966W        W10781  16.706  32.038  14.382
40967W        W10782  13.623  26.094   3.185
40968W        W10783   4.710   2.299   1.776
40969W        W10784  28.087  29.149  11.372
40970W        W10785  32.040  17.662  13.884
40971W        W10786  28.670   3.917   4.329
40972W        W10787  40.379  20.155  12.920
40973W        W10788  41.454   4.243  11.897
40974W        W10789  11.812  15.150   2.334
40975W        W10790  14.168  43.946   9.999
40976W        W10791   7.781  16.770  12.451
40977W        W10792  25.693  25.037   5.285
40978W        W10793   0.982  33.964   2.697
40979W        W10794  24.498  44.363   2.239
40980W        W10795  23.141  23.570  13.017
40981W        W10796  40.313  30.654   1.841
40982W        W10797   3.920   8.237  14.428
40983W        W10798  38.396  33.939   1.238
40984W        W10799  27.558   7.409   1.820
40985W        W10800  26.075  41.417   3.637
40986W        W10801  35.403  18.268  11.902
40987W        W10802  18.611  38.826   2.367
40988W        W10803  43.427  25.579  14.360
40989W        W10804  35.591  14.794   3.786
40990W        W10805   3.918  24.575  13.460
40991W        W10806  31.540  19.145   1.912
40992W        W10807  39.931  22.530  10.538
40993W        W10808  32.054  21.123  13.907
40994W        W10809  24.510  40.035   2.366
40995W        W10810  34.370   2.418   1.217
40996W        W10811  35.952   1.332   0.740
40997W        W10812   7.761   5.853   1.875
40998W        W10813  33.107   0.348  12.531
40999W        W10814   4.271  22.021  12.385
41000W        W10815  25.013  35.033   2.877
41001W        W10816  43.772  36.007  11.375
41002W        W10817  31.919  27.179  12.491
41003W        W10818  16.196  43.934  14.840
41004W        W10819  29.017   7.730  14.957
41005W        W10820  33.495   4.857   0.300
41006W        W10821   7.340  38.027  13.436
41007W        W10822  22.070  39.018   3.852
41008W        W10823  26.135  25.103   3.367
41009W        W10824  38.851  27.111   0.881
41010W        W10825  13.247  17.561   0.747
41011W        W10826  30.036   8.233  13.816
41012W        W10827   4.814  11.334  11.494
41013W        W10828   4.776   5.387   4.336
41014W        W10829  29.490   4.843   0.398
41015W        W10830  24.500  34.901  13.051
41016W        W10831  40.476  37.058  14.914
41017W        W10832   6.861   7.372  14.499
41018W        W10833   5.197   8.169  13.478
41019W        W10834  43.928  42.848   3.630
41020W        W10835  17.272   7.271   1.697
41021W        W10836  41.459   5.386   0.460
41022W        W10837  18.068  33.501   2.200
41023W        W10838  40.012  32.102   0.806
41024W        W10839   0.749  41.303  14.445
41025W        W10840  22.187  40.421  12.980
41026W        W10841  21.096  37.018   3.683
41027W        W10842  11.280   2.849   4.697
41028W        W10843  20.562  28.510  11.999
41029W        W10844   2.335  28.131  13.350
41030W        W10845  41.901  43.285   2.685
41031W        W10846  40.364  34.502  14.415
41032W        W10847  25.686  27.447  13.826
41033W        W10848  18.278  17.759   0.404
41034W        W10849  30.981  29.943   2.396
41035W        W10850  16.104  18.742  13.921
41036W        W10851  30.124   7.679   4.622
41037W        W10852  21.524  43.966   5.139
41038W        W10853  22.501   5.696  10.624
41039W        W10854  43.454   3.820   3.165
41040W        W10855  35.589   9.308   0.437
41041W        W10856  43.471  38.949  13.391
41042W        W10857   8.771   8.186  14.842
41043W        W10858   3.775  36.367   4.301
41044W        W10859  18.124  37.467  12.543
41045W        W10860   2.904  40.461  11.006
41046W        W10861  44.492   6.290  12.014
41047W        W10862   2.348  23.124   1.376
41048W        W10863  11.342  18.244  11.483
41049W        W10864  21.680  41.860  11.925
41050W        W10865  13.294  37.419   4.254
41051W        W10866  34.115  25.015   1.370
41052W        W10867   8.189  36.014  14.346
41053W        W10868   3.905  34.884   3.761
41054W        W10869  11.321  37.866  11.069
41055W        W10870   5.866  16.639   3.177
41056W        W10871  10.836   7.733   4.725
41057W        W10872  39.000  42.840  10.611
41058W        W10873  42.377  15.747   4.306
41059W        W10874  11.796  23.594   1.839
41060W        W10875   7.720   3.374   4.330
41061W        W10876  13.729  27.519   4.137
41062W        W10877  31.566  13.658  13.463
41063W        W10878   9.730  12.327  12.908
41064W        W10879  20.066  41.847  12.955
41065W        W10880  19.770   7.781  13.975
41066W        W10881  25.685  29.082  13.349
41067W        W10882  43.292   1.322   2.787
41068W        W10883  32.069  31.114  14.426
41069W        W10884  18.573  12.215   0.268
41070W        W10885   6.732  12.134  10.502
41071W        W10886  23.619  16.163  13.546
41072W        W10887  37.576  25.573   3.212
41073W        W10888  32.997   1.469  12.416
41074W        W10889  41.401  43.008  11.052
41075W        W10890   8.335  38.436  14.300
41076W        W10891  33.938   9.696   0.936
41077W        W10892  19.284  34.431  14.337
41078W        W10893  11.765  10.674  11.520
41079W        W10894   6.837  13.750   0.738
41080W        W10895  17.668  30.926   1.834
41081W        W10896  43.385   7.298   1.911
41082W        W10897  37.497  19.178   0.319
41083W        W10898  21.746  12.129   2.828
41084W        W10899   8.839  42.825  13.839
41085W        W10900  23.205  36.935  12.465
41086W        W10901  34.542  20.271   1.317
41087W        W10902  14.786  14.628  10.920
41088W        W10903   4.839  17.121   0.341
41089W        W10904  14.830   6.874  14.338
41090W        W10905  11.252  25.551   3.168
41091W        W10906  29.449  39.463  10.949
41092W        W10907  21.038  25.009  13.433
41093W        W10908  34.414  18.125   0.433
41094W        W10909   8.233  42.353  11.094
41095W        W10910  26.470  18.658  14.390
41096W        W10911  20.721  21.636   0.856
41097W        W10912  44.795   9.289  12.398
41098W        W10913  19.235  25.000   0.845
41099W        W10914  15.823  13.270   4.266
41100W        W10915  31.580   3.733  14.946
41101W        W10916  38.386  38.339   3.698
41102W        W10917  19.671  10.239  13.450
41103W        W10918  22.112  29.572  14.441
41104W        W10919  20.262  17.240   3.357
41105W        W10920  17.164  31.559  14.314
41106W        W10921   5.904   9.852  12.516
41107W        W10922   9.300  17.158  11.559
41108W        W10923  13.210  17.697  12.050
41109W        W10924  15.606   6.834   2.264
41110W        W10925  29.157  29.493   1.340
41111W        W10926  16.788  17.113  13.381
41112W        W10927   2.774  20.040   4.340
41113W        W10928  15.590  24.127  14.963
41114W        W10929  42.460  30.433   4.795
41115W        W10930  21.695  31.920   0.366
41116W        W10931  15.216  41.812   3.359
41117W        W10932  21.598  20.131   3.369
41118W        W10933  19.775  35.378  12.446
41119W        W10934  23.039  10.841  11.610
41120W        W10935  24.989  13.731   0.890
41121W        W10936  17.666  26.608   1.803
41122W        W10937  12.136   1.463  10.642
41123W        W10938  18.659   0.897   4.622
41124W        W10939  23.032  23.081   3.712
41125W        W10940   5.195  35.863   4.706
41126W        W10941   3.755   3.875  13.846
41127W        W10942  18.120  20.601  14.418
41128W        W10943  43.772  39.343   1.752
41129W        W10944  39.468  27.650   2.795
41130W        W10945  29.975  15.225   4.779
41131W        W10946   7.692  10.178   4.679
41132W        W10947   6.690   5.286   3.729
41133W        W10948  34.978  42.521  11.602
41134W        W10949   9.254  10.182   3.196
41135W        W10950  19.660  39.393  14.451
41136W        W10951  42.895  40.510  14.413
41137W        W10952  22.223  11.670  13.030
41138W        W10953   8.295   4.822   3.839
41139W        W10954  39.409  32.560  14.998
41140W        W10955  37.574  14.760   4.644
41141W        W10956  15.161  13.801  10.519
41142W        W10957   0.782   9.270   4.632
41143W        W10958  31.458  26.195  10.949
41144W        W10959   1.772  39.497   3.648
41145W        W10960  22.195  14.115  11.128
41146W        W10961  44.880  23.058   1.404
41147W        W10962  19.647   0.786   4.832
41148W        W10963  38.005   6.409  11.531
41149W        W10964   1.331  34.115   3.299
41150W        W10965   1.429  13.166  11.554
41151W        W10966  12.232  21.017   1.350
41152W        W10967  27.995  37.960   2.881
41153W        W10968  32.438  43.313  14.401
41154W        W10969  43.273  41.957   3.352
41155W        W10970   3.333  14.664   5.189
41156W        W10971  40.991   5.431  12.450
41157W        W10972  32.916  14.638   2.786
41158W        W10973  42.853   1.846  14.359
41159W        W10974  13.110  10.272   1.908
41160W        W10975  32.466  26.635  13.059
41161W        W10976  36.397  12.622  14.437
41162W        W10977  20.242   3.779  11.077
41163W        W10978  11.635  10.270  14.313
41164W        W10979  31.079  37.354   3.697
41165W        W10980   3.383   3.785   1.420
41166W        W10981  13.706  34.882   4.760
41167W        W10982  17.250   3.718   0.274
41168W        W10983  38.066  35.394  11.864
41169W        W10984   5.213  41.535   0.435
41170W        W10985  35.074   8.282   3.693
41171W        W10986  33.128  34.591  11.446
41172W        W10987  13.719  19.106  10.419
41173W        W10988  14.761  43.778   0.259
41174W        W10989  36.533  43.883  11.973
41175W        W10990   9.156  24.223   3.186
41176W        W10991  26.056   9.179  12.968
41177W        W10992   3.438  19.549   0.243
41178W        W10993   6.396  44.010   0.378
41179W        W10994  21.641  40.031  11.568
41180W        W10995  17.161   2.877  13.794
41181W        W10996  37.853   5.910   4.728
41182W        W10997  18.748  36.005   4.292
41183W        W10998  14.262   6.244  13.041
41184W        W10999  27.977   3.915   4.158
41185W        W11000  35.878  44.443   2.860
41186W        W11001  38.345  35.038   4.332
41187W        W11002   3.460   4.322   2.880
41188W        W11003  20.694   7.827  14.407
41189W        W11004  23.105  12.770   4.280
41190W        W11005  24.173   0.365   4.296
41191W        W11006  15.150  20.672  11.908
41192W        W11007  43.812  14.763   1.289
41193W        W11008  23.642  14.705  12.495
41194W        W11009   0.418  31.455  12.830
41195W        W11010   8.332  17.654  12.918
41196W        W11011  27.598  42.476   1.263
41197W        W11012  23.730  16.274  12.004
41198W        W11013  21.038  29.669  11.513
41199W        W11014  15.691  20.629  12.447
41200W        W11015  16.676   7.204   0.429
41201W        W11016  18.713  35.591  12.929
41202W        W11017  14.628  13.685   1.417
41203W        W11018  13.246  34.535  14.356
41204W        W11019  27.085  40.431  10.010
41205W        W11020  22.112  29.612   0.855
41206W        W11021  11.795   9.189  14.784
41207W        W11022  11.808  18.648  12.383
41208W        W11023  13.311  39.938   1.234
41209W        W11024  18.091   4.740   1.366
41210W        W11025   3.297   4.410   1.417
41211W        W11026  25.524  21.108  13.007
41212W        W11027  13.152  13.227  14.840
41213W        W11028  36.063  25.212  11.000
41214W        W11029  40.367   0.749   0.256
41215W        W11030  26.513  38.991   4.347
41216W        W11031   6.736  25.138   0.403
41217W        W11032  16.669  35.496   3.637
41218W        W11033  24.209  38.859  12.824
41219W        W11034   8.698  39.468  10.988
41220W        W11035  22.226  18.735   4.324
41221W        W11036  21.555  12.674   0.302
41222W        W11037   1.867   6.804   1.818
41223W        W11038  30.579  43.437  13.900
41224W        W11039  11.798   6.799  13.984
41225W        W11040  19.218  34.612  13.049
41226W        W11041  19.073   6.385   4.202
41227W        W11042  26.144  22.219   3.293
41228W        W11043  28.107  26.627   2.863
41229W        W11044  14.654   7.828   2.776
41230W        W11045  16.738  33.582   4.305
41231W        W11046  27.629   3.298  11.110
41232W        W11047   6.282  40.813  13.493
41233W        W11048  25.216  10.310  12.549
41234W        W11049  18.641  28.014   0.243
41235W        W11050  18.127  40.987   4.772
41236W        W11051  24.003  23.536  11.949
41237W        W11052   4.739  30.620  10.119
41238W        W11053  25.694   1.783   1.439
41239W        W11054  16.149  18.554   3.669
41240W        W11055  41.866  34.442  12.044
41241W        W11056  39.555  20.037   3.236
41242W        W11057  39.033  17.236  14.337
41243W        W11058  23.533  42.947   1.734
41244W        W11059  17.271   0.396  13.529
41245W        W11060  41.901  27.541   0.949
41246W        W11061  15.133  19.218   4.183
41247W        W11062   9.355  33.077   0.757
41248W        W11063  25.029   7.900   4.332
41249W        W11064  10.186   1.366  11.884
41250W        W11065  39.467  18.205  10.912
41251W        W11066  15.319  32.614  11.572
41252W        W11067  32.047  22.051   3.194
41253W        W11068  40.363  40.509  11.070
41254W        W11069  28.145  42.912  14.807
41255W        W11070   8.171  22.624  11.945
41256W        W11071  12.192   4.383   2.769
41257W        W11072  33.464   7.772   1.285
41258W        W11073  26.093  21.660  14.512
41259W        W11074  37.009  13.143  12.090
41260W        W11075   6.743  12.626  13.967
41261W        W11076  41.415   3.874  11.968
41262W        W11077  19.716  28.098  10.410
41263W        W11078  14.642  17.704   2.721
41264W        W11079   8.887  43.886  11.376
41265W        W11080  11.364  27.475   3.853
41266W        W11081  42.503  32.462  11.466
41267W        W11082   9.810  30.564   0.374
41268W        W11083  36.858  40.047  12.062
41269W        W11084   5.240  39.530  13.829
41270W        W11085  43.977  35.575  13.893
41271W        W11086   5.690   0.468  10.448
41272W        W11087   5.297  13.190   1.232
41273W        W11088   2.913  40.534  13.810
41274W        W11089   0.270   2.303   3.198
41275W        W11090  26.068  21.701  10.565
41276W        W11091  18.567  40.518  10.001
41277W        W11092  33.083  19.279   1.436
41278W        W11093  36.946   7.354   0.735
41279W        W11094   8.661  29.026  14.940
41280W        W11095  27.640   1.912   4.828
41281W        W11096  25.680  17.128  11.088
41282W        W11097  28.026  28.655  10.935
41283W        W11098   8.768  40.887   0.730
41284W        W11099  11.720  38.403   1.782
41285W        W11100  16.120  30.562  13.320
41286W        W11101  23.723  27.972   4.269
41287W        W11102  24.983  34.868   3.739
41288W        W11103  41.964   8.184   0.462
41289W        W11104  28.978  10.798   3.776
41290W        W11105   5.712  10.650   0.470
41291W        W11106  37.999   3.883   3.344
41292W        W11107  17.675   5.410  13.310
41293W        W11108   6.385  14.767   4.313
41294W        W11109  17.556  30.493   0.251
41295W        W11110  38.975  39.333  13.528
41296W        W11111  22.547  31.621  10.471
41297W        W11112   4.783  36.438   0.912
41298W        W11113   3.827  31.416  14.953
41299W        W11114  42.308   4.935  11.032
41300W        W11115  15.222  22.526   1.210
41301W        W11116  23.717  16.237  10.535
41302W        W11117  32.984  29.108  14.977
41303W        W11118  38.965  31.942   2.710
41304W        W11119   3.239  43.327  10.572
41305W        W11120  36.978  20.046   2.753
41306W        W11121  33.104  18.185  10.607
41307W        W11122  38.980  38.042  13.369
41308W        W11123   0.761  35.398   0.253
41309W        W11124  19.082  26.987   2.231
41310W        W11125  33.389  16.073  10.520
41311W        W11126  28.123  27.645   2.411
41312W        W11127  31.050  33.112  13.958
41313W        W11128  18.082  17.569   4.671
41314W        W11129  36.849  11.286  13.543
41315W        W11130  11.148  44.879   1.931
41316W        W11131  36.401   6.758  14.416
41317W        W11132  32.455  25.035  11.481
41318W        W11133  27.589   6.303   1.898
41319W        W11134   6.828  20.526   0.306
41320W        W11135  38.913   1.291   4.821
41321W        W11136  13.636  21.072  14.293
41322W        W11137  40.987  42.469   0.948
41323W        W11138  42.850  32.924  14.482
41324W        W11139  37.509  12.165  11.411
41325W        W11140  24.549   1.308  12.422
41326W        W11141  31.534  28.547  13.972
41327W        W11142   1.885  11.663   0.275
41328W        W11143   0.265  26.553  11.964
41329W        W11144  36.533  35.368   0.816
41330W        W11145  18.087  13.802  10.405
41331W        W11146  43.313  41.532  10.069
41332W        W11147  33.469  29.970   2.710
41333W        W11148  35.490   6.732  13.851
41334W        W11149   0.950  37.959   0.450
41335W        W11150  18.183  40.363   1.891
41336W        W11151   4.384  15.098  14.003
41337W        W11152  10.183  31.584   1.369
41338W        W11153   3.310  11.180  11.521
41339W        W11154  30.067   8.825  11.475
41340W        W11155  26.621  19.278   4.799
41341W        W11156  17.713   7.250  12.427
41342W        W11157  23.530  41.379   2.673
41343W        W11158  38.462  17.606  10.408
41344W        W11159  42.023  16.641  12.989
41345W        W11160  18.619  34.028   1.329
41346W        W11161   4.859  20.637  13.535
41347W        W11162   4.750  42.505   3.180
41348W        W11163  34.370  28.508  12.942
41349W        W11164  31.446  30.572  14.871
41350W        W11165  29.582  14.283   2.844
41351W        W11166  24.657   6.786  11.495
41352W        W11167  28.161   5.828   4.327
41353W        W11168  29.445  42.370  11.959
41354W        W11169  42.969  24.181  11.381
41355W        W11170  21.712   2.879   1.739
41356W        W11171  33.444  43.817   3.785
41357W        W11172  21.064  28.677  10.591
41358W        W11173  14.791   5.868  12.029
41359W        W11174  11.213   0.820  10.456
41360W        W11175  38.922  20.125   2.748
41361W        W11176  21.052  32.586   3.729
41362W        W11177   7.747  40.441   2.312
41363W        W11178  43.468   1.820  12.345
41364W        W11179  27.598   7.215  13.959
41365W        W11180  22.181  13.803   0.439
41366W        W11181  18.281  15.701  12.841
41367W        W11182  27.042  29.425  14.917
41368W        W11183  26.575  28.461  11.073
41369W        W11184  36.881  21.110   4.750
41370W        W11185  28.961  35.493   3.837
41371W        W11186  33.492  30.444  12.837
41372W        W11187  40.054  28.590  10.965
41373W        W11188  18.262  42.523   3.232
41374W        W11189  16.146  41.873   3.794
41375W        W11190  17.657   8.203   1.376
41376W        W11191  17.296  23.034   1.326
41377W        W11192  16.603  13.178   4.146
41378W        W11193  33.072  44.811  11.533
41379W        W11194  22.021  21.029  14.848
41380W        W11195  12.781  40.919  13.995
41381W        W11196  41.318  40.798   1.900
41382W        W11197   2.443  37.020   0.830
41383W        W11198  14.618  34.099   2.253
41384W        W11199  30.658  11.858   4.780
41385W        W11200  24.624  28.665  13.895
41386W        W11201  26.041  38.949  10.956
41387W        W11202   6.838   2.909  11.099
41388W        W11203  20.719  32.528  13.453
41389W        W11204  31.461   3.728  13.855
41390W        W11205  33.559  22.212   4.114
41391W        W11206   4.284  43.347  10.480
41392W        W11207  13.183  21.181  13.387
41393W        W11208  38.411  22.533  13.477
41394W        W11209  36.448  43.355   3.664
41395W        W11210   0.315  21.558  14.994
41396W        W11211  18.080  14.757   4.285
41397W        W11212  32.459   2.464   3.278
41398W        W11213   9.692   0.485  14.793
41399W        W11214  25.578  27.955   2.301
41400W        W11215  40.477  43.789   4.691
41401W        W11216  21.516  27.574  13.044
41402W        W11217  42.445   7.670   2.220
41403W        W11218  19.727  28.517   0.812
41404W        W11219  22.594  44.884   2.710
41405W        W11220   8.210  25.572   2.298
41406W        W11221  29.569  34.421   1.220
41407W        W11222  25.533  21.158  11.057
41408W        W11223  41.944  28.526  12.453
41409W        W11224  38.023  44.381  11.382
41410W        W11225   7.407  10.708   3.755
41411W        W11226  43.818  36.025   4.212
41412W        W11227  29.092  17.657   3.762
41413W        W11228  14.113  12.226  14.477
41414W        W11229   9.889  23.985  12.519
41415W        W11230  33.082  21.543  10.504
41416W        W11231  25.708   1.466   4.302
41417W        W11232  12.208  17.205   4.242
41418W        W11233  41.475  42.447   1.862
41419W        W11234  39.345   3.862   3.638
41420W        W11235   0.975   1.312   3.149
41421W        W11236  25.147  21.096  10.931
41422W        W11237   8.209  41.317   5.725
41423W        W11238  27.144  41.803  12.467
41424W        W11239   2.742  12.251  11.940
41425W        W11240  27.942  37.950  10.543
41426W        W11241  10.787  32.136  12.983
41427W        W11242   3.262  25.076   1.897
41428W        W11243  16.227   8.189  14.367
41429W        W11244   5.895   6.778   0.268
41430W        W11245  12.317  22.668  12.002
41431W        W11246  38.472  23.507  14.322
41432W        W11247   1.483  37.014   4.767
41433W        W11248  20.568  29.955   0.948
41434W        W11249  19.249  18.590   3.772
41435W        W11250  32.897  22.048   4.737
41436W        W11251  25.984   2.431   1.895
41437W        W11252   9.274  31.127   1.227
41438W        W11253   4.844  41.457  14.344
41439W        W11254   0.372  28.640  12.531
41440W        W11255  35.952  39.970  11.126
41441W        W11256  15.816  27.652   2.845
41442W        W11257  26.125  28.437   1.321
41443W        W11258  18.231  15.189   3.276
41444W        W11259   2.839  12.809  12.382
41445W        W11260   5.909  12.772  13.358
41446W        W11261  35.452  21.708   2.272
41447W        W11262   4.337  30.068   2.668
41448W        W11263  25.491  14.699  12.043
41449W        W11264   4.743  14.255  11.999
41450W        W11265  11.200  11.664   2.879
41451W        W11266  15.227  18.276  10.436
41452W        W11267   4.929  39.405   4.668
41453W        W11268  42.477  19.610   4.310
41454W        W11269  17.130   8.829   5.145
41455W        W11270   4.318  16.802  12.902
41456W        W11271  32.498  36.442  13.988
41457W        W11272   7.884  22.073   3.765
41458W        W11273  40.904  29.068   4.787
41459W        W11274   5.864  30.505  11.604
41460W        W11275  31.065  13.342  13.928
41461W        W11276  36.949  34.078  14.935
41462W        W11277  23.066   7.256   1.258
41463W        W11278  34.497  33.875  12.467
41464W        W11279  18.196  29.625  13.540
41465W        W11280  25.206  33.096   1.227
41466W        W11281  39.478  17.114  12.540
41467W        W11282  18.765  11.235   2.236
41468W        W11283  27.119  12.761  13.466
41469W        W11284  43.314   0.430  14.422
41470W        W11285  36.035  37.578  11.481
41471W        W11286  40.958  31.125  12.079
41472W        W11287  44.261  28.074  11.885
41473W        W11288  35.420  36.540   4.642
41474W        W11289  25.166  44.003  11.128
41475W        W11290   7.183  41.022  13.002
41476W        W11291  44.907  37.975   3.380
41477W        W11292  32.488  19.687  14.965
41478W        W11293  23.521  38.471  13.366
41479W        W11294   1.265  20.118  13.942
41480W        W11295  29.950   1.745  13.418
41481W        W11296   5.220  18.778   1.340
41482W        W11297  30.079  41.344   4.250
41483W        W11298   5.745   9.790   0.357
41484W        W11299  33.471  41.812   2.365
41485W        W11300  15.715   0.952  14.500
41486W        W11301  15.293  37.970   3.667
41487W        W11302  11.148  43.480   2.855
41488W        W11303   5.840  22.056  13.038
41489W        W11304  44.912  19.153   2.893
41490W        W11305  14.197  21.053  13.386
41491W        W11306  36.922  20.633   1.443
41492W        W11307  12.855  37.495  12.457
41493W        W11308  35.415  21.527  10.610
41494W        W11309  38.014   0.832  13.393
41495W        W11310  41.865   9.822  10.554
41496W        W11311  26.179   0.269  12.411
41497W        W11312  38.433   6.320  11.982
41498W        W11313  40.923   3.727  11.457
41499W        W11314  10.372  28.629   4.810
41500W        W11315  28.969  23.695  10.890
41501W        W11316  19.730  23.702   1.355
41502W        W11317  12.272  38.835  13.493
41503W        W11318  22.078  38.537  12.576
41504W        W11319  34.480  33.455   5.236
41505W        W11320   3.292  26.962   3.792
41506W        W11321  31.107  16.716  12.094
41507W        W11322  43.326  13.804   4.755
41508W        W11323  21.189  40.310  12.463
41509W        W11324  40.392   4.234   3.211
41510W        W11325  44.941  22.185   0.880
41511W        W11326  41.931  35.526  13.795
41512W        W11327  39.545  20.715   2.267
41513W        W11328  41.893  23.584   5.219
41514W        W11329   3.271  31.596   3.185
41515W        W11330   2.843   0.900  14.981
41516W        W11331  43.354  12.319  10.448
41517W        W11332   9.715  29.499   4.635
41518W        W11333  31.931   6.393   2.765
41519W        W11334   5.904  16.195   1.907
41520W        W11335  20.613  42.977  10.055
41521W        W11336  29.493   9.185   0.319
41522W        W11337  13.644  21.600   4.808
41523W        W11338   4.254  11.853   2.342
41524W        W11339   2.410  15.318  13.974
41525W        W11340  41.891  41.791  10.957
41526W        W11341  32.629   4.906   1.750
41527W        W11342  30.973  17.658  11.975
41528W        W11343   6.886   7.384   4.223
41529W        W11344   9.380  35.984   4.197
41530W        W11345  27.517  42.446   4.192
41531W        W11346  22.109  19.560   0.375
41532W        W11347  22.705  10.340  13.975
41533W        W11348  38.023   1.266  12.354
41534W        W11349   4.852  36.852  10.996
41535W        W11350  42.486  38.853  14.856
41536W        W11351   3.772  37.536  11.446
41537W        W11352  26.007  38.015   1.403
41538W        W11353  30.489  11.839   5.206
41539W        W11354  36.456  11.770  10.406
41540W        W11355  29.107  31.034  12.542
41541W        W11356  32.596  11.244   2.239
41542W        W11357   1.977  33.898   0.895
41543W        W11358  41.005  35.931   4.634
41544W        W11359  28.105  24.058  11.860
41545W        W11360  35.512  26.556  11.084
41546W        W11361  16.275  15.740  12.853
41547W        W11362  38.971  40.484   3.274
41548W        W11363   7.849  39.367  14.027
41549W        W11364  20.148  35.968  14.444
41550W        W11365   9.318  36.562  13.029
41551W        W11366  13.649  11.836   3.695
41552W        W11367  21.735   0.952  14.936
41553W        W11368  19.264  28.619   3.748
41554W        W11369  21.217   6.690  10.888
41555W        W11370  24.075  15.311   2.820
41556W        W11371  38.024  12.268  14.331
41557W        W11372   5.376  19.568  14.988
41558W        W11373  28.006  37.051   3.335
41559W        W11374  20.593  38.992   4.193
41560W        W11375   1.835  28.551   2.707
41561W        W11376  20.185  21.244  12.906
41562W        W11377  23.575   9.671  11.383
41563W        W11378  28.955  20.181  12.989
41564W        W11379   9.312  35.426  14.299
41565W        W11380  42.296  18.212   4.198
41566W        W11381  22.557  29.002   3.201
41567W        W11382  33.523  22.022   2.724
41568W        W11383   4.363  23.712  14.419
41569W        W11384  32.483  27.088   4.797
41570W        W11385   7.350  37.572  13.407
41571W        W11386  20.694  22.647  11.864
41572W        W11387  31.583  23.999  11.430
41573W        W11388  32.997  17.769   1.747
41574W        W11389  37.519   1.968   2.810
41575W        W11390  33.083   9.738   1.807
41576W        W11391  19.780  19.585   1.853
41577W        W11392  24.092   1.310   2.406
41578W        W11393  34.950  34.015  14.493
41579W        W11394  26.508   6.875   3.653
41580W        W11395  15.712  26.461  11.866
41581W        W11396  33.621  17.720  12.896
41582W        W11397   7.798  28.186  12.385
41583W        W11398   9.879   0.417   1.924
41584W        W11399  10.233  16.792  12.006
41585W        W11400  23.632   3.921   2.862
41586W        W11401  15.203  40.974  14.351
41587W        W11402  33.461  42.317  10.519
41588W        W11403  29.499  12.201   3.842
41589W        W11404   8.785  30.105  12.046
41590W        W11405  42.980   5.203  11.906
41591W        W11406   8.837  35.530  11.503
41592W        W11407  30.070  40.363   1.313
41593W        W11408  44.930  37.403   3.679
41594W        W11409   1.428  44.905  14.489
41595W        W11410  34.987  30.020  13.890
41596W        W11411  21.521  39.528  13.892
41597W        W11412  10.802  25.626  14.775
41598W        W11413  31.574   9.266  11.560
41599W        W11414  27.644  44.450  10.543
41600W        W11415  38.991  43.484   0.749
41601W        W11416  20.739  39.353  12.083
41602W        W11417   6.681   1.964   4.734
41603W        W11418   9.856  12.802  12.898
41604W        W11419  20.214  18.234   3.734
41605W        W11420  40.472  28.039  12.053
41606W        W11421  11.252   5.193  10.457
41607W        W11422  16.096  40.998  13.443
41608W        W11423  19.704   2.467   2.269
41609W        W11424   9.829  15.751  11.087
41610W        W11425  31.484  27.948   1.292
41611W        W11426  23.555   6.894  10.986
41612W        W11427   4.265   4.709   4.819
41613W        W11428  24.517  10.144   4.292
41614W        W11429  38.434  35.521  10.422
41615W        W11430  39.822   9.177   1.389
41616W        W11431  24.024  22.570  12.484
41617W        W11432   6.197  43.925  10.554
41618W        W11433   3.755  27.458  14.856
41619W        W11434  15.667  14.189   0.766
41620W        W11435  23.111  34.052  13.370
41621W        W11436   3.858  27.978   2.401
41622W        W11437  12.800  21.645   1.874
41623W        W11438  29.646  24.033  11.560
41624W        W11439  10.176  32.131  10.466
41625W        W11440  36.872  28.962   3.742
41626W        W11441  13.219  33.014  14.824
41627W        W11442   9.689   0.953   0.412
41628W        W11443  24.623  24.028   1.274
41629W        W11444  23.652  37.504  10.925
41630W        W11445  26.586  24.672   3.313
41631W        W11446  37.067  22.179   4.688
41632W        W11447  37.984   6.878  11.889
41633W        W11448  35.440  28.965  13.012
41634W        W11449  22.196  25.548  10.449
41635W        W11450  36.586  38.934   4.819
41636W        W11451   7.706  23.048  10.943
41637W        W11452  33.553  39.866   3.184
41638W        W11453  42.934  40.454   2.282
41639W        W11454  34.051  19.195   0.339
41640W        W11455  36.025  26.988   1.243
41641W        W11456  31.912  39.058   3.714
41642W        W11457  41.405  37.557   4.143
41643W        W11458  40.978  27.663   4.258
41644W        W11459  37.924   3.333  11.998
41645W        W11460   5.284   5.409   1.249
41646W        W11461  27.635  43.827  11.117
41647W        W11462   6.281  24.182  14.493
41648W        W11463   4.394  11.729   4.186
41649W        W11464  25.487  36.527  14.970
41650W        W11465  33.553   4.417   0.482
41651W        W11466  41.822  36.493   3.177
41652W        W11467  27.641  33.392   2.691
41653W        W11468   3.944  23.126   0.811
41654W        W11469  14.152  44.435  12.839
41655W        W11470  18.577   8.162  11.105
41656W        W11471  33.093  21.141  10.620
41657W        W11472   7.770  21.163  12.041
41658W        W11473   7.232  13.337  14.372
41659W        W11474  18.166  13.666   4.826
41660W        W11475  21.151  36.537   4.633
41661W        W11476   8.815  20.678  11.931
41662W        W11477  28.608  43.494  13.932
41663W        W11478  43.851  37.443  13.422
41664W        W11479  11.208  19.222  10.587
41665W        W11480   0.443  20.127   0.292
41666W        W11481  25.009  33.534   0.832
41667W        W11482  25.069   9.329   2.204
41668W        W11483   3.312  23.028  10.935
41669W        W11484  32.406  44.969  13.857
41670W        W11485  42.466   6.284   1.266
41671W        W11486  12.744  16.605   0.474
41672W        W11487  22.534   6.847   2.671
41673W        W11488  35.453  34.987  10.465
41674W        W11489  42.860  35.962  13.820
41675W        W11490   9.301  31.047   0.775
41676W        W11491  23.199  34.881   1.303
41677W        W11492  27.504  34.475   0.918
41678W        W11493   9.708  30.574  14.907
41679W        W11494  17.149  17.205   0.921
41680W        W11495  11.853   9.314  10.564
41681W        W11496   2.824  18.104  11.113
41682W        W11497  23.626  35.999  12.378
41683W        W11498  25.049  41.424   3.746
41684W        W11499  36.928  20.064   0.439
41685W        W11500  18.229  10.325   3.867
41686W        W11501   8.338  27.167  10.638
41687W        W11502  36.993  15.714  11.395
41688W        W11503  14.223  36.537  13.818
41689W        W11504   8.674  37.355   3.792
41690W        W11505  16.280  14.310   1.319
41691W        W11506  34.481  41.891   0.273
41692W        W11507  19.773  18.559  12.341
41693W        W11508  17.647  31.517  14.771
41694W        W11509  23.567  35.392  11.465
41695W        W11510  15.592   3.396   2.847
41696W        W11511  21.030   0.881  14.996
41697W        W11512  22.506  23.525   2.217
41698W        W11513  25.131   7.681   0.264
41699W        W11514   4.713  27.467   2.783
41700W        W11515  16.719   6.354   1.737
41701W        W11516   9.865  14.633   2.676
41702W        W11517  30.016  35.897   0.963
41703W        W11518  18.258  35.034  14.277
41704W        W11519  28.101  42.460  12.360
41705W        W11520   4.279  21.519  13.836
41706W        W11521  27.602  42.397  14.899
41707W        W11522  37.402  44.466   5.167
41708W        W11523  44.763  32.059  11.400
41709W        W11524  27.063  22.730  11.942
41710W        W11525  16.589   1.783   2.858
41711W        W11526   3.408  16.147   3.327
41712W        W11527  17.593  31.585   0.442
41713W        W11528  11.169  39.443   1.228
41714W        W11529  17.060  35.513  12.951
41715W        W11530  22.151  31.997   4.228
41716W        W11531  44.317  23.005  13.469
41717W        W11532  36.590   7.697  11.506
41718W        W11533   7.778  20.070   4.229
41719W        W11534   4.221  38.882   4.762
41720W        W11535   7.702  37.510   3.275
41721W        W11536  44.928  41.786   0.356
41722W        W11537  38.998   4.434   3.718
41723W        W11538  18.166  13.838  14.367
41724W        W11539  29.592  17.599   3.355
41725W        W11540  35.561   3.384   2.761
41726W        W11541  22.146   0.353  11.591
41727W        W11542  32.587  13.106  11.915
41728W        W11543   6.852   5.276   2.202
41729W        W11544  24.672  37.922  11.587
41730W        W11545  15.600  26.008   0.393
41731W        W11546  37.375  28.070   1.279
41732W        W11547  15.666  33.989   4.645
41733W        W11548  25.481  16.774   2.756
41734W        W11549  35.899  35.103  11.874
41735W        W11550  43.297   5.713  10.956
41736W        W11551  10.338  21.101   2.375
41737W        W11552  20.756  44.288   2.775
41738W        W11553  26.097   9.217  13.976
41739W        W11554  42.777  10.228   2.848
41740W        W11555   6.676  38.423  11.069
41741W        W11556  23.101  44.378  10.953
41742W        W11557   0.296  41.389  13.990
41743W        W11558  27.044  14.808  12.422
41744W        W11559  40.355  28.523   1.916
41745W        W11560  28.086  42.975  14.334
41746W        W11561  26.063  11.764  14.390
41747W        W11562   2.895   9.384  14.906
41748W        W11563  20.546  10.786  14.299
41749W        W11564  36.096  36.951   4.762
41750W        W11565  44.840  15.321  13.896
41751W        W11566  44.911   5.394  13.971
41752W        W11567  31.565  26.664   5.206
41753W        W11568  33.391  28.113  10.414
41754W        W11569   9.329   7.394   0.426
41755W        W11570  27.632  42.927   4.168
41756W        W11571  13.133  42.029  12.839
41757W        W11572  10.789  21.571  14.317
41758W        W11573  35.589   8.735  13.009
41759W        W11574   4.836  27.490  12.423
41760W        W11575  37.392  21.696  12.455
41761W        W11576  36.982   5.897  10.426
41762W        W11577  43.954  39.547  12.094
41763W        W11578  18.707  38.043   0.256
41764W        W11579  28.015  17.138  13.989
41765W        W11580  23.651  37.974   0.864
41766W        W11581  13.120  22.521   5.237
41767W        W11582  15.294  26.568  11.867
41768W        W11583  30.436  34.476  11.434
41769W        W11584   9.286  35.913  14.290
41770W        W11585  30.130   4.424   4.113
41771W        W11586  28.664  31.069   1.329
41772W        W11587  35.874  34.069   4.195
41773W        W11588  13.629  30.924  14.804
41774W        W11589  36.065  26.642  12.526
41775W        W11590  19.040  28.559  11.094
41776W        W11591  33.409   0.282  13.946
41777W        W11592  44.403   0.323   2.184
41778W        W11593  37.367  34.961  13.970
41779W        W11594  36.468  10.170   3.280
41780W        W11595  39.435   7.908   3.805
41781W        W11596  10.182  32.567   3.283
41782W        W11597  26.570   2.428  13.032
41783W        W11598   0.486  10.812  14.768
41784W        W11599  21.629  36.012   3.643
41785W        W11600   8.751  18.704   2.706
41786W        W11601  14.302  14.616   2.268
41787W        W11602  12.840  35.409   4.648
41788W        W11603  23.079  34.466   1.924
41789W        W11604  39.818  18.629  10.968
41790W        W11605  33.122   0.335   3.792
41791W        W11606  36.853   9.681   1.286
41792W        W11607  28.125   1.857   0.915
41793W        W11608  37.925  30.010   2.810
41794W        W11609  30.453  10.855   0.924
41795W        W11610  21.534  37.960  11.022
41796W        W11611  23.226  24.167  12.074
41797W        W11612  41.848   3.808  12.845
41798W        W11613   3.879  11.708  11.083
41799W        W11614  20.715   6.375   2.713
41800W        W11615   0.404  18.106   4.782
41801W        W11616  38.509  28.575   2.778
41802W        W11617  44.869   5.689   1.823
41803W        W11618  26.971  22.709   0.483
41804W        W11619  10.782   7.413  10.527
41805W        W11620  34.009  30.991  14.936
41806W        W11621  20.613  28.114  14.392
41807W        W11622   8.886   0.981  11.036
41808W        W11623   1.433  23.105   2.307
41809W        W11624   4.390  27.010  11.936
41810W        W11625  17.717  43.331  10.639
41811W        W11626  31.621   3.268  12.351
41812W        W11627   0.345  16.670   1.345
41813W        W11628  27.044   7.792   1.298
41814W        W11629  36.074  33.522  13.518
41815W        W11630  18.661  33.023  13.881
41816W        W11631   7.807  29.965   2.413
41817W        W11632  33.918  23.165  10.497
41818W        W11633  14.672  37.965   1.337
41819W        W11634  27.014   7.773  14.427
41820W        W11635  39.470  31.919  14.441
41821W        W11636  29.122  17.084  11.880
41822W        W11637  21.524  23.985   3.380
41823W        W11638  30.502  18.700   1.374
41824W        W11639  22.726   8.386   1.827
41825W        W11640   6.408   1.364   3.315
41826W        W11641  38.499   6.791   2.343
41827W        W11642  34.029   6.857  10.983
41828W        W11643  17.209  23.503   4.289
41829W        W11644  25.001   3.837  13.017
41830W        W11645  39.064  41.372  10.133
41831W        W11646  37.484  24.060  14.968
41832W        W11647  37.917   7.262  11.428
41833W        W11648  13.731  29.631  13.508
41834W        W11649  35.021  35.412  14.993
41835W        W11650  33.395  44.771  13.539
41836W        W11651  44.768  22.007  10.634
41837W        W11652  33.983  11.713   2.348
41838W        W11653   9.758  12.732   4.796
41839W        W11654   6.257  39.347   1.762
41840W        W11655  34.971  30.439  11.540
41841W        W11656  25.586  40.372   1.788
41842W        W11657  39.895   8.310   1.729
41843W        W11658  10.702  38.950   4.791
41844W        W11659   7.193  22.601   1.263
41845W        W11660  12.195  39.544  14.985
41846W        W11661  38.074  39.824   3.703
41847W        W11662   6.302  22.635  11.425
41848W        W11663   4.227  36.347   3.267
41849W        W11664  32.595   7.362   2.412
41850W        W11665  11.192   0.370  11.509
41851W        W11666   2.884  42.323  14.956
41852W        W11667  26.081  42.792   0.903
41853W        W11668  10.671  33.526  14.451
41854W        W11669  37.981  36.436  14.308
41855W        W11670  18.653  37.573  11.588
41856W        W11671  43.904   9.656   2.273
41857W        W11672  21.592  44.346   2.314
41858W        W11673  11.656  38.550   0.415
41859W        W11674  16.776  17.778   1.837
41860W        W11675  11.736   5.220   3.160
41861W        W11676  19.062  41.297   3.693
41862W        W11677  18.200   8.697  13.509
41863W        W11678  28.929  35.109   0.256
41864W        W11679  34.411  28.502   3.669
41865W        W11680  26.616  21.186   2.309
41866W        W11681   8.846  11.130   4.136
41867W        W11682  29.083  33.989   0.346
41868W        W11683  23.217  18.673  10.559
41869W        W11684   4.307  32.961  10.908
41870W        W11685  14.172  20.698   2.230
41871W        W11686   7.274  19.597  12.496
41872W        W11687  21.101  25.218   1.779
41873W        W11688   3.893   5.838   4.635
41874W        W11689  25.511  24.686   4.149
41875W        W11690  12.338  28.180   0.429
41876W        W11691  23.581  12.158  11.882
41877W        W11692  17.073  42.373  12.363
41878W        W11693  37.889  31.973  14.930
41879W        W11694  44.452  44.855  13.452
41880W        W11695  43.976  13.160   1.426
41881W        W11696  25.545  33.981   0.296
41882W        W11697  32.964  10.307   3.646
41883W        W11698  44.938   1.941   3.191
41884W        W11699  28.460  20.768   3.277
41885W        W11700   7.863  19.679   1.398
41886W        W11701  19.122   4.786  13.934
41887W        W11702  21.605  23.127   0.907
41888W        W11703  29.930  10.745   0.766
41889W        W11704  12.625   4.767   2.750
41890W        W11705  23.111  36.347   1.727
41891W        W11706  21.243   7.688  14.455
41892W        W11707  16.072   6.350  11.026
41893W        W11708  42.893  30.515  12.079
41894W        W11709  28.541   4.804   1.858
41895W        W11710  27.024  11.234  13.362
41896W        W11711  33.002  19.655   2.392
41897W        W11712  22.124  19.103   1.275
41898W        W11713  20.753  27.148   3.758
41899W        W11714  39.483  41.394  12.555
41900W        W11715  37.396  12.830   0.446
41901W        W11716  43.341  18.591   4.707
41902W        W11717  31.504  17.601  10.450
41903W        W11718   5.751  27.565  14.344
41904W        W11719   3.923  44.435   0.249
41905W        W11720   8.203   9.694  11.990
41906W        W11721  18.056  32.569  10.913
41907W        W11722  20.728   6.910   4.700
41908W        W11723  23.221  18.674   1.233
41909W        W11724  26.021  24.693  10.998
41910W        W11725  33.612   4.708   4.128
41911W        W11726  15.171  40.394   2.254
41912W        W11727  35.570   0.456  14.800
41913W        W11728  44.267  12.318   1.901
41914W        W11729  12.624  38.379   0.387
41915W        W11730  33.584  25.639  14.996
41916W        W11731  12.210  31.418  13.392
41917W        W11732  23.182  12.749   2.687
41918W        W11733  31.645  12.743   4.718
41919W        W11734   7.755  37.834  10.623
41920W        W11735  25.062  39.526  10.941
41921W        W11736   3.899  24.534   4.673
41922W        W11737  22.613  32.592  13.466
41923W        W11738   3.326  14.784   3.225
41924W        W11739  36.933   1.918   0.273
41925W        W11740  44.842  43.008  11.545
41926W        W11741  29.663   1.939  11.441
41927W        W11742  10.825  15.087  12.924
41928W        W11743  33.430  23.210  12.051
41929W        W11744  41.821   2.744  13.879
41930W        W11745   8.363   2.795  10.452
41931W        W11746  41.357   4.766   2.689
41932W        W11747  38.889  36.591   4.187
41933W        W11748  13.835   6.313   1.378
41934W        W11749  39.856   6.374  12.351
41935W        W11750  18.140  26.960   4.269
41936W        W11751  17.166   6.379   3.279
41937W        W11752  38.992  37.513   2.837
41938W        W11753  23.052  37.964   1.808
41939W        W11754  18.146  26.546   2.769
41940W        W11755   3.434   1.363  11.040
41941W        W11756  38.517  35.926   0.369
41942W        W11757  10.150  22.523  13.516
41943W        W11758  44.490   6.866   3.353
41944W        W11759   2.826   7.740  11.595
41945W        W11760  38.514  23.022  13.348
41946W        W11761   0.866  27.678   4.685
41947W        W11762  39.348  39.408   4.311
41948W        W11763  38.447  25.028  11.432
41949W        W11764  36.533  10.358  12.570
41950W        W11765   5.869  20.758  11.457
41951W        W11766   3.831  24.143   0.329
41952W        W11767  38.956  18.145   3.793
41953W        W11768  43.809  23.065  12.949
41954W        W11769  32.558  14.328   1.760
41955W        W11770  29.950  11.190  14.849
41956W        W11771  33.924  29.552  10.497
41957W        W11772   3.883  40.393  10.157
41958W        W11773  22.242  18.765  11.398
41959W        W11774  39.366  23.054  13.319
41960W        W11775  37.066  34.447   3.197
41961W        W11776  33.567  38.491   1.856
41962W        W11777  38.062  30.533   5.165
41963W        W11778  38.365  12.691   4.786
41964W        W11779  36.455  37.341   4.828
41965W        W11780  42.975  38.069   0.372
41966W        W11781  28.667  13.638  13.510
41967W        W11782  25.600  37.459   1.265
41968W        W11783   6.384  32.474   4.826
41969W        W11784  14.626  37.385  10.604
41970W        W11785  44.502  39.038  11.540
41971W        W11786  24.204   3.236  10.619
41972W        W11787  23.547  26.122   1.738
41973W        W11788  11.318  44.882  14.929
41974W        W11789   0.396  44.888   1.359
41975W        W11790  33.570   8.236   3.228
41976W        W11791  28.479  36.503  11.496
41977W        W11792  23.117  17.556  10.959
41978W        W11793   7.183  43.766  10.404
41979W        W11794  23.730   4.322  13.489
41980W        W11795  35.938  11.841  11.889
41981W        W11796   5.195  18.051  12.990
41982W        W11797   7.375  21.572   2.894
41983W        W11798  42.354   0.459   1.289
41984W        W11799  36.533  18.066   9.942
41985W        W11800  30.659  34.019   0.928
41986W        W11801  27.667  13.297  12.069
41987W        W11802  18.748  43.952  11.387
41988W        W11803  17.234  40.904  12.405
41989W        W11804  36.882   1.928   3.661
41990W        W11805  35.033  19.089   4.787
41991W        W11806  32.017  18.606  14.279
41992W        W11807  41.910   2.374   2.274
41993W        W11808  11.731  36.467  10.442
41994W        W11809  25.106  19.114   3.702
41995W        W11810  32.472  15.638   0.907
41996W        W11811  13.278  20.636   2.410
41997W        W11812  14.649  24.686  12.018
41998W        W11813  40.979  29.439  10.593
41999W        W11814   9.796  28.999  11.979
42000W        W11815  43.786   5.383   1.397
42001W        W11816  12.651  15.817   2.710
42002W        W11817  40.969   7.721   3.656
42003W        W11818  36.923   9.159  13.835
42004W        W11819   1.893   4.333   3.670
42005W        W11820  12.310  33.526   3.706
42006W        W11821  10.767  18.604  13.870
42007W        W11822  28.151  44.278  12.017
42008W        W11823   6.391   5.796   3.644
42009W        W11824  23.125  43.354   3.259
42010W        W11825  24.203   6.287  14.402
42011W        W11826  26.513  30.597   2.241
42012W        W11827  11.757  16.642  12.882
42013W        W11828   6.724  38.522   0.815
42014W        W11829  12.833  10.761   3.776
42015W        W11830  15.098  10.640  10.416
42016W        W11831  35.529  10.745   4.345
42017W        W11832  32.528  14.729  11.409
42018W        W11833  34.873  33.607   1.234
42019W        W11834  27.573  35.483   1.702
42020W        W11835  10.664  12.761   5.296
42021W        W11836  13.651  41.907  12.929
42022W        W11837  24.505  29.960   1.851
42023W        W11838  36.566  31.076   0.430
42024W        W11839  44.985  39.966  13.314
42025W        W11840  33.043  34.958  12.848
42026W        W11841   2.767   7.667   3.804
42027W        W11842  12.818   4.432   1.901
42028W        W11843  42.366   8.715   4.647
42029W        W11844  32.626  27.535  12.461
42030W        W11845   3.443  37.448   5.308
42031W        W11846  39.053  10.286   3.789
42032W        W11847  44.008   2.830   1.451
42033W        W11848   8.297  21.719  14.811
42034W        W11849  31.956   4.724  12.921
42035W        W11850  17.773  27.598   3.633
42036W        W11851  25.121  14.716  11.073
42037W        W11852  30.498  42.876   2.394
42038W        W11853  23.035  29.985  14.341
42039W        W11854  41.818  34.017  13.795
42040W        W11855  31.530  12.791   0.744
42041W        W11856  13.809  12.297   1.836
42042W        W11857  10.752   8.404  11.464
42043W        W11858   0.357   5.793   2.818
42044W        W11859  11.372   5.702  11.945
42045W        W11860  19.203  19.608  13.441
42046W        W11861  27.673  44.374  13.357
42047W        W11862  30.151  33.465   4.281
42048W        W11863   2.270  31.137  11.419
42049W        W11864   9.855  42.029   3.268
42050W        W11865  19.622  34.904   1.426
42051W        W11866   1.436   5.704   1.707
42052W        W11867   7.682  20.144   3.645
42053W        W11868  24.096  18.638   1.714
42054W        W11869  21.185  31.576   3.360
42055W        W11870  30.156  43.789  12.453
42056W        W11871  26.090  31.427  12.527
42057W        W11872  16.584   2.450   0.343
42058W        W11873  13.232  26.546  13.459
42059W        W11874   9.391  31.979   4.664
42060W        W11875  30.611  22.157  13.532
42061W        W11876   6.677   3.807  12.019
42062W        W11877  35.555  44.764  11.983
42063W        W11878  11.626   1.395  12.022
42064W        W11879  14.773   3.840   4.715
42065W        W11880  10.852  11.628  14.013
42066W        W11881   8.879  27.145   3.637
42067W        W11882  24.140  24.635   3.701
42068W        W11883   2.265   5.789  11.043
42069W        W11884  24.231  18.175  14.479
42070W        W11885  18.237  30.132  14.933
42071W        W11886   6.779   1.828   3.203
42072W        W11887  22.596  16.250  11.585
42073W        W11888  31.948  14.814   3.197
42074W        W11889  12.302  10.693   3.229
42075W        W11890  27.047  33.965  13.916
42076W        W11891  42.797  37.831  13.993
42077W        W11892  14.168  25.111   4.204
42078W        W11893  17.643  26.550  12.043
42079W        W11894  44.451  19.729   4.646
42080W        W11895  36.063   5.384   3.763
42081W        W11896   4.909  41.834   1.355
42082W        W11897   3.300   8.895   2.402
42083W        W11898  31.431  37.864  14.465
42084W        W11899   4.412  31.051   0.878
42085W        W11900  36.984   7.695   3.757
42086W        W11901  28.147  37.352  14.793
42087W        W11902  26.553  41.791  11.536
42088W        W11903  18.256   0.973   0.289
42089W        W11904   6.702   5.358  14.885
42090W        W11905  14.258   1.423  14.439
42091W        W11906  19.119  17.587   4.757
42092W        W11907  40.374  15.152  14.364
42093W        W11908  33.398   7.677  14.871
42094W        W11909  18.746  18.183   5.232
42095W        W11910  17.684   0.444   0.370
42096W        W11911   2.419  21.062   2.401
42097W        W11912   6.733  43.342  10.907
42098W        W11913  37.969  38.350  13.344
42099W        W11914   2.241  43.986   1.286
42100W        W11915  33.599  13.345   0.368
42101W        W11916   7.341  13.602  12.879
42102W        W11917  37.851  19.690  12.521
42103W        W11918  29.623   7.723  13.888
42104W        W11919   2.372  26.475  14.329
42105W        W11920   3.805   0.254  13.350
42106W        W11921   7.301  17.143   3.852
42107W        W11922  22.620   0.394   0.473
42108W        W11923  26.474  40.473  10.491
42109W        W11924   5.773  35.363   1.702
42110W        W11925  18.252  40.992  14.507
42111W        W11926   1.241  39.829  14.784
42112W        W11927  26.625  22.195   4.621
42113W        W11928  44.277   2.342   4.227
42114W        W11929  30.153   6.853   1.694
42115W        W11930  30.493  24.684  14.862
42116W        W11931  37.045  23.999   1.235
42117W        W11932  42.301  42.381   2.231
42118W        W11933   9.653  35.926  11.099
42119W        W11934  41.500   8.303   2.750
42120W        W11935  28.058  14.277  10.486
42121W        W11936  34.978   6.698  10.940
42122W        W11937   4.227   1.801  11.023
42123W        W11938  12.743  22.061  13.996
42124W        W11939   9.380   3.260  13.529
42125W        W11940  23.080   8.325   3.280
42126W        W11941   2.435  16.268  11.378
42127W        W11942   7.300  13.342  12.427
42128W        W11943  21.158   1.850  14.786
42129W        W11944  23.074  12.252   2.741
42130W        W11945  22.619   1.391  13.347
42131W        W11946   7.294  20.656   4.319
42132W        W11947  11.799   3.231  12.539
42133W        W11948  32.098  16.244   1.928
42134W        W11949  43.907  42.953   4.265
42135W        W11950  37.935  17.207  14.454
42136W        W11951   5.268  22.621   3.654
42137W        W11952  43.440  12.251   0.259
42138W        W11953  31.429  16.746  12.521
42139W        W11954   4.883  44.851  13.545
42140W        W11955  15.777  28.106  13.317
42141W        W11956  23.640  37.513   3.833
42142W        W11957  20.543  18.776   3.243
42143W        W11958   7.335  21.067   5.273
42144W        W11959  34.914   8.257   3.361
42145W        W11960  31.134  36.367  13.990
42146W        W11961   6.203   0.761  13.397
42147W        W11962  17.236  13.785   4.670
42148W        W11963   4.430  27.044  12.352
42149W        W11964  32.610  16.617  11.909
42150W        W11965   4.760  27.640   4.307
42151W        W11966  12.298  39.558   2.665
42152W        W11967  10.245   9.670   4.615
42153W        W11968   3.880  16.105  13.013
42154W        W11969  27.104  30.601  12.415
42155W        W11970  29.002   7.358   2.409
42156W        W11971  37.390  37.485   3.649
42157W        W11972   2.948  29.145   0.282
42158W        W11973  26.185  33.480   3.190
42159W        W11974  18.183  11.814   2.873
42160W        W11975   1.803   2.791  14.804
42161W        W11976  34.550   4.887  13.989
42162W        W11977   5.374  24.573  10.421
42163W        W11978  33.000   1.821   1.781
42164W        W11979   4.703  18.169  10.100
42165W        W11980  11.795   3.346  12.901
42166W        W11981  28.110   6.897   4.159
42167W        W11982  44.334  37.966   2.222
42168W        W11983  30.620  43.943  11.444
42169W        W11984  27.122  14.219   3.151
42170W        W11985  39.427  24.060   0.283
42171W        W11986  25.194   3.433   0.785
42172W        W11987  24.133  26.602  12.891
42173W        W11988  25.102   0.479   3.781
42174W        W11989   0.909   2.338   0.368
42175W        W11990  30.511  13.797   4.128
42176W        W11991  41.309  24.508   3.650
42177W        W11992   6.900   4.413  10.623
42178W        W11993  39.816   0.287  13.809
42179W        W11994   0.848  29.949   2.276
42180W        W11995   2.761  33.067   2.393
42181W        W11996  38.916  26.513  14.445
42182W        W11997  43.446  29.590  13.498
42183W        W11998  33.436  11.818  11.949
42184W        W11999   3.801  20.570  10.475
42185W        W12000  39.961  42.001   0.296
42186W        W12001   2.868  36.515   3.231
42187W        W12002   3.453  28.577   3.230
42188W        W12003  37.006   0.882  13.465
42189W        W12004  43.015  41.313  13.407
42190W        W12005  26.191  32.446  10.533
42191W        W12006  41.884  13.675   2.415
42192W        W12007  13.118  15.647   0.256
42193W        W12008  10.252  42.838   1.694
42194W        W12009  32.082  27.964   2.748
42195W        W12010  38.026  10.363  14.938
42196W        W12011  34.481  11.653   2.793
42197W        W12012  15.123  25.675  14.431
42198W        W12013   0.454   9.830   0.432
42199W        W12014  22.659  14.142  14.444
42200W        W12015  19.746  20.243  13.337
42201W        W12016  31.955  39.912   3.799
42202W        W12017  11.643   2.398   0.327
42203W        W12018  29.992  34.561  14.366
42204W        W12019  30.158  10.377   1.281
42205W        W12020  10.653  18.791  13.024
42206W        W12021  35.909  33.896   4.598
42207W        W12022  10.813  23.049  14.409
42208W        W12023   5.378  33.516   2.715
42209W        W12024   9.802  27.171  13.875
42210W        W12025  32.080   8.194  11.458
42211W        W12026   2.933  24.577  13.823
42212W        W12027  28.438  21.551   0.331
42213W        W12028  27.578  41.996  13.800
42214W        W12029  36.455  26.468   4.799
42215W        W12030   3.762  10.281  14.372
42216W        W12031  40.388  30.641   3.661
42217W        W12032  41.027  22.659   3.714
42218W        W12033  11.687  39.029   3.202
42219W        W12034  16.721  37.988  14.959
42220W        W12035   3.325  37.931  14.482
42221W        W12036  13.795   5.338  11.966
42222W        W12037  32.955  44.444   2.793
42223W        W12038  41.851  39.892   0.901
42224W        W12039  11.204   4.294   0.300
42225W        W12040  40.303  22.639   2.690
42226W        W12041  11.139  26.967   3.216
42227W        W12042  32.989  24.156  11.498
42228W        W12043  28.669  33.057  14.433
42229W        W12044  27.676  20.243   1.237
42230W        W12045  40.938  14.597  12.556
42231W        W12046  30.995  32.039  10.906
42232W        W12047  29.926  39.808  12.029
42233W        W12048  33.123   4.727  10.559
42234W        W12049  21.243  37.036   4.785
42235W        W12050  38.063  34.485  12.363
42236W        W12051  38.059  10.754   0.412
42237W        W12052  21.676  23.676   2.855
42238W        W12053  17.621  13.825  11.027
42239W        W12054  32.924   1.911   0.811
42240W        W12055  39.396  11.636   1.320
42241W        W12056  30.593   6.885  12.868
42242W        W12057  39.545  32.417  10.920
42243W        W12058  30.648   9.856  13.366
42244W        W12059   5.711  28.515  13.320
42245W        W12060   1.804   5.823   4.619
42246W        W12061  22.065  39.554  13.497
42247W        W12062  10.719  17.641   2.866
42248W        W12063  10.169  17.170   5.167
42249W        W12064  15.116  40.534  12.570
42250W        W12065   8.875  36.928   4.783
42251W        W12066  19.239  32.491  10.895
42252W        W12067   4.933  24.022   2.379
42253W        W12068  30.051  20.709   4.193
42254W        W12069   5.312  21.166  12.443
42255W        W12070   2.760  17.705   0.728
42256W        W12071   2.761  14.610  13.053
42257W        W12072  20.089  40.397   0.458
42258W        W12073  38.894  12.295  11.885
42259W        W12074  29.617  25.086  10.078
42260W        W12075  19.696  34.564   4.736
42261W        W12076  43.489  38.987  10.905
42262W        W12077  39.893   3.402  14.816
42263W        W12078  36.413  31.089  11.426
42264W        W12079  29.440  10.182  11.860
42265W        W12080   5.244  41.360   4.733
42266W        W12081  33.075  16.670  13.393
42267W        W12082  15.210  33.502  12.365
42268W        W12083   7.673  44.303  14.877
42269W        W12084  16.803   3.883  12.503
42270W        W12085  10.811  26.974  11.982
42271W        W12086  27.565  13.228   1.361
42272W        W12087  14.101   4.793  13.509
42273W        W12088   3.823   4.239  11.598
42274W        W12089  23.212  43.842   4.753
42275W        W12090  41.937   1.852   1.366
42276W        W12091  26.121  16.252  14.281
42277W        W12092  28.082  36.864  12.011
42278W        W12093  24.219  20.632  10.898
42279W        W12094  40.441   3.872   0.894
42280W        W12095  27.614  40.932   0.818
42281W        W12096  34.399  10.369  13.491
42282W        W12097  20.120  38.843  13.900
42283W        W12098  37.374   8.212   3.848
42284W        W12099  20.093   1.753  14.974
42285W        W12100  17.066  12.781  11.932
42286W        W12101  26.640  38.064  13.908
42287W        W12102  37.360  39.465   1.859
42288W        W12103  20.262  31.459   0.760
42289W        W12104  11.287  20.108  11.469
42290W        W12105   5.237  13.842   3.289
42291W        W12106  25.597  30.491  13.540
42292W        W12107  40.054  20.051  11.471
42293W        W12108  28.585  25.472  11.084
42294W        W12109  32.500  30.966   1.233
42295W        W12110  33.499   7.851   2.822
42296W        W12111  12.682  34.055  12.908
42297W        W12112   2.722  27.587   4.809
42298W        W12113   4.395  38.505  10.466
42299W        W12114   0.980  27.642  11.489
42300W        W12115  43.339  13.297   3.634
42301W        W12116   2.332  16.710   2.209
42302W        W12117  24.587  33.989  13.829
42303W        W12118  27.960  17.117   1.738
42304W        W12119   3.376  32.962   0.771
42305W        W12120  27.045  41.028  12.046
42306W        W12121  41.473  23.504   0.927
42307W        W12122  19.225  38.450  14.792
42308W        W12123  37.079  40.882   4.343
42309W        W12124  18.121  17.633   2.675
42310W        W12125  35.481   1.773   2.759
42311W        W12126  26.573  42.441   0.832
42312W        W12127  24.077  20.167   2.407
42313W        W12128   1.428   1.838   4.645
42314W        W12129  28.160  13.214   2.799
42315W        W12130  10.634  26.044  12.539
42316W        W12131  15.663  43.876  14.515
42317W        W12132  19.587   0.446   0.401
42318W        W12133   7.740   6.726  13.483
42319W        W12134  24.591  38.819   4.326
42320W        W12135   2.418  38.025   4.786
42321W        W12136  42.932  44.896   2.834
42322W        W12137  43.464  44.489  13.851
42323W        W12138   1.365  35.965   1.282
42324W        W12139  19.114  22.617  11.008
42325W        W12140  12.126   4.260  10.485
42326W        W12141  32.530  24.074   0.862
42327W        W12142  27.121   8.199   1.319
42328W        W12143  23.151  14.773  12.934
42329W        W12144  37.968  30.065  11.060
42330W        W12145  34.408  14.221  13.929
42331W        W12146  32.618  23.622  13.011
42332W        W12147  13.252  44.770   0.426
42333W        W12148  13.193  30.914   1.424
42334W        W12149  25.971  10.814  11.937
42335W        W12150  17.700   4.858  10.585
42336W        W12151  38.950  33.005   3.225
42337W        W12152   5.355  11.631   2.888
42338W        W12153  42.472  33.491   3.680
42339W        W12154  39.952   1.323  11.074
42340W        W12155  27.194  36.523   3.649
42341W        W12156  40.351   0.868   2.843
42342W        W12157   0.481  44.480   3.287
42343W        W12158  31.979   9.726  14.907
42344W        W12159   1.262   8.404  11.511
42345W        W12160   4.396   3.952   0.457
42346W        W12161  42.881  37.404   4.813
42347W        W12162  38.346  43.820   1.449
42348W        W12163   5.892  34.475   4.303
42349W        W12164  39.351  42.326   0.741
42350W        W12165  27.645  13.716  10.935
42351W        W12166  32.543  21.555   4.344
42352W        W12167  18.710  28.009  10.081
42353W        W12168  34.007  19.656   3.207
42354W        W12169   4.794   7.283   4.196
42355W        W12170  34.917   1.908   3.321
42356W        W12171   4.404  42.886   4.333
42357W        W12172  38.057   5.433  12.895
42358W        W12173  44.413  12.660  10.927
42359W        W12174  31.429  34.011   0.469
42360W        W12175  23.706  44.999   1.246
42361W        W12176  39.530  26.979   3.792
42362W        W12177  38.977   1.343   2.900
42363W        W12178  18.074  33.430  13.803
42364W        W12179   4.862  12.242   1.246
42365W        W12180  30.049  26.951   4.682
42366W        W12181  26.087  24.075  14.370
42367W        W12182  28.046  16.075   4.203
42368W        W12183  26.607  41.433   4.708
42369W        W12184  28.961  33.435  10.923
42370W        W12185  28.027  43.798   2.858
42371W        W12186   8.380  31.417  14.939
42372W        W12187  30.640  28.137   3.366
42373W        W12188  37.892   5.833   1.744
42374W        W12189  36.427  39.549  11.536
42375W        W12190  12.321  27.544  14.779
42376W        W12191  25.609  13.116  10.963
42377W        W12192  18.680  43.309   3.286
42378W        W12193  34.988   7.372   0.756
42379W        W12194  16.218  15.581   5.250
42380W        W12195  33.625  16.241  11.381
42381W        W12196  38.823  31.024   4.345
42382W        W12197   9.715  19.717   4.607
42383W        W12198  42.844  12.238   1.696
42384W        W12199   2.240  15.577  10.990
42385W        W12200  39.881   6.705   2.853
42386W        W12201   8.317  32.568   2.842
42387W        W12202  42.501  41.845   2.667
42388W        W12203  38.025  31.553  14.447
42389W        W12204  44.424  38.428   2.862
42390W        W12205   1.815   1.443   0.405
42391W        W12206  28.653   8.321   2.849
42392W        W12207  25.625  12.270  10.494
42393W        W12208  39.907  15.796   5.159
42394W        W12209  11.833  12.694  13.438
42395W        W12210  30.042  16.238  14.010
42396W        W12211   1.259  40.970   2.740
42397W        W12212  14.801  12.281   2.701
42398W        W12213  42.500   7.738  10.516
42399W        W12214  25.594  38.451  11.483
42400W        W12215  26.111  36.440   0.781
42401W        W12216  35.520  36.953  14.880
42402W        W12217   8.677  30.522   2.815
42403W        W12218   2.854  31.636   4.756
42404W        W12219  32.397   7.340  14.016
42405W        W12220  37.835  32.062   5.282
42406W        W12221  17.088   4.755   1.363
42407W        W12222   0.259  33.477  14.332
42408W        W12223  21.522  24.646   3.768
42409W        W12224  41.786  24.496  13.839
42410W        W12225  37.002   3.309  14.778
42411W        W12226   9.270  23.516  12.985
42412W        W12227  25.066  18.143   0.776
42413W        W12228  36.872  11.219   3.740
42414W        W12229  32.022  16.679  14.815
42415W        W12230  38.417   8.322  12.381
42416W        W12231  41.449  15.141   2.184
42417W        W12232  39.065  23.072  13.363
42418W        W12233   3.289  17.215  10.526
42419W        W12234   5.381  41.958  13.979
42420W        W12235  25.480  26.465   1.727
42421W        W12236  37.926  11.632  14.419
42422W        W12237   8.852  41.459  14.765
42423W        W12238  39.056   2.729   0.811
42424W        W12239   5.742  28.983   0.481
42425W        W12240   2.233  17.081   3.695
42426W        W12241  12.361  38.510  11.040
42427W        W12242  22.708  19.239  12.538
42428W        W12243  36.458  30.039  10.641
42429W        W12244  10.379  41.938   9.956
42430W        W12245  15.787  37.478  13.310
42431W        W12246  15.660   1.942  10.014
42432W        W12247   5.435  40.543  10.427
42433W        W12248  21.078  40.028  10.952
42434W        W12249  44.911  24.676  13.949
42435W        W12250  40.883  33.468  10.892
42436W        W12251  36.905   1.915   3.340
42437W        W12252  37.456  11.737  13.921
42438W        W12253  32.529   8.175   0.307
42439W        W12254  11.799  22.152  11.462
42440W        W12255  30.437  13.334  10.514
42441W        W12256  27.672   4.868  11.048
42442W        W12257   4.340  28.935  11.429
42443W        W12258   2.376  39.453   0.463
42444W        W12259  41.309  44.818  12.881
42445W        W12260  41.485  25.470  14.964
42446W        W12261  40.012  36.445  10.591
42447W        W12262   9.313  32.928  14.303
42448W        W12263  18.249   0.256   0.422
42449W        W12264   6.408  17.192   0.915
42450W        W12265  42.491  11.802  14.762
42451W        W12266  23.663  26.612   2.407
42452W        W12267  13.282  29.574   2.197
42453W        W12268   3.228  35.515   0.349
42454W        W12269  31.977  41.436  14.001
42455W        W12270  32.610  16.216  14.935
42456W        W12271  35.001  21.071   2.722
42457W        W12272  22.160  27.587  13.501
42458W        W12273  16.691   9.823  10.923
42459W        W12274  17.204  43.781  13.870
42460W        W12275  32.126  30.088  13.840
42461W        W12276  28.115  41.447  11.947
42462W        W12277  30.023  25.053   0.747
42463W        W12278  40.930  20.659  13.325
42464W        W12279  41.971  22.036  13.847
42465W        W12280  29.113  14.176  11.101
42466W        W12281   9.694  30.940  14.306
42467W        W12282  26.022  40.863  12.079
42468W        W12283  28.507   0.365  12.461
42469W        W12284  12.726   4.809  14.440
42470W        W12285  42.938  29.604   3.641
42471W        W12286  23.607  33.113   2.815
42472W        W12287  41.876  37.562  14.983
42473W        W12288  12.280   3.286  13.942
42474W        W12289  12.233  24.577  13.805
42475W        W12290  20.037  18.295  12.426
42476W        W12291   4.811  37.542   1.767
42477W        W12292  39.429   6.796   1.230
42478W        W12293  36.869  36.857  12.485
42479W        W12294  40.354   8.349  10.145
42480W        W12295   0.759  19.212   2.292
42481W        W12296  40.928  35.105  14.416
42482W        W12297  42.852  10.664  14.509
42483W        W12298  36.995  26.110  14.512
42484W        W12299  26.599  13.689   0.742
42485W        W12300  39.041   2.292  14.375
42486W        W12301  12.695  31.559  13.977
42487W        W12302  32.068   1.305  12.518
42488W        W12303  24.120  32.536   2.360
42489W        W12304  40.500  41.862   0.833
42490W        W12305  22.558  10.804  11.485
42491W        W12306  43.996  16.625   4.822
42492W        W12307  22.995  30.474  14.291
42493W        W12308  17.144  37.528  11.944
42494W        W12309  35.007  43.398  11.374
42495W        W12310   4.702   5.241  12.511
42496W        W12311  18.691   5.838  11.450
42497W        W12312  20.603  35.086  14.810
42498W        W12313  41.902  40.382  13.360
42499W        W12314  23.510   7.210   3.304
42500W        W12315  16.707  37.869   0.469
42501W        W12316  24.129  19.212   4.279
42502W        W12317  25.018   8.726   2.277
42503W        W12318  11.827   5.203   1.384
42504W        W12319  11.327  29.580  10.634
42505W        W12320  44.273  29.595   2.884
42506W        W12321  24.149   1.478  13.489
42507W        W12322  33.022  15.580  14.470
42508W        W12323   2.937  42.448   4.806
42509W        W12324  14.752  28.173  13.954
42510W        W12325  23.149  15.157  13.980
42511W        W12326  11.235  43.870   1.320
42512W        W12327  44.320  42.368  10.641
42513W        W12328  40.009  36.878   3.686
42514W        W12329  41.455  32.950   1.878
42515W        W12330  30.439  10.683  13.909
42516W        W12331  29.121  13.209  11.911
42517W        W12332   1.975  32.895  11.035
42518W        W12333  10.298  37.877   2.369
42519W        W12334   2.304  38.944  10.078
42520W        W12335  41.430  28.112   4.757
42521W        W12336  33.891   2.773   1.926
42522W        W12337  16.110  43.803  10.955
42523W        W12338   3.354  19.216  11.407
42524W        W12339  15.195   2.760   1.766
42525W        W12340  14.610  25.587   4.196
42526W        W12341  15.774   5.816  14.434
42527W        W12342  39.447  23.595   0.290
42528W        W12343  13.719   8.163   3.636
42529W        W12344  34.374  26.489  13.426
42530W        W12345  21.148  33.878   4.222
42531W        W12346  39.515   2.397  11.569
42532W        W12347  41.912  33.449  10.582
42533W        W12348  20.225  22.548  12.366
42534W        W12349  39.367   9.337   0.752
42535W        W12350  28.944  26.977   4.340
42536W        W12351  33.609  19.603   0.302
42537W        W12352  18.679  35.059   3.697
42538W        W12353  18.261   4.829   1.817
42539W        W12354  25.538  15.266   4.815
42540W        W12355  25.978  27.543  14.008
42541W        W12356  37.835  31.528  11.938
42542W        W12357  10.855   8.685   2.719
42543W        W12358   3.372  26.633   4.725
42544W        W12359  12.843  37.579  13.431
42545W        W12360   0.280  33.977  12.427
42546W        W12361  30.035  26.658  10.605
42547W        W12362  26.973  15.692   1.734
42548W        W12363  20.201   8.716   0.476
42549W        W12364  28.666  11.331   0.894
42550W        W12365   3.769   9.827  13.838
42551W        W12366  10.217  26.068  11.906
42552W        W12367  18.219  18.618   1.218
42553W        W12368  30.517  12.238   3.670
42554W        W12369  37.916  43.326  12.403
42555W        W12370  36.053  44.922  14.275
42556W        W12371  40.846  32.062  14.508
42557W        W12372  42.909  15.656   4.717
42558W        W12373   1.341  30.092   4.233
42559W        W12374  38.987  22.115   4.265
42560W        W12375  34.572   2.348   2.731
42561W        W12376  15.641  26.111   2.310
42562W        W12377  16.180   4.929   2.886
42563W        W12378  12.840  37.943   2.388
42564W        W12379  18.550  11.654   1.309
42565W        W12380  41.030  10.794  12.372
42566W        W12381   5.291   8.277   2.844
42567W        W12382  23.674  36.099   0.453
42568W        W12383  29.982  11.762   4.166
42569W        W12384   2.353   6.700  10.525
42570W        W12385   0.289   4.411  12.521
42571W        W12386  19.198  21.110   0.265
42572W        W12387   4.217  37.379   2.360
42573W        W12388   9.675  27.553   4.349
42574W        W12389   8.687  16.137   4.353
42575W        W12390  33.468  15.091  11.385
42576W        W12391  13.693  24.101  11.568
42577W        W12392  25.527  10.840   1.210
42578W        W12393  18.735  39.486   4.233
42579W        W12394  39.055  22.237   9.946
42580W        W12395  15.791  31.522   3.245
42581W        W12396  41.978   4.892   4.605
42582W        W12397   6.891  43.921   1.699
42583W        W12398  34.113  26.621   4.244
42584W        W12399  15.676   7.758  13.997
42585W        W12400   4.923   2.438   2.850
42586W        W12401   0.949  29.630  13.959
42587W        W12402   7.886  12.788  11.033
42588W        W12403  17.112   7.218   0.881
42589W        W12404  44.394  22.702   2.772
42590W        W12405  27.504  43.785   3.340
42591W        W12406  33.531  35.948  12.434
42592W        W12407   2.734  12.682  13.886
42593W        W12408  14.827  35.936   2.309
42594W        W12409   9.869  36.964  11.875
42595W        W12410  18.104  36.514  13.955
42596W        W12411  29.150  13.297   1.376
42597W        W12412  44.940  13.837  12.851
42598W        W12413   3.254  29.529  11.058
42599W        W12414   7.247  28.581  10.921
42600W        W12415   7.405   2.420  12.919
42601W        W12416  27.056  12.827   9.499
42602W        W12417  39.431  20.223   1.849
42603W        W12418   6.289   0.269   3.215
42604W        W12419   7.883  27.485  12.922
42605W        W12420  35.065  40.907  13.969
42606W        W12421  10.252  41.346  13.880
42607W        W12422  11.837  27.168   0.888
42608W        W12423  28.560  38.441   0.338
42609W        W12424  43.854  29.500   0.295
42610W        W12425  39.885  24.104  11.019
42611W        W12426  32.431   0.768  14.301
42612W        W12427  12.242   3.720   4.202
42613W        W12428  25.210  31.466   2.400
42614W        W12429  43.481  27.166   0.852
42615W        W12430  15.757  28.651  11.480
42616W        W12431  33.019  15.638   0.816
42617W        W12432   8.388  22.040   1.255
42618W        W12433  33.576  13.248   4.237
42619W        W12434  37.582   3.820   2.258
42620W        W12435   2.394  19.641   3.691
42621W        W12436  42.354  39.858  13.387
42622W        W12437  40.886   8.852   3.795
42623W        W12438  28.065  41.494  11.063
42624W        W12439   2.845  17.100   0.471
42625W        W12440  15.320  21.717  14.844
42626W        W12441   3.866  26.997  11.589
42627W        W12442  19.162  30.138   4.238
42628W        W12443  30.592  26.975   1.870
42629W        W12444   5.877  21.709  13.465
42630W        W12445  10.253  10.782  12.968
42631W        W12446   4.701  21.047  13.508
42632W        W12447  15.645  35.415   1.912
42633W        W12448  13.139  39.969  11.865
42634W        W12449  11.204  37.490  11.532
42635W        W12450   4.793  20.725  10.522
42636W        W12451  20.082  26.951   0.336
42637W        W12452  21.527  42.920  10.575
42638W        W12453  34.092   0.958   1.372
42639W        W12454  40.832  36.503  12.474
42640W        W12455  43.288   8.775  12.050
42641W        W12456  29.998  38.045  10.548
42642W        W12457  31.041  41.381  10.605
42643W        W12458  29.105   1.948  11.396
42644W        W12459  32.930   4.737  14.445
42645W        W12460   5.756  30.113   0.728
42646W        W12461  27.655  28.962   1.297
42647W        W12462  34.569  16.147  13.880
42648W        W12463  22.577  26.576   3.742
42649W        W12464  37.576  38.561   0.362
42650W        W12465  39.450  23.607  12.548
42651W        W12466  19.590   6.347  14.275
42652W        W12467  19.065  16.700  11.026
42653W        W12468  26.041  23.633   1.912
42654W        W12469  12.232   0.267  13.451
42655W        W12470   8.729  11.285  14.914
42656W        W12471   1.481  13.177   1.416
42657W        W12472  32.598  15.757   4.617
42658W        W12473  24.704  32.899   3.650
42659W        W12474  22.574  26.590   2.720
42660W        W12475  34.942  23.016   4.244
42661W        W12476  33.058  18.720   1.448
42662W        W12477  41.525  11.302   2.791
42663W        W12478  12.324   0.312  11.534
42664W        W12479  11.265  18.189   0.925
42665W        W12480  12.854  16.074  13.055
42666W        W12481  37.973  37.907   4.252
42667W        W12482  41.366   9.662  12.952
42668W        W12483  36.928   7.682  14.444
42669W        W12484  15.593  39.541   0.360
42670W        W12485   5.854  42.393  13.385
42671W        W12486  14.244  44.286  14.386
42672W        W12487  36.995   5.929  11.921
42673W        W12488  35.403  34.868   2.375
42674W        W12489  23.237  11.663   0.262
42675W        W12490   1.426  43.500  12.539
42676W        W12491   8.870   0.926   2.825
42677W        W12492  35.095   3.744  11.451
42678W        W12493  23.572  33.894   1.280
42679W        W12494  11.218  44.866   3.172
42680W        W12495  44.951   2.792   4.211
42681W        W12496  41.363  10.704  13.998
42682W        W12497  16.146  14.111   4.687
42683W        W12498  15.778  35.943  13.347
42684W        W12499   8.279  20.581   0.384
42685W        W12500  15.181  43.990  14.873
42686W        W12501   6.718  27.180  14.495
42687W        W12502  31.412  20.723  13.538
42688W        W12503  37.978   9.150   1.416
42689W        W12504  16.143   5.926  12.364
42690W        W12505  14.769  22.128   2.779
42691W        W12506  11.355  13.334  11.555
42692W        W12507  23.503  43.990  10.492
42693W        W12508   2.770  12.354   4.119
42694W        W12509  43.505  10.819  10.513
42695W        W12510   8.751  22.552  11.591
42696W        W12511  35.977   0.276   3.752
42697W        W12512  34.493  16.580  13.009
42698W        W12513  28.596  13.328  14.335
42699W        W12514  29.491  22.142   1.767
42700W        W12515  30.151  42.805  11.877
42701W        W12516  20.205  24.217   0.966
42702W        W12517  20.210  25.185   0.348
42703W        W12518  29.539  33.989   2.717
42704W        W12519  16.695  39.350   0.395
42705W        W12520   0.880  12.190  12.438
42706W        W12521  28.086  19.575  10.041
42707W        W12522  14.821  43.284  13.502
42708W        W12523  18.222  20.076   4.714
42709W        W12524  11.200  29.431  13.002
42710W        W12525  36.406  18.169  14.861
42711W        W12526   1.887  43.775  14.772
42712W        W12527  29.168   4.737  12.977
42713W        W12528   2.733   1.883  12.513
42714W        W12529   6.865  32.937   0.436
42715W        W12530  14.232  13.663  12.491
42716W        W12531  24.207  16.783   3.791
42717W        W12532   2.442  37.440   3.373
42718W        W12533   6.207  28.681  10.485
42719W        W12534  19.673  41.527   1.782
42720W        W12535   9.246   6.422   0.786
42721W        W12536  20.577   0.760   5.224
42722W        W12537  32.448  18.129  11.426
42723W        W12538  26.521   9.822  13.395
42724W        W12539   0.743  10.292   1.272
42725W        W12540  41.907  33.483  13.343
42726W        W12541   0.487  15.748  11.912
42727W        W12542  44.466  44.977  11.463
42728W        W12543  36.586  37.895  11.117
42729W        W12544  29.926   0.859   2.394
42730W        W12545  15.253  32.570   4.678
42731W        W12546   2.377  31.572  11.580
42732W        W12547  38.006  17.181   1.921
42733W        W12548  34.457  29.429   1.877
42734W        W12549  15.722  17.578   3.766
42735W        W12550  35.483  28.609   2.699
42736W        W12551  12.165  42.481   0.426
42737W        W12552  42.837   4.907   0.338
42738W        W12553  18.572  31.454   1.854
42739W        W12554   2.317  21.174   4.327
42740W        W12555  31.084   7.891  11.864
42741W        W12556   7.738  13.655  11.611
42742W        W12557  19.675  44.463  10.056
42743W        W12558   3.714  43.892   2.850
42744W        W12559  17.588  14.260   2.190
42745W        W12560   9.330  14.268   3.326
42746W        W12561  32.426  11.752   1.745
42747W        W12562   7.894  16.251   3.802
42748W        W12563  29.653   7.373   4.813
42749W        W12564   3.886  33.444  13.536
42750W        W12565   5.283   4.278  11.460
42751W        W12566  11.706  16.760   4.171
42752W        W12567  16.134  12.281   2.756
42753W        W12568  32.978  13.300   0.796
42754W        W12569  35.579  37.925  13.949
42755W        W12570  40.439  21.108  13.907
42756W        W12571  25.075  26.090   0.473
42757W        W12572   4.893  18.606   0.447
42758W        W12573  31.065  10.287  13.812
42759W        W12574  20.034  39.054   2.757
42760W        W12575  24.157  26.122   2.312
42761W        W12576   7.198  31.152   0.359
42762W        W12577  38.906  12.819  12.028
42763W        W12578  26.026  33.876   3.264
42764W        W12579  16.679  37.545  10.494
42765W        W12580  29.538  23.734  10.936
42766W        W12581   7.245  41.800  10.581
42767W        W12582  44.921   3.233   1.812
42768W        W12583  14.820  13.282  11.028
42769W        W12584  26.140   4.771  10.034
42770W        W12585   1.413  40.914   1.910
42771W        W12586  33.500   5.230  13.468
42772W        W12587  37.056  19.086  14.909
42773W        W12588  16.230  13.139   3.247
42774W        W12589  31.960   2.445  14.834
42775W        W12590  23.592  11.253   4.798
42776W        W12591  27.008  40.378   4.784
42777W        W12592  14.813  23.235   1.846
42778W        W12593  14.785  10.211  14.390
42779W        W12594  37.356  38.003  14.865
42780W        W12595  22.582  31.963  14.888
42781W        W12596  35.944   1.883  12.438
42782W        W12597  43.790  15.786  12.548
42783W        W12598  18.203  33.595   4.784
42784W        W12599   0.367  27.590   3.679
42785W        W12600   8.352   0.743  13.950
42786W        W12601  16.699   5.707  12.384
42787W        W12602   8.179  31.074   3.322
42788W        W12603  25.100  12.801  10.408
42789W        W12604  31.050   7.257   2.241
42790W        W12605  31.128  26.516   1.763
42791W        W12606  33.093  16.271   0.478
42792W        W12607  41.814  40.799   0.310
42793W        W12608  39.985  27.447   1.407
42794W        W12609  15.175   7.733  12.485
42795W        W12610  14.659  35.982   4.681
42796W        W12611  39.450  11.792  10.473
42797W        W12612  32.085  31.000   3.718
42798W        W12613   8.249   5.902   0.861
42799W        W12614   9.690  25.472   4.122
42800W        W12615  44.005  39.028   0.915
42801W        W12616  13.239  20.036   4.771
42802W        W12617   4.296  18.211   1.421
42803W        W12618  23.694  38.043   5.637
42804W        W12619  33.988   0.297  10.945
42805W        W12620   3.924  25.526   2.338
42806W        W12621  43.420  28.599   0.404
42807W        W12622  38.890  25.139  13.042
42808W        W12623   4.939  26.160   2.397
42809W        W12624  24.088  31.621  10.421
42810W        W12625   4.330  19.613  13.962
42811W        W12626  38.972  40.964  14.792
42812W        W12627  24.153  36.560   4.162
42813W        W12628  12.156  28.136  13.007
42814W        W12629  10.331  32.984   0.932
42815W        W12630  18.200   7.743  12.097
42816W        W12631  18.149  38.986   2.392
42817W        W12632  16.074  37.070   0.272
42818W        W12633  32.497  13.599  10.425
42819W        W12634  30.636   4.293  13.368
42820W        W12635  38.422  26.564   2.342
42821W        W12636  35.032  18.087   1.888
42822W        W12637   3.347   7.332   1.931
42823W        W12638  35.108  15.657  11.855
42824W        W12639  21.143   1.888   2.883
42825W        W12640  33.885  39.496  10.451
42826W        W12641  22.246   1.337   3.751
42827W        W12642  38.924   4.389   3.374
42828W        W12643  29.493  33.971   0.305
42829W        W12644  37.544  13.250  11.581
42830W        W12645  21.624  41.324   4.120
42831W        W12646  28.057  18.613   0.845
42832W        W12647   4.770  40.356  14.016
42833W        W12648  31.485  10.203  11.020
42834W        W12649  14.201   0.828  11.093
42835W        W12650  20.270  20.719   2.741
42836W        W12651  17.665   3.422   0.416
42837W        W12652  25.050   2.234  13.923
42838W        W12653   9.187  44.894   4.801
42839W        W12654   3.937  28.996   2.206
42840W        W12655  37.471  39.856   0.424
42841W        W12656   7.718  35.064   0.833
42842W        W12657  27.983  38.006  13.371
42843W        W12658  41.917  43.353  11.481
42844W        W12659  24.047  30.609   3.730
42845W        W12660  31.001  32.924   1.418
42846W        W12661  31.405  11.781   3.699
42847W        W12662  15.209  38.401   0.250
42848W        W12663  27.115  31.050  13.057
42849W        W12664  32.989  15.225  14.412
42850W        W12665  13.271  44.789  10.534
42851W        W12666  21.137  39.020  14.381
42852W        W12667  16.603  36.999  10.438
42853W        W12668  15.112  29.616   2.297
42854W        W12669  22.719  33.987  14.865
42855W        W12670  31.053  30.659  14.501
42856W        W12671  20.709  12.776  13.497
42857W        W12672  23.639  18.669  10.966
42858W        W12673  27.644  28.449  14.390
42859W        W12674  44.926  18.292  13.459
42860W        W12675   2.241  37.528   0.834
42861W        W12676  34.924  19.615  11.094
42862W        W12677   4.835  43.326  10.613
42863W        W12678  32.599  23.565  13.500
42864W        W12679  25.564  44.309  14.862
42865W        W12680  23.689  42.030   4.832
42866W        W12681  27.577  44.879   4.709
42867W        W12682  18.272   8.218   2.250
42868W        W12683   6.355  16.121   3.648
42869W        W12684  40.490  12.780  13.828
42870W        W12685   9.863  27.177  14.906
42871W        W12686   5.831  11.866  11.976
42872W        W12687   9.156  41.890   5.099
42873W        W12688  31.445  31.994  13.339
42874W        W12689  30.577  10.653   1.274
42875W        W12690  32.974  37.887   3.805
42876W        W12691  15.303  14.593   0.413
42877W        W12692   4.428  36.871  12.080
42878W        W12693  42.373   0.300  13.011
42879W        W12694  31.973   0.431   1.333
42880W        W12695  13.275  12.158   3.826
42881W        W12696   7.247  11.307  12.825
42882W        W12697  29.918  39.497  13.921
42883W        W12698  10.640   5.741  13.825
42884W        W12699  34.370  10.151  12.028
42885W        W12700   1.288  13.225  13.946
42886W        W12701  15.787  26.467   1.255
42887W        W12702  21.119  43.907  10.903
42888W        W12703  41.901   1.733  12.546
42889W        W12704  35.103  34.455   0.754
42890W        W12705  39.419   0.271   4.264
42891W        W12706  43.315   4.337  14.867
42892W        W12707  34.555   6.691  12.923
42893W        W12708  20.528  29.604  12.867
42894W        W12709   1.393  26.690   2.311
42895W        W12710   8.306  20.736   4.764
42896W        W12711   0.405  23.547  14.798
42897W        W12712   0.447  40.895   4.625
42898W        W12713  44.777  10.183  11.029
42899W        W12714  21.142  29.103   3.834
42900W        W12715  28.147  27.527   2.837
42901W        W12716  30.041  19.758  14.330
42902W        W12717   6.683  31.966  12.355
42903W        W12718  40.019  12.649   3.819
42904W        W12719  21.728  41.904  12.482
42905W        W12720   7.236  41.345  12.477
42906W        W12721  30.016  31.964  11.389
42907W        W12722  14.172   5.414   4.187
42908W        W12723  28.012  27.587   4.303
42909W        W12724  30.157  14.833  14.423
42910W        W12725  12.138  31.949  12.828
42911W        W12726  28.027  24.997   1.889
42912W        W12727  12.674   1.827   3.151
42913W        W12728  24.124   3.776  10.985
42914W        W12729   8.167  32.560   0.314
42915W        W12730  13.313  23.667   3.853
42916W        W12731  24.162  38.463   3.279
42917W        W12732  43.418  15.165  12.381
42918W        W12733  25.548   5.219  11.001
42919W        W12734  12.130  16.144  13.049
42920W        W12735  14.261  44.313  13.533
42921W        W12736  44.414  42.881   2.834
42922W        W12737  38.476   7.782   4.152
42923W        W12738   4.215   4.254  12.912
42924W        W12739   6.799  24.196  13.051
42925W        W12740  39.940  22.532   2.788
42926W        W12741  20.043  24.539  12.373
42927W        W12742  20.740  10.816  12.986
42928W        W12743  11.752  25.201   4.242
42929W        W12744   3.744  36.088   1.739
42930W        W12745  20.145   0.452   1.396
42931W        W12746   7.395  15.210   4.237
42932W        W12747  39.878   0.450   1.817
42933W        W12748   0.357  30.655  10.572
42934W        W12749  11.772  42.284  14.480
42935W        W12750  38.045  31.130  13.952
42936W        W12751  21.146   0.314  11.451
42937W        W12752  14.301   8.222  12.395
42938W        W12753  21.731   2.852   4.272
42939W        W12754   6.721  15.200  10.537
42940W        W12755  25.559  13.285   4.827
42941W        W12756  17.736  41.396   4.127
42942W        W12757  42.398  29.128  11.055
42943W        W12758  11.216  40.336  11.986
42944W        W12759  24.534   2.391   0.863
42945W        W12760  43.840  22.548  13.972
42946W        W12761  34.987  35.071   0.309
42947W        W12762  43.934   7.841   0.321
42948W        W12763  40.989   8.898   2.375
42949W        W12764  34.974  32.617   3.795
42950W        W12765   7.289  15.773  11.885
42951W        W12766  17.621  41.950  12.009
42952W        W12767  24.102  29.031   1.841
42953W        W12768  20.034   6.752  13.903
42954W        W12769  34.455  35.988  10.994
42955W        W12770  31.916  35.544  10.498
42956W        W12771  25.140  41.839   3.214
42957W        W12772  22.105  38.947   0.349
42958W        W12773  11.655  34.574   1.213
42959W        W12774  31.615  30.956  13.448
42960W        W12775  21.039  37.897   1.240
42961W        W12776  20.684   5.291  12.385
42962W        W12777  22.081  27.037   0.349
42963W        W12778  17.605  39.335   2.850
42964W        W12779  13.255  44.923  14.429
42965W        W12780  29.172  31.506   3.183
42966W        W12781   7.305   5.898   2.213
42967W        W12782  40.893   9.263  14.007
42968W        W12783   0.844  31.104  13.541
42969W        W12784  25.167   3.894   1.255
42970W        W12785  41.033  43.375   3.798
42971W        W12786   3.783  40.506  11.598
42972W        W12787   6.183   2.962   2.822
42973W        W12788  40.342  23.200   4.726
42974W        W12789  13.153  12.853  10.124
42975W        W12790  36.864   5.397   2.726
42976W        W12791  41.828   6.696  11.089
42977W        W12792  21.725  32.629  13.513
42978W        W12793   2.364  10.814   3.834
42979W        W12794  35.090   6.201   2.329
42980W        W12795  43.919   7.736   0.835
42981W        W12796  40.012  39.963  12.886
42982W        W12797  39.018  20.622   3.742
42983W        W12798  36.862  15.612   3.356
42984W        W12799  12.197  20.562  14.826
42985W        W12800   2.841  30.636  13.872
42986W        W12801  26.030  28.666   3.643
42987W        W12802  24.660  17.769  13.993
42988W        W12803  22.132  17.301   5.145
42989W        W12804  28.033  35.516   1.340
42990W        W12805  35.860  14.634  11.968
42991W        W12806  20.684  21.754  13.992
42992W        W12807   5.719  19.720   1.898
42993W        W12808   9.229  14.593   4.769
42994W        W12809  40.445  22.615   4.753
42995W        W12810  33.992  10.171  13.395
42996W        W12811  12.267   1.396  10.978
42997W        W12812  10.775  13.729  11.973
42998W        W12813  31.082  16.778  13.833
42999W        W12814  39.414  16.803   0.269
43000W        W12815  43.011  36.089   3.867
43001W        W12816  39.496  44.427   1.419
43002W        W12817   2.720  38.021  14.021
43003W        W12818  21.072  23.068  12.516
43004W        W12819  34.017  34.100   4.666
43005W        W12820  32.618   2.288   4.753
43006W        W12821  19.152   0.277  14.945
43007W        W12822  24.221   0.428  13.978
43008W        W12823  35.427  37.373   3.821
43009W        W12824  11.790   8.830  11.922
43010W        W12825   8.241  36.070   3.649
43011W        W12826   0.398  31.902   5.300
43012W        W12827   5.291  35.872   2.865
43013W        W12828  36.464   3.416  10.075
43014W        W12829  35.418   6.386   1.413
43015W        W12830   4.868   3.226  13.917
43016W        W12831  18.722  32.625   0.427
43017W        W12832  10.140   5.790  13.796
43018W        W12833   9.645   7.874   4.619
43019W        W12834  12.831   9.770  11.378
43020W        W12835  43.014  12.710   2.388
43021W        W12836  11.139  36.876  13.945
43022W        W12837  35.043  41.818   3.637
43023W        W12838  32.558  37.946   3.667
43024W        W12839  20.239  31.432   1.778
43025W        W12840  14.785   9.816   4.196
43026W        W12841  23.169  26.576  11.391
43027W        W12842  33.488  16.716   4.164
43028W        W12843  41.806  20.764   3.667
43029W        W12844   0.398   3.441  10.512
43030W        W12845   7.722  21.682  13.833
43031W        W12846   6.686  18.218  14.976
43032W        W12847  33.606   6.247   3.247
43033W        W12848  43.399  33.548  12.486
43034W        W12849  19.246  10.282   2.833
43035W        W12850  10.841  27.499  12.497
43036W        W12851  33.473  41.386   1.895
43037W        W12852  28.041   3.271  10.042
43038W        W12853  32.593  40.020   3.303
43039W        W12854  12.815  20.619   0.902
43040W        W12855  29.659  35.963  11.438
43041W        W12856   9.250   8.215  11.031
43042W        W12857   7.906  12.822   0.837
43043W        W12858   2.885  39.503   3.278
43044W        W12859  28.015   7.384   1.886
43045W        W12860   3.357   8.258  13.941
43046W        W12861  25.469   8.293  12.987
43047W        W12862  19.682  30.015   0.824
43048W        W12863  33.454  35.052   3.634
43049W        W12864  40.873  27.174  12.362
43050W        W12865  31.602  40.910  10.892
43051W        W12866  42.032  34.903  12.342
43052W        W12867  19.563   6.849   4.637
43053W        W12868  25.678  38.354   3.187
43054W        W12869  22.708  15.794   0.892
43055W        W12870  23.507  25.519  11.867
43056W        W12871   6.805  11.194  10.562
43057W        W12872  23.542  14.829  11.926
43058W        W12873  14.233  39.027   3.765
43059W        W12874  40.842  28.108   1.360
43060W        W12875  28.042  11.363   1.355
43061W        W12876  16.157   1.799   1.226
43062W        W12877  41.386   4.333  11.607
43063W        W12878  36.855  11.224  13.853
43064W        W12879   0.801   6.827   2.834
43065W        W12880  21.602  28.480   2.881
43066W        W12881  18.627   5.700  10.520
43067W        W12882  44.323  24.172  11.080
43068W        W12883  26.092  15.299   3.311
43069W        W12884   3.411   9.847  13.879
43070W        W12885  11.317  27.950  14.943
43071W        W12886   8.294   0.261  14.469
43072W        W12887  25.583   7.791  11.994
43073W        W12888  18.724  21.263  10.973
43074W        W12889  20.548  13.755   4.758
43075W        W12890  34.591  33.109  11.375
43076W        W12891  30.939  26.662  13.865
43077W        W12892  16.807  17.244  11.880
43078W        W12893   0.886  44.484  13.897
43079W        W12894  17.641  36.355   0.335
43080W        W12895   2.756  11.722  11.372
43081W        W12896   2.938   5.436  12.466
43082W        W12897  28.150   9.352  11.429
43083W        W12898  19.191  43.285  13.341
43084W        W12899   4.890  38.025   3.692
43085W        W12900  27.979  21.728   0.482
43086W        W12901  14.100  24.598  12.522
43087W        W12902  29.165  10.373  11.003
43088W        W12903  21.168  25.057   3.270
43089W        W12904  12.617  11.719   1.253
43090W        W12905  21.720  25.049   3.868
43091W        W12906   7.197  21.059  14.404
43092W        W12907   3.795  10.243   0.383
43093W        W12908  25.713  36.052   3.733
43094W        W12909  32.094   9.335   3.239
43095W        W12910  13.324  13.679  12.877
43096W        W12911  12.751  16.307   4.727
43097W        W12912  10.636   4.240   2.888
43098W        W12913  24.642   5.432   2.385
43099W        W12914   1.894   2.412  11.516
43100W        W12915  41.871  21.231   5.098
43101W        W12916  39.949  27.664   4.661
43102W        W12917  30.138  43.317   4.728
43103W        W12918   5.791  16.691   2.719
43104W        W12919   9.273  34.393   0.283
43105W        W12920  24.108  43.010   2.387
43106W        W12921  43.829  27.198   3.195
43107W        W12922  27.018  41.901   4.659
43108W        W12923  12.619  33.096   1.428
43109W        W12924   8.169  31.005  10.562
43110W        W12925  17.609  18.235   2.356
43111W        W12926  40.441   1.824  10.944
43112W        W12927   6.224  20.103   2.409
43113W        W12928  13.604   9.792   0.456
43114W        W12929   1.423  13.333  10.617
43115W        W12930  21.207  27.589   1.269
43116W        W12931  13.343  35.946   4.347
43117W        W12932  44.762  31.538   4.202
43118W        W12933   1.429  24.014  14.330
43119W        W12934  28.035  20.550  10.134
43120W        W12935  18.149  37.385  13.924
43121W        W12936  34.492  42.836  12.053
43122W        W12937  25.624  30.942   1.217
43123W        W12938   5.822  11.291   2.880
43124W        W12939  10.771  25.471  11.890
43125W        W12940   4.381  33.099  10.475
43126W        W12941   9.348  18.616  12.542
43127W        W12942  36.526  44.916   4.324
43128W        W12943  19.633  29.523   1.442
43129W        W12944  34.912  24.540  10.569
43130W        W12945  10.280  32.553  14.490
43131W        W12946  26.470  33.931  14.995
43132W        W12947   4.322  42.465  11.099
43133W        W12948  43.275  38.453  11.462
43134W        W12949   6.200  44.000  14.425
43135W        W12950  17.092   0.758  11.948
43136W        W12951   8.169  23.698  13.542
43137W        W12952  12.161   4.346  13.015
43138W        W12953  26.678  24.646   4.611
43139W        W12954  35.933   7.399  12.058
43140W        W12955  14.230   9.834  13.951
43141W        W12956  23.095   5.817  10.927
43142W        W12957  11.673  27.668   2.855
43143W        W12958  18.710   8.373   1.260
43144W        W12959  42.472  27.153   3.274
43145W        W12960  37.905   1.455  10.510
43146W        W12961  15.191  30.028  13.893
43147W        W12962  37.923  21.218   0.375
43148W        W12963  35.386  35.398   1.244
43149W        W12964  19.547  29.498   5.190
43150W        W12965  42.367  31.028   0.941
43151W        W12966  25.543  11.633  10.407
43152W        W12967  44.429  37.395   3.817
43153W        W12968  20.209  15.113  12.080
43154W        W12969  14.706   9.313   2.896
43155W        W12970  44.325   7.702  13.042
43156W        W12971  30.502  10.752   4.714
43157W        W12972  24.566  13.274  14.918
43158W        W12973   8.727   9.299   1.852
43159W        W12974  32.973   8.173  11.965
43160W        W12975  19.757  20.632  10.929
43161W        W12976  10.725  38.553   4.812
43162W        W12977  44.846  30.956   1.279
43163W        W12978   1.825  37.956  10.923
43164W        W12979   6.776  18.786  13.953
43165W        W12980   4.432  40.336   3.375
43166W        W12981  14.304  33.488  13.845
43167W        W12982  35.934  30.571   3.631
43168W        W12983  21.209  34.596  14.951
43169W        W12984   5.347  13.679   2.325
43170W        W12985  44.350  13.186   2.279
43171W        W12986  36.502  32.461   2.845
43172W        W12987   0.443  19.063  10.633
43173W        W12988  36.369   4.712  14.951
43174W        W12989  35.957  33.938   9.616
43175W        W12990   8.831  13.144   1.395
43176W        W12991  20.647  29.563  12.401
43177W        W12992  38.880   0.281  12.011
43178W        W12993  36.848  16.304   4.207
43179W        W12994  38.824  20.087   0.865
43180W        W12995   7.870  24.054  10.580
43181W        W12996  36.022   4.388   0.435
43182W        W12997  28.932  34.450  11.061
43183W        W12998  21.243  25.998  11.907
43184W        W12999  24.705  43.851   3.793
43185W        W13000  43.888  39.022   4.327
43186W        W13001  24.200   0.305   2.252
43187W        W13002   0.329   8.732   3.790
43188W        W13003  16.657  11.723  10.623
43189W        W13004  25.001  35.386  10.429
43190W        W13005  14.198  28.615   4.684
43191W        W13006  28.538  43.880  14.491
43192W        W13007   6.383   1.353   1.721
43193W        W13008  26.141  42.338  11.037
43194W        W13009  31.559  25.530  13.533
43195W        W13010  15.773  24.538   3.693
43196W        W13011  20.573  44.926   1.797
43197W        W13012  33.046  33.945  11.519
43198W        W13013  39.960  38.477   2.740
43199W        W13014  12.202  40.805   3.655
43200W        W13015   5.910  10.703   1.432
43201W        W13016   4.783  38.477  13.460
43202W        W13017  43.407  23.589   2.206
43203W        W13018  13.170  12.199  13.503
43204W        W13019  13.805  19.059   0.267
43205W        W13020  13.808  36.887   2.670
43206W        W13021   3.739  43.400  11.559
43207W        W13022  42.906  16.667   0.866
43208W        W13023  43.294  41.959   0.929
43209W        W13024  43.834  43.352  10.560
43210W        W13025  30.523   5.869   4.188
43211W        W13026  23.099  17.605   2.311
43212W        W13027  40.410  17.288  10.030
43213W        W13028  13.602   2.852  12.368
43214W        W13029  43.513   8.876  13.480
43215W        W13030  13.833   4.901   4.222
43216W        W13031  24.209  26.087   1.444
43217W        W13032  10.159  26.626   1.934
43218W        W13033   7.398   2.290   3.861
43219W        W13034  34.034  33.018   1.314
43220W        W13035   8.265  42.784   1.213
43221W        W13036  31.969  17.113   1.294
43222W        W13037  16.154  19.776   4.195
43223W        W13038   7.824  43.780   4.273
43224W        W13039   3.835  25.080   5.180
43225W        W13040   2.303  42.780  14.762
43226W        W13041  34.562  24.064  12.441
43227W        W13042  19.640  43.990   5.271
43228W        W13043  38.875   7.847   1.787
43229W        W13044  30.066  15.790  11.113
43230W        W13045  34.054   6.308  10.918
43231W        W13046  17.563  41.372  13.390
43232W        W13047  19.704  21.622   0.474
43233W        W13048  14.794  38.557   1.851
43234W        W13049  18.159   1.815  12.373
43235W        W13050  33.882  37.525   3.161
43236W        W13051   6.896   6.693  12.084
43237W        W13052  41.928  35.975   3.818
43238W        W13053  25.086  21.617   0.445
43239W        W13054  37.035  17.153   3.698
43240W        W13055  22.602  13.613  11.377
43241W        W13056   2.415   5.798   1.803
43242W        W13057  14.609  44.274   1.903
43243W        W13058  17.124  29.555  13.522
43244W        W13059  35.061  29.451   5.188
43245W        W13060   2.886  37.568   2.386
43246W        W13061  33.420  19.254   1.315
43247W        W13062  44.899   3.747  13.925
43248W        W13063  10.800  12.732   3.673
43249W        W13064  41.360  38.534  11.435
43250W        W13065  24.688  30.936   3.152
43251W        W13066  23.137  44.773  13.426
43252W        W13067  36.932  24.660  13.032
43253W        W13068  26.471  13.623  11.072
43254W        W13069  33.060  40.871   3.174
43255W        W13070   7.174  18.780   5.141
43256W        W13071   8.352   7.884   3.732
43257W        W13072  15.156  27.084  11.397
43258W        W13073  37.495  30.089  10.937
43259W        W13074  34.919  22.699  10.449
43260W        W13075  31.901  22.707  13.428
43261W        W13076  40.035   1.806  11.537
43262W        W13077  21.694  27.138   0.789
43263W        W13078  32.977  42.491   1.748
43264W        W13079   9.309  14.762   0.917
43265W        W13080  11.788   0.751   4.755
43266W        W13081  42.979  25.512  11.495
43267W        W13082   0.879  22.671  14.989
43268W        W13083  38.449  39.450   4.651
43269W        W13084  13.769  22.017  14.864
43270W        W13085  26.624  25.114   3.764
43271W        W13086  21.065  41.498   4.619
43272W        W13087  14.813  11.637   2.346
43273W        W13088  21.181  40.997  10.555
43274W        W13089  25.207  38.070  13.374
43275W        W13090  34.596  39.441   0.779
43276W        W13091   7.242  12.814   2.819
43277W        W13092   9.761   7.838  11.532
43278W        W13093  12.671  30.122  10.994
43279W        W13094   0.438  17.585   3.215
43280W        W13095   5.908  14.274  10.502
43281W        W13096  43.498   5.290   4.806
43282W        W13097   8.172   9.161  10.625
43283W        W13098  23.534  13.149   1.825
43284W        W13099  21.195  22.707  12.093
43285W        W13100  16.667  29.632  12.894
43286W        W13101  33.082   8.260   1.797
43287W        W13102  32.918   6.196   0.340
43288W        W13103  31.942  44.289  14.360
43289W        W13104  37.049  19.727  14.503
43290W        W13105   2.840   4.370  14.286
43291W        W13106  16.655  31.596   2.199
43292W        W13107   4.314  24.214  10.478
43293W        W13108   8.770   6.759  10.412
43294W        W13109  43.977  40.893   3.277
43295W        W13110   2.842  22.214  10.978
43296W        W13111   3.369   1.362  10.628
43297W        W13112  44.489  39.354   1.275
43298W        W13113  32.453  28.022  11.397
43299W        W13114  20.109   3.247  14.291
43300W        W13115  42.889  12.820  10.628
43301W        W13116   6.344  43.463  11.051
43302W        W13117  29.473  32.573   4.690
43303W        W13118  17.249  21.196   0.477
43304W        W13119  12.744  24.669   4.281
43305W        W13120  31.484   7.260  14.322
43306W        W13121  44.882  41.377   4.819
43307W        W13122  32.123  23.703   4.822
43308W        W13123  34.457  40.809   1.740
43309W        W13124   4.895  25.108   1.376
43310W        W13125  15.702   7.787   4.599
43311W        W13126  17.305   0.929   1.697
43312W        W13127  25.552  14.612   3.701
43313W        W13128  11.154  29.436   0.920
43314W        W13129  30.974  20.618   3.670
43315W        W13130  38.571  43.467   4.166
43316W        W13131  30.535   5.216   2.732
43317W        W13132  38.843  20.543  11.394
43318W        W13133  35.544  22.177   1.369
43319W        W13134   6.898   6.351  11.421
43320W        W13135  39.861  24.485  14.940
43321W        W13136  30.162   2.736   4.199
43322W        W13137   0.940  20.049   4.617
43323W        W13138  25.543  25.095   9.978
43324W        W13139  39.872   9.709  10.421
43325W        W13140  12.643   1.923  14.508
43326W        W13141  41.910   4.728  10.438
43327W        W13142  26.174  31.617  11.443
43328W        W13143  13.336  36.580   4.240
43329W        W13144  20.693  20.035   2.682
43330W        W13145  35.596  26.196   1.315
43331W        W13146  24.531   4.308   3.733
43332W        W13147  11.258  36.864   2.690
43333W        W13148  34.479  38.008  11.522
43334W        W13149  19.546  20.114   0.266
43335W        W13150  30.610  43.281  12.500
43336W        W13151   6.250  42.416  11.382
43337W        W13152  33.551   3.752  12.895
43338W        W13153  17.634   9.785  12.880
43339W        W13154  40.023  29.480  12.454
43340W        W13155  31.969  30.507  13.960
43341W        W13156  31.446  35.992  13.516
43342W        W13157  11.284  21.165  14.871
43343W        W13158  33.622  14.153   3.309
43344W        W13159  32.564  18.229  10.575
43345W        W13160  32.544  18.053   3.327
43346W        W13161   6.817  31.907   4.249
43347W        W13162  20.664  43.324   1.826
43348W        W13163   5.297  32.435   1.331
43349W        W13164  30.006   3.812   4.662
43350W        W13165   5.898  34.018  13.383
43351W        W13166  37.559  28.942   1.262
43352W        W13167   2.960  16.600  14.873
43353W        W13168  33.095  24.123   3.844
43354W        W13169  35.975  24.144   4.149
43355W        W13170  21.178  42.916  13.483
43356W        W13171  39.040  15.657  13.404
43357W        W13172  19.565  10.168  11.608
43358W        W13173  41.812   1.872  12.909
43359W        W13174  42.789  32.970   3.146
43360W        W13175  13.755  15.742   4.151
43361W        W13176   1.770   7.907   3.845
43362W        W13177  26.484  35.517   4.344
43363W        W13178  16.240  29.494  10.509
43364W        W13179   9.176  40.051  13.844
43365W        W13180  16.728   6.920   1.267
43366W        W13181  38.466  16.180  11.055
43367W        W13182  34.903  41.500   4.788
43368W        W13183  18.220  17.080   4.810
43369W        W13184  12.618   4.918  11.488
43370W        W13185  20.244  24.996  12.437
43371W        W13186  18.546  13.254   2.347
43372W        W13187  31.100  35.061  11.590
43373W        W13188  28.540   3.815   1.320
43374W        W13189   4.318   7.813  13.475
43375W        W13190  10.753  37.851   1.814
43376W        W13191  33.049  29.504  12.342
43377W        W13192  22.185   4.217  10.499
43378W        W13193  20.539  25.124  14.849
43379W        W13194  32.520  35.006  14.404
43380W        W13195  14.679  17.753  13.538
43381W        W13196  13.230  35.043   0.424
43382W        W13197  28.536  30.093  11.067
43383W        W13198  28.487  33.016   3.679
43384W        W13199   8.404  20.729  14.431
43385W        W13200   3.430  24.143  14.363
43386W        W13201  44.359  16.285  11.115
43387W        W13202   1.271  40.815  11.082
43388W        W13203  22.132  32.979  11.412
43389W        W13204   5.355  37.503   2.273
43390W        W13205  17.656  13.109   4.670
43391W        W13206  29.562  38.988  10.554
43392W        W13207   5.862   9.357  13.375
43393W        W13208   3.295  43.836  14.374
43394W        W13209   5.791   0.843   0.907
43395W        W13210  23.067  18.607  12.044
43396W        W13211  35.984   0.258  14.448
43397W        W13212  39.048   1.905  11.466
43398W        W13213  29.519   8.783   1.809
43399W        W13214  43.402  28.123  10.973
43400W        W13215   4.341   7.196   2.887
43401W        W13216  23.162  25.086  14.952
43402W        W13217  21.249  24.157  10.431
43403W        W13218   3.885  42.843  11.091
43404W        W13219  18.114   4.277   0.324
43405W        W13220  18.561   5.266  12.915
43406W        W13221   8.278   3.720  11.867
43407W        W13222  37.005  14.334  12.000
43408W        W13223  36.431   7.724   1.361
43409W        W13224  17.083   2.249  11.930
43410W        W13225  40.463  10.763   0.442
43411W        W13226  40.387  30.520   4.288
43412W        W13227  26.055  24.609   4.711
43413W        W13228  16.245  38.396  11.083
43414W        W13229   9.759  34.370   3.377
43415W        W13230  18.078  43.904   2.836
43416W        W13231  35.568   3.835   1.448
43417W        W13232  44.476  33.995  14.429
43418W        W13233  32.056  38.548   1.818
43419W        W13234  31.466   8.388   3.315
43420W        W13235   5.395  41.809   1.935
43421W        W13236  14.254   5.867  12.965
43422W        W13237  29.152  34.400  11.496
43423W        W13238   2.847  37.535   0.304
43424W        W13239  21.086   3.237  11.926
43425W        W13240  12.621   4.391  14.470
43426W        W13241   4.223  21.257  10.091
43427W        W13242  35.596  25.025   2.329
43428W        W13243  35.452  14.207   0.939
43429W        W13244  43.860  41.856   1.270
43430W        W13245  44.276   2.287  11.972
43431W        W13246  40.053  13.113  12.547
43432W        W13247  14.249  33.407  14.375
43433W        W13248   6.833  38.326   0.319
43434W        W13249   6.704  19.538  13.411
43435W        W13250  24.123  42.860  10.412
43436W        W13251  27.680   9.782   5.771
43437W        W13252  19.226  34.926  10.493
43438W        W13253  40.481  10.290   4.257
43439W        W13254  18.068  15.676   0.757
43440W        W13255   6.232   1.775   3.840
43441W        W13256  36.412  31.423  11.056
43442W        W13257  22.732  37.879  13.331
43443W        W13258  39.558  30.068   1.367
43444W        W13259  33.096  39.383  13.875
43445W        W13260  40.533  41.307   4.630
43446W        W13261  24.138  33.408   5.240
43447W        W13262  33.875  42.375   1.331
43448W        W13263  38.044  26.649   0.331
43449W        W13264  12.282  17.625   0.812
43450W        W13265   9.743  40.003   4.255
43451W        W13266  29.995  28.161   1.251
43452W        W13267  17.276  16.176  12.047
43453W        W13268  43.860  24.080  12.085
43454W        W13269  28.681  11.295  10.523
43455W        W13270  38.483  43.900   3.217
43456W        W13271  32.091  37.908  14.469
43457W        W13272   0.322   6.747  14.298
43458W        W13273   6.365  14.660   1.279
43459W        W13274   4.744  10.673  11.602
43460W        W13275   8.872  22.059  13.833
43461W        W13276  12.308  31.463   0.381
43462W        W13277   0.392  10.240  14.780
43463W        W13278   1.240  35.005  10.983
43464W        W13279  30.943  32.100  14.841
43465W        W13280  24.172  20.695  14.758
43466W        W13281  12.824   8.269  13.516
43467W        W13282   7.874  11.278  11.930
43468W        W13283  32.960  35.421  13.950
43469W        W13284  16.798  19.594   3.291
43470W        W13285  19.125  11.863   0.921
43471W        W13286  28.047   2.380   4.217
43472W        W13287   1.799  41.529  14.413
43473W        W13288   2.893   3.884  14.295
43474W        W13289   7.189  24.489   4.202
43475W        W13290   3.863   2.398   2.362
43476W        W13291  23.112  21.513  10.638
43477W        W13292  40.823  36.417   4.756
43478W        W13293  23.103   9.856  11.013
43479W        W13294   3.280  21.086  12.000
43480W        W13295  20.574  36.031   0.459
43481W        W13296  34.483  21.559  14.025
43482W        W13297   4.876   2.776   3.862
43483W        W13298  40.970  41.022  12.959
43484W        W13299  37.036  30.921  10.496
43485W        W13300  16.301  26.208   4.819
43486W        W13301  28.017   3.853   2.673
43487W        W13302  25.610  38.064  10.953
43488W        W13303  31.441  43.498  11.425
43489W        W13304  36.964   2.850   0.422
43490W        W13305   4.729  43.807   2.272
43491W        W13306  10.649  11.323   1.402
43492W        W13307  21.593   1.973   5.148
43493W        W13308  32.474  14.704  10.488
43494W        W13309  25.978   1.936  12.071
43495W        W13310  11.698  20.265  10.160
43496W        W13311   7.876  28.669   3.347
43497W        W13312  34.940   9.332   0.754
43498W        W13313   2.236  24.984   0.320
43499W        W13314  40.310  42.840  12.485
43500W        W13315   2.964  26.593  14.937
43501W        W13316  20.221  33.439  10.460
43502W        W13317   2.229  26.079  11.590
43503W        W13318  35.003  25.471  12.926
43504W        W13319   7.814  42.489   0.968
43505W        W13320  43.980  40.367  10.889
43506W        W13321  30.023  18.588  11.583
43507W        W13322  32.927  23.070   4.821
43508W        W13323   6.187  23.111   1.825
43509W        W13324   0.797  26.560   4.125
43510W        W13325  44.971  20.047  12.530
43511W        W13326  43.447   7.402   3.154
43512W        W13327   0.747  33.905   1.358
43513W        W13328   0.278  11.685   3.198
43514W        W13329   8.233  27.635  13.525
43515W        W13330  41.475  37.494  13.344
43516W        W13331  14.646  36.933  12.492
43517W        W13332   0.296  14.272   1.234
43518W        W13333   6.224  19.697   1.211
43519W        W13334  34.428  43.812   3.683
43520W        W13335  25.658   3.795  14.833
43521W        W13336  12.230  36.851  14.329
43522W        W13337   5.197  26.514  10.950
43523W        W13338  26.990   5.809   2.283
43524W        W13339   1.419  21.159   2.241
43525W        W13340  32.551  19.245   0.389
43526W        W13341  11.273  24.077   0.314
43527W        W13342  12.821  34.427   0.417
43528W        W13343  33.875   2.874   0.900
43529W        W13344   9.703  42.944   0.949
43530W        W13345   3.246  22.022  13.931
43531W        W13346  34.467  32.479   2.318
43532W        W13347  24.090  34.411   3.198
43533W        W13348   3.454  19.710  12.465
43534W        W13349  19.269  22.250   4.831
43535W        W13350  21.164  37.903  14.408
43536W        W13351  11.736   7.774  11.506
43537W        W13352  10.384  33.527   5.111
43538W        W13353  41.943  18.113  10.509
43539W        W13354  16.732   0.951  12.015
43540W        W13355  29.608  19.125   0.948
43541W        W13356  16.786  23.505  12.887
43542W        W13357  10.817  10.844   1.350
43543W        W13358   3.387  37.544   0.242
43544W        W13359   1.879  43.959  13.987
43545W        W13360  10.844  38.038   2.297
43546W        W13361  24.484  18.253   0.318
43547W        W13362  12.335  17.281   3.845
43548W        W13363  33.502  11.272   1.769
43549W        W13364  10.291  34.086  11.865
43550W        W13365  40.805  39.424   1.218
43551W        W13366  30.017  38.862  10.985
43552W        W13367  19.714  33.462   0.267
43553W        W13368  29.599  28.536   3.251
43554W        W13369  33.905  43.352   2.689
43555W        W13370  17.066  27.967   1.313
43556W        W13371   7.805  29.565  13.885
43557W        W13372  10.287   4.282  10.434
43558W        W13373   7.214  32.409   4.328
43559W        W13374  35.455   3.341  13.348
43560W        W13375   0.291  32.611   1.366
43561W        W13376  18.283  21.607   0.242
43562W        W13377  28.999  25.612  12.002
43563W        W13378  33.040   5.832  14.276
43564W        W13379  25.964  32.968  10.518
43565W        W13380  15.213  32.917   3.678
43566W        W13381  24.194  29.094   5.265
43567W        W13382  14.136  37.985   3.752
43568W        W13383   2.370  24.147   2.207
43569W        W13384  30.991  20.144  14.385
43570W        W13385  42.306  32.585  13.946
43571W        W13386  34.452  35.865   0.425
43572W        W13387   3.713   7.872   2.815
43573W        W13388  33.466   0.406   5.148
43574W        W13389  24.649  20.212   0.922
43575W        W13390   3.397  21.737   1.829
43576W        W13391  36.042  35.934  13.063
43577W        W13392  34.898  23.027  14.960
43578W        W13393  26.510  17.801  11.954
43579W        W13394  25.501   3.837   2.800
43580W        W13395  33.054  40.381   2.198
43581W        W13396  11.138  23.127   1.319
43582W        W13397   8.771  33.433   3.717
43583W        W13398  22.533  18.070   2.736
43584W        W13399  27.473  35.459  13.424
43585W        W13400   3.762  40.856  12.908
43586W        W13401  10.745  14.777   4.695
43587W        W13402  28.610  36.413   1.802
43588W        W13403   7.912  41.326   2.670
43589W        W13404  15.167  16.757  14.023
43590W        W13405  23.663   0.776   1.213
43591W        W13406  35.005  31.029   1.369
43592W        W13407   0.899  39.546   4.630
43593W        W13408  27.552  15.118  14.446
43594W        W13409   6.277  24.067  10.895
43595W        W13410  35.893  42.917   4.137
43596W        W13411  10.762  38.552   0.450
43597W        W13412   8.233  26.530   1.894
43598W        W13413   9.864  25.550  13.449
43599W        W13414   7.240  28.497   4.761
43600W        W13415  33.068  34.985  13.396
43601W        W13416  13.706  21.676   4.348
43602W        W13417  16.096  11.268   4.295
43603W        W13418  13.799   4.733   2.332
43604W        W13419  40.866  12.819   3.320
43605W        W13420  31.036  14.742  12.852
43606W        W13421  26.462  28.646   2.393
43607W        W13422  22.090   1.257   2.868
43608W        W13423   3.867  35.516  11.527
43609W        W13424   6.222  31.644   2.397
43610W        W13425  40.411   7.669   2.391
43611W        W13426  36.037  40.966   1.910
43612W        W13427  25.552  36.995  10.028
43613W        W13428  22.623  36.450  12.506
43614W        W13429   1.851  11.773   0.951
43615W        W13430  25.532  19.645  12.387
43616W        W13431  36.842   0.366  14.014
43617W        W13432  44.299  36.547   0.817
43618W        W13433  37.963  35.394  11.524
43619W        W13434  27.979  16.715   1.227
43620W        W13435  19.236  19.206  12.381
43621W        W13436   8.229  35.883   2.733
43622W        W13437  28.485  44.993   4.303
43623W        W13438   7.204  30.537   0.909
43624W        W13439  14.235  34.470   2.366
43625W        W13440  35.099  39.351  14.397
43626W        W13441   3.804  23.063  11.012
43627W        W13442   7.272  26.477   1.870
43628W        W13443   8.390  37.513  12.529
43629W        W13444  38.457  40.938   1.373
43630W        W13445  19.771  17.570  14.377
43631W        W13446  43.313  12.661   0.790
43632W        W13447  17.291  28.561   4.804
43633W        W13448   5.872  18.665   3.862
43634W        W13449   3.899  13.768  13.322
43635W        W13450  34.894   8.875  13.313
43636W        W13451  18.081  12.706  10.589
43637W        W13452  18.593   3.218   3.169
43638W        W13453  40.044  40.007  14.397
43639W        W13454  36.394   8.377   0.284
43640W        W13455   3.361  28.492  10.634
43641W        W13456  21.182  14.218  13.508
43642W        W13457  29.669  32.502  12.824
43643W        W13458  33.401  30.938  11.558
43644W        W13459  10.647  24.716  11.391
43645W        W13460  29.538  24.523   1.320
43646W        W13461   2.243  31.120   1.870
43647W        W13462  23.158  37.083  13.844
43648W        W13463  36.424  27.142   2.299
43649W        W13464  34.488  20.194  14.386
43650W        W13465  39.818  17.567   4.602
43651W        W13466  11.787  31.525  12.922
43652W        W13467  15.725  17.242   1.929
43653W        W13468  35.924  20.675  12.437
43654W        W13469   0.814  34.101  12.067
43655W        W13470   0.416  16.241   3.354
43656W        W13471  16.745  29.129   1.415
43657W        W13472  19.564  22.015  11.029
43658W        W13473  25.562  34.545   3.648
43659W        W13474  28.960  19.776   4.652
43660W        W13475  11.161  21.732   3.185
43661W        W13476   8.898  40.985  10.478
43662W        W13477  37.576   3.363   0.840
43663W        W13478  38.533  25.562  11.957
43664W        W13479  37.483   0.924   2.799
43665W        W13480   6.396  16.259  12.962
43666W        W13481  37.965  38.907   0.748
43667W        W13482   9.724  29.452  10.592
43668W        W13483  20.537  32.031  10.943
43669W        W13484  29.042  30.638   2.893
43670W        W13485  34.112  30.646  12.465
43671W        W13486  16.646  40.388   4.343
43672W        W13487   5.419   2.855  12.448
43673W        W13488   8.774  41.957  12.862
43674W        W13489  27.664   7.331   3.227
43675W        W13490  23.635  28.622  13.923
43676W        W13491  17.125  13.709   3.835
43677W        W13492  40.547  38.058  11.463
43678W        W13493  41.332   2.302  12.448
43679W        W13494  20.528  32.137   4.617
43680W        W13495  15.667  33.446   1.793
43681W        W13496  43.447  42.980   0.763
43682W        W13497  18.090   1.307  13.486
43683W        W13498  19.175  24.196  13.832
43684W        W13499  10.771  35.472   1.309
43685W        W13500  25.482  25.112   3.742
43686W        W13501   6.726  37.037  10.988
43687W        W13502  11.690  15.703   0.384
43688W        W13503  16.786  15.290   1.382
43689W        W13504  14.295  37.359  10.513
43690W        W13505  19.740  25.617  14.767
43691W        W13506  31.936  24.978  10.114
43692W        W13507  23.705  18.083   3.817
43693W        W13508  17.234  31.416   2.253
43694W        W13509  10.348   0.334  11.982
43695W        W13510   2.876   3.280  13.491
43696W        W13511  26.993  13.727   3.242
43697W        W13512  27.057  31.450   0.285
43698W        W13513  10.845  40.927   1.755
43699W        W13514  34.491  37.530  12.870
43700W        W13515  26.606   0.976   1.224
43701W        W13516  36.879  33.053  11.604
43702W        W13517  15.645  38.519  10.531
43703W        W13518   6.717  17.636   4.336
43704W        W13519  43.899  18.722   2.209
43705W        W13520   4.450  44.269   0.800
43706W        W13521   2.724   7.411   1.841
43707W        W13522  31.541  41.444  11.965
43708W        W13523  36.572  38.512   2.192
43709W        W13524  30.984  23.539  14.768
43710W        W13525   1.752  27.182  13.351
43711W        W13526  35.942  36.363  10.496
43712W        W13527  18.228  21.633   0.865
43713W        W13528  24.493  27.491  14.452
43714W        W13529  18.206  30.631   4.340
43715W        W13530  11.241   3.364   4.144
43716W        W13531  26.952  19.072   1.790
43717W        W13532  18.649  13.174  13.859
43718W        W13533  15.150  14.165  11.574
43719W        W13534  11.180  29.162  12.994
43720W        W13535  13.295   0.771   1.401
43721W        W13536  40.515   5.274   1.315
43722W        W13537  34.062  16.191  12.002
43723W        W13538   7.273  24.503   0.320
43724W        W13539  40.517   1.345   4.255
43725W        W13540  12.156  36.451   4.727
43726W        W13541  22.180  25.528  11.087
43727W        W13542  11.325  26.153   3.682
43728W        W13543  11.295   0.850   1.364
43729W        W13544  19.167  15.103   4.193
43730W        W13545  12.212  29.107   2.725
43731W        W13546  12.775  12.736  14.844
43732W        W13547  26.051  23.576   3.863
43733W        W13548  15.296  18.093   2.662
43734W        W13549   0.955  37.940   3.837
43735W        W13550  37.838  17.665   0.818
43736W        W13551  43.498  41.499   3.215
43737W        W13552   7.298  27.035   1.379
43738W        W13553  24.075   1.806   2.311
43739W        W13554  33.904  11.714   3.190
43740W        W13555  38.563   4.285   1.393
43741W        W13556  18.674  11.729   0.286
43742W        W13557  44.297  24.158   4.283
43743W        W13558  13.647  40.865  10.552
43744W        W13559  29.998  18.738  12.895
43745W        W13560   0.444  35.865  14.781
43746W        W13561   3.911  37.861  11.895
43747W        W13562  41.998  36.974  14.288
43748W        W13563   1.942   3.879   4.765
43749W        W13564  13.680  29.019  13.472
43750W        W13565  31.979   8.270  12.857
43751W        W13566   0.295  39.864   4.778
43752W        W13567   0.977  37.843  13.397
43753W        W13568  44.948   0.340   3.861
43754W        W13569   6.760  14.733  14.824
43755W        W13570   6.863  24.043  11.413
43756W        W13571  14.594  11.706  11.031
43757W        W13572  43.815  43.833   3.256
43758W        W13573  26.693  33.079  14.327
43759W        W13574  34.914  26.182  11.939
43760W        W13575  11.309  29.078  14.389
43761W        W13576  36.989  10.809  11.486
43762W        W13577   6.317   1.976   1.293
43763W        W13578   3.854  42.395  14.835
43764W        W13579  37.842  20.215  13.464
43765W        W13580  43.468  37.978   0.461
43766W        W13581  20.132  24.160   1.430
43767W        W13582  13.625  38.009   4.137
43768W        W13583   7.301  34.949   0.772
43769W        W13584  37.039  17.263   2.726
43770W        W13585  24.609  33.584  10.916
43771W        W13586  24.213  21.081   0.891
43772W        W13587  15.758   3.309  12.364
43773W        W13588  19.620  10.280   3.196
43774W        W13589  26.041  40.314   1.384
43775W        W13590  35.898  39.550   0.400
43776W        W13591  39.446  19.245  14.276
43777W        W13592  21.681   9.840   0.847
43778W        W13593  35.954   4.887  13.884
43779W        W13594  43.291  44.362   2.241
43780W        W13595  26.152  35.442   2.329
43781W        W13596  34.481  38.354  14.802
43782W        W13597  38.845  22.511  13.830
43783W        W13598  41.877   7.266   2.760
43784W        W13599  43.455  36.490   0.388
43785W        W13600  31.926  25.617  12.425
43786W        W13601  40.442  15.727   5.191
43787W        W13602  38.513  35.520   0.842
43788W        W13603   6.822   0.483   0.927
43789W        W13604   6.798  18.611   4.335
43790W        W13605  19.713   5.721   4.207
43791W        W13606  40.023   4.410  11.611
43792W        W13607  39.909  44.453  12.355
43793W        W13608  38.347  30.624   2.234
43794W        W13609   8.660  26.673  11.005
43795W        W13610   1.262   3.274  12.906
43796W        W13611  30.134   5.296  11.609
43797W        W13612   8.821   7.206   1.840
43798W        W13613   7.376   4.380  11.930
43799W        W13614   1.735   7.694   1.233
43800W        W13615  42.000  42.511  10.524
43801W        W13616  15.597  22.216   2.702
43802W        W13617   9.799  18.676  12.441
43803W        W13618  26.695  24.660   3.713
43804W        W13619  19.691  24.693   1.901
43805W        W13620  17.200  17.671   0.293
43806W        W13621  24.065  41.323   0.478
43807W        W13622  13.651  19.618  12.530
43808W        W13623  43.881  27.023  13.907
43809W        W13624  24.988  39.969   4.804
43810W        W13625  13.687  10.208   0.816
43811W        W13626  33.459  24.171  10.913
43812W        W13627  23.636  34.120  13.965
43813W        W13628  13.632  30.453   2.789
43814W        W13629  28.111  16.787  10.528
43815W        W13630  10.874  13.236  14.425
43816W        W13631  21.035   7.201  10.424
43817W        W13632  17.758   6.830  10.956
43818W        W13633  21.610  26.529  14.780
43819W        W13634  17.561   3.311   4.182
43820W        W13635  44.799  35.029  11.856
43821W        W13636  43.003  20.768  11.554
43822W        W13637   5.276   9.172  12.080
43823W        W13638  19.645  20.058   1.743
43824W        W13639  13.811  38.947  13.898
43825W        W13640  13.694   7.280  13.396
43826W        W13641  27.601   7.821  10.982
43827W        W13642  42.390  26.060  13.539
43828W        W13643  12.725  17.721  10.151
43829W        W13644  20.575   4.236   2.257
43830W        W13645  24.669   1.313   0.352
43831W        W13646  23.584  40.945   2.353
43832W        W13647   8.377   6.257   4.656
43833W        W13648  31.612   5.201  11.439
43834W        W13649  41.833   5.403  11.888
43835W        W13650  21.575   9.875   0.475
43836W        W13651  28.975  13.248  14.288
43837W        W13652  12.260  13.841  12.568
43838W        W13653  29.653  39.324   1.764
43839W        W13654   6.290   5.338  12.358
43840W        W13655  39.505   9.857  14.968
43841W        W13656  24.662  14.663   2.784
43842W        W13657  28.058   9.158  10.630
43843W        W13658  27.656   6.758  10.598
43844W        W13659  14.686   7.388  14.962
43845W        W13660  22.100  40.397  13.357
43846W        W13661  22.029   3.269   3.235
43847W        W13662  34.378  11.223  12.848
43848W        W13663  32.915  23.238   0.476
43849W        W13664  36.891  20.659  12.956
43850W        W13665   1.403  20.057   1.302
43851W        W13666  18.667  30.568  14.008
43852W        W13667  34.014  10.184   3.279
43853W        W13668  25.146  37.548  14.320
43854W        W13669  42.969  11.781   5.320
43855W        W13670  25.154  43.450  13.338
43856W        W13671  43.392  43.312   2.364
43857W        W13672  19.746  10.696   0.311
43858W        W13673  24.612   6.414  14.382
43859W        W13674  36.959  34.509   3.751
43860W        W13675  17.250  17.091   2.406
43861W        W13676  42.505  28.594   2.836
43862W        W13677  29.155  21.617   1.749
43863W        W13678  43.380  32.540  14.403
43864W        W13679  21.017  10.787  14.294
43865W        W13680  36.374  31.023  13.794
43866W        W13681   7.726  37.960  11.865
43867W        W13682  43.842  28.971  10.557
43868W        W13683   6.748  41.299  10.051
43869W        W13684  15.134   2.753   4.780
43870W        W13685   0.469  34.480   4.287
43871W        W13686   4.358   6.888  11.449
43872W        W13687   6.749   4.369   1.228
43873W        W13688  40.520   1.302   2.687
43874W        W13689  23.664  37.015   2.300
43875W        W13690  10.372   6.838   4.739
43876W        W13691  38.889  38.529   1.874
43877W        W13692  39.550   1.429   0.262
43878W        W13693   3.852  34.603  13.438
43879W        W13694  27.982  20.641  12.066
43880W        W13695  12.357   3.768  14.451
43881W        W13696  14.701  42.888  10.031
43882W        W13697  43.785   5.725  11.097
43883W        W13698  33.931  26.488   0.891
43884W        W13699  14.290   9.720  10.518
43885W        W13700  38.999   0.364  12.554
43886W        W13701  16.579  18.235   2.798
43887W        W13702  26.188  44.861   2.368
43888W        W13703  35.915  44.448   3.870
43889W        W13704  34.506  27.516   4.829
43890W        W13705  20.602  36.923   4.729
43891W        W13706  15.696  12.317  12.888
43892W        W13707  33.464  23.225  14.940
43893W        W13708  41.041   8.788   0.365
43894W        W13709   0.440   6.738   3.333
43895W        W13710  18.695  39.409   0.260
43896W        W13711  32.945   0.923  11.005
43897W        W13712   6.183   4.851  10.543
43898W        W13713  31.509   4.708   4.761
43899W        W13714  33.071  17.171   1.838
43900W        W13715  28.116  22.511   3.363
43901W        W13716  31.468   3.331   4.717
43902W        W13717  36.940  31.608   4.319
43903W        W13718  25.198   0.310   1.235
43904W        W13719  19.079  19.549   3.804
43905W        W13720  22.140  37.877   4.762
43906W        W13721  23.997  29.172  11.596
43907W        W13722  29.607  25.038  14.494
43908W        W13723  33.600  21.695  14.760
43909W        W13724  32.998  38.405  11.434
43910W        W13725  18.273  39.983  12.911
43911W        W13726   7.799  30.142  12.075
43912W        W13727  19.546   5.215   4.259
43913W        W13728  13.348  15.245  11.431
43914W        W13729  11.209   0.289  13.491
43915W        W13730  10.876  22.216   4.331
43916W        W13731  22.040  25.135  12.523
43917W        W13732  37.839   3.783  10.465
43918W        W13733  21.604  25.990  12.426
43919W        W13734  15.734  11.373  12.415
43920W        W13735  34.946  19.663  10.536
43921W        W13736  20.535  41.398   2.240
43922W        W13737  44.353  19.777   3.293
43923W        W13738  26.460  10.331   1.443
43924W        W13739  36.444  39.847  10.009
43925W        W13740  20.042  43.392   4.196
43926W        W13741  15.585  14.338   3.318
43927W        W13742  16.285  20.544   0.468
43928W        W13743  12.777  34.499   3.192
43929W        W13744  37.433   7.324   2.298
43930W        W13745   4.397  35.418  10.940
43931W        W13746  14.309  14.781   3.291
43932W        W13747  32.453  15.737  11.872
43933W        W13748  18.740  11.623   3.795
43934W        W13749  14.825  23.046  14.933
43935W        W13750   9.772  19.134  13.404
43936W        W13751  38.861  28.554   5.089
43937W        W13752  26.991  26.649   0.761
43938W        W13753  29.532  20.162  13.857
43939W        W13754  28.548  24.613   2.183
43940W        W13755  21.692   7.298  11.878
43941W        W13756  37.932  40.396   4.693
43942W        W13757  40.490  43.908  11.535
43943W        W13758  22.168  15.588  11.859
43944W        W13759  19.714  10.736  13.997
43945W        W13760  41.300  17.747  13.866
43946W        W13761   3.228  35.972   4.280
43947W        W13762  21.223  32.551  14.460
43948W        W13763  44.849   9.755   2.815
43949W        W13764  29.499  38.932   4.320
43950W        W13765  10.806  22.606  14.762
43951W        W13766  36.011   9.337  10.645
43952W        W13767  42.009  27.046   2.709
43953W        W13768  39.064  18.083   0.774
43954W        W13769  29.578  24.495  12.096
43955W        W13770  31.925  43.455   2.302
43956W        W13771  18.731  42.475   4.601
43957W        W13772   1.821  29.005  10.589
43958W        W13773   0.255  28.035  14.799
43959W        W13774  25.085  17.644   0.858
43960W        W13775  16.606  44.460  13.417
43961W        W13776  28.451  24.125  13.374
43962W        W13777  25.554   0.742   1.359
43963W        W13778   5.427  31.574  14.490
43964W        W13779  24.034  31.596   0.453
43965W        W13780  12.184   2.805  14.760
43966W        W13781   1.238  11.300   3.681
43967W        W13782  28.519  25.967  13.898
43968W        W13783  25.176   8.389  13.921
43969W        W13784  17.785  16.290  10.473
43970W        W13785  37.451   0.924   4.230
43971W        W13786   0.891  18.586  14.502
43972W        W13787  37.492   7.861   0.736
43973W        W13788  42.331  22.111  13.435
43974W        W13789  15.603  42.355   3.779
43975W        W13790  16.167  19.624  11.864
43976W        W13791   7.749  16.198   0.283
43977W        W13792  15.301   2.760  13.858
43978W        W13793  17.696  12.146  11.578
43979W        W13794  23.241  38.014   4.733
43980W        W13795   1.401  30.078  11.472
43981W        W13796   4.923  27.089  12.005
43982W        W13797   2.721  40.380   3.277
43983W        W13798  20.100  31.047   3.241
43984W        W13799  15.672  11.231  12.995
43985W        W13800  27.469  38.504  13.481
43986W        W13801   7.191  39.516   0.729
43987W        W13802  17.667  12.787  11.914
43988W        W13803  20.267   6.395  12.351
43989W        W13804  32.906  35.408  13.543
43990W        W13805  43.390  31.437   2.329
43991W        W13806  20.049  33.613   3.307
43992W        W13807  25.672  32.432   0.308
43993W        W13808  26.069  13.269   0.927
43994W        W13809   8.315  43.930  10.541
43995W        W13810  27.484  35.489   0.248
43996W        W13811  40.457  42.948  13.529
43997W        W13812  39.063   8.901  11.491
43998W        W13813   3.738  40.914   4.620
43999W        W13814   6.212  26.624  14.428
44000W        W13815  44.412  30.020  14.350
44001W        W13816  18.296  17.722  11.026
44002W        W13817   9.705   6.790   3.382
44003W        W13818  41.303  33.031   0.809
44004W        W13819  39.038  15.140  11.590
44005W        W13820  43.794   1.252  13.473
44006W        W13821   6.722  13.629  12.506
44007W        W13822  44.956  14.153  11.065
44008W        W13823  26.170  17.262  12.455
44009W        W13824  33.546  21.218  13.830
44010W        W13825  23.028  17.159   3.660
44011W        W13826   4.914  10.258  14.461
44012W        W13827  38.910  15.276   0.425
44013W        W13828   5.854   3.914   2.758
44014W        W13829  13.761  36.988  13.477
44015W        W13830   4.939   3.789   4.291
44016W        W13831  39.395  27.158  14.359
44017W        W13832   2.236  41.871   2.792
44018W        W13833  18.778   9.700  11.474
44019W        W13834  13.825  33.489   3.833
44020W        W13835  30.961  33.892   3.728
44021W        W13836  44.466  20.042  14.932
44022W        W13837  19.580  34.436  13.930
44023W        W13838   0.293  16.132  12.412
44024W        W13839   4.943  13.181  13.997
44025W        W13840  13.649   1.875  11.044
44026W        W13841   9.295  42.453   3.773
44027W        W13842  19.741   6.891  14.434
44028W        W13843  14.590  23.080   3.834
44029W        W13844  10.233  31.044   0.780
44030W        W13845  32.930  34.070  13.502
44031W        W13846  13.647  21.199   3.148
44032W        W13847  41.520  14.223  11.473
44033W        W13848  44.388  12.233   4.180
44034W        W13849  13.126  33.400  13.812
44035W        W13850   8.305   7.794   2.220
44036W        W13851  21.171   7.364   0.854
44037W        W13852  16.812  33.417   1.212
44038W        W13853  18.761  22.621  12.045
44039W        W13854  12.117  33.927   2.262
44040W        W13855  29.089   8.372  13.062
44041W        W13856  29.549  26.610  13.837
44042W        W13857   2.423   0.378  10.423
44043W        W13858  19.643  19.137  14.301
44044W        W13859  42.944  36.469  14.468
44045W        W13860  42.507  32.125  14.783
44046W        W13861  37.559  16.592  12.832
44047W        W13862  17.624   5.922   3.821
44048W        W13863  40.516   3.378   2.182
44049W        W13864   0.338  14.691   4.821
44050W        W13865   0.353   2.325   1.229
44051W        W13866  42.455   6.195  12.993
44052W        W13867  43.913  36.994   2.800
44053W        W13868   0.386  39.521  12.346
44054W        W13869   8.810  16.270   1.336
44055W        W13870  26.132  25.213  11.035
44056W        W13871  10.741   1.276  11.856
44057W        W13872   9.851  30.922  12.919
44058W        W13873  28.646  36.009  12.088
44059W        W13874   1.787  24.197  10.968
44060W        W13875  15.619  42.980   2.839
44061W        W13876  14.761   0.358   0.762
44062W        W13877   4.444  27.008   3.862
44063W        W13878   5.833  22.664   0.858
44064W        W13879  37.396  32.557   4.678
44065W        W13880   8.804  24.527  10.973
44066W        W13881  29.576  25.695  14.385
44067W        W13882  11.813  39.881  12.572
44068W        W13883  44.973   6.893   2.205
44069W        W13884  30.533  26.074   4.246
44070W        W13885   9.218   3.856  12.854
44071W        W13886  39.983  44.870  12.028
44072W        W13887  40.404  19.162  13.523
44073W        W13888   1.420  11.660   3.339
44074W        W13889  40.418   2.738   4.623
44075W        W13890   8.879  19.709   1.257
44076W        W13891  14.156  13.238  14.809
44077W        W13892   6.261   6.343  12.396
44078W        W13893  11.242  13.305  10.460
44079W        W13894  22.552  40.537  12.477
44080W        W13895  40.364  27.505  14.428
44081W        W13896   7.803   0.771  10.977
44082W        W13897  12.634  19.088   4.168
44083W        W13898   8.819  16.231   0.952
44084W        W13899  37.574  40.501   5.255
44085W        W13900  28.965  43.322  10.456
44086W        W13901  17.190  14.115   0.464
44087W        W13902  26.112  22.112  12.555
44088W        W13903  44.775  44.426   4.640
44089W        W13904  30.021  14.163   1.360
44090W        W13905   7.749  16.653  14.495
44091W        W13906  24.101  17.786   4.213
44092W        W13907  37.898   0.386   1.841
44093W        W13908  27.054  42.888   0.329
44094W        W13909  35.004  28.664   1.326
44095W        W13910  31.958  16.579  10.452
44096W        W13911  34.943  39.825  10.445
44097W        W13912  38.862   2.881   2.816
44098W        W13913  20.610  18.604   3.844
44099W        W13914  10.758  28.591   1.222
44100W        W13915  28.181  37.026  10.499
44101W        W13916  22.018   0.333  11.876
44102W        W13917  10.870  33.084  13.800
44103W        W13918  40.378  24.202   5.099
44104W        W13919  32.631  42.798  13.835
44105W        W13920  39.900  28.082  14.984
44106W        W13921  17.277   3.825  11.993
44107W        W13922  13.350   0.847   0.264
44108W        W13923  41.977  38.973   3.823
44109W        W13924  37.464  35.055  13.390
44110W        W13925   1.734  32.489   0.879
44111W        W13926   0.452  39.909  10.447
44112W        W13927  44.879  23.609   0.407
44113W        W13928  24.220  43.414   4.326
44114W        W13929   8.376  40.411  14.983
44115W        W13930  28.557  24.570   3.842
44116W        W13931   4.766  22.052   4.181
44117W        W13932  38.327  15.692   1.440
44118W        W13933  29.490  27.458  12.360
44119W        W13934  40.398   4.265   0.263
44120W        W13935  34.909  31.926  10.023
44121W        W13936  10.760   3.304   3.160
44122W        W13937  18.093  28.006  11.558
44123W        W13938  29.101  28.657  10.476
44124W        W13939  21.207   0.902   1.829
44125W        W13940  37.033  10.177  11.443
44126W        W13941  27.025   9.822   2.211
44127W        W13942  41.952   8.739   1.872
44128W        W13943  28.063  10.648  12.524
44129W        W13944  41.405  21.528   1.862
44130W        W13945  35.486  42.477  12.834
44131W        W13946  41.859  28.037   1.712
44132W        W13947  43.856  30.616  12.896
44133W        W13948  29.442  26.986  12.373
44134W        W13949   0.922  20.675  13.938
44135W        W13950  23.539   2.319   0.781
44136W        W13951  16.299  23.096  11.594
44137W        W13952  16.193  32.945   0.404
44138W        W13953  44.458  10.277  13.863
44139W        W13954  16.672  40.944  11.456
44140W        W13955  22.209  15.700  14.840
44141W        W13956   2.430  22.111  13.424
44142W        W13957   8.400  43.472  13.791
44143W        W13958  25.704  43.340  11.417
44144W        W13959  36.541  10.723   1.926
44145W        W13960  27.170  40.431   2.188
44146W        W13961   8.744   4.237   0.254
44147W        W13962  10.821  24.067  10.572
44148W        W13963  30.948  35.493   4.193
44149W        W13964   7.258  22.639  13.820
44150W        W13965  40.513  14.313  14.010
44151W        W13966  39.469  33.564  13.409
44152W        W13967  26.029  16.142   4.691
44153W        W13968  38.417  19.049   3.235
44154W        W13969  37.054  30.463   1.859
44155W        W13970  26.471  30.062   0.734
44156W        W13971  12.633  25.993   1.427
44157W        W13972  29.940  25.666  11.053
44158W        W13973  12.225  39.927   1.890
44159W        W13974   6.816  21.104  14.882
44160W        W13975  11.214  24.527   3.762
44161W        W13976   3.448  37.927   2.848
44162W        W13977  20.523  23.674  13.042
44163W        W13978   2.471  24.981  11.974
44164W        W13979   4.275  13.832   1.250
44165W        W13980  38.355  40.816   0.267
44166W        W13981   3.395  16.654  14.332
44167W        W13982  11.212  20.561   4.626
44168W        W13983   7.300  25.600   0.930
44169W        W13984   6.225  25.647   2.723
44170W        W13985   0.870  18.192  12.055
44171W        W13986  40.314   1.755   2.222
44172W        W13987   6.232  12.784  14.788
44173W        W13988  35.455  41.886  13.389
44174W        W13989  23.182  34.614  14.882
44175W        W13990   2.416   4.865   4.726
44176W        W13991  43.820  33.971   1.890
44177W        W13992  34.964   3.290  13.419
44178W        W13993   6.189  42.363  12.916
44179W        W13994   2.446  25.585  11.921
44180W        W13995  23.143  10.778   2.310
44181W        W13996  16.292  32.086  14.763
44182W        W13997   2.367  21.600   2.795
44183W        W13998  32.915   3.841  12.406
44184W        W13999  20.645  35.507  12.873
44185W        W14000  10.741   9.888   1.837
44186W        W14001   0.387  28.024   3.208
44187W        W14002  20.029  15.309   4.696
44188W        W14003   5.193   7.243  10.617
44189W        W14004  25.645  10.810  14.297
44190W        W14005  33.943  17.285  14.420
44191W        W14006  11.713  30.615  13.324
44192W        W14007  29.018  35.077  11.035
44193W        W14008  41.332   1.930  12.078
44194W        W14009  14.189  34.027  11.119
44195W        W14010  28.094  33.066  13.372
44196W        W14011  44.432  39.922  10.970
44197W        W14012  25.989  25.166  12.961
44198W        W14013  40.444  22.627  10.580
44199W        W14014   3.452   3.924   1.883
44200W        W14015   4.377   1.948  10.592
44201W        W14016  34.061   6.914   4.610
44202W        W14017  35.017  14.742  10.492
44203W        W14018  33.413  20.242  14.973
44204W        W14019  29.975  39.546   4.675
44205W        W14020  11.714  44.947   2.713
44206W        W14021  18.737  24.131  11.610
44207W        W14022  14.657  18.662  13.917
44208W        W14023  27.171   0.981   2.670
44209W        W14024  19.610  41.364  14.010
44210W        W14025  18.649  14.667  11.587
44211W        W14026  26.966  37.423   2.316
44212W        W14027  30.614  24.636  10.560
44213W        W14028  35.972  31.951  13.311
44214W        W14029  14.205  20.630   0.355
44215W        W14030  14.682  26.045  14.301
44216W        W14031   8.741  25.691  14.918
44217W        W14032  24.095   4.209   1.310
44218W        W14033  41.500  39.937   0.457
44219W        W14034  27.028  34.973   3.348
44220W        W14035  21.623  36.927   0.909
44221W        W14036   5.714  17.227  13.400
44222W        W14037   6.383  32.530  12.517
44223W        W14038  11.254  14.680   3.685
44224W        W14039  40.914  40.534   3.790
44225W        W14040  24.064  27.518   1.700
44226W        W14041   6.257  33.507  13.374
44227W        W14042  26.518   0.281   0.853
44228W        W14043  40.370  33.897   1.828
44229W        W14044  27.104  41.951   4.155
44230W        W14045  41.925   4.300  14.405
44231W        W14046   9.838  16.107  14.462
44232W        W14047  39.938  11.356   1.271
44233W        W14048  18.078  32.031   2.858
44234W        W14049  14.143  22.007   3.355
44235W        W14050  30.477   2.947  11.393
44236W        W14051  39.925  32.510   0.278
44237W        W14052  43.806  29.051  11.510
44238W        W14053  22.666  43.978   0.881
44239W        W14054  33.036  44.324  12.089
44240W        W14055   0.840  34.968   3.277
44241W        W14056  27.047   4.234  10.640
44242W        W14057  33.124  20.737  14.000
44243W        W14058  19.653  30.980  11.932
44244W        W14059  32.508  30.093   3.192
44245W        W14060   2.918   6.793   3.631
44246W        W14061   3.942  42.444  14.471
44247W        W14062   6.743  35.858  14.305
44248W        W14063  24.153   4.895   2.725
44249W        W14064   6.882  33.035  14.488
44250W        W14065  33.030  19.104  14.286
44251W        W14066  27.135  13.610  11.037
44252W        W14067  17.596  29.452   3.698
44253W        W14068  13.291  26.539  11.447
44254W        W14069  17.616  41.013   2.792
44255W        W14070  15.624  22.526  14.495
44256W        W14071  11.279   6.253  11.475
44257W        W14072  38.451   1.405   0.806
44258W        W14073  21.549  10.156   1.697
44259W        W14074  42.915  10.183   3.664
44260W        W14075   1.962  17.732   0.756
44261W        W14076   5.716  18.648   3.178
44262W        W14077  43.404  16.754  10.641
44263W        W14078  44.005  44.839  14.430
44264W        W14079   3.726  16.644  10.537
44265W        W14080  39.839  12.841   2.405
44266W        W14081  34.419   0.395  14.389
44267W        W14082  42.002  30.589  10.471
44268W        W14083  14.215  12.125   4.284
44269W        W14084   4.900   0.858   0.376
44270W        W14085  36.025  10.654   0.385
44271W        W14086  39.920  33.443   2.666
44272W        W14087  27.132  31.462   2.714
44273W        W14088   9.250  20.717  13.504
44274W        W14089  41.386  43.506  13.489
44275W        W14090  11.624   1.971  14.495
44276W        W14091  44.933  11.212  14.792
44277W        W14092   5.277  36.528   1.404
44278W        W14093  15.644  11.190   0.438
44279W        W14094  36.388   6.769  11.609
44280W        W14095  28.057  29.460   1.706
44281W        W14096  41.428  36.999   3.779
44282W        W14097  22.020  22.577   4.808
44283W        W14098  30.066  43.991   2.210
44284W        W14099  41.505  29.100  10.962
44285W        W14100  22.516  18.208   1.441
44286W        W14101   8.671   1.414   3.265
44287W        W14102   1.772  25.709   3.283
44288W        W14103  41.375  25.026  10.983
44289W        W14104  35.575  28.642  12.014
44290W        W14105  38.935   5.259   4.121
44291W        W14106   4.869  40.974   3.294
44292W        W14107  15.212  13.319   0.467
44293W        W14108  44.776  26.111   0.416
44294W        W14109  30.626  34.589   0.316
44295W        W14110  34.880  37.342   4.799
44296W        W14111  25.633  39.991   0.432
44297W        W14112  12.154  24.530  13.530
44298W        W14113  40.023   2.732  14.819
44299W        W14114  42.355  29.629  12.031
44300W        W14115  31.979  39.000   0.790
44301W        W14116  19.556  24.147  14.893
44302W        W14117  16.803  22.507  14.894
44303W        W14118  20.596  17.183   0.402
44304W        W14119   3.732  22.145  13.847
44305W        W14120  28.164   9.314   0.831
44306W        W14121  21.187   2.333   2.219
44307W        W14122  15.305  11.624   2.182
44308W        W14123  11.733  17.118  13.016
44309W        W14124   4.905   4.424   5.224
44310W        W14125  34.894   7.319   0.423
44311W        W14126  38.557  44.860   1.240
44312W        W14127  43.966   2.355   4.716
44313W        W14128  13.115  30.446   1.400
44314W        W14129  33.878  21.259  12.078
44315W        W14130  30.935  28.975   2.820
44316W        W14131  43.961  22.050   1.358
44317W        W14132  44.432  44.818  10.476
44318W        W14133  10.210  36.531   1.305
44319W        W14134  20.217  40.848  12.437
44320W        W14135   6.323  20.191   1.881
44321W        W14136  19.115  40.343  10.532
44322W        W14137  41.322  35.990  11.592
44323W        W14138  23.095  10.146  11.965
44324W        W14139  18.077  14.627  14.425
44325W        W14140  37.463   7.911  13.525
44326W        W14141  23.559   9.854   3.274
44327W        W14142  44.881   8.806  12.929
44328W        W14143  26.981   2.298   1.287
44329W        W14144  16.189  43.332   2.237
44330W        W14145   9.169  37.483  12.868
44331W        W14146  10.679  27.947   1.755
44332W        W14147  42.364  22.602  12.383
44333W        W14148   0.803   9.284  10.416
44334W        W14149  36.938  18.104  10.604
44335W        W14150  36.065  28.004  10.638
44336W        W14151  29.151  24.554   0.940
44337W        W14152  34.386  20.184  12.909
44338W        W14153  44.778  33.434  11.931
44339W        W14154  15.584  23.215  11.010
44340W        W14155  27.034  10.256   4.696
44341W        W14156   8.302  22.110  12.929
44342W        W14157  42.791   1.802   1.401
44343W        W14158  17.608   5.341  11.400
44344W        W14159  40.394  10.781  11.097
44345W        W14160  26.162  24.601   0.383
44346W        W14161  43.368  26.075  13.361
44347W        W14162  14.147   2.848   3.215
44348W        W14163  28.601   5.322   2.897
44349W        W14164  35.518  32.623   4.644
44350W        W14165   3.261   7.874   0.820
44351W        W14166  33.926  37.411   1.303
44352W        W14167  16.612  38.851   2.713
44353W        W14168  20.262   2.810   4.693
44354W        W14169  38.524  33.389   2.357
44355W        W14170  43.992  32.394  13.062
44356W        W14171  25.167   1.479   0.805
44357W        W14172  33.108  21.652  13.859
44358W        W14173  32.460  11.623  12.899
44359W        W14174   7.398  23.084  12.068
44360W        W14175  12.621  11.274  14.799
44361W        W14176  28.119  44.926   3.292
44362W        W14177   4.922  12.789   3.271
44363W        W14178  41.990  32.438  10.892
44364W        W14179  39.026  24.980  13.445
44365W        W14180  24.078  22.237   4.776
44366W        W14181  18.691   1.424   2.225
44367W        W14182  12.755   6.716   0.362
44368W        W14183   1.891   6.240   3.147
44369W        W14184  17.077   3.852  14.308
44370W        W14185   8.812  29.625   4.195
44371W        W14186  10.301   0.771  13.941
44372W        W14187  36.504  22.078  13.903
44373W        W14188  20.157   1.464   4.264
44374W        W14189  33.096  28.656   4.146
44375W        W14190  15.688  44.403  11.047
44376W        W14191  19.622   9.710  12.420
44377W        W14192  25.564   6.336  12.373
44378W        W14193   4.339  15.314   0.939
44379W        W14194  10.170  39.938   2.332
44380W        W14195  19.613   8.769  14.980
44381W        W14196   8.165  33.542  13.345
44382W        W14197   8.720  34.581   1.353
44383W        W14198  36.587  37.996  14.023
44384W        W14199  19.597  33.505  13.383
44385W        W14200  38.495  14.830  14.284
44386W        W14201  12.221  37.567  10.434
44387W        W14202  30.522  14.697   4.778
44388W        W14203   2.769   0.376  10.633
44389W        W14204  12.809  24.042   1.883
44390W        W14205  16.108  38.330  14.826
44391W        W14206  41.465  15.126   1.429
44392W        W14207   8.783  11.369  13.340
44393W        W14208  36.078  39.953  12.950
44394W        W14209  17.723   7.182  11.586
44395W        W14210  42.933   4.211   1.930
44396W        W14211  33.008  15.773  10.998
44397W        W14212  16.208  35.876  11.126
44398W        W14213  27.632   4.285  11.946
44399W        W14214  10.240  34.377   1.387
44400W        W14215  34.996  15.233  11.515
44401W        W14216   2.356  30.932   2.189
44402W        W14217  17.572  12.231  12.454
44403W        W14218  36.421  39.023  13.949
44404W        W14219  39.856  25.547  10.588
44405W        W14220   5.798  31.008  11.070
44406W        W14221  38.485  37.383   0.443
44407W        W14222   5.240  22.644  10.418
44408W        W14223  39.929  29.476   3.262
44409W        W14224  44.466   5.753   2.692
44410W        W14225  22.733   6.428  11.445
44411W        W14226   7.857  37.410  11.531
44412W        W14227   8.238   3.405   0.942
44413W        W14228   9.194   4.234  11.397
44414W        W14229   6.747  28.560   3.194
44415W        W14230  12.122  12.662   0.458
44416W        W14231   9.310  36.046   0.390
44417W        W14232  26.525  43.318  14.974
44418W        W14233  34.946  20.256  13.843
44419W        W14234   0.846  44.860   2.284
44420W        W14235  17.070  28.084  11.885
44421W        W14236  44.771   0.291  12.470
44422W        W14237  32.614  29.027   3.749
44423W        W14238  18.113   5.359  13.393
44424W        W14239  29.023  28.123  11.034
44425W        W14240  28.182  39.490  14.360
44426W        W14241   0.878   9.308   2.705
44427W        W14242  38.370  19.216   2.843
44428W        W14243  10.259   5.424  12.492
44429W        W14244  41.978   2.312   0.370
44430W        W14245  30.597  27.618   1.842
44431W        W14246   3.227  33.098   2.264
44432W        W14247  10.718   9.274   4.656
44433W        W14248   4.213  40.524  13.376
44434W        W14249  43.012  36.980  13.003
44435W        W14250  30.568  13.351   3.639
44436W        W14251  38.381  40.974   4.202
44437W        W14252  28.651  35.958  11.570
44438W        W14253  26.136   3.226  11.994
44439W        W14254  36.447  32.980   1.909
44440W        W14255  13.190  10.198  13.922
44441W        W14256  22.634  13.786  12.832
44442W        W14257   7.902  22.505   1.910
44443W        W14258  12.229   4.896   3.718
44444W        W14259  28.134  17.258   3.819
44445W        W14260  38.399  25.048  12.024
44446W        W14261   3.324  22.217   3.755
44447W        W14262  36.539   7.408  12.823
44448W        W14263  40.321  17.254   2.771
44449W        W14264  30.472   9.384  10.467
44450W        W14265   0.281  30.154   4.301
44451W        W14266  35.059  21.230   2.209
44452W        W14267  36.409   0.287  12.487
44453W        W14268  21.152  27.482  10.990
44454W        W14269  43.886  32.416   0.406
44455W        W14270  36.993  30.098   4.710
44456W        W14271  37.943   9.793   2.751
44457W        W14272  44.893  40.001  12.011
44458W        W14273  17.694  19.192   2.690
44459W        W14274  10.828  41.354   1.451
44460W        W14275  29.661  11.311   2.189
44461W        W14276  10.267  17.190   0.933
44462W        W14277  26.164  27.600   3.768
44463W        W14278  36.436  42.810   5.170
44464W        W14279  21.101  42.823  10.998
44465W        W14280  11.860  34.561   4.198
44466W        W14281  17.626   8.350   2.839
44467W        W14282  14.231  42.433  11.611
44468W        W14283  35.890  31.140   3.276
44469W        W14284  22.529  25.589   2.717
44470W        W14285  20.585  42.875   1.423
44471W        W14286  38.416   0.880   4.623
44472W        W14287   1.960   3.754  14.997
44473W        W14288  26.467  15.202   3.788
44474W        W14289  18.609  13.719   3.709
44475W        W14290  30.974  31.137   4.337
44476W        W14291  34.977  19.272  10.545
44477W        W14292  12.628  31.488   2.244
44478W        W14293  36.901  10.790   2.352
44479W        W14294   0.407  39.910   4.120
44480W        W14295  24.108  20.738   0.316
44481W        W14296  41.299  44.371  12.894
44482W        W14297  42.932  20.768  12.911
44483W        W14298  41.884  17.225  10.480
44484W        W14299  43.928  43.312  14.808
44485W        W14300  14.314  36.408   3.236
44486W        W14301  21.041  36.944   5.094
44487W        W14302  21.576  44.005   1.450
44488W        W14303  30.984  36.387   2.348
44489W        W14304  41.301  41.428   2.778
44490W        W14305   9.250  33.067  12.980
44491W        W14306  35.601  14.617  10.555
44492W        W14307   7.673   9.767  14.348
44493W        W14308  40.861  44.390   2.412
44494W        W14309  34.495  36.887  12.446
44495W        W14310  41.970  34.891  10.068
44496W        W14311  29.960   4.857   0.334
44497W        W14312   3.853  12.823   0.416
44498W        W14313  35.566  23.639   0.896
44499W        W14314  38.997  41.404   2.790
44500W        W14315  37.084  39.528   2.863
44501W        W14316   2.759  30.654   0.831
44502W        W14317  17.157  28.951  10.931
44503W        W14318  19.655   7.298  12.855
44504W        W14319  21.135   0.956   4.820
44505W        W14320  23.671  29.980   2.180
44506W        W14321  15.124  16.212  10.419
44507W        W14322  15.089   1.277   3.863
44508W        W14323   8.710  23.675   2.743
44509W        W14324   0.275  16.162  10.470
44510W        W14325   8.855  33.923   2.273
44511W        W14326  44.833  18.624   3.207
44512W        W14327  17.719  33.987  13.475
44513W        W14328  31.622  14.814   2.897
44514W        W14329  42.481  43.813   1.928
44515W        W14330   4.210  31.129   4.804
44516W        W14331  43.852  22.108   3.860
44517W        W14332  44.773  24.629  13.340
44518W        W14333  13.815  36.429  12.963
44519W        W14334   3.954  10.316  10.977
44520W        W14335  30.469  11.805  12.477
44521W        W14336  35.474  20.273   2.699
44522W        W14337   2.263  24.115   4.652
44523W        W14338  15.817   2.293  14.339
44524W        W14339  29.019   4.284   0.888
44525W        W14340  17.172  11.303   3.208
44526W        W14341  26.471   9.384   5.223
44527W        W14342  26.181  30.979   2.890
44528W        W14343   8.838  26.132  13.338
44529W        W14344  29.518  42.956  11.999
44530W        W14345  20.708  15.167  10.444
44531W        W14346  26.650  36.416  10.932
44532W        W14347  42.939  30.051  12.576
44533W        W14348  24.166  20.566   4.122
44534W        W14349  16.141  33.604  14.349
44535W        W14350  37.453  30.474  14.275
44536W        W14351  25.637  36.418  13.434
44537W        W14352  38.972   1.803   0.840
44538W        W14353   4.864  42.031   4.759
44539W        W14354  24.705   2.828  11.942
44540W        W14355  22.159  10.139  13.010
44541W        W14356  44.350  36.402  11.602
44542W        W14357  32.547   0.758  12.345
44543W        W14358  14.228  39.919  12.976
44544W        W14359  17.224  27.092   2.738
44545W        W14360  28.993  40.526   3.306
44546W        W14361  22.053   0.464  14.296
44547W        W14362  23.636  10.211  11.580
44548W        W14363  15.822  35.032  12.887
44549W        W14364  30.542   6.368   4.740
44550W        W14365  43.485  27.079  12.414
44551W        W14366   1.741  20.592  12.855
44552W        W14367   2.963  13.844  11.887
44553W        W14368  33.438  31.630   4.791
44554W        W14369  35.094  24.002  11.492
44555W        W14370  40.931  32.481   2.417
44556W        W14371  20.641  15.280   0.357
44557W        W14372   0.968  34.426  10.024
44558W        W14373  14.742   3.310   4.816
44559W        W14374  31.955   7.865  10.452
44560W        W14375  24.090  21.048  13.889
44561W        W14376  16.296  24.495   4.268
44562W        W14377   7.831  19.238  10.482
44563W        W14378  32.106   4.870  14.366
44564W        W14379  36.083  26.056   2.832
44565W        W14380  43.817  13.831   4.640
44566W        W14381  32.984  40.886  12.041
44567W        W14382  21.702  18.768   3.277
44568W        W14383  43.418  12.248   0.902
44569W        W14384  37.453  38.052  10.568
44570W        W14385  41.913  24.700   1.295
44571W        W14386  23.717   9.381  10.528
44572W        W14387  27.980  17.274   3.265
44573W        W14388  33.528  29.121  10.496
44574W        W14389  32.496   3.776  13.322
44575W        W14390  43.798  10.728   0.301
44576W        W14391   1.272   6.297  12.494
44577W        W14392   6.805  44.911   2.290
44578W        W14393   7.359   6.420   4.279
44579W        W14394  23.565  21.619  10.619
44580W        W14395   9.731  20.161  13.492
44581W        W14396  10.165  17.741   3.265
44582W        W14397   2.433  18.577  14.274
44583W        W14398   9.799  33.571   0.945
44584W        W14399  39.957  15.602   0.755
44585W        W14400   8.229  22.526  13.863
44586W        W14401  25.698  26.521  14.759
44587W        W14402  10.641  43.444  14.962
44588W        W14403  23.992  18.132  12.041
44589W        W14404  18.285   2.416   3.720
44590W        W14405  22.732  15.681   4.288
44591W        W14406  44.845   3.405  14.761
44592W        W14407   4.879  40.961  11.393
44593W        W14408   6.417  35.594   2.214
44594W        W14409  37.379  33.124  12.470
44595W        W14410  16.165  29.072   4.765
44596W        W14411  23.032  13.806  10.888
44597W        W14412   7.280  12.831  12.902
44598W        W14413  39.858  33.423   0.817
44599W        W14414  36.422   7.775  14.301
44600W        W14415  25.084  39.994   2.327
44601W        W14416  39.924  42.492  11.528
44602W        W14417  23.724  41.909  13.462
44603W        W14418  28.444  38.008   2.360
44604W        W14419  23.094  19.708  13.366
44605W        W14420  18.221   8.244  11.574
44606W        W14421  21.122   5.401  11.534
44607W        W14422  27.022  42.026  14.301
44608W        W14423  33.998  40.004  11.416
44609W        W14424  37.986  36.092  11.967
44610W        W14425  30.105   3.880  11.407
44611W        W14426  27.487  37.898  14.839
44612W        W14427  26.507  21.207  10.494
44613W        W14428  43.395  17.165   2.726
44614W        W14429  12.143  41.445   4.319
44615W        W14430  42.941  34.484   1.438
44616W        W14431  19.645  40.805   0.423
44617W        W14432  24.082  14.317   2.368
44618W        W14433  44.921  20.234  11.442
44619W        W14434  23.652   2.731  12.492
44620W        W14435  22.523  28.649   1.767
44621W        W14436  35.872   0.803   2.778
44622W        W14437  15.132   3.741   1.866
44623W        W14438  42.812  21.262  11.945
44624W        W14439  16.791  30.069  14.498
44625W        W14440   1.409  43.515  11.922
44626W        W14441   3.714  18.774   2.336
44627W        W14442  34.930  28.584  11.038
44628W        W14443  35.911  30.939  11.085
44629W        W14444  26.142  24.023   3.247
44630W        W14445  15.241  42.299   2.765
44631W        W14446  43.842  12.119   4.828
44632W        W14447  42.987  16.102  13.525
44633W        W14448  21.618  44.824   0.245
44634W        W14449   1.772  34.899   2.267
44635W        W14450   8.385  11.195  13.947
44636W        W14451  40.016  23.531  13.825
44637W        W14452   4.823  23.101   3.366
44638W        W14453  42.341  23.176  14.333
44639W        W14454  19.661  30.422   1.833
44640W        W14455  11.624  16.734   0.954
44641W        W14456  20.625  26.138   0.844
44642W        W14457  25.472   8.780   1.451
44643W        W14458   9.887  20.646  10.627
44644W        W14459  33.106  20.054   4.186
44645W        W14460  28.661  37.419  14.491
44646W        W14461   2.936   4.211  12.529
44647W        W14462  43.514  12.238  13.791
44648W        W14463  21.127  25.039   0.792
44649W        W14464  21.655  36.063  10.499
44650W        W14465   2.782  23.712   3.849
44651W        W14466  19.780   6.216  12.526
44652W        W14467  32.938  18.121   3.824
44653W        W14468  20.556  32.616  10.432
44654W        W14469   0.952   8.662   3.819
44655W        W14470   2.775  28.035  10.476
44656W        W14471  12.649  20.607   2.755
44657W        W14472  43.303  12.285   3.297
44658W        W14473   3.237  42.408  11.514
44659W        W14474  32.637  18.237   0.304
44660W        W14475   5.780   9.368  14.480
44661W        W14476  17.613  18.657   3.263
44662W        W14477  23.121  22.726  12.378
44663W        W14478  19.696   4.931   3.798
44664W        W14479  18.255   3.831  11.451
44665W        W14480   7.846  21.198   0.827
44666W        W14481  29.523  39.546   4.777
44667W        W14482   5.718  18.050  10.449
44668W        W14483  19.575  29.171  10.617
44669W        W14484  15.314   5.695   2.760
44670W        W14485   7.719  36.539  13.020
44671W        W14486  19.541  16.319   0.368
44672W        W14487  21.216  35.854   0.740
44673W        W14488  33.614  43.430   4.753
44674W        W14489   6.881   0.885  13.544
44675W        W14490  31.017  28.000   3.818
44676W        W14491  40.052  28.011   4.278
44677W        W14492  20.170  10.351  11.582
44678W        W14493  29.446  22.552  13.492
44679W        W14494  33.971  18.061  10.472
44680W        W14495  44.377  11.275   2.260
44681W        W14496  29.455  26.139   2.328
44682W        W14497  41.407   4.419   2.857
44683W        W14498  43.888  34.079  10.461
44684W        W14499   7.678  16.575   3.373
44685W        W14500  18.229  27.090  11.534
44686W        W14501  25.523  31.906   0.427
44687W        W14502  22.518  16.759  10.153
44688W        W14503   4.420  38.518   2.280
44689W        W14504  15.191   0.373  14.894
44690W        W14505  17.119  30.546   3.290
44691W        W14506  31.092  19.227  14.771
44692W        W14507  31.645  26.065  14.420
44693W        W14508  42.374  30.610   4.304
44694W        W14509  42.849   8.312  12.485
44695W        W14510  30.918  31.486   3.370
44696W        W14511  17.138  16.660  12.521
44697W        W14512  33.587  33.509   0.317
44698W        W14513   2.420  13.603   3.179
44699W        W14514   1.855   9.786   3.228
44700W        W14515  41.426   2.380   1.355
44701W        W14516  22.168  43.823   4.630
44702W        W14517  23.106  41.848  11.988
44703W        W14518  24.065  36.923   1.350
44704W        W14519  36.440  14.663  12.947
44705W        W14520  27.194  12.296  11.400
44706W        W14521  16.612  20.724  13.529
44707W        W14522  26.665  11.717   2.683
44708W        W14523  41.862  20.766  14.468
44709W        W14524  37.879  37.562  12.352
44710W        W14525   1.287  15.288   2.419
44711W        W14526   8.202  27.072  12.834
44712W        W14527  40.982  11.263   4.304
44713W        W14528  26.180   8.856   5.237
44714W        W14529  13.232  10.830  11.967
44715W        W14530  32.444  21.659   0.270
44716W        W14531  35.598  10.289   3.732
44717W        W14532  26.979   1.409   0.884
44718W        W14533  26.206  30.541   4.814
44719W        W14534   9.806  34.604  11.399
44720W        W14535  28.176   1.968  11.093
44721W        W14536  11.237   4.445  12.976
44722W        W14537  16.737  35.022  13.938
44723W        W14538  37.016  27.097   2.195
44724W        W14539  39.431  35.499   1.895
44725W        W14540  17.262  40.347   1.218
44726W        W14541  25.702   0.950  11.950
44727W        W14542  10.191  13.208  14.930
44728W        W14543  43.318  32.617   3.240
44729W        W14544  12.834  38.533   0.777
44730W        W14545  35.476  30.565  14.817
44731W        W14546  29.980  39.052   1.398
44732W        W14547  11.647   0.410   0.962
44733W        W14548   9.150  31.572   1.352
44734W        W14549  15.641  17.589  11.460
44735W        W14550  22.644   4.270   2.181
44736W        W14551  24.110  25.698   4.730
44737W        W14552   2.402   1.375   1.895
44738W        W14553  15.176   3.883  13.510
44739W        W14554  39.920  29.999  10.900
44740W        W14555   4.225   1.441   1.752
44741W        W14556  12.211  30.612  13.938
44742W        W14557  14.722   9.275   4.790
44743W        W14558  28.931  21.678   2.333
44744W        W14559   5.363  37.833  13.889
44745W        W14560  35.391  33.997   3.178
44746W        W14561  13.823  32.418  14.018
44747W        W14562  20.122  36.580  12.432
44748W        W14563  37.487  17.191  14.493
44749W        W14564  18.201  20.029   1.898
44750W        W14565   9.825  25.182  12.041
44751W        W14566  42.000  23.538  12.578
44752W        W14567  17.091  33.428   3.207
44753W        W14568  18.571  42.377  11.912
44754W        W14569   6.376  22.543  14.323
44755W        W14570   2.307  40.970   4.245
44756W        W14571   6.377  40.001   1.915
44757W        W14572  17.751  24.076   3.748
44758W        W14573  12.300  32.909  12.882
44759W        W14574  42.362  13.763   1.753
44760W        W14575  17.178   8.732   4.323
44761W        W14576   2.369   6.795   3.210
44762W        W14577   5.735  23.690  12.374
44763W        W14578  25.141   3.330  14.954
44764W        W14579  21.695  16.234  14.443
44765W        W14580  31.612   4.384   1.210
44766W        W14581  39.021  32.888  11.961
44767W        W14582  30.972  13.666  14.013
44768W        W14583   0.360  20.581   2.190
44769W        W14584  25.578  40.816  11.882
44770W        W14585  42.457   0.379   3.261
44771W        W14586  35.458   7.887   1.335
44772W        W14587  10.186  26.065   2.394
44773W        W14588  27.100   5.330   4.154
44774W        W14589  16.163   3.461  10.423
44775W        W14590  25.114  14.690  14.413
44776W        W14591  44.881  34.993  11.601
44777W        W14592  18.764  15.729  10.061
44778W        W14593   5.198  27.077  13.977
44779W        W14594  18.612   2.903   1.297
44780W        W14595  36.864  37.378   2.664
44781W        W14596  14.798  32.471   2.299
44782W        W14597   0.835  38.523  13.832
44783W        W14598   5.724  19.043   2.416
44784W        W14599  14.782  15.196  11.005
44785W        W14600  32.582  42.354   2.340
44786W        W14601   3.819   2.252  12.867
44787W        W14602  19.044   4.923   4.691
44788W        W14603  11.312  29.151  14.994
44789W        W14604  27.100  24.510   3.194
44790W        W14605   9.212  30.424  10.415
44791W        W14606  22.576  12.159   0.326
44792W        W14607  12.282  15.189  11.536
44793W        W14608   9.774  35.108  11.525
44794W        W14609  17.625   3.888  11.584
44795W        W14610   0.797  43.383  11.546
44796W        W14611   4.836  44.336   2.812
44797W        W14612  37.377  19.153   3.175
44798W        W14613  26.660  37.074   2.863
44799W        W14614  23.143  42.797  13.962
44800W        W14615  10.283  28.632   0.813
44801W        W14616   5.347  38.065   2.776
44802W        W14617  36.492  20.670   0.411
44803W        W14618  34.519   0.817   2.327
44804W        W14619   7.359  19.591   0.881
44805W        W14620  26.158  13.322   3.789
44806W        W14621   9.744  41.372  11.581
44807W        W14622  17.151   1.817   4.208
44808W        W14623   0.348  23.736  13.470
44809W        W14624   0.821   0.978  13.887
44810W        W14625  28.082  30.572   4.214
44811W        W14626  21.170  13.178   0.483
44812W        W14627   8.243   6.839  13.448
44813W        W14628  35.558  41.898   4.303
44814W        W14629  15.143  19.638   4.683
44815W        W14630  39.485  35.536   2.887
44816W        W14631   1.745  42.858   5.189
44817W        W14632  17.628  36.857   0.955
44818W        W14633  21.658  23.600  13.034
44819W        W14634  34.931  19.755  13.307
44820W        W14635   9.792  42.893   5.195
44821W        W14636   2.875  40.444  10.491
44822W        W14637  36.886  27.630  13.966
44823W        W14638  43.504   4.939   3.208
44824W        W14639  13.815  17.717  11.588
44825W        W14640  21.234  43.768  10.562
44826W        W14641  24.024  42.400   2.337
44827W        W14642   7.674  18.289  14.419
44828W        W14643  40.418  17.110  13.984
44829W        W14644  12.787  44.460  13.434
44830W        W14645  17.071  27.138  11.483
44831W        W14646  44.454  35.442  11.070
44832W        W14647  19.165  34.904   2.246
44833W        W14648  37.870  32.071   2.281
44834W        W14649  28.525  27.165   4.121
44835W        W14650  43.767  30.092   1.738
44836W        W14651   8.209  18.283  11.997
44837W        W14652  22.106  37.565   4.623
44838W        W14653  12.703  25.201   4.686
44839W        W14654  40.420   6.705   3.210
44840W        W14655  38.077   7.212   1.270
44841W        W14656   1.306  35.010  12.837
44842W        W14657  20.560  17.064  11.927
44843W        W14658  18.633   3.822   2.729
44844W        W14659   1.405   7.201   3.251
44845W        W14660   0.776   1.322  13.485
44846W        W14661  39.549  38.930   3.724
44847W        W14662  16.677  13.135   2.886
44848W        W14663   3.265  28.057   3.777
44849W        W14664  18.289  15.781  13.364
44850W        W14665  34.403   4.861   1.241
44851W        W14666  25.606  31.974   4.289
44852W        W14667  23.519  23.573  13.791
44853W        W14668  40.818  43.289   1.837
44854W        W14669   9.665  34.078   3.238
44855W        W14670  39.501  15.266   3.356
44856W        W14671  14.135  32.629   0.263
44857W        W14672  13.704  42.403  13.538
44858W        W14673   6.733  25.583  12.574
44859W        W14674  12.135  32.444   3.747
44860W        W14675  22.616  15.629   5.320
44861W        W14676  17.652   9.390   2.743
44862W        W14677  17.291  26.988  13.038
44863W        W14678  23.618  43.302   0.460
44864W        W14679  28.489   8.668  12.856
44865W        W14680  34.989  34.916   3.777
44866W        W14681  13.736  17.286  11.603
44867W        W14682  16.149  25.637  10.600
44868W        W14683   2.280  32.951   4.778
44869W        W14684  10.161   6.341   4.127
44870W        W14685   8.887  19.251  13.981
44871W        W14686  35.045  35.867  12.947
44872W        W14687  18.684  19.738  12.384
44873W        W14688  34.557   4.238   3.238
44874W        W14689  25.523  25.116   2.210
44875W        W14690  42.406  34.549   3.209
44876W        W14691   1.774  14.822  12.909
44877W        W14692   8.900  16.141   2.415
44878W        W14693  13.715  44.389  11.986
44879W        W14694  28.482  16.093  11.570
44880W        W14695  41.796  14.770  10.049
44881W        W14696  25.468   4.295   2.237
44882W        W14697  31.932   7.906   3.245
44883W        W14698  38.363   4.842   4.608
44884W        W14699  15.618  38.529   1.868
44885W        W14700  42.020  13.836  14.951
44886W        W14701   4.810  15.760  10.411
44887W        W14702  13.130   6.794  12.341
44888W        W14703  14.108  15.782   5.136
44889W        W14704   6.247  28.477   2.830
44890W        W14705  11.311  22.545   2.769
44891W        W14706  12.228  15.742  10.543
44892W        W14707   5.237  33.617   4.288
44893W        W14708  22.633  37.394  10.945
44894W        W14709  36.053  42.341  11.126
44895W        W14710  21.032   5.375   3.671
44896W        W14711   2.885   0.922  12.431
44897W        W14712  37.377  31.538   4.243
44898W        W14713   0.790  36.530  11.404
44899W        W14714   2.252  28.500  14.824
44900W        W14715   0.475  25.188   2.294
44901W        W14716  30.556  20.716   4.675
44902W        W14717  25.190  28.118   5.320
44903W        W14718  41.377  18.289  14.866
44904W        W14719  33.552   7.372   0.854
44905W        W14720   9.829  44.761  11.987
44906W        W14721  17.266   3.853   2.759
44907W        W14722  21.590  28.120  10.985
44908W        W14723  34.500   6.836  12.494
44909W        W14724   3.894  35.921   1.221
44910W        W14725  29.638  29.563  13.438
44911W        W14726  15.161  25.622   2.258
44912W        W14727  40.050  31.421  13.980
44913W        W14728  12.687   5.723   4.307
44914W        W14729  10.830  40.960  10.615
44915W        W14730  21.155  13.641  11.970
44916W        W14731   8.698  27.152  11.926
44917W        W14732  11.717  15.252  14.761
44918W        W14733  34.604  31.081  10.642
44919W        W14734  35.928   3.792   1.766
44920W        W14735  22.239  44.411   5.147
44921W        W14736   7.669  13.225  10.583
44922W        W14737  21.520  22.217  14.871
44923W        W14738  20.529  31.508  13.522
44924W        W14739  44.348   9.274   0.920
44925W        W14740  30.911  30.987  13.429
44926W        W14741  16.669  31.011   4.714
44927W        W14742   2.291   5.402   1.705
44928W        W14743  11.708  34.368   2.806
44929W        W14744  12.719  10.218  12.448
44930W        W14745  20.077  37.069  13.329
44931W        W14746  18.772  21.028  12.360
44932W        W14747   5.244  20.089  10.478
44933W        W14748  38.480   5.218   1.414
44934W        W14749  13.121  33.460   1.398
44935W        W14750  43.450  16.282  11.449
44936W        W14751  44.484  32.473   0.282
44937W        W14752  31.444  37.063   1.899
44938W        W14753  24.979  23.598  13.005
44939W        W14754  30.140   6.853  14.383
44940W        W14755  28.956  28.510   3.280
44941W        W14756   1.863  17.784  11.427
44942W        W14757  28.459  10.853  10.050
44943W        W14758   0.848  10.671   4.348
44944W        W14759  34.614  43.988   4.807
44945W        W14760  43.780  30.482  12.529
44946W        W14761  22.508  14.782  10.433
44947W        W14762   3.909  29.157   1.399
44948W        W14763  38.451   4.399   0.803
44949W        W14764   6.399   5.876   0.912
44950W        W14765  15.610  21.597  13.537
44951W        W14766   7.245  42.289  13.509
44952W        W14767  17.069   5.836   3.832
44953W        W14768  28.126  29.046   0.789
44954W        W14769  28.004   9.672  10.430
44955W        W14770  33.122  11.805  11.463
44956W        W14771  37.931  13.657   3.695
44957W        W14772  16.790  14.674  13.952
44958W        W14773  17.775  35.860   0.389
44959W        W14774   2.769  10.336  11.081
44960W        W14775  43.860   4.206  12.026
44961W        W14776  16.692  27.531   1.830
44962W        W14777  38.997  11.831   3.850
44963W        W14778  41.001  44.441  12.903
44964W        W14779   6.219   6.344   3.796
44965W        W14780  38.073  20.594  11.500
44966W        W14781  36.351  36.971  11.550
44967W        W14782  42.834  11.310   2.851
44968W        W14783   5.696  11.287   4.771
44969W        W14784  18.269  40.474   2.874
44970W        W14785  31.592  40.842   2.200
44971W        W14786  32.529  44.804  10.414
44972W        W14787   8.380   2.869   4.244
44973W        W14788  37.880  44.395   3.716
44974W        W14789  39.942  42.909  12.401
44975W        W14790   6.685  25.560   2.288
44976W        W14791  42.484  35.005   2.231
44977W        W14792  33.016  34.492  12.544
44978W        W14793   8.309  12.130   0.294
44979W        W14794  14.802  13.137   0.907
44980W        W14795  37.892   2.285  11.909
44981W        W14796  26.963   5.821  14.991
44982W        W14797   0.856  18.059   3.161
44983W        W14798   6.861  35.454   1.930
44984W        W14799   9.177  12.629  11.426
44985W        W14800  44.911  29.119   2.875
44986W        W14801  16.569  24.508   1.387
44987W        W14802  22.998  15.800  13.936
44988W        W14803  36.042  27.097  11.966
44989W        W14804  31.904  15.704  13.062
44990W        W14805  13.221  13.647   1.815
44991W        W14806  18.563  12.222  13.882
44992W        W14807  41.983  10.664  13.426
44993W        W14808  22.557  34.466   4.287
44994W        W14809  27.690   1.775  11.374
44995W        W14810  29.578  37.371  13.399
44996W        W14811   1.939  38.925   0.928
44997W        W14812   1.883  27.165  10.608
44998W        W14813  37.371  40.430  13.364
44999W        W14814  23.198  37.339   3.630
45000W        W14815  23.020  13.171  12.042
45001W        W14816  40.020  41.412   4.778
45002W        W14817  17.184  19.243  11.522
45003W        W14818  16.810  14.593   1.761
45004W        W14819  23.177  39.373  11.919
45005W        W14820  27.183   8.395  11.002
45006W        W14821  17.065  24.993   4.736
45007W        W14822   9.794   4.280  10.642
45008W        W14823  15.651   2.917  13.864
45009W        W14824  20.652   4.706  10.465
45010W        W14825   8.350  41.788   3.772
45011W        W14826   8.199   9.648   1.446
45012W        W14827  23.117  41.409   1.414
45013W        W14828  21.200  14.315  14.386
45014W        W14829  27.572  36.911   0.812
45015W        W14830  15.323  14.271   1.800
45016W        W14831  17.639  19.231   0.874
45017W        W14832  44.911  40.932  14.845
45018W        W14833  38.044   5.324   0.475
45019W        W14834  44.873  37.341  11.466
45020W        W14835   1.483  35.052   4.664
45021W        W14836  13.735  20.654  13.528
45022W        W14837  32.081   7.378   3.715
45023W        W14838   8.692  11.796   0.427
45024W        W14839  29.498  27.566   0.863
45025W        W14840  14.176  18.198   1.768
45026W        W14841  26.207  43.504   4.783
45027W        W14842  11.284   6.876  14.428
45028W        W14843  28.615  12.733  12.510
45029W        W14844   5.325  40.431   3.865
45030W        W14845  15.612   2.844   3.732
45031W        W14846  35.463  20.742   0.335
45032W        W14847  30.121  37.448   9.920
45033W        W14848  41.488   2.240  14.433
45034W        W14849  10.814   7.682  10.501
45035W        W14850  20.740  15.666   4.347
45036W        W14851  10.339   6.371   3.182
45037W        W14852  36.966  14.768  11.047
45038W        W14853  13.670  18.260  12.507
45039W        W14854   7.171  20.209  10.409
45040W        W14855  24.204  34.927  12.887
45041W        W14856   0.868  33.424  13.511
45042W        W14857  14.639  29.034   0.941
45043W        W14858  18.717  19.542   5.092
45044W        W14859  40.463   2.415  12.579
45045W        W14860  20.612  14.656   0.284
45046W        W14861  23.030  20.543   3.790
45047W        W14862  34.606   6.862   3.260
45048W        W14863  40.914  20.112  12.389
45049W        W14864  16.612  28.594   2.283
45050W        W14865  40.955   1.777  11.038
45051W        W14866  40.497   5.200  12.009
45052W        W14867  36.972  12.121   2.836
45053W        W14868  18.121  16.095   1.742
45054W        W14869  32.054  23.699  11.962
45055W        W14870   8.206  44.400  13.467
45056W        W14871  18.100  18.272  14.391
45057W        W14872   5.903   3.400   0.728
45058W        W14873  22.594  16.609   2.858
45059W        W14874  28.642   9.234  10.581
45060W        W14875  17.222  17.710  12.825
45061W        W14876   9.307  26.576  11.118
45062W        W14877  42.316  14.134  14.765
45063W        W14878   9.700  36.505   1.908
45064W        W14879   0.464  22.699  12.528
45065W        W14880  29.582  10.666   1.785
45066W        W14881  36.052   7.836  12.902
45067W        W14882  41.347  16.303   1.880
45068W        W14883  34.950   1.865   5.239
45069W        W14884   5.724  21.701   1.447
45070W        W14885   7.909  31.507   1.798
45071W        W14886   7.810  38.876  14.368
45072W        W14887  18.075  36.587  11.596
45073W        W14888  14.213  32.551   2.277
45074W        W14889  35.882  26.111  13.468
45075W        W14890   9.782  20.271  11.996
45076W        W14891  26.577  17.134  12.854
45077W        W14892  32.112  10.662  11.409
45078W        W14893  37.918  26.970   3.212
45079W        W14894   7.861  17.195   0.400
45080W        W14895  39.999   8.857  10.081
45081W        W14896  43.871   6.406  14.371
45082W        W14897  14.784  28.104   0.746
45083W        W14898  10.350  29.467   1.914
45084W        W14899  14.796  14.145   2.183
45085W        W14900  15.281  17.105  14.500
45086W        W14901  30.963  21.017  14.952
45087W        W14902   0.785   5.715  10.506
45088W        W14903  33.876  20.648  10.423
45089W        W14904  15.290  30.051   3.293
45090W        W14905  40.834   7.271  10.946
45091W        W14906  24.720  27.463  11.601
45092W        W14907  27.647   5.195  11.420
45093W        W14908  13.153  22.676   2.897
45094W        W14909   4.263  33.606  14.890
45095W        W14910  23.613   6.713   0.428
45096W        W14911  24.557   5.786   3.386
45097W        W14912  42.879  15.770   2.801
45098W        W14913  13.774  42.523  11.067
45099W        W14914   4.889  15.818   5.289
45100W        W14915  22.091  32.956  10.446
45101W        W14916   6.753  27.143  11.103
45102W        W14917  27.983  32.985   0.321
45103W        W14918   3.757  34.107   3.741
45104W        W14919  32.951  17.770  14.507
45105W        W14920   7.803  19.156   1.372
45106W        W14921   2.913  19.715   3.174
45107W        W14922   8.186  34.393   2.203
45108W        W14923  31.635   2.425  14.282
45109W        W14924   2.405  16.697  13.028
45110W        W14925  26.058   0.810   0.930
45111W        W14926  10.255  42.949   0.281
45112W        W14927  18.082   5.795  14.275
45113W        W14928   9.297   7.207   3.274
45114W        W14929  24.542  18.077   0.911
45115W        W14930  35.949  34.072  12.524
45116W        W14931  10.722   1.755   1.751
45117W        W14932  19.612  21.155   0.930
45118W        W14933  44.326  23.042  13.879
45119W        W14934  25.486  20.137  14.787
45120W        W14935   6.680  43.402   2.844
45121W        W14936  31.082   5.808  14.457
45122W        W14937   4.934  40.434   2.217
45123W        W14938  44.879  21.050  12.935
45124W        W14939  34.048  35.369   2.338
45125W        W14940   7.732  11.761   0.798
45126W        W14941  24.086  41.968  11.075
45127W        W14942   2.940   6.859  12.365
45128W        W14943  32.577   5.227  12.491
45129W        W14944  22.213  28.609   4.247
45130W        W14945  42.327   6.702  14.378
45131W        W14946  26.585  31.556  12.054
45132W        W14947  10.733  39.369   4.686
45133W        W14948  19.605   4.389   2.344
45134W        W14949  41.948  10.656   2.377
45135W        W14950  15.614  40.054  12.488
45136W        W14951  24.618  38.865   3.310
45137W        W14952  38.394   9.802  14.486
45138W        W14953  36.911  20.261   2.227
45139W        W14954   5.307  18.721  10.993
45140W        W14955   2.759  14.126  13.887
45141W        W14956  33.591  16.768  13.478
45142W        W14957  31.096   3.955  14.027
45143W        W14958  15.799  13.811   5.268
45144W        W14959  11.805   6.239  12.423
45145W        W14960  27.192   5.252   2.768
45146W        W14961  26.047  43.832  10.966
45147W        W14962   3.927  42.797  12.937
45148W        W14963   8.181  32.447  11.394
45149W        W14964  26.091   1.881  14.764
45150W        W14965   7.377  33.078  13.335
45151W        W14966  37.950  12.810  13.478
45152W        W14967  26.999   0.311   4.343
45153W        W14968  30.472  20.082   3.829
45154W        W14969  14.237  30.082  10.581
45155W        W14970   2.897  16.606  13.971
45156W        W14971  29.144  23.492  10.564
45157W        W14972  27.687  34.438   2.715
45158W        W14973  33.465  33.924  13.448
45159W        W14974  44.281   7.356  13.520
45160W        W14975  44.363   5.830  10.592
45161W        W14976  14.726  21.634   3.377
45162W        W14977  16.589   1.400  14.287
45163W        W14978  35.512  34.898  14.953
45164W        W14979  24.653  19.190   1.827
45165W        W14980  13.762  29.062   3.821
45166W        W14981  11.763  29.425  13.317
45167W        W14982  33.016   4.752  12.354
45168W        W14983  39.416  17.574   2.818
45169W        W14984  20.629  29.142   2.883
45170W        W14985   7.703  24.632  11.049
45171W        W14986  18.556  17.092  11.062
45172W        W14987  29.107  29.096   3.170
45173W        W14988  33.928   7.358  11.125
45174W        W14989  37.963  39.513   2.391
45175W        W14990  23.224  44.270   1.758
45176W        W14991  11.133   7.248  11.893
45177W        W14992  29.946  35.383   0.391
45178W        W14993  36.495  21.162  11.596
45179W        W14994  23.991   2.804   3.269
45180W        W14995  22.641  30.439  14.387
45181W        W14996   9.252  34.021  13.906
45182W        W14997  36.416  28.506  13.959
45183W        W14998  24.192  23.006  14.987
45184W        W14999   7.703  42.781  13.813
45185W        W15000  42.934  22.688  12.862
45186W        W15001  18.267   4.328  13.981
45187W        W15002  21.564   1.238  10.000
45188W        W15003  12.164  31.456   1.427
45189W        W15004  25.134  33.560  10.975
45190W        W15005  32.504  39.414   0.958
45191W        W15006  22.055  35.469  10.465
45192W        W15007  33.580  40.923  14.919
45193W        W15008  21.567  20.655  11.098
45194W        W15009  41.848  37.573   3.797
45195W        W15010  34.401  36.521  13.393
45196W        W15011  19.188  44.397   0.728
45197W        W15012  31.137   7.884   3.683
45198W        W15013  19.700   1.973  12.463
45199W        W15014  16.075  14.817   4.605
45200W        W15015   7.721  11.866   1.727
45201W        W15016   2.393   7.814   2.753
45202W        W15017  17.292  32.061   2.800
45203W        W15018  25.582  12.659  10.603
45204W        W15019  29.432  31.129   3.145
45205W        W15020  12.712  44.415  12.415
45206W        W15021  10.165   5.824   4.191
45207W        W15022  35.036   8.257  10.548
45208W        W15023  26.081  28.581   2.252
45209W        W15024  35.997   4.843  12.352
45210W        W15025   1.430  34.027   3.737
45211W        W15026  38.529  17.120   0.480
45212W        W15027  23.649   9.279  13.315
45213W        W15028  10.370  39.542  14.908
45214W        W15029   3.738  26.581   1.246
45215W        W15030  33.890  27.512  12.880
45216W        W15031  26.078  16.706   1.796
45217W        W15032  11.814  20.730  11.533
45218W        W15033  43.896  20.728   0.464
45219W        W15034  39.992  16.167  10.594
45220W        W15035  10.822  23.232   3.157
45221W        W15036   4.800  20.713   3.663
45222W        W15037  22.231  42.790  14.367
45223W        W15038  21.034  43.002  14.963
45224W        W15039  38.859  29.109   4.348
45225W        W15040  43.774   2.365  12.453
45226W        W15041  39.434  41.894   3.266
45227W        W15042   5.844  38.902   2.318
45228W        W15043   6.693  34.073  10.469
45229W        W15044  17.675  17.666   3.203
45230W        W15045  42.369  22.590  11.039
45231W        W15046  44.324   1.470   3.637
45232W        W15047  32.923  15.736   0.254
45233W        W15048   7.882  10.343   2.335
45234W        W15049  18.167  22.033   4.805
45235W        W15050  40.464  27.487  10.944
45236W        W15051  11.791   6.689   0.289
45237W        W15052  32.622  20.126  11.005
45238W        W15053  28.155  21.694   1.263
45239W        W15054  19.543  17.786  12.836
45240W        W15055  38.894   3.383  10.971
45241W        W15056  37.554  12.719  11.428
45242W        W15057  34.560  10.366  10.088
45243W        W15058  38.329  37.915  13.322
45244W        W15059   6.758  13.180  10.635
45245W        W15060  44.442  28.985   0.780
45246W        W15061  13.185   1.755   3.218
45247W        W15062  39.418  19.068   2.298
45248W        W15063   9.269  37.983  13.383
45249W        W15064  38.470  43.382  14.313
45250W        W15065  13.345  41.989   3.784
45251W        W15066  43.269   9.858  11.047
45252W        W15067   6.692  19.277  14.291
45253W        W15068  14.315  24.125  11.464
45254W        W15069  13.304  13.631  13.988
45255W        W15070   0.409  23.623   1.360
45256W        W15071  19.701  36.039   4.698
45257W        W15072  24.693  39.500   3.381
45258W        W15073  29.049  27.986   1.243
45259W        W15074  13.710  31.932  13.059
45260W        W15075   8.406   1.468   4.336
45261W        W15076  38.928   2.346   1.934
45262W        W15077  31.619  37.518   0.795
45263W        W15078  41.486  33.116  14.471
45264W        W15079   1.803   9.239  13.397
45265W        W15080   0.937  40.303  13.491
45266W        W15081  22.204  28.047  14.945
45267W        W15082   6.895  29.495   2.789
45268W        W15083   9.222  29.150   3.861
45269W        W15084  32.032  23.140   4.206
45270W        W15085   0.346  44.275   4.264
45271W        W15086  39.967   6.782   4.838
45272W        W15087  41.823  39.413   4.215
45273W        W15088  40.911  15.190  13.910
45274W        W15089   3.753  40.547   1.896
45275W        W15090   6.791   9.804   2.667
45276W        W15091  43.789  20.236  14.919
45277W        W15092   8.319  30.531   2.720
45278W        W15093  36.497  22.011   4.155
45279W        W15094  24.036  19.760   3.819
45280W        W15095  16.173  35.373  14.960
45281W        W15096  10.853  20.251  14.850
45282W        W15097  39.948   6.258   3.211
45283W        W15098  33.557   4.349   1.352
45284W        W15099  26.483  27.675  14.815
45285W        W15100  28.493  37.457   4.756
45286W        W15101  24.974  35.908   0.444
45287W        W15102  18.058  41.818  14.479
45288W        W15103  11.127  25.005  14.381
45289W        W15104  41.294   1.745   1.304
45290W        W15105  11.205  43.951  12.988
45291W        W15106  40.397  12.176  10.955
45292W        W15107   7.756  39.451   5.306
45293W        W15108  36.873  42.283  14.429
45294W        W15109   4.802  30.991  13.350
45295W        W15110  26.129  44.430   1.247
45296W        W15111  19.103  12.337  12.356
45297W        W15112  35.413  32.060   5.142
45298W        W15113  38.482  22.081   2.760
45299W        W15114  33.007  31.959   1.364
45300W        W15115  37.426  13.710   3.760
45301W        W15116   8.331  36.361   1.827
45302W        W15117  34.981  18.673   2.868
45303W        W15118  10.382  44.981  14.902
45304W        W15119  21.698  11.144   3.374
45305W        W15120  21.594  28.545  14.794
45306W        W15121  20.265  18.596  13.930
45307W        W15122  13.232  31.523  10.472
45308W        W15123  18.293  17.615  11.480
45309W        W15124  28.993  33.399   4.342
45310W        W15125  21.209  18.137  13.376
45311W        W15126  40.370   0.793   0.784
45312W        W15127  26.541  33.986   4.684
45313W        W15128  27.519  17.296   3.689
45314W        W15129  26.010  20.611  13.329
45315W        W15130  11.828  30.018  14.335
45316W        W15131  41.415  41.466  13.480
45317W        W15132   7.863  27.655   2.251
45318W        W15133  13.289  27.633  12.070
45319W        W15134  14.603  21.145  14.834
45320W        W15135  18.265   9.183  12.909
45321W        W15136  36.432  41.486  10.048
45322W        W15137  15.761  32.985   4.193
45323W        W15138  41.899  14.202  14.998
45324W        W15139  15.812  15.315  13.506
45325W        W15140  39.521  41.393   2.760
45326W        W15141  28.135  14.292  13.025
45327W        W15142  33.104  30.469   2.669
45328W        W15143  35.942  20.131   4.664
45329W        W15144  39.322  41.835  13.347
45330W        W15145  40.533  32.450   3.318
45331W        W15146  31.615  16.248  13.885
45332W        W15147  19.747  26.587  10.587
45333W        W15148  24.492  19.172  10.898
45334W        W15149   3.408  23.714  14.800
45335W        W15150  40.021  14.734   4.696
45336W        W15151  18.682  35.894   3.819
45337W        W15152   2.426  22.065   2.290
45338W        W15153  14.239  36.069   3.728
45339W        W15154  40.868  32.025   3.195
45340W        W15155  16.598  16.767   2.317
45341W        W15156  11.748  35.369  14.978
45342W        W15157  28.620  34.100   2.839
45343W        W15158  17.239  20.118   3.765
45344W        W15159  44.817  16.225   4.142
45345W        W15160  28.442  27.106   1.702
45346W        W15161  22.501  37.051  13.459
45347W        W15162  39.815   4.347  10.559
45348W        W15163  29.461  29.535  13.942
45349W        W15164  33.982  18.755   2.774
45350W        W15165  40.814  10.282  11.113
45351W        W15166   3.408  44.272  10.511
45352W        W15167  27.585  22.250   3.701
45353W        W15168   1.825  16.773   2.690
45354W        W15169  19.088   1.451  11.568
45355W        W15170  36.878   1.466   4.297
45356W        W15171  32.912  22.580  14.011
45357W        W15172  18.083  13.645   4.273
45358W        W15173  13.806  43.928  14.319
45359W        W15174  13.616   6.321  11.416
45360W        W15175  28.089  11.728  11.479
45361W        W15176  39.993  19.180   3.355
45362W        W15177  20.258   7.731  10.892
45363W        W15178   6.854  12.228  12.063
45364W        W15179  19.075  25.578   3.151
45365W        W15180  34.512  24.098  13.948
45366W        W15181   5.327  35.432   4.116
45367W        W15182  21.699  42.944   3.266
45368W        W15183  13.160  27.593  11.105
45369W        W15184  20.705  10.809   3.754
45370W        W15185  42.928  33.099   0.836
45371W        W15186  23.685   4.364   0.781
45372W        W15187  21.078   5.802  11.447
45373W        W15188   7.785  41.899  12.534
45374W        W15189   5.215  20.063  12.425
45375W        W15190  39.959  42.972   0.367
45376W        W15191  26.118  29.073   4.608
45377W        W15192   0.823  19.608  14.305
45378W        W15193  44.394   4.779  13.484
45379W        W15194  18.165  40.426   0.788
45380W        W15195  32.514  32.625  13.806
45381W        W15196  41.855  23.031  12.829
45382W        W15197   4.840  37.360  13.940
45383W        W15198  11.240   4.305   0.963
45384W        W15199  10.791  29.924  12.051
45385W        W15200   2.884  11.189   3.829
45386W        W15201  34.440   5.753  14.979
45387W        W15202  34.960  42.406   2.764
45388W        W15203   0.431  35.399   3.700
45389W        W15204  23.628  35.885   4.649
45390W        W15205  39.058  44.424   0.262
45391W        W15206  18.766   0.862  14.853
45392W        W15207  10.333  22.998   5.202
45393W        W15208   5.349  19.228  12.851
45394W        W15209  42.798  14.259   3.254
45395W        W15210  19.264  31.074   3.798
45396W        W15211  29.158  30.917  14.474
45397W        W15212  32.565  12.725  13.884
45398W        W15213  21.201  19.634  11.861
45399W        W15214  38.560   3.944  10.639
45400W        W15215  30.928  18.112  10.606
45401W        W15216  32.445  15.271   4.197
45402W        W15217  23.659   4.851   9.988
45403W        W15218  10.707  31.902  13.815
45404W        W15219  10.861  12.202   4.750
45405W        W15220   8.220  10.799   1.861
45406W        W15221  28.175  14.808   3.797
45407W        W15222  21.248   9.342  11.014
45408W        W15223  12.201  11.835  10.520
45409W        W15224  19.101   5.928  11.863
45410W        W15225  43.473   9.758  13.546
45411W        W15226  29.523  32.029   4.737
45412W        W15227  13.696  32.073  11.541
45413W        W15228  17.750  12.139  10.519
45414W        W15229  17.238   2.799   2.730
45415W        W15230   5.198  22.132  13.445
45416W        W15231  29.940  38.074   3.291
45417W        W15232  15.634  40.358  10.552
45418W        W15233  21.264  29.084  12.837
45419W        W15234  13.677  32.137   5.250
45420W        W15235  36.380  41.897   4.311
45421W        W15236   0.333   9.835   3.719
45422W        W15237   6.352  11.658  10.953
45423W        W15238   0.800  43.867  10.117
45424W        W15239  39.484  13.640  12.351
45425W        W15240  28.077   5.325   1.733
45426W        W15241  17.603   1.321  11.941
45427W        W15242   1.258  17.186  14.903
45428W        W15243  11.839  15.679  10.983
45429W        W15244  21.706  27.039  12.989
45430W        W15245   0.413   1.953  10.407
45431W        W15246  27.606  10.676  12.419
45432W        W15247  36.882  41.490   2.322
45433W        W15248  11.762  37.437   4.735
45434W        W15249   7.765  19.049  13.392
45435W        W15250  17.191  44.806   0.278
45436W        W15251  29.494  18.693  11.510
45437W        W15252  17.071  29.513  12.490
45438W        W15253   0.986  27.521   1.349
45439W        W15254  25.166   7.216  11.481
45440W        W15255  43.479  17.261   3.153
45441W        W15256  42.999  16.102   2.250
45442W        W15257  40.462  16.646   3.261
45443W        W15258  34.069  39.368  13.326
45444W        W15259  26.638   0.793  11.009
45445W        W15260  38.391  13.812  12.930
45446W        W15261   2.819   6.275  12.880
45447W        W15262  43.375  24.644   4.260
45448W        W15263  12.710  40.481   2.363
45449W        W15264   7.365   7.266   0.462
45450W        W15265  12.285  22.107   2.230
45451W        W15266   4.321  33.092   0.770
45452W        W15267  27.027   9.874  14.911
45453W        W15268  15.583  26.019  13.848
45454W        W15269  18.744   1.402   0.772
45455W        W15270  25.619  11.643   0.358
45456W        W15271  19.078  11.792  13.875
45457W        W15272  38.477  33.407  13.377
45458W        W15273  27.448  22.067   1.223
45459W        W15274  25.654  29.443  11.453
45460W        W15275   2.808   7.726  14.929
45461W        W15276  26.538   5.300   0.277
45462W        W15277  20.542  27.130   1.444
45463W        W15278  26.059  22.559   3.222
45464W        W15279  35.422  14.194   1.803
45465W        W15280  39.003  15.766  11.903
45466W        W15281  19.170  23.052   1.430
45467W        W15282   1.826  44.975  12.872
45468W        W15283   7.320   0.926   1.773
45469W        W15284  17.771  17.672  14.390
45470W        W15285  40.408  12.854   2.705
45471W        W15286  13.187   3.396  11.897
45472W        W15287  26.042  42.308   2.842
45473W        W15288  37.414  37.431   1.799
45474W        W15289  35.552  37.420  11.445
45475W        W15290  27.641  14.737   3.320
45476W        W15291  35.089  24.991  13.499
45477W        W15292  21.030  15.101  14.945
45478W        W15293  18.678  31.003   3.710
45479W        W15294  27.522  32.022   3.352
45480W        W15295   3.932  20.736  12.943
45481W        W15296  18.137  26.175   3.245
45482W        W15297  21.202  35.013   1.254
45483W        W15298  37.937  29.559   3.367
45484W        W15299  40.339  36.447  12.937
45485W        W15300  13.323  43.464   3.187
45486W        W15301  27.996   1.474  13.004
45487W        W15302  43.963  26.598  14.295
45488W        W15303  22.601   6.188  10.531
45489W        W15304  36.584   0.817  10.565
45490W        W15305  14.739  14.619  11.468
45491W        W15306  27.147  35.972  12.096
45492W        W15307   1.766   5.358   0.904
45493W        W15308  10.640  23.641   4.246
45494W        W15309  11.672  28.965   4.771
45495W        W15310  42.812  43.464  11.056
45496W        W15311  39.011  25.196   0.288
45497W        W15312   8.875   8.674   1.353
45498W        W15313  37.978   6.232  14.871
45499W        W15314  28.985  30.103  13.806
45500W        W15315  22.023  36.067  14.470
45501W        W15316  25.171  13.157  11.056
45502W        W15317  35.084  35.099   4.615
45503W        W15318  17.620  19.227  11.997
45504W        W15319  35.446   0.467   0.256
45505W        W15320  35.442  38.996  13.346
45506W        W15321  42.348  24.037   1.403
45507W        W15322   3.239   7.901   2.240
45508W        W15323  27.684  12.181   3.856
45509W        W15324   7.253  41.005  10.078
45510W        W15325  22.150  43.372   1.772
45511W        W15326   7.341   8.283  13.019
45512W        W15327  15.695  44.963   3.803
45513W        W15328  11.289  29.152   1.241
45514W        W15329  23.081  27.184   4.806
45515W        W15330  40.353   9.863   4.281
45516W        W15331  30.954  41.377   9.961
45517W        W15332  30.146  28.451  11.540
45518W        W15333  33.123   2.748  11.891
45519W        W15334  12.795  19.115   9.487
45520W        W15335   0.298  32.491   2.227
45521W        W15336   6.268  35.094   0.853
45522W        W15337  31.582  24.021   1.858
45523W        W15338  21.748  15.636   4.709
45524W        W15339  36.549  29.563  11.529
45525W        W15340  39.981  32.119  14.943
45526W        W15341   7.395  29.983  12.494
45527W        W15342  42.488  44.931   4.700
45528W        W15343  37.976  34.518   4.188
45529W        W15344  35.076  33.596  13.934
45530W        W15345  43.425  40.943  12.039
45531W        W15346   8.389  42.859  13.522
45532W        W15347  32.911  35.972  14.930
45533W        W15348  19.070  20.620  13.875
45534W        W15349  29.462  29.086  12.091
45535W        W15350  21.017  24.128   5.278
45536W        W15351  13.819  42.977   0.897
45537W        W15352  15.779  20.230   1.746
45538W        W15353   7.722  12.801  10.068
45539W        W15354   6.822  37.569  14.952
45540W        W15355  29.167  10.233   1.931
45541W        W15356  24.499  20.755   4.198
45542W        W15357  22.109  40.389  10.496
45543W        W15358  36.066  34.433   2.298
45544W        W15359   8.162   2.367  13.317
45545W        W15360  15.796  22.240  12.893
45546W        W15361  23.597  37.957  10.093
45547W        W15362   3.846  23.567  11.902
45548W        W15363  19.739  44.281  10.544
45549W        W15364  38.503  13.615  14.007
45550W        W15365  27.036  32.462  12.541
45551W        W15366  19.674   9.162   1.701
45552W        W15367  26.180  10.175   1.900
45553W        W15368  34.581  39.855   3.772
45554W        W15369   8.268  21.660   3.665
45555W        W15370  39.350  37.371  13.798
45556W        W15371  32.971  32.500  11.506
45557W        W15372  24.617  20.252  11.042
45558W        W15373  26.207  12.784   3.774
45559W        W15374  15.661  29.554  13.059
45560W        W15375  33.937  27.570   3.768
45561W        W15376   3.228  32.572   0.358
45562W        W15377  35.907  39.495   3.192
45563W        W15378  36.386   9.274  13.987
45564W        W15379  23.729  24.695  11.417
45565W        W15380  11.139  17.753  12.542
45566W        W15381  17.101  36.384   1.214
45567W        W15382   4.440  25.103   1.723
45568W        W15383  29.022  35.451   1.232
45569W        W15384  35.536  15.100   3.759
45570W        W15385  31.527  31.099   4.634
45571W        W15386   2.720   5.213   3.696
45572W        W15387   2.472  39.846  11.424
45573W        W15388  23.196  44.494  13.460
45574W        W15389   5.352  17.600   2.825
45575W        W15390  24.038   5.375   0.359
45576W        W15391  36.431  41.002   0.351
45577W        W15392  44.944  17.630  14.501
45578W        W15393  34.876  33.503   0.412
45579W        W15394  43.949  23.017  10.424
45580W        W15395  41.538  29.649   1.391
45581W        W15396  41.531  37.496  12.439
45582W        W15397  30.616  38.067  11.933
45583W        W15398  27.156  26.686   3.679
45584W        W15399   1.309  14.810   0.896
45585W        W15400  33.600   8.881  12.002
45586W        W15401  26.197  32.909  12.012
45587W        W15402   8.701  34.458   1.754
45588W        W15403  37.376  12.854   1.871
45589W        W15404  30.478   7.850   3.200
45590W        W15405  26.156  21.241  13.836
45591W        W15406  14.604  41.318  13.315
45592W        W15407  24.049  19.229  14.936
45593W        W15408  38.825  36.485   1.713
45594W        W15409  18.073  16.785   2.238
45595W        W15410  30.081  39.005   2.793
45596W        W15411  28.673  31.898   2.327
45597W        W15412   8.386  12.255   4.803
45598W        W15413   5.758  20.214  12.471
45599W        W15414   6.287  23.699   5.220
45600W        W15415  31.634  22.091  11.446
45601W        W15416  32.055   3.835  12.928
45602W        W15417  39.359  26.564   2.182
45603W        W15418  42.382  22.653   4.680
45604W        W15419  31.139  25.996   1.262
45605W        W15420  22.739  41.446   4.779
45606W        W15421  34.400  25.103  14.924
45607W        W15422  11.848  28.981   0.407
45608W        W15423  19.146  44.851  13.796
45609W        W15424  29.085  15.577  13.992
45610W        W15425  33.128  20.054   1.799
45611W        W15426  12.731   1.845  11.372
45612W        W15427  15.238  39.394   2.670
45613W        W15428  24.618  16.694  13.535
45614W        W15429  17.594  29.106  13.943
45615W        W15430  17.302  12.755   5.296
45616W        W15431  15.094  10.329  10.948
45617W        W15432  29.072  41.906  14.412
45618W        W15433  28.534  10.302  13.946
45619W        W15434  22.663   7.219   1.281
45620W        W15435  41.377  10.340   3.744
45621W        W15436   8.832   2.382  12.513
45622W        W15437  30.439  29.595  11.880
45623W        W15438  18.256   2.767  14.941
45624W        W15439  29.038   2.436  13.827
45625W        W15440  13.254  10.367   2.265
45626W        W15441   6.881  42.447  14.327
45627W        W15442   3.903  32.939   2.246
45628W        W15443  13.730  13.665   4.231
45629W        W15444   2.434  40.054  12.463
45630W        W15445  14.675  34.393  12.500
45631W        W15446  44.481  19.166   0.270
45632W        W15447  22.558  22.555  12.854
45633W        W15448  19.685  37.031   4.699
45634W        W15449   5.794  40.353   0.851
45635W        W15450  41.317   8.840  11.045
45636W        W15451   9.379   0.389   3.240
45637W        W15452  35.020  26.590   3.373
45638W        W15453  42.922  30.044   3.198
45639W        W15454  29.044  42.512   3.721
45640W        W15455   8.711  12.216   4.631
45641W        W15456  11.740   8.204  14.768
45642W        W15457  27.003  44.338  11.444
45643W        W15458   0.307   7.911   2.803
45644W        W15459   9.728  17.286  13.484
45645W        W15460  23.703  39.951   4.752
45646W        W15461  13.790   1.733   4.302
45647W        W15462  26.194   7.858  14.775
45648W        W15463  16.299  37.944   4.329
45649W        W15464  31.519  38.387  13.892
45650W        W15465  34.529  32.595  11.416
45651W        W15466  25.045  26.126   1.390
45652W        W15467  34.590  31.015   0.855
45653W        W15468  18.684  24.702  12.473
45654W        W15469   0.759  44.403  10.144
45655W        W15470  41.528   9.184  11.593
45656W        W15471  34.962   5.819   1.211
45657W        W15472   6.201  22.710   2.181
45658W        W15473  14.588  37.015  13.040
45659W        W15474  27.585  36.954  13.443
45660W        W15475  36.903  31.153   1.308
45661W        W15476  19.187  17.187  11.096
45662W        W15477  29.074  26.462   2.266
45663W        W15478  40.377  21.164   4.641
45664W        W15479  34.109  13.670  12.998
45665W        W15480  38.369  15.092   4.628
45666W        W15481  30.129  32.492  10.451
45667W        W15482  30.000  38.912  12.548
45668W        W15483  35.452  31.544  12.060
45669W        W15484   5.237  40.386   1.702
45670W        W15485  32.105  19.195   4.350
45671W        W15486  26.012   9.845  13.489
45672W        W15487  29.125  35.467   2.708
45673W        W15488   1.452  12.751   0.730
45674W        W15489  10.860  26.680   0.890
45675W        W15490  20.558  20.579   2.359
45676W        W15491  44.348  13.715   4.687
45677W        W15492   1.423  27.611  14.433
45678W        W15493  11.254  40.541   2.806
45679W        W15494  38.866  33.526  13.830
45680W        W15495  17.094  40.866  13.907
45681W        W15496  35.916   9.343   5.089
45682W        W15497  17.107  12.135  11.515
45683W        W15498  11.815   1.390  10.969
45684W        W15499  17.146  41.438  11.959
45685W        W15500   1.356  34.543   1.781
45686W        W15501  32.526   5.735   2.763
45687W        W15502  19.106  27.952  14.800
45688W        W15503  27.014  42.880  12.911
45689W        W15504  39.849  15.114  13.461
45690W        W15505  17.125  27.116   3.221
45691W        W15506   1.432  11.744   1.320
45692W        W15507   3.841  33.491  10.101
45693W        W15508  30.437  13.124   2.760
45694W        W15509  13.152  39.335  13.044
45695W        W15510  10.267  43.325  13.470
45696W        W15511  41.911   9.323   1.797
45697W        W15512  33.061  35.057   0.273
45698W        W15513  27.595  43.785   2.208
45699W        W15514  23.032   3.951   0.440
45700W        W15515  37.942   3.741   0.252
45701W        W15516  31.988  13.159  14.955
45702W        W15517  29.144  26.693  13.047
45703W        W15518   3.314  15.272  11.578
45704W        W15519  35.032  44.941   3.247
45705W        W15520  13.671  15.324  10.471
45706W        W15521   2.835  24.507   3.820
45707W        W15522  24.185  31.066   2.691
45708W        W15523  42.311  16.740   0.798
45709W        W15524  31.410  28.531   3.369
45710W        W15525  14.739  44.776  12.476
45711W        W15526   2.447   1.856   5.205
45712W        W15527  34.581  40.544  14.297
45713W        W15528   6.720   1.746  11.976
45714W        W15529  35.870   3.877  12.550
45715W        W15530   6.715  19.122  13.964
45716W        W15531  11.867   3.285   5.220
45717W        W15532  31.483  14.145   0.745
45718W        W15533  40.022   4.836   1.902
45719W        W15534   6.196  21.652  11.008
45720W        W15535  31.517  11.222   0.839
45721W        W15536  14.814  10.266   4.283
45722W        W15537  35.602   2.836   3.839
45723W        W15538  34.496  34.011   0.384
45724W        W15539  14.328  37.067   0.444
45725W        W15540  25.591  36.368   4.182
45726W        W15541  23.662   2.321  14.358
45727W        W15542  14.206  41.016  14.303
45728W        W15543   5.340  36.064   3.715
45729W        W15544  41.495  41.437   1.897
45730W        W15545   3.331  30.590   0.947
45731W        W15546  30.488   7.340   4.676
45732W        W15547  12.246  25.006   3.820
45733W        W15548  11.179  31.627   2.302
45734W        W15549  44.906  14.731  11.542
45735W        W15550  15.177  14.634  13.415
45736W        W15551   2.884  40.868   0.421
45737W        W15552  19.202  24.568   4.155
45738W        W15553  20.184   7.861  12.409
45739W        W15554   5.253  13.838   1.254
45740W        W15555  26.461  44.271  14.933
45741W        W15556   3.749  24.578  11.079
45742W        W15557  33.535   5.237  10.929
45743W        W15558  37.368  24.698  12.512
45744W        W15559  11.214  39.045   2.789
45745W        W15560  19.204   0.344  14.376
45746W        W15561   2.720  15.318  12.067
45747W        W15562  26.689  23.518  13.017
45748W        W15563  42.358  37.872  12.576
45749W        W15564   5.787  29.007   4.675
45750W        W15565   0.843  28.509  10.889
45751W        W15566   3.749   1.276   1.413
45752W        W15567  21.680  15.702  13.958
45753W        W15568  39.887   6.418  10.974
45754W        W15569  44.918  11.195   2.848
45755W        W15570  24.131  39.962  14.368
45756W        W15571  24.574  20.615  14.421
45757W        W15572  18.290   0.905  10.981
45758W        W15573   5.233  38.392   1.749
45759W        W15574  23.055  13.236  13.974
45760W        W15575   1.816  33.889   1.431
45761W        W15576  15.128  20.040   0.877
45762W        W15577  42.938  27.188   4.146
45763W        W15578   2.253  32.103   1.781
45764W        W15579  12.341  11.743   3.689
45765W        W15580  16.273  31.505  13.484
45766W        W15581  14.268  41.371   2.792
45767W        W15582  23.603  10.848  12.440
45768W        W15583  21.689  15.182  10.488
45769W        W15584  39.395  34.018  11.902
45770W        W15585  27.616  11.145  10.105
45771W        W15586  25.086  20.609   0.845
45772W        W15587  14.730   0.929   4.311
45773W        W15588   9.797  41.507   0.782
45774W        W15589  11.260  44.415   2.713
45775W        W15590  14.612  10.848  11.091
45776W        W15591  29.521  15.760  14.997
45777W        W15592  15.772  23.721  11.886
45778W        W15593  41.952  13.165   5.319
45779W        W15594   1.253  40.829  12.823
45780W        W15595  27.653   9.224   0.763
45781W        W15596  44.923  33.380   4.740
45782W        W15597  23.558   4.773   3.688
45783W        W15598  35.458  15.668  12.957
45784W        W15599  25.104   7.205   0.791
45785W        W15600   5.418  22.685   2.715
45786W        W15601  34.502  27.119   4.225
45787W        W15602   4.758  42.867  14.385
45788W        W15603  34.409  18.071   1.895
45789W        W15604  39.397  25.588  11.387
45790W        W15605  11.701   4.738   4.777
45791W        W15606  26.501  35.067   3.854
45792W        W15607   3.757  40.509   4.206
45793W        W15608  18.146  32.981   3.185
45794W        W15609  11.332  28.538  13.358
45795W        W15610  11.726  25.649  13.962
45796W        W15611   7.765  15.763   5.294
45797W        W15612  36.544   3.768  13.437
45798W        W15613   2.340  25.022   5.102
45799W        W15614  10.147  11.182  14.784
45800W        W15615  17.100  32.064   1.399
45801W        W15616  13.178   1.483   0.750
45802W        W15617   3.897  11.246  11.414
45803W        W15618  36.570  27.587   1.751
45804W        W15619  12.720  13.181   2.751
45805W        W15620  17.247  37.868   3.674
45806W        W15621  12.611  32.582   4.676
45807W        W15622   2.359  12.740   0.480
45808W        W15623  15.099  26.472   4.270
45809W        W15624  20.028  42.853  12.483
45810W        W15625  31.518   0.854   1.394
45811W        W15626  11.787  37.366  10.411
45812W        W15627  44.004   4.815  12.361
45813W        W15628  18.741  30.608   2.372
45814W        W15629   0.803  15.744   9.929
45815W        W15630  42.292  35.482   1.698
45816W        W15631   4.357   0.376  13.000
45817W        W15632  27.449  43.350  10.484
45818W        W15633  11.716  42.473   4.723
45819W        W15634  34.059  27.689   2.678
45820W        W15635  29.477  26.995   0.407
45821W        W15636   0.982  26.580  14.500
45822W        W15637  42.393  12.637  14.489
45823W        W15638   6.206   4.401  14.919
45824W        W15639  19.559  35.414   0.943
45825W        W15640  26.075  22.149  13.804
45826W        W15641   6.730  39.925   4.797
45827W        W15642  42.315   2.312   3.192
45828W        W15643  42.291  35.378  12.832
45829W        W15644  38.848  44.929   1.788
45830W        W15645  29.570  42.475  14.403
45831W        W15646  11.777  25.043  12.978
45832W        W15647  21.744  19.170   1.373
45833W        W15648   8.331  29.001  14.345
45834W        W15649   1.947   2.804   2.699
45835W        W15650  28.458   2.813   4.627
45836W        W15651  29.968  28.985   2.724
45837W        W15652  33.454  38.918   2.739
45838W        W15653  11.832  26.675  11.384
45839W        W15654   0.306  31.899   2.302
45840W        W15655   7.738   8.881  13.052
45841W        W15656   0.339  15.679   0.735
45842W        W15657  25.521   8.826   0.469
45843W        W15658  36.517  36.079  13.438
45844W        W15659  16.773   5.373  12.925
45845W        W15660   4.886  20.103  13.490
45846W        W15661  15.261  31.570  14.992
45847W        W15662  33.438  23.629  12.354
45848W        W15663  28.084  36.043   0.836
45849W        W15664  40.472   8.314   5.120
45850W        W15665  18.279  16.310  11.572
45851W        W15666  17.062  16.089   0.803
45852W        W15667  38.338  23.081   3.778
45853W        W15668  25.576  33.605  10.916
45854W        W15669  17.798  35.528  14.514
45855W        W15670  16.690  13.752   0.728
45856W        W15671  33.976  35.439  10.586
45857W        W15672  30.972  16.772  10.959
45858W        W15673   0.331  33.096   1.337
45859W        W15674  35.472  18.729   0.770
45860W        W15675  41.893  38.528  12.007
45861W        W15676   2.881  25.097   2.368
45862W        W15677  29.518  29.963   0.417
45863W        W15678  41.870  31.004   1.733
45864W        W15679  36.990  18.595  11.429
45865W        W15680  43.773  14.151   1.218
45866W        W15681  40.999   4.269   3.166
45867W        W15682  24.974   2.811   1.909
45868W        W15683   4.333  35.041   4.147
45869W        W15684  39.456  43.291   4.258
45870W        W15685  34.592  44.439   4.214
45871W        W15686  12.782  19.043   1.228
45872W        W15687  24.518  29.562   2.729
45873W        W15688  12.242   4.724  13.475
45874W        W15689  21.663  35.396  12.961
45875W        W15690  29.610  43.329  12.430
45876W        W15691  28.036  29.994   0.395
45877W        W15692   1.769  18.609   4.307
45878W        W15693  27.962  39.540   0.280
45879W        W15694  37.415  30.639  13.342
45880W        W15695   8.225  35.500   2.758
45881W        W15696  34.609  26.960   4.640
45882W        W15697   6.765   6.380   1.728
45883W        W15698  34.957  13.144   4.782
45884W        W15699  29.531  41.312   2.727
45885W        W15700   9.160  10.712   4.298
45886W        W15701   1.457  19.243  11.386
45887W        W15702  15.237  16.268   0.875
45888W        W15703   6.196  15.301  13.442
45889W        W15704  36.866  39.349  13.483
45890W        W15705  42.910  10.868  13.027
45891W        W15706   6.899   4.857   1.359
45892W        W15707  15.619  10.752   0.380
45893W        W15708  42.954  27.522   2.807
45894W        W15709  44.004  33.048   3.753
45895W        W15710  24.530  29.088  12.387
45896W        W15711  17.747  43.931   3.282
45897W        W15712  22.236   4.765  11.070
45898W        W15713  22.691   2.400   4.667
45899W        W15714  40.035  37.083  12.846
45900W        W15715  25.471   6.871  10.505
45901W        W15716  16.740  20.663   2.762
45902W        W15717  35.590  17.793  13.031
45903W        W15718  27.447  16.237  11.969
45904W        W15719  13.138   5.375   1.347
45905W        W15720  25.492  18.776  14.023
45906W        W15721   2.444   5.696  11.941
45907W        W15722  42.454   6.755  12.939
45908W        W15723  26.040  32.100  12.091
45909W        W15724   2.410  37.453   2.371
45910W        W15725  40.351  22.214  11.121
45911W        W15726  24.133  44.918   0.464
45912W        W15727   6.742  17.140   1.908
45913W        W15728  25.671  43.484   0.354
45914W        W15729  12.160  15.158   1.699
45915W        W15730   1.737   1.409   4.684
45916W        W15731   9.166   0.881   0.858
45917W        W15732  11.686   8.180  13.865
45918W        W15733   6.763  13.340   2.853
45919W        W15734  34.496  15.585  13.405
45920W        W15735  20.561  43.390  10.636
45921W        W15736   9.788  26.478  14.994
45922W        W15737  20.048  32.632  13.056
45923W        W15738  22.668  12.762  10.550
45924W        W15739   2.428   3.845   0.955
45925W        W15740  10.307   6.897  10.593
45926W        W15741  36.439  26.086  11.602
45927W        W15742  42.302  37.490  12.378
45928W        W15743   1.898  23.711  13.839
45929W        W15744  36.978  31.505   2.292
45930W        W15745  35.441   0.883  10.593
45931W        W15746  24.633  11.196  14.422
45932W        W15747  20.577   4.847   1.399
45933W        W15748  32.036  22.247  10.562
45934W        W15749  34.898  37.870  14.930
45935W        W15750  34.036  14.265  12.986
45936W        W15751   0.828  40.430  14.900
45937W        W15752   5.410  17.262  12.875
45938W        W15753  27.661  33.963   0.773
45939W        W15754  21.707  42.310   0.344
45940W        W15755   6.791  13.748  14.923
45941W        W15756  42.322   7.328  12.482
45942W        W15757  18.147  41.012   3.787
45943W        W15758  19.600  44.337   3.237
45944W        W15759  15.293  34.936  13.435
45945W        W15760  32.493   9.367  13.316
45946W        W15761   8.344  22.718   3.726
45947W        W15762  18.217   5.363  11.900
45948W        W15763  44.474  30.126   1.288
45949W        W15764  40.932  30.616   1.732
45950W        W15765  27.062  36.452  11.535
45951W        W15766  11.357  10.703  12.379
45952W        W15767  38.357  26.089   4.249
45953W        W15768  30.970  11.145  10.638
45954W        W15769  22.195  29.929  13.534
45955W        W15770  20.259  25.026   2.769
45956W        W15771  38.521   9.874  11.052
45957W        W15772  29.964  44.963  11.056
45958W        W15773   9.283  19.161   0.296
45959W        W15774  13.212  25.610  11.508
45960W        W15775  15.194  24.719   4.624
45961W        W15776  42.819  44.915   4.686
45962W        W15777   4.778   1.334   0.468
45963W        W15778   0.871  40.313   1.360
45964W        W15779  27.078  30.068   2.390
45965W        W15780  36.388  35.519   2.868
45966W        W15781   2.284  25.550  10.428
45967W        W15782   3.353  18.774  11.430
45968W        W15783   0.768   3.332  11.949
45969W        W15784  20.576  20.659   1.336
45970W        W15785  14.827  32.051   9.978
45971W        W15786   5.857   1.933   3.784
45972W        W15787   4.429   0.353   2.389
45973W        W15788  35.460  34.492   3.349
45974W        W15789  27.986  11.851  12.024
45975W        W15790  39.357  15.645   2.849
45976W        W15791  31.127   8.795  14.845
45977W        W15792   1.922  36.973   4.353
45978W        W15793  19.062  42.786  14.468
45979W        W15794  43.809  25.190   1.763
45980W        W15795  21.621  26.465   4.726
45981W        W15796   2.300  40.522   3.685
45982W        W15797  32.027  12.773   4.145
45983W        W15798  37.833  32.895  14.328
45984W        W15799   6.245  18.088   4.159
45985W        W15800  33.966  15.749   5.103
45986W        W15801  26.162  15.592  14.505
45987W        W15802  40.524  44.931  11.090
45988W        W15803  37.434  32.484   1.237
45989W        W15804  29.561  39.314   0.353
45990W        W15805   0.891  19.055   2.782
45991W        W15806  33.874  33.583   1.875
45992W        W15807  12.169  27.183  10.571
45993W        W15808  27.153  10.356   4.154
45994W        W15809  26.657   8.675  11.065
45995W        W15810  29.664  29.004  14.005
45996W        W15811  44.973  27.481  14.291
45997W        W15812  43.821  29.461   3.710
45998W        W15813  23.118   9.338  11.122
45999W        W15814  35.003  20.549   3.792
46000W        W15815  33.386  38.437  12.082
46001W        W15816  43.782  19.108   3.739
46002W        W15817  31.977  29.466  10.587
46003W        W15818  36.568  38.824   1.262
46004W        W15819  34.888   1.289   1.273
46005W        W15820  21.059  16.211   1.436
46006W        W15821   9.339  22.555  11.029
46007W        W15822   2.233  29.565   9.970
46008W        W15823  27.982  26.105  13.468
46009W        W15824  15.162  30.036   4.163
46010W        W15825  13.651  40.898   4.732
46011W        W15826   3.795  30.935  10.918
46012W        W15827  23.723  16.208  13.886
46013W        W15828  12.846  28.122  12.912
46014W        W15829  42.446   1.309   1.436
46015W        W15830  22.232  37.894   4.175
46016W        W15831  12.702  43.329   0.775
46017W        W15832  14.827  19.714   1.297
46018W        W15833  30.594   8.405  11.548
46019W        W15834   7.227  44.349  13.871
46020W        W15835  25.545  39.959   3.749
46021W        W15836  39.816   2.279  12.463
46022W        W15837  30.528  43.457   4.805
46023W        W15838  29.558  39.355   1.402
46024W        W15839  35.926  14.261  13.881
46025W        W15840   9.815  30.489   1.699
46026W        W15841  18.245   1.948   1.227
46027W        W15842  35.890  31.997  11.966
46028W        W15843   0.445  31.424   0.955
46029W        W15844  31.983   2.939   3.249
46030W        W15845   4.779   1.905  14.311
46031W        W15846   9.242  22.069   3.187
46032W        W15847  41.792  25.678   4.766
46033W        W15848   9.651  29.006   4.662
46034W        W15849  24.505   8.261  12.560
46035W        W15850  37.419  10.223   4.196
46036W        W15851   1.751  44.293  12.882
46037W        W15852  12.276   7.260   0.452
46038W        W15853  24.222   1.317   2.828
46039W        W15854  24.148  29.989  12.536
46040W        W15855   7.251  31.952  10.554
46041W        W15856  20.212   8.347   4.645
46042W        W15857  19.572  44.261   4.750
46043W        W15858   4.227  17.609  13.033
46044W        W15859  28.964  23.524  13.846
46045W        W15860   9.235  22.015  12.961
46046W        W15861   0.842  12.834  14.440
46047W        W15862  34.924  15.719   5.094
46048W        W15863   9.835  13.325  12.493
46049W        W15864  20.542  31.956  12.055
46050W        W15865  12.712  41.393   4.637
46051W        W15866  29.997   6.681  13.895
46052W        W15867   9.855  28.491  13.881
46053W        W15868   2.898  14.782   0.941
46054W        W15869  40.439   3.722   1.238
46055W        W15870  19.075  20.647  13.372
46056W        W15871  15.816  35.572   3.721
46057W        W15872  12.673  25.965   0.438
46058W        W15873  14.830  25.682  13.462
46059W        W15874  23.987   1.795  13.879
46060W        W15875  39.453  14.617  14.977
46061W        W15876  14.746   6.388  12.837
46062W        W15877  27.100   9.346  14.311
46063W        W15878  34.044   4.266  14.364
46064W        W15879  14.741  29.099  14.368
46065W        W15880  27.017  44.944   4.117
46066W        W15881  26.107  13.117   1.303
46067W        W15882   5.693  21.238  14.316
46068W        W15883   6.345  17.208  14.950
46069W        W15884  37.457   9.366   0.429
46070W        W15885   1.884  13.635  12.501
46071W        W15886   4.920  19.103   2.722
46072W        W15887  44.908  11.846   2.704
46073W        W15888  11.739  32.393   4.803
46074W        W15889   3.323  43.473  12.847
46075W        W15890  30.054  28.082  12.912
46076W        W15891  14.727  18.669  13.315
46077W        W15892  29.556  30.124   4.768
46078W        W15893   2.849  12.754  13.524
46079W        W15894   8.819  12.165   4.323
46080W        W15895  38.930   2.923  12.571
46081W        W15896   6.242  38.000  12.958
46082W        W15897  22.209  29.045   1.737
46083W        W15898   6.772  16.760  11.466
46084W        W15899   3.932  38.898  13.924
46085W        W15900  11.200  32.491   2.831
46086W        W15901  36.874  39.948   0.318
46087W        W15902   4.226  32.131  10.113
46088W        W15903   9.696  43.960  10.409
46089W        W15904  36.406   5.713   4.305
46090W        W15905  14.733   2.329   0.752
46091W        W15906  39.332  23.715  11.957
46092W        W15907  33.913   7.729  12.875
46093W        W15908  43.401   4.372   3.191
46094W        W15909  25.588  13.722   2.318
46095W        W15910  36.015  24.514  12.465
46096W        W15911  25.499   3.950  10.575
46097W        W15912  38.993  28.018   0.337
46098W        W15913  37.415   0.289   1.721
46099W        W15914  14.166  16.246   4.624
46100W        W15915   7.818  42.949   5.219
46101W        W15916  10.775  32.403  14.874
46102W        W15917  16.680  40.370   1.213
46103W        W15918   0.402  14.173  10.643
46104W        W15919  32.944  35.594  12.996
46105W        W15920  41.462  17.260  10.008
46106W        W15921   0.771  27.453  12.468
46107W        W15922  26.519  24.681   2.896
46108W        W15923  30.987  43.341  11.455
46109W        W15924  11.175  14.801   0.820
46110W        W15925  12.272   6.747   4.794
46111W        W15926  38.958   0.248  14.365
46112W        W15927  14.314  25.965   4.256
46113W        W15928  24.061  20.183   4.260
46114W        W15929  37.529  14.313   0.310
46115W        W15930  21.619  20.724  13.329
46116W        W15931  22.656  38.931   4.618
46117W        W15932   3.388  10.202   1.874
46118W        W15933  20.162   7.372  14.932
46119W        W15934   4.904  36.923  14.972
46120W        W15935   8.760  14.329   2.730
46121W        W15936   9.854  23.053   4.233
46122W        W15937  25.027  11.726  14.834
46123W        W15938  42.388  14.317   3.737
46124W        W15939  41.811  14.305  11.892
46125W        W15940  42.448   7.193   3.742
46126W        W15941  34.929  10.730   4.271
46127W        W15942  36.500  39.520  10.429
46128W        W15943  33.114  41.003  10.528
46129W        W15944  31.417  38.036   2.369
46130W        W15945  25.561  24.023   2.828
46131W        W15946  12.806   9.666  11.867
46132W        W15947  38.508   5.895  13.837
46133W        W15948  44.940   2.364   2.247
46134W        W15949  34.936  44.764   4.174
46135W        W15950  37.079  38.566   0.932
46136W        W15951  10.654   4.917   2.671
46137W        W15952  42.809  32.489  12.090
46138W        W15953  34.585  32.980  13.912
46139W        W15954  35.478  43.792   2.280
46140W        W15955  34.518   6.744  14.510
46141W        W15956  30.097   8.342  12.840
46142W        W15957  34.976  25.669   4.198
46143W        W15958  19.087  17.649   3.747
46144W        W15959  41.028  20.706  13.982
46145W        W15960  18.289  29.045   1.931
46146W        W15961   7.184  26.039   2.813
46147W        W15962  23.098  26.987  11.600
46148W        W15963  42.493  36.519   2.827
46149W        W15964  32.900   2.925   0.880
46150W        W15965   8.664  29.534   0.856
46151W        W15966  38.924  38.957   4.607
46152W        W15967  31.940   5.793  12.823
46153W        W15968   8.805  11.360   2.672
46154W        W15969  12.800  29.558   1.892
46155W        W15970   9.284  36.518  14.468
46156W        W15971  14.216   5.850   2.863
46157W        W15972  40.402  17.706   1.883
46158W        W15973  13.717   3.408  11.464
46159W        W15974  20.645  10.729  11.125
46160W        W15975   5.249   5.902   0.369
46161W        W15976  39.559  34.457  10.518
46162W        W15977  12.335  36.477  11.860
46163W        W15978  30.144  23.702   0.480
46164W        W15979  42.322  42.353   2.662
46165W        W15980  28.117  39.948  13.993
46166W        W15981   3.312  36.087   0.880
46167W        W15982  29.149  13.312  13.897
46168W        W15983  14.651  13.770   2.327
46169W        W15984  27.654  32.991  13.023
46170W        W15985   4.890  30.502  13.039
46171W        W15986  32.470  41.794   2.662
46172W        W15987  35.903   1.967   4.600
46173W        W15988  14.742  42.883  12.092
46174W        W15989  44.406  35.996  12.543
46175W        W15990  15.261  10.739   2.186
46176W        W15991   7.214   7.229   2.748
46177W        W15992  43.847  19.057   1.281
46178W        W15993  18.695  28.594  13.023
46179W        W15994  42.509  13.788   4.352
46180W        W15995  41.407  37.543  12.964
46181W        W15996  38.563  14.592   4.143
46182W        W15997  33.935  38.440   4.698
46183W        W15998  20.120   2.370   4.812
46184W        W15999  44.481  12.800   3.248
46185W        W16000  18.617  38.869  14.766
46186W        W16001  39.361  36.471   2.780
46187W        W16002  39.903  28.066   1.790
46188W        W16003  13.224  16.625   2.227
46189W        W16004  24.117   2.252  13.532
46190W        W16005   7.354  11.301  13.902
46191W        W16006  31.451  24.535  11.384
46192W        W16007   6.822  18.733  14.503
46193W        W16008   2.829   7.270  12.352
46194W        W16009  41.330   9.680  11.859
46195W        W16010  14.779   9.176   2.338
46196W        W16011  20.193  11.844   3.655
46197W        W16012  34.420  43.990   2.330
46198W        W16013  33.945  25.679   1.709
46199W        W16014  27.009  37.411   0.792
46200W        W16015   7.702  17.072   4.335
46201W        W16016  37.950  18.168   4.291
46202W        W16017  18.260  23.989  10.643
46203W        W16018  26.591  22.584   4.236
46204W        W16019  14.834  18.560   4.789
46205W        W16020  11.726  32.517  14.835
46206W        W16021  13.110  35.493   1.814
46207W        W16022   4.296  20.120   3.216
46208W        W16023  21.539   8.827  14.401
46209W        W16024  36.065  41.512  13.829
46210W        W16025  16.610   6.371  10.450
46211W        W16026  17.686  18.769  10.532
46212W        W16027  43.389   7.211   0.323
46213W        W16028   2.438  11.163  14.844
46214W        W16029  17.189  32.424   1.323
46215W        W16030  15.652  36.850   2.675
46216W        W16031  19.146  20.531   1.354
46217W        W16032  44.870  30.457  10.963
46218W        W16033  16.260   6.310  12.091
46219W        W16034  26.173  13.230   2.188
46220W        W16035  37.900  34.400   2.310
46221W        W16036   1.779  33.979  13.879
46222W        W16037  37.389  42.828  14.379
46223W        W16038   9.772  43.879  14.819
46224W        W16039  17.604  41.517  11.058
46225W        W16040   4.913  28.067  14.473
46226W        W16041  36.096  23.598  10.531
46227W        W16042  14.653  25.619   0.242
46228W        W16043  37.421  36.879  12.402
46229W        W16044   5.360  42.478  13.474
46230W        W16045   6.846  43.009  13.917
46231W        W16046  34.972  33.502   4.699
46232W        W16047  42.456  43.516   4.290
46233W        W16048  37.485  36.037  10.518
46234W        W16049  25.703  27.109  13.802
46235W        W16050  34.878  10.868  10.543
46236W        W16051  10.758  33.062   3.721
46237W        W16052  11.647  38.842   1.914
46238W        W16053  32.565  32.049   1.401
46239W        W16054  17.729  15.164  14.930
46240W        W16055  39.398  30.988  10.969
46241W        W16056   3.950  34.478   1.360
46242W        W16057  38.402  17.696   1.257
46243W        W16058  26.551  31.536   0.463
46244W        W16059   0.381  10.344   9.999
46245W        W16060   1.368  20.557   1.412
46246W        W16061  10.349  17.562   2.850
46247W        W16062  25.641  16.140   4.804
46248W        W16063  30.612   8.368  12.058
46249W        W16064  15.791  38.868   4.226
46250W        W16065  33.913   8.232   0.761
46251W        W16066   9.262   3.377  13.012
46252W        W16067   3.803  27.590   3.258
46253W        W16068  28.161  15.824  12.370
46254W        W16069  18.599  39.448  14.381
46255W        W16070  14.163   2.793   0.365
46256W        W16071  43.804  19.744  14.411
46257W        W16072  16.307   5.853   3.645
46258W        W16073  14.249  13.607  11.902
46259W        W16074  29.532  24.201   0.293
46260W        W16075  32.096  19.581  12.528
46261W        W16076  25.558   1.732   1.748
46262W        W16077  19.251   9.859   0.284
46263W        W16078   7.668   5.782  14.855
46264W        W16079   5.701   6.685  12.996
46265W        W16080  23.073   6.914  11.391
46266W        W16081  43.819  44.967   0.739
46267W        W16082  30.553   9.696  11.079
46268W        W16083  43.855   2.775  14.829
46269W        W16084  32.047   1.887  14.923
46270W        W16085  44.008  16.672   3.251
46271W        W16086  19.652  20.750   2.301
46272W        W16087   3.930   0.472  10.929
46273W        W16088  40.962  32.037   1.393
46274W        W16089  27.950  38.935  12.947
46275W        W16090  27.042  36.995  14.948
46276W        W16091   8.820  30.086  13.855
46277W        W16092  36.090  19.686  13.038
46278W        W16093   0.458  35.895   3.175
46279W        W16094  35.504  10.739  13.978
46280W        W16095  29.107  20.586  14.323
46281W        W16096   4.422  25.191  14.477
46282W        W16097  36.054  43.309  12.846
46283W        W16098   7.209  37.531   2.196
46284W        W16099   4.782   9.860  12.375
46285W        W16100   6.194  35.980  11.902
46286W        W16101  43.418  16.271   0.860
46287W        W16102  31.599   1.898  11.450
46288W        W16103   7.199  32.441  10.982
46289W        W16104  22.238   5.880   0.247
46290W        W16105  34.930  27.122  13.459
46291W        W16106  26.529  13.244  11.424
46292W        W16107  13.619  14.312   3.171
46293W        W16108   5.906  16.211  14.996
46294W        W16109  38.917   0.371   2.770
46295W        W16110  21.593  33.013   0.398
46296W        W16111  32.537  31.045   2.715
46297W        W16112  26.113   8.664   1.822
46298W        W16113   7.175  27.974  14.412
46299W        W16114  17.233  30.981   3.691
46300W        W16115  38.447  39.394  12.877
46301W        W16116  28.637   3.337  14.015
46302W        W16117   3.295  21.734   4.652
46303W        W16118   3.422   2.831  10.461
46304W        W16119  35.391  40.475  10.477
46305W        W16120  15.312  24.069  11.905
46306W        W16121  10.722  18.107   0.833
46307W        W16122   5.391   4.328   3.862
46308W        W16123  42.948  17.069  14.998
46309W        W16124  22.537  25.536   4.630
46310W        W16125   8.751  28.640  11.056
46311W        W16126  21.568  15.730   0.340
46312W        W16127  43.785  26.623   0.740
46313W        W16128  38.959  13.255  10.462
46314W        W16129  27.964   3.797  14.346
46315W        W16130  15.651  39.372  14.322
46316W        W16131   1.344  22.625   0.407
46317W        W16132  10.640  23.545  13.398
46318W        W16133  37.457  27.638  11.042
46319W        W16134  32.589   0.449  12.920
46320W        W16135  18.108   3.419  13.510
46321W        W16136  37.493   4.419  12.824
46322W        W16137  39.404  26.621  10.078
46323W        W16138  19.082  39.841  14.914
46324W        W16139  19.064  22.516  12.076
46325W        W16140  34.056  38.563   0.833
46326W        W16141  23.073   2.413  11.095
46327W        W16142  36.520  25.485   0.262
46328W        W16143  36.965   6.712  14.429
46329W        W16144  10.342   5.749   1.383
46330W        W16145  10.769   4.870   0.410
46331W        W16146  39.538  10.186   4.162
46332W        W16147  23.559  40.811   4.178
46333W        W16148  27.606  37.444   1.726
46334W        W16149  34.576  21.057   1.796
46335W        W16150  37.017  42.959  13.009
46336W        W16151   7.878  42.406  10.533
46337W        W16152  15.690  28.975   2.372
46338W        W16153  36.572  28.478  14.413
46339W        W16154  32.961  28.506   4.662
46340W        W16155  28.004  15.781   3.758
46341W        W16156  24.584  42.365  12.854
46342W        W16157   8.369   7.793   2.844
46343W        W16158  21.541  21.189  10.898
46344W        W16159  16.264  15.150   4.204
46345W        W16160   8.327  21.660   0.800
46346W        W16161  11.829  34.530   0.412
46347W        W16162  21.180  14.178   3.261
46348W        W16163  16.135   1.429   0.776
46349W        W16164  44.476  20.151   1.714
46350W        W16165  18.676  17.138  10.487
46351W        W16166  30.490  24.985  14.414
46352W        W16167  39.316   6.796  13.400
46353W        W16168  20.050   4.838   2.836
46354W        W16169  21.604  22.058  12.439
46355W        W16170  12.644  10.681   0.396
46356W        W16171  24.138   7.333  12.374
46357W        W16172   7.840   1.780   3.275
46358W        W16173  38.842  33.550   0.257
46359W        W16174  40.975  38.473   4.783
46360W        W16175   5.237   3.937   4.650
46361W        W16176   8.801  35.902  11.887
46362W        W16177   1.379  29.580   0.259
46363W        W16178  28.610  30.020   2.767
46364W        W16179  18.078   6.819  11.915
46365W        W16180  14.298  41.814   2.245
46366W        W16181   3.939  18.117   4.740
46367W        W16182  27.667  18.673  11.441
46368W        W16183  43.930  17.065   1.214
46369W        W16184  12.796  44.323   3.373
46370W        W16185  37.913  29.998  13.356
46371W        W16186   7.344  38.342   4.141
46372W        W16187  33.892  11.297   0.282
46373W        W16188  32.038  35.106  12.875
46374W        W16189  32.430   9.688  12.848
46375W        W16190  33.078  15.700   5.307
46376W        W16191  12.708   1.277  11.005
46377W        W16192   3.425  28.938  11.527
46378W        W16193  22.710  34.400  12.412
46379W        W16194   3.739   5.776  14.280
46380W        W16195   1.874  33.972   1.754
46381W        W16196   6.745   8.219  14.331
46382W        W16197  39.862   7.320  10.101
46383W        W16198  38.560  22.233  11.429
46384W        W16199   4.717   2.471  12.016
46385W        W16200  23.228  40.460   1.721
46386W        W16201  13.155  28.541   4.719
46387W        W16202  28.608  10.857   2.719
46388W        W16203   6.757   1.246   1.212
46389W        W16204   2.766  13.350  14.017
46390W        W16205  12.133  27.102   1.699
46391W        W16206  25.617  17.302   3.651
46392W        W16207   0.305   0.462  14.453
46393W        W16208  10.805   5.730   3.792
46394W        W16209  13.738  42.480  13.018
46395W        W16210  38.508   6.736   1.823
46396W        W16211   0.923  17.143  11.123
46397W        W16212  26.543  22.594  14.905
46398W        W16213  15.125  35.902   3.867
46399W        W16214  23.055  27.467   3.668
46400W        W16215  36.046  21.074   4.173
46401W        W16216  11.842   8.367  13.459
46402W        W16217   5.735  32.518  13.524
46403W        W16218  26.182  43.941   3.373
46404W        W16219   7.281  20.145   3.852
46405W        W16220  40.436  27.976   4.202
46406W        W16221   4.922  10.240   4.685
46407W        W16222  35.362  22.519  12.504
46408W        W16223  32.576  35.505  12.365
46409W        W16224   9.300  11.757  13.500
46410W        W16225   7.697  10.220   2.773
46411W        W16226  16.099  44.502  13.004
46412W        W16227   1.946  15.747   4.642
46413W        W16228   9.334  36.919   1.799
46414W        W16229  11.813   9.838  13.935
46415W        W16230  35.987  42.981  14.296
46416W        W16231  18.605  31.407  13.342
46417W        W16232   2.454  29.078  13.906
46418W        W16233  30.620  12.708  11.942
46419W        W16234   3.334  40.511  13.326
46420W        W16235  38.071  20.690   2.178
46421W        W16236  31.920   7.252  11.900
46422W        W16237  13.806  13.637   0.943
46423W        W16238  29.646  21.262   0.875
46424W        W16239  35.517  18.630   3.345
46425W        W16240  39.328  26.138   3.374
46426W        W16241  27.520  21.068   4.120
46427W        W16242  21.709  21.736  10.971
46428W        W16243  25.167   7.198  12.023
46429W        W16244  19.692   5.853   2.787
46430W        W16245  39.820  36.045  11.104
46431W        W16246  14.247  37.388   0.796
46432W        W16247  24.525  27.019   2.728
46433W        W16248  26.186  22.682  11.564
46434W        W16249  19.225  20.164   0.782
46435W        W16250  44.423  29.011  12.049
46436W        W16251  17.217  10.212  13.904
46437W        W16252  13.155   2.415   2.881
46438W        W16253  29.918  19.646  13.053
46439W        W16254   8.735  31.629   1.389
46440W        W16255   9.296   9.768   4.827
46441W        W16256   4.830  27.624   0.469
46442W        W16257  44.361  28.570   2.682
46443W        W16258  37.493  38.366   1.289
46444W        W16259   9.804  15.175   3.767
46445W        W16260  22.561   0.809   1.802
46446W        W16261  43.881  31.507   3.176
46447W        W16262  41.838  32.133   3.775
46448W        W16263   4.743   3.784  14.434
46449W        W16264  44.973  22.060  13.919
46450W        W16265  29.173  20.230  12.403
46451W        W16266  30.963  43.384  13.521
46452W        W16267  41.297   1.278  11.423
46453W        W16268   6.784  17.063  14.801
46454W        W16269  43.982  43.775  12.387
46455W        W16270  31.953  26.063   2.859
46456W        W16271  32.002  23.496   2.252
46457W        W16272   0.473   0.854  11.880
46458W        W16273  35.439   8.853   3.676
46459W        W16274  30.657  32.926  13.416
46460W        W16275   2.298  39.017   1.223
46461W        W16276  18.765  40.929   1.857
46462W        W16277   3.328  30.102  11.887
46463W        W16278  36.021  27.538  14.002
46464W        W16279  24.549   2.395  12.082
46465W        W16280  20.646   6.391   1.836
46466W        W16281  37.017  39.437   4.197
46467W        W16282   1.787  25.610  11.127
46468W        W16283  25.484  12.782   3.841
46469W        W16284  42.337  15.108  11.941
46470W        W16285  24.568  35.477  10.603
46471W        W16286  41.958  10.154  13.392
46472W        W16287  16.744  40.523  13.832
46473W        W16288  20.759  11.323   4.154
46474W        W16289   7.324  21.223  12.863
46475W        W16290  23.036  24.719   0.846
46476W        W16291  11.849   4.204   1.801
46477W        W16292  41.992  44.347   2.823
46478W        W16293  42.287  25.143   1.794
46479W        W16294  34.592  21.621  11.035
46480W        W16295  34.911   8.385   4.212
46481W        W16296  25.487  32.127  13.017
46482W        W16297   3.841   4.237  13.355
46483W        W16298  40.457  39.924   3.850
46484W        W16299  42.973  41.506   1.438
46485W        W16300   4.781   1.817   4.274
46486W        W16301  37.047  35.087  14.304
46487W        W16302  30.496  21.190   2.817
46488W        W16303  42.959  39.373   2.695
46489W        W16304   1.409  23.560   2.238
46490W        W16305  23.689   9.866  14.797
46491W        W16306  36.044  20.619   1.418
46492W        W16307  39.521  10.657   2.221
46493W        W16308  37.088  17.790   0.282
46494W        W16309   0.338  40.046   0.871
46495W        W16310   6.308   3.883  14.954
46496W        W16311  39.442  22.612   2.754
46497W        W16312  18.681  41.494   4.118
46498W        W16313  37.414   7.733  12.437
46499W        W16314  14.240  22.179   2.320
46500W        W16315  35.031   1.381  14.372
46501W        W16316  35.411  13.172   3.723
46502W        W16317  44.434  36.475  11.870
46503W        W16318  40.433  18.671   1.382
46504W        W16319  35.022  38.979  14.999
46505W        W16320  40.045  18.150  11.003
46506W        W16321  40.875  17.591  12.980
46507W        W16322   9.231   8.236   4.680
46508W        W16323  41.002  17.613  11.876
46509W        W16324  12.267  31.533  13.031
46510W        W16325  27.983  42.343  10.582
46511W        W16326   6.718  26.563  13.852
46512W        W16327  31.426  14.163  13.025
46513W        W16328   2.894  14.780   2.686
46514W        W16329  25.683  41.932  13.913
46515W        W16330  16.078   7.678  13.952
46516W        W16331  33.606   6.379  14.930
46517W        W16332  27.576  25.203  11.398
46518W        W16333  10.207   9.890  14.944
46519W        W16334  39.500  13.109   3.146
46520W        W16335  21.139  43.956  13.838
46521W        W16336   5.922   8.381   2.218
46522W        W16337  24.570  18.639   2.838
46523W        W16338  11.231  39.047  14.428
46524W        W16339   6.277   9.655  14.786
46525W        W16340  36.016  26.629  10.045
46526W        W16341  37.997  39.496   2.821
46527W        W16342  44.829  28.568   0.391
46528W        W16343  16.787  29.974   0.921
46529W        W16344  27.121  21.164  13.819
46530W        W16345  44.858   2.919  13.800
46531W        W16346  23.705   2.874  14.375
46532W        W16347  43.021   1.249  12.497
46533W        W16348  20.650  31.640   1.411
46534W        W16349  26.457   6.230  14.955
46535W        W16350  28.613   7.254  12.385
46536W        W16351  18.235  21.067  12.476
46537W        W16352  22.159  22.044  14.964
46538W        W16353  40.322   2.402  11.936
46539W        W16354  35.929   5.774  14.908
46540W        W16355  12.785  29.038  12.413
46541W        W16356  25.138   5.403   3.689
46542W        W16357  21.577   8.369   2.703
46543W        W16358  36.449   3.399  13.438
46544W        W16359  12.156  24.047   2.339
46545W        W16360  13.250  35.090  13.469
46546W        W16361  36.372  43.877  12.925
46547W        W16362  18.221  18.746  13.028
46548W        W16363  36.569   5.924  12.062
46549W        W16364  39.382  11.286   4.774
46550W        W16365  30.567   4.847   1.832
46551W        W16366  34.918   9.197  12.376
46552W        W16367  31.465   8.829  13.318
46553W        W16368  31.031  19.128  13.060
46554W        W16369   0.846  42.486  14.028
46555W        W16370  28.013  21.192   2.893
46556W        W16371  36.411   7.844   1.793
46557W        W16372  18.239  33.992  12.370
46558W        W16373  31.532  40.968   4.707
46559W        W16374   7.303  15.230   1.728
46560W        W16375  30.629  13.199   1.929
46561W        W16376   5.919  17.221  12.348
46562W        W16377  39.501  27.101  13.018
46563W        W16378  10.300   9.251   4.190
46564W        W16379   3.927  20.726   1.296
46565W        W16380  14.834  41.898   0.469
46566W        W16381  27.149  15.279   1.404
46567W        W16382  29.970  15.126   3.272
46568W        W16383  31.995  40.804   3.696
46569W        W16384  40.820  41.809  13.994
46570W        W16385  41.384  16.809   5.081
46571W        W16386  29.065   5.197  14.977
46572W        W16387  19.656  42.282  13.312
46573W        W16388  43.411  15.309  11.479
46574W        W16389   1.414  37.439   4.129
46575W        W16390  21.670  12.629   1.746
46576W        W16391  29.593  26.494   3.798
46577W        W16392  44.941  26.597   3.281
46578W        W16393   4.398  37.360  13.465
46579W        W16394  26.024   0.399   2.831
46580W        W16395  25.035  29.540   4.122
46581W        W16396   1.732  12.124   2.333
46582W        W16397  30.091  38.335  12.443
46583W        W16398  25.704  24.502   2.251
46584W        W16399  42.831  32.519   1.408
46585W        W16400  32.930  26.642   0.326
46586W        W16401  17.656  31.930   3.156
46587W        W16402  41.853  35.480   4.702
46588W        W16403  16.738   8.781   4.254
46589W        W16404  24.074  41.483   4.218
46590W        W16405  27.138  30.503  11.380
46591W        W16406  31.518  30.968   2.724
46592W        W16407  16.672  33.117  11.106
46593W        W16408   4.892   2.366  10.526
46594W        W16409  19.258  37.497   4.113
46595W        W16410  41.991  11.128   0.812
46596W        W16411  24.555  44.822  11.925
46597W        W16412  12.118  10.737   2.252
46598W        W16413  14.129  21.076   3.341
46599W        W16414  40.950  29.079  14.793
46600W        W16415  34.050  42.437   3.764
46601W        W16416   5.228  15.139  10.622
46602W        W16417  13.665  43.288   2.404
46603W        W16418  44.920  14.159   4.601
46604W        W16419  31.531   2.767   0.825
46605W        W16420  21.092  26.018  11.046
46606W        W16421   3.412   1.815  13.017
46607W        W16422  31.014  27.073  12.861
46608W        W16423  10.309   9.878   2.834
46609W        W16424   1.840   1.388   2.188
46610W        W16425  13.277  32.029   0.290
46611W        W16426  16.685  28.446   4.241
46612W        W16427  10.745  41.986  10.423
46613W        W16428  38.449  16.190   2.228
46614W        W16429   7.911  34.034   1.727
46615W        W16430  21.700   7.751   2.238
46616W        W16431  19.734  12.226  12.864
46617W        W16432  25.542  27.030  11.394
46618W        W16433   8.339  19.202   1.789
46619W        W16434   8.361  14.256   4.663
46620W        W16435  28.029  27.684   1.258
46621W        W16436  23.528  37.057   1.252
46622W        W16437  12.805   4.424   1.448
46623W        W16438  42.785  36.860   4.181
46624W        W16439  19.632  13.120   1.845
46625W        W16440  38.483  44.329  10.471
46626W        W16441  34.425  20.244  10.607
46627W        W16442   4.823  28.680   0.311
46628W        W16443  16.677  42.895  14.764
46629W        W16444  31.410  19.582   0.763
46630W        W16445  17.255   6.216   0.766
46631W        W16446  17.684  17.794  13.938
46632W        W16447  43.439  11.642   1.287
46633W        W16448  15.328   0.481  13.490
46634W        W16449   2.801  31.989  12.363
46635W        W16450  16.265   7.900   1.762
46636W        W16451   6.799  22.713   1.412
46637W        W16452  29.482   1.937  11.950
46638W        W16453  31.958  32.494  13.971
46639W        W16454  22.641  23.091  14.969
46640W        W16455  36.895  24.084   4.699
46641W        W16456  24.695  26.125   2.796
46642W        W16457  18.634  26.027  12.067
46643W        W16458   6.705  35.915   0.451
46644W        W16459  29.553   5.768  13.865
46645W        W16460  27.985   6.312  10.912
46646W        W16461  34.037  36.873  13.005
46647W        W16462  24.132  44.433  12.967
46648W        W16463  21.127   1.411  14.494
46649W        W16464  35.426  30.569   0.902
46650W        W16465   3.936  11.323   3.821
46651W        W16466  34.469  36.039   4.227
46652W        W16467  17.165   5.711   1.263
46653W        W16468  29.053  34.120  14.980
46654W        W16469  13.785  37.949  14.891
46655W        W16470  23.230  20.633  11.551
46656W        W16471  42.009  43.972  13.327
46657W        W16472  41.447  32.904   4.296
46658W        W16473  20.090  15.741   2.186
46659W        W16474   4.400  30.611   1.349
46660W        W16475  18.277  12.805  10.971
46661W        W16476   3.432  39.937   0.753
46662W        W16477  33.463   2.911   4.269
46663W        W16478  10.727  10.746   4.706
46664W        W16479  37.831  29.956  12.011
46665W        W16480  20.753  15.752   2.198
46666W        W16481  27.104  42.379   1.408
46667W        W16482  43.981  26.603  11.581
46668W        W16483  42.426  15.212   2.855
46669W        W16484  33.951  28.571   4.205
46670W        W16485  30.052  17.593   2.336
46671W        W16486  44.864  43.893   2.313
46672W        W16487   3.950  42.778   2.762
46673W        W16488  19.085  15.756  14.774
46674W        W16489  25.038  34.418   2.775
46675W        W16490  40.931   3.349  13.899
46676W        W16491  36.843  26.510   1.410
46677W        W16492  20.730  35.094   4.601
46678W        W16493  15.249   6.258  14.455
46679W        W16494  20.599  44.929   2.899
46680W        W16495  41.303  41.894  13.535
46681W        W16496  43.484  24.714   2.375
46682W        W16497  36.916   9.231   3.179
46683W        W16498   7.671   9.167  14.882
46684W        W16499   8.783   5.315   0.334
46685W        W16500  24.222  37.381  14.835
46686W        W16501  27.512  12.834   2.260
46687W        W16502  41.516  36.004   3.868
46688W        W16503  12.335  23.514  11.992
46689W        W16504   3.248  36.476   1.917
46690W        W16505  14.327  32.517  11.122
46691W        W16506  10.263  17.144  12.057
46692W        W16507  27.496  37.455   4.172
46693W        W16508  43.286  15.799  11.945
46694W        W16509  39.059  25.017  10.562
46695W        W16510   8.266  42.352  12.997
46696W        W16511  33.430  10.662   3.698
46697W        W16512   5.331  13.317  11.103
46698W        W16513   6.783  41.918  12.941
46699W        W16514  10.213  38.516  11.553
46700W        W16515   1.458  27.167   4.339
46701W        W16516  44.914  18.702  11.554
46702W        W16517   9.301  27.510  13.821
46703W        W16518  18.685  23.504   4.302
46704W        W16519   5.396  32.951   2.753
46705W        W16520  31.407   3.916   4.241
46706W        W16521  20.210  39.832   1.425
46707W        W16522   4.408  20.103   3.795
46708W        W16523  19.180  16.773   2.321
46709W        W16524   9.887  33.577   4.753
46710W        W16525  31.107  23.699   3.253
46711W        W16526  22.168  35.525   3.163
46712W        W16527  27.544   6.785  13.396
46713W        W16528  11.640   3.404   0.796
46714W        W16529  20.750  39.944   1.797
46715W        W16530  20.563  38.454   3.360
46716W        W16531   1.955  42.917  11.071
46717W        W16532   4.230  30.959   2.818
46718W        W16533  43.301  36.090  13.959
46719W        W16534  42.419  23.052  13.897
46720W        W16535  29.018  43.953  11.414
46721W        W16536  16.598  11.786  14.325
46722W        W16537   7.331   2.882   4.247
46723W        W16538  40.893   8.820  11.490
46724W        W16539   7.239  12.778  13.854
46725W        W16540  15.730  33.479   3.669
46726W        W16541  22.678  24.002   3.714
46727W        W16542  14.168  38.457  14.028
46728W        W16543  33.095  19.678  12.905
46729W        W16544  43.873   9.212  10.556
46730W        W16545  37.503  26.121   1.219
46731W        W16546  37.997  32.119  12.500
46732W        W16547   6.218  44.905   1.264
46733W        W16548   5.834  34.374  11.086
46734W        W16549   1.917  37.992   3.746
46735W        W16550  33.003  37.849  10.979
46736W        W16551  39.853  34.082   4.748
46737W        W16552  23.506  31.626   0.315
46738W        W16553  23.203  26.103  14.898
46739W        W16554  37.555   9.185  10.587
46740W        W16555  11.695  40.858   1.243
46741W        W16556  35.051  11.210   2.899
46742W        W16557   4.759  38.868  10.619
46743W        W16558  25.706  38.936  10.619
46744W        W16559   9.823   9.306   1.924
46745W        W16560  44.441  14.099  12.532
46746W        W16561  14.694  23.524  13.881
46747W        W16562  37.894  27.453  10.632
46748W        W16563  31.115  41.295   5.185
46749W        W16564  43.833   8.261  11.958
46750W        W16565  24.480   9.701   3.656
46751W        W16566  28.150  29.502   2.330
46752W        W16567   9.881  23.500  12.351
46753W        W16568  16.174  14.832  14.782
46754W        W16569  33.398  29.035   9.957
46755W        W16570  26.629  28.949   3.758
46756W        W16571  13.758  44.472  13.478
46757W        W16572  35.457  26.680  10.424
46758W        W16573  10.191   4.795   2.828
46759W        W16574   4.804   7.697   5.087
46760W        W16575   4.433   4.410  14.858
46761W        W16576  17.627  20.224  12.400
46762W        W16577   0.361  12.158  10.941
46763W        W16578  25.613   1.860   0.836
46764W        W16579   3.398  34.967   3.366
46765W        W16580  23.067   1.835  10.413
46766W        W16581  32.556   9.292   1.330
46767W        W16582  12.634  13.819   4.135
46768W        W16583   5.898  35.982  14.934
46769W        W16584  33.581  41.998   4.713
46770W        W16585   3.800  19.154   0.854
46771W        W16586  16.663  11.349  14.791
46772W        W16587  39.389   2.424  14.289
46773W        W16588  41.940  20.245  14.430
46774W        W16589  39.416  15.197  12.999
46775W        W16590  20.141   2.268  11.961
46776W        W16591  13.839  19.243  11.417
46777W        W16592  40.017  27.691   3.351
46778W        W16593  28.650  12.851   3.305
46779W        W16594  30.638  14.801   1.389
46780W        W16595  13.647  40.436   4.750
46781W        W16596  15.295   5.324   4.789
46782W        W16597  19.738   2.940   1.324
46783W        W16598  12.182  21.704   1.758
46784W        W16599   3.817   9.218  10.424
46785W        W16600   5.861  35.597   2.340
46786W        W16601  22.707  17.736  14.763
46787W        W16602  31.988  26.589   3.247
46788W        W16603  39.065  23.614  10.624
46789W        W16604  22.502  18.097  14.817
46790W        W16605  28.547   9.805   1.915
46791W        W16606  24.157  22.512   3.751
46792W        W16607  39.453  37.052  11.461
46793W        W16608  11.803  42.785  10.068
46794W        W16609  39.479  16.581  10.918
46795W        W16610  34.410  35.412   2.384
46796W        W16611  28.094  30.022   0.901
46797W        W16612  16.124  13.122   4.138
46798W        W16613  25.680  39.541  11.887
46799W        W16614  22.216  33.047  14.898
46800W        W16615  40.336  27.034  13.523
46801W        W16616  26.164  19.769  12.386
46802W        W16617   5.687  25.167   4.292
46803W        W16618  28.548  42.422   0.293
46804W        W16619  26.998   9.666   0.911
46805W        W16620  30.611   0.302   3.334
46806W        W16621  34.901  20.133  12.066
46807W        W16622  32.005   1.735  11.561
46808W        W16623  29.073   0.860   4.597
46809W        W16624  37.346  12.264  13.395
46810W        W16625   3.893  44.424  13.371
46811W        W16626  22.611  40.412  10.601
46812W        W16627   5.250  10.191   3.254
46813W        W16628  12.168  19.126  12.386
46814W        W16629   1.793   1.257  13.813
46815W        W16630   0.303  25.969   4.693
46816W        W16631  41.505  24.489  13.308
46817W        W16632  13.260   3.769   4.724
46818W        W16633  19.756   1.406  11.438
46819W        W16634  33.454   3.459  14.797
46820W        W16635  25.061  19.139   4.816
46821W        W16636  30.431  17.272   0.243
46822W        W16637   4.876  19.667   3.651
46823W        W16638  23.660  10.355   1.911
46824W        W16639   0.362  28.610  11.599
46825W        W16640  38.571   8.250  14.986
46826W        W16641   8.364  25.540  12.518
46827W        W16642  44.928  35.597  11.465
46828W        W16643  35.873  20.651  11.052
46829W        W16644  13.761  30.154   1.925
46830W        W16645  34.950  31.938   1.299
46831W        W16646  37.416  44.922   2.323
46832W        W16647  14.707  33.552   9.934
46833W        W16648  30.524  30.466  13.542
46834W        W16649  34.595   2.833   0.896
46835W        W16650  29.088  32.452   2.900
46836W        W16651  25.178  25.642  10.562
46837W        W16652  37.837  18.706  10.572
46838W        W16653  32.539  27.485   4.808
46839W        W16654  26.573  36.465   3.775
46840W        W16655  36.028   7.853  12.531
46841W        W16656  41.793  21.104   0.933
46842W        W16657   7.294  12.650   2.372
46843W        W16658  19.096  42.921  12.955
46844W        W16659  39.431  42.897  10.502
46845W        W16660  32.991  16.627   4.244
46846W        W16661   9.689   3.393  11.417
46847W        W16662  22.638  42.502  13.313
46848W        W16663  23.063  40.797  12.466
46849W        W16664   7.394  17.644  13.545
46850W        W16665  38.465  42.402  14.959
46851W        W16666  25.580  15.737   0.966
46852W        W16667   1.350  31.961  14.464
46853W        W16668   1.854  26.013  13.803
46854W        W16669  41.987  19.258  11.549
46855W        W16670  26.085  16.080   2.335
46856W        W16671  12.680  35.392   2.360
46857W        W16672  30.608  35.408  13.019
46858W        W16673   3.396  39.885   3.153
46859W        W16674  43.405  15.582  13.471
46860W        W16675   4.932  27.583  12.874
46861W        W16676  20.572  12.257  11.917
46862W        W16677   7.893  14.186   5.179
46863W        W16678  35.884  31.515   0.762
46864W        W16679  29.936  44.843   2.800
46865W        W16680  34.115   0.284   2.348
46866W        W16681  11.167  28.098  13.324
46867W        W16682  44.392  42.858   5.253
46868W        W16683  14.318  39.874   2.320
46869W        W16684   1.913  10.849   0.794
46870W        W16685  32.942  14.606   0.462
46871W        W16686  39.059  15.251   2.379
46872W        W16687  21.260  17.149   3.845
46873W        W16688  36.462   8.257  12.043
46874W        W16689  41.302  41.475  12.536
46875W        W16690   2.349  26.206  14.850
46876W        W16691  16.293   6.202   4.116
46877W        W16692  27.671  25.566   4.675
46878W        W16693  27.192  35.492  14.376
46879W        W16694  39.064  12.127  10.994
46880W        W16695   8.286  36.966   2.703
46881W        W16696   2.892  29.031   2.711
46882W        W16697  34.094  28.965  11.377
46883W        W16698  33.515  17.179  10.901
46884W        W16699  26.593  17.272  10.922
46885W        W16700  38.570  28.951   4.274
46886W        W16701  22.686   1.781   4.693
46887W        W16702  13.106  42.905  13.810
46888W        W16703  43.349  26.589  12.930
46889W        W16704  29.512   9.824  12.458
46890W        W16705  12.201   9.273  11.537
46891W        W16706  44.858  35.994  14.367
46892W        W16707  12.619  27.008   4.809
46893W        W16708  38.001  31.507  13.864
46894W        W16709  29.135  37.843  14.017
46895W        W16710  44.382  22.681   1.776
46896W        W16711  33.476  42.944  14.032
46897W        W16712  13.756  10.180  10.966
46898W        W16713  40.541  12.195   2.418
46899W        W16714   8.791  29.621  14.957
46900W        W16715   6.790   7.719   3.296
46901W        W16716  27.453   5.780  14.463
46902W        W16717  11.621  24.507  12.444
46903W        W16718   1.310  40.536   1.418
46904W        W16719  20.050  37.378  14.307
46905W        W16720  39.423   6.790   5.206
46906W        W16721  37.044  34.922  11.525
46907W        W16722  35.546  31.572  10.404
46908W        W16723   2.274  17.633   4.295
46909W        W16724   2.391   6.892   1.314
46910W        W16725  39.426  35.425  12.556
46911W        W16726  34.536  42.959   2.400
46912W        W16727  22.682  34.480  14.309
46913W        W16728  18.673  11.233   3.355
46914W        W16729  27.140   2.911  13.795
46915W        W16730  26.062   2.297   0.473
46916W        W16731  17.658  22.242  12.543
46917W        W16732  41.479  34.433  14.442
46918W        W16733  21.039  28.573  11.862
46919W        W16734   5.211  42.865  10.407
46920W        W16735  21.611  31.526  14.922
46921W        W16736   2.342   7.862   4.741
46922W        W16737  13.139  30.627  14.761
46923W        W16738  31.481  38.022  11.936
46924W        W16739  23.529  24.005  10.599
46925W        W16740  41.002  37.951   3.738
46926W        W16741  25.587   3.881  12.578
46927W        W16742  30.608  35.014  14.464
46928W        W16743  24.581  18.262  14.359
46929W        W16744   8.836  18.294   3.737
46930W        W16745  15.147  19.634   4.234
46931W        W16746  39.033  12.660  10.079
46932W        W16747  15.290  14.789  10.566
46933W        W16748   3.711  32.604   1.768
46934W        W16749  31.577  43.392  13.038
46935W        W16750  24.605  26.975   0.923
46936W        W16751   6.907  36.557  14.960
46937W        W16752  22.696   5.280   3.219
46938W        W16753  33.498  27.051   4.778
46939W        W16754  43.794  12.273   3.280
46940W        W16755  36.003  14.310  13.328
46941W        W16756  38.344  33.392  11.452
46942W        W16757   6.706  18.112   1.918
46943W        W16758   2.252  36.096  14.329
46944W        W16759  32.087  19.700  14.446
46945W        W16760  18.184   2.799  12.077
46946W        W16761  38.902  16.204  13.838
46947W        W16762  12.241   0.796  14.959
46948W        W16763   8.791  42.822  11.873
46949W        W16764  40.502   8.818   4.623
46950W        W16765  12.255  17.198  13.977
46951W        W16766  10.719  44.422   4.225
46952W        W16767   7.673  43.767  10.552
46953W        W16768  31.564  33.127  14.863
46954W        W16769   6.694  19.660   3.721
46955W        W16770  40.019   2.875   1.919
46956W        W16771  11.180  30.136   1.935
46957W        W16772   3.380  26.182   1.732
46958W        W16773   8.764  17.215  12.532
46959W        W16774  35.564  41.925   4.688
46960W        W16775  26.495  26.521   3.789
46961W        W16776   2.348  29.150   0.825
46962W        W16777  42.289  20.086   0.475
46963W        W16778  33.059   9.305  14.851
46964W        W16779  39.883  36.407  14.892
46965W        W16780   3.746  21.573  13.924
46966W        W16781  28.575   6.397   3.744
46967W        W16782   7.742  28.160  13.000
46968W        W16783  40.034  25.691  13.918
46969W        W16784  32.133   3.723  13.802
46970W        W16785  31.017   6.861  11.995
46971W        W16786  38.831   2.231  13.977
46972W        W16787  16.248  17.274   3.734
46973W        W16788  20.078  33.118   1.347
46974W        W16789  12.204  40.383   4.774
46975W        W16790  24.103   5.858   2.769
46976W        W16791  11.781  44.001  11.514
46977W        W16792  39.510  26.205  10.433
46978W        W16793  11.297  44.814   0.282
46979W        W16794  13.796  42.913   4.668
46980W        W16795  37.519  37.913  13.496
46981W        W16796   3.764   6.217   1.383
46982W        W16797  18.197  34.512  13.937
46983W        W16798  28.612   3.340  11.563
46984W        W16799   7.408  17.721   4.680
46985W        W16800   0.920   6.279   5.252
46986W        W16801   8.357  39.502  10.542
46987W        W16802  15.111  40.806  11.474
46988W        W16803  27.080  21.117   3.686
46989W        W16804   8.720  19.151  13.471
46990W        W16805  24.658  27.484   0.415
46991W        W16806   6.805  32.504   4.617
46992W        W16807  36.571  33.406  13.503
46993W        W16808  15.638  36.907   4.773
46994W        W16809  32.519  18.226   1.797
46995W        W16810   0.409  13.159   4.627
46996W        W16811   9.155  28.603   1.431
46997W        W16812  36.461  10.707  10.535
46998W        W16813  35.988  15.146   4.629
46999W        W16814  28.989   3.839  13.829
47000W        W16815  30.159   5.383   3.756
47001W        W16816  25.087  10.286   3.762
47002W        W16817  20.229  15.134   0.892
47003W        W16818   9.824  23.031   2.180
47004W        W16819  19.704  41.814  12.016
47005W        W16820  42.423  37.927   1.787
47006W        W16821   6.891  27.449  14.499
47007W        W16822  20.710  30.995   4.690
47008W        W16823   6.227  21.196  13.427
47009W        W16824  40.810  43.870   2.751
47010W        W16825  34.089  34.521   3.853
47011W        W16826  37.949  13.178  12.363
47012W        W16827  44.905  28.472   3.170
47013W        W16828  44.789  40.478  10.428
47014W        W16829   6.882  17.660   1.264
47015W        W16830  42.421  23.551  14.361
47016W        W16831  21.581  24.582  10.634
47017W        W16832  36.069  26.476  14.910
47018W        W16833  11.207  25.116   2.228
47019W        W16834  26.176  22.607  12.843
47020W        W16835  36.927   3.268   2.297
47021W        W16836  10.285   8.655   0.951
47022W        W16837  14.147  15.280   3.729
47023W        W16838  28.103  37.557   2.312
47024W        W16839  36.936  28.439  11.487
47025W        W16840  17.227   4.397   3.853
47026W        W16841  44.291   8.264   4.233
47027W        W16842  19.749   1.277   1.293
47028W        W16843  41.821   1.752   3.362
47029W        W16844  25.640  30.068  12.948
47030W        W16845  36.905   0.327   1.366
47031W        W16846  19.267  35.078  12.881
47032W        W16847  33.939  28.181   3.866
47033W        W16848  10.230  25.983   4.236
47034W        W16849  31.973   7.846  10.946
47035W        W16850   0.322  15.621   3.228
47036W        W16851   9.832  10.384  11.913
47037W        W16852  24.157   3.413  10.037
47038W        W16853   1.477   1.478  11.958
47039W        W16854  23.232  33.382   3.731
47040W        W16855  30.992  23.624   4.260
47041W        W16856  11.354  16.630  12.448
47042W        W16857  15.205  29.477   4.644
47043W        W16858   6.844  42.494   3.275
47044W        W16859  20.177  41.835  11.456
47045W        W16860  19.762  14.694  10.528
47046W        W16861  14.199  14.118  10.621
47047W        W16862   9.831   7.257  14.796
47048W        W16863  41.418   0.884  10.544
47049W        W16864  14.714  39.322   0.929
47050W        W16865  29.581  22.675   0.271
47051W        W16866   0.761  31.951   0.272
47052W        W16867   6.724  19.723   4.650
47053W        W16868  18.563   6.846  14.824
47054W        W16869  28.673   6.827   4.258
47055W        W16870  20.134   3.881  13.843
47056W        W16871   8.397  31.088   1.767
47057W        W16872   6.823   9.777   2.417
47058W        W16873  13.317  32.893   4.253
47059W        W16874   0.965   7.706  14.316
47060W        W16875  30.039   7.707   2.324
47061W        W16876  10.789  19.199  12.558
47062W        W16877  31.488  37.866   4.736
47063W        W16878  37.499  17.646  10.512
47064W        W16879   7.315   8.860   3.699
47065W        W16880  24.653  29.044  14.392
47066W        W16881   0.807  28.137   5.304
47067W        W16882   1.925  22.617  11.859
47068W        W16883  34.958  38.484   0.777
47069W        W16884  16.572  26.979  12.407
47070W        W16885   4.821  27.094   4.733
47071W        W16886  24.671  43.434  13.965
47072W        W16887  19.608  10.277  12.919
47073W        W16888  18.615  36.574   0.930
47074W        W16889  43.842  12.736  11.959
47075W        W16890  14.257  27.566  10.937
47076W        W16891  43.824   1.445  14.434
47077W        W16892  25.563  23.579  12.945
47078W        W16893  15.678  31.966  11.444
47079W        W16894  40.385   3.315  14.439
47080W        W16895   7.757   4.231   1.380
47081W        W16896  39.314  10.218  11.951
47082W        W16897  15.716   2.762  11.396
47083W        W16898   9.825  27.073  10.449
47084W        W16899   5.825  13.154  13.993
47085W        W16900  35.448  37.946   4.183
47086W        W16901   0.381  10.336  13.006
47087W        W16902   0.768   5.787  14.763
47088W        W16903  18.099   6.779  11.392
47089W        W16904  37.495   5.306  11.097
47090W        W16905  16.704   5.774  13.860
47091W        W16906  16.658  31.610   4.178
47092W        W16907  36.062  18.582   2.902
47093W        W16908  43.392  38.895  14.339
47094W        W16909  37.465  33.489  12.022
47095W        W16910  16.654   5.233   2.719
47096W        W16911  35.460  37.024   1.874
47097W        W16912  28.975  18.108  12.913
47098W        W16913  15.217   1.783  12.473
47099W        W16914  41.306   9.207   1.895
47100W        W16915  12.732  23.554  14.788
47101W        W16916  10.805  19.684  12.557
47102W        W16917  26.062  16.634   4.635
47103W        W16918  34.448   2.238   1.779
47104W        W16919   3.930  39.841   1.223
47105W        W16920  32.958  17.263  11.033
47106W        W16921   1.265  10.148  11.561
47107W        W16922   5.431  44.380   1.447
47108W        W16923  19.746  25.564   3.787
47109W        W16924  33.491   9.858   3.631
47110W        W16925  11.317  32.501   1.409
47111W        W16926   6.262  38.043   2.675
47112W        W16927  32.026   3.249  11.010
47113W        W16928  16.138  10.825   0.384
47114W        W16929  38.411  26.095  13.850
47115W        W16930   1.372  22.747   1.342
47116W        W16931  21.678  23.134   3.640
47117W        W16932  39.896  27.521   2.700
47118W        W16933  11.766  28.054   1.897
47119W        W16934  26.990  20.580  13.344
47120W        W16935   4.246  27.572   1.410
47121W        W16936  36.897   3.272  12.072
47122W        W16937  37.341  18.662   3.349
47123W        W16938  29.066  35.023   1.774
47124W        W16939  36.362  30.607   3.221
47125W        W16940  37.830  43.918   0.423
47126W        W16941  35.415  23.706  11.560
47127W        W16942  23.194  28.105  12.073
47128W        W16943   7.369  31.068  13.308
47129W        W16944  29.921  39.911  13.047
47130W        W16945  31.446  13.126   1.444
47131W        W16946  24.185  34.037   4.243
47132W        W16947  34.890  13.289   4.194
47133W        W16948   3.715   7.869  13.930
47134W        W16949  22.572  37.012  11.074
47135W        W16950  38.846  18.255  13.002
47136W        W16951  38.873  27.469   0.885
47137W        W16952  35.516  23.680  10.438
47138W        W16953  37.550  33.586   4.341
47139W        W16954  16.283  27.455   4.754
47140W        W16955  33.002  34.609  13.947
47141W        W16956  24.111  26.001   1.715
47142W        W16957  22.015  31.501  10.900
47143W        W16958  24.588   1.779   1.298
47144W        W16959  35.359  14.640   2.326
47145W        W16960  29.451  20.632   1.381
47146W        W16961  33.929   5.308  14.834
47147W        W16962  17.135  23.621   1.306
47148W        W16963   3.776   2.237  12.416
47149W        W16964  36.406  35.106   9.941
47150W        W16965  28.114  28.119  10.045
47151W        W16966  12.808  26.676  14.500
47152W        W16967  23.127   5.382   4.159
47153W        W16968  26.530  10.169  12.542
47154W        W16969  12.834  44.797   4.188
47155W        W16970  34.526  34.493   1.334
47156W        W16971  10.373  35.419   4.724
47157W        W16972   3.417  10.286   4.754
47158W        W16973  15.200   1.970  10.413
47159W        W16974  22.723  27.675   4.288
47160W        W16975   6.259  36.010   1.853
47161W        W16976  43.389   5.248  10.974
47162W        W16977  11.299  35.912  11.435
47163W        W16978  32.125  37.394  10.029
47164W        W16979  27.631  23.732   0.936
47165W        W16980  37.482  15.127  11.531
47166W        W16981  15.722   7.355  11.411
47167W        W16982  39.862  10.724   1.381
47168W        W16983  39.379   8.723   4.766
47169W        W16984  42.944   9.205   4.200
47170W        W16985  33.099  32.474  14.447
47171W        W16986  27.596  18.172   2.714
47172W        W16987  43.357  16.167  13.891
47173W        W16988   5.776   7.271   1.931
47174W        W16989  42.426  38.844  14.460
47175W        W16990  12.234  29.986  10.899
47176W        W16991  22.591  38.039   4.221
47177W        W16992  32.549  41.800   4.788
47178W        W16993  13.267  14.211  10.425
47179W        W16994  13.213  10.182   0.451
47180W        W16995  34.049  37.889   3.328
47181W        W16996  10.216  23.159  10.461
47182W        W16997  36.921  19.225   4.666
47183W        W16998  36.049  13.115   3.159
47184W        W16999  11.727  31.100   4.152
47185W        W17000  41.384  38.401   3.705
47186W        W17001   9.200  40.383   5.211
47187W        W17002  14.193  15.134   2.794
47188W        W17003  44.409  42.907   1.789
47189W        W17004  43.341   9.261  13.409
47190W        W17005   2.227   7.701   2.306
47191W        W17006  16.811  44.828  11.612
47192W        W17007   0.462  12.619  11.603
47193W        W17008  31.414  42.305   1.309
47194W        W17009  32.991   2.416  13.007
47195W        W17010  32.964  41.037  13.001
47196W        W17011  42.950  30.638   2.218
47197W        W17012  13.845   9.228  13.837
47198W        W17013  41.019   4.295  14.953
47199W        W17014  17.303  30.139   0.837
47200W        W17015  26.658  28.955  14.386
47201W        W17016  44.439  43.506   1.383
47202W        W17017  25.046  25.654   4.776
47203W        W17018  30.614  26.620  13.389
47204W        W17019   3.346  35.436   0.758
47205W        W17020   3.249  30.037  11.394
47206W        W17021  26.487  35.412   3.181
47207W        W17022  25.477  38.420   0.957
47208W        W17023   7.410  42.966  13.368
47209W        W17024  10.175  23.619  14.879
47210W        W17025  24.686  19.776  11.005
47211W        W17026  38.380  14.742   0.444
47212W        W17027  18.288   8.349  12.397
47213W        W17028  19.158   8.198   4.168
47214W        W17029  28.573  28.048  14.864
47215W        W17030  22.035  17.072   3.368
47216W        W17031  21.743  28.131  14.932
47217W        W17032  16.634  12.201   1.912
47218W        W17033  22.167  35.523   1.315
47219W        W17034   1.901   7.366  12.453
47220W        W17035   7.305  18.290  11.078
47221W        W17036   0.868  15.762  11.862
47222W        W17037   2.242  36.561  10.965
47223W        W17038  26.581  36.845  14.301
47224W        W17039  24.670  29.017  14.027
47225W        W17040   1.450   3.373  13.368
47226W        W17041  36.995  33.471   3.191
47227W        W17042  18.600   2.298   1.323
47228W        W17043   4.890   9.356   5.093
47229W        W17044  30.916  25.592   3.806
47230W        W17045   6.420  32.556   1.441
47231W        W17046  20.703  39.828   2.389
47232W        W17047  34.604   5.421  10.537
47233W        W17048  15.620  10.243   3.283
47234W        W17049  35.480   6.322  11.013
47235W        W17050  34.430  26.619   1.876
47236W        W17051  31.916  41.413  14.371
47237W        W17052  22.505  33.508   0.907
47238W        W17053  17.198  24.517  14.462
47239W        W17054   5.299  25.516   1.426
47240W        W17055   5.389  22.221   2.714
47241W        W17056   3.251  14.281  14.880
47242W        W17057  39.464   9.282  10.557
47243W        W17058  39.019  10.651  13.342
47244W        W17059   8.293  19.643  10.597
47245W        W17060  28.467  22.732   2.864
47246W        W17061  34.873  16.687   0.845
47247W        W17062  14.216   7.288  11.469
47248W        W17063  32.393  16.797  12.922
47249W        W17064   7.338  28.013  10.557
47250W        W17065  14.754  27.188   3.721
47251W        W17066   7.289   3.283   4.332
47252W        W17067  13.281  19.056  13.358
47253W        W17068  42.823  26.208   3.807
47254W        W17069  17.154  30.158   2.257
47255W        W17070   7.870  23.600   2.298
47256W        W17071   0.332   9.267   4.779
47257W        W17072  37.452   8.787   1.328
47258W        W17073  27.985   4.329  10.547
47259W        W17074  34.006  36.060   0.443
47260W        W17075  36.439  31.988   3.806
47261W        W17076  18.201  43.324  11.555
47262W        W17077  14.318  38.943   4.188
47263W        W17078  29.055  16.593  10.578
47264W        W17079  42.843  11.182   4.308
47265W        W17080   5.776   8.880  13.424
47266W        W17081  29.512  41.448  11.891
47267W        W17082   1.344  44.795  10.412
47268W        W17083  12.662  40.443  11.392
47269W        W17084  33.084  15.159  12.441
47270W        W17085  21.211  40.979   2.409
47271W        W17086  38.395  22.166   4.632
47272W        W17087  21.706  30.150   2.354
47273W        W17088  32.978  40.014  11.422
47274W        W17089  37.897   0.255  14.809
47275W        W17090  12.360   2.909   2.321
47276W        W17091  43.838  41.450  11.590
47277W        W17092  32.457  32.564  14.311
47278W        W17093  22.240  20.618   2.853
47279W        W17094   5.714  17.087  12.968
47280W        W17095  28.064  20.104   1.377
47281W        W17096  23.127  17.555  14.460
47282W        W17097  14.638   2.948   3.864
47283W        W17098  35.462   3.308   4.750
47284W        W17099  35.066  24.209   2.847
47285W        W17100  43.508   2.803   1.367
47286W        W17101  41.824  23.547   2.802
47287W        W17102  20.163  30.163  11.044
47288W        W17103   0.409  31.131  13.537
47289W        W17104  29.425   3.750  12.423
47290W        W17105  39.495  13.323   0.922
47291W        W17106  32.633  39.909  14.840
47292W        W17107  32.055  28.054  14.283
47293W        W17108  14.221  37.469  14.837
47294W        W17109  30.032  32.061  13.447
47295W        W17110  40.913  30.604   0.363
47296W        W17111  36.589  23.579  11.520
47297W        W17112  20.686  27.134  11.567
47298W        W17113   8.669   0.299   0.482
47299W        W17114  40.519  40.044  11.867
47300W        W17115  34.541  13.769   4.717
47301W        W17116   0.343  18.584  13.313
47302W        W17117   5.291  36.462   0.248
47303W        W17118  30.943  20.546  11.049
47304W        W17119  29.644  39.388  12.487
47305W        W17120  19.577  36.007   0.780
47306W        W17121  14.251  20.687  12.846
47307W        W17122  24.721  14.695  12.339
47308W        W17123   7.364  39.518   4.281
47309W        W17124  10.689  22.201  12.544
47310W        W17125   9.860   0.880  14.848
47311W        W17126  33.474  42.956   5.128
47312W        W17127  13.147  11.229  14.306
47313W        W17128   2.907  18.139   4.724
47314W        W17129  22.747  33.046  12.993
47315W        W17130  33.433   2.731  12.437
47316W        W17131   4.234  20.671   0.388
47317W        W17132  19.117  17.676  11.421
47318W        W17133  31.141   6.723  13.829
47319W        W17134  21.132  31.014  12.005
47320W        W17135  36.975  36.549   1.741
47321W        W17136  42.870   5.304  12.577
47322W        W17137  28.544  43.014  13.318
47323W        W17138   5.850   0.275  11.460
47324W        W17139  26.572  32.022   3.386
47325W        W17140  31.441  24.483  12.953
47326W        W17141  39.061  20.167  12.518
47327W        W17142  32.038  38.979   1.313
47328W        W17143  43.421  19.766   1.388
47329W        W17144  33.080  28.027   4.837
47330W        W17145   2.951  16.786  12.878
47331W        W17146  26.994  25.106   2.801
47332W        W17147  37.887  18.786   1.235
47333W        W17148  18.076   9.826   4.222
47334W        W17149   4.700  39.012   2.743
47335W        W17150  30.124   3.342  11.521
47336W        W17151  12.682  36.442  10.994
47337W        W17152  43.829  42.828  12.925
47338W        W17153  44.848  42.404   4.191
47339W        W17154  24.569   7.213  11.390
47340W        W17155  39.512  41.384  10.449
47341W        W17156  30.634  28.486  13.391
47342W        W17157  35.525  28.175   2.407
47343W        W17158  37.411  35.457   1.304
47344W        W17159   2.801   7.407  13.336
47345W        W17160  32.960  41.351   1.818
47346W        W17161  19.227   1.440   3.740
47347W        W17162  44.010   8.730  14.480
47348W        W17163  41.334  10.265  13.456
47349W        W17164  22.006  28.627  13.894
47350W        W17165   9.375  17.304   0.408
47351W        W17166  19.155  39.987  13.810
47352W        W17167  37.429   6.382   0.477
47353W        W17168  21.667  33.521  13.000
47354W        W17169  19.552  40.054   1.341
47355W        W17170  13.669  17.062  13.020
47356W        W17171  36.034  21.254  12.882
47357W        W17172  18.216  43.963  11.503
47358W        W17173  41.993  35.486   1.867
47359W        W17174  30.424  19.652  13.836
47360W        W17175  13.212  14.778  12.544
47361W        W17176  23.589  41.811  12.011
47362W        W17177  44.272   7.203   2.220
47363W        W17178  42.805  36.389   0.378
47364W        W17179  17.744  35.101  14.937
47365W        W17180  10.217  39.005  13.854
47366W        W17181  11.694  34.062   4.208
47367W        W17182  43.879  36.842   1.868
47368W        W17183  30.950  24.611  13.005
47369W        W17184  16.743   1.340  13.844
47370W        W17185  12.657  13.712   1.298
47371W        W17186  35.572   4.407  10.515
47372W        W17187  28.994  35.866  10.960
47373W        W17188  32.982  26.654   2.395
47374W        W17189  12.308  31.931  13.532
47375W        W17190  21.169  27.517   3.281
47376W        W17191  29.528   6.790  11.119
47377W        W17192   6.873  11.149  14.012
47378W        W17193  26.963  35.561   4.122
47379W        W17194   3.352  37.934   3.738
47380W        W17195  21.739   0.332  10.636
47381W        W17196  19.752  17.292  12.378
47382W        W17197  16.626  13.628   4.677
47383W        W17198  15.100  36.379   1.723
47384W        W17199  16.738   2.839  12.554
47385W        W17200  13.165  32.571  14.771
47386W        W17201  26.205  43.832   0.790
47387W        W17202  22.078   9.881   3.168
47388W        W17203  18.615   9.246  13.938
47389W        W17204   7.203  12.146   2.732
47390W        W17205  33.996  13.800   2.206
47391W        W17206  10.746  26.981  10.964
47392W        W17207   0.921   8.716   0.847
47393W        W17208  33.986  33.880  10.462
47394W        W17209  39.332  38.464  11.444
47395W        W17210  38.416  12.826  14.778
47396W        W17211  11.866  28.034   4.284
47397W        W17212  31.012  23.103   3.759
47398W        W17213   9.686   8.693   3.778
47399W        W17214  32.024  31.500  11.488
47400W        W17215  37.538  32.590   3.794
47401W        W17216   2.425  15.200   0.830
47402W        W17217  24.595   9.386  14.872
47403W        W17218   4.279  22.557  12.524
47404W        W17219   3.388  32.082   4.777
47405W        W17220  40.333   8.304  10.633
47406W        W17221  16.188   9.166   3.247
47407W        W17222  27.175  39.450  12.028
47408W        W17223  19.248  38.016  13.514
47409W        W17224  23.009  35.962   1.874
47410W        W17225  36.439  18.250   3.710
47411W        W17226   6.335  32.065   4.619
47412W        W17227  21.663  36.554  11.057
47413W        W17228  37.009   3.729   1.771
47414W        W17229  40.445  34.086   2.844
47415W        W17230  21.058  41.896   4.778
47416W        W17231  19.075  23.571  13.439
47417W        W17232  44.858   0.747   3.365
47418W        W17233  43.922   6.811   4.684
47419W        W17234  14.243  27.532  12.574
47420W        W17235   2.811  17.773  14.301
47421W        W17236  14.242  40.798  13.307
47422W        W17237  14.268  22.137   0.813
47423W        W17238   9.293  13.742   1.808
47424W        W17239  29.169   3.318  13.350
47425W        W17240   2.260  42.491   4.210
47426W        W17241   5.426  36.060   5.271
47427W        W17242  11.789  36.536   4.183
47428W        W17243  29.461  16.596  13.910
47429W        W17244  30.126   4.401  11.605
47430W        W17245  14.694  32.119  14.965
47431W        W17246  22.540  42.441  11.957
47432W        W17247   4.253   9.657  14.770
47433W        W17248   9.268  28.948  14.916
47434W        W17249  39.914  41.416  13.414
47435W        W17250   3.315   4.744  11.585
47436W        W17251  20.673  34.923  14.477
47437W        W17252  14.176   5.745  10.099
47438W        W17253  32.631  22.028  10.953
47439W        W17254   6.372   9.200   0.360
47440W        W17255   6.204  32.438  12.071
47441W        W17256  33.960  27.003  13.993
47442W        W17257  43.304   2.256  13.396
47443W        W17258  19.099   5.360   2.350
47444W        W17259   6.863   6.768  10.543
47445W        W17260  15.663  30.573  11.923
47446W        W17261  22.250  29.093   2.746
47447W        W17262  21.678  40.484  12.010
47448W        W17263  35.992  33.075  14.476
47449W        W17264  27.998  28.672  13.057
47450W        W17265  35.909   6.359   4.319
47451W        W17266  36.424  17.679  10.480
47452W        W17267  26.580  18.589   1.418
47453W        W17268  13.654  44.867  10.491
47454W        W17269  30.151  15.732  12.461
47455W        W17270  13.803   2.403   4.636
47456W        W17271   7.244  28.487   3.635
47457W        W17272  20.673   0.312   0.299
47458W        W17273  28.681  17.638  10.436
47459W        W17274   3.288  39.424  11.399
47460W        W17275  35.101  27.035   0.329
47461W        W17276  42.367  10.249   0.816
47462W        W17277  42.367  19.172   0.298
47463W        W17278  44.974   4.835   2.258
47464W        W17279  39.504   1.929   2.851
47465W        W17280  13.794  21.046   1.820
47466W        W17281  15.616  29.959  11.917
47467W        W17282  40.814  37.874   0.266
47468W        W17283  42.449  20.540   1.892
47469W        W17284  42.520   5.815   3.291
47470W        W17285  41.402   9.841   4.730
47471W        W17286  38.356  42.909   0.778
47472W        W17287  17.675  17.120  10.524
47473W        W17288  33.587  22.025  13.472
47474W        W17289   0.783  30.056  13.337
47475W        W17290  19.549   7.719  11.995
47476W        W17291  16.609  34.948   4.762
47477W        W17292  20.685  12.317  14.458
47478W        W17293  33.487  14.152   1.292
47479W        W17294  32.426  37.392  12.345
47480W        W17295  28.103  31.415  11.076
47481W        W17296  39.006  24.705  11.504
47482W        W17297   1.878   2.231  13.365
47483W        W17298   2.738  28.948  12.925
47484W        W17299  37.951  24.707  11.100
47485W        W17300  11.650  26.192  12.447
47486W        W17301  22.996  28.961   0.455
47487W        W17302  44.315   1.457  11.059
47488W        W17303  32.089   5.241  13.824
47489W        W17304  13.678  13.307   3.741
47490W        W17305  28.184  12.737   1.802
47491W        W17306  37.458  43.825   1.293
47492W        W17307  40.995  31.959  14.009
47493W        W17308   9.857   8.266  10.935
47494W        W17309   0.850  34.379  11.056
47495W        W17310  39.028  16.777  13.409
47496W        W17311  10.198  14.310   0.465
47497W        W17312  31.405  12.189  12.070
47498W        W17313  35.415  41.939  14.762
47499W        W17314  16.609   4.312  14.024
47500W        W17315  10.748  36.368   4.305
47501W        W17316  22.146  44.390  14.811
47502W        W17317   6.363  44.756  11.463
47503W        W17318  20.528  38.840  13.349
47504W        W17319  34.006  10.382  13.842
47505W        W17320  16.605  27.989  10.636
47506W        W17321  38.947   7.215  10.612
47507W        W17322   5.283  41.957   4.769
47508W        W17323  28.442  20.663  10.507
47509W        W17324  12.640  38.849  13.466
47510W        W17325   8.895  17.617   3.341
47511W        W17326  17.561   9.337   2.357
47512W        W17327   6.839  43.794   4.278
47513W        W17328   2.815   8.661   3.176
47514W        W17329  25.043  21.104   3.836
47515W        W17330  41.907  30.553   4.791
47516W        W17331   6.814  11.662  12.001
47517W        W17332   2.823  40.428  14.361
47518W        W17333  36.400  11.245   1.417
47519W        W17334   5.777  18.605  12.564
47520W        W17335  36.540   6.921  11.878
47521W        W17336  28.136   3.734  11.983
47522W        W17337  42.309  31.062   3.330
47523W        W17338  42.381   4.210   2.391
47524W        W17339  31.149  29.576   5.190
47525W        W17340   3.867  34.105   0.479
47526W        W17341   9.778   4.259   2.749
47527W        W17342   7.703  19.725   4.238
47528W        W17343  26.602  27.642  11.398
47529W        W17344   9.793   7.248   3.666
47530W        W17345  40.804  26.072   3.814
47531W        W17346   0.419   1.272   2.382
47532W        W17347  18.770  35.964   1.269
47533W        W17348   5.269  26.988  12.561
47534W        W17349   7.414  23.624  10.992
47535W        W17350  34.070   5.808   2.825
47536W        W17351  16.597  24.976   1.767
47537W        W17352   5.716  33.383  12.414
47538W        W17353  31.143   2.859  13.897
47539W        W17354   6.744  12.800   4.236
47540W        W17355  13.208  19.777  13.954
47541W        W17356  44.860  25.020   2.304
47542W        W17357  23.192  24.509   2.689
47543W        W17358  32.942  33.107   4.747
47544W        W17359   9.378  32.611  13.471
47545W        W17360   9.251  44.918   0.441
47546W        W17361   3.446  23.670  10.920
47547W        W17362  25.017  19.684  11.477
47548W        W17363  12.306  16.642   2.719
47549W        W17364   3.791  28.480  12.090
47550W        W17365  34.608  40.033  14.275
47551W        W17366  30.096  38.490   1.268
47552W        W17367  25.118  28.027   3.287
47553W        W17368   5.208   8.396   0.418
47554W        W17369   3.395  25.965   2.884
47555W        W17370  26.997   8.759   5.207
47556W        W17371   3.286  10.825   0.360
47557W        W17372  17.131   5.209   0.928
47558W        W17373  14.602  34.457   2.213
47559W        W17374  16.591  38.075   4.309
47560W        W17375  23.230  36.996   2.383
47561W        W17376  29.565  37.383   3.218
47562W        W17377  40.883  24.600  11.898
47563W        W17378  24.218  19.083  11.562
47564W        W17379  42.937  11.760  14.417
47565W        W17380  22.702  19.586   5.230
47566W        W17381  22.040  10.847   3.248
47567W        W17382  41.832  24.023  12.470
47568W        W17383  38.891  25.675  14.294
47569W        W17384  36.965   6.793  13.385
47570W        W17385  38.857  31.438  10.136
47571W        W17386   0.930  35.022   5.161
47572W        W17387   0.881  23.178   4.283
47573W        W17388   8.229  24.154  12.426
47574W        W17389  10.773  41.368  12.480
47575W        W17390  22.657  27.616   4.828
47576W        W17391  43.792   2.416  14.946
47577W        W17392  34.555  21.238  10.460
47578W        W17393  42.937  14.659   3.718
47579W        W17394  44.462  38.409   4.742
47580W        W17395  13.641  41.909  13.890
47581W        W17396  22.040  19.636   0.772
47582W        W17397  32.528  19.561   3.371
47583W        W17398  20.765  35.976  14.319
47584W        W17399  39.426  20.104  10.891
47585W        W17400  21.209  43.508   9.498
47586W        W17401  18.711  41.994   0.285
47587W        W17402  20.187  23.532  11.124
47588W        W17403  32.090  20.667  11.024
47589W        W17404  39.854  36.481  11.954
47590W        W17405  24.039   7.865  11.589
47591W        W17406  27.161   9.278  12.877
47592W        W17407  30.641  22.192  12.463
47593W        W17408   1.321   0.949  14.784
47594W        W17409  41.308  30.527  13.932
47595W        W17410  41.414  24.626  12.491
47596W        W17411  17.070  20.227   4.603
47597W        W17412  36.362   8.209  13.341
47598W        W17413   8.762  16.137   3.177
47599W        W17414  14.648   7.213   9.930
47600W        W17415  42.015   3.357   1.898
47601W        W17416  20.686  31.564  12.829
47602W        W17417  24.200  15.307   4.161
47603W        W17418  41.325  44.797  14.890
47604W        W17419  23.637  25.007   3.232
47605W        W17420  34.074  16.599  14.337
47606W        W17421   7.210  30.452  11.124
47607W        W17422   0.747  25.491   4.328
47608W        W17423  22.636  42.861   2.370
47609W        W17424  35.482  31.516  14.961
47610W        W17425  37.059  28.666   4.179
47611W        W17426   2.842   1.416  13.055
47612W        W17427   3.244   5.892   1.718
47613W        W17428   6.269  32.416   0.728
47614W        W17429  22.538  33.973   0.879
47615W        W17430  32.439  29.061  11.963
47616W        W17431   9.393  18.659  14.801
47617W        W17432   1.418  14.683  10.597
47618W        W17433   9.266   0.286   4.213
47619W        W17434   5.326  19.083   1.796
47620W        W17435  33.875  16.251   1.323
47621W        W17436  10.150  35.583   1.855
47622W        W17437  16.181  15.815  10.122
47623W        W17438   9.183   6.282  13.475
47624W        W17439  43.359  18.268   9.920
47625W        W17440  10.729  29.106   3.864
47626W        W17441  18.240   2.372   2.213
47627W        W17442   4.432  19.163   3.336
47628W        W17443  27.662  27.999   0.877
47629W        W17444  27.566  19.097   2.369
47630W        W17445   3.826  20.540   3.210
47631W        W17446  29.456  21.687   3.769
47632W        W17447  22.661  30.442   0.803
47633W        W17448  31.447  16.783   4.307
47634W        W17449  10.826  42.335  10.615
47635W        W17450   9.269  23.631  14.389
47636W        W17451  27.958  13.120  12.411
47637W        W17452  20.558  44.846   0.295
47638W        W17453   6.215  19.720  13.351
47639W        W17454  40.541  24.036  14.475
47640W        W17455  27.963  16.117  14.765
47641W        W17456  35.956  17.277   1.883
47642W        W17457  30.987  26.618  13.016
47643W        W17458  35.937  18.549   0.432
47644W        W17459  24.015  10.246  13.893
47645W        W17460   2.431  29.037  13.392
47646W        W17461  14.119  14.697   0.348
47647W        W17462  20.158  10.328   0.415
47648W        W17463  27.130   7.402   4.747
47649W        W17464  34.526   0.256  12.445
47650W        W17465  18.652  16.810  13.824
47651W        W17466  15.199  44.411  12.542
47652W        W17467  11.812   8.372  11.539
47653W        W17468  13.307  22.553  11.606
47654W        W17469  27.516   6.197  10.454
47655W        W17470  39.908  13.233  11.909
47656W        W17471   9.251  43.309   4.176
47657W        W17472  19.145  30.981  12.389
47658W        W17473  38.435  10.193  10.954
47659W        W17474  43.803  17.218   4.664
47660W        W17475  25.098  30.988  11.942
47661W        W17476  33.906  32.484  11.486
47662W        W17477  35.377  22.609   4.632
47663W        W17478  42.784  19.260   0.935
47664W        W17479  26.068  11.171   0.743
47665W        W17480  30.146   1.252   0.396
47666W        W17481  22.174  25.139   3.177
47667W        W17482  15.087  30.952  11.057
47668W        W17483  31.606  40.396   0.282
47669W        W17484  19.569  17.305   1.735
47670W        W17485  34.594   0.907  12.429
47671W        W17486   0.798  42.521  10.963
47672W        W17487   5.282  16.696  12.454
47673W        W17488  28.048   5.241  14.946
47674W        W17489  20.545  40.044   3.656
47675W        W17490  37.398  23.221   2.818
47676W        W17491  31.150   3.351   3.778
47677W        W17492  10.681   5.885   4.727
47678W        W17493  38.366  27.159   1.741
47679W        W17494  28.087   3.461   3.785
47680W        W17495  35.593  43.275   1.774
47681W        W17496   0.494  38.552   4.323
47682W        W17497  24.621  40.460  11.087
47683W        W17498  36.049  15.788   4.818
47684W        W17499  36.516  25.505  14.006
47685W        W17500  41.316  11.259  13.464
47686W        W17501  24.030  12.164  12.927
47687W        W17502  40.026  35.060   1.780
47688W        W17503   6.304  19.735   0.835
47689W        W17504  41.844  30.928  13.011
47690W        W17505  38.866   1.241  13.308
47691W        W17506  36.576  33.473   0.862
47692W        W17507  33.034   9.864   2.286
47693W        W17508  27.645  17.097   0.478
47694W        W17509   6.697  12.156  12.355
47695W        W17510  24.110  19.217  14.456
47696W        W17511   1.319  16.615   0.833
47697W        W17512  24.684   6.288  12.440
47698W        W17513   8.676  21.109  13.386
47699W        W17514  24.675   3.440  10.624
47700W        W17515   4.943  36.956   1.810
47701W        W17516  11.280  23.124  11.997
47702W        W17517  21.237  42.336   4.729
47703W        W17518  23.529   3.801  14.334
47704W        W17519  16.733  41.426   3.646
47705W        W17520   2.352  33.390   1.927
47706W        W17521  16.089  40.309   4.671
47707W        W17522  15.166  27.547  13.463
47708W        W17523  14.630  25.127   2.419
47709W        W17524  40.368   3.398  10.404
47710W        W17525  38.864   9.267  14.032
47711W        W17526  23.667   4.359  14.280
47712W        W17527  41.354  29.454   1.855
47713W        W17528  35.486  42.480  13.344
47714W        W17529  34.465  34.031   2.882
47715W        W17530  28.945  31.571   1.316
47716W        W17531  41.876   9.232   4.692
47717W        W17532   7.192  43.375  11.451
47718W        W17533  37.488  18.652   1.408
47719W        W17534   5.220  19.692   3.332
47720W        W17535   9.166  35.859   2.673
47721W        W17536   3.916  21.104  14.445
47722W        W17537   6.867  34.434  10.453
47723W        W17538   6.721  21.673  14.767
47724W        W17539  39.913  40.427   0.814
47725W        W17540   6.684  10.162   2.825
47726W        W17541   2.332   5.717  11.390
47727W        W17542  25.172   1.911   4.661
47728W        W17543  13.345  12.635  14.024
47729W        W17544  26.688  16.687  10.519
47730W        W17545   2.801  11.801   2.366
47731W        W17546  27.041  21.700   1.920
47732W        W17547  41.354  27.996  10.512
47733W        W17548  43.884  29.052  13.938
47734W        W17549  23.006  20.127  11.915
47735W        W17550  12.630  10.659   1.243
47736W        W17551   9.744  11.831  14.006
47737W        W17552  16.255  43.502   3.349
47738W        W17553  25.963  18.657   4.599
47739W        W17554  21.616  27.583  12.485
47740W        W17555  33.504   1.952  11.033
47741W        W17556   0.746  34.108  11.015
47742W        W17557   1.281  11.306   0.847
47743W        W17558  15.608  40.492   3.378
47744W        W17559  33.924  29.074   3.821
47745W        W17560  36.067  36.465   3.776
47746W        W17561  43.957   0.859  13.982
47747W        W17562  30.474  41.529  13.925
47748W        W17563   7.277  12.832  14.816
47749W        W17564   8.375  38.489   1.844
47750W        W17565  32.497  42.008  11.080
47751W        W17566  44.263  31.631  12.569
47752W        W17567  33.618  23.612   2.187
47753W        W17568   3.838   9.349   0.401
47754W        W17569  40.956   0.440   0.353
47755W        W17570   8.845  15.304   1.235
47756W        W17571  20.072  24.692   0.307
47757W        W17572   7.249  40.904  14.333
47758W        W17573  14.168  34.591  14.331
47759W        W17574  27.127   2.964   3.639
47760W        W17575  10.149  38.506   1.723
47761W        W17576  28.623  30.517   4.598
47762W        W17577   4.823  39.044   4.146
47763W        W17578  41.479  33.488   1.276
47764W        W17579   2.451  24.089  11.529
47765W        W17580  24.987  21.749  12.370
47766W        W17581  25.966  19.667   4.186
47767W        W17582  34.897  14.792  12.932
47768W        W17583   7.327  30.976  13.927
47769W        W17584   7.699  16.171  13.020
47770W        W17585  38.973   0.903   2.326
47771W        W17586  40.486  40.015  14.927
47772W        W17587  37.878  26.484  13.353
47773W        W17588  31.573  20.132   2.342
47774W        W17589  16.246  34.451  12.364
47775W        W17590  28.107  34.933   0.399
47776W        W17591  13.717  19.540   4.780
47777W        W17592  41.792  20.604   2.202
47778W        W17593  34.562  34.095   4.210
47779W        W17594   2.369  29.532  13.944
47780W        W17595  12.178  33.433  10.937
47781W        W17596   9.167  38.823  13.793
47782W        W17597  29.575  11.731   0.419
47783W        W17598  26.068   4.706  13.992
47784W        W17599  23.056  41.938  13.308
47785W        W17600  20.099  38.386   4.306
47786W        W17601  22.545  22.086   9.993
47787W        W17602  11.647  20.200   3.833
47788W        W17603  16.681   0.817   0.900
47789W        W17604   9.865   8.245   3.231
47790W        W17605   8.693   5.747  11.592
47791W        W17606   1.429   1.737   0.466
47792W        W17607  26.458   3.310  13.317
47793W        W17608  16.264  20.256  14.784
47794W        W17609  28.952  15.759  10.138
47795W        W17610  19.563  41.987  11.548
47796W        W17611   5.286  32.632  14.398
47797W        W17612  27.968   2.743  13.898
47798W        W17613   7.838  25.535  13.318
47799W        W17614  15.823  40.992   1.768
47800W        W17615  15.595  35.853   2.244
47801W        W17616  17.683   2.955  14.025
47802W        W17617   0.771  15.584  14.974
47803W        W17618  37.547  33.101   5.220
47804W        W17619  21.513  10.662   1.729
47805W        W17620  16.124  35.597  13.046
47806W        W17621   6.883   8.857  10.485
47807W        W17622  43.324   2.445   2.894
47808W        W17623   7.259  23.010  13.952
47809W        W17624  22.643  38.384   3.683
47810W        W17625  42.790  20.717  14.353
47811W        W17626   7.736   5.256  13.951
47812W        W17627  16.641  12.622   2.418
47813W        W17628  43.410  37.398  10.541
47814W        W17629   7.795   5.382  12.952
47815W        W17630  38.530  26.662   0.740
47816W        W17631  12.835  19.536   2.883
47817W        W17632  27.590  34.420  14.468
47818W        W17633  14.820   2.889   2.256
47819W        W17634  33.097  28.052  14.436
47820W        W17635   8.676  12.635  10.911
47821W        W17636  12.209  22.155   2.668
47822W        W17637  16.701   2.769  11.404
47823W        W17638  26.701  31.025  11.017
47824W        W17639  43.902   1.908   4.832
47825W        W17640   7.311  43.996   0.403
47826W        W17641  25.026  26.207  11.952
47827W        W17642  38.355  28.166   1.821
47828W        W17643  41.467  43.416   4.753
47829W        W17644  26.209  38.931   4.613
47830W        W17645  16.800  10.205  13.857
47831W        W17646  23.103  43.485   1.220
47832W        W17647  41.922  42.332  11.564
47833W        W17648  15.582   5.420   4.319
47834W        W17649  31.591   2.281  13.515
47835W        W17650  40.957   6.916   5.660
47836W        W17651   1.840  24.116   4.196
47837W        W17652  35.067  14.235   4.165
47838W        W17653  40.384   9.239  13.352
47839W        W17654   4.443  39.378  11.524
47840W        W17655  33.076  41.958  11.012
47841W        W17656  26.124   8.709  12.940
47842W        W17657  43.952  43.935  11.957
47843W        W17658  36.065  32.096   4.240
47844W        W17659  30.418  44.991  11.427
47845W        W17660   5.692   1.914   1.773
47846W        W17661  37.567  22.629   1.777
47847W        W17662  19.072  44.458   3.844
47848W        W17663  28.950  19.286  14.008
47849W        W17664  10.850  12.264   0.433
47850W        W17665  44.503  32.967  13.034
47851W        W17666  40.824  34.451  14.322
47852W        W17667   2.346  33.520   3.686
47853W        W17668  30.983  28.562   2.692
47854W        W17669  17.699  40.012  13.901
47855W        W17670  35.508  15.728  10.117
47856W        W17671  27.525  37.458   0.761
47857W        W17672   8.271  27.692   4.718
47858W        W17673  31.913  23.156  13.508
47859W        W17674   9.871  25.469  13.964
47860W        W17675  18.746  29.174  11.923
47861W        W17676  33.952  22.252  13.407
47862W        W17677  29.456   1.433  14.325
47863W        W17678  43.469  32.117   4.820
47864W        W17679   8.371  34.506  14.356
47865W        W17680   5.206  30.909   4.820
47866W        W17681  37.013   2.880  13.854
47867W        W17682   9.885  25.519  12.428
47868W        W17683  16.229  40.999  11.955
47869W        W17684   7.372  24.495   1.366
47870W        W17685  32.918  19.092  12.471
47871W        W17686  30.473   7.729   0.444
47872W        W17687  33.086  12.115  10.417
47873W        W17688  30.039  35.459  12.517
47874W        W17689  43.480   8.678   5.310
47875W        W17690  27.445  34.034   4.204
47876W        W17691  15.703  28.664  14.965
47877W        W17692   0.851  42.283  13.430
47878W        W17693  22.127  19.640  14.932
47879W        W17694   0.829  27.482   3.314
47880W        W17695  11.272  17.644  11.938
47881W        W17696  41.310  42.482  11.421
47882W        W17697   7.863  38.505   3.297
47883W        W17698  37.991  22.624   4.308
47884W        W17699  23.109   8.265   1.781
47885W        W17700  16.192   5.722  13.818
47886W        W17701  41.384  35.365  13.426
47887W        W17702  40.919  42.831  12.538
47888W        W17703   0.894   9.286  13.994
47889W        W17704  22.191   0.951   5.207
47890W        W17705  26.596  37.919   0.427
47891W        W17706   1.919  40.447   3.735
47892W        W17707   1.293  42.953  14.503
47893W        W17708  11.229   4.378  11.079
47894W        W17709  41.387   7.686  12.911
47895W        W17710  31.426   0.948   3.264
47896W        W17711  20.742  15.606   0.476
47897W        W17712  14.787  12.749   1.362
47898W        W17713  13.293  10.810  13.832
47899W        W17714  17.638  38.333   2.841
47900W        W17715  14.118  42.013   5.306
47901W        W17716  32.615  35.948   4.221
47902W        W17717  14.180  18.764  11.377
47903W        W17718  24.113  16.625  14.850
47904W        W17719  15.206  38.951  12.829
47905W        W17720   7.846   1.453  13.796
47906W        W17721  23.146   4.206  14.475
47907W        W17722  28.566  27.679   1.327
47908W        W17723  27.531  17.283   4.285
47909W        W17724  34.543  39.812  11.107
47910W        W17725  43.343   5.274   2.349
47911W        W17726   9.318  39.957   0.371
47912W        W17727  29.651  10.783   2.847
47913W        W17728  28.056  15.729   4.838
47914W        W17729   4.761  40.524  14.424
47915W        W17730  41.877  23.229   2.290
47916W        W17731  21.207  38.425  12.074
47917W        W17732   2.930  43.863   0.770
47918W        W17733  13.274   7.289   3.379
47919W        W17734   1.334  17.198   3.719
47920W        W17735   5.918   4.401  11.568
47921W        W17736   1.295  36.503   0.250
47922W        W17737   2.817   2.384   0.927
47923W        W17738  17.275  37.033  11.885
47924W        W17739  10.221  44.284   0.960
47925W        W17740  21.514  42.453   4.347
47926W        W17741  34.937  17.123  12.425
47927W        W17742  18.663  40.890   0.292
47928W        W17743  29.923  39.416  11.540
47929W        W17744   6.749  26.006   1.309
47930W        W17745   0.745  44.406  11.479
47931W        W17746  34.480  22.104  13.502
47932W        W17747  25.087  34.493  12.914
47933W        W17748  26.693  42.461   4.645
47934W        W17749   4.444  29.077  12.470
47935W        W17750  41.810  38.060  12.391
47936W        W17751  37.530  28.566  14.786
47937W        W17752   3.759  22.045  12.524
47938W        W17753  25.057  34.510  14.349
47939W        W17754   3.921  25.993   3.244
47940W        W17755  37.079  27.187  11.449
47941W        W17756  38.440  44.814  13.340
47942W        W17757  44.435  14.627   4.604
47943W        W17758   7.374  27.510  11.372
47944W        W17759  32.029  41.011   4.167
47945W        W17760   9.749  13.292  14.428
47946W        W17761   4.384  10.319   0.755
47947W        W17762  25.032  33.075  10.643
47948W        W17763  20.560  40.330   1.261
47949W        W17764  20.057   9.696   1.788
47950W        W17765  34.916   8.382   4.773
47951W        W17766  42.511  29.648   1.283
47952W        W17767   5.287   9.153   4.664
47953W        W17768   5.294  20.546  12.458
47954W        W17769  40.861  38.506   3.166
47955W        W17770   7.910  26.179  13.406
47956W        W17771  16.136  34.459   1.363
47957W        W17772  15.104   1.419   3.191
47958W        W17773  28.984   8.788  14.372
47959W        W17774  38.040  35.040   2.844
47960W        W17775  10.852  14.736  12.576
47961W        W17776  11.295  18.265   0.462
47962W        W17777  14.808  20.158  14.306
47963W        W17778  38.417  13.255   2.199
47964W        W17779  11.796   9.705   3.849
47965W        W17780  17.729  37.529   0.745
47966W        W17781   7.334  31.954   0.813
47967W        W17782  44.924  32.504   1.367
47968W        W17783  32.486  29.501  13.354
47969W        W17784   9.266  25.171   1.355
47970W        W17785  21.189  38.967   1.216
47971W        W17786  31.636   8.339  14.015
47972W        W17787   2.248  15.131  12.448
47973W        W17788  21.209  42.824   1.719
47974W        W17789   0.766   8.272   1.388
47975W        W17790  21.064  41.991   3.797
47976W        W17791  25.559  33.622   0.853
47977W        W17792   3.839   7.272  14.836
47978W        W17793   5.275  26.986  12.853
47979W        W17794  27.096  34.009   2.678
47980W        W17795  41.948   7.257  10.423
47981W        W17796  35.856   4.274  14.002
47982W        W17797  43.913  14.819  14.422
47983W        W17798   8.755  12.716   0.382
47984W        W17799  12.662  20.116   1.815
47985W        W17800  44.458  25.203  11.549
47986W        W17801  38.854   2.733  14.841
47987W        W17802  11.270   5.311  12.458
47988W        W17803  25.971  13.821  14.362
47989W        W17804  16.128  42.366  12.874
47990W        W17805  37.501  10.218  10.575
47991W        W17806  44.414  35.942  14.886
47992W        W17807  22.580   2.329  14.406
47993W        W17808  40.532  37.582   2.773
47994W        W17809  18.722  12.305   4.255
47995W        W17810   0.836   1.864  11.380
47996W        W17811  34.895   0.260  11.433
47997W        W17812  41.404  41.791  12.362
47998W        W17813  34.495  42.015  12.573
47999W        W17814  30.155  34.084   2.716
48000W        W17815  31.484   5.696   4.766
48001W        W17816   1.959   7.905  10.996
48002W        W17817  16.632  27.124   3.684
48003W        W17818  20.579  28.510   2.341
48004W        W17819  29.636  25.145  11.078
48005W        W17820  11.330  39.443  12.358
48006W        W17821  40.488  16.616  11.374
48007W        W17822  15.582  38.890   1.766
48008W        W17823  30.983  27.948  11.883
48009W        W17824  34.006   3.842   3.822
48010W        W17825  34.946  37.899  12.454
48011W        W17826  26.693  34.999   2.828
48012W        W17827   1.810  25.647  12.925
48013W        W17828   0.786  16.075  12.964
48014W        W17829  14.101   9.186   2.780
48015W        W17830   4.756  32.400  13.546
48016W        W17831   6.683   7.200   1.274
48017W        W17832  43.427  19.093  12.411
48018W        W17833  44.857  40.051  13.879
48019W        W17834  32.100  31.126  13.833
48020W        W17835   0.825  38.978   2.666
48021W        W17836  14.828  37.071  14.861
48022W        W17837  44.322  26.100  13.392
48023W        W17838  23.089  13.150   0.906
48024W        W17839  42.845  26.548   5.098
48025W        W17840  11.291  25.672  12.876
48026W        W17841  21.083   1.859  12.003
48027W        W17842  14.100  25.702  14.331
48028W        W17843  17.760  31.032  11.424
48029W        W17844  18.152  20.038   1.421
48030W        W17845   0.896  23.590  14.357
48031W        W17846   7.721  40.478  11.375
48032W        W17847  41.866  40.436   4.267
48033W        W17848  21.095   0.255  13.342
48034W        W17849  30.418   4.396  14.859
48035W        W17850  11.691  16.194  11.969
48036W        W17851   4.219  38.498  12.963
48037W        W17852  17.564   3.375  12.339
48038W        W17853  28.457   6.262  10.943
48039W        W17854   5.193  15.605   4.285
48040W        W17855  12.286  37.433   2.212
48041W        W17856  34.373  28.103  11.003
48042W        W17857  41.453  16.736  10.644
48043W        W17858  33.100  21.209   0.308
48044W        W17859  31.491  32.636   3.632
48045W        W17860  29.433   7.322   1.298
48046W        W17861  42.018  20.751   1.408
48047W        W17862   1.304   2.246   3.644
48048W        W17863  37.362  26.091   4.160
48049W        W17864   3.783  14.763   2.696
48050W        W17865  10.316  35.061   3.741
48051W        W17866  44.348  40.350   1.846
48052W        W17867  30.640  21.084  14.005
48053W        W17868  25.167  21.701   3.236
48054W        W17869   8.877  39.025  13.032
48055W        W17870   4.758  13.140  12.352
48056W        W17871   9.657  39.915   9.606
48057W        W17872  26.504  15.637  11.417
48058W        W17873  43.776  21.120   2.331
48059W        W17874  42.493  41.969   4.344
48060W        W17875  21.086   2.773   0.737
48061W        W17876  13.275  36.899   2.367
48062W        W17877  13.615  25.551  13.543
48063W        W17878  26.169  31.602   0.371
48064W        W17879  44.976  11.325  11.899
48065W        W17880  33.058  44.409  10.421
48066W        W17881  36.548  35.921   4.236
48067W        W17882  34.945   7.364   4.805
48068W        W17883   5.412  11.783  11.936
48069W        W17884  25.220  26.461  13.307
48070W        W17885   7.816   4.935   1.773
48071W        W17886  22.695  17.750  14.315
48072W        W17887   6.223  32.885  14.491
48073W        W17888   6.197  17.620  13.501
48074W        W17889  21.209  41.859  13.804
48075W        W17890   1.461   4.258  10.899
48076W        W17891  24.615  25.650   2.341
48077W        W17892   4.722  31.611  11.390
48078W        W17893  18.259   8.244  11.941
48079W        W17894   2.457   0.948   3.820
48080W        W17895  23.112  35.403  12.846
48081W        W17896  12.146  23.006   1.861
48082W        W17897  20.618   1.787   4.344
48083W        W17898  29.513  33.034  13.999
48084W        W17899  29.150   3.365  13.828
48085W        W17900   5.900  33.621   3.231
48086W        W17901  32.906  26.640  12.020
48087W        W17902  41.492  21.569  13.360
48088W        W17903  18.222  42.438  11.866
48089W        W17904  30.925  20.701  10.510
48090W        W17905  28.578  15.588  11.013
48091W        W17906  24.558  37.831   3.807
48092W        W17907   2.944  33.418  14.012
48093W        W17908  12.132  16.642  11.880
48094W        W17909  13.641  22.166   4.204
48095W        W17910  41.321  25.219   4.122
48096W        W17911  23.050  22.245   3.209
48097W        W17912  10.246  41.483  14.874
48098W        W17913  44.972  18.286  11.041
48099W        W17914  26.026  30.654  14.874
48100W        W17915  22.530   3.865   0.911
48101W        W17916  32.072  31.573  13.386
48102W        W17917   9.846  40.904   0.246
48103W        W17918  42.431   0.344   2.202
48104W        W17919  25.142  42.485   3.262
48105W        W17920   8.366  13.716  13.497
48106W        W17921  45.000  37.936   1.929
48107W        W17922  36.433  33.892   1.907
48108W        W17923  13.652  37.891   0.287
48109W        W17924  23.720  44.342   4.253
48110W        W17925  29.615  16.593  13.541
48111W        W17926  27.108  21.518  13.849
48112W        W17927  13.154   5.331   1.720
48113W        W17928  19.073   1.456   1.933
48114W        W17929   5.694  33.527   3.864
48115W        W17930  36.865  16.713  13.028
48116W        W17931  33.030  28.025   3.768
48117W        W17932   2.953  33.971   0.884
48118W        W17933  22.674  27.478   1.840
48119W        W17934  43.414  34.951  13.961
48120W        W17935  13.657  24.066   0.965
48121W        W17936  36.349  41.330   2.242
48122W        W17937  24.055  29.627   2.396
48123W        W17938  33.043   2.914   3.830
48124W        W17939  35.053  35.926  14.838
48125W        W17940  10.680  11.273  11.952
48126W        W17941  29.952  18.654  14.765
48127W        W17942   1.922  41.812  13.853
48128W        W17943  39.410   4.777  11.518
48129W        W17944   9.250  13.212  12.888
48130W        W17945  14.192   5.775   1.359
48131W        W17946   6.917  11.318  11.375
48132W        W17947   6.235   0.956   4.639
48133W        W17948  33.974  42.880  12.094
48134W        W17949  17.678  38.873   3.265
48135W        W17950  39.021  13.220  14.497
48136W        W17951  21.664   4.388   1.244
48137W        W17952  42.852  40.980   0.259
48138W        W17953  43.361  39.339  10.588
48139W        W17954  28.556  11.340  13.497
48140W        W17955  33.519  30.432  10.130
48141W        W17956  16.094  16.644  12.882
48142W        W17957  19.544   0.422  14.376
48143W        W17958  35.487  27.159   4.287
48144W        W17959  43.298  15.635   1.237
48145W        W17960   3.256  37.937  13.520
48146W        W17961  36.366  29.659   2.237
48147W        W17962  19.251  18.790   0.286
48148W        W17963  38.360   3.756   1.264
48149W        W17964  21.044  21.519   1.238
48150W        W17965  30.008  20.064   3.213
48151W        W17966  20.603  20.029   4.335
48152W        W17967   9.286  40.040   4.677
48153W        W17968   6.224  18.060   2.370
48154W        W17969  30.583  22.645   4.769
48155W        W17970  25.155  25.527   0.292
48156W        W17971  24.982  11.802   5.120
48157W        W17972  18.663  16.133   3.853
48158W        W17973   5.837   8.832  11.961
48159W        W17974  11.834  37.908  14.776
48160W        W17975  39.987  13.621  10.615
48161W        W17976   6.836  38.469  13.841
48162W        W17977  36.871  34.961  14.913
48163W        W17978  36.520   4.897  10.638
48164W        W17979  15.677   1.783   2.723
48165W        W17980  20.159  10.333   3.146
48166W        W17981  39.521  30.028  13.855
48167W        W17982  13.192  29.171   1.798
48168W        W17983  11.369  31.074  11.576
48169W        W17984  39.337  33.463   2.288
48170W        W17985  19.661  13.640  12.360
48171W        W17986  29.612  14.701   4.809
48172W        W17987   5.930  40.949  12.440
48173W        W17988  25.190  43.823   0.731
48174W        W17989  17.283   2.770  11.467
48175W        W17990   0.984  43.977   1.420
48176W        W17991  11.166   5.916   0.877
48177W        W17992   8.684  22.578   0.759
48178W        W17993  36.462   1.787  12.541
48179W        W17994  12.305  33.568  14.888
48180W        W17995  25.537  10.363   5.125
48181W        W17996  23.603  21.517   4.311
48182W        W17997   5.769  13.724   4.816
48183W        W17998  23.596  19.237   3.735
48184W        W17999  12.649   5.710   0.425
48185W        W18000   5.251  27.641   0.858
48186W        W18001  41.368  24.482  11.929
48187W        W18002  26.697  42.303  12.038
48188W        W18003   5.702  13.173   4.269
48189W        W18004  41.387  42.496   0.782
48190W        W18005  44.978  27.991   0.907
48191W        W18006  21.053   1.474  12.915
48192W        W18007  41.409  33.896   0.749
48193W        W18008  41.970  38.348   2.681
48194W        W18009  31.561  43.973  10.616
48195W        W18010  25.081  33.065   3.812
48196W        W18011  27.962  28.545  13.313
48197W        W18012  22.158  17.582   0.376
48198W        W18013  15.734  29.432   1.757
48199W        W18014  43.314  40.813  14.301
48200W        W18015  40.307  39.502   0.424
48201W        W18016  20.206   0.780   0.460
48202W        W18017   5.375  31.095  13.394
48203W        W18018  37.878  24.560   2.272
48204W        W18019   8.297  16.314   3.744
48205W        W18020  13.831  16.230  11.018
48206W        W18021  28.938   4.409  13.917
48207W        W18022  37.347  41.345   4.241
48208W        W18023  17.773  20.203   2.283
48209W        W18024  18.192  17.272   1.724
48210W        W18025   4.764  28.579  12.422
48211W        W18026  12.122  44.969  11.875
48212W        W18027  28.675  36.958  13.528
48213W        W18028  38.520  21.553   3.808
48214W        W18029  34.082   6.747   0.728
48215W        W18030  29.607  36.440  11.606
48216W        W18031  33.464  37.466   4.675
48217W        W18032  17.667  42.989  13.858
48218W        W18033  39.321   6.355   4.823
48219W        W18034   6.401  16.687   0.336
48220W        W18035  14.337  39.017   0.267
48221W        W18036  33.985  20.631   1.253
48222W        W18037  13.284  13.706   3.784
48223W        W18038  35.372  19.135   3.181
48224W        W18039  11.247  41.305  13.002
48225W        W18040  27.013   3.240   4.804
48226W        W18041   4.827  15.236   1.836
48227W        W18042  22.583  23.187   0.424
48228W        W18043  25.645   9.239  11.012
48229W        W18044  17.646  31.051   4.661
48230W        W18045  17.088   9.865   0.943
48231W        W18046   4.783  22.714   2.317
48232W        W18047  40.820  38.938  10.633
48233W        W18048  24.014   2.279   3.257
48234W        W18049  26.119  39.558  12.440
48235W        W18050   8.698  10.700   2.343
48236W        W18051  11.689  13.681   0.385
48237W        W18052  11.662  20.762   3.629
48238W        W18053  20.744  40.855  12.859
48239W        W18054  33.002  36.536  10.986
48240W        W18055  34.519  16.086  11.046
48241W        W18056  10.693  33.126   4.675
48242W        W18057  16.198  22.682   3.370
48243W        W18058  30.575   1.361  14.457
48244W        W18059  10.841  36.472   3.667
48245W        W18060  25.550  15.130   3.858
48246W        W18061   6.854  14.148   0.890
48247W        W18062  27.538  38.498  13.805
48248W        W18063   6.905  39.391  14.320
48249W        W18064  33.478   9.688  12.004
48250W        W18065  22.713  38.474  13.884
48251W        W18066  11.712  19.148   1.774
48252W        W18067   9.757   7.862  13.930
48253W        W18068  17.188  35.986  11.428
48254W        W18069   2.465  31.472   4.255
48255W        W18070  23.126  41.795   4.299
48256W        W18071  18.280  13.270   1.364
48257W        W18072  32.914  30.614   1.895
48258W        W18073  40.915  20.589  12.880
48259W        W18074   5.344  40.911   3.292
48260W        W18075  17.667  29.656  11.494
48261W        W18076  29.519  22.248  10.556
48262W        W18077  40.883  43.451  10.464
48263W        W18078  17.656  33.519  14.788
48264W        W18079  34.438  29.640  12.353
48265W        W18080  33.484  22.598   2.818
48266W        W18081  24.186  44.312  11.062
48267W        W18082  30.160  22.236   2.855
48268W        W18083  38.946  17.250  13.347
48269W        W18084  32.020  19.617  11.548
48270W        W18085  26.652  23.149  12.087
48271W        W18086  14.122  28.147   0.791
48272W        W18087  43.297   1.419  12.993
48273W        W18088  33.611   8.216  12.532
48274W        W18089  21.201  15.778   4.345
48275W        W18090  39.414  17.727   4.698
48276W        W18091  25.036  32.473  11.898
48277W        W18092  31.499  20.093   3.169
48278W        W18093  21.704   1.858   4.186
48279W        W18094   1.973  30.435   3.385
48280W        W18095   3.784  29.937  13.008
48281W        W18096   1.425  19.762  10.412
48282W        W18097  26.008   3.243   3.830
48283W        W18098   3.409   8.802   4.811
48284W        W18099   2.958   1.838  10.968
48285W        W18100  44.435   7.809  11.066
48286W        W18101  41.322  34.069  11.966
48287W        W18102  20.677  17.085   4.159
48288W        W18103  41.411  27.464   3.642
48289W        W18104   2.243   8.273   0.895
48290W        W18105  44.913  39.414   4.174
48291W        W18106  33.101  33.476  14.002
48292W        W18107  21.517   7.824   2.713
48293W        W18108  26.578   7.326   1.855
48294W        W18109  27.154  32.082  11.980
48295W        W18110   8.375  29.164   3.796
48296W        W18111  12.726   1.380   4.795
48297W        W18112  42.369  12.641  12.363
48298W        W18113  11.366  28.974   4.148
48299W        W18114  16.220  26.051   4.138
48300W        W18115  34.384  21.181   4.191
48301W        W18116  27.094  15.087   4.217
48302W        W18117   3.925   7.727   4.817
48303W        W18118  19.268  16.739  14.765
48304W        W18119   8.899  25.496   5.092
48305W        W18120   3.940  13.229  14.286
48306W        W18121  40.499  42.471  13.389
48307W        W18122  20.057  24.537  11.530
48308W        W18123  12.121  24.225  11.581
48309W        W18124  36.940  17.727  14.965
48310W        W18125  37.429  12.239  11.918
48311W        W18126  28.988   8.210   2.831
48312W        W18127  24.573  16.638   0.374
48313W        W18128  11.681  17.156  12.474
48314W        W18129  14.739  44.300   3.639
48315W        W18130  26.611  21.159  10.924
48316W        W18131   0.269  26.015  14.382
48317W        W18132   9.697  43.965  12.431
48318W        W18133  21.168   6.396  12.461
48319W        W18134  26.143  19.561  13.523
48320W        W18135   9.289  36.894  10.488
48321W        W18136  14.678  36.086   1.779
48322W        W18137  41.804   1.385  14.766
48323W        W18138   4.410  10.355   4.753
48324W        W18139  31.143   0.831  10.523
48325W        W18140  12.322   6.901   3.715
48326W        W18141  30.032  34.423   4.318
48327W        W18142  23.129  31.926   4.182
48328W        W18143  41.804  16.797  12.353
48329W        W18144  26.991  32.037  11.483
48330W        W18145  39.360  22.550   2.242
48331W        W18146   3.420   4.366   2.315
48332W        W18147  14.133   4.908   3.190
48333W        W18148  31.558  24.017   0.789
48334W        W18149  19.729  13.132   2.895
48335W        W18150   5.892  42.492   0.384
48336W        W18151  12.146  39.369  12.460
48337W        W18152   4.915  43.860   3.684
48338W        W18153  29.092   2.820   2.727
48339W        W18154  34.521  25.481  11.943
48340W        W18155  26.565  15.250  13.464
48341W        W18156  36.948  20.675   0.826
48342W        W18157   2.312  20.603   4.652
48343W        W18158   2.369  37.978  10.976
48344W        W18159  10.336   0.923   2.285
48345W        W18160  13.725   1.853   1.415
48346W        W18161  24.547  34.865   0.415
48347W        W18162  24.548  21.247   0.837
48348W        W18163  13.155  15.672   3.188
48349W        W18164   6.321  28.466   4.672
48350W        W18165  18.199  30.936  10.477
48351W        W18166  30.925  14.325   3.276
48352W        W18167   2.734  10.668   0.278
48353W        W18168  35.511   1.747  13.848
48354W        W18169  23.051  38.996  11.500
48355W        W18170  12.280   7.879   4.193
48356W        W18171  29.169  40.502   2.304
48357W        W18172   7.270   6.851  11.085
48358W        W18173   1.301  13.732   2.853
48359W        W18174  17.654  38.957   4.679
48360W        W18175  10.701   4.827   2.314
48361W        W18176  25.992  41.364  10.408
48362W        W18177  30.062  34.471  13.455
48363W        W18178  13.633   4.823   1.781
48364W        W18179  14.685  18.258  10.453
48365W        W18180  33.609  13.322  12.081
48366W        W18181   1.335  39.325   0.810
48367W        W18182  22.716  42.014   3.830
48368W        W18183   6.308  18.635   3.662
48369W        W18184   4.798  10.192  10.112
48370W        W18185  32.598  10.643  11.937
48371W        W18186  42.805  15.578  11.994
48372W        W18187   2.790  44.997  12.416
48373W        W18188  34.413  28.656   3.161
48374W        W18189   0.323  42.783  14.353
48375W        W18190  34.486  11.768   0.927
48376W        W18191  17.778  42.894  12.967
48377W        W18192  42.832  32.034   4.704
48378W        W18193  20.167  38.337   0.919
48379W        W18194   7.900   5.252   3.245
48380W        W18195  11.287  33.073   0.911
48381W        W18196  30.595   4.253  11.895
48382W        W18197  32.985   6.220   2.288
48383W        W18198  21.692  38.555  12.344
48384W        W18199  31.912  16.244   3.828
48385W        W18200  26.125  19.240   4.235
48386W        W18201  34.936  37.380  11.408
48387W        W18202   8.891  26.964  11.527
48388W        W18203  28.087  34.436   4.766
48389W        W18204  34.874  27.676   2.755
48390W        W18205   7.823  41.300  14.299
48391W        W18206  14.602  24.994  12.488
48392W        W18207   2.914   3.868   0.897
48393W        W18208  10.198  13.673   1.212
48394W        W18209  17.742  38.409   3.759
48395W        W18210  42.029  21.184  10.454
48396W        W18211  42.323  44.440  13.961
48397W        W18212  41.860  43.918   2.673
48398W        W18213  43.461  31.143  11.954
48399W        W18214   3.903  14.153   1.700
48400W        W18215  20.582   4.760  11.580
48401W        W18216   0.398  44.466   0.884
48402W        W18217  29.125  10.759  12.511
48403W        W18218  28.446   0.764  11.883
48404W        W18219  17.304  39.319  10.949
48405W        W18220  39.329  27.946  14.900
48406W        W18221  35.587   4.921  12.057
48407W        W18222  25.703  23.566  10.159
48408W        W18223   4.726   1.290  10.948
48409W        W18224  41.517  33.019  12.914
48410W        W18225  29.983  36.905   2.179
48411W        W18226  15.319   2.947   0.277
48412W        W18227  36.492  15.239  14.327
48413W        W18228  38.061  44.327   0.379
48414W        W18229  40.422  15.750   3.353
48415W        W18230   7.757  30.587   4.127
48416W        W18231   9.848  36.457   4.606
48417W        W18232  24.090   2.327   2.384
48418W        W18233  38.378  15.688  13.412
48419W        W18234   6.889  43.768   0.337
48420W        W18235  39.975  38.365   2.201
48421W        W18236   5.776  16.723  12.470
48422W        W18237  27.611  18.140  10.411
48423W        W18238  10.312  35.020  10.485
48424W        W18239   4.215   3.408   1.786
48425W        W18240  13.167  36.859  11.927
48426W        W18241   5.356   7.683  13.523
48427W        W18242  23.180  43.406   4.717
48428W        W18243  28.646  16.674   1.920
48429W        W18244  16.650   4.699  12.995
48430W        W18245  23.145   4.270  12.889
48431W        W18246  17.170  25.142  12.575
48432W        W18247  22.190  32.138   1.270
48433W        W18248  21.530  20.130   1.288
48434W        W18249  23.022   9.826   2.742
48435W        W18250  25.120   1.887   3.304
48436W        W18251  39.456   8.814   5.224
48437W        W18252  43.928  39.850  12.983
48438W        W18253  10.371  10.182   1.828
48439W        W18254   3.420  22.196  12.349
48440W        W18255  23.700  21.569   1.251
48441W        W18256  25.016  32.461   1.444
48442W        W18257  11.630   6.683  14.505
48443W        W18258  44.306   0.788   3.314
48444W        W18259  24.479  31.538   0.917
48445W        W18260  29.632  17.151  10.134
48446W        W18261  19.566  31.413   2.797
48447W        W18262  10.713  13.222   0.430
48448W        W18263  26.994  27.089   0.467
48449W        W18264  10.706   8.676   0.777
48450W        W18265  30.090  44.428  13.895
48451W        W18266   9.324  10.768  11.532
48452W        W18267  19.607  29.485  13.873
48453W        W18268  20.693  25.680  14.304
48454W        W18269   6.772  10.138  12.998
48455W        W18270   3.381  19.726  11.872
48456W        W18271   9.200  25.155  10.103
48457W        W18272   5.260  13.686  13.389
48458W        W18273   1.322  28.160  14.328
48459W        W18274  17.631  20.652  14.294
48460W        W18275   3.298   9.644   2.187
48461W        W18276  31.946  33.510   2.780
48462W        W18277  13.620  10.854   1.396
48463W        W18278  40.352   8.721   0.334
48464W        W18279  28.531   4.297   4.251
48465W        W18280  21.647  39.062  14.766
48466W        W18281  28.517  19.064  11.045
48467W        W18282  15.652  22.610   1.700
48468W        W18283  27.465   9.325   3.303
48469W        W18284  17.201  40.843   1.711
48470W        W18285  42.314   7.378   4.644
48471W        W18286  10.346  33.406  13.309
48472W        W18287  23.012  18.093   4.665
48473W        W18288  23.672  18.678   1.444
48474W        W18289   1.952  15.284  14.481
48475W        W18290   3.419  22.063   4.645
48476W        W18291  26.547  37.043  14.928
48477W        W18292  31.994  15.104  10.562
48478W        W18293   7.738  13.709   0.271
48479W        W18294   0.794  40.407  11.991
48480W        W18295  22.578  37.046  13.873
48481W        W18296  37.995  16.587   3.716
48482W        W18297  42.481  25.611  11.589
48483W        W18298  43.509  28.937   3.683
48484W        W18299  37.568  15.264  10.605
48485W        W18300  30.979   8.709  11.073
48486W        W18301  18.086   4.719  10.982
48487W        W18302   5.900  44.882   0.889
48488W        W18303  22.107   1.949   3.203
48489W        W18304   5.861  10.300   4.216
48490W        W18305  30.525  32.475   4.633
48491W        W18306   3.424  28.514   0.878
48492W        W18307   1.394  19.202   4.622
48493W        W18308  21.745  41.957   2.387
48494W        W18309  14.755  39.432  12.004
48495W        W18310   9.674  38.001  14.852
48496W        W18311   3.317  30.152   0.870
48497W        W18312  35.466  34.026   1.248
48498W        W18313  23.179  26.564   1.383
48499W        W18314  21.687  38.915   1.277
48500W        W18315  36.437  38.402  13.890
48501W        W18316  20.743   5.279  11.029
48502W        W18317   2.328  12.722  11.440
48503W        W18318  40.421  19.207  11.008
48504W        W18319  31.542  11.284  10.413
48505W        W18320  10.309  40.393  14.963
48506W        W18321   9.879   4.705   1.816
48507W        W18322  15.782  21.666  11.419
48508W        W18323  11.859  20.090   2.277
48509W        W18324  28.010   6.786  13.999
48510W        W18325  29.115  25.989  12.365
48511W        W18326  17.772  27.469   2.853
48512W        W18327  23.208  33.606  14.984
48513W        W18328   6.919   6.677  11.113
48514W        W18329  31.947   1.870  11.901
48515W        W18330  22.039   7.784   2.685
48516W        W18331   9.155  23.719   4.225
48517W        W18332  44.788   4.797  14.474
48518W        W18333  28.109  26.148   4.133
48519W        W18334  31.987  25.147  11.520
48520W        W18335  17.657   7.693  12.995
48521W        W18336  19.150  13.278   3.252
48522W        W18337   5.420  30.476  13.335
48523W        W18338  36.462  23.724  14.947
48524W        W18339  14.742  16.568  12.560
48525W        W18340   1.923  13.105  14.807
48526W        W18341  33.521  37.366   0.809
48527W        W18342  14.829  37.969  10.895
48528W        W18343  14.336  15.090   0.753
48529W        W18344  28.048   5.193  10.467
48530W        W18345  31.106  38.340   1.239
48531W        W18346   9.839   6.419  12.487
48532W        W18347  23.047  23.728  12.037
48533W        W18348  31.023  27.675   0.874
48534W        W18349  13.260   8.848  14.029
48535W        W18350   5.205  13.728   4.652
48536W        W18351  32.076  21.085  10.489
48537W        W18352  20.086   3.456   1.277
48538W        W18353  33.536  25.039   0.422
48539W        W18354  31.633  28.020  14.888
48540W        W18355  19.065  25.036   1.854
48541W        W18356  21.197  41.507   3.178
48542W        W18357  42.986  29.524  11.378
48543W        W18358  10.698   8.361  11.958
48544W        W18359  27.979  43.503   0.396
48545W        W18360  35.060  23.130   2.770
48546W        W18361   3.946   3.738   2.364
48547W        W18362  23.608  25.014   0.289
48548W        W18363   9.751  30.000  12.865
48549W        W18364  36.983  12.202   1.930
48550W        W18365   8.673  33.017   3.323
48551W        W18366  17.299  21.618   4.739
48552W        W18367   3.923  20.218  13.945
48553W        W18368  39.457   2.908   1.751
48554W        W18369  18.133  13.192  10.569
48555W        W18370   3.713  11.200  12.430
48556W        W18371  24.060  17.720  13.045
48557W        W18372  24.560  23.083  12.028
48558W        W18373  27.493  22.579  14.879
48559W        W18374  33.432   4.776   5.089
48560W        W18375   3.942   2.758   3.334
48561W        W18376  40.797  33.590   2.205
48562W        W18377  43.839  21.075   0.956
48563W        W18378   8.776   8.316   3.315
48564W        W18379  17.599   8.655   2.887
48565W        W18380  26.468  42.517  13.822
48566W        W18381  27.073  44.492   4.192
48567W        W18382  37.480  11.796   3.214
48568W        W18383   4.766   5.810  11.420
48569W        W18384  28.018  31.062  11.078
48570W        W18385   8.317  36.926  10.500
48571W        W18386  34.911  22.104  14.954
48572W        W18387  29.665  19.190   3.194
48573W        W18388  28.094   1.772   2.192
48574W        W18389  28.122  10.253   2.866
48575W        W18390  25.198  13.674   1.369
48576W        W18391  38.480   2.819   1.860
48577W        W18392  38.324  31.898  13.879
48578W        W18393  14.754   9.290   0.296
48579W        W18394  25.690  13.199   2.847
48580W        W18395  12.153  21.056   4.756
48581W        W18396  18.145  19.620  13.508
48582W        W18397  39.428  42.779  10.969
48583W        W18398   9.680  18.703   0.816
48584W        W18399  14.102  30.467   0.360
48585W        W18400  16.738  18.159  14.846
48586W        W18401  41.298  34.883  10.636
48587W        W18402   7.819  35.009   1.322
48588W        W18403  41.958  22.647  10.447
48589W        W18404  40.053   1.905   1.909
48590W        W18405  17.637  29.153  11.011
48591W        W18406  18.111  39.314   4.736
48592W        W18407  43.783  19.264  13.001
48593W        W18408  14.773  12.299  10.910
48594W        W18409  31.507  35.902  11.067
48595W        W18410   8.189  23.238  12.950
48596W        W18411  16.748  43.473   1.218
48597W        W18412  21.079  24.711   2.782
48598W        W18413  37.489  29.122  13.335
48599W        W18414  28.030  20.057   3.266
48600W        W18415   1.329  12.632  11.896
48601W        W18416   9.174  22.653   0.770
48602W        W18417  25.490  28.435  14.508
48603W        W18418  37.912  17.136  12.475
48604W        W18419  29.627  32.461   0.381
48605W        W18420  38.403  29.538   0.867
48606W        W18421  24.033  12.220   1.269
48607W        W18422  28.128  21.192  12.827
48608W        W18423   0.838   8.248   0.880
48609W        W18424   9.813  14.170   2.729
48610W        W18425  17.677  16.601   4.133
48611W        W18426  10.780   4.431  14.396
48612W        W18427  29.652  33.402   5.217
48613W        W18428  35.516   2.894   1.393
48614W        W18429  14.778  34.962   1.810
48615W        W18430   6.309  38.999   1.872
48616W        W18431  40.912  38.867   2.223
48617W        W18432   9.378  24.698   4.203
48618W        W18433  24.222  33.968   0.257
48619W        W18434  13.204   5.825  10.474
48620W        W18435  26.144  15.788   4.794
48621W        W18436  30.993   9.746   1.300
48622W        W18437  42.812   5.872   4.299
48623W        W18438   0.419  33.555  12.088
48624W        W18439   4.423  29.026   1.874
48625W        W18440   5.361   7.802  12.528
48626W        W18441  38.413  21.566   0.777
48627W        W18442  13.275  23.643  10.451
48628W        W18443  29.124  15.094  11.862
48629W        W18444  10.281   3.313  13.985
48630W        W18445  10.724   2.259  14.942
48631W        W18446   4.925  20.106   4.170
48632W        W18447  38.539  40.387  13.391
48633W        W18448  17.624  39.523   4.818
48634W        W18449  41.372  33.544  12.973
48635W        W18450  24.505  41.390   0.318
48636W        W18451  18.739  29.577  13.506
48637W        W18452  20.085  39.872  12.003
48638W        W18453   2.346  27.971   5.131
48639W        W18454   7.341  17.193  12.475
48640W        W18455  13.286  31.632   3.311
48641W        W18456   0.897  11.180   1.212
48642W        W18457   1.968  26.626   2.266
48643W        W18458  16.102  26.579  11.548
48644W        W18459   3.278  27.480  12.062
48645W        W18460   2.229   5.363  14.319
48646W        W18461  17.564  42.414   3.834
48647W        W18462  15.214  11.235  13.448
48648W        W18463  36.881  31.568   1.268
48649W        W18464  17.256  23.732  13.355
48650W        W18465  40.025  42.405  13.943
48651W        W18466   3.317  24.659   2.875
48652W        W18467  41.350  15.222  10.550
48653W        W18468  26.103   3.920  12.986
48654W        W18469   4.894  20.083   1.419
48655W        W18470  26.165  11.868   0.425
48656W        W18471  37.562  42.480  12.065
48657W        W18472   5.400   7.326   4.253
48658W        W18473  19.716  23.108  12.871
48659W        W18474  18.748  42.879  12.904
48660W        W18475  33.592  27.601  10.499
48661W        W18476  12.722  37.008  13.450
48662W        W18477  20.131  19.222   1.770
48663W        W18478  40.440  21.664  12.430
48664W        W18479  17.721  16.088  11.379
48665W        W18480  37.057   6.368   2.679
48666W        W18481   2.890  31.473   0.751
48667W        W18482   1.369  40.375   2.686
48668W        W18483  17.275   5.696  12.930
48669W        W18484  44.410  27.670   1.754
48670W        W18485  33.455  38.504   2.264
48671W        W18486  18.144  22.604   0.873
48672W        W18487   0.468  13.269   1.211
48673W        W18488  33.125  28.184  12.451
48674W        W18489  29.057  15.303  10.551
48675W        W18490  34.424  21.596   1.719
48676W        W18491   9.301  12.347   4.702
48677W        W18492   9.240   6.794   1.263
48678W        W18493  11.715  21.242  13.988
48679W        W18494  32.120  37.427   1.382
48680W        W18495  20.208   9.835   4.308
48681W        W18496  21.627  28.035  12.899
48682W        W18497  21.135  31.153  14.461
48683W        W18498  14.338  39.421   1.225
48684W        W18499  21.235  37.360  14.816
48685W        W18500  28.618  37.063  12.089
48686W        W18501   8.258  17.201   0.363
48687W        W18502   7.287  36.451  12.949
48688W        W18503  37.451  39.315   3.175
48689W        W18504   5.822  30.075  14.791
48690W        W18505   7.868  30.095   3.645
48691W        W18506  29.427  34.925  13.803
48692W        W18507  11.299  25.557  10.413
48693W        W18508   2.433  13.605   2.243
48694W        W18509  15.251  16.722  11.584
48695W        W18510   7.280  35.594  12.991
48696W        W18511   6.377  41.988   4.830
48697W        W18512  27.167  31.968  11.122
48698W        W18513   4.278  26.505  13.484
48699W        W18514  38.361  12.680  13.343
48700W        W18515  10.873  31.054   4.273
48701W        W18516  15.103  32.405  10.542
48702W        W18517  24.022   5.883   3.845
48703W        W18518  13.136   3.862  14.408
48704W        W18519  16.078  16.792  14.958
48705W        W18520  35.880  27.688   4.825
48706W        W18521  23.048  38.986   4.131
48707W        W18522  13.293   8.323   4.128
48708W        W18523  40.009   1.420  14.839
48709W        W18524  37.839  20.571   3.296
48710W        W18525  24.700  33.109  11.580
48711W        W18526  15.602  28.649   1.916
48712W        W18527  39.974  25.164  11.538
48713W        W18528   1.950   9.884  14.955
48714W        W18529  40.824   3.899   1.924
48715W        W18530  10.760  15.204  13.973
48716W        W18531   4.335  21.042   4.125
48717W        W18532  28.047  17.677  12.571
48718W        W18533  11.866   8.879  14.833
48719W        W18534  37.856  11.659   0.941
48720W        W18535   5.899  17.215   3.863
48721W        W18536   7.814  16.196   4.638
48722W        W18537  33.558   9.788  14.304
48723W        W18538  14.192  28.135  13.519
48724W        W18539  33.987  15.674   1.934
48725W        W18540  43.766  17.252  12.054
48726W        W18541  27.062  30.514  10.083
48727W        W18542   9.746  19.232  12.953
48728W        W18543  31.110   3.345   2.889
48729W        W18544  28.553  21.596  10.972
48730W        W18545  21.042  28.545   1.346
48731W        W18546  12.680  15.184   1.741
48732W        W18547  40.531   3.822  10.489
48733W        W18548  33.889  14.258   1.363
48734W        W18549  27.157  35.550  12.906
48735W        W18550  40.373  18.250   0.393
48736W        W18551  21.640   6.393  12.429
48737W        W18552  33.992  35.857   1.338
48738W        W18553   4.289  36.576   0.323
48739W        W18554   0.288  15.819  13.536
48740W        W18555   3.328  17.604  10.460
48741W        W18556  26.491  16.309   4.263
48742W        W18557  34.892   6.695   4.691
48743W        W18558  12.249  43.792  10.937
48744W        W18559  37.466  29.430  14.928
48745W        W18560  28.630  11.823   3.866
48746W        W18561  32.613  33.931  13.413
48747W        W18562  19.202  35.391   0.935
48748W        W18563   6.708  41.962  14.339
48749W        W18564  39.876  22.518  11.919
48750W        W18565  34.910   7.417  11.605
48751W        W18566  42.899  44.806  12.056
48752W        W18567  25.992  14.108  11.521
48753W        W18568  21.643  25.213  11.409
48754W        W18569  12.136  21.619  14.416
48755W        W18570  12.853   6.749   4.316
48756W        W18571  22.649   3.776   3.185
48757W        W18572  43.981  25.010  11.945
48758W        W18573  42.492  18.100   3.799
48759W        W18574  20.039  39.460   4.692
48760W        W18575   1.929  40.350  13.965
48761W        W18576  29.576  32.043   1.228
48762W        W18577  41.026  35.981   0.296
48763W        W18578  28.544   1.335  12.048
48764W        W18579  32.420  36.437   4.285
48765W        W18580  21.747  40.514  14.441
48766W        W18581   1.473  37.504   1.792
48767W        W18582  21.148   1.775   1.353
48768W        W18583  30.500   2.836   4.822
48769W        W18584   7.222  41.991  12.897
48770W        W18585   3.226  44.426   4.158
48771W        W18586   7.298  38.393  12.385
48772W        W18587  32.074   5.756  13.487
48773W        W18588  18.654  12.306   3.351
48774W        W18589  43.913  22.611  11.063
48775W        W18590  43.400  41.336   1.246
48776W        W18591   1.439  39.996  13.493
48777W        W18592   7.726  20.257   1.754
48778W        W18593  12.298  20.556  13.461
48779W        W18594   9.658  35.480   0.831
48780W        W18595  29.486  36.926  14.341
48781W        W18596  31.918   7.327  12.875
48782W        W18597  21.065  25.672  11.126
48783W        W18598  22.165   5.771   2.831
48784W        W18599  36.548  20.683   2.342
48785W        W18600  42.812  19.272  11.054
48786W        W18601  18.584  15.618   1.451
48787W        W18602  19.094   0.308  10.979
48788W        W18603  28.168   4.324  10.941
48789W        W18604   5.900   5.431  12.412
48790W        W18605   5.266  19.281  14.422
48791W        W18606  32.970  17.177  11.922
48792W        W18607   0.374  23.680   4.209
48793W        W18608  32.551  27.998   2.413
48794W        W18609  10.330  32.945  13.967
48795W        W18610   6.821  16.108   0.337
48796W        W18611  44.356  37.065   0.941
48797W        W18612  40.500  42.514   3.862
48798W        W18613  21.038  10.839   2.396
48799W        W18614  11.759  11.712   5.100
48800W        W18615  44.308   7.229   3.825
48801W        W18616  29.105  25.644  10.524
48802W        W18617  42.930  19.602  10.071
48803W        W18618  35.066  30.112  11.950
48804W        W18619  22.236  37.861  12.934
48805W        W18620  21.628   7.369   3.862
48806W        W18621  20.252  42.363  10.472
48807W        W18622  41.537  37.986  12.990
48808W        W18623  37.048   4.264  12.823
48809W        W18624  23.032  38.480   2.769
48810W        W18625  40.373  15.582   2.383
48811W        W18626  15.152   3.381   0.424
48812W        W18627   1.352  37.477  14.892
48813W        W18628  35.958  43.336   3.639
48814W        W18629   0.392  43.475  10.508
48815W        W18630  13.694  38.052  13.334
48816W        W18631  31.506  12.714   2.717
48817W        W18632  13.124  13.621  10.588
48818W        W18633  26.079  26.163   3.762
48819W        W18634  27.152  28.656  10.555
48820W        W18635  16.191  42.968   4.833
48821W        W18636  26.014  12.657   1.792
48822W        W18637   7.873  12.296   1.325
48823W        W18638  23.689   5.399   3.785
48824W        W18639   6.690  11.250  12.554
48825W        W18640  15.312  44.913   3.261
48826W        W18641  23.055  10.223  13.396
48827W        W18642  21.262  10.337  13.336
48828W        W18643  37.448  23.633   3.865
48829W        W18644  44.980   8.703  10.614
48830W        W18645  34.422  24.081   3.656
48831W        W18646   2.858  33.081   3.699
48832W        W18647  38.390   0.858  13.371
48833W        W18648  22.052  36.074  12.078
48834W        W18649  25.134  14.182   1.384
48835W        W18650  32.122  36.386  10.432
48836W        W18651  12.202   8.212  14.495
48837W        W18652  16.574  18.695   2.193
48838W        W18653  23.630   0.857   0.798
48839W        W18654  24.062  23.055   2.408
48840W        W18655  21.158  37.336   4.799
48841W        W18656  31.098  34.890  13.366
48842W        W18657  36.485  43.452  13.336
48843W        W18658   4.782  22.724   2.836
48844W        W18659  36.910   1.870  10.520
48845W        W18660   3.247  41.376  12.481
48846W        W18661   3.330  24.069   1.423
48847W        W18662  10.672  28.152  14.443
48848W        W18663  12.170   6.352  10.575
48849W        W18664  36.893  41.519  10.923
48850W        W18665   5.296   0.801  13.818
48851W        W18666  20.068  22.048  10.967
48852W        W18667  36.505  28.964  14.302
48853W        W18668  32.431  36.853  14.347
48854W        W18669  23.697  17.780   4.200
48855W        W18670  38.892   4.408   4.728
48856W        W18671  21.662  44.804   9.974
48857W        W18672  29.587  16.183  11.525
48858W        W18673  43.295  15.593   3.163
48859W        W18674   8.172   7.302   1.318
48860W        W18675  29.552   1.941   0.441
48861W        W18676  15.288   2.257   2.417
48862W        W18677   6.234  39.392  11.438
48863W        W18678  28.010   1.774  13.883
48864W        W18679  10.714  24.079  12.397
48865W        W18680  10.239  43.479   4.246
48866W        W18681  36.991  12.337  12.342
48867W        W18682  14.150  21.144   1.225
48868W        W18683  19.082  38.377  10.889
48869W        W18684  10.747  12.642   3.296
48870W        W18685  13.607  34.086  11.468
48871W        W18686  11.213  32.985  13.862
48872W        W18687  14.184  32.566  11.557
48873W        W18688  29.555  41.410  12.993
48874W        W18689  33.063  11.820   2.682
48875W        W18690  31.647  19.667   4.152
48876W        W18691  44.857  29.659   4.197
48877W        W18692  14.781  26.684   3.386
48878W        W18693   2.240   5.397   0.731
48879W        W18694  15.717  11.634   4.176
48880W        W18695  11.172  15.185   1.729
48881W        W18696  44.484   0.371  11.974
48882W        W18697   7.748   0.295   2.369
48883W        W18698  30.088  17.585  14.497
48884W        W18699  21.065  14.803   3.766
48885W        W18700  28.436   5.271   3.731
48886W        W18701   1.387  31.561  12.436
48887W        W18702  37.372  28.528  10.535
48888W        W18703   4.447  21.228  14.000
48889W        W18704  14.125  19.135   3.853
48890W        W18705  20.038   9.237   1.743
48891W        W18706  15.735  11.135   2.233
48892W        W18707  15.822   9.350  11.016
48893W        W18708  43.394  41.413   0.391
48894W        W18709  23.712  16.786   1.394
48895W        W18710   1.884  36.071  14.475
48896W        W18711  17.613   0.415   4.130
48897W        W18712  11.862  44.992  13.017
48898W        W18713   2.299  39.892  13.822
48899W        W18714  10.342   8.848  11.488
48900W        W18715  43.016  18.096   4.268
48901W        W18716  37.467  10.301  10.121
48902W        W18717  18.698  20.607   1.422
48903W        W18718  29.461  30.439   0.812
48904W        W18719  26.974  15.814   4.690
48905W        W18720  36.050   7.237   1.725
48906W        W18721  20.252  40.976  14.436
48907W        W18722  23.541   1.428   3.715
48908W        W18723  29.593  12.679  13.346
48909W        W18724  41.370  43.899  12.088
48910W        W18725  38.849   2.938   2.259
48911W        W18726  27.117  14.706  14.826
48912W        W18727  39.427   2.388   3.339
48913W        W18728  21.678   0.822  10.137
48914W        W18729  38.017  29.504   3.730
48915W        W18730  34.884  21.074  11.865
48916W        W18731   2.417  43.382   3.764
48917W        W18732  34.567  44.411  13.045
48918W        W18733  31.077  13.325  14.866
48919W        W18734  15.191  18.142   4.804
48920W        W18735  13.216  32.122  14.996
48921W        W18736  24.220  16.605   2.418
48922W        W18737  25.472  35.387   0.789
48923W        W18738  13.686  33.007  14.005
48924W        W18739  10.798  20.666  13.041
48925W        W18740  17.254  22.223   0.461
48926W        W18741  33.063  26.641   3.147
48927W        W18742  38.985  14.290   2.237
48928W        W18743  34.984   2.812  12.881
48929W        W18744  15.694   9.668  12.002
48930W        W18745   7.789   6.337   3.679
48931W        W18746   3.902  37.497  10.627
48932W        W18747   7.377  22.601   2.783
48933W        W18748  40.313  24.218  11.396
48934W        W18749  38.855  32.528  13.042
48935W        W18750  24.558  26.528   4.116
48936W        W18751  12.134   5.778   2.266
48937W        W18752  11.771  19.065  13.056
48938W        W18753   7.186  23.698   2.378
48939W        W18754  24.156  40.498  13.474
48940W        W18755   0.972  42.986   1.748
48941W        W18756  44.396   2.803  10.464
48942W        W18757   7.728  30.441  13.386
48943W        W18758   6.922  25.061   1.762
48944W        W18759   2.724  33.488   2.702
48945W        W18760  29.455  11.810  12.550
48946W        W18761  11.196  32.077   3.146
48947W        W18762   4.706  33.407  11.385
48948W        W18763  38.991  42.860  11.062
48949W        W18764  24.973  43.339   4.707
48950W        W18765   6.370   9.698   3.819
48951W        W18766  39.523   7.791   3.216
48952W        W18767   4.856  31.148  12.894
48953W        W18768  17.722  10.341  11.988
48954W        W18769  24.695  21.654  11.495
48955W        W18770  34.397  12.305  14.977
48956W        W18771   1.750  12.290   1.727
48957W        W18772  37.076  17.783  10.600
48958W        W18773   3.897  22.520   4.197
48959W        W18774  13.772  37.345   2.371
48960W        W18775  31.912  33.457   3.765
48961W        W18776   4.722  23.599   2.213
48962W        W18777  22.235  17.556  12.443
48963W        W18778  33.518  42.864   1.306
48964W        W18779   3.428   4.819   3.856
48965W        W18780  34.391  29.999  10.617
48966W        W18781  41.932   1.928   4.792
48967W        W18782  18.091   9.656  14.984
48968W        W18783   6.884   0.806   2.375
48969W        W18784  40.374   9.327  13.844
48970W        W18785  18.735  18.567   3.674
48971W        W18786  34.519  33.410   9.985
48972W        W18787  13.744  32.593   3.716
48973W        W18788  35.437  35.858   2.865
48974W        W18789  36.061   1.423  11.426
48975W        W18790   1.269  41.912  12.009
48976W        W18791   9.695  20.745  10.894
48977W        W18792  42.013   0.266   4.799
48978W        W18793  25.172   4.776  14.390
48979W        W18794  21.085   5.215  11.862
48980W        W18795   4.708   8.258   5.264
48981W        W18796  23.056  38.480  11.114
48982W        W18797  30.105   7.712  11.487
48983W        W18798  25.018  36.994   3.385
48984W        W18799  19.146  29.504   0.481
48985W        W18800  28.951   5.392  13.375
48986W        W18801  12.751  37.855  13.935
48987W        W18802  21.034  23.706  12.903
48988W        W18803  27.030  41.400   2.311
48989W        W18804   3.856  27.118  14.868
48990W        W18805  24.053  28.666  10.575
48991W        W18806   5.438   0.274   0.927
48992W        W18807  12.243  27.572  10.431
48993W        W18808  37.405  11.765  10.464
48994W        W18809  32.464   7.400  11.485
48995W        W18810  22.210  21.588   2.189
48996W        W18811   6.187  18.202  13.407
48997W        W18812  21.166   2.360   5.188
48998W        W18813  13.661  22.544  13.060
48999W        W18814   5.208   7.178  12.002
49000W        W18815  41.991   4.331  14.784
49001W        W18816   7.247  39.393   3.265
49002W        W18817  25.200   2.918  12.869
49003W        W18818   0.274  16.809   2.233
49004W        W18819  29.496   5.890  12.358
49005W        W18820  41.316  25.020  11.944
49006W        W18821  29.133  43.875   1.228
49007W        W18822  12.242  26.146   3.178
49008W        W18823   4.765  29.171   4.115
49009W        W18824  43.859  34.500   1.322
49010W        W18825  44.502  27.944   1.385
49011W        W18826  12.130  22.698  12.935
49012W        W18827  19.579  18.100  14.318
49013W        W18828  26.682  11.220   0.966
49014W        W18829   1.785  34.991  10.413
49015W        W18830   5.767   8.306   1.301
49016W        W18831  15.589  19.652   1.802
49017W        W18832  44.904  26.209  14.438
49018W        W18833   0.877   1.465  12.485
49019W        W18834  22.599   4.292  14.944
49020W        W18835  11.716   4.230  13.815
49021W        W18836  27.973   3.459   0.771
49022W        W18837  19.644  34.556   3.291
49023W        W18838  25.969  23.233  14.401
49024W        W18839   4.705   4.934   1.397
49025W        W18840  34.484   5.385  11.114
49026W        W18841  33.548   7.716  11.445
49027W        W18842  21.256  12.135  11.121
49028W        W18843  17.628  38.906   0.418
49029W        W18844  17.222  21.604   4.185
49030W        W18845  14.161  35.560  11.907
49031W        W18846   7.199  34.580   3.171
49032W        W18847  17.095  31.896   4.601
49033W        W18848  21.534  27.603   3.840
49034W        W18849  34.540  33.900  10.537
49035W        W18850   8.250  23.518   0.344
49036W        W18851  24.062  39.059  13.356
49037W        W18852  28.991   2.282  12.901
49038W        W18853  11.330  17.681   2.368
49039W        W18854  27.115  34.586  13.531
49040W        W18855  37.936  24.655  13.024
49041W        W18856   5.289  23.220  13.923
49042W        W18857  19.593  31.899   0.815
49043W        W18858  25.008  28.180  13.914
49044W        W18859  27.614  24.559  13.994
49045W        W18860  33.044  12.173  12.859
49046W        W18861  35.873  43.409   3.365
49047W        W18862  21.728  20.117  13.429
49048W        W18863   1.242   8.386  11.077
49049W        W18864   0.838  26.634   2.710
49050W        W18865  13.341  44.865   4.711
49051W        W18866   4.419  34.435  13.981
49052W        W18867  18.713   4.304  10.541
49053W        W18868  24.019  10.876  12.378
49054W        W18869  11.313  10.857   0.408
49055W        W18870  30.153  11.162  12.564
49056W        W18871  15.762  13.731   4.288
49057W        W18872  28.001   8.794   2.307
49058W        W18873   7.387   9.658   2.194
49059W        W18874  11.151  12.681   3.833
49060W        W18875  23.193  32.044  10.555
49061W        W18876  28.633   3.754  11.875
49062W        W18877  16.134  20.058  12.433
49063W        W18878  13.290  13.808   4.217
49064W        W18879  39.385   6.695  14.759
49065W        W18880  21.621  28.947  12.006
49066W        W18881  19.269  28.614  13.423
49067W        W18882  31.905  39.511  13.908
49068W        W18883  34.451  40.038  11.953
49069W        W18884  22.240  33.461  13.002
49070W        W18885  16.722  26.125   0.370
49071W        W18886  20.767  17.796   2.815
49072W        W18887  30.107  31.445   4.627
49073W        W18888  17.699  15.801   4.194
49074W        W18889  30.437  24.503  12.381
49075W        W18890   8.708  11.723  11.062
49076W        W18891  23.618  35.008  14.847
49077W        W18892   2.768  42.471  13.056
49078W        W18893  12.307  37.018   4.209
49079W        W18894   6.855   4.332  11.390
49080W        W18895  42.864  19.648   4.626
49081W        W18896  40.031  31.451   1.398
49082W        W18897   5.424  24.538   1.215
49083W        W18898  20.765   1.437   1.780
49084W        W18899  41.470  32.085   0.735
49085W        W18900  29.645  41.530  14.308
49086W        W18901  27.952   9.235   1.291
49087W        W18902   3.214  14.122   1.384
49088W        W18903  34.034   6.867  13.458
49089W        W18904  41.391  19.152   0.809
49090W        W18905  43.387  24.624  13.854
49091W        W18906  31.105   1.335  10.600
49092W        W18907  22.722   8.680   1.373
49093W        W18908   4.816   9.194   2.386
49094W        W18909   0.902  10.686  10.916
49095W        W18910  13.615  40.321  12.353
49096W        W18911   6.692  24.533  11.606
49097W        W18912  12.652  33.554   4.202
49098W        W18913   8.271   7.216  12.975
49099W        W18914  11.270  24.578   3.349
49100W        W18915   3.809  17.251  12.058
49101W        W18916  18.607  27.054   3.375
49102W        W18917  21.569  10.764   0.448
49103W        W18918  32.005  28.521  11.069
49104W        W18919  34.511  14.655   1.894
49105W        W18920   7.347  37.923  13.953
49106W        W18921   7.257   4.375   3.261
49107W        W18922   1.350   8.731   2.711
49108W        W18923  17.278  17.739   4.744
49109W        W18924   3.245  25.013   0.413
49110W        W18925  23.550  19.174   1.707
49111W        W18926  25.532   2.454  10.948
49112W        W18927   2.876  15.140  14.900
49113W        W18928  19.758  18.752   1.842
49114W        W18929  19.726  39.871  14.305
49115W        W18930  12.214  14.297   0.882
49116W        W18931   6.194  30.452   0.835
49117W        W18932  18.157  41.369  10.931
49118W        W18933  15.293  43.340  13.903
49119W        W18934   1.480  31.962  13.324
49120W        W18935   6.699  44.922  14.820
49121W        W18936  25.198  28.951   3.645
49122W        W18937  12.165  34.892  12.907
49123W        W18938   5.894  14.162   2.316
49124W        W18939  42.786  36.362  11.593
49125W        W18940  30.443  20.742  14.430
49126W        W18941  42.410  44.772   3.710
49127W        W18942  10.651  10.639  13.934
49128W        W18943  31.999   8.273   4.632
49129W        W18944  38.375  15.734  14.446
49130W        W18945  33.594  38.889   3.656
49131W        W18946  11.329  32.535  11.430
49132W        W18947  28.986  40.497   1.245
49133W        W18948  42.319  24.982  14.002
49134W        W18949  11.330  22.039  11.525
49135W        W18950   2.346  31.979   2.261
49136W        W18951  35.541  36.362  13.955
49137W        W18952  41.824   5.303  14.823
49138W        W18953   6.695  29.426   0.779
49139W        W18954  16.688  44.942  10.431
49140W        W18955  15.768   7.176   2.195
49141W        W18956   7.764  18.621  12.847
49142W        W18957  11.170   3.793  12.862
49143W        W18958  20.769  16.715   3.640
49144W        W18959  19.075  40.050   0.463
49145W        W18960  34.596  12.769  12.838
49146W        W18961  35.377   2.458  12.533
49147W        W18962  20.041  13.646   0.924
49148W        W18963  16.658   7.233   4.239
49149W        W18964   2.372  13.834  11.603
49150W        W18965  21.167  30.049   4.350
49151W        W18966  36.514  17.106   3.866
49152W        W18967   5.232   0.394   1.212
49153W        W18968   4.433  15.233   1.240
49154W        W18969   9.654  39.919   1.425
49155W        W18970  11.720  43.419   1.854
49156W        W18971   5.796  30.624   2.238
49157W        W18972  42.938  40.523  10.451
49158W        W18973  30.141  36.554   1.888
49159W        W18974  20.707  34.553  11.943
49160W        W18975   9.286  28.151  10.112
49161W        W18976  11.129  15.310   4.258
49162W        W18977  19.193  11.672   3.332
49163W        W18978  31.597   9.357   1.715
49164W        W18979  36.861  30.572   0.868
49165W        W18980  28.092  37.079  14.401
49166W        W18981  39.446  28.624   0.423
49167W        W18982  14.240  19.594  13.341
49168W        W18983  13.117   2.856   0.897
49169W        W18984  13.829  37.340  12.966
49170W        W18985  41.326   9.720   0.415
49171W        W18986  27.665  25.110   3.219
49172W        W18987  25.203  12.357   2.670
49173W        W18988  21.231   7.877   0.755
49174W        W18989  44.404  37.986   1.699
49175W        W18990  28.526  13.318   4.610
49176W        W18991  39.877  21.041   1.442
49177W        W18992  20.234  31.019  10.611
49178W        W18993  37.447   2.913   0.961
49179W        W18994  34.008  10.736   1.928
49180W        W18995   6.905  30.028  13.339
49181W        W18996  38.497   6.214  13.324
49182W        W18997  34.468  13.844   0.264
49183W        W18998  21.624  10.218  14.483
49184W        W18999  25.580  17.613   4.245
49185W        W19000  36.947  37.401   4.185
49186W        W19001   5.908   0.750  12.055
49187W        W19002  26.990  24.494  12.021
49188W        W19003  33.389  37.035  11.888
49189W        W19004  30.962  41.460  13.371
49190W        W19005  38.860  36.381   2.316
49191W        W19006  34.910  31.539   3.733
49192W        W19007  37.009  43.328  11.981
49193W        W19008  27.067   1.844   2.671
49194W        W19009  22.687   4.248  12.879
49195W        W19010  43.407  43.807   2.178
49196W        W19011  35.104  21.674  13.402
49197W        W19012  27.148   6.396   0.360
49198W        W19013  29.988  12.826   3.852
49199W        W19014  11.709  36.059  13.905
49200W        W19015  30.630  18.627   4.313
49201W        W19016  17.090   8.829   1.285
49202W        W19017  44.495  44.381  11.015
49203W        W19018   2.397  37.388  12.034
49204W        W19019   8.656  30.097   4.701
49205W        W19020  36.999  35.043   1.406
49206W        W19021  29.514  40.033   0.255
49207W        W19022  40.016  16.139   2.788
49208W        W19023   1.933  18.552  11.382
49209W        W19024   5.762  25.558   3.197
49210W        W19025  42.483  40.007   4.268
49211W        W19026   6.850  15.679   3.705
49212W        W19027  38.969  33.971   0.739
49213W        W19028  20.234  26.101   0.265
49214W        W19029  33.967   0.862   4.738
49215W        W19030  32.527  39.536  14.919
49216W        W19031  21.533  37.547  10.930
49217W        W19032  32.476  30.611  10.536
49218W        W19033  36.479  27.557  14.365
49219W        W19034  43.334  19.697  10.907
49220W        W19035  31.139   3.938   3.757
49221W        W19036  44.338   2.822  14.854
49222W        W19037  28.520  24.075   4.258
49223W        W19038   9.737   3.307  14.430
49224W        W19039   7.829  31.511  14.309
49225W        W19040  36.512  42.451  11.090
49226W        W19041   0.981  35.508   2.409
49227W        W19042  16.669   0.817  14.439
49228W        W19043  29.103  42.302  10.972
49229W        W19044  25.056  42.847   0.243
49230W        W19045   0.266  37.469  13.307
49231W        W19046  37.904  32.975   9.932
49232W        W19047  31.933   8.326  14.982
49233W        W19048  29.103  19.657  12.076
49234W        W19049   2.248  43.782   2.690
49235W        W19050   4.822   4.305   4.234
49236W        W19051  34.070  34.514  14.000
49237W        W19052  43.963  43.506   0.402
49238W        W19053  22.686  14.690  13.451
49239W        W19054  30.071  11.664  14.291
49240W        W19055  10.379   2.406   2.343
49241W        W19056  39.888  12.161  12.499
49242W        W19057  22.573  33.443  12.037
49243W        W19058  12.827  33.040   4.155
49244W        W19059  12.245  26.629  14.363
49245W        W19060  15.275  13.244   3.728
49246W        W19061  42.310   8.763   1.751
49247W        W19062   4.449  23.232  14.345
49248W        W19063  27.116  33.105   4.127
49249W        W19064  20.095  40.507  10.415
49250W        W19065  37.569  25.059   9.924
49251W        W19066  44.457  34.942   4.786
49252W        W19067  15.242   7.797  14.881
49253W        W19068  26.656   0.758  13.814
49254W        W19069  22.096  26.000  13.478
49255W        W19070  12.827  22.160   4.823
49256W        W19071  27.448  29.126   4.753
49257W        W19072  43.850  36.375  12.899
49258W        W19073   3.746  37.074  14.282
49259W        W19074  41.393  19.108   4.797
49260W        W19075  18.286   1.381   2.856
49261W        W19076  24.486   6.276  14.786
49262W        W19077  31.520  35.075  10.929
49263W        W19078  34.996  33.045   3.274
49264W        W19079  14.130  26.553  11.095
49265W        W19080  28.164   2.789  12.089
49266W        W19081  18.134  13.668   0.416
49267W        W19082  33.921  23.189  13.326
49268W        W19083  40.432  25.088   0.874
49269W        W19084   3.850   3.421   1.796
49270W        W19085  44.856  23.586   3.188
49271W        W19086  24.643  23.016   4.130
49272W        W19087  13.620  15.659  12.569
49273W        W19088   8.205  36.432   1.350
49274W        W19089  26.040   3.320   4.329
49275W        W19090  41.911  39.967  10.456
49276W        W19091  19.702  37.394  11.552
49277W        W19092  43.444  37.971  14.907
49278W        W19093   7.415  34.499   2.899
49279W        W19094  36.923  39.035  12.874
49280W        W19095  37.454  27.059  13.004
49281W        W19096  16.192  25.627   2.198
49282W        W19097  16.634  29.989  11.103
49283W        W19098  34.597  28.132   3.815
49284W        W19099  29.967  44.890   1.348
49285W        W19100  39.917  23.630   3.190
49286W        W19101   9.395  10.773   0.256
49287W        W19102   0.382  13.108  14.890
49288W        W19103  13.298  22.595   4.263
49289W        W19104  20.738  17.596  12.506
49290W        W19105  15.286  26.107  10.609
49291W        W19106  29.933  10.167   2.774
49292W        W19107  13.207  41.034  14.771
49293W        W19108   9.777  18.675  13.977
49294W        W19109  43.466  16.165  11.023
49295W        W19110  41.019  16.579  13.344
49296W        W19111   2.859   2.326  11.376
49297W        W19112  39.888  10.181   0.377
49298W        W19113  37.374  14.255   1.776
49299W        W19114   0.429  19.689   5.134
49300W        W19115   8.853  30.626  11.979
49301W        W19116  11.858  21.577  12.984
49302W        W19117  24.024  41.533  12.573
49303W        W19118  31.058  18.281  12.884
49304W        W19119  12.320  26.654  10.464
49305W        W19120   0.304  34.907   2.205
49306W        W19121   9.741  41.814   2.240
49307W        W19122  17.593  34.543   2.293
49308W        W19123   0.265  20.114   4.723
49309W        W19124  40.532  33.086   4.159
49310W        W19125   8.394  12.744   4.305
49311W        W19126   8.860  42.893   2.669
49312W        W19127  35.423  30.059  13.479
49313W        W19128  34.866  10.843   2.323
49314W        W19129  20.669  25.692   2.298
49315W        W19130   6.737   4.232  13.003
49316W        W19131  12.708   3.743   0.927
49317W        W19132  40.831  18.631   3.334
49318W        W19133  21.559  15.289   4.755
49319W        W19134  19.193  41.988   4.795
49320W        W19135  18.578   7.710   4.281
49321W        W19136  18.289  27.594   3.355
49322W        W19137  31.403  38.382   1.872
49323W        W19138  29.457   1.894   1.405
49324W        W19139   0.249  17.615  13.339
49325W        W19140  13.694  35.874   1.872
49326W        W19141  39.457  37.559  10.056
49327W        W19142  34.555  33.983  13.035
49328W        W19143  22.607  20.130  12.892
49329W        W19144  14.220  36.906  13.822
49330W        W19145  19.699  12.838   4.318
49331W        W19146  19.257   0.813   3.662
49332W        W19147  24.638  13.792   3.791
49333W        W19148  22.174   7.318   1.324
49334W        W19149   4.355  43.352   0.322
49335W        W19150  28.123   2.390  13.491
49336W        W19151  11.228  16.575   2.324
49337W        W19152  35.548  23.120   1.230
49338W        W19153  20.116  14.279  11.058
49339W        W19154  43.473  35.874  11.112
49340W        W19155  13.247  27.608  12.864
49341W        W19156  34.439  16.606   1.223
49342W        W19157   3.890  28.034  11.593
49343W        W19158  40.385  17.616   3.162
49344W        W19159  21.147  30.995   4.137
49345W        W19160  21.706  26.124   4.599
49346W        W19161  31.402  22.723   1.837
49347W        W19162  22.103   2.824   3.667
49348W        W19163  22.696  23.694   3.705
49349W        W19164  38.065  15.588   1.750
49350W        W19165   3.843  15.628   2.279
49351W        W19166   1.808  26.117  12.357
49352W        W19167  21.162  10.825  10.998
49353W        W19168   9.258  39.971   1.351
49354W        W19169  42.523   9.645  10.894
49355W        W19170   1.305  29.122   4.634
49356W        W19171  27.498  38.983  13.818
49357W        W19172  41.382  32.484   1.408
49358W        W19173   9.838  26.625  12.382
49359W        W19174  42.382  36.934  13.415
49360W        W19175  28.655  19.722   1.213
49361W        W19176  42.324  17.128   4.730
49362W        W19177  33.547   0.793   5.158
49363W        W19178  12.634  15.812   0.473
49364W        W19179  39.335  15.268  12.052
49365W        W19180   5.395  40.889   0.411
49366W        W19181   9.872   6.301   3.380
49367W        W19182  39.941  19.536   2.744
49368W        W19183  25.672  23.493  13.311
49369W        W19184  29.630  32.943   0.861
49370W        W19185  35.396  43.301   4.630
49371W        W19186  33.396  17.156  12.990
49372W        W19187  15.290  27.584   2.186
49373W        W19188  14.729   6.906  13.484
49374W        W19189   3.251  28.040  12.365
49375W        W19190   2.446  33.529  14.810
49376W        W19191  34.867  27.970  10.966
49377W        W19192  35.555   7.207   3.856
49378W        W19193  42.812   5.215   0.348
49379W        W19194  10.643  16.737   3.341
49380W        W19195  35.461  12.131  12.020
49381W        W19196  16.684   8.678  11.458
49382W        W19197  13.302   8.881   0.365
49383W        W19198  22.164  14.618  11.388
49384W        W19199  25.491  26.559   0.325
49385W        W19200  26.639  20.105   5.288
49386W        W19201  41.499   0.989  10.066
49387W        W19202  22.220  25.631  14.959
49388W        W19203  17.080  38.337  11.018
49389W        W19204  44.925   5.822  11.880
49390W        W19205  26.137  40.442  14.992
49391W        W19206  13.221  10.161   3.322
49392W        W19207  17.082  29.150   2.821
49393W        W19208  41.024  31.432  12.964
49394W        W19209  32.085  24.229  13.821
49395W        W19210  35.590  15.160   3.307
49396W        W19211  34.023  29.089   1.225
49397W        W19212   6.260  31.991   0.359
49398W        W19213  17.105   0.314   1.326
49399W        W19214  31.528   1.903  11.021
49400W        W19215   8.676  14.725   1.910
49401W        W19216  31.996  33.385   4.750
49402W        W19217  27.476  44.285  12.344
49403W        W19218  35.863  37.886  11.082
49404W        W19219  31.983  15.301  14.451
49405W        W19220  27.501  18.713   0.727
49406W        W19221   6.378  35.546  13.523
49407W        W19222  27.548   8.805   4.779
49408W        W19223   7.344  10.853   2.889
49409W        W19224  13.637   7.304  11.122
49410W        W19225  34.970   8.377   2.272
49411W        W19226  22.030  28.109  13.317
49412W        W19227  43.010   4.390  13.472
49413W        W19228   2.806  18.703  14.389
49414W        W19229  18.766  12.755  13.510
49415W        W19230  12.824  35.075  13.021
49416W        W19231   3.924  44.277  10.631
49417W        W19232   3.952  38.031   0.826
49418W        W19233  14.140  29.609   4.192
49419W        W19234  36.539  39.909   0.936
49420W        W19235  34.927   4.405   0.456
49421W        W19236   2.284  11.854  12.967
49422W        W19237   1.405  39.926   3.831
49423W        W19238  33.611  30.116   4.178
49424W        W19239  43.858  38.530   1.864
49425W        W19240   7.762  44.978  11.066
49426W        W19241  10.808  41.387   4.254
49427W        W19242  15.129   7.255   0.744
49428W        W19243   0.373  35.554  10.606
49429W        W19244  21.198  14.108   3.723
49430W        W19245  37.389   9.219   4.182
49431W        W19246  31.544  26.548  12.499
49432W        W19247   5.404  21.715   4.695
49433W        W19248  30.067  32.895   4.189
49434W        W19249   9.727   6.839   4.233
49435W        W19250  23.654  39.045  13.323
49436W        W19251  15.702  29.553  12.455
49437W        W19252  16.750  41.965   1.329
49438W        W19253  38.432  36.496   3.164
49439W        W19254  10.681  35.006   4.643
49440W        W19255  22.118  44.344  13.061
49441W        W19256  22.237  32.415   3.337
49442W        W19257   0.754  41.487   4.192
49443W        W19258  20.057   7.836   2.226
49444W        W19259  38.525  27.025  13.001
49445W        W19260   2.354  42.929  12.372
49446W        W19261   3.300  27.019  13.449
49447W        W19262  37.458  18.257  11.866
49448W        W19263  36.564  43.962   2.360
49449W        W19264  11.257  29.667   0.345
49450W        W19265  25.635  44.435   4.723
49451W        W19266   1.276  35.872   4.692
49452W        W19267  20.093  20.572  11.519
49453W        W19268  10.212  42.313  13.935
49454W        W19269  35.937  41.899   3.209
49455W        W19270  17.225  34.540   5.142
49456W        W19271   1.770  32.626  12.999
49457W        W19272   2.298  17.293  13.480
49458W        W19273  39.011  44.875   3.250
49459W        W19274  33.541  27.507   4.226
49460W        W19275  16.808  34.432  12.535
49461W        W19276  15.168  25.111   1.414
49462W        W19277  37.996  20.153  13.051
49463W        W19278  10.278  32.940  10.418
49464W        W19279  43.967   6.831  11.902
49465W        W19280  22.209  35.576  13.896
49466W        W19281  42.817  28.575   4.606
49467W        W19282   7.866  34.986  13.947
49468W        W19283  32.415  15.233   2.837
49469W        W19284  36.908  24.506   4.601
49470W        W19285  20.147  13.839  13.034
49471W        W19286  40.807  20.252   1.856
49472W        W19287   7.414  39.958  12.536
49473W        W19288   9.199  40.924  14.343
49474W        W19289  28.521   6.827  13.964
49475W        W19290  13.698  31.140   2.287
49476W        W19291  10.733  26.116  11.060
49477W        W19292  15.089  10.208  10.436
49478W        W19293  20.106  24.228   3.825
49479W        W19294  38.435  33.015  10.497
49480W        W19295  27.645  12.738  11.963
49481W        W19296  39.510  34.050   3.769
49482W        W19297  16.606  40.981   0.873
49483W        W19298  44.011  12.667   0.320
49484W        W19299  31.005  13.605  13.426
49485W        W19300   3.944  17.767   3.686
49486W        W19301  11.750   2.458  12.502
49487W        W19302  36.849  36.427  13.815
49488W        W19303  34.026  41.840   4.333
49489W        W19304  34.098  31.012  13.939
49490W        W19305  12.158  20.121  14.298
49491W        W19306  36.369  20.522   0.726
49492W        W19307  32.106  33.588  11.007
49493W        W19308   4.314  28.144  12.475
49494W        W19309  31.619  15.118   2.278
49495W        W19310  37.438  40.937   2.892
49496W        W19311   3.369  14.599   0.381
49497W        W19312   5.859  35.510   0.398
49498W        W19313  25.004  11.301   2.400
49499W        W19314  37.056  21.704   3.697
49500W        W19315  43.367   0.744  10.496
49501W        W19316   8.694  39.066  13.518
49502W        W19317  15.297  40.975  10.997
49503W        W19318  38.553  38.453  10.428
49504W        W19319  34.416   0.303   2.723
49505W        W19320  41.965  37.495  14.380
49506W        W19321  29.641   6.898   3.680
49507W        W19322  28.668   2.800   3.203
49508W        W19323  37.019  20.687   3.366
49509W        W19324  33.617  25.521   1.868
49510W        W19325  23.500  40.491  13.505
49511W        W19326  33.007  40.802  11.124
49512W        W19327  15.657  37.411   1.444
49513W        W19328  13.263  31.446  14.776
49514W        W19329   7.306   4.890  14.505
49515W        W19330  38.454  25.203  14.898
49516W        W19331  32.942  29.929   2.302
49517W        W19332   6.267   0.954  13.905
49518W        W19333  32.123  35.104   4.732
49519W        W19334   1.888  37.837   2.681
49520W        W19335  13.348   9.263   4.681
49521W        W19336   7.844  10.340   9.989
49522W        W19337  38.035  44.912  13.449
49523W        W19338  12.809  14.790   1.808
49524W        W19339   0.844  22.210   3.260
49525W        W19340  27.963  24.032   0.911
49526W        W19341  23.691  44.388  12.828
49527W        W19342   7.813  17.768  13.517
49528W        W19343   2.383  19.046  14.010
49529W        W19344   2.734  12.180  10.937
49530W        W19345  41.374  20.742  11.593
49531W        W19346  27.610  31.091  14.982
49532W        W19347  20.584  41.489   0.262
49533W        W19348   0.260   6.707   1.735
49534W        W19349   5.819   2.890  11.970
49535W        W19350  33.929  21.069  14.986
49536W        W19351  34.054  38.569   0.425
49537W        W19352  17.270  17.128  10.521
49538W        W19353  31.119  37.971  13.985
49539W        W19354  42.966  15.245  11.086
49540W        W19355  11.240  40.390   0.843
49541W        W19356  12.140  25.484  12.387
49542W        W19357  18.617  39.421  13.335
49543W        W19358  25.642  26.526   3.180
49544W        W19359  19.664   5.714   0.438
49545W        W19360   0.815   3.812   2.274
49546W        W19361  31.071  23.224  14.022
49547W        W19362  36.427  28.143   2.308
49548W        W19363  41.347   3.228   1.358
49549W        W19364  32.887  40.946   2.776
49550W        W19365  32.902  37.082  13.340
49551W        W19366  33.982  29.543   2.401
49552W        W19367  40.483   7.796   9.979
49553W        W19368  43.803  26.499   4.193
49554W        W19369  21.248   7.192  11.874
49555W        W19370  25.677  20.143   1.362
49556W        W19371  37.904  13.659  11.526
49557W        W19372  42.985  24.484   4.200
49558W        W19373  18.705   4.268   4.605
49559W        W19374  36.023   6.202  12.395
49560W        W19375  36.950  24.711  12.560
49561W        W19376  20.541  41.423   4.750
49562W        W19377  32.891  30.927   4.650
49563W        W19378  10.754  17.068  10.092
49564W        W19379  32.404  34.052   1.270
49565W        W19380  14.769   6.836   0.869
49566W        W19381   4.925   3.389   1.232
49567W        W19382  11.177  38.361  13.918
49568W        W19383  11.691  16.288  12.925
49569W        W19384  30.957  14.225  13.820
49570W        W19385  16.646  28.132  14.843
49571W        W19386  26.058   8.246   1.404
49572W        W19387  38.875  32.116   2.400
49573W        W19388  28.584  23.038   4.295
49574W        W19389  28.575   8.220   2.310
49575W        W19390  23.732   1.348   4.613
49576W        W19391  10.634  33.471   4.203
49577W        W19392  29.454  41.036   4.230
49578W        W19393  13.172  34.013  10.594
49579W        W19394   6.245  17.198   4.209
49580W        W19395  43.277   0.903  11.006
49581W        W19396  25.613  11.726   2.677
49582W        W19397  10.226  27.963   1.794
49583W        W19398  42.884  16.732  13.944
49584W        W19399  35.856  36.469  11.527
49585W        W19400  32.939  43.499   3.365
49586W        W19401   5.825   6.255  14.489
49587W        W19402  43.921  40.014  10.455
49588W        W19403  36.418  17.272   3.172
49589W        W19404  32.018  37.012   0.266
49590W        W19405  33.034   5.313  13.505
49591W        W19406  37.036  20.630  14.466
49592W        W19407  10.634  23.081  13.311
49593W        W19408   2.852  23.015  12.829
49594W        W19409  22.695   4.926  10.626
49595W        W19410  29.425  44.785  12.450
49596W        W19411   7.414  40.821   2.798
49597W        W19412  41.839   2.811   2.309
49598W        W19413   7.258  20.671  11.887
49599W        W19414  38.524  37.040  11.518
49600W        W19415  11.656  36.406   9.964
49601W        W19416  29.431  22.096   3.649
49602W        W19417   2.755  16.143   4.686
49603W        W19418   3.814  36.422   4.772
49604W        W19419   8.239  17.257   4.310
49605W        W19420  16.796  38.827  11.889
49606W        W19421  25.984   9.312  10.934
49607W        W19422  36.946   1.346  11.981
49608W        W19423  15.185  41.320  14.774
49609W        W19424   4.937  22.031  11.486
49610W        W19425  34.028  37.901   1.301
49611W        W19426  23.653  21.648   2.891
49612W        W19427  20.673   1.773   2.339
49613W        W19428  41.466  11.642  12.007
49614W        W19429  12.823  10.709   4.799
49615W        W19430  44.902  23.645  10.939
49616W        W19431  31.940  37.384  13.489
49617W        W19432  18.744  37.016  11.080
49618W        W19433  39.060  16.657  13.812
49619W        W19434  25.158  42.855  10.933
49620W        W19435  37.865   1.769   2.205
49621W        W19436  13.615   8.780   0.358
49622W        W19437  43.325  36.993   3.265
49623W        W19438  28.986  26.619  14.821
49624W        W19439   9.383  34.919   4.230
49625W        W19440  30.631  39.469  11.032
49626W        W19441  26.625  39.925  13.315
49627W        W19442  13.631  19.676   1.916
49628W        W19443  19.680  34.529  12.985
49629W        W19444  27.540  25.546   3.848
49630W        W19445  26.651  31.423   3.318
49631W        W19446   6.903  21.586  14.457
49632W        W19447  10.864  33.951   1.904
49633W        W19448  12.770  33.982  11.113
49634W        W19449  38.514  29.132   3.864
49635W        W19450  33.587  17.266  12.041
49636W        W19451  16.245  30.503   5.151
49637W        W19452  22.100   7.396   2.184
49638W        W19453  18.624  19.195   2.353
49639W        W19454  25.993  10.729  11.567
49640W        W19455   3.818  32.110  12.427
49641W        W19456  11.224  12.788  14.361
49642W        W19457  33.001  33.124  11.032
49643W        W19458  41.942  20.233   2.194
49644W        W19459   5.882  37.948  11.408
49645W        W19460  31.958  19.051  12.505
49646W        W19461  24.063  19.679  12.387
49647W        W19462  23.623  18.791  11.431
49648W        W19463  35.991  42.414  12.008
49649W        W19464  32.967  39.822   0.358
49650W        W19465  26.025  42.337   3.866
49651W        W19466  36.388  44.437  11.103
49652W        W19467  43.299  19.121  13.038
49653W        W19468   2.273   2.317  11.872
49654W        W19469  18.253  16.135  14.915
49655W        W19470  11.151  37.408  12.887
49656W        W19471  16.287  39.885   2.832
49657W        W19472  32.560  33.565   2.188
49658W        W19473   9.868   3.840  14.342
49659W        W19474   8.337  38.964  11.032
49660W        W19475  14.672  10.878  14.330
49661W        W19476  20.269  31.440   4.305
49662W        W19477   6.273  36.924   3.187
49663W        W19478  40.345  21.019  10.451
49664W        W19479  20.055  27.982  10.978
49665W        W19480   7.812  42.910   0.727
49666W        W19481  34.385  21.076   1.403
49667W        W19482  39.525  14.696   4.328
49668W        W19483  32.433  12.241   1.268
49669W        W19484  40.911  12.200   1.237
49670W        W19485  43.382   2.827  11.382
49671W        W19486  13.785  31.922   4.802
49672W        W19487  33.902  38.913  10.137
49673W        W19488  35.860  13.713  13.481
49674W        W19489  13.695  39.361   0.310
49675W        W19490  31.102  20.112  11.996
49676W        W19491   4.248  41.361   4.263
49677W        W19492  16.613  20.217  10.901
49678W        W19493  20.059  31.965   3.365
49679W        W19494  30.629  22.017   2.710
49680W        W19495  13.345  29.920   4.251
49681W        W19496  26.496  31.127  13.410
49682W        W19497  11.780   3.907  11.107
49683W        W19498  22.182  31.052  10.570
49684W        W19499  38.845  27.092  14.439
49685W        W19500  22.092  14.662  11.021
49686W        W19501  33.466  14.303  13.940
49687W        W19502  32.973  25.118   1.833
49688W        W19503  24.031  28.566   4.792
49689W        W19504  43.489  32.412   4.833
49690W        W19505  19.276  43.346  13.825
49691W        W19506  18.747  18.646   2.377
49692W        W19507  18.198   6.190  12.847
49693W        W19508  39.368  13.169   0.312
49694W        W19509   0.258   8.172  13.964
49695W        W19510  18.141   4.374  12.401
49696W        W19511  32.499  19.204  11.493
49697W        W19512   8.182  27.063   4.799
49698W        W19513  40.876  27.170  13.312
49699W        W19514  17.577  10.378   4.183
49700W        W19515  31.620  39.839  10.974
49701W        W19516   8.839   4.916  11.897
49702W        W19517  26.607  17.592   0.822
49703W        W19518  44.814  18.725   2.719
49704W        W19519  22.122  43.890  13.057
49705W        W19520   6.681   9.262   1.698
49706W        W19521  22.660   1.362  13.823
49707W        W19522  43.296  23.194   3.789
49708W        W19523  21.212  33.914  14.013
49709W        W19524  32.992  13.600  10.492
49710W        W19525  17.188  18.193   3.348
49711W        W19526  24.089   6.859   3.721
49712W        W19527  43.968  37.833   2.273
49713W        W19528  34.588  10.731  10.984
49714W        W19529   5.905  40.980  11.023
49715W        W19530  41.520  44.422   0.479
49716W        W19531  10.175  32.547   4.630
49717W        W19532   8.253  16.756  12.533
49718W        W19533  31.901   8.778   2.201
49719W        W19534  26.102  28.636   4.318
49720W        W19535  42.456   8.326   3.748
49721W        W19536  17.632  34.551   1.263
49722W        W19537  26.121  14.605  12.466
49723W        W19538   8.257  20.737  11.478
49724W        W19539  41.386  35.571  12.037
49725W        W19540  30.521  30.151  10.915
49726W        W19541  11.629  25.519  13.321
49727W        W19542  22.056  39.990   0.445
49728W        W19543  12.613   8.398   0.455
49729W        W19544  22.718  30.440  13.029
49730W        W19545  40.356  10.254  13.998
49731W        W19546  26.555  22.672  13.537
49732W        W19547  24.218  29.518  14.512
49733W        W19548  42.936  15.637   3.636
49734W        W19549  34.467  31.969   3.329
49735W        W19550  25.077  13.625   3.767
49736W        W19551  37.890  23.135  11.942
49737W        W19552  36.363  10.351   4.339
49738W        W19553   3.751  13.685  11.546
49739W        W19554  22.646  11.194  12.997
49740W        W19555   3.327  14.295  11.422
49741W        W19556  30.086  21.720   4.171
49742W        W19557  40.446  33.961  13.037
49743W        W19558  27.999  21.258  11.973
49744W        W19559  24.192   1.738   0.431
49745W        W19560   6.212  34.995  10.066
49746W        W19561  15.127  35.469  10.939
49747W        W19562   2.252  11.806  11.472
49748W        W19563   2.948  20.128   2.303
49749W        W19564  31.899  25.623   4.200
49750W        W19565  36.036  27.575   3.851
49751W        W19566  21.173  28.563  13.408
49752W        W19567  42.836  14.230  13.833
49753W        W19568  41.510   0.926  11.972
49754W        W19569  32.004   8.272   4.146
49755W        W19570  32.616  13.718  11.558
49756W        W19571  19.075   8.737  11.561
49757W        W19572   8.742  15.748   2.413
49758W        W19573  39.862   0.277   4.115
49759W        W19574   3.947   6.197  11.530
49760W        W19575   7.411  31.034  11.429
49761W        W19576   4.384  13.756   2.395
49762W        W19577  19.669  29.095   0.435
49763W        W19578  14.786   4.342   4.819
49764W        W19579   6.841  27.067  13.833
49765W        W19580   3.952  23.031   1.225
49766W        W19581  41.871  38.432   4.742
49767W        W19582  43.292   3.799   0.264
49768W        W19583  25.516   5.930  10.494
49769W        W19584  35.896   5.407   4.806
49770W        W19585  27.174  42.329   1.888
49771W        W19586  42.406  37.938  11.943
49772W        W19587  15.088  35.067   4.319
49773W        W19588  29.626  15.746   3.643
49774W        W19589  12.734  40.821  11.575
49775W        W19590  16.725  41.983  11.416
49776W        W19591   3.926   2.893   1.725
49777W        W19592   7.173  11.707  10.922
49778W        W19593  10.155  35.462   0.751
49779W        W19594   1.792  19.614  13.843
49780W        W19595   2.343  22.502  11.081
49781W        W19596  29.482   6.422   1.448
49782W        W19597  24.520  20.098  11.443
49783W        W19598  31.549  26.480   1.431
49784W        W19599  13.321  24.614   4.294
49785W        W19600   8.326  22.657  14.402
49786W        W19601  33.487  24.555   0.779
49787W        W19602  14.705  18.164  14.886
49788W        W19603  40.367  27.664  14.007
49789W        W19604   9.859   8.345   1.927
49790W        W19605   1.809  21.703   2.726
49791W        W19606  10.275  44.493   3.148
49792W        W19607  40.404  27.449   3.758
49793W        W19608  44.451   2.265  13.448
49794W        W19609  34.581  15.580   4.219
49795W        W19610   6.308  19.585   4.669
49796W        W19611  43.873   7.343   4.276
49797W        W19612  25.119  35.415   2.280
49798W        W19613  17.728  38.056   1.394
49799W        W19614  25.029  40.845   0.467
49800W        W19615  16.601  29.001  11.885
49801W        W19616  39.543  28.000   2.284
49802W        W19617   6.378  24.650  14.409
49803W        W19618   7.197  19.706  14.452
49804W        W19619  31.552   9.724  14.771
49805W        W19620   9.300  20.628  10.997
49806W        W19621  13.218  38.370  14.977
49807W        W19622  40.927  32.076   2.760
49808W        W19623  44.489  30.115  14.805
49809W        W19624   7.214  44.996  13.949
49810W        W19625  12.325  37.430   3.857
49811W        W19626  21.159  43.002  11.606
49812W        W19627   9.212  38.946   2.273
49813W        W19628  41.297  40.321  14.845
49814W        W19629  10.751  32.584   2.369
49815W        W19630  17.695  10.151  11.040
49816W        W19631  31.003   7.294  14.874
49817W        W19632  44.961  13.812  12.374
49818W        W19633  34.032  11.160  12.827
49819W        W19634  31.107   0.745  10.025
49820W        W19635  32.008   7.264   2.684
49821W        W19636  36.353  44.325  12.377
49822W        W19637  21.163  19.070  12.890
49823W        W19638  31.037  18.219   9.936
49824W        W19639  20.151   7.858  10.481
49825W        W19640  30.957  24.697   3.314
49826W        W19641  22.006  44.843  14.477
49827W        W19642  42.375  10.772  11.512
49828W        W19643  44.961   7.895  12.836
49829W        W19644  16.123  20.256   4.226
49830W        W19645  11.706   5.306   4.816
49831W        W19646   9.323  36.852  14.410
49832W        W19647  19.658   0.410  14.879
49833W        W19648  11.783  28.997  11.405
49834W        W19649  36.032  10.647   2.412
49835W        W19650   9.244  34.915   3.363
49836W        W19651  35.957   0.975  10.587
49837W        W19652  15.610   4.352   1.822
49838W        W19653   6.726  37.385  13.820
49839W        W19654  38.937  30.982  12.939
49840W        W19655  42.836  24.612   2.854
49841W        W19656  42.928  20.219   4.330
49842W        W19657  16.162  32.001  13.835
49843W        W19658  33.996  44.364  11.894
49844W        W19659  39.064  16.251   2.261
49845W        W19660  23.700   1.930   3.647
49846W        W19661  19.200  39.330   1.316
49847W        W19662  18.597  43.317  13.793
49848W        W19663   6.360   4.308   4.774
49849W        W19664   7.723  25.495   2.666
49850W        W19665  21.157  11.667  14.510
49851W        W19666  10.770   0.789  12.892
49852W        W19667  14.726  13.119   1.348
49853W        W19668  35.862  33.617  12.971
49854W        W19669  39.426  15.090  14.465
49855W        W19670  24.559  25.709  11.941
49856W        W19671  28.474  22.200  11.568
49857W        W19672   3.879  26.034  13.909
49858W        W19673  39.342  34.580  12.073
49859W        W19674   9.737  15.219  12.089
49860W        W19675  33.445  28.653   3.296
49861W        W19676   2.409   8.360  10.635
49862W        W19677   2.820  35.597   3.340
49863W        W19678  19.628  29.615  10.939
49864W        W19679  24.579  42.906  10.596
49865W        W19680  12.214  17.211   0.266
49866W        W19681  26.682   4.223  12.999
49867W        W19682   0.401   2.323   2.680
49868W        W19683  19.052   0.958   2.767
49869W        W19684  18.571  11.790  12.029
49870W        W19685  17.669   7.265   0.798
49871W        W19686  33.570  18.567   3.798
49872W        W19687  26.653  29.554   2.179
49873W        W19688   2.904  14.747   3.742
49874W        W19689  16.654   5.720   2.330
49875W        W19690   1.946  33.625  13.043
49876W        W19691  38.960   1.845  10.449
49877W        W19692   9.164  11.688   1.229
49878W        W19693  18.758   3.272   3.663
49879W        W19694  25.072  33.914   2.389
49880W        W19695  18.214  39.488   3.752
49881W        W19696   9.361  18.249  11.094
49882W        W19697   6.297   6.389  10.603
49883W        W19698  33.444   8.357   4.655
49884W        W19699   4.864   1.923  13.526
49885W        W19700  15.804  20.202  12.899
49886W        W19701   3.912  40.425   3.245
49887W        W19702  37.344  17.255   4.186
49888W        W19703  31.907  26.049   1.265
49889W        W19704   3.294   4.251  13.884
49890W        W19705  17.750  39.339   0.259
49891W        W19706   6.258  26.075   1.369
49892W        W19707  15.160  15.796  11.542
49893W        W19708  32.919  30.022   3.223
49894W        W19709  41.391  18.696   2.690
49895W        W19710  24.647  23.051  10.581
49896W        W19711  14.139   5.310   3.648
49897W        W19712  15.689  37.852  11.551
49898W        W19713   5.331  33.893   0.734
49899W        W19714  41.457  42.880   5.188
49900W        W19715   6.394  25.602   2.336
49901W        W19716  31.060   6.302   2.260
49902W        W19717  19.573  34.002   1.748
49903W        W19718  32.564  17.214   1.283
49904W        W19719  10.228  26.483   2.802
49905W        W19720   5.254  25.101   4.215
49906W        W19721  12.247  27.152  13.812
49907W        W19722   6.898  16.598  12.561
49908W        W19723   0.902  37.023  12.850
49909W        W19724   9.724  18.188  14.410
49910W        W19725  29.631  27.042  12.027
49911W        W19726  36.527  17.134  12.364
49912W        W19727   6.250  12.615  14.303
49913W        W19728  16.108  13.202   4.626
49914W        W19729  38.869  39.352  11.441
49915W        W19730   6.232  28.114   5.088
49916W        W19731  25.644  18.094   1.256
49917W        W19732   2.315  13.243  10.615
49918W        W19733  13.196  30.997   1.743
49919W        W19734  23.537  16.151   9.558
49920W        W19735  21.216  31.644  13.499
49921W        W19736  33.436  44.899   2.247
49922W        W19737   4.388  29.651   1.228
49923W        W19738  10.877  37.425  12.534
49924W        W19739  30.633   7.676  13.444
49925W        W19740  27.093   3.345  11.933
49926W        W19741  21.234   4.761   0.367
49927W        W19742  12.825  26.587  10.893
49928W        W19743  36.870  18.072   2.690
49929W        W19744  26.670  17.693   4.132
49930W        W19745  38.932   4.751   4.813
49931W        W19746  10.170  33.026  10.157
49932W        W19747  42.835  42.881   1.844
49933W        W19748  21.131  43.809   1.248
49934W        W19749  24.172  18.177  13.959
49935W        W19750  40.427  21.635   0.480
49936W        W19751  32.906  41.367   0.902
49937W        W19752  36.591  13.798   4.790
49938W        W19753   8.308   8.759  14.327
49939W        W19754  22.129  37.879   0.277
49940W        W19755  16.282   8.405  11.439
49941W        W19756  43.452  31.146  14.887
49942W        W19757  25.024  16.075   0.433
49943W        W19758  23.014  11.198  10.995
49944W        W19759  36.498  11.303  13.853
49945W        W19760  21.055  21.049   2.353
49946W        W19761  11.330  35.047  11.031
49947W        W19762  17.775   4.868   3.379
49948W        W19763  38.017  42.340  12.555
49949W        W19764  28.143  39.059  11.859
49950W        W19765   0.763  21.678  11.886
49951W        W19766  16.096   9.692   0.456
49952W        W19767  24.481  37.417   4.626
49953W        W19768  29.064  41.423  11.110
49954W        W19769  19.547  38.450  11.560
49955W        W19770  10.182  17.628   3.753
49956W        W19771  37.517   7.214   9.981
49957W        W19772  14.189  24.029  13.013
49958W        W19773   2.770  40.351  12.476
49959W        W19774  31.104  43.990  12.470
49960W        W19775   7.741   2.413   0.960
49961W        W19776   0.821  40.921  11.409
49962W        W19777  35.537  30.422   4.257
49963W        W19778  25.516  35.869   2.881
49964W        W19779   0.369   0.325   2.273
49965W        W19780   7.820  33.380  14.323
49966W        W19781   8.835  12.651  14.787
49967W        W19782   7.882   6.209  11.576
49968W        W19783  19.271  22.568  13.481
49969W        W19784  22.553  10.875  11.913
49970W        W19785  34.070  38.339   3.826
49971W        W19786  38.010  12.234   0.846
49972W        W19787  12.158   2.879  12.014
49973W        W19788  38.931  22.550  14.862
49974W        W19789  16.305  37.536  12.462
49975W        W19790  10.196   9.159  14.464
49976W        W19791  13.344  15.117  11.894
49977W        W19792  17.193  26.119  10.902
49978W        W19793  25.609   4.904  13.931
49979W        W19794  24.226  10.833   1.268
49980W        W19795  28.165   7.315   1.355
49981W        W19796  19.152  25.686  13.545
49982W        W19797   5.244  22.574  11.472
49983W        W19798  39.953  18.605   3.338
49984W        W19799  25.211  15.601  12.989
49985W        W19800  19.174  18.681  12.379
49986W        W19801  27.150  42.282  13.308
49987W        W19802   6.387  13.294   3.154
49988W        W19803   1.843  18.099   1.425
49989W        W19804  18.693  21.240  14.974
49990W        W19805   1.444  23.615   2.794
49991W        W19806  43.799  31.935  12.481
49992W        W19807  31.985  22.221   0.749
49993W        W19808   3.872  11.298   1.867
49994W        W19809  19.039  17.088   0.439
49995W        W19810  36.555  10.831  14.351
49996W        W19811   1.825   8.656   3.178
49997W        W19812   0.278  36.397   1.848
49998W        W19813  37.890  29.115  13.323
49999W        W19814  16.656  37.909  12.962
50000W        W19815   1.941   4.762   2.830
50001W        W19816  10.157  10.314  14.346
50002W        W19817   9.857  23.591   0.738
50003W        W19818  25.983   5.730  14.351
50004W        W19819  27.628  10.292   5.244
50005W        W19820  27.640   5.689  10.945
50006W        W19821  20.126  12.802  11.595
50007W        W19822  26.524  23.543  11.484
50008W        W19823  36.995  34.054   1.775
50009W        W19824  42.921  13.248   4.753
50010W        W19825  43.764  40.493   1.272
50011W        W19826  15.169   0.382  13.889
50012W        W19827   4.271  11.277  13.478
50013W        W19828  38.451  38.447  11.428
50014W        W19829  37.499  13.794  14.982
50015W        W19830  23.659  31.043   3.373
50016W        W19831   2.806  28.185   0.472
50017W        W19832  24.024   9.332  11.067
50018W        W19833  19.241  20.219   2.662
50019W        W19834  31.001   2.724   2.662
50020W        W19835  41.891  28.105   0.913
50021W        W19836  21.017  36.906   0.828
50022W        W19837  25.474  10.273   5.587
50023W        W19838  19.133   0.358  10.585
50024W        W19839  15.632  28.464   4.822
50025W        W19840   1.824  33.459   0.847
50026W        W19841  12.208  12.626  14.978
50027W        W19842   2.441   7.264   2.700
50028W        W19843  11.211  30.940   0.242
50029W        W19844  14.276  42.355  13.985
50030W        W19845  10.632  28.566  10.420
50031W        W19846  27.598   8.881  14.412
50032W        W19847  12.312   7.340  10.958
50033W        W19848   1.447  27.613  11.530
50034W        W19849  18.606  41.857   1.271
50035W        W19850  40.360  41.393  12.354
50036W        W19851  24.107   3.408   4.799
50037W        W19852  17.733   3.214   1.379
50038W        W19853  35.096  15.285  12.001
50039W        W19854   1.899  29.926  13.025
50040W        W19855  38.390   6.339  14.343
50041W        W19856  12.785  23.493  14.347
50042W        W19857  35.859  29.657  13.389
50043W        W19858  29.535  41.417  12.395
50044W        W19859  27.656  11.356   0.790
50045W        W19860  44.916  23.051   2.317
50046W        W19861  33.099   5.739  12.348
50047W        W19862  37.003   8.305  11.474
50048W        W19863  29.085  31.432  11.380
50049W        W19864  14.605  32.578  10.499
50050W        W19865  11.644  40.376  12.893
50051W        W19866  30.531  29.959  14.363
50052W        W19867  10.315  41.452  10.050
50053W        W19868   8.272  35.981  10.444
50054W        W19869  29.966  26.956  11.498
50055W        W19870   7.717   4.839  12.089
50056W        W19871  40.814   6.225   0.886
50057W        W19872  35.905  11.271   1.280
50058W        W19873  33.431   9.649  13.307
50059W        W19874  39.521  36.908   4.735
50060W        W19875  20.253  19.126   0.448
50061W        W19876  25.526  12.189   4.677
50062W        W19877   2.734  39.540   2.715
50063W        W19878  27.012  26.534   1.727
50064W        W19879  41.351  27.563   4.147
50065W        W19880  26.703  19.226  12.557
50066W        W19881  38.031  42.825  12.917
50067W        W19882  17.101  38.390   2.366
50068W        W19883  27.984  35.539  13.847
50069W        W19884  10.165   3.741   4.652
50070W        W19885  33.945  37.977  12.951
50071W        W19886  26.471  38.515   1.756
50072W        W19887  10.280  11.370  11.610
50073W        W19888  21.250  22.057  11.086
50074W        W19889  32.014  40.836  11.975
50075W        W19890   2.936  17.754   2.347
50076W        W19891   4.741  37.397  14.836
50077W        W19892  43.977  27.124   2.344
50078W        W19893  25.975  36.042  12.074
50079W        W19894  33.437  32.542   2.410
50080W        W19895   2.822  17.580  13.546
50081W        W19896  39.463  41.913  13.911
50082W        W19897   2.274  38.930   5.205
50083W        W19898  12.302  12.357  12.061
50084W        W19899  34.600  41.351   1.334
50085W        W19900  23.091   1.733  13.999
50086W        W19901  36.953  25.699   3.686
50087W        W19902  37.430  13.240   3.295
50088W        W19903   1.365  33.066   2.714
50089W        W19904  25.473  27.518   1.312
50090W        W19905  26.620  43.896  13.895
50091W        W19906  29.033  21.571   3.715
50092W        W19907   6.798  33.580   3.729
50093W        W19908   4.330  17.250  13.544
50094W        W19909  44.271  29.932   9.985
50095W        W19910   1.792   7.853  11.896
50096W        W19911   8.759   4.875   0.845
50097W        W19912  42.910   8.178   3.304
50098W        W19913  32.908  43.770  14.760
50099W        W19914   1.882  21.665   3.361
50100W        W19915  10.369  24.128  12.823
50101W        W19916  18.668  14.276  14.818
50102W        W19917   8.682  26.110   3.712
50103W        W19918  26.068   1.735  12.356
50104W        W19919  38.063   0.952  11.508
50105W        W19920   6.764   3.860  10.447
50106W        W19921   9.753  17.251  14.921
50107W        W19922  42.329  13.292  10.643
50108W        W19923   6.920  12.767   0.476
50109W        W19924  31.913   2.380   0.285
50110W        W19925  34.029  12.339   3.247
50111W        W19926  28.106  28.066   1.740
50112W        W19927  22.530   5.721   3.374
50113W        W19928   6.405  27.484   3.663
50114W        W19929  20.154  37.372   3.210
50115W        W19930  17.171  34.036  14.408
50116W        W19931  42.891  25.633   3.685
50117W        W19932  12.803  20.159   2.788
50118W        W19933  30.939  44.797   0.467
50119W        W19934  17.631  29.462  12.478
50120W        W19935  18.666   2.870  12.570
50121W        W19936   7.787  32.471  12.544
50122W        W19937  23.678  37.085  13.944
50123W        W19938  31.545   8.676  14.427
50124W        W19939  30.109  33.924  10.946
50125W        W19940  44.834  18.248  14.375
50126W        W19941  25.020  40.382  11.464
50127W        W19942  25.486   7.303   4.354
50128W        W19943  18.053  40.499   1.330
50129W        W19944   3.874   6.919   0.864
50130W        W19945   4.422  17.655  13.451
50131W        W19946  25.163  28.635  12.902
50132W        W19947  14.811  39.834  14.448
50133W        W19948   4.818   9.373   3.775
50134W        W19949   7.840  22.646   4.185
50135W        W19950  23.027  37.982  10.453
50136W        W19951   6.423  28.020   4.165
50137W        W19952  15.321  13.107   2.849
50138W        W19953   0.975  36.983  11.038
50139W        W19954  44.323  25.543   3.659
50140W        W19955   6.814  39.888   5.204
50141W        W19956  20.689   6.279  12.842
50142W        W19957  37.391  39.487   3.853
50143W        W19958  24.177  37.411  11.942
50144W        W19959   4.438  43.508   2.705
50145W        W19960  30.652  28.058  13.053
50146W        W19961  10.639  39.436  14.764
50147W        W19962  14.248  11.284   1.383
50148W        W19963  30.471  44.396   2.352
50149W        W19964  42.447  26.069   0.882
50150W        W19965  17.177  37.016   2.789
50151W        W19966  38.886  43.490   2.306
50152W        W19967  23.725  13.166   2.670
50153W        W19968  30.450   0.308   0.401
50154W        W19969  20.556  18.151  13.820
50155W        W19970   4.699  20.647   0.801
50156W        W19971   7.747  43.833  11.967
50157W        W19972  15.244  29.001   2.849
50158W        W19973   7.889  21.187  12.374
50159W        W19974  12.743  42.285  13.832
50160W        W19975  11.789  19.190   0.273
50161W        W19976  32.038  20.568  11.488
50162W        W19977  23.172  29.080   4.623
50163W        W19978  41.930  19.232   3.285
50164W        W19979  26.035   4.343   1.934
50165W        W19980  13.716   1.282  12.448
50166W        W19981  41.946  36.936  11.383
50167W        W19982  29.425  35.420  14.943
50168W        W19983   6.210   1.453  12.573
50169W        W19984  30.006  43.021   0.345
50170W        W19985  13.706   4.727  11.128
50171W        W19986  35.364  15.602   3.166
50172W        W19987   2.433  21.258   2.713
50173W        W19988  38.480  18.107  10.972
50174W        W19989  10.767  42.798  12.419
50175W        W19990  29.533  10.822   2.372
50176W        W19991  24.573  13.252   0.759
50177W        W19992  29.055  27.486   4.302
50178W        W19993  34.500  34.917   3.323
50179W        W19994  20.216   3.336   2.182
50180W        W19995  18.690   1.801  14.436
50181W        W19996  16.746  23.724   0.915
50182W        W19997  32.629  44.426   0.280
50183W        W19998  14.775  25.552   1.303
50184W        W19999  19.686  26.508   1.346
50185W        W20000  26.104  40.821   4.188
50186W        W20001  43.305  42.878  11.038
50187W        W20002  10.845  20.127   2.862
50188W        W20003  14.678   0.956  13.528
50189W        W20004  21.104   2.754  11.479
50190W        W20005  14.194  43.416   1.767
50191W        W20006  38.967  13.779  14.961
50192W        W20007  11.163  37.846  14.318
50193W        W20008  24.095  20.733  13.989
50194W        W20009  10.687   2.792   4.333
50195W        W20010  34.479  10.771  14.829
50196W        W20011   1.861  34.007   4.139
50197W        W20012  14.175  33.530   2.711
50198W        W20013  12.688  36.512  14.852
50199W        W20014   9.267   8.300   0.344
50200W        W20015  21.512  16.156  12.876
50201W        W20016  38.378  12.716  14.008
50202W        W20017   9.742  13.295   3.651
50203W        W20018  31.606  24.518  14.974
50204W        W20019  14.255  43.952   0.854
50205W        W20020  36.871  13.629   2.835
50206W        W20021  12.156  14.623  14.957
50207W        W20022  11.656  29.605   4.252
50208W        W20023  37.466  39.411   1.349
50209W        W20024  15.677  19.740  10.131
50210W        W20025   0.977  36.452   2.269
50211W        W20026  40.381  34.032  13.883
50212W        W20027  23.492  39.824   2.391
50213W        W20028  36.469  44.495  12.984
50214W        W20029  20.053  21.687  12.399
50215W        W20030  18.229  12.144   4.305
50216W        W20031  34.580  32.093   2.419
50217W        W20032  34.885  23.492  14.837
50218W        W20033  27.516  37.953  10.435
50219W        W20034  43.283   1.898   1.898
50220W        W20035  32.421  14.195  11.579
50221W        W20036   2.801  12.719   4.332
50222W        W20037   8.233  44.873   4.617
50223W        W20038   3.233   4.300  10.534
50224W        W20039  19.699  31.961  12.449
50225W        W20040  15.242   3.883   0.260
50226W        W20041  35.526  11.339  11.571
50227W        W20042   2.866  26.500   0.295
50228W        W20043  10.290  26.132  13.902
50229W        W20044  30.417  26.044  14.495
50230W        W20045  14.118   9.159  12.412
50231W        W20046  33.962  14.759   1.215
50232W        W20047  33.891  12.769   3.279
50233W        W20048  29.095  38.836   3.323
50234W        W20049  11.151   3.885  10.972
50235W        W20050   3.836   7.839   3.288
50236W        W20051  32.096  43.931  12.517
50237W        W20052  23.992  14.708  13.976
50238W        W20053  26.665   9.674  12.007
50239W        W20054   9.867   2.322   1.770
50240W        W20055  26.632  35.543   0.479
50241W        W20056  14.791  42.967  10.461
50242W        W20057  17.189  24.717  10.406
50243W        W20058   7.829   1.437   4.168
50244W        W20059  22.107  30.634   3.757
50245W        W20060  28.075  35.911  12.847
50246W        W20061  24.696   3.368  10.986
50247W        W20062  31.954   9.323  14.795
50248W        W20063  22.630  44.886  10.434
50249W        W20064  17.232  27.990  14.916
50250W        W20065  40.344  14.169   0.891
50251W        W20066  36.917  17.610   3.645
50252W        W20067   5.746  35.375   2.768
50253W        W20068  37.373  22.667   3.252
50254W        W20069  39.417  39.396  10.524
50255W        W20070  27.000  42.463  11.125
50256W        W20071  11.347   8.339  14.025
50257W        W20072  32.890  21.183   3.784
50258W        W20073  40.041  34.428   2.193
50259W        W20074  24.114  20.229   5.142
50260W        W20075  13.838  13.641  12.420
50261W        W20076  11.350  26.514   2.412
50262W        W20077  30.478  19.582  11.996
50263W        W20078  20.614  16.239   0.270
50264W        W20079   2.917  30.468   0.477
50265W        W20080  35.880  24.578  10.526
50266W        W20081   7.307  27.685  14.833
50267W        W20082  12.780  36.928   2.256
50268W        W20083  28.582  42.482   0.936
50269W        W20084  42.284   5.437  14.772
50270W        W20085  36.893  13.149   4.208
50271W        W20086  29.490  37.441  11.537
50272W        W20087   8.350  20.761  14.763
50273W        W20088  40.419  32.885  12.876
50274W        W20089  36.041  13.744   4.260
50275W        W20090  28.030  44.798  13.507
50276W        W20091  35.955   1.401  13.398
50277W        W20092  20.060   0.342  11.530
50278W        W20093   7.348  30.596   1.413
50279W        W20094  26.484  16.183  11.989
50280W        W20095   3.914  38.352  11.966
50281W        W20096  11.363  12.343   3.314
50282W        W20097  42.504   8.874   0.958
50283W        W20098  17.749   0.962  11.032
50284W        W20099   0.483  25.219  13.424
50285W        W20100  13.804  44.423  11.523
50286W        W20101  24.704  35.435   3.370
50287W        W20102  34.572   2.413   3.730
50288W        W20103  43.955  18.656   0.343
50289W        W20104  42.917  22.013  14.767
50290W        W20105   5.278  41.927  13.474
50291W        W20106  21.032  34.570  10.155
50292W        W20107  12.305  41.535   3.763
50293W        W20108  18.131  24.040  11.581
50294W        W20109  16.281  39.818  12.841
50295W        W20110  13.746   8.198  14.458
50296W        W20111  11.664   2.288   4.249
50297W        W20112   0.786   5.413  13.992
50298W        W20113  43.486  39.344  14.400
50299W        W20114  13.841  28.091  10.967
50300W        W20115  13.262  31.938   3.759
50301W        W20116  39.338  35.597   0.464
50302W        W20117  21.233  25.061  13.806
50303W        W20118  30.596  28.171   3.633
50304W        W20119  43.428  24.664   1.858
50305W        W20120  16.190  27.136  11.113
50306W        W20121   4.766  20.118  12.025
50307W        W20122   3.256  33.526   4.129
50308W        W20123   1.473  26.085  11.905
50309W        W20124  44.315  33.519   4.280
50310W        W20125  35.035  28.471   3.283
50311W        W20126  33.501  16.235  12.837
50312W        W20127  22.746  41.966   9.994
50313W        W20128   0.365  20.768   1.715
50314W        W20129  32.477  35.426  14.792
50315W        W20130   2.760  11.146   1.815
50316W        W20131  38.517  32.489   4.720
50317W        W20132   8.255  39.347   3.362
50318W        W20133  35.538  32.125  12.093
50319W        W20134  13.669  15.638  10.534
50320W        W20135   2.860  41.919  10.945
50321W        W20136  25.550  20.232   2.349
50322W        W20137  33.874  42.980  13.332
50323W        W20138  12.746  31.621  10.409
50324W        W20139  11.197  14.684   1.843
50325W        W20140  18.706  26.068   0.886
50326W        W20141  29.432  28.549  14.799
50327W        W20142  12.316  21.655  13.356
50328W        W20143  30.926  34.965   1.832
50329W        W20144  38.047  17.696  13.452
50330W        W20145  15.242   3.721   2.255
50331W        W20146   7.859   4.387  14.761
50332W        W20147   6.703  37.528  12.432
50333W        W20148   8.859  19.103   4.318
50334W        W20149  17.192  13.110   2.775
50335W        W20150   6.906  15.614   3.170
50336W        W20151  41.369  37.947   2.257
50337W        W20152  39.994  25.706  11.099
50338W        W20153  10.251  16.197  13.355
50339W        W20154   4.751  36.357   2.187
50340W        W20155   6.800  17.757  10.927
50341W        W20156  40.354   5.203  11.483
50342W        W20157  30.433  38.444  10.424
50343W        W20158  32.433  17.151   0.871
50344W        W20159  33.909  15.138  13.033
50345W        W20160  18.771  36.382  14.801
50346W        W20161   0.908  13.809   1.834
50347W        W20162   9.345  40.031  14.846
50348W        W20163  35.963  22.609   4.737
50349W        W20164  14.772  10.329   2.664
50350W        W20165  17.253  42.832  14.401
50351W        W20166  43.802  39.057  12.995
50352W        W20167  24.017  42.319  13.992
50353W        W20168   2.423  17.741   2.287
50354W        W20169  29.060  39.844  11.577
50355W        W20170  29.566  32.560   3.660
50356W        W20171  35.016  35.361   3.148
50357W        W20172   2.873  30.100   4.284
50358W        W20173   4.917  43.920   0.441
50359W        W20174  29.462  20.028   1.280
50360W        W20175  32.915  35.461   4.120
50361W        W20176  31.491  18.252  12.395
50362W        W20177   0.785  22.706   0.468
50363W        W20178  40.400  35.964  13.449
50364W        W20179  27.948  25.623  14.868
50365W        W20180  17.577   6.319   4.651
50366W        W20181   7.820  11.712  11.903
50367W        W20182  25.125  42.284  13.310
50368W        W20183  38.992  11.133  14.347
50369W        W20184  17.625  30.459  14.800
50370W        W20185  27.665  23.101   3.780
50371W        W20186  42.322  15.315   3.259
50372W        W20187  30.102  14.136  10.624
50373W        W20188  21.211  29.124   0.947
50374W        W20189  10.674  20.761   2.720
50375W        W20190  30.440  15.634  11.493
50376W        W20191  23.720   8.277   0.360
50377W        W20192  15.218  32.078  10.570
50378W        W20193  20.762  20.687  10.561
50379W        W20194  21.672  32.576   0.958
50380W        W20195  31.522  36.459  14.870
50381W        W20196  31.596  36.377  12.844
50382W        W20197  36.500  43.390  11.594
50383W        W20198  21.054  22.022   0.463
50384W        W20199   3.762  34.615  11.046
50385W        W20200   3.292  23.082   1.446
50386W        W20201  44.924  28.017  13.450
50387W        W20202  24.569  27.614  13.380
50388W        W20203  39.844  14.791   3.842
50389W        W20204   9.830   1.333  12.431
50390W        W20205  12.186  23.494   1.797
50391W        W20206  34.898  37.386  11.999
50392W        W20207   8.753  15.585   0.732
50393W        W20208  27.499   2.794   0.308
50394W        W20209  13.805  13.264   3.361
50395W        W20210  25.499  29.523  10.633
50396W        W20211  31.060  24.550  13.972
50397W        W20212  34.418  24.510  14.305
50398W        W20213  23.491  37.500  10.037
50399W        W20214  15.812  26.011  11.025
50400W        W20215  18.119  34.395  10.534
50401W        W20216  14.754  30.027   4.201
50402W        W20217  14.332   1.296  12.902
50403W        W20218  15.203  37.051   0.960
50404W        W20219  31.475   7.821   0.932
50405W        W20220  12.169  15.753  11.076
50406W        W20221  31.007  21.732  14.793
50407W        W20222   6.756  37.526   4.254
50408W        W20223  23.597   4.840   0.444
50409W        W20224   4.285  15.719  12.909
50410W        W20225  34.083   7.684   1.294
50411W        W20226  10.844  21.206  11.540
50412W        W20227  38.061   1.964  10.456
50413W        W20228  32.109  29.649  14.869
50414W        W20229  21.519  15.207  13.946
50415W        W20230  36.956  20.099   1.274
50416W        W20231  34.587   7.856  14.026
50417W        W20232  21.577  35.869  14.902
50418W        W20233  14.126   7.171  12.048
50419W        W20234  34.483  13.285   1.828
50420W        W20235  13.337  25.007   0.799
50421W        W20236  32.493  26.133  10.962
50422W        W20237  11.656  21.118  10.088
50423W        W20238  22.098   3.429   4.600
50424W        W20239   6.343  28.488   2.250
50425W        W20240   1.838  35.404   3.250
50426W        W20241  34.612  14.666  13.440
50427W        W20242  28.547  15.187   0.342
50428W        W20243   6.315  34.454   3.855
50429W        W20244  33.010  39.421  12.435
50430W        W20245   9.189  27.528   3.761
50431W        W20246  11.362  12.283  13.342
50432W        W20247  24.071  15.641   2.353
50433W        W20248   6.377   9.281  10.430
50434W        W20249  18.125  34.428   4.168
50435W        W20250  11.363  25.478  12.375
50436W        W20251  44.490  14.688  12.514
50437W        W20252   5.868  15.761   0.826
50438W        W20253  36.920  31.919   3.733
50439W        W20254  26.656  29.956   4.692
50440W        W20255  13.785  39.318  11.880
50441W        W20256   1.298  42.383  11.569
50442W        W20257  13.750  35.064  14.325
50443W        W20258  22.007  36.496   4.185
50444W        W20259   8.208  10.354   2.219
50445W        W20260   3.842  14.596  11.924
50446W        W20261   3.883   3.447  14.987
50447W        W20262  40.397  33.513   2.178
50448W        W20263  18.186   8.837  14.003
50449W        W20264  41.485  14.634  13.926
50450W        W20265  43.964   0.284   3.749
50451W        W20266  15.703  14.805   0.474
50452W        W20267  41.456  14.835   0.800
50453W        W20268   0.253  39.534  13.876
50454W        W20269   1.732   4.338   2.733
50455W        W20270  24.562  39.509  11.003
50456W        W20271  14.170  11.227  13.799
50457W        W20272  40.962  43.474   3.249
50458W        W20273   0.925  40.913   1.421
50459W        W20274   5.823  18.223  11.575
50460W        W20275   9.752   3.951   4.153
50461W        W20276  26.626   7.911  12.412
50462W        W20277   4.317  39.546  12.855
50463W        W20278  37.949  10.782   3.850
50464W        W20279  22.563  27.613  13.486
50465W        W20280  32.062  23.175   0.431
50466W        W20281  16.660  41.834   1.850
50467W        W20282  41.322   3.709   2.210
50468W        W20283  23.134  12.122  11.091
50469W        W20284  42.935  38.528  14.276
50470W        W20285  33.420  37.946  14.952
50471W        W20286  13.766  26.965  12.024
50472W        W20287  41.463  14.279   3.194
50473W        W20288  13.290  41.504   2.700
50474W        W20289   5.354  31.990   4.638
50475W        W20290  40.032   1.940   2.794
50476W        W20291  22.184  26.183   2.774
50477W        W20292  28.457  44.352   0.454
50478W        W20293  34.079  17.219   3.373
50479W        W20294  40.900  44.896   4.754
50480W        W20295  34.556  44.824   0.267
50481W        W20296  10.380   2.423  12.918
50482W        W20297  42.491  39.431   1.873
50483W        W20298  18.116  19.149  14.895
50484W        W20299  24.064  25.066  11.971
50485W        W20300  14.617  31.935  13.402
50486W        W20301  14.690  11.698   2.877
50487W        W20302  38.429  35.968  13.467
50488W        W20303  44.970  10.178  10.062
50489W        W20304  26.167   0.756  14.407
50490W        W20305  40.967  22.592  12.830
50491W        W20306  33.386  29.997  10.596
50492W        W20307   1.372  31.479   4.278
50493W        W20308  25.691  40.353   3.679
50494W        W20309  29.580   9.226   1.720
50495W        W20310  20.087  36.934   2.886
50496W        W20311  41.314  18.591  11.470
50497W        W20312  32.934  37.035   2.677
50498W        W20313  31.124  13.649   1.352
50499W        W20314   4.284  43.959  11.893
50500W        W20315  35.971  22.217  13.318
50501W        W20316   1.770   1.761   4.748
50502W        W20317  39.374   4.335  11.525
50503W        W20318  32.390   2.901  12.828
50504W        W20319  42.427  20.644   1.387
50505W        W20320  10.210  12.632   4.286
50506W        W20321  44.309  34.558   2.855
50507W        W20322   3.799   7.307   4.288
50508W        W20323  32.018  27.499  11.967
50509W        W20324  27.068  43.916  13.425
50510W        W20325  35.395  39.502   2.843
50511W        W20326  20.188  28.132  13.459
50512W        W20327   1.299  26.129   4.177
50513W        W20328  15.204  23.127  13.891
50514W        W20329  29.959  13.798   4.817
50515W        W20330  36.967  10.222   1.865
50516W        W20331  40.317   4.312  12.086
50517W        W20332  31.016  38.327  13.336
50518W        W20333  17.156  23.575  10.522
50519W        W20334  24.982  29.541   2.256
50520W        W20335  34.006  33.597  13.039
50521W        W20336  38.462  36.991   0.764
50522W        W20337   1.840  23.499  13.481
50523W        W20338  16.779  21.713  11.946
50524W        W20339   0.388  38.560   0.769
50525W        W20340  38.073  17.137  10.911
50526W        W20341  33.007  14.212   3.685
50527W        W20342  34.869  24.585  12.563
50528W        W20343  29.095   4.375   3.381
50529W        W20344  27.190  41.855  14.792
50530W        W20345  15.115  42.504   1.324
50531W        W20346  35.545  25.511  14.773
50532W        W20347  19.073  38.437  14.282
50533W        W20348   5.243  35.994   1.727
50534W        W20349  42.865  30.542  10.575
50535W        W20350  38.934  25.589  10.424
50536W        W20351  16.687  43.473  13.489
50537W        W20352  23.226  15.131  10.998
50538W        W20353   0.319   9.670   4.600
50539W        W20354  37.004   3.378   1.392
50540W        W20355  28.982  13.619   3.315
50541W        W20356  38.896  43.342   0.346
50542W        W20357  43.339  10.325   3.157
50543W        W20358  10.289  38.511   1.388
50544W        W20359   8.351  36.939   1.786
50545W        W20360  14.222   5.878   3.298
50546W        W20361   0.494  14.281   2.224
50547W        W20362  10.221  41.980  11.033
50548W        W20363  21.106  26.525  14.983
50549W        W20364  43.986  36.891  12.348
50550W        W20365   2.850  19.057  14.317
50551W        W20366  31.989  36.483   5.252
50552W        W20367   5.429  35.369  14.380
50553W        W20368  25.159   7.789  14.999
50554W        W20369  19.734  13.220   2.305
50555W        W20370  13.147  41.798  11.948
50556W        W20371  17.223  26.636  10.463
50557W        W20372  26.685  26.600  10.430
50558W        W20373  20.259   4.766  13.406
50559W        W20374  22.502  20.626   2.670
50560W        W20375  34.499  43.865  10.984
50561W        W20376  34.865  19.546  12.913
50562W        W20377  20.696  22.165  13.541
50563W        W20378  10.285  41.320   3.277
50564W        W20379  38.474  35.424  13.981
50565W        W20380  19.166  31.082  12.997
50566W        W20381   1.385  39.330  13.361
50567W        W20382  10.652  21.547  11.446
50568W        W20383  20.715   0.836   1.210
50569W        W20384  37.916  12.750  14.908
50570W        W20385  44.479  16.761  10.970
50571W        W20386  26.612  14.177   3.808
50572W        W20387  17.283   1.747   1.427
50573W        W20388  26.018  19.096  11.417
50574W        W20389   7.386  24.978  13.377
50575W        W20390   6.870  27.570   0.472
50576W        W20391  24.499  34.865  11.416
50577W        W20392   5.381  13.328   4.656
50578W        W20393  27.445  37.490  14.315
50579W        W20394  13.753   4.734  12.977
50580W        W20395  27.479  17.750   4.217
50581W        W20396  27.535  18.717  11.022
50582W        W20397  37.490  38.358   3.868
50583W        W20398  23.035   4.768  12.881
50584W        W20399  36.451  43.920  13.974
50585W        W20400  35.867  28.556  13.418
50586W        W20401  14.812  20.682   3.862
50587W        W20402  38.511  19.685  13.390
50588W        W20403  36.997  40.455   4.221
50589W        W20404  11.757  14.333   5.261
50590W        W20405   5.325  37.905   3.669
50591W        W20406   8.658  37.507  13.453
50592W        W20407  34.562  27.625   2.280
50593W        W20408  26.052   2.821  12.444
50594W        W20409  30.574  15.754  13.447
50595W        W20410  31.139  29.984  14.013
50596W        W20411  34.897  21.544   3.675
50597W        W20412  18.133  44.975   4.680
50598W        W20413   7.357  31.998  11.070
50599W        W20414   8.719  35.064   1.427
50600W        W20415   1.763  41.971   4.231
50601W        W20416  26.144  37.883   9.612
50602W        W20417   1.367   6.322   1.384
50603W        W20418  42.988  17.131   2.376
50604W        W20419  39.028  23.541   3.286
50605W        W20420  43.377  37.084   2.829
50606W        W20421  39.435  32.392   1.425
50607W        W20422  35.067  30.563   1.358
50608W        W20423  42.430  38.053   4.823
50609W        W20424  11.865  17.285  10.588
50610W        W20425  29.496  43.985  11.510
50611W        W20426   5.256  24.068   2.320
50612W        W20427   5.204  14.291   4.724
50613W        W20428   7.693  12.687  10.490
50614W        W20429  25.690   2.775  12.986
50615W        W20430  18.111  34.960  12.538
50616W        W20431   4.872  10.681  14.895
50617W        W20432  18.604  34.445  14.823
50618W        W20433  29.972  30.946  13.023
50619W        W20434  39.943   9.758   3.755
50620W        W20435  21.054  39.860   4.618
50621W        W20436  34.402  43.869  11.554
50622W        W20437  26.000  19.534   2.332
50623W        W20438  15.668  21.234   5.225
50624W        W20439  18.110  35.394  12.404
50625W        W20440  43.880  19.713   5.235
50626W        W20441  16.261  44.998  13.800
50627W        W20442  29.099  38.416  11.023
50628W        W20443  21.692  34.998  12.562
50629W        W20444  31.502  31.948  12.853
50630W        W20445  36.024  39.008   2.280
50631W        W20446  26.201  24.527   4.298
50632W        W20447   6.795   5.809   1.902
50633W        W20448  29.998  27.591  11.064
50634W        W20449  15.093  23.503  12.965
50635W        W20450  41.525  32.040  12.888
50636W        W20451  43.962  13.181   2.823
50637W        W20452  24.095  25.635  10.477
50638W        W20453  43.352  38.023  11.954
50639W        W20454  39.900  17.136  13.946
50640W        W20455  14.330  34.436  10.407
50641W        W20456  11.632   3.277   4.188
50642W        W20457  30.088  25.580  12.546
50643W        W20458  15.247   8.815  14.776
50644W        W20459  32.524  41.818  12.872
50645W        W20460  13.670   7.234  12.563
50646W        W20461  32.500   9.786  11.599
50647W        W20462  36.558  32.480  10.528
50648W        W20463  13.334  25.631  12.536
50649W        W20464  29.622  19.668  13.541
50650W        W20465  26.504  34.581   3.385
50651W        W20466  26.511  27.059  11.089
50652W        W20467  36.878   6.239  13.891
50653W        W20468   8.271   0.331  12.503
50654W        W20469  17.248  16.572  10.642
50655W        W20470  21.665  39.538  12.830
50656W        W20471  31.616  44.276   4.218
50657W        W20472  16.305  31.064  13.036
50658W        W20473   3.745  41.437  13.908
50659W        W20474  13.210   8.192  10.596
50660W        W20475  35.892  29.623   2.811
50661W        W20476  26.481  42.835   2.216
50662W        W20477  18.279  19.129   4.757
50663W        W20478   5.883   0.278   3.319
50664W        W20479   2.814  35.990  14.334
50665W        W20480  40.030  10.138   0.808
50666W        W20481  11.251  19.157   4.632
50667W        W20482  14.213  40.027  13.866
50668W        W20483  42.345  36.027   3.827
50669W        W20484  40.928  35.461  13.410
50670W        W20485  42.985   0.426  10.092
50671W        W20486  29.947  42.280  10.644
50672W        W20487  33.618   4.410   2.800
50673W        W20488  38.900  37.522   0.293
50674W        W20489  43.912  37.458  11.103
50675W        W20490   0.434   6.405  11.044
50676W        W20491  19.238  35.558   3.238
50677W        W20492  32.950  41.374  14.945
50678W        W20493  21.651  23.218  12.008
50679W        W20494   2.398   0.844   1.240
50680W        W20495  22.232   0.979  12.908
50681W        W20496  15.100  11.330  11.961
50682W        W20497   6.795  16.583   1.340
50683W        W20498  40.363  19.083  14.991
50684W        W20499  21.253   5.925   2.736
50685W        W20500  36.855  18.170   3.777
50686W        W20501  27.170  11.279  12.475
50687W        W20502  36.434   7.228  13.437
50688W        W20503  16.171  22.547   2.393
50689W        W20504   7.686  37.402   5.302
50690W        W20505  38.952  14.138  13.479
50691W        W20506  30.609  33.466  13.446
50692W        W20507  33.129  22.677  14.449
50693W        W20508   5.785  25.562  12.958
50694W        W20509  31.565   9.744  11.028
50695W        W20510  26.481  17.149   0.784
50696W        W20511   5.250  10.379  14.507
50697W        W20512  44.986  21.069  13.532
50698W        W20513  39.996  18.785  13.463
50699W        W20514  27.519  29.927  13.963
50700W        W20515  35.576  12.855   2.210
50701W        W20516   9.834  13.300   3.231
50702W        W20517  10.869  22.125  12.882
50703W        W20518  36.011   8.868   1.830
50704W        W20519  26.100  39.869   1.808
50705W        W20520  11.625  41.305   4.730
50706W        W20521  12.649   8.279  12.914
50707W        W20522  44.838  35.063  10.966
50708W        W20523  35.904  31.019  10.416
50709W        W20524   0.845   0.363   1.761
50710W        W20525   8.774  12.167   1.852
50711W        W20526  38.488   6.914  13.979
50712W        W20527   3.360  16.664   0.284
50713W        W20528  38.987  12.351  12.961
50714W        W20529  21.217  23.547   0.850
50715W        W20530   7.691  25.706  13.995
50716W        W20531  25.539  42.327  14.302
50717W        W20532   8.254  21.085   2.789
50718W        W20533  24.724  25.529   3.375
50719W        W20534  21.588   7.674  14.824
50720W        W20535  38.423   5.830   2.871
50721W        W20536   3.310   6.680  13.037
50722W        W20537  15.796  26.695  10.108
50723W        W20538   3.778  40.003   2.742
50724W        W20539  30.440  28.637   1.428
50725W        W20540   0.433  37.512   2.740
50726W        W20541  37.521  14.723  13.346
50727W        W20542  19.617  18.601  11.124
50728W        W20543  42.490   1.421   0.951
50729W        W20544  44.896  37.532   2.384
50730W        W20545  10.345  10.829   4.668
50731W        W20546   3.295  30.001   2.703
50732W        W20547  25.549  17.160  14.968
50733W        W20548  33.399   7.252  11.946
50734W        W20549   7.404   5.869  12.504
50735W        W20550  35.378  21.536  11.474
50736W        W20551   9.381  11.775   1.885
50737W        W20552  42.429  40.504   0.373
50738W        W20553  31.980  20.691   2.901
50739W        W20554  38.337  14.258   1.403
50740W        W20555  36.012  25.016   4.214
50741W        W20556  26.179  10.365  13.397
50742W        W20557   7.829  13.290   5.257
50743W        W20558  28.053  39.905   1.855
50744W        W20559   6.799   0.452   3.804
50745W        W20560  44.492  35.079  11.488
50746W        W20561  16.756  40.353  12.849
50747W        W20562  34.871   3.458   3.821
50748W        W20563  37.512   2.410   5.095
50749W        W20564  19.672  40.497   0.331
50750W        W20565   8.746  15.789  13.389
50751W        W20566   6.426   0.872   2.744
50752W        W20567   7.911  15.230  11.862
50753W        W20568  14.116  25.588   4.298
50754W        W20569  36.955  37.490  13.961
50755W        W20570  33.016  36.948   0.863
50756W        W20571  20.616   2.459   4.693
50757W        W20572  32.572  32.445   2.838
50758W        W20573   0.456   5.776  13.539
50759W        W20574  17.729  27.178  14.763
50760W        W20575  20.084  31.069  12.512
50761W        W20576  12.730  17.615  13.017
50762W        W20577   3.306   0.389  10.465
50763W        W20578  26.678  11.352  12.429
50764W        W20579  15.314   4.321   4.334
50765W        W20580  10.327  42.872  14.001
50766W        W20581  42.002   8.757  10.623
50767W        W20582  21.252  24.561   2.386
50768W        W20583  14.826  29.961   2.731
50769W        W20584  13.778  37.983   3.712
50770W        W20585  33.595  30.974   0.767
50771W        W20586  22.738  32.479  12.940
50772W        W20587   4.748   1.344   2.388
50773W        W20588  19.050   2.316   0.820
50774W        W20589  27.665  14.800  11.009
50775W        W20590  24.652  22.011  10.901
50776W        W20591  25.563  44.875   1.919
50777W        W20592  42.511  44.261  10.100
50778W        W20593  29.039  43.413  11.531
50779W        W20594  44.458  35.017  14.869
50780W        W20595   1.451  28.990  13.022
50781W        W20596  25.685   8.733   0.736
50782W        W20597  26.095  22.508  13.818
50783W        W20598  16.625  39.467  11.557
50784W        W20599  36.353  37.561   3.645
50785W        W20600  20.121  28.628  11.510
50786W        W20601  25.705  31.905   3.152
50787W        W20602  36.385  22.723   4.278
50788W        W20603  32.506   9.267  11.094
50789W        W20604  38.339   3.346   2.711
50790W        W20605   2.819  43.396   4.641
50791W        W20606  20.682  12.645   4.218
50792W        W20607  38.342  43.921  11.402
50793W        W20608  13.115  28.081  12.402
50794W        W20609  27.150  14.326   1.307
50795W        W20610   8.873  26.607   3.350
50796W        W20611   8.739  23.101  11.939
50797W        W20612   0.426   8.868  14.767
50798W        W20613  14.211  30.579  14.360
50799W        W20614  29.025   0.364   4.759
50800W        W20615  22.726  40.942   4.152
50801W        W20616  16.801  20.102   2.346
50802W        W20617  38.335  12.315   0.863
50803W        W20618  29.557   0.899   3.283
50804W        W20619  37.960  31.121   1.742
50805W        W20620  31.951   1.296  14.864
50806W        W20621  30.640   1.237  13.994
50807W        W20622   5.768  42.962   2.327
50808W        W20623  19.112  39.875   2.228
50809W        W20624   8.186  11.727  10.466
50810W        W20625  38.380  36.585   1.889
50811W        W20626  38.073   7.753  14.893
50812W        W20627  27.494  36.974   1.715
50813W        W20628  36.089   5.380   2.407
50814W        W20629  31.012  33.626   3.720
50815W        W20630  27.470  37.411   0.416
50816W        W20631  37.033  16.239  11.099
50817W        W20632  44.905   2.771  12.502
50818W        W20633  21.573  13.309   3.336
50819W        W20634  41.347  33.086  12.477
50820W        W20635  29.943  32.632  12.076
50821W        W20636   7.817  44.483  10.137
50822W        W20637  28.488  42.821   3.805
50823W        W20638  20.689  13.709   1.859
50824W        W20639  39.449  33.119   1.901
50825W        W20640  22.105  38.386   3.364
50826W        W20641  33.581  27.539   0.781
50827W        W20642  24.637   0.940  14.959
50828W        W20643  22.099  12.694  11.529
50829W        W20644  15.327  28.655  11.532
50830W        W20645  30.455  31.532   4.823
50831W        W20646   6.836  44.902   1.338
50832W        W20647  13.793  31.581   1.793
50833W        W20648  44.898  10.361   1.426
50834W        W20649  18.196  28.060  14.386
50835W        W20650  19.193   0.932   3.222
50836W        W20651  21.725   9.155   1.387
50837W        W20652  32.987  10.384   2.842
50838W        W20653  29.999  27.022  12.946
50839W        W20654  10.662  23.072  10.456
50840W        W20655  18.709  19.143   1.725
50841W        W20656  33.542  36.860   0.406
50842W        W20657  38.846  14.607   3.240
50843W        W20658  25.468   0.878   4.330
50844W        W20659  34.886  41.421  13.923
50845W        W20660  39.471  17.578  13.399
50846W        W20661  22.069  21.650   0.816
50847W        W20662  38.453   7.779   3.159
50848W        W20663   1.368  13.270   0.327
50849W        W20664  34.958  14.828   3.252
50850W        W20665  39.818  33.880   1.392
50851W        W20666   5.363  18.069  11.557
50852W        W20667  31.513  14.306   3.695
50853W        W20668   4.245  32.087  12.955
50854W        W20669  26.588  41.851  12.926
50855W        W20670  27.480   5.707   0.405
50856W        W20671  35.093  34.405   4.246
50857W        W20672  37.007   5.755   3.871
50858W        W20673  14.310  27.508   0.298
50859W        W20674   1.419  15.153  11.970
50860W        W20675  18.253   8.332   4.745
50861W        W20676  28.125  18.635  10.434
50862W        W20677  39.026  31.505  13.341
50863W        W20678  12.344  34.608  12.514
50864W        W20679   8.726   7.892  12.430
50865W        W20680  19.707   2.827   3.205
50866W        W20681  13.281  36.559   0.251
50867W        W20682  32.619  39.522  11.555
50868W        W20683  14.687   0.455  13.056
50869W        W20684   6.237  13.251   2.699
50870W        W20685  17.678   6.232  14.300
50871W        W20686  25.606  24.644  10.888
50872W        W20687  29.574   6.744  14.934
50873W        W20688   3.235  17.711   4.838
50874W        W20689  16.733  23.147   2.272
50875W        W20690   2.307  11.737  13.896
50876W        W20691  12.306  22.575   4.704
50877W        W20692  26.550  29.918   4.334
50878W        W20693  31.109  41.816   2.700
50879W        W20694   7.252  44.276  10.999
50880W        W20695  14.115  37.849  14.298
50881W        W20696  42.996   2.866   3.208
50882W        W20697  30.061  24.093  13.815
50883W        W20698  17.218  27.031  14.768
50884W        W20699  44.980  19.753  12.922
50885W        W20700  19.644  37.471   4.151
50886W        W20701  21.565  12.317  12.439
50887W        W20702  24.622  12.812   3.718
50888W        W20703  29.038  14.102   2.374
50889W        W20704  37.027  12.824   2.380
50890W        W20705  14.738  11.274  14.826
50891W        W20706  27.552  18.626  12.419
50892W        W20707  10.264  30.048   0.753
50893W        W20708  27.075  35.065  10.444
50894W        W20709   8.261   7.757   0.292
50895W        W20710  42.831  35.017   2.343
50896W        W20711   5.408  31.642   0.380
50897W        W20712  42.776  43.455   5.185
50898W        W20713  19.095  19.698  11.023
50899W        W20714  36.499  34.546  13.363
50900W        W20715  13.229  20.567  12.843
50901W        W20716  28.945   1.337   3.855
50902W        W20717  43.378   2.886  14.931
50903W        W20718  36.089  39.014   2.687
50904W        W20719  39.485  25.687  13.847
50905W        W20720  42.959  34.405  11.898
50906W        W20721   5.365  12.638  12.492
50907W        W20722   4.806  40.811   4.684
50908W        W20723  28.017   8.309  14.007
50909W        W20724  16.268  43.358  11.120
50910W        W20725  12.669  27.102  10.618
50911W        W20726  44.386  27.094   4.670
50912W        W20727  29.438  32.584   2.291
50913W        W20728  12.314  43.351   3.752
50914W        W20729  18.056  38.908  13.384
50915W        W20730  18.193  23.576   1.449
50916W        W20731   8.750   9.250  13.919
50917W        W20732  39.373  21.116  12.841
50918W        W20733  26.505   8.664  13.851
50919W        W20734   0.850  16.172   0.473
50920W        W20735  22.666  18.714  12.938
50921W        W20736   2.387   8.828   2.686
50922W        W20737  13.612  27.103  14.829
50923W        W20738   9.349  10.186   0.297
50924W        W20739  22.707  43.291   2.749
50925W        W20740  29.936   9.328  14.842
50926W        W20741   7.728   2.374   1.337
50927W        W20742  40.903  40.346   3.184
50928W        W20743  14.131   4.224  11.587
50929W        W20744  35.402   2.289   4.249
50930W        W20745  10.316  23.658  11.984
50931W        W20746   9.789  43.497   0.797
50932W        W20747  36.915  38.357  13.424
50933W        W20748   5.335  23.706   1.773
50934W        W20749  15.199   7.346   4.262
50935W        W20750  43.813   5.286  14.764
50936W        W20751   3.927  16.757   2.249
50937W        W20752  21.202  15.315  13.814
50938W        W20753   4.893  29.018   1.244
50939W        W20754  19.062   8.685   4.703
50940W        W20755  32.499  42.466  10.579
50941W        W20756   4.357  44.932   1.433
50942W        W20757  16.246  43.955   2.848
50943W        W20758  20.158  36.096  12.026
50944W        W20759  10.866  11.846  14.472
50945W        W20760  26.488   8.731   0.950
50946W        W20761  28.545  42.338   3.320
50947W        W20762   0.832   0.477  13.003
50948W        W20763   8.222  19.223   0.390
50949W        W20764  31.902   5.346   2.764
50950W        W20765  28.999  18.711  14.975
50951W        W20766   2.270  17.653   0.437
50952W        W20767  33.552  44.385  13.936
50953W        W20768  34.049  37.063  11.372
50954W        W20769   6.331  23.172  11.003
50955W        W20770  16.573  12.765  10.981
50956W        W20771  29.065  41.896  13.475
50957W        W20772   4.766   2.262  14.778
50958W        W20773  10.175   4.369   1.735
50959W        W20774  10.675  38.826  13.317
50960W        W20775  30.154  26.020   2.835
50961W        W20776  32.516  37.397   2.839
50962W        W20777  17.800  33.381   4.757
50963W        W20778   0.924   2.316   1.864
50964W        W20779  31.548  26.574  13.345
50965W        W20780  18.703  15.327   1.277
50966W        W20781   5.280   2.357   3.372
50967W        W20782  37.869  12.339  10.422
50968W        W20783  13.629  24.046   1.413
50969W        W20784  44.387  33.896   0.430
50970W        W20785  20.546  12.142   4.682
50971W        W20786  34.916   8.825  12.565
50972W        W20787  19.039  35.471  12.538
50973W        W20788  23.665  26.657   1.254
50974W        W20789   3.886  41.800   0.839
50975W        W20790   2.890  12.785   1.779
50976W        W20791  29.539  39.956  11.903
50977W        W20792  24.114  16.612   4.324
50978W        W20793  15.146  21.644   3.701
50979W        W20794   3.818  17.088  14.316
50980W        W20795   9.741   7.673   3.294
50981W        W20796  13.123  25.057  10.895
50982W        W20797  21.618   6.348  14.777
50983W        W20798   0.270  10.234   1.212
50984W        W20799  11.707  29.493  14.780
50985W        W20800  18.184   0.277   2.707
50986W        W20801  43.397   3.281  11.924
50987W        W20802  37.401   1.301  13.324
50988W        W20803  25.153  24.061   2.348
50989W        W20804  23.644   6.229   1.694
50990W        W20805  12.748  35.530  12.542
50991W        W20806  10.679   4.237   1.230
50992W        W20807  14.698  19.263   4.602
50993W        W20808  25.121  39.512  10.105
50994W        W20809   2.346   0.914  14.315
50995W        W20810  20.563  39.488   3.225
50996W        W20811  44.970  15.681  11.588
50997W        W20812  37.945   4.814   0.348
50998W        W20813  32.985   0.311   0.256
50999W        W20814  42.366   5.714   1.443
51000W        W20815  38.033  25.092   4.172
51001W        W20816   2.855  14.324  12.030
51002W        W20817   6.259  19.733   4.226
51003W        W20818  30.153  35.378  11.565
51004W        W20819  13.139   8.221   1.929
51005W        W20820  40.029  19.752   3.168
51006W        W20821  37.016  16.594   3.347
51007W        W20822  21.619  26.184   1.906
51008W        W20823  29.440  36.065  12.407
51009W        W20824   7.904  12.170   4.201
51010W        W20825  42.370  41.387  11.087
51011W        W20826  18.739  33.061  13.329
51012W        W20827  16.120  40.884   2.203
51013W        W20828  31.541   1.865   2.733
51014W        W20829  27.610  14.249   1.900
51015W        W20830   1.298   6.346   1.788
51016W        W20831  40.344   3.384  13.497
51017W        W20832  17.272  35.383   4.752
51018W        W20833  17.294  14.326   1.731
51019W        W20834  24.144   9.685  10.604
51020W        W20835  33.000   9.689   3.313
51021W        W20836  39.875  28.990  12.354
51022W        W20837  22.609  36.582   3.806
51023W        W20838   1.855   7.414  12.008
51024W        W20839  30.624  30.605  14.763
51025W        W20840  36.486  32.990  12.571
51026W        W20841  19.146  42.904  12.554
51027W        W20842   8.313  26.478  11.018
51028W        W20843  38.896  39.930   1.813
51029W        W20844  12.268  14.749  10.568
51030W        W20845  29.034  24.982  14.842
51031W        W20846  27.531   1.309  13.392
51032W        W20847  31.627  18.090   4.744
51033W        W20848  16.210   3.443   3.754
51034W        W20849  11.739   2.257   3.202
51035W        W20850  33.059  44.903   0.337
51036W        W20851  31.538   4.447  11.057
51037W        W20852   0.819  20.228  11.527
51038W        W20853  30.502  18.564   1.829
51039W        W20854  11.702   3.300  12.023
51040W        W20855   6.335   1.335  13.962
51041W        W20856  12.316  24.223   3.211
51042W        W20857   5.376   9.800  14.329
51043W        W20858  39.989  29.607   3.704
51044W        W20859  18.209  23.024   3.732
51045W        W20860   0.780   2.385   4.714
51046W        W20861  16.580  13.140   3.382
51047W        W20862  19.247   3.823   3.295
51048W        W20863  11.243  12.799  14.955
51049W        W20864  10.269   7.287  14.961
51050W        W20865  39.049   4.223  13.528
51051W        W20866  38.394  32.599   1.388
51052W        W20867   4.410  19.222   2.300
51053W        W20868  22.241  16.268  13.424
51054W        W20869   1.766  42.313   0.925
51055W        W20870  15.759  42.502  12.952
51056W        W20871  19.537  22.639   1.826
51057W        W20872  28.533  18.649  10.933
51058W        W20873  23.651  36.012   4.227
51059W        W20874  44.421   7.410   5.291
51060W        W20875   1.856   8.250  12.561
51061W        W20876  35.959   4.699  14.865
51062W        W20877   3.432  18.080  12.524
51063W        W20878   0.893   7.415   1.834
51064W        W20879  37.071  44.478   1.910
51065W        W20880  40.306  10.817  11.993
51066W        W20881  43.862   6.347   2.371
51067W        W20882  14.139   9.678  12.024
51068W        W20883  18.638  21.513  13.966
51069W        W20884  24.623  11.343   1.927
51070W        W20885  11.194  15.297  12.914
51071W        W20886  18.735  35.921   4.789
51072W        W20887  35.907  29.544  11.978
51073W        W20888  25.684  19.246   0.472
51074W        W20889  41.454  15.285   0.742
51075W        W20890  39.882   8.206   0.270
51076W        W20891  15.283  17.690  14.938
51077W        W20892  42.392  43.398  14.464
51078W        W20893  10.654  37.008  11.499
51079W        W20894  19.107  18.204   4.824
51080W        W20895  35.059  39.057   4.783
51081W        W20896  23.986  12.715  13.430
51082W        W20897  37.348  12.787  12.982
51083W        W20898  17.189   5.369   1.725
51084W        W20899  15.311  38.534   1.741
51085W        W20900  35.972  40.350  14.444
51086W        W20901  10.343   0.866   3.290
51087W        W20902   9.378   9.352   1.238
51088W        W20903  41.416  15.700  11.044
51089W        W20904  11.752  30.614  14.890
51090W        W20905  23.128   1.425  12.079
51091W        W20906   6.712  13.314  11.603
51092W        W20907  22.737  40.386  13.337
51093W        W20908  37.382   7.333   2.903
51094W        W20909  38.008  38.331   3.243
51095W        W20910  33.547  25.070   5.155
51096W        W20911  21.089  44.393  10.926
51097W        W20912  39.526   8.274   3.637
51098W        W20913  15.578  15.148  14.934
51099W        W20914  20.553  22.690  11.115
51100W        W20915  12.610  11.362  11.401
51101W        W20916  38.858  30.942  13.344
51102W        W20917  38.378  17.737   3.737
51103W        W20918  36.053   6.803   4.323
51104W        W20919  31.008  25.033  12.823
51105W        W20920  22.046  40.312   1.717
51106W        W20921  40.525  11.827   4.120
51107W        W20922   0.855  37.831   3.294
51108W        W20923   3.950  32.394   2.894
51109W        W20924  43.884  36.357   4.633
51110W        W20925  18.088   8.880   0.869
51111W        W20926  31.900  11.733   3.152
51112W        W20927  12.117  19.281   2.682
51113W        W20928  35.463  25.582   3.788
51114W        W20929  13.131  39.468  12.503
51115W        W20930  16.080  13.790   0.858
51116W        W20931   9.386   6.821   4.224
51117W        W20932   6.827  37.970   2.866
51118W        W20933  33.428  27.943  11.924
51119W        W20934  42.458  37.411  13.819
51120W        W20935  11.209  10.178  14.283
51121W        W20936  28.995  29.007   2.766
51122W        W20937  11.686   7.895  10.906
51123W        W20938   6.265  33.599   3.703
51124W        W20939  30.004  43.314  14.869
51125W        W20940   8.180  38.891   3.707
51126W        W20941  31.957  10.325   0.765
51127W        W20942  34.004  24.189   0.792
51128W        W20943  23.674  24.678  12.024
51129W        W20944  33.038  33.430   1.916
51130W        W20945  19.775   9.651   4.634
51131W        W20946  10.801  21.748   0.256
51132W        W20947  37.471   4.751   1.385
51133W        W20948   4.810  30.987   3.307
51134W        W20949  44.493  37.924  11.032
51135W        W20950  37.012   4.280  10.421
51136W        W20951  14.257  35.012   4.252
51137W        W20952  37.527  39.852   3.700
51138W        W20953  25.158  14.198  13.535
51139W        W20954  18.121  14.793  12.021
51140W        W20955  26.546  44.348  13.043
51141W        W20956  16.782  25.046  13.986
51142W        W20957  28.471  44.266  13.388
51143W        W20958  24.637  18.566  12.551
51144W        W20959  26.623  16.268   3.728
51145W        W20960  40.839   5.415  11.454
51146W        W20961  26.492  32.436  10.982
51147W        W20962  37.342   5.315   4.313
51148W        W20963  40.366  15.303   3.748
51149W        W20964  30.534  38.891  13.824
51150W        W20965   6.796   7.759   3.765
51151W        W20966  33.584  24.056   2.370
51152W        W20967  37.077   1.762   4.141
51153W        W20968  28.519  42.342  13.034
51154W        W20969  15.327  16.777  12.090
51155W        W20970  10.228  30.658   3.853
51156W        W20971   7.207   2.775  13.872
51157W        W20972  12.252  30.533  13.447
51158W        W20973  23.588  23.171  10.433
51159W        W20974  39.447  15.315   4.652
51160W        W20975   2.243  35.539  13.465
51161W        W20976  22.049  44.796  11.857
51162W        W20977  42.898   6.232  12.081
51163W        W20978  42.984  36.361  12.066
51164W        W20979  17.219  37.362  14.933
51165W        W20980  24.509   0.942  13.959
51166W        W20981  11.816  41.531   2.385
51167W        W20982  29.079   7.174   3.666
51168W        W20983  15.629  36.854  14.396
51169W        W20984  37.382  15.272   0.960
51170W        W20985   3.331  36.417   5.111
51171W        W20986   4.355  22.007  14.020
51172W        W20987  28.081  23.209  11.018
51173W        W20988  19.269  18.193  14.447
51174W        W20989  25.619   5.915   4.822
51175W        W20990   2.318  39.946  13.444
51176W        W20991   5.786  31.495  10.533
51177W        W20992  20.209   0.418   2.191
51178W        W20993  32.977   4.210   2.799
51179W        W20994  35.962  33.935   3.188
51180W        W20995  39.457  27.014  10.552
51181W        W20996  37.533   7.873  10.890
51182W        W20997  43.796   5.898   1.245
51183W        W20998  17.601  39.454   3.342
51184W        W20999   7.880  19.283   3.279
51185W        W21000  21.207  18.181   3.860
51186W        W21001  30.562  43.964   0.448
51187W        W21002   1.442  15.224  11.415
51188W        W21003   5.861  35.905  11.993
51189W        W21004  39.015   1.368   1.345
51190W        W21005  43.291  37.959  12.862
51191W        W21006  10.643  39.920   3.775
51192W        W21007   0.277  15.254   4.703
51193W        W21008  27.124  19.679  10.589
51194W        W21009   3.782  11.345   2.766
51195W        W21010  37.352  44.314   4.657
51196W        W21011  26.589  37.509  11.067
51197W        W21012   7.173  19.046   2.876
51198W        W21013  15.281   3.245  11.500
51199W        W21014   4.436  26.655  10.482
51200W        W21015  10.872  43.278  10.442
51201W        W21016  18.081   2.828  14.319
51202W        W21017  34.502  39.969   3.206
51203W        W21018  10.312  43.797  12.408
51204W        W21019  14.778  36.069  13.409
51205W        W21020  33.937   3.840  13.387
51206W        W21021   3.878  28.060   0.340
51207W        W21022  44.286   9.861   4.344
51208W        W21023  12.852  38.366  12.885
51209W        W21024  36.014  33.047  10.506
51210W        W21025  26.994  20.693   1.434
51211W        W21026  33.091  37.906   2.276
51212W        W21027   0.965  42.861   4.320
51213W        W21028  25.014  20.600  11.125
51214W        W21029   1.398  43.348   2.888
51215W        W21030  43.387  17.233  10.117
51216W        W21031   2.452  38.571   4.191
51217W        W21032   3.945   0.757  12.570
51218W        W21033  42.490  28.445   4.608
51219W        W21034  31.960   6.761   1.812
51220W        W21035  16.305   4.894  14.866
51221W        W21036  24.495  15.186  11.468
51222W        W21037  28.140  33.616  10.526
51223W        W21038  44.500  40.859  14.482
51224W        W21039  10.753  31.622   4.246
51225W        W21040  23.011  40.821   3.867
51226W        W21041  13.611  12.136  12.431
51227W        W21042  32.074  34.032  11.419
51228W        W21043  43.315  39.938  14.950
51229W        W21044  24.690  15.277  13.803
51230W        W21045  18.071  15.632  13.918
51231W        W21046   0.382  28.931   4.222
51232W        W21047  38.329  33.472   4.166
51233W        W21048  36.455  30.005   0.751
51234W        W21049  29.430  36.474   3.804
51235W        W21050  12.280   1.335   2.725
51236W        W21051  27.590   6.882   1.360
51237W        W21052  24.051  17.689   0.909
51238W        W21053  17.205  20.207   4.120
51239W        W21054   3.409  24.114  14.018
51240W        W21055  23.568  27.952   1.301
51241W        W21056  13.186  31.593  11.983
51242W        W21057  34.887  27.641   0.244
51243W        W21058  39.845  31.944   2.792
51244W        W21059  17.248  20.657  11.009
51245W        W21060  23.639  24.487   0.481
51246W        W21061  36.079  18.670   1.264
51247W        W21062  41.838  10.209   1.880
51248W        W21063  29.027  15.211   3.805
51249W        W21064  33.509  43.391  10.521
51250W        W21065  40.003   6.713  11.943
51251W        W21066   5.269  34.509  11.051
51252W        W21067   3.403   8.724   4.317
51253W        W21068  21.185  14.315  12.493
51254W        W21069   0.965  11.648   2.218
51255W        W21070  36.057  36.841  13.938
51256W        W21071  39.949   4.899  12.487
51257W        W21072  13.141  22.603   3.385
51258W        W21073  20.159  28.437   0.844
51259W        W21074   4.892  37.355   9.976
51260W        W21075   6.315   7.684   0.958
51261W        W21076   2.922  16.695   0.247
51262W        W21077  44.911  25.684  11.398
51263W        W21078  27.563   0.889  14.020
51264W        W21079  44.295  42.309   0.419
51265W        W21080  34.116  28.459   1.911
51266W        W21081   0.481  12.678  14.867
51267W        W21082  11.147  20.091   3.670
51268W        W21083  15.593  25.518   4.194
51269W        W21084  22.046  10.677  11.050
51270W        W21085   5.692  28.169  14.511
51271W        W21086  24.485  14.279  12.470
51272W        W21087   3.270  43.418   4.814
51273W        W21088  15.180  24.982  11.089
51274W        W21089  10.293   1.387   9.933
51275W        W21090  39.924  39.494  13.460
51276W        W21091  36.012  43.960  13.795
51277W        W21092  18.668  22.045  14.412
51278W        W21093  40.024  38.879  13.383
51279W        W21094  15.144  25.999   0.296
51280W        W21095   5.823  33.929  13.974
51281W        W21096  44.758  41.300   0.454
51282W        W21097  44.335  44.422   3.375
51283W        W21098   9.289  36.444  11.398
51284W        W21099  30.582   3.924  12.879
51285W        W21100   0.481  41.929   1.257
51286W        W21101  12.621   3.767  14.408
51287W        W21102  29.546  35.026   1.775
51288W        W21103  32.570  29.933  14.829
51289W        W21104   8.667  15.816   1.447
51290W        W21105  20.255   4.277   2.839
51291W        W21106   6.858  15.268  13.414
51292W        W21107  17.760   4.804  13.956
51293W        W21108  42.403  18.226  14.422
51294W        W21109  10.280  42.494  12.393
51295W        W21110  36.376   6.195   4.241
51296W        W21111  42.960   3.916   0.790
51297W        W21112   0.889  36.441  14.790
51298W        W21113  18.770  14.152   5.131
51299W        W21114   1.310  12.147  12.435
51300W        W21115  10.870  30.073   0.832
51301W        W21116  22.246  36.031   4.613
51302W        W21117  16.135   8.744   3.773
51303W        W21118  11.735  37.512   3.816
51304W        W21119  14.692  44.281  14.915
51305W        W21120   7.175  42.009   1.860
51306W        W21121  32.139  19.047  11.409
51307W        W21122   8.794   2.798   0.746
51308W        W21123  43.423  33.920  10.469
51309W        W21124  37.562  38.326   2.264
51310W        W21125  40.326   4.812   0.434
51311W        W21126   3.758  29.142  13.431
51312W        W21127  38.864   0.370  13.345
51313W        W21128   7.827  44.974  14.975
51314W        W21129  40.868  33.040   1.295
51315W        W21130  12.629  18.756   2.349
51316W        W21131   3.729  32.973  14.875
51317W        W21132  23.686  14.338   0.386
51318W        W21133  20.205  27.606   1.820
51319W        W21134  43.387  30.112   2.662
51320W        W21135  22.645  35.926  12.824
51321W        W21136  34.483  30.546  11.912
51322W        W21137  27.096  43.007   2.212
51323W        W21138  13.687  31.593  14.796
51324W        W21139  30.419  21.568  11.395
51325W        W21140  14.318   7.379  12.944
51326W        W21141  40.016   8.788  11.388
51327W        W21142  14.795  41.480   1.785
51328W        W21143  12.259  20.067   2.407
51329W        W21144  40.030  43.386   1.420
51330W        W21145  21.200   5.737   3.692
51331W        W21146  25.970  12.143   3.276
51332W        W21147  25.028  41.365  13.056
51333W        W21148   2.965   2.958   4.351
51334W        W21149   1.820  16.283  11.965
51335W        W21150   4.845  33.899  11.382
51336W        W21151   0.309   3.895  13.925
51337W        W21152  44.361  32.907   1.866
51338W        W21153  21.565  17.200   4.346
51339W        W21154  17.670  26.018  13.454
51340W        W21155   8.843  15.085   2.851
51341W        W21156  38.519  32.054  13.512
51342W        W21157  39.860  25.683   4.269
51343W        W21158   4.226  15.599  12.476
51344W        W21159  10.648  43.276  12.506
51345W        W21160  28.036  13.797   1.916
51346W        W21161  37.834  44.816   0.453
51347W        W21162   9.387  17.576   4.608
51348W        W21163   2.347  39.841  14.787
51349W        W21164  23.726  11.828  13.482
51350W        W21165   0.426   9.827  12.888
51351W        W21166  43.313  11.787   4.188
51352W        W21167  20.744  26.671   1.764
51353W        W21168  18.200  23.008   4.161
51354W        W21169  37.004  11.660   1.413
51355W        W21170  20.266  23.186  12.573
51356W        W21171  15.179   9.643   2.281
51357W        W21172  16.646  18.741   2.734
51358W        W21173   1.859  14.107   2.807
51359W        W21174  43.298  24.198   2.184
51360W        W21175   4.232  34.952   3.659
51361W        W21176  25.630   9.315   1.268
51362W        W21177   9.765  32.499  12.484
51363W        W21178  39.453  12.362   2.801
51364W        W21179  40.926  20.175  12.854
51365W        W21180  21.231  18.194  11.471
51366W        W21181  25.586   1.784  14.340
51367W        W21182  39.919  28.150  11.912
51368W        W21183  23.721   9.812   2.414
51369W        W21184  28.006  31.037  11.547
51370W        W21185   9.163   8.660  12.942
51371W        W21186  43.930  34.073   4.301
51372W        W21187  41.803  16.789  14.434
51373W        W21188   8.398  30.083   2.178
51374W        W21189  40.963   4.838   4.671
51375W        W21190  22.165  13.773  13.879
51376W        W21191  42.812   9.713   0.321
51377W        W21192  44.309  24.553  11.934
51378W        W21193  22.154  14.330  10.514
51379W        W21194  23.721   1.809  11.528
51380W        W21195   4.796  15.084   4.299
51381W        W21196  19.203  11.693  14.384
51382W        W21197  23.710  27.960  10.589
51383W        W21198   0.321   6.337  10.421
51384W        W21199  36.991  42.965   0.907
51385W        W21200  10.860  19.105   9.922
51386W        W21201  30.617   2.233   2.800
51387W        W21202   6.692  42.303   2.206
51388W        W21203  24.676   4.757  14.890
51389W        W21204  13.792  20.108   4.791
51390W        W21205  44.317  24.630  13.805
51391W        W21206  29.128  42.465  13.316
51392W        W21207  14.235  28.030  12.084
51393W        W21208  16.617  32.605  14.304
51394W        W21209  44.874  28.444   1.917
51395W        W21210  17.303  29.608   4.639
51396W        W21211  44.802  13.113   2.225
51397W        W21212  12.726  26.652  12.521
51398W        W21213  33.471  11.707   1.348
51399W        W21214  30.030  13.721   2.814
51400W        W21215  17.203   4.744  12.831
51401W        W21216  25.545   9.721   5.193
51402W        W21217   7.173  44.368  12.569
51403W        W21218   2.908  13.346   1.769
51404W        W21219  20.254  23.180   0.453
51405W        W21220  41.340  42.021   4.259
51406W        W21221  11.150   9.667   4.680
51407W        W21222   3.834  32.960   0.872
51408W        W21223   6.215  10.704   0.825
51409W        W21224  26.638  16.695   5.232
51410W        W21225  20.045  18.275  10.923
51411W        W21226  30.078  40.443  14.424
51412W        W21227  37.562  19.702   3.233
51413W        W21228  27.981   9.358  12.424
51414W        W21229  18.641  25.640   4.816
51415W        W21230  36.534  17.249   0.741
51416W        W21231   7.816  33.427   0.387
51417W        W21232  35.907  12.654  14.917
51418W        W21233  43.463  34.464  14.371
51419W        W21234  13.764  16.660  12.516
51420W        W21235  39.029  44.808   0.335
51421W        W21236  18.693  12.726   2.722
51422W        W21237  36.506   4.220   1.375
51423W        W21238   4.851   2.328   4.639
51424W        W21239  27.101  17.068   9.999
51425W        W21240   8.351  23.115  14.971
51426W        W21241  10.327  30.606   0.474
51427W        W21242   8.867   0.875  12.063
51428W        W21243  28.484  44.282   2.740
51429W        W21244  38.898  14.094  12.394
51430W        W21245  21.564  38.911   3.215
51431W        W21246  31.972   6.426  12.354
51432W        W21247  40.848   6.189  12.846
51433W        W21248  43.415  39.028   0.262
51434W        W21249   0.484  12.824  13.885
51435W        W21250  39.519  40.005  10.482
51436W        W21251  12.712  41.498   2.195
51437W        W21252  37.519  15.767   4.617
51438W        W21253   2.459   1.456   0.829
51439W        W21254  15.216   2.847  13.381
51440W        W21255  34.990  18.260  14.858
51441W        W21256  35.519  21.673   0.243
51442W        W21257  22.516  19.712  10.490
51443W        W21258  37.486  22.161   4.633
51444W        W21259  11.854   6.229   0.882
51445W        W21260  38.568   9.173  12.940
51446W        W21261  29.476  23.080  10.493
51447W        W21262  32.540  10.871  12.920
51448W        W21263  26.689   6.699  12.361
51449W        W21264  12.136  33.518   0.296
51450W        W21265  13.234   0.936   0.940
51451W        W21266  23.132   1.286   2.279
51452W        W21267  36.428  43.367  12.347
51453W        W21268  12.299  32.393   4.306
51454W        W21269  32.078  35.919  11.391
51455W        W21270  42.301  35.016  12.089
51456W        W21271  25.693  30.636  12.975
51457W        W21272  19.713  32.120   2.284
51458W        W21273  40.971   7.753  14.897
51459W        W21274  15.175  27.977   1.395
51460W        W21275  14.205  31.064   3.214
51461W        W21276  23.231   5.399   3.253
51462W        W21277   5.287  14.602  10.546
51463W        W21278  26.035  24.486  12.971
51464W        W21279  34.430  40.323  11.039
51465W        W21280  13.829  20.523  11.954
51466W        W21281  32.454  43.901  10.898
51467W        W21282   2.424  19.271  13.415
51468W        W21283  26.951  39.955  11.606
51469W        W21284  39.389  38.420  10.988
51470W        W21285  22.025  14.096  14.780
51471W        W21286  44.340  39.334   3.244
51472W        W21287   4.237  31.899  11.414
51473W        W21288  34.891  10.855  10.916
51474W        W21289   1.322   1.965  13.971
51475W        W21290   3.458  18.196   4.710
51476W        W21291   2.761   3.743   0.259
51477W        W21292  40.947  31.154  12.475
51478W        W21293  13.142  21.259   3.171
51479W        W21294  25.713  39.842   1.783
51480W        W21295  38.478  20.068   2.819
51481W        W21296   4.837  22.190  12.380
51482W        W21297  26.046  34.885  11.903
51483W        W21298  28.063  33.999  12.837
51484W        W21299  37.080  27.071  12.388
51485W        W21300  24.021   7.323   4.679
51486W        W21301   5.704  42.787   2.885
51487W        W21302  39.495  30.994  14.346
51488W        W21303  39.499  31.091   4.276
51489W        W21304  13.195   7.817  11.062
51490W        W21305   4.359  33.497   4.169
51491W        W21306  19.144   0.382  11.420
51492W        W21307  28.932  23.602  12.863
51493W        W21308  43.510  42.904  13.019
51494W        W21309  41.890  12.297   1.819
51495W        W21310  32.432  33.510  14.366
51496W        W21311   9.336  31.056  10.965
51497W        W21312  43.893  36.384   0.336
51498W        W21313  22.630  40.406  10.897
51499W        W21314   0.899  39.866  14.842
51500W        W21315  32.050  23.534  12.836
51501W        W21316   4.212  23.550  12.944
51502W        W21317  22.641  13.221   2.678
51503W        W21318   1.796   6.303  10.617
51504W        W21319  30.038   7.267  13.337
51505W        W21320   3.799  38.906  13.022
51506W        W21321   0.832  41.441   4.826
51507W        W21322  32.628   8.779   3.650
51508W        W21323   0.430  16.099  13.342
51509W        W21324   6.256   9.697  10.089
51510W        W21325  43.364  17.254   1.752
51511W        W21326   3.830  20.252  11.460
51512W        W21327  26.508  38.478   4.243
51513W        W21328  33.405  24.629   4.696
51514W        W21329   3.320  22.736   3.271
51515W        W21330  18.250  41.506  13.525
51516W        W21331   9.764  21.544   1.210
51517W        W21332  31.140  19.215  12.080
51518W        W21333  33.037  25.000  12.507
51519W        W21334  13.284  16.662  10.531
51520W        W21335  43.283  25.584   1.240
51521W        W21336  31.427  32.976  12.889
51522W        W21337  19.262  36.527   3.709
51523W        W21338  42.932  42.785   2.778
51524W        W21339  12.654  38.500   3.217
51525W        W21340  24.515   9.847  12.032
51526W        W21341  21.751  15.640   2.877
51527W        W21342  42.918  14.212   2.299
51528W        W21343   0.879  22.104  10.068
51529W        W21344  18.258  35.034  11.979
51530W        W21345  30.453  26.594  14.304
51531W        W21346  28.466   7.252   3.272
51532W        W21347  31.144   4.741   2.694
51533W        W21348  18.634  27.534  12.343
51534W        W21349  17.126  31.472   1.448
51535W        W21350  25.551  41.369  12.360
51536W        W21351  20.766   0.745  14.303
51537W        W21352  41.370   8.299   3.658
51538W        W21353  11.307  10.176   3.213
51539W        W21354  44.457  29.495   5.284
51540W        W21355  27.575  44.964  12.343
51541W        W21356  38.440  35.974   3.660
51542W        W21357  29.022  39.963   1.697
51543W        W21358  29.541  20.231   3.168
51544W        W21359  27.107  17.247  14.926
51545W        W21360  17.567   2.267  14.381
51546W        W21361  12.285  14.102   4.636
51547W        W21362  25.533   0.816   4.604
51548W        W21363  42.428   9.763  10.564
51549W        W21364  27.529  34.943  14.809
51550W        W21365  37.435  31.028   2.768
51551W        W21366  19.235  39.342   4.678
51552W        W21367  34.500  33.556   1.323
51553W        W21368  33.114  17.185  13.512
51554W        W21369   0.417  44.363   2.217
51555W        W21370   1.777  20.255   3.383
51556W        W21371  36.883  19.118  11.588
51557W        W21372  18.287  15.678   0.273
51558W        W21373   3.738  41.362   2.866
51559W        W21374   2.270  19.575  13.894
51560W        W21375   7.815   4.903  13.418
51561W        W21376  42.461  42.443   4.162
51562W        W21377  24.205  44.292   3.758
51563W        W21378  31.498  41.493  14.858
51564W        W21379  41.008  42.948  12.084
51565W        W21380   0.982  43.433   2.302
51566W        W21381  13.124  39.866  10.625
51567W        W21382  13.648  32.474   4.321
51568W        W21383   4.729  38.836  11.428
51569W        W21384  42.989  28.055  13.039
51570W        W21385  38.494   2.921   0.902
51571W        W21386  11.198  36.364   3.171
51572W        W21387  20.526  29.574  11.477
51573W        W21388  11.316  26.650  10.444
51574W        W21389  33.026  17.069  14.792
51575W        W21390  15.145  18.589   4.135
51576W        W21391  43.006  11.692   0.777
51577W        W21392  24.184  16.809   2.840
51578W        W21393  15.690  37.014   3.806
51579W        W21394  27.681   7.340  14.780
51580W        W21395  35.023  18.662   2.284
51581W        W21396  23.117  25.012   5.256
51582W        W21397  35.930  12.800   1.274
51583W        W21398  24.109   2.357  12.394
51584W        W21399  20.559  43.821   3.242
51585W        W21400  17.240  32.068  12.856
51586W        W21401  28.605  37.363  12.969
51587W        W21402  20.177  21.551  14.970
51588W        W21403  28.983  14.184   4.722
51589W        W21404   0.931  35.435  14.495
51590W        W21405  31.917   2.819   1.419
51591W        W21406  41.382  13.778  12.552
51592W        W21407   9.689  40.478  10.081
51593W        W21408  40.461  39.918   4.789
51594W        W21409  11.134  29.578  14.509
51595W        W21410  29.625  30.908  12.512
51596W        W21411   3.332   9.762   3.778
51597W        W21412  39.493  24.209   3.714
51598W        W21413   0.783  11.637   4.797
51599W        W21414  23.732  10.748  12.949
51600W        W21415  37.360  41.811   4.162
51601W        W21416  37.556  43.977  13.040
51602W        W21417  24.508  13.187   1.920
51603W        W21418  42.403  35.411  13.852
51604W        W21419  41.858  44.854   2.355
51605W        W21420  42.349  22.999   2.338
51606W        W21421  16.137  11.662  11.914
51607W        W21422  17.157  21.733  14.943
51608W        W21423  41.417  17.193  12.374
51609W        W21424   9.392   1.852  14.987
51610W        W21425  28.132  36.380   4.713
51611W        W21426  13.180  42.484   2.688
51612W        W21427  26.001  12.656  14.299
51613W        W21428   7.211  42.911  12.447
51614W        W21429   5.691  41.323  14.296
51615W        W21430  38.384  28.522  11.008
51616W        W21431  14.659  43.871   2.835
51617W        W21432  34.082  10.265   2.247
51618W        W21433  37.849  28.164  10.468
51619W        W21434   7.260  26.011   1.709
51620W        W21435   7.723  28.535  13.960
51621W        W21436  26.041   4.936   3.779
51622W        W21437  32.094  22.554   3.338
51623W        W21438  26.513   9.734  13.833
51624W        W21439  33.029  21.736   0.927
51625W        W21440  15.663  44.311  12.957
51626W        W21441  11.225  35.475   4.698
51627W        W21442  21.522  41.972   4.207
51628W        W21443  27.119   2.228   0.786
51629W        W21444  36.082   4.910   1.720
51630W        W21445   9.301  41.524   9.957
51631W        W21446   6.766  10.203  14.844
51632W        W21447  37.352  42.857  11.429
51633W        W21448  11.220  32.528   2.384
51634W        W21449  19.698   1.273  14.941
51635W        W21450  23.069  16.790  14.981
51636W        W21451  27.044  10.222  10.411
51637W        W21452  28.560  42.873  14.895
51638W        W21453   8.710  16.302  14.897
51639W        W21454   2.941   7.822   1.909
51640W        W21455  23.203   8.394  11.106
51641W        W21456  29.103  24.652   0.383
51642W        W21457  26.111  20.639  12.533
51643W        W21458   0.352   9.651   2.275
51644W        W21459  20.104  30.066   0.347
51645W        W21460  34.524   7.171   3.302
51646W        W21461  14.231   3.918   4.118
51647W        W21462   8.308  25.065   0.320
51648W        W21463   9.255   0.774  14.909
51649W        W21464  32.569  28.663   0.306
51650W        W21465  15.735  27.448   2.212
51651W        W21466   0.309   0.460  13.453
51652W        W21467  32.008  17.280   3.776
51653W        W21468  25.212  41.791  14.941
51654W        W21469  10.854  39.884  11.399
51655W        W21470  14.631  14.675   3.787
51656W        W21471  13.178  40.899   3.824
51657W        W21472  10.161  42.354  12.864
51658W        W21473  33.615  44.980   3.869
51659W        W21474  28.518  43.289  13.516
51660W        W21475  28.467   8.370   4.129
51661W        W21476  12.135  13.209  14.422
51662W        W21477  33.453  25.132  12.373
51663W        W21478   6.707   3.928   1.383
51664W        W21479   2.320  42.978   1.729
51665W        W21480  25.015   6.267  12.884
51666W        W21481  39.336  14.248   2.339
51667W        W21482  34.922  31.915   2.300
51668W        W21483  18.217  23.201  12.096
51669W        W21484  38.980  36.456   5.267
51670W        W21485   3.765  43.880   3.333
51671W        W21486  10.805  19.775   0.736
51672W        W21487  22.151  10.785   1.872
51673W        W21488   8.794  10.860  12.519
51674W        W21489  11.772  26.471   1.292
51675W        W21490  28.016  10.726   0.251
51676W        W21491  16.762  14.126  12.070
51677W        W21492  25.540   5.348   0.320
51678W        W21493  11.679  16.191  10.953
51679W        W21494  27.181   3.897   0.824
51680W        W21495  22.669  13.296  14.300
51681W        W21496   7.197   4.922  10.520
51682W        W21497  12.233   7.259   3.325
51683W        W21498  31.993  36.876  13.040
51684W        W21499   3.459  29.513   3.734
51685W        W21500   8.177  20.199   4.304
51686W        W21501  26.471  33.093  12.040
51687W        W21502  33.566   1.418   3.276
51688W        W21503  16.302  33.952   4.748
51689W        W21504  40.398  37.402  14.992
51690W        W21505  10.290  26.108   1.415
51691W        W21506  20.537  16.722   2.761
51692W        W21507  39.965   7.731   3.280
51693W        W21508  20.084  12.770  13.026
51694W        W21509  19.088  40.401   1.889
51695W        W21510  42.833  44.334  13.041
51696W        W21511  21.075  18.079   0.739
51697W        W21512  10.205  40.413  14.361
51698W        W21513  26.639   1.842  12.998
51699W        W21514  30.996  32.474   2.185
51700W        W21515  20.097  44.951  11.914
51701W        W21516  25.011  22.175   0.288
51702W        W21517  12.316  37.028   0.333
51703W        W21518  10.852  28.515  11.542
51704W        W21519  36.098  37.909   1.833
51705W        W21520  19.551  26.202   0.793
51706W        W21521  11.184   0.400   3.328
51707W        W21522   8.694   5.923  10.452
51708W        W21523  37.348  20.205  14.870
51709W        W21524  39.016   9.825   4.298
51710W        W21525  41.400   2.241   3.223
51711W        W21526   7.783  20.246   2.334
51712W        W21527  33.022  41.382  11.486
51713W        W21528  10.722  21.253   3.647
51714W        W21529  41.911  37.007  10.608
51715W        W21530  44.265  28.573   4.836
51716W        W21531  40.871  19.549   3.650
51717W        W21532  41.947  15.815  14.388
51718W        W21533  29.612  36.474   0.340
51719W        W21534  17.708  33.967   2.837
51720W        W21535  27.500  22.522  10.417
51721W        W21536  20.123  30.975   1.754
51722W        W21537   6.734  16.760  13.345
51723W        W21538  31.081  44.808   4.266
51724W        W21539   4.269  16.607  12.513
51725W        W21540  33.918  21.124  12.527
51726W        W21541  30.093  15.281  12.058
51727W        W21542   2.960  36.933  12.907
51728W        W21543   6.277   1.954  12.390
51729W        W21544  25.473  38.488  11.046
51730W        W21545   3.770  33.943  10.534
51731W        W21546  24.197   1.432  12.827
51732W        W21547  24.021   8.870   2.350
51733W        W21548  26.679  32.434  10.524
51734W        W21549  39.016   2.310   4.210
51735W        W21550  15.276   6.907   2.743
51736W        W21551  29.463  16.588   1.838
51737W        W21552  17.669  20.148  12.944
51738W        W21553  25.000  26.599   1.436
51739W        W21554  35.434  17.692   2.337
51740W        W21555  32.547   4.302   0.271
51741W        W21556   3.731  23.183  11.939
51742W        W21557   3.409  37.830   2.332
51743W        W21558  35.912  43.977  12.851
51744W        W21559  13.164  18.227   4.744
51745W        W21560  12.345  35.967  10.575
51746W        W21561  26.615   1.801  10.563
51747W        W21562   1.461  22.710   4.729
51748W        W21563  40.959  31.097   2.218
51749W        W21564  24.137  20.634  10.459
51750W        W21565  30.605  11.212   1.260
51751W        W21566  27.636  41.346   0.941
51752W        W21567  20.132  36.500  13.850
51753W        W21568  23.175  39.484   0.830
51754W        W21569  38.558  23.093  11.387
51755W        W21570   5.204  33.545  11.951
51756W        W21571  41.974   3.904   3.630
51757W        W21572   3.756   8.192  10.567
51758W        W21573  10.852  11.826   0.917
51759W        W21574   9.800  31.527   2.321
51760W        W21575  21.136  38.030   4.818
51761W        W21576  15.174   7.701  11.475
51762W        W21577  42.835  36.406  10.642
51763W        W21578  39.868  35.990   1.743
51764W        W21579   8.238  16.762   4.344
51765W        W21580  40.439  32.956  10.427
51766W        W21581  12.226  40.375   2.797
51767W        W21582   6.349   9.757  13.980
51768W        W21583   2.944  17.182   3.314
51769W        W21584  41.304  10.743   3.305
51770W        W21585  16.073  43.910  10.636
51771W        W21586  41.505  30.444  13.340
51772W        W21587  32.407  39.021  13.026
51773W        W21588   3.226   6.823  14.386
51774W        W21589  11.707  24.604   1.852
51775W        W21590  24.657  33.129  14.453
51776W        W21591  11.206   6.729   3.676
51777W        W21592  44.318   9.185   1.317
51778W        W21593  19.229   1.285   0.967
51779W        W21594  43.483  28.504  14.796
51780W        W21595  13.156  43.830   2.752
51781W        W21596  21.751  28.064   1.909
51782W        W21597  39.391   8.203  11.121
51783W        W21598  30.019  29.989   3.673
51784W        W21599  37.022   0.477   4.773
51785W        W21600   6.321  13.620  11.566
51786W        W21601  40.917  10.261  12.928
51787W        W21602  24.214  13.714  14.775
51788W        W21603   1.378   5.363  11.439
51789W        W21604  36.579  36.450  11.062
51790W        W21605   1.332   0.809   3.266
51791W        W21606  42.402  31.537   1.264
51792W        W21607   1.366  41.958   0.451
51793W        W21608  15.265  20.063   3.687
51794W        W21609  39.062  42.779  12.446
51795W        W21610  25.086  34.448   3.326
51796W        W21611  13.177   8.175   1.260
51797W        W21612  44.925  10.841   2.887
51798W        W21613  44.851  31.944  13.944
51799W        W21614  11.198  13.628  12.526
51800W        W21615  40.310  13.694   3.646
51801W        W21616  19.717  25.085   3.184
51802W        W21617  27.555  19.149  11.939
51803W        W21618   6.227   1.927   0.961
51804W        W21619  30.600  34.869   0.914
51805W        W21620  29.482  40.316  14.382
51806W        W21621  24.516   6.748  11.937
51807W        W21622  17.711  15.739  12.058
51808W        W21623   9.693  44.317   3.300
51809W        W21624  26.541  40.304   4.129
51810W        W21625  27.503  22.042   3.333
51811W        W21626  32.468  30.514   4.700
51812W        W21627  11.819   9.769   2.840
51813W        W21628  15.230  23.491  11.374
51814W        W21629  14.281  24.621  10.582
51815W        W21630  44.306  43.297  14.770
51816W        W21631  35.597  31.457   4.622
51817W        W21632  24.484  39.849  13.994
51818W        W21633  37.875  42.501  11.574
51819W        W21634   5.402  31.405   3.198
51820W        W21635  21.683  33.574  14.977
51821W        W21636  27.051  28.931   4.205
51822W        W21637  38.533  19.171   1.335
51823W        W21638  30.019  12.851   2.252
51824W        W21639  10.778  27.669  12.974
51825W        W21640  33.904  44.387   0.413
51826W        W21641   2.901  10.774  12.494
51827W        W21642  10.232   9.853  13.960
51828W        W21643  20.042  34.039   3.811
51829W        W21644  20.090   0.950  13.381
51830W        W21645   2.287  35.860  13.435
51831W        W21646   1.753  42.904  13.805
51832W        W21647  25.594  27.602  12.991
51833W        W21648  29.670  24.153  12.071
51834W        W21649   4.845  30.945   5.223
51835W        W21650  41.445  17.133   2.181
51836W        W21651  39.375  37.552  10.929
51837W        W21652  31.431  11.841   4.837
51838W        W21653   6.821  44.923   3.219
51839W        W21654   2.826  33.542  11.951
51840W        W21655   4.805  29.163  14.888
51841W        W21656   5.930  35.567  11.969
51842W        W21657   8.768  41.923   3.265
51843W        W21658  10.174  23.147   1.832
51844W        W21659   1.850   4.771  12.422
51845W        W21660   5.698  42.426   4.810
51846W        W21661   6.382  36.541   4.689
51847W        W21662  37.882  23.607   5.120
51848W        W21663  38.022  30.140   1.934
51849W        W21664  26.034   7.288  11.973
51850W        W21665  31.549  44.333   1.326
51851W        W21666  25.145  43.452   3.776
51852W        W21667  23.551   4.703   4.310
51853W        W21668  10.692  16.587   1.382
51854W        W21669  16.101  10.837  10.582
51855W        W21670  23.684  37.019   2.669
51856W        W21671  25.603  12.829   3.262
51857W        W21672  38.363  42.422  10.928
51858W        W21673  31.925   0.763   2.728
51859W        W21674  37.911   0.804  10.440
51860W        W21675  39.048  21.226  10.139
51861W        W21676  40.510  25.663   3.290
51862W        W21677  29.022   8.860   4.316
51863W        W21678  19.082  33.448  11.404
51864W        W21679  38.891  19.664   1.365
51865W        W21680  29.939  17.188   4.204
51866W        W21681   2.242  19.600  10.438
51867W        W21682  20.710  31.970   1.300
51868W        W21683  39.502  42.807   3.224
51869W        W21684   2.823  39.986   0.831
51870W        W21685  14.634  39.947   0.760
51871W        W21686   3.333  29.584   1.387
51872W        W21687  29.170   9.303   2.233
51873W        W21688  17.299  22.531  13.517
51874W        W21689  19.274  10.770   4.685
51875W        W21690  10.382  33.541   1.446
51876W        W21691   3.949  34.881  13.363
51877W        W21692  12.713  32.440   1.437
51878W        W21693  42.477  37.005  11.985
51879W        W21694  34.983  10.302   9.984
51880W        W21695  13.835  37.490   2.899
51881W        W21696  16.281  44.760   2.671
51882W        W21697  23.730  44.961  14.813
51883W        W21698  14.781  30.057  12.967
51884W        W21699  26.693  38.988   3.309
51885W        W21700  16.791  23.230  13.359
51886W        W21701  31.432   9.753   4.332
51887W        W21702  42.844   8.858   2.872
51888W        W21703  26.549  27.535  12.952
51889W        W21704   2.452   1.877  14.385
51890W        W21705  27.986   2.253  12.948
51891W        W21706  44.374  38.518   3.384
51892W        W21707  19.186  25.523  11.590
51893W        W21708   6.858  24.654   4.300
51894W        W21709  28.159  11.634   2.746
51895W        W21710  32.022  32.480  13.472
51896W        W21711  43.414  10.795   3.756
51897W        W21712   6.729  28.009  11.405
51898W        W21713   4.311  15.819   3.332
51899W        W21714  42.341  33.063   0.884
51900W        W21715  42.284  11.237  13.822
51901W        W21716  10.787  37.401  14.373
51902W        W21717  39.917  13.724  13.502
51903W        W21718  22.142   1.769   2.819
51904W        W21719  30.974   2.452   0.325
51905W        W21720   3.917  28.941   4.836
51906W        W21721  16.710  15.323   0.273
51907W        W21722   1.424  10.356  11.872
51908W        W21723  13.792  31.468   1.248
51909W        W21724  33.528  18.072   3.337
51910W        W21725  35.604  29.926   4.256
51911W        W21726  39.840   4.779  12.986
51912W        W21727  44.954  32.412   0.817
51913W        W21728   8.248  22.117  12.039
51914W        W21729   2.330  16.647  11.927
51915W        W21730  34.933  22.747  14.967
51916W        W21731  28.509  37.538  14.802
51917W        W21732  40.936  13.205  13.521
51918W        W21733  27.187  26.049   3.211
51919W        W21734  15.755  13.831   0.922
51920W        W21735  22.706  31.529  13.379
51921W        W21736  35.520  25.554  11.855
51922W        W21737  12.135  23.691   1.395
51923W        W21738   9.384  40.970   1.773
51924W        W21739  19.564   4.824   4.237
51925W        W21740  33.010  10.677   1.755
51926W        W21741  27.081  16.755  11.521
51927W        W21742  40.872  23.601  10.926
51928W        W21743  34.388  28.552  14.001
51929W        W21744  15.726  19.695   0.404
51930W        W21745  26.147   0.767  12.074
51931W        W21746  10.760  18.548  10.493
51932W        W21747  35.561  31.000   3.755
51933W        W21748  41.909  38.489  10.423
51934W        W21749  39.318  38.382  12.954
51935W        W21750  19.696  23.517   0.478
51936W        W21751  25.521  33.015  12.887
51937W        W21752  41.910  20.122   4.158
51938W        W21753  25.528  12.252   2.897
51939W        W21754  39.993   2.316   4.297
51940W        W21755  43.894  41.864   4.191
51941W        W21756  28.643  34.100  11.484
51942W        W21757   8.747  32.455  13.805
51943W        W21758  33.380  11.358   4.287
51944W        W21759   8.258  42.940  14.308
51945W        W21760  27.158  16.152  11.524
51946W        W21761  37.899  13.706   4.150
51947W        W21762  23.531  10.659   4.262
51948W        W21763  26.537  20.187   1.340
51949W        W21764  30.536  12.124  12.900
51950W        W21765  23.595   8.357   0.858
51951W        W21766   9.773   8.329   3.789
51952W        W21767  25.968  14.122  14.394
51953W        W21768  42.309  15.687  11.943
51954W        W21769  18.746   1.416   4.315
51955W        W21770  40.898  41.440   4.680
51956W        W21771  12.219  12.712   2.349
51957W        W21772  42.806  18.729  12.516
51958W        W21773  42.327  44.885  13.963
51959W        W21774  18.590  40.926  11.893
51960W        W21775  44.451  26.015  12.085
51961W        W21776  43.498   9.225   0.463
51962W        W21777  32.134  15.170   2.264
51963W        W21778  21.221  28.439  12.565
51964W        W21779  21.070  13.843   0.307
51965W        W21780  27.051  44.262  13.488
51966W        W21781  37.435  44.889   1.803
51967W        W21782  27.457  21.029  10.945
51968W        W21783  24.599  17.269  11.956
51969W        W21784   3.343  30.507  14.838
51970W        W21785   7.760  32.591  13.018
51971W        W21786  24.674   1.400   1.264
51972W        W21787  16.727  44.860   1.828
51973W        W21788  19.170  29.606  11.110
51974W        W21789  30.129  35.063  12.077
51975W        W21790  10.843  24.191  14.911
51976W        W21791  31.569  27.644   1.318
51977W        W21792  39.826  21.558   0.750
51978W        W21793  44.340  43.363  11.585
51979W        W21794  30.635  19.125   1.417
51980W        W21795  29.148  25.061  11.965
51981W        W21796   2.874  42.910   4.620
51982W        W21797  10.215  43.828  10.911
51983W        W21798  36.943   5.365   1.709
51984W        W21799  25.050  36.350   4.316
51985W        W21800  20.224  10.181   1.409
51986W        W21801   4.797   3.907   4.635
51987W        W21802  26.588  33.111  12.923
51988W        W21803  39.011  34.397   0.441
51989W        W21804  32.894  25.680  12.539
51990W        W21805  30.124   0.290  14.773
51991W        W21806   5.791   1.477  12.415
51992W        W21807  38.514  28.145   3.856
51993W        W21808  33.975   4.408   3.665
51994W        W21809  44.281  30.523   0.308
51995W        W21810   5.892  12.362   3.329
51996W        W21811  16.597  13.784   2.248
51997W        W21812  33.000  10.859   2.390
51998W        W21813   2.299  16.728   1.888
51999W        W21814  34.524  36.027  12.493
52000W        W21815  30.084  10.723   3.172
52001W        W21816  40.495  34.869   2.289
52002W        W21817  39.427  37.906  13.844
52003W        W21818  17.661  24.084  12.477
52004W        W21819  34.547  17.142   1.790
52005W        W21820   3.324   7.863  10.953
52006W        W21821  39.404  25.512   3.817
52007W        W21822  23.115  11.672  13.453
52008W        W21823  41.932   9.189  13.508
52009W        W21824   1.355   6.764  12.071
52010W        W21825   6.898  20.527   2.363
52011W        W21826  14.182  27.998  12.346
52012W        W21827  13.639  34.451  11.398
52013W        W21828  38.988  35.062  13.523
52014W        W21829   1.270   0.774   0.243
52015W        W21830   0.313   2.760   3.250
52016W        W21831   7.687  28.026  10.582
52017W        W21832  43.277  33.610   3.867
52018W        W21833  36.091  32.422   0.865
52019W        W21834  34.910  21.258  14.914
52020W        W21835   9.778   4.239  11.474
52021W        W21836   1.475  44.925  11.412
52022W        W21837  26.493  35.567   4.598
52023W        W21838  42.911   0.933   0.393
52024W        W21839  44.309  39.540  11.604
52025W        W21840  32.619  19.708  13.911
52026W        W21841   8.392  15.780  14.357
52027W        W21842   2.368   3.886  12.554
52028W        W21843  29.534  27.008  10.444
52029W        W21844  26.062  44.277   1.864
52030W        W21845  12.217   6.237  14.904
52031W        W21846   1.798   4.775  13.477
52032W        W21847   6.821  30.980   1.747
52033W        W21848  12.252   4.419   0.948
52034W        W21849  24.478  11.692   2.825
52035W        W21850  15.186  13.694   4.629
52036W        W21851  10.237  39.026  14.338
52037W        W21852  37.535  10.334   0.423
52038W        W21853   9.378  43.931   0.327
52039W        W21854  21.083  22.744  11.411
52040W        W21855  28.068  42.813  11.095
52041W        W21856   6.859   4.829   3.629
52042W        W21857  40.432  10.213  12.006
52043W        W21858  37.861  11.336  12.505
52044W        W21859  40.906  44.382  14.833
52045W        W21860  38.561  41.346   4.702
52046W        W21861   5.755   8.188  12.524
52047W        W21862   1.287  41.884   2.837
52048W        W21863  36.001  21.164  10.500
52049W        W21864   8.357  42.902   5.098
52050W        W21865  37.996  43.808  10.500
52051W        W21866  38.884   2.356  14.934
52052W        W21867  40.926  26.146   4.638
52053W        W21868  43.904  11.320  14.966
52054W        W21869  32.636  37.493  14.761
52055W        W21870  36.444  29.476   3.293
52056W        W21871  12.758  28.113  10.479
52057W        W21872  23.201  44.860   3.287
52058W        W21873  25.158  10.247  11.579
52059W        W21874  35.601  34.109   2.790
52060W        W21875  31.411  37.957  12.403
52061W        W21876  41.801  18.284   5.226
52062W        W21877  33.993  13.160  11.536
52063W        W21878  32.988  31.495  11.512
52064W        W21879   8.740  11.148   4.628
52065W        W21880   8.175  16.709   1.226
52066W        W21881  37.515   2.754   2.355
52067W        W21882  17.723   6.851  13.439
52068W        W21883  44.937  16.699  11.127
52069W        W21884  25.098  44.927  11.385
52070W        W21885  18.717  31.468  12.508
52071W        W21886   1.881  24.073   2.714
52072W        W21887  23.087  36.928  12.930
52073W        W21888   7.867   7.351  10.466
52074W        W21889   1.842  35.579  13.395
52075W        W21890  10.718  18.172  12.368
52076W        W21891  36.467  19.698  11.056
52077W        W21892   3.810  15.708  14.927
52078W        W21893  32.632  14.748  12.459
52079W        W21894  32.984  35.885   0.798
52080W        W21895  10.771  32.527   4.295
52081W        W21896   5.424  13.676   3.826
52082W        W21897  38.364  27.113   4.313
52083W        W21898  23.536  30.997  14.301
52084W        W21899   2.754  24.716  14.767
52085W        W21900  16.705  29.012  13.821
52086W        W21901   9.781  18.142  10.910
52087W        W21902  23.704  13.182  12.346
52088W        W21903  15.771  39.825  11.041
52089W        W21904  21.099  33.486  11.439
52090W        W21905  38.945  43.809  14.350
52091W        W21906  37.460  35.422   4.188
52092W        W21907  22.146  33.894  13.464
52093W        W21908  26.145  16.206  14.839
52094W        W21909  44.379  15.798   4.736
52095W        W21910  10.716  39.831   1.882
52096W        W21911  13.314  37.369   2.199
52097W        W21912  28.185   5.318   3.218
52098W        W21913  13.283  17.631  14.897
52099W        W21914  20.635  39.466  12.950
52100W        W21915  23.222  20.138   2.856
52101W        W21916  19.754  23.615  12.374
52102W        W21917  42.475  33.025  11.920
52103W        W21918  19.651   9.667  12.050
52104W        W21919  23.718   2.260   4.265
52105W        W21920  41.805  29.070   0.337
52106W        W21921  33.492   9.677  12.400
52107W        W21922  10.182   9.203  12.932
52108W        W21923  31.466   1.911   3.697
52109W        W21924  33.089  20.272   3.775
52110W        W21925  39.400  11.223   4.125
52111W        W21926  39.944   5.235  10.992
52112W        W21927  42.482  34.882   4.232
52113W        W21928   2.430  41.472  10.514
52114W        W21929  10.845   7.713   3.703
52115W        W21930  44.504  24.678   0.294
52116W        W21931   2.838   7.806   3.239
52117W        W21932  20.049  28.671   1.437
52118W        W21933  36.479  36.483   0.738
52119W        W21934   4.868  29.928   2.419
52120W        W21935  33.600   1.897   4.283
52121W        W21936   4.381  12.348   1.919
52122W        W21937  40.529  12.143  14.399
52123W        W21938  41.523  34.987  13.471
52124W        W21939  18.717   2.897  13.889
52125W        W21940  44.754  40.869   1.923
52126W        W21941  15.283  41.959  12.526
52127W        W21942  28.038  36.515  10.927
52128W        W21943  40.364  37.022  10.974
52129W        W21944  27.447  17.685   1.720
52130W        W21945  28.673  10.379  12.424
52131W        W21946  23.166  31.429   0.288
52132W        W21947  33.514  22.556   4.751
52133W        W21948  41.312   5.244  14.763
52134W        W21949  44.370  37.876  14.338
52135W        W21950  40.950  24.491  14.951
52136W        W21951  17.305  14.732  13.877
52137W        W21952   1.439  36.894   3.302
52138W        W21953  21.521  44.760  14.020
52139W        W21954  30.141  17.154   1.891
52140W        W21955  14.284   1.949  12.846
52141W        W21956  10.324  23.080  14.007
52142W        W21957  33.082  16.651  13.033
52143W        W21958  13.778  31.936   0.933
52144W        W21959  39.466  30.484   3.263
52145W        W21960  26.037  35.543   1.812
52146W        W21961   1.948  35.990  13.451
52147W        W21962  31.466  38.873   4.243
52148W        W21963  22.512  39.429   2.815
52149W        W21964  14.731  36.588   4.811
52150W        W21965  31.154  17.708   0.337
52151W        W21966  18.166   0.926   4.733
52152W        W21967  35.024   8.189  13.017
52153W        W21968   7.694  13.746  14.508
52154W        W21969  21.554  36.533   4.837
52155W        W21970   3.370  11.717   4.237
52156W        W21971  17.629  32.433   4.306
52157W        W21972  44.321   8.212  14.872
52158W        W21973  11.298  14.121  13.326
52159W        W21974  20.232  23.985   4.346
52160W        W21975  14.284  44.497  10.465
52161W        W21976  39.818  41.798  11.468
52162W        W21977  42.360  44.858  14.851
52163W        W21978  32.111  27.063  12.946
52164W        W21979  38.981  19.172   4.796
52165W        W21980  22.721  38.519   2.841
52166W        W21981   0.856  34.551   4.697
52167W        W21982  40.988   2.809  10.517
52168W        W21983   2.301  38.379   4.740
52169W        W21984  37.020  31.015   4.309
52170W        W21985  30.571  24.186   4.681
52171W        W21986  14.159  38.448  11.024
52172W        W21987  19.635   6.272   3.666
52173W        W21988  41.337   0.392   0.460
52174W        W21989  17.105  20.677  14.507
52175W        W21990   7.223  18.653   0.330
52176W        W21991   8.295   5.865   3.342
52177W        W21992  26.605  39.967   1.350
52178W        W21993  41.990  35.983   1.365
52179W        W21994  14.642  38.997  10.081
52180W        W21995  43.955  24.555  11.032
52181W        W21996  40.815  24.640   4.230
52182W        W21997  39.040  18.672  14.429
52183W        W21998  36.952  12.660   0.355
52184W        W21999  44.331  20.710  12.055
52185W        W22000  25.587  43.360   2.881
52186W        W22001  18.652  25.683  13.366
52187W        W22002  27.171   0.836  12.912
52188W        W22003  14.116  19.159   1.854
52189W        W22004  22.049  28.054  12.463
52190W        W22005  11.223  31.506   3.383
52191W        W22006   0.361  29.454   4.631
52192W        W22007  37.857  34.935   4.644
52193W        W22008  21.720  42.027   0.770
52194W        W22009  43.920  14.709  10.597
52195W        W22010   0.486  34.506  10.549
52196W        W22011   0.445  35.020  11.915
52197W        W22012  35.051  12.818   0.332
52198W        W22013   5.430  18.126   4.261
52199W        W22014  19.046   8.303  10.642
52200W        W22015  30.060  29.014   1.789
52201W        W22016  39.868  32.403   3.336
52202W        W22017  13.109  43.791   0.274
52203W        W22018  21.169   8.733  14.330
52204W        W22019  37.016  22.595  13.974
52205W        W22020  14.109  24.640  14.864
52206W        W22021   6.765  40.928   1.420
52207W        W22022  43.345  34.547   1.845
52208W        W22023  40.018  42.820   2.303
52209W        W22024  17.268  24.618   4.705
52210W        W22025  37.500   5.910  14.378
52211W        W22026  20.259  29.099  13.438
52212W        W22027  43.855   0.259  13.849
52213W        W22028   2.291  23.700  13.903
52214W        W22029   9.153  18.196   5.120
52215W        W22030  27.680  35.977  11.985
52216W        W22031   8.194  15.099  11.530
52217W        W22032  22.683   1.799  14.867
52218W        W22033   2.944  10.303  13.481
52219W        W22034   2.870  43.404   3.268
52220W        W22035  33.399   5.806  13.501
52221W        W22036  33.049   2.775  12.932
52222W        W22037  25.502  33.021  11.995
52223W        W22038  44.274   3.452  14.343
52224W        W22039  12.262  10.796   1.382
52225W        W22040  17.604  31.646   4.665
52226W        W22041  18.781  19.619  13.365
52227W        W22042  22.020  33.997  11.120
52228W        W22043  18.788  37.917   1.281
52229W        W22044  36.989  40.347   2.836
52230W        W22045   9.310  10.203  12.575
52231W        W22046   6.217  27.469  12.986
52232W        W22047  44.327  43.874  13.950
52233W        W22048   4.758  28.051   1.329
52234W        W22049  22.728  15.726   3.265
52235W        W22050  28.181  20.213   0.302
52236W        W22051  29.608   5.843  14.816
52237W        W22052   6.367   8.354   3.175
52238W        W22053  39.369   6.835   9.953
52239W        W22054  38.483   3.776  12.926
52240W        W22055  16.231  41.423   1.337
52241W        W22056  37.541  21.180  13.488
52242W        W22057  33.010  36.485  10.586
52243W        W22058  33.578  25.002   3.800
52244W        W22059  39.408  39.369  11.047
52245W        W22060  19.677   2.336   2.701
52246W        W22061   3.787   8.354   2.367
52247W        W22062   4.440  23.123   3.654
52248W        W22063  30.099  21.654   0.931
52249W        W22064  42.974   6.193   4.204
52250W        W22065   6.367  32.946  13.494
52251W        W22066   9.356  36.393   2.829
52252W        W22067  41.453  38.933  14.955
52253W        W22068  22.685   5.401  12.934
52254W        W22069  41.971  30.139   2.188
52255W        W22070  29.555  15.671  10.948
52256W        W22071   5.222  11.654  14.934
52257W        W22072  25.658   3.840  13.884
52258W        W22073  22.153  44.475  10.903
52259W        W22074   5.382   5.775   3.306
52260W        W22075  20.107  11.216   4.731
52261W        W22076  43.958  29.606   0.883
52262W        W22077  37.359  22.010   2.871
52263W        W22078  16.755  28.044   0.871
52264W        W22079  27.085  34.983   3.811
52265W        W22080   4.925  13.351   1.214
52266W        W22081  33.451  32.991  13.373
52267W        W22082  27.086  41.030   2.207
52268W        W22083  44.754  19.130   3.765
52269W        W22084  30.610  26.621  12.052
52270W        W22085  33.453   2.276   0.282
52271W        W22086  32.900  17.590  13.347
52272W        W22087   7.861  14.202  14.923
52273W        W22088   3.802   0.972   2.776
52274W        W22089  31.152  42.886  13.387
52275W        W22090  33.892  24.185  12.962
52276W        W22091  15.666   7.182  13.329
52277W        W22092  38.035  24.123  14.883
52278W        W22093   3.241  32.058  13.427
52279W        W22094  28.462  33.106  13.534
52280W        W22095  43.827  22.227  12.389
52281W        W22096  13.331  22.153   4.679
52282W        W22097  44.939  13.132   0.734
52283W        W22098   6.244  38.952  12.453
52284W        W22099   2.461  44.973   1.212
52285W        W22100  17.795  13.624  12.834
52286W        W22101  29.974  40.327  12.433
52287W        W22102   2.265  11.697  14.464
52288W        W22103  22.241   9.669   0.260
52289W        W22104  44.823  41.925   2.379
52290W        W22105  42.838  16.220   4.138
52291W        W22106  12.681  42.891  13.861
52292W        W22107   5.228  29.074  12.556
52293W        W22108  34.947  13.618   3.208
52294W        W22109  19.558  16.209  12.469
52295W        W22110  19.123  30.002  14.954
52296W        W22111  18.166   6.330   3.763
52297W        W22112  17.305  34.420  13.868
52298W        W22113  13.606  14.305  14.388
52299W        W22114   8.776  18.755  11.537
52300W        W22115  12.763  31.925  14.493
52301W        W22116  17.790  33.924   0.451
52302W        W22117  11.341  41.021   1.733
52303W        W22118  41.895  10.758   2.810
52304W        W22119  37.535  20.720   1.220
52305W        W22120   2.830  18.755   2.690
52306W        W22121   2.339  40.029  11.007
52307W        W22122  36.001   3.322  10.529
52308W        W22123  32.480  18.643   4.209
52309W        W22124   8.806  35.976   4.319
52310W        W22125   4.746  11.244  12.394
52311W        W22126  40.464  40.036  13.872
52312W        W22127  38.538  13.612   1.851
52313W        W22128  15.277  12.353   1.351
52314W        W22129  20.140  34.418  11.435
52315W        W22130   0.949  33.432   2.329
52316W        W22131  34.909  43.512  13.353
52317W        W22132  23.714  42.524  12.515
52318W        W22133   7.224   2.310   4.726
52319W        W22134  22.723  29.079   0.385
52320W        W22135   2.283  21.555   4.224
52321W        W22136  36.071  41.043  11.428
52322W        W22137   8.747  40.027  14.283
52323W        W22138   4.423  27.971  13.875
52324W        W22139  30.476  40.508   5.120
52325W        W22140  11.233  10.374  12.889
52326W        W22141  19.772  38.411  13.859
52327W        W22142  21.032  37.524   1.860
52328W        W22143   3.353  10.150  14.275
52329W        W22144  13.725  38.867   3.315
52330W        W22145   7.364  26.104   2.251
52331W        W22146  16.075  11.326  10.960
52332W        W22147  34.891  25.477   2.287
52333W        W22148  27.102  19.094  11.453
52334W        W22149  44.967   6.363  11.505
52335W        W22150  21.234  40.316   5.316
52336W        W22151  39.376  27.576   3.820
52337W        W22152  38.537  22.519  11.521
52338W        W22153   2.946  35.900   0.797
52339W        W22154  34.483  23.113  14.469
52340W        W22155  37.926   7.698  11.569
52341W        W22156  18.221   9.784  10.438
52342W        W22157  16.717  38.416  14.910
52343W        W22158  31.448  31.416   3.676
52344W        W22159  29.435  13.189   1.866
52345W        W22160  31.012  25.703  10.962
52346W        W22161  13.778  30.931   3.341
52347W        W22162  37.048  32.469   1.264
52348W        W22163   2.921   5.404  10.592
52349W        W22164  29.064  42.487   2.696
52350W        W22165  44.914   7.777   0.965
52351W        W22166  38.850  15.758  10.491
52352W        W22167  39.903  39.393  12.512
52353W        W22168  26.971   3.934   4.195
52354W        W22169  23.114  24.536  11.089
52355W        W22170  22.011  32.055  14.415
52356W        W22171  37.387  20.095   4.631
52357W        W22172   3.742  21.207   1.292
52358W        W22173  44.402  14.589   4.138
52359W        W22174   1.838  32.108   0.304
52360W        W22175   1.329  34.935   3.680
52361W        W22176  28.127  35.026  11.060
52362W        W22177  24.622  36.473  14.381
52363W        W22178  39.886   7.185   3.868
52364W        W22179  30.920  21.699  11.481
52365W        W22180  29.162  35.053   2.253
52366W        W22181  18.575  39.983   1.437
52367W        W22182  33.072  31.004  14.921
52368W        W22183   6.755  18.273  10.477
52369W        W22184   6.871   0.378   1.752
52370W        W22185  12.779   8.663   1.271
52371W        W22186  42.925  27.592  11.118
52372W        W22187  19.546  41.991   4.635
52373W        W22188  40.798  31.566   2.720
52374W        W22189  28.505  36.407   2.843
52375W        W22190  15.601  31.055  10.541
52376W        W22191  25.541  41.813   2.853
52377W        W22192   0.860  17.190   1.918
52378W        W22193  10.823  39.445   0.886
52379W        W22194  15.743  22.250  14.447
52380W        W22195  35.044   8.372  13.934
52381W        W22196  38.016  20.238  11.468
52382W        W22197   3.308   8.672  12.502
52383W        W22198  42.338   8.894  10.619
52384W        W22199   6.185   3.792   0.381
52385W        W22200   0.272  44.811  12.417
52386W        W22201  25.670  23.609  14.948
52387W        W22202   4.736  26.973  14.001
52388W        W22203  30.447  30.930   2.372
52389W        W22204  20.182   2.459   0.735
52390W        W22205  38.560  26.147  10.625
52391W        W22206  30.071  29.442   4.312
52392W        W22207  19.101  23.142   0.283
52393W        W22208  44.459  38.858   5.183
52394W        W22209   8.830   6.282  11.100
52395W        W22210  33.913  20.105  11.381
52396W        W22211  20.533  33.426   4.634
52397W        W22212  21.087  34.387   4.702
52398W        W22213  21.068  44.391   1.901
52399W        W22214  23.219  33.948   4.788
52400W        W22215  25.173  17.152   4.718
52401W        W22216  20.049  20.607   3.780
52402W        W22217   1.853  15.580  10.019
52403W        W22218  36.044  30.645   5.246
52404W        W22219  38.356  26.043  11.982
52405W        W22220  17.737  22.070   1.892
52406W        W22221  12.303   6.319   4.219
52407W        W22222   4.798  35.988  13.040
52408W        W22223  11.646   9.187   1.271
52409W        W22224  32.955  22.153  12.351
52410W        W22225  16.139  23.676  14.465
52411W        W22226  19.257  11.275  10.430
52412W        W22227   4.348  41.511   1.432
52413W        W22228  31.497  32.108   3.832
52414W        W22229  42.327  40.376  12.940
52415W        W22230  28.941  13.842  10.603
52416W        W22231  29.985  37.555   3.311
52417W        W22232  39.058  37.920   1.832
52418W        W22233  20.210  31.105  13.426
52419W        W22234   6.332  29.642   1.831
52420W        W22235  43.940  23.994  10.507
52421W        W22236  13.132  37.975  11.416
52422W        W22237  24.608   0.773   3.864
52423W        W22238  38.511   5.916   1.418
52424W        W22239  38.965  44.408   4.178
52425W        W22240  18.620  32.888   1.766
52426W        W22241  25.618  27.512  11.028
52427W        W22242  10.679   9.832  13.804
52428W        W22243   9.319  43.906   3.243
52429W        W22244  27.029   9.321   0.280
52430W        W22245  16.182  32.987  14.961
52431W        W22246   6.305  17.800   0.318
52432W        W22247  22.244  18.651  14.815
52433W        W22248  35.423  37.033  13.506
52434W        W22249  30.521   4.437  11.051
52435W        W22250   5.282  22.141  14.320
52436W        W22251  37.454  16.715   2.321
52437W        W22252  36.846   3.790   3.634
52438W        W22253  23.659   1.279   0.937
52439W        W22254  10.144  41.792   0.738
52440W        W22255  36.499  36.490   1.354
52441W        W22256  24.197  40.466  13.025
52442W        W22257  33.105  39.938  14.360
52443W        W22258  23.143  11.806  12.907
52444W        W22259  28.126  44.858  10.947
52445W        W22260  15.238  25.702  14.969
52446W        W22261  25.694  19.694   3.266
52447W        W22262  16.315   7.172  13.860
52448W        W22263   3.792  33.880  13.355
52449W        W22264  27.641  24.642  14.295
52450W        W22265   0.957   7.900   4.615
52451W        W22266  43.974  22.735   2.903
52452W        W22267  14.125  17.197   1.386
52453W        W22268  42.309  10.858  10.894
52454W        W22269  43.401  33.449   2.408
52455W        W22270  42.381  11.731   2.309
52456W        W22271  19.276  30.047  13.875
52457W        W22272  28.536  41.939  12.580
52458W        W22273   6.266   2.918   3.209
52459W        W22274  14.594  41.302  14.775
52460W        W22275  29.592   2.760  14.482
52461W        W22276  34.075  10.866   4.131
52462W        W22277  28.519  38.556  11.589
52463W        W22278  17.640   2.858  14.485
52464W        W22279  41.438  36.886  10.463
52465W        W22280   2.367  15.238  14.931
52466W        W22281  19.541  30.615  13.417
52467W        W22282   9.368  38.962  10.509
52468W        W22283   5.263  29.072  12.872
52469W        W22284  37.038   7.676   4.605
52470W        W22285  39.003  15.758  12.456
52471W        W22286  31.513  19.146   3.319
52472W        W22287  23.077  21.100  13.343
52473W        W22288  42.516  18.729  11.988
52474W        W22289  35.582  40.473   4.298
52475W        W22290  27.679  39.034  13.374
52476W        W22291   9.693  22.533  11.396
52477W        W22292  13.799  16.079   3.293
52478W        W22293   4.211  23.726   4.707
52479W        W22294  19.757  30.437  10.615
52480W        W22295  34.020  17.139   0.360
52481W        W22296  41.330  13.691   9.939
52482W        W22297   8.192  35.468   3.343
52483W        W22298  16.315  23.007  12.832
52484W        W22299   6.359  41.029   3.280
52485W        W22300  43.429  23.131   1.431
52486W        W22301  32.614  19.708   2.701
52487W        W22302   5.838   0.907  10.971
52488W        W22303  42.505   2.774   3.197
52489W        W22304  18.106  37.337   3.686
52490W        W22305  35.868  38.494  14.437
52491W        W22306  17.082   4.375  11.537
52492W        W22307   9.726  12.668  12.540
52493W        W22308  39.557   2.903   3.181
52494W        W22309   3.774  22.728  12.974
52495W        W22310  19.178  43.940   3.332
52496W        W22311   4.775   6.415  14.988
52497W        W22312  31.597  19.611   1.869
52498W        W22313   4.221  42.493   1.714
52499W        W22314  21.733  29.424   1.228
52500W        W22315  24.123  10.714  12.834
52501W        W22316  33.394  13.823  14.838
52502W        W22317  41.957  16.121   3.751
52503W        W22318  10.221  31.093  13.488
52504W        W22319  39.850   1.260   1.232
52505W        W22320   7.276   6.742  14.342
52506W        W22321  10.702  22.587  11.081
52507W        W22322  21.069  28.037  14.456
52508W        W22323  30.430  19.087   4.622
52509W        W22324   9.752  24.623   1.906
52510W        W22325  39.424  41.393  13.802
52511W        W22326   9.276  12.257  14.278
52512W        W22327  16.129   0.426  13.060
52513W        W22328  42.422  32.509  10.416
52514W        W22329  24.975   2.819  13.980
52515W        W22330  19.063   3.739   1.273
52516W        W22331   1.954  40.479  13.395
52517W        W22332   8.787  25.470   0.299
52518W        W22333  26.609  39.913  11.517
52519W        W22334  22.572  37.432   2.300
52520W        W22335  40.832  32.566  12.443
52521W        W22336  31.443  16.727  14.894
52522W        W22337  42.785  29.952   0.955
52523W        W22338  16.725  38.516   2.755
52524W        W22339  36.920  27.628   4.168
52525W        W22340  31.023   4.415  12.939
52526W        W22341  24.715  16.317   3.744
52527W        W22342   3.936  36.991  14.916
52528W        W22343  36.589  29.566  10.497
52529W        W22344  38.544   2.334  14.424
52530W        W22345  11.148  43.807  10.418
52531W        W22346  12.699  31.074   0.478
52532W        W22347  42.999  23.030   4.153
52533W        W22348  35.954  44.895  10.540
52534W        W22349  17.564  13.669   3.725
52535W        W22350   5.394  25.556   3.759
52536W        W22351  13.752  13.766  12.946
52537W        W22352  37.060  18.157  10.911
52538W        W22353  10.757  18.710   3.221
52539W        W22354  27.043   5.693   0.765
52540W        W22355  37.565  38.467   0.918
52541W        W22356   2.425  16.171  10.519
52542W        W22357  12.258  39.975  13.063
52543W        W22358  24.040  35.378  13.465
52544W        W22359   6.238  11.334  11.543
52545W        W22360  29.587  14.179  10.151
52546W        W22361   8.345  18.693   2.713
52547W        W22362  21.072  23.572   1.929
52548W        W22363  23.100   0.851  10.064
52549W        W22364  39.040  25.510   2.734
52550W        W22365  19.774   5.239   2.867
52551W        W22366  36.006   2.339   1.765
52552W        W22367  29.015  27.174   2.851
52553W        W22368  15.151   6.720   0.359
52554W        W22369  27.149  27.680   3.197
52555W        W22370  43.848  36.348   2.727
52556W        W22371   6.281  30.075  12.885
52557W        W22372  28.943  44.322  14.796
52558W        W22373  39.953  29.941   3.647
52559W        W22374   3.418  10.829   3.375
52560W        W22375  39.450   5.877  13.889
52561W        W22376  28.956  22.178  14.878
52562W        W22377  39.820  30.008   2.848
52563W        W22378   0.840   0.774  14.774
52564W        W22379  25.964  16.598  12.945
52565W        W22380  40.032  13.233  13.883
52566W        W22381  21.667  15.123  14.924
52567W        W22382  40.506   3.782   4.709
52568W        W22383  35.374  13.702   0.285
52569W        W22384  12.844  41.303   0.398
52570W        W22385  15.192  15.760   4.274
52571W        W22386   4.303   1.411  14.956
52572W        W22387  25.482  20.263   3.841
52573W        W22388   7.666  24.522   1.809
52574W        W22389  32.064  43.835  12.034
52575W        W22390  31.086  36.442  11.067
52576W        W22391  26.668   3.850   0.364
52577W        W22392  18.716  17.647  13.849
52578W        W22393   8.706  18.266   4.598
52579W        W22394  21.719  17.574   1.840
52580W        W22395  25.691   7.744   1.822
52581W        W22396  23.558  15.085  13.326
52582W        W22397  17.680   6.302  14.919
52583W        W22398  20.612  43.478  14.459
52584W        W22399  23.090  11.724  14.394
52585W        W22400  39.376   4.907   0.773
52586W        W22401  22.166  25.085   0.275
52587W        W22402  17.111  33.617   1.313
52588W        W22403   7.357  30.128   3.745
52589W        W22404  35.412  31.522  14.294
52590W        W22405  29.101   6.775  10.431
52591W        W22406   1.474   3.947  11.537
52592W        W22407   6.388  33.415   1.924
52593W        W22408   4.818   8.344  10.424
52594W        W22409  33.461   6.226   3.732
52595W        W22410  20.150  29.963  11.946
52596W        W22411  30.516  39.875   4.242
52597W        W22412  13.614   9.670  13.469
52598W        W22413  44.324  28.031  10.937
52599W        W22414  18.136  41.863   0.333
52600W        W22415   6.689  13.744  11.557
52601W        W22416   1.732  36.376   0.400
52602W        W22417  18.568   2.866  14.296
52603W        W22418   5.710   5.199   1.257
52604W        W22419   8.251  22.549  12.576
52605W        W22420  20.708  42.979  14.778
52606W        W22421  39.424   9.662   4.809
52607W        W22422   0.299  10.361  12.536
52608W        W22423  26.158   1.242  14.362
52609W        W22424  34.543  22.543   3.169
52610W        W22425   6.796  25.626  13.817
52611W        W22426  37.420  43.415  14.294
52612W        W22427  24.103  24.532  11.448
52613W        W22428  13.761  16.665  10.415
52614W        W22429  29.636  32.496   3.293
52615W        W22430  21.208  22.047  14.361
52616W        W22431   2.755  17.578   3.351
52617W        W22432  17.731  15.282   2.798
52618W        W22433   5.712  15.197  11.062
52619W        W22434  36.429  34.615   2.230
52620W        W22435  23.051   2.761   3.220
52621W        W22436  41.387  34.953   1.782
52622W        W22437  41.988  11.190  12.434
52623W        W22438   6.708  19.138  11.476
52624W        W22439   6.685  39.839   1.782
52625W        W22440  30.597  28.477   4.605
52626W        W22441  26.129   3.232   2.680
52627W        W22442   2.850  18.617  13.500
52628W        W22443  24.171   7.708  14.410
52629W        W22444  40.047  18.651   4.265
52630W        W22445  28.044  39.018  14.325
52631W        W22446   2.796  34.053   2.842
52632W        W22447  19.725  43.431   5.193
52633W        W22448  18.573   7.832   1.701
52634W        W22449  17.278  11.749   0.958
52635W        W22450  23.987  15.757  13.836
52636W        W22451   9.797   3.359   1.432
52637W        W22452  13.159  20.586   1.392
52638W        W22453  39.060  22.040   1.254
52639W        W22454  34.538  14.830  14.313
52640W        W22455   6.424  25.561   3.365
52641W        W22456  11.622  39.459   2.304
52642W        W22457  24.573  42.798  13.508
52643W        W22458  22.600   7.233   2.337
52644W        W22459  41.489  11.825   1.785
52645W        W22460  30.949  16.317   2.870
52646W        W22461  18.704  13.171  10.570
52647W        W22462  44.945  44.862  14.770
52648W        W22463   0.424  30.983   0.452
52649W        W22464  28.130  17.070  11.034
52650W        W22465  42.978  42.425   4.142
52651W        W22466   4.848  38.042  10.984
52652W        W22467  38.376  17.254  10.478
52653W        W22468  20.099  42.999   3.858
52654W        W22469  11.715  13.350   0.777
52655W        W22470  19.598  11.860  12.523
52656W        W22471   0.311  35.865  11.432
52657W        W22472   8.704  30.083   0.892
52658W        W22473   9.724   6.232  10.931
52659W        W22474  13.617  39.427   1.429
52660W        W22475  24.153  39.535   2.228
52661W        W22476  43.791  43.495   3.386
52662W        W22477  38.880   8.743  13.413
52663W        W22478  43.334  17.128   3.711
52664W        W22479  37.846  13.172   2.399
52665W        W22480  30.641   7.814   0.965
52666W        W22481  30.461  31.114   0.815
52667W        W22482  43.800  18.199   4.611
52668W        W22483  32.558  38.479  10.956
52669W        W22484  21.692  31.060   4.680
52670W        W22485  42.302  14.647   2.754
52671W        W22486  37.402  34.958   0.314
52672W        W22487  23.113  25.114  13.455
52673W        W22488  19.067  19.241  13.918
52674W        W22489   4.708  28.673   2.813
52675W        W22490  36.479  16.089   1.281
52676W        W22491  25.659  35.382   3.210
52677W        W22492  35.601   4.380  11.028
52678W        W22493  41.438  25.979  10.535
52679W        W22494  14.776  11.134   0.950
52680W        W22495  15.250  14.282   0.741
52681W        W22496   8.239  30.925  13.063
52682W        W22497  24.073  16.188  12.911
52683W        W22498   8.183   0.445   4.149
52684W        W22499   8.366  14.116   1.394
52685W        W22500  23.109  41.523   2.719
52686W        W22501  13.287  44.271   3.857
52687W        W22502   6.764  35.531  11.040
52688W        W22503  44.841  13.677   4.294
52689W        W22504  24.157  36.466  13.931
52690W        W22505  10.220  12.131  14.452
52691W        W22506  19.768  13.297  14.474
52692W        W22507  25.199  36.495   2.862
52693W        W22508  19.144  17.562   2.383
52694W        W22509  17.716  16.739   3.758
52695W        W22510  27.527  12.170   3.162
52696W        W22511  17.632  37.971   2.666
52697W        W22512  26.105  20.572   4.217
52698W        W22513  15.253   1.917   3.271
52699W        W22514  10.736  14.692  11.411
52700W        W22515  23.140  29.981  12.447
52701W        W22516  11.254   7.742   4.760
52702W        W22517  31.570  15.164   3.147
52703W        W22518  27.167  10.792  14.420
52704W        W22519  35.946  32.442  13.055
52705W        W22520  29.052   3.836   4.216
52706W        W22521  11.822  36.392  11.409
52707W        W22522  28.667  28.084   0.850
52708W        W22523   7.412   8.247  12.525
52709W        W22524  37.899   2.852  13.486
52710W        W22525  33.611  35.086   0.348
52711W        W22526  11.315  31.948  12.442
52712W        W22527  30.956  33.920  12.871
52713W        W22528   5.728   9.327  12.836
52714W        W22529  34.486  25.714  12.945
52715W        W22530  17.644  25.471  12.055
52716W        W22531  43.769  36.364   3.169
52717W        W22532  26.160  43.397  10.567
52718W        W22533  37.018  13.820  10.896
52719W        W22534   0.351   1.401   0.322
52720W        W22535   0.473  40.318   0.811
52721W        W22536  19.549   7.223  14.993
52722W        W22537  33.066  19.608   1.395
52723W        W22538  24.151   3.830   3.637
52724W        W22539  33.051   9.291  12.033
52725W        W22540  22.194  20.216  11.968
52726W        W22541  40.372  42.437   2.261
52727W        W22542   4.917  19.770  13.372
52728W        W22543  38.363  29.942  13.016
52729W        W22544  17.285   7.715  14.342
52730W        W22545  38.441  38.388   3.279
52731W        W22546  22.228   6.739   0.300
52732W        W22547  36.061  40.329   2.890
52733W        W22548   5.740  14.808  13.053
52734W        W22549   9.252  15.318   1.761
52735W        W22550   8.206  39.016  10.481
52736W        W22551  40.474  34.108  10.485
52737W        W22552  38.477  19.769  14.277
52738W        W22553  12.610  34.031  10.512
52739W        W22554  14.222   1.961  14.446
52740W        W22555  33.393  44.867   1.812
52741W        W22556  37.482  14.258  11.534
52742W        W22557  40.394  32.514  14.464
52743W        W22558  13.177  44.866  13.457
52744W        W22559  18.611  25.563   4.298
52745W        W22560  29.664  10.271   3.807
52746W        W22561  35.372  39.542  11.968
52747W        W22562  27.190  39.875   4.211
52748W        W22563   9.784  31.424   0.274
52749W        W22564  36.568  31.965  13.918
52750W        W22565  10.835  38.526   0.875
52751W        W22566  13.723  28.597   3.368
52752W        W22567  41.492  28.653  10.541
52753W        W22568  21.232  21.644  12.387
52754W        W22569  35.505   0.461  13.928
52755W        W22570  19.661   4.706   2.788
52756W        W22571  39.375  33.573   2.830
52757W        W22572  39.942  36.064  10.493
52758W        W22573  40.851   2.803  10.993
52759W        W22574   1.754  17.300   3.244
52760W        W22575  12.622  27.663  12.454
52761W        W22576  27.022  24.675  14.366
52762W        W22577  42.793  27.125  11.119
52763W        W22578   5.355  38.928  10.014
52764W        W22579  24.045  27.944   9.920
52765W        W22580  26.182  33.957  11.585
52766W        W22581  19.095  25.102  11.916
52767W        W22582  32.517  17.672  13.026
52768W        W22583  34.441  40.423  11.469
52769W        W22584  27.077  18.662   3.810
52770W        W22585  20.558  39.913   0.407
52771W        W22586  10.353  14.244   1.871
52772W        W22587  27.019  36.010  13.939
52773W        W22588  16.710  44.807  12.091
52774W        W22589  32.406  38.021   0.375
52775W        W22590  27.048  12.295   4.259
52776W        W22591  40.859  42.960   3.820
52777W        W22592  11.337   0.760  12.084
52778W        W22593  25.528   7.364   0.795
52779W        W22594  27.953  26.101   1.278
52780W        W22595  42.965  27.572   1.342
52781W        W22596  42.373  16.730   1.800
52782W        W22597  28.049  30.082   3.830
52783W        W22598  14.341   6.797   4.172
52784W        W22599   4.206  15.109   0.445
52785W        W22600   5.809  11.254  13.008
52786W        W22601  29.958  13.295  11.450
52787W        W22602  12.137  32.936   4.233
52788W        W22603  12.685  17.629   3.231
52789W        W22604  13.198  12.180   2.284
52790W        W22605  23.992  16.084  10.087
52791W        W22606  24.011   3.409  10.911
52792W        W22607  11.318   6.695   2.665
52793W        W22608  33.577  16.244   1.330
52794W        W22609  16.275  29.564   1.758
52795W        W22610  26.098   6.746  12.545
52796W        W22611  28.166  19.742   2.194
52797W        W22612  44.319  42.838   0.790
52798W        W22613   8.345  43.824  14.982
52799W        W22614   9.228  42.440  10.995
52800W        W22615  16.615   8.161  12.068
52801W        W22616  26.178  11.191   3.225
52802W        W22617  13.757  39.811  10.455
52803W        W22618   6.826  43.936   1.417
52804W        W22619  11.766  33.921  14.908
52805W        W22620  42.956   7.329   3.658
52806W        W22621  43.466  22.190   4.128
52807W        W22622  34.053  18.612   2.207
52808W        W22623  35.536  20.543  14.994
52809W        W22624  16.266  15.201   1.892
52810W        W22625  28.586  30.528  10.465
52811W        W22626  19.554  13.626   1.926
52812W        W22627  13.656  11.316   4.780
52813W        W22628   9.285  29.559  14.341
52814W        W22629  39.446   9.709  12.884
52815W        W22630  19.751  15.294  14.008
52816W        W22631  15.760  20.126   3.816
52817W        W22632  25.968  33.011   4.786
52818W        W22633  17.612  35.989   1.834
52819W        W22634  26.979  42.871  14.289
52820W        W22635  44.410  23.596  12.545
52821W        W22636  28.662  34.403   2.240
52822W        W22637  27.472  35.444  14.905
52823W        W22638  33.126  43.316  10.587
52824W        W22639  43.308  14.170   2.276
52825W        W22640  36.085  44.385  12.965
52826W        W22641   9.658   5.898   4.206
52827W        W22642  34.370  27.967  10.630
52828W        W22643   1.319   2.415  10.519
52829W        W22644  11.212  19.080   2.817
52830W        W22645  27.061  11.306   2.245
52831W        W22646  22.183  27.944   3.382
52832W        W22647  21.557  30.576   3.753
52833W        W22648  42.449  22.711  10.575
52834W        W22649  40.040   5.724  11.976
52835W        W22650   2.720  17.206  14.793
52836W        W22651  23.201   1.328  12.537
52837W        W22652   8.795  10.239  14.329
52838W        W22653   8.339  41.455   4.649
52839W        W22654  26.702  24.219  14.974
52840W        W22655   1.876  25.130  11.449
52841W        W22656  34.388  30.158  12.507
52842W        W22657   9.863  30.654  13.798
52843W        W22658  25.996  18.608   3.668
52844W        W22659  10.650  24.512   3.386
52845W        W22660  25.549   4.734   1.342
52846W        W22661  23.120  31.545   2.179
52847W        W22662  24.165  14.326   5.271
52848W        W22663  25.000  40.994  14.995
52849W        W22664  26.073  37.516  14.414
52850W        W22665   9.206   2.932  12.500
52851W        W22666   7.680  18.771   1.239
52852W        W22667  26.986  27.157  14.865
52853W        W22668  30.940  15.661  14.855
52854W        W22669  41.334  39.846   1.747
52855W        W22670  41.800  43.861  12.445
52856W        W22671  44.350  22.077  10.507
52857W        W22672  20.530   0.388  11.987
52858W        W22673  34.413  20.613  14.028
52859W        W22674  24.714  20.630  11.036
52860W        W22675  13.255  11.231  12.409
52861W        W22676  10.383   5.296   2.791
52862W        W22677  24.207   2.840  10.526
52863W        W22678  25.130  43.382   3.266
52864W        W22679  17.254  35.568  10.476
52865W        W22680  26.622  31.459   4.672
52866W        W22681  32.932  37.043  14.284
52867W        W22682  36.523   4.832  12.555
52868W        W22683  33.484   4.932  14.026
52869W        W22684  15.252  14.212   4.737
52870W        W22685  35.983  15.779  14.813
52871W        W22686  22.007  13.122  11.942
52872W        W22687  20.146  30.098   4.158
52873W        W22688  42.968  11.231  13.041
52874W        W22689  43.442  40.358  12.396
52875W        W22690  19.202  13.350  13.883
52876W        W22691  31.920   3.922   2.814
52877W        W22692  25.035  15.797  11.460
52878W        W22693  37.857  16.156  11.028
52879W        W22694  22.598  40.343   0.865
52880W        W22695  35.394  16.291   0.866
52881W        W22696  18.240  33.972   3.645
52882W        W22697  33.516   1.910  13.407
52883W        W22698  32.929  18.746   3.736
52884W        W22699  13.211  19.172   2.774
52885W        W22700  17.294  13.253  14.762
52886W        W22701   5.354   4.236  10.463
52887W        W22702  19.106  10.147   3.380
52888W        W22703   7.691  33.098  12.381
52889W        W22704  40.498   0.921  11.117
52890W        W22705  32.587   4.298   0.776
52891W        W22706   1.355  35.584  11.936
52892W        W22707  42.824  26.639   3.688
52893W        W22708  21.658  10.698  11.407
52894W        W22709  20.594  19.719  10.618
52895W        W22710  26.530  37.554   1.242
52896W        W22711  18.633  41.434  12.515
52897W        W22712  31.909  14.182   4.658
52898W        W22713  25.561   7.323  13.962
52899W        W22714  26.990   1.429   0.452
52900W        W22715   6.693  15.238  12.918
52901W        W22716  24.545  14.688   4.599
52902W        W22717  11.230  19.074   3.230
52903W        W22718  41.500   6.250  13.875
52904W        W22719  27.023  19.168   3.155
52905W        W22720  25.562  20.526   4.337
52906W        W22721  24.012  39.536  13.820
52907W        W22722  36.470   9.779   3.693
52908W        W22723  41.329  34.484  13.842
52909W        W22724  33.516   5.223  13.875
52910W        W22725  40.915  23.111   0.406
52911W        W22726  16.122  42.381  12.340
52912W        W22727   4.845   0.821  12.343
52913W        W22728   1.852  21.186   4.631
52914W        W22729  20.691  43.479  14.000
52915W        W22730  11.835  18.640  11.519
52916W        W22731  17.216  33.452  10.917
52917W        W22732  44.423   3.437  12.882
52918W        W22733   6.233  29.000   2.363
52919W        W22734  17.084   3.770  12.345
52920W        W22735  38.991  11.201   1.725
52921W        W22736  16.214   3.426   0.475
52922W        W22737  44.803   9.201   4.674
52923W        W22738  14.704  22.112  13.517
52924W        W22739   3.264  26.506  13.355
52925W        W22740  17.609   9.655  13.906
52926W        W22741  42.916  14.321   5.222
52927W        W22742  11.256   5.285   0.287
52928W        W22743   2.263  18.760   1.279
52929W        W22744  11.645  16.308  12.459
52930W        W22745  23.224   6.371   4.678
52931W        W22746  23.180  19.592   3.849
52932W        W22747  31.089  39.367   4.700
52933W        W22748  22.111  34.063   0.849
52934W        W22749  28.452  40.423   2.751
52935W        W22750  37.861  24.028  13.868
52936W        W22751  42.880  12.617  14.011
52937W        W22752  32.543  41.957   2.282
52938W        W22753  25.140  39.469   1.730
52939W        W22754  44.820  16.580   1.276
52940W        W22755  30.559   8.247  10.614
52941W        W22756  24.198  23.018   0.308
52942W        W22757  42.896  40.036   2.342
52943W        W22758  44.434  13.333  10.975
52944W        W22759  40.974  22.033  12.025
52945W        W22760  32.615  38.439  11.861
52946W        W22761  34.497  32.926   3.291
52947W        W22762  16.670   9.329  14.929
52948W        W22763  25.124   7.909  13.331
52949W        W22764   0.289   3.827  12.422
52950W        W22765  25.620   9.679   0.261
52951W        W22766  24.098   9.211  14.993
52952W        W22767  37.906  31.614   1.213
52953W        W22768  39.539  24.212  12.467
52954W        W22769   6.679   1.976   2.314
52955W        W22770  41.943  11.367   4.796
52956W        W22771  13.845  17.307   2.829
52957W        W22772  20.091   9.771  13.977
52958W        W22773  22.671  26.049  11.018
52959W        W22774  16.083  41.828   2.832
52960W        W22775  11.165  18.088  14.003
52961W        W22776  29.955   9.665   4.643
52962W        W22777  11.354  39.976  11.495
52963W        W22778   8.757  37.835   3.730
52964W        W22779  25.505  16.697   4.672
52965W        W22780  15.249  20.729   0.805
52966W        W22781  22.224  39.432  14.290
52967W        W22782  38.410  16.658   0.390
52968W        W22783  11.699  44.881  11.058
52969W        W22784  41.438  44.977  14.005
52970W        W22785  16.711  10.686  10.471
52971W        W22786  24.203   1.796  14.320
52972W        W22787   6.421  16.211  10.595
52973W        W22788  22.043  35.021  12.371
52974W        W22789  11.800   3.346  13.864
52975W        W22790  32.977   2.281  14.481
52976W        W22791  28.016  35.930  11.017
52977W        W22792  32.633  34.015  11.917
52978W        W22793  40.433  16.765  14.441
52979W        W22794   6.415  34.016   0.837
52980W        W22795   4.749   6.756   3.788
52981W        W22796   4.307   1.838  13.414
52982W        W22797  44.753  37.569   1.785
52983W        W22798  44.860  40.914   0.260
52984W        W22799  29.106  34.940  11.375
52985W        W22800   5.881   9.371   2.336
52986W        W22801   8.165  20.273   0.401
52987W        W22802   6.865  27.127   2.825
52988W        W22803  28.458   5.748  14.486
52989W        W22804   8.199  24.581  14.789
52990W        W22805  13.831  24.978  11.609
52991W        W22806  11.666  30.582  12.348
52992W        W22807  36.570  14.309  14.949
52993W        W22808  38.848  42.926   0.739
52994W        W22809  15.785  14.736   4.310
52995W        W22810  37.549  14.636   1.886
52996W        W22811   1.266  16.293   4.205
52997W        W22812  16.701  18.627   3.156
52998W        W22813  11.623   9.224   4.208
52999W        W22814  15.777  42.339   0.263
53000W        W22815  44.398  20.608  12.574
53001W        W22816  29.160  30.160  11.580
53002W        W22817  20.199  38.476  10.958
53003W        W22818  44.787  20.540   4.149
53004W        W22819  22.644  12.358  10.415
53005W        W22820  42.392  14.607  10.006
53006W        W22821  20.057   7.705  14.790
53007W        W22822  24.166   5.744  14.822
53008W        W22823  12.151  22.670   1.388
53009W        W22824  39.863   0.961   0.292
53010W        W22825  38.999  40.034   2.856
53011W        W22826  43.362  31.608  13.548
53012W        W22827  44.830  26.109   2.313
53013W        W22828  42.913   2.421   1.261
53014W        W22829  37.527  43.457  11.952
53015W        W22830  29.972  12.715   0.755
53016W        W22831   0.845  25.642   1.399
53017W        W22832  16.080  39.402  11.412
53018W        W22833  38.465  44.949   0.932
53019W        W22834  10.737  35.025   2.292
53020W        W22835  23.025   6.694   3.204
53021W        W22836  19.760  10.666  14.958
53022W        W22837  19.729  30.619   4.238
53023W        W22838  14.798  30.914   2.286
53024W        W22839  14.688  16.719   4.673
53025W        W22840  18.076   6.902  14.318
53026W        W22841  22.639  12.666  14.929
53027W        W22842  32.473  17.206  11.102
53028W        W22843  11.794  22.571   0.289
53029W        W22844  29.474  35.495   2.729
53030W        W22845   0.776  24.663   3.673
53031W        W22846   3.907  36.530  12.538
53032W        W22847  25.153  31.492   4.743
53033W        W22848  21.056   7.205   0.315
53034W        W22849  24.692  10.635  14.878
53035W        W22850   7.797  43.969  13.403
53036W        W22851  29.570  21.189   2.698
53037W        W22852  20.090   8.865  12.574
53038W        W22853   9.754  22.111  11.112
53039W        W22854  31.970   6.411   3.183
53040W        W22855  37.366   1.854   1.865
53041W        W22856  30.138  36.364  11.857
53042W        W22857  23.547  31.930  12.905
53043W        W22858   3.726   2.366  14.430
53044W        W22859  24.631  38.070   2.234
53045W        W22860  14.609  21.678  11.500
53046W        W22861  42.315  14.096  10.109
53047W        W22862  43.482  32.026   4.234
53048W        W22863   4.864  38.854   4.771
53049W        W22864   9.806  23.618  10.544
53050W        W22865  39.464  25.141  12.375
53051W        W22866  39.434  39.045  12.495
53052W        W22867  42.305  14.829  13.055
53053W        W22868  29.972  28.046   4.152
53054W        W22869  27.587  24.225  14.311
53055W        W22870  31.024  33.613  11.528
53056W        W22871  37.858  39.325   3.335
53057W        W22872  16.215  30.140  12.072
53058W        W22873  17.765  18.744   2.245
53059W        W22874  44.264  30.544  13.840
53060W        W22875  38.376  32.506  10.403
53061W        W22876  30.643   3.357   4.731
53062W        W22877   4.863  40.037  13.324
53063W        W22878  26.151  17.797   2.242
53064W        W22879  36.513  37.443  14.976
53065W        W22880  16.664  37.445   3.675
53066W        W22881   6.197  40.334   2.802
53067W        W22882   9.375   5.309   1.232
53068W        W22883  25.478  17.655   1.731
53069W        W22884  22.713  15.639   2.345
53070W        W22885  42.910  38.031  14.307
53071W        W22886  18.640  15.676   4.656
53072W        W22887   6.789   0.910  10.561
53073W        W22888  42.417   9.661   1.706
53074W        W22889  21.062  21.562   1.736
53075W        W22890   2.956  14.770  14.823
53076W        W22891   7.730  12.843  13.975
53077W        W22892  40.894  16.635  11.024
53078W        W22893  12.215  24.703   2.285
53079W        W22894   7.250   6.845   4.276
53080W        W22895   4.329  41.892   1.698
53081W        W22896  32.579  32.025   1.920
53082W        W22897  16.587  38.881  13.801
53083W        W22898   4.305  40.923   2.842
53084W        W22899  27.474  19.241   0.382
53085W        W22900  20.047  21.092  10.901
53086W        W22901  31.090  15.660   2.860
53087W        W22902  18.239  32.972   1.825
53088W        W22903  12.213  22.164  11.117
53089W        W22904  44.412  42.520  11.011
53090W        W22905   6.759  38.897   3.282
53091W        W22906  44.878   0.490   4.247
53092W        W22907  28.064  31.477  12.964
53093W        W22908  26.502  21.256   1.398
53094W        W22909  36.919  44.377   3.666
53095W        W22910   8.689  41.418   0.772
53096W        W22911   8.820  36.016  11.120
53097W        W22912  35.897  33.409  13.931
53098W        W22913   1.950  42.284  13.060
53099W        W22914  17.613  33.413   2.352
53100W        W22915   3.715  43.889  10.995
53101W        W22916  19.572  30.009  13.044
53102W        W22917  16.749   0.871  10.455
53103W        W22918  16.190  35.409   0.932
53104W        W22919  25.561  17.693   2.284
53105W        W22920  41.471  38.476  13.460
53106W        W22921  13.662  44.839  11.380
53107W        W22922   9.876  29.173   3.727
53108W        W22923  41.411   3.418   1.719
53109W        W22924  30.493  19.561   0.851
53110W        W22925  13.172  38.914  11.440
53111W        W22926  44.848   4.735   4.733
53112W        W22927  33.877   0.963   0.373
53113W        W22928  19.159  36.936  11.885
53114W        W22929   4.934   7.351   4.741
53115W        W22930  38.831  13.319   4.323
53116W        W22931   4.284  23.163  12.837
53117W        W22932  31.927  35.504  12.027
53118W        W22933  42.369  20.529  10.901
53119W        W22934   2.917  17.585  14.779
53120W        W22935  16.110  33.914  12.385
53121W        W22936   2.444  16.702  13.527
53122W        W22937  36.455  13.226  12.977
53123W        W22938  42.844  37.842   1.716
53124W        W22939  23.565  19.672   5.782
53125W        W22940  43.828  39.491   2.764
53126W        W22941  30.986  30.555   0.416
53127W        W22942  14.311  27.562  12.015
53128W        W22943  14.194  39.022  14.396
53129W        W22944  16.302  36.578   0.785
53130W        W22945  39.508   2.457   2.201
53131W        W22946  33.521  27.011  14.397
53132W        W22947  17.278  40.995   2.342
53133W        W22948  32.979  16.737   1.850
53134W        W22949   5.920   0.787   1.927
53135W        W22950  39.331  25.995  13.486
53136W        W22951   1.409  40.522   0.462
53137W        W22952  14.096  11.646   3.379
53138W        W22953  16.628  28.947   3.253
53139W        W22954  29.499  19.227   1.798
53140W        W22955   7.265  34.027  12.830
53141W        W22956  27.159  22.234  11.413
53142W        W22957  44.287   3.833  13.532
53143W        W22958  24.016  17.798   2.727
53144W        W22959  37.931  23.067  14.435
53145W        W22960  21.158  26.207   1.249
53146W        W22961  39.942  26.535  10.446
53147W        W22962  19.736  26.537  11.918
53148W        W22963  26.514  15.223  12.401
53149W        W22964  15.791   6.220  10.966
53150W        W22965  21.214   1.479  10.489
53151W        W22966  38.046   7.409  14.385
53152W        W22967   4.905  13.653   1.386
53153W        W22968  44.920  23.631   1.788
53154W        W22969   5.407  26.703  14.881
53155W        W22970  10.153  20.047   2.668
53156W        W22971   8.342  26.184  11.894
53157W        W22972  32.534  41.016   4.285
53158W        W22973  13.250  32.105   2.773
53159W        W22974  13.282  32.046  11.092
53160W        W22975   1.871  25.568   2.768
53161W        W22976  24.516  12.189   2.294
53162W        W22977  11.622   6.803   3.773
53163W        W22978  29.580  23.226   3.698
53164W        W22979  32.570  20.202  10.474
53165W        W22980  44.502  29.527  13.371
53166W        W22981  44.346  44.470   4.773
53167W        W22982  38.974  41.399  14.873
53168W        W22983   4.414  13.265   4.297
53169W        W22984  26.980  29.466  14.495
53170W        W22985   8.275  23.023   4.757
53171W        W22986   4.719  42.997   2.319
53172W        W22987   0.265  40.422   2.373
53173W        W22988   5.439  40.921   1.728
53174W        W22989  17.569  43.855  12.845
53175W        W22990  42.484  19.146  13.314
53176W        W22991  29.126  41.377  10.425
53177W        W22992  21.547  44.956  14.490
53178W        W22993  23.639  23.537   0.339
53179W        W22994  33.383  10.281   0.820
53180W        W22995  37.894   4.926   3.179
53181W        W22996  30.143  28.976   0.393
53182W        W22997  13.268  13.790  12.371
53183W        W22998  27.493  10.634   3.691
53184W        W22999  18.233  11.333   2.321
53185W        W23000  38.553  44.325   0.874
53186W        W23001  12.358  19.691   2.181
53187W        W23002  40.496  28.534   0.757
53188W        W23003  37.863   9.284  14.287
53189W        W23004  22.681   7.696  11.010
53190W        W23005  36.467  21.612  14.316
53191W        W23006   5.300   3.904  14.510
53192W        W23007   0.410   5.306  11.981
53193W        W23008  18.112  39.835  11.027
53194W        W23009  34.391  34.982  14.474
53195W        W23010  11.723  11.742   0.855
53196W        W23011  37.337  40.421   0.440
53197W        W23012   8.403  27.159   3.377
53198W        W23013  38.411   9.685   0.410
53199W        W23014  44.846  42.961   3.348
53200W        W23015  17.283   3.336   3.183
53201W        W23016  19.734  15.141  13.510
53202W        W23017   6.331   4.271   3.649
53203W        W23018  34.526  32.505  11.105
53204W        W23019  31.569  15.759   1.410
53205W        W23020  18.554  33.488  11.080
53206W        W23021   9.249  31.930  14.900
53207W        W23022   7.727  44.369   0.911
53208W        W23023  33.458  20.227   0.355
53209W        W23024  44.990  11.193  14.283
53210W        W23025   0.827   7.339  12.068
53211W        W23026  32.540  16.125   4.345
53212W        W23027  44.455  29.139  13.326
53213W        W23028  44.279  33.019   3.328
53214W        W23029  24.496  24.152  14.363
53215W        W23030  23.229  16.660   3.851
53216W        W23031   1.879   8.303  13.409
53217W        W23032   3.806  29.634  11.611
53218W        W23033  16.686   3.383  11.912
53219W        W23034  41.504  36.024   4.226
53220W        W23035  18.675  24.992  13.415
53221W        W23036  33.022   5.277  10.434
53222W        W23037  30.927  27.677   1.274
53223W        W23038  24.996  26.678   0.818
53224W        W23039  16.576  40.046  12.071
53225W        W23040  44.376   1.391  14.852
53226W        W23041  24.203   0.455  10.907
53227W        W23042  12.837  22.501  10.595
53228W        W23043  42.789  28.948   1.825
53229W        W23044  36.518  25.980  13.909
53230W        W23045  38.853  20.692  14.868
53231W        W23046   0.881  33.058  13.433
53232W        W23047   0.297  11.831   1.904
53233W        W23048  32.046  31.588   4.122
53234W        W23049   0.284  38.008   0.841
53235W        W23050  36.961  33.626   1.387
53236W        W23051  28.634  33.403   2.395
53237W        W23052   9.672  15.730  12.862
53238W        W23053  29.508   1.857   0.944
53239W        W23054  29.426  14.287  11.454
53240W        W23055  25.714  41.449  12.096
53241W        W23056   5.347  11.348  12.951
53242W        W23057  33.407  26.469  11.089
53243W        W23058   2.728  38.010   1.269
53244W        W23059  14.114  19.562  14.437
53245W        W23060  39.314  11.207  13.394
53246W        W23061  14.242  32.036  10.898
53247W        W23062  25.147  41.035   1.819
53248W        W23063  21.694   5.888   1.733
53249W        W23064  37.960  25.213   0.360
53250W        W23065   0.748   0.931  13.508
53251W        W23066  34.959  42.297  10.620
53252W        W23067  15.113  22.725   2.305
53253W        W23068  28.674   9.728  11.444
53254W        W23069   4.927  25.195   4.735
53255W        W23070   4.901  31.941   0.853
53256W        W23071  30.925  37.003   4.127
53257W        W23072  23.573  17.728  11.035
53258W        W23073  31.939   0.321   2.788
53259W        W23074   7.251  31.443  13.394
53260W        W23075  28.440  36.431   1.215
53261W        W23076  30.159  29.944  14.816
53262W        W23077   0.857  39.320  14.330
53263W        W23078  35.872  30.125  12.880
53264W        W23079  42.954  36.495   3.701
53265W        W23080  31.933  35.891  12.960
53266W        W23081  22.701  25.079  10.487
53267W        W23082  28.119  23.533   4.609
53268W        W23083   1.240  12.314  13.026
53269W        W23084   1.944  43.805   4.273
53270W        W23085  27.684  41.989   2.189
53271W        W23086  36.052  14.651  11.520
53272W        W23087  13.350   0.475  10.498
53273W        W23088  11.815  39.510  11.501
53274W        W23089  32.902  25.517  14.387
53275W        W23090  31.025  18.087   1.295
53276W        W23091  24.227  37.346   0.439
53277W        W23092   5.309  40.483  13.861
53278W        W23093  16.710  26.954   3.349
53279W        W23094   5.802  44.910  14.290
53280W        W23095   3.788   0.800  14.927
53281W        W23096  30.032  17.649  11.952
53282W        W23097  34.382  11.364   4.208
53283W        W23098  16.596  33.500  11.509
53284W        W23099  37.453  36.090  14.913
53285W        W23100  23.053  11.286  14.338
53286W        W23101  26.171   6.235   3.290
53287W        W23102  11.714  43.869   2.330
53288W        W23103   8.332  16.287  11.032
53289W        W23104  28.094  24.977   4.179
53290W        W23105  12.249  19.213  14.502
53291W        W23106  11.735  20.238  11.102
53292W        W23107  16.300   1.348  11.944
53293W        W23108  23.154   5.913   0.769
53294W        W23109  13.694  27.043  14.298
53295W        W23110   9.739  14.829   1.253
53296W        W23111   2.438  10.356  10.039
53297W        W23112   0.338  20.215  14.991
53298W        W23113  18.271  43.435  11.000
53299W        W23114  16.676  36.021  11.066
53300W        W23115  10.292   5.725   0.890
53301W        W23116  40.957  36.370   1.283
53302W        W23117  38.350   3.345  11.101
53303W        W23118  27.157   5.900   1.391
53304W        W23119  14.168   5.319   1.881
53305W        W23120  26.470  15.692  14.439
53306W        W23121  14.626   0.348   2.182
53307W        W23122  43.291  29.441   0.951
53308W        W23123   1.850   7.174   3.857
53309W        W23124  11.338  12.726  11.996
53310W        W23125   3.420  17.163   0.857
53311W        W23126  37.500  40.316   0.875
53312W        W23127  41.031  14.203   1.450
53313W        W23128  43.902  39.042  11.099
53314W        W23129  34.508  37.421   3.737
53315W        W23130  20.628   2.265   3.358
53316W        W23131  30.430   3.461  11.511
53317W        W23132  44.931  16.236   3.350
53318W        W23133  21.597  12.149   3.701
53319W        W23134   9.346  39.033   4.290
53320W        W23135  25.126  41.017  10.154
53321W        W23136  22.101  26.510  10.639
53322W        W23137   3.341   1.778  14.776
53323W        W23138   1.976  20.061   2.798
53324W        W23139  18.591  33.064   1.303
53325W        W23140  32.494  20.049   2.720
53326W        W23141  23.526   1.760   4.661
53327W        W23142  32.985   2.262  13.518
53328W        W23143   2.469  16.671   1.231
53329W        W23144   4.285  33.534  11.454
53330W        W23145  15.225  17.135  12.392
53331W        W23146  34.112  35.443  14.361
53332W        W23147   5.728  33.914   3.287
53333W        W23148  35.602   0.808   2.334
53334W        W23149   2.430  12.620  14.945
53335W        W23150  28.104   8.218   4.605
53336W        W23151  17.175   0.833   4.217
53337W        W23152  28.527  27.474  13.916
53338W        W23153   9.181  22.552  14.783
53339W        W23154  20.669   8.211  13.012
53340W        W23155  36.860   2.288   1.245
53341W        W23156  44.487  30.565  14.769
53342W        W23157   2.327  29.958   2.277
53343W        W23158  42.818  31.433   0.311
53344W        W23159   4.847  28.441  13.442
53345W        W23160  17.569   6.187   2.285
53346W        W23161  35.858  27.089   0.380
53347W        W23162  14.799  10.634   0.737
53348W        W23163  36.063  37.019   3.156
53349W        W23164  19.047  14.241  12.936
53350W        W23165  18.754  41.818  12.033
53351W        W23166  39.995  23.033  14.831
53352W        W23167   8.389  38.893   0.436
53353W        W23168   5.778  39.493   4.650
53354W        W23169  36.396  29.573  14.391
53355W        W23170   5.925  40.988  14.924
53356W        W23171  39.361  22.520  11.897
53357W        W23172  29.028  41.922   0.320
53358W        W23173  37.017  44.461   3.313
53359W        W23174  12.202  31.898   1.368
53360W        W23175  19.767   8.807   4.203
53361W        W23176   1.824  20.587  11.879
53362W        W23177  38.855   4.366   0.415
53363W        W23178  34.007  27.673   0.814
53364W        W23179  41.511  24.147  13.349
53365W        W23180  20.074   1.265  10.511
53366W        W23181  40.973  37.523   4.624
53367W        W23182  23.177   5.340   2.805
53368W        W23183  23.093  34.888   2.690
53369W        W23184  32.512  30.136   2.716
53370W        W23185  13.131  41.002  10.480
53371W        W23186  14.834   2.422   1.293
53372W        W23187  33.105  14.326  12.419
53373W        W23188  26.553  30.072  11.088
53374W        W23189  12.770  39.969   0.278
53375W        W23190  43.433   5.757  13.796
53376W        W23191  39.557  13.795  13.924
53377W        W23192  12.616  29.463  14.496
53378W        W23193  35.099  20.251   3.862
53379W        W23194  34.604   6.370  14.304
53380W        W23195   0.298   8.253   4.602
53381W        W23196  28.581   3.954   1.700
53382W        W23197  27.113  18.772  14.885
53383W        W23198  38.992   0.248  12.843
53384W        W23199   2.856  19.570   1.426
53385W        W23200  26.456  24.621  13.823
53386W        W23201  33.893  43.904   0.888
53387W        W23202   1.410  19.710  14.396
53388W        W23203  26.167   9.211   0.351
53389W        W23204  19.690  21.137   2.889
53390W        W23205  33.053  13.843   0.734
53391W        W23206   5.327  41.397   4.223
53392W        W23207  43.963   6.276  11.383
53393W        W23208  17.177  42.521  11.436
53394W        W23209   7.816  41.044   2.287
53395W        W23210   7.813  25.030   2.275
53396W        W23211  21.230  41.802  11.967
53397W        W23212  38.069  27.511   2.380
53398W        W23213  42.508  33.946   2.690
53399W        W23214  12.237  25.997   1.929
53400W        W23215  23.009  16.269  13.541
53401W        W23216  12.302  20.122   3.184
53402W        W23217  10.208  14.310  10.978
53403W        W23218   3.858  14.225  14.352
53404W        W23219  32.624  42.017  11.556
53405W        W23220  12.690  39.461   4.628
53406W        W23221  24.071  19.182   2.733
53407W        W23222  24.157  30.617  10.962
53408W        W23223  42.995  39.357  12.903
53409W        W23224  32.506  30.928   0.398
53410W        W23225  24.204  11.813   4.805
53411W        W23226  13.157  18.172  13.398
53412W        W23227  42.405  14.310  13.828
53413W        W23228   0.276  19.695   0.261
53414W        W23229  35.423  28.075  11.397
53415W        W23230  10.211  32.441   0.325
53416W        W23231  18.188  27.996   1.370
53417W        W23232  24.062  26.630   3.778
53418W        W23233  16.122  39.919   2.265
53419W        W23234   7.407  13.255   4.237
53420W        W23235   2.352   6.413   0.890
53421W        W23236   4.803  35.604  14.998
53422W        W23237  27.954  21.732   3.840
53423W        W23238   6.318  41.500  11.420
53424W        W23239  25.030  12.237  13.936
53425W        W23240  11.142   3.891   0.849
53426W        W23241  28.605   1.472   2.295
53427W        W23242  15.605  19.768  11.524
53428W        W23243  34.004  27.067   1.734
53429W        W23244  26.525  35.383  13.048
53430W        W23245  41.521  32.095  11.577
53431W        W23246  10.372  27.541   0.743
53432W        W23247  41.361  22.590   3.360
53433W        W23248  38.481  11.220  11.555
53434W        W23249  37.379  15.625   2.860
53435W        W23250  23.014   4.796  14.394
53436W        W23251  30.149   9.809  14.876
53437W        W23252  29.092  37.395   4.656
53438W        W23253  38.568  35.026   0.884
53439W        W23254  19.072  42.484   4.708
53440W        W23255   4.923  44.792   1.337
53441W        W23256  14.614  40.889  14.890
53442W        W23257  34.032   7.293  10.508
53443W        W23258  29.461  17.303  12.510
53444W        W23259  44.395  17.576   3.709
53445W        W23260  13.677  19.066  13.898
53446W        W23261  13.667  14.730   2.397
53447W        W23262  21.139   7.853  12.513
53448W        W23263  11.831  44.432  11.928
53449W        W23264  26.203  25.537  14.867
53450W        W23265   2.945  28.465  10.556
53451W        W23266  44.988  16.108   0.899
53452W        W23267  40.041  33.507   4.320
53453W        W23268   0.443  37.833  10.415
53454W        W23269   3.946  27.115   3.839
53455W        W23270  29.505   9.664   3.240
53456W        W23271  36.476  34.903   2.231
53457W        W23272  22.550  41.455  14.420
53458W        W23273  23.069   3.245  14.382
53459W        W23274  36.026  42.780  12.479
53460W        W23275  13.755  16.108  11.506
53461W        W23276  30.127  34.389   0.837
53462W        W23277  11.676  10.147  13.973
53463W        W23278  13.237  20.145  12.359
53464W        W23279   5.870  43.850   0.426
53465W        W23280  34.371   3.840   2.780
53466W        W23281  23.098  34.898  11.497
53467W        W23282   6.228  15.092  11.419
53468W        W23283   1.934  43.352   3.736
53469W        W23284  39.911  11.795  12.058
53470W        W23285   1.933  35.547   2.783
53471W        W23286  37.468  33.508   1.324
53472W        W23287  15.608   9.795  13.917
53473W        W23288  31.957  31.932   3.267
53474W        W23289   9.676  16.179   3.157
53475W        W23290  25.546  11.672   2.184
53476W        W23291  33.602  37.081   2.179
53477W        W23292  22.189  18.201  14.379
53478W        W23293  38.473  21.649   4.329
53479W        W23294  42.436  28.481  10.498
53480W        W23295  28.148  33.525  14.299
53481W        W23296  43.376   6.241  13.327
53482W        W23297  34.603  39.442  13.057
53483W        W23298  33.490  14.776   4.251
53484W        W23299  29.543  42.349   2.773
53485W        W23300  21.531   7.184   1.745
53486W        W23301  25.120  40.523   9.559
53487W        W23302  23.616  37.962  11.580
53488W        W23303   2.741  28.178   4.714
53489W        W23304  33.104  23.630   2.890
53490W        W23305  27.948  32.494   1.330
53491W        W23306  31.553  26.987   3.238
53492W        W23307  43.303   4.241  13.818
53493W        W23308  11.844  43.783  10.611
53494W        W23309  12.841  24.205  11.051
53495W        W23310  14.834  42.942  13.017
53496W        W23311  41.329  37.047  12.558
53497W        W23312  23.057   6.291  11.514
53498W        W23313   9.259  37.926  13.802
53499W        W23314  16.709   2.778   2.763
53500W        W23315  39.818  41.800   4.257
53501W        W23316  28.644  25.045   4.679
53502W        W23317  31.094  28.649  12.094
53503W        W23318  35.035  18.087   2.740
53504W        W23319  16.113  28.029   3.341
53505W        W23320  17.136  16.697  12.859
53506W        W23321  30.568  21.219  12.411
53507W        W23322  44.866   1.742  12.848
53508W        W23323  23.674  37.365   1.218
53509W        W23324   6.187  16.650   2.760
53510W        W23325  18.632  24.079  14.426
53511W        W23326  22.137  18.197   2.761
53512W        W23327  15.731  41.846   4.834
53513W        W23328  34.115  14.293  14.808
53514W        W23329  38.841  25.095  11.108
53515W        W23330  31.553  33.421  12.531
53516W        W23331  12.184   9.828   1.830
53517W        W23332  30.079  31.034   1.436
53518W        W23333  18.271  33.895  14.318
53519W        W23334  22.647  21.569   1.879
53520W        W23335  13.211  35.543  13.336
53521W        W23336   2.896  20.132   1.214
53522W        W23337  13.307   6.321   4.218
53523W        W23338   1.883  17.201  14.928
53524W        W23339   6.403  32.048  13.471
53525W        W23340  37.582  41.491   4.601
53526W        W23341   3.336  37.391  11.064
53527W        W23342  16.226  16.274  11.900
53528W        W23343  19.244  15.750   4.650
53529W        W23344  37.898  22.215   2.797
53530W        W23345   7.183  28.049   4.176
53531W        W23346   1.749  31.408   3.823
53532W        W23347  31.903   2.939   2.709
53533W        W23348  18.643  10.161  11.908
53534W        W23349  34.067  40.934  10.991
53535W        W23350  22.730  36.401   0.460
53536W        W23351  37.999  44.964  14.477
53537W        W23352   7.282  40.048  12.950
53538W        W23353  12.641  22.705  12.932
53539W        W23354  15.265  27.105   3.298
53540W        W23355  28.112   0.395  12.517
53541W        W23356  22.069  40.495  11.571
53542W        W23357  42.293  17.177   2.753
53543W        W23358  25.138   9.794  11.881
53544W        W23359  21.732   1.748   1.753
53545W        W23360   1.968  20.121   4.316
53546W        W23361  44.384  30.514   2.789
53547W        W23362  31.579  32.432  14.777
53548W        W23363   6.685  22.657   3.741
53549W        W23364  32.007  38.522   3.277
53550W        W23365   4.823  29.029   0.385
53551W        W23366  44.840  29.041  14.789
53552W        W23367   7.242  16.572  14.287
53553W        W23368  28.645  40.338  12.018
53554W        W23369  29.995  36.533   1.392
53555W        W23370   5.697   0.264  12.042
53556W        W23371  43.992   4.416   0.890
53557W        W23372  21.067   1.380  13.820
53558W        W23373  17.249  22.613  13.865
53559W        W23374  31.631   4.233  12.465
53560W        W23375  43.467  31.447  11.503
53561W        W23376  10.820  35.581  12.088
53562W        W23377   1.894  26.557  11.940
53563W        W23378  26.693   9.170   2.386
53564W        W23379  33.563   7.183   2.758
53565W        W23380  27.943  11.298   2.277
53566W        W23381  35.007  27.987   5.194
53567W        W23382  30.455   9.827  11.503
53568W        W23383  37.351   4.293   2.307
53569W        W23384  11.269  44.290  11.909
53570W        W23385   9.377  34.880   1.429
53571W        W23386   1.976  43.867   0.247
53572W        W23387  25.094  11.629  13.986
53573W        W23388  14.684  13.644  13.338
53574W        W23389  28.642  36.033  10.626
53575W        W23390  36.992  27.963  12.939
53576W        W23391  26.618  15.796   5.159
53577W        W23392  31.107  26.658   0.739
53578W        W23393  31.960  27.049   3.828
53579W        W23394  18.197  31.114  11.075
53580W        W23395  22.041   3.352   0.908
53581W        W23396  18.111  36.946  11.511
53582W        W23397  33.401   4.214  14.892
53583W        W23398  22.221  26.627   2.757
53584W        W23399  23.239  35.601  14.967
53585W        W23400  28.186  26.157  10.557
53586W        W23401  43.016  12.628  11.039
53587W        W23402  27.948  21.677  10.971
53588W        W23403  30.972  13.201  12.488
53589W        W23404  10.280  40.407   2.415
53590W        W23405  41.924  26.661   1.431
53591W        W23406  20.623  23.622  11.904
53592W        W23407  30.079  26.156  12.910
53593W        W23408  33.612  41.872   3.326
53594W        W23409  15.253  41.535   1.373
53595W        W23410  44.795  23.731  13.327
53596W        W23411   5.838  22.592  13.855
53597W        W23412  42.803  26.672   2.303
53598W        W23413  43.006  19.090   4.612
53599W        W23414  33.496  15.738  10.158
53600W        W23415  19.189  39.020  12.994
53601W        W23416  11.264  44.793  11.571
53602W        W23417   0.778  21.193  10.034
53603W        W23418  11.840  42.929  13.363
53604W        W23419  14.746   8.388   4.254
53605W        W23420  23.105   0.901  13.919
53606W        W23421  37.398  30.089  14.313
53607W        W23422   0.927   4.420  10.470
53608W        W23423  20.597  20.234  14.892
53609W        W23424  10.275  29.133  10.988
53610W        W23425  10.264  41.016  13.398
53611W        W23426  17.244  23.549   2.238
53612W        W23427   3.751  36.844  10.442
53613W        W23428  18.105  40.981  11.424
53614W        W23429   2.341  39.472  14.416
53615W        W23430  16.657  42.436   0.894
53616W        W23431   8.759  19.119   2.826
53617W        W23432   1.436  40.340   4.691
53618W        W23433  11.692  11.191   1.854
53619W        W23434   9.690  12.295   2.384
53620W        W23435  18.754  21.754   0.265
53621W        W23436   8.367  31.413   0.373
53622W        W23437  10.765   3.357  11.875
53623W        W23438   0.988  15.223  10.620
53624W        W23439  26.978  21.130  11.492
53625W        W23440  40.389  16.165  11.112
53626W        W23441  32.955  43.896   0.466
53627W        W23442  38.554  13.786  14.456
53628W        W23443  41.388  42.882   2.803
53629W        W23444  28.962  25.071  10.615
53630W        W23445  41.972   2.795  11.901
53631W        W23446  34.968  31.106  11.867
53632W        W23447  17.652  17.190  11.949
53633W        W23448  44.753   5.908   2.252
53634W        W23449  13.600  19.150   2.750
53635W        W23450  44.377  20.727  14.398
53636W        W23451  31.513   9.882  14.315
53637W        W23452   2.768  13.750   4.310
53638W        W23453  44.005   6.756  12.968
53639W        W23454  10.343  30.127  11.047
53640W        W23455  35.514  37.386   1.826
53641W        W23456  24.560   8.683  13.500
53642W        W23457   0.367  15.296  11.540
53643W        W23458  10.770  26.007   2.326
53644W        W23459  28.473  17.228  12.031
53645W        W23460  41.983   1.468  12.944
53646W        W23461  41.827  29.459  13.896
53647W        W23462  29.513  38.042   2.227
53648W        W23463   2.462   0.279   2.777
53649W        W23464  15.655   0.277   0.736
53650W        W23465  32.002  18.154  13.060
53651W        W23466  19.285  18.550  14.007
53652W        W23467  21.028  13.197  14.487
53653W        W23468  24.568   0.905   2.893
53654W        W23469  24.224  44.788  12.058
53655W        W23470  11.709  36.006  11.893
53656W        W23471  32.398  23.075  13.863
53657W        W23472  35.525  27.034  10.625
53658W        W23473  22.689   0.356  12.532
53659W        W23474   3.410  34.944  10.589
53660W        W23475  33.077  35.370  11.937
53661W        W23476  42.970   9.806   3.255
53662W        W23477  17.641  27.065   2.794
53663W        W23478  22.244  13.153  13.439
53664W        W23479  27.621   1.251  13.827
53665W        W23480  25.517   4.281   3.179
53666W        W23481  16.749   6.320   2.413
53667W        W23482   6.784  23.986  10.539
53668W        W23483   0.848  44.276   2.387
53669W        W23484  27.574   4.731  11.855
53670W        W23485  27.572   2.323   3.381
53671W        W23486  28.989  27.091   1.795
53672W        W23487   0.282  36.906  12.474
53673W        W23488   4.699  29.125   4.611
53674W        W23489  16.703  34.428   3.842
53675W        W23490  16.709  17.726  10.977
53676W        W23491   0.962  44.297   2.888
53677W        W23492  31.445  12.265  10.625
53678W        W23493  16.158   0.840  13.936
53679W        W23494  22.604   4.942   5.094
53680W        W23495   4.240  34.096  11.538
53681W        W23496   9.192  32.503   4.274
53682W        W23497  20.621   8.791  12.418
53683W        W23498   5.434  15.819  12.020
53684W        W23499  12.224  11.338   1.421
53685W        W23500  22.670  34.889  10.927
53686W        W23501   7.795  16.766   0.246
53687W        W23502  21.235  20.543   0.346
53688W        W23503   1.899  41.978   5.136
53689W        W23504  35.515   5.862   1.263
53690W        W23505  15.685  15.785  14.842
53691W        W23506   9.235  15.764   4.703
53692W        W23507  23.630  18.555   3.824
53693W        W23508   9.195  25.982  14.398
53694W        W23509  14.685  43.846   4.731
53695W        W23510   8.182  40.908  14.790
53696W        W23511  10.303  14.778  11.412
53697W        W23512  44.906  36.356  13.486
53698W        W23513  22.527  44.932   5.172
53699W        W23514  24.608   1.417  14.773
53700W        W23515  28.973   1.819  12.579
53701W        W23516  34.971  42.904   9.986
53702W        W23517  31.004  28.449   4.253
53703W        W23518  37.417  17.569  13.922
53704W        W23519  20.134  37.971  13.945
53705W        W23520  43.873  16.217   3.641
53706W        W23521  10.305  37.071  12.563
53707W        W23522  29.471   9.337  11.101
53708W        W23523  12.655  43.372   3.795
53709W        W23524  16.714  21.244  14.313
53710W        W23525  39.403  40.472   3.792
53711W        W23526  31.422  33.518  12.963
53712W        W23527  34.940  39.923  14.386
53713W        W23528  21.211  21.558  11.428
53714W        W23529  29.504  32.119   2.204
53715W        W23530  35.913  30.133   1.241
53716W        W23531  33.574  32.443  14.798
53717W        W23532   1.278  27.597  14.032
53718W        W23533   0.772  35.950   2.764
53719W        W23534  38.076   1.841  13.832
53720W        W23535  39.930  33.523  10.491
53721W        W23536  33.429  16.222   3.737
53722W        W23537  14.614  26.989  13.385
53723W        W23538  26.149   9.318   1.272
53724W        W23539  35.506  40.442  11.475
53725W        W23540  20.242  34.079   1.282
53726W        W23541   6.720  11.671   0.758
53727W        W23542   5.708  30.433  10.623
53728W        W23543   7.898  38.867   3.252
53729W        W23544  25.472  23.138   3.633
53730W        W23545   4.786  36.349  14.817
53731W        W23546  35.109  44.420  14.286
53732W        W23547  13.746  32.103   1.874
53733W        W23548   3.940  16.600  12.462
53734W        W23549  26.549  39.014  13.940
53735W        W23550  11.240  27.506  10.599
53736W        W23551  20.249  37.855  13.494
53737W        W23552  19.204  14.738   2.777
53738W        W23553  36.004  13.196   3.697
53739W        W23554  16.116  24.614  11.605
53740W        W23555  34.589   5.857   3.276
53741W        W23556   8.298  14.296   3.304
53742W        W23557  18.766  39.386   3.208
53743W        W23558  43.360  42.869   2.308
53744W        W23559  16.670  27.673  11.414
53745W        W23560  10.721   9.330  11.935
53746W        W23561   4.752  27.045   1.880
53747W        W23562  25.081   6.318  14.013
53748W        W23563  29.465   7.669  10.643
53749W        W23564  25.064  12.618  12.437
53750W        W23565   0.369   7.246   1.774
53751W        W23566  27.027  24.128   4.266
53752W        W23567  31.042   3.426   4.119
53753W        W23568  24.202  27.982   0.908
53754W        W23569  36.958  40.481   3.258
53755W        W23570   0.962  12.808  11.528
53756W        W23571   1.802  28.949  12.507
53757W        W23572  41.979  28.514   0.961
53758W        W23573  23.660  24.209  13.048
53759W        W23574  22.172   8.169   4.686
53760W        W23575   8.814  38.985   4.617
53761W        W23576  43.358  10.858   4.644
53762W        W23577  36.887  39.989  14.854
53763W        W23578  34.952  38.931   2.818
53764W        W23579  39.852  43.020  11.396
53765W        W23580  21.168  17.185   5.192
53766W        W23581   9.384  13.639   0.282
53767W        W23582  40.548  11.217   0.948
53768W        W23583  24.212  13.618  14.507
53769W        W23584  25.046  31.089   4.635
53770W        W23585  12.737  22.068  11.096
53771W        W23586   4.904  32.078   4.804
53772W        W23587  25.634  28.105   3.703
53773W        W23588  17.271   6.759   2.412
53774W        W23589  39.931   7.786   5.626
53775W        W23590  11.265   5.803  12.460
53776W        W23591  11.686   3.427   1.389
53777W        W23592  43.483  25.109   2.372
53778W        W23593  32.526  26.049  14.910
53779W        W23594  18.774  26.196  11.071
53780W        W23595   6.327   2.891   1.272
53781W        W23596  14.175   8.381  14.896
53782W        W23597  28.977  44.489   2.839
53783W        W23598  34.016  35.510   3.782
53784W        W23599  29.065  16.075   0.247
53785W        W23600  33.069  37.541   4.351
53786W        W23601  20.083   4.883   3.791
53787W        W23602  17.084  29.971  11.402
53788W        W23603   9.646  12.153   3.812
53789W        W23604  33.460  11.169  10.150
53790W        W23605  33.486   5.781   2.221
53791W        W23606  38.825   2.389   2.782
53792W        W23607  32.118  16.082   1.381
53793W        W23608  41.911  18.555  11.556
53794W        W23609  41.020  16.730  12.065
53795W        W23610  22.213  35.455  11.124
53796W        W23611   0.822  15.173   1.759
53797W        W23612   2.762  11.701  12.465
53798W        W23613  10.321  10.235  14.021
53799W        W23614   1.794   3.457   5.314
53800W        W23615  37.066  12.262   0.853
53801W        W23616   6.787  11.867  12.364
53802W        W23617   9.847  34.610   1.392
53803W        W23618   8.875  21.678  11.413
53804W        W23619  23.126   5.245   1.912
53805W        W23620  39.879  18.106  10.501
53806W        W23621  35.946   6.907  14.452
53807W        W23622   5.220  17.791   0.246
53808W        W23623  28.991  12.284   0.919
53809W        W23624  13.306  21.184  14.395
53810W        W23625   8.821  42.951  12.371
53811W        W23626  15.172  16.684   3.204
53812W        W23627  18.758  13.677   4.726
53813W        W23628  25.712  12.816  13.979
53814W        W23629  28.039  33.882  13.350
53815W        W23630  28.936  28.163  12.015
53816W        W23631  11.213  14.123  14.013
53817W        W23632  41.043  13.141   2.825
53818W        W23633  42.509  13.274   2.379
53819W        W23634  18.638   8.862   4.756
53820W        W23635  12.762   0.951  11.599
53821W        W23636  27.621   1.957  13.459
53822W        W23637  32.076   4.889  10.550
53823W        W23638  44.843  29.100   0.952
53824W        W23639  31.019  20.068   4.305
53825W        W23640  25.063  28.638   3.641
53826W        W23641  14.175  18.266   1.278
53827W        W23642  31.568  21.069   2.824
53828W        W23643  11.245  41.405  11.455
53829W        W23644  22.222  43.974   2.808
53830W        W23645   3.284  42.860   5.084
53831W        W23646  27.564  34.457  11.604
53832W        W23647  31.149  18.739   2.789
53833W        W23648   9.383  44.495   4.223
53834W        W23649  38.532  34.392   1.336
53835W        W23650   9.674   3.953   3.326
53836W        W23651  29.955  33.551  11.077
53837W        W23652  18.129   3.923   3.786
53838W        W23653   2.880   1.421   0.811
53839W        W23654  26.677   1.843   9.944
53840W        W23655   9.681   1.919   4.833
53841W        W23656  18.289  11.169   4.824
53842W        W23657  40.356   8.702  14.845
53843W        W23658  22.687  24.050  14.360
53844W        W23659  44.483   2.237   0.279
53845W        W23660   6.316  19.584  12.524
53846W        W23661  42.346  10.382   2.765
53847W        W23662   4.420   4.923   1.864
53848W        W23663  10.302  11.648   2.324
53849W        W23664  32.468  25.569   2.695
53850W        W23665  17.607  39.830   4.673
53851W        W23666  28.183   9.789   3.716
53852W        W23667  29.550   1.861  12.874
53853W        W23668   0.831  29.032  12.505
53854W        W23669   3.926  42.012  13.493
53855W        W23670  11.152   6.866   0.380
53856W        W23671  16.704  25.608  11.012
53857W        W23672  40.452  30.464   5.082
53858W        W23673  41.350   3.869   1.306
53859W        W23674   5.308  15.700  13.000
53860W        W23675  30.525  21.755   0.749
53861W        W23676  38.486  44.947   1.878
53862W        W23677  35.480  14.095   4.120
53863W        W23678  30.049  27.687   4.228
53864W        W23679   6.697  10.777   2.408
53865W        W23680  17.759   9.332  10.940
53866W        W23681  39.963   7.374  14.841
53867W        W23682  30.568  15.734   0.747
53868W        W23683  30.933  34.426  10.513
53869W        W23684  30.634   5.754  13.926
53870W        W23685  32.079  37.065  10.422
53871W        W23686  14.821  29.520   0.780
53872W        W23687  36.957  27.027   3.254
53873W        W23688  16.658  34.473   4.259
53874W        W23689  20.203  38.035   1.420
53875W        W23690   8.238  12.770  13.840
53876W        W23691   5.257  20.696   3.633
53877W        W23692  19.697  14.132  10.535
53878W        W23693  16.154   5.251   3.328
53879W        W23694   9.792  43.435  12.351
53880W        W23695   8.660  10.373   2.891
53881W        W23696   4.389  28.452   0.757
53882W        W23697   0.781  27.547   1.835
53883W        W23698  42.985  36.926  12.561
53884W        W23699  23.682  29.031   1.719
53885W        W23700  34.604  30.102   2.769
53886W        W23701  39.029  41.440  14.422
53887W        W23702  44.792  39.336  14.959
53888W        W23703  17.075   6.690  11.403
53889W        W23704  42.934  16.607   3.802
53890W        W23705  31.635  11.769   2.211
53891W        W23706   1.900  10.156   2.283
53892W        W23707  30.067  35.925   4.293
53893W        W23708  15.763   8.806   5.275
53894W        W23709  29.984   2.350   4.188
53895W        W23710  20.100   7.842   0.962
53896W        W23711  40.414  12.635  11.088
53897W        W23712   5.238  28.933   3.682
53898W        W23713  19.146  43.305   0.807
53899W        W23714  12.773  40.356  13.063
53900W        W23715  35.866  25.612   1.815
53901W        W23716  23.020  18.280  12.872
53902W        W23717  43.341  30.474   0.854
53903W        W23718  18.679  14.642   3.755
53904W        W23719  32.554  14.726  12.055
53905W        W23720  27.595   6.279   0.471
53906W        W23721   1.341  20.205   4.622
53907W        W23722  38.374  37.409   1.702
53908W        W23723   8.369  28.083  10.949
53909W        W23724  31.627  23.701   1.714
53910W        W23725   6.414  12.156  13.874
53911W        W23726  43.889  10.722  10.959
53912W        W23727  44.960  36.889   0.328
53913W        W23728   2.891  35.516  10.996
53914W        W23729  42.972  40.534   0.873
53915W        W23730  17.306  38.535   0.895
53916W        W23731  24.677  24.668  13.340
53917W        W23732  16.774   9.368   0.256
53918W        W23733  42.823  11.240   1.377
53919W        W23734  33.454  31.906   1.838
53920W        W23735  34.867   3.293   4.351
53921W        W23736  24.986   8.709  11.579
53922W        W23737   5.210  25.689  11.974
53923W        W23738  34.423  40.023  11.379
53924W        W23739  44.267   1.820  12.408
53925W        W23740  18.242  29.433   3.275
53926W        W23741  17.139  37.550   3.379
53927W        W23742   2.457  28.139   2.788
53928W        W23743  44.278  10.275  14.280
53929W        W23744  10.315   1.335  14.344
53930W        W23745  19.122  21.726  14.010
53931W        W23746  11.766  22.630  14.806
53932W        W23747  13.694  28.950  11.582
53933W        W23748  27.487  11.658  11.043
53934W        W23749   5.875  28.671   1.378
53935W        W23750  19.272  27.509  13.369
53936W        W23751  36.010  42.999  11.041
53937W        W23752  31.446  11.160  13.795
53938W        W23753  12.826  32.610   2.737
53939W        W23754  13.728  15.137   3.803
53940W        W23755  24.609  34.932   2.374
53941W        W23756   3.261  10.761  10.575
53942W        W23757  41.894   8.807   3.764
53943W        W23758  29.635   2.882  11.993
53944W        W23759  22.676  31.551  11.490
53945W        W23760  23.040  14.660  13.986
53946W        W23761   7.896  15.737   3.666
53947W        W23762  34.569  42.925   3.150
53948W        W23763  39.556  28.659  14.823
53949W        W23764  30.928  39.039  12.516
53950W        W23765  40.916  39.485   3.361
53951W        W23766   6.751  29.130   2.375
53952W        W23767   4.442  33.923  11.874
53953W        W23768  44.369  11.346  10.549
53954W        W23769  16.091   9.236  14.990
53955W        W23770  16.693   5.206   0.934
53956W        W23771  43.440  22.028  10.455
53957W        W23772  19.675  36.560   0.916
53958W        W23773  19.161   6.203   4.666
53959W        W23774   3.930  40.484  14.794
53960W        W23775  41.387   0.796  11.034
53961W        W23776  38.448  25.506  10.463
53962W        W23777  36.573  43.419   3.345
53963W        W23778  25.148  13.647  14.995
53964W        W23779  26.007  39.874  11.092
53965W        W23780  27.533   6.732  14.365
53966W        W23781  41.503  40.382   1.878
53967W        W23782  39.939   6.923  11.428
53968W        W23783  43.308  27.988  13.015
53969W        W23784  29.129  10.747  12.833
53970W        W23785   6.779  16.082  14.764
53971W        W23786   0.780   6.399  13.919
53972W        W23787  30.564   9.718   1.384
53973W        W23788  16.306  35.387   3.311
53974W        W23789   4.306  10.803  11.034
53975W        W23790   4.941  41.325  11.033
53976W        W23791  16.103  18.655   0.730
53977W        W23792  32.527  19.257  11.031
53978W        W23793  24.549  19.765   4.660
53979W        W23794   1.266  15.714  10.098
53980W        W23795  35.463   1.784  12.384
53981W        W23796  24.076  41.864  14.766
53982W        W23797   5.404  11.152  10.471
53983W        W23798  31.448  27.027   2.739
53984W        W23799  43.454  11.705   2.374
53985W        W23800  16.318  21.152   0.927
53986W        W23801  11.823  44.809  14.002
53987W        W23802  28.455   4.887  10.900
53988W        W23803  11.135  11.682  13.311
53989W        W23804  17.129  41.011  10.493
53990W        W23805  10.877   1.458   0.260
53991W        W23806  34.048   7.177  13.815
53992W        W23807  36.003  42.321  14.419
53993W        W23808  17.772  14.227   4.806
53994W        W23809  44.468  39.520  13.056
53995W        W23810  28.638  43.809  13.013
53996W        W23811  34.513   5.932  12.826
53997W        W23812   9.751   6.349   4.126
53998W        W23813   8.261  21.152  13.333
53999W        W23814  19.581  37.378   2.397
54000W        W23815   1.946   4.433  14.502
54001W        W23816  43.414  36.457   3.753
54002W        W23817  41.460   8.390  14.026
54003W        W23818  36.507  38.890  10.079
54004W        W23819   8.796   2.355  14.893
54005W        W23820  38.918  21.232   1.796
54006W        W23821   3.810  25.496  13.858
54007W        W23822  42.287  19.589   2.335
54008W        W23823   5.930  43.486   0.404
54009W        W23824  18.552  15.244   2.282
54010W        W23825  12.220  29.919   3.852
54011W        W23826  29.527  33.532   0.335
54012W        W23827  40.512  14.289  10.032
54013W        W23828  35.911   0.769   3.774
54014W        W23829  10.667  26.598  14.466
54015W        W23830  21.134  22.574   4.304
54016W        W23831  30.966  10.204  10.909
54017W        W23832   8.174  23.556  12.565
54018W        W23833  27.987  12.231   1.710
54019W        W23834  22.696  20.667   4.245
54020W        W23835  34.075   1.482  11.048
54021W        W23836  40.927  11.809  11.902
54022W        W23837  14.697   9.884  13.543
54023W        W23838  41.432  12.719  12.509
54024W        W23839  21.142  36.446  14.784
54025W        W23840  16.593   5.798   2.813
54026W        W23841  38.897  41.994   0.843
54027W        W23842  38.057  37.386  14.355
54028W        W23843  26.125  36.934   2.831
54029W        W23844  41.403  27.008  11.489
54030W        W23845  29.992  30.579  11.956
54031W        W23846   3.912  35.892  12.409
54032W        W23847  25.603   9.280   2.889
54033W        W23848   6.855  21.025  12.556
54034W        W23849  38.324  14.244   4.701
54035W        W23850  15.637  34.997  10.931
54036W        W23851  42.879   0.764  13.897
54037W        W23852  26.471  13.663  14.415
54038W        W23853  14.754  44.426   0.308
54039W        W23854  12.840  26.532  13.942
54040W        W23855   9.790   5.725   1.315
54041W        W23856  16.154  33.992   3.825
54042W        W23857   1.773   1.378   3.775
54043W        W23858  30.973   2.740  10.582
54044W        W23859   3.365  21.631  11.377
54045W        W23860  15.110  26.170   4.786
54046W        W23861  15.587  31.002   2.707
54047W        W23862  24.609   5.204   3.337
54048W        W23863  29.059   1.916  10.980
54049W        W23864  30.548  12.207  14.920
54050W        W23865   4.767  22.535  11.374
54051W        W23866  13.765  11.719  14.852
54052W        W23867  30.619   6.192   2.230
54053W        W23868  10.801   9.765   3.375
54054W        W23869  29.661  13.832   3.847
54055W        W23870  31.512  42.781  12.997
54056W        W23871  31.595  16.589   1.329
54057W        W23872  34.019  36.915  13.431
54058W        W23873  30.038  36.082  11.920
54059W        W23874  20.713   1.466  14.362
54060W        W23875  38.381   9.746   4.143
54061W        W23876  12.738   7.280   3.695
54062W        W23877   8.232   9.720   1.750
54063W        W23878  24.078  25.110   3.797
54064W        W23879  17.190   6.727  11.958
54065W        W23880  23.227   9.786   4.668
54066W        W23881  32.540  17.603   4.751
54067W        W23882   5.347  17.227  10.902
54068W        W23883  25.108  20.694  12.410
54069W        W23884  34.048  24.201   4.195
54070W        W23885   9.380  37.835   3.301
54071W        W23886  10.370  31.984   2.685
54072W        W23887  19.763  36.562  12.512
54073W        W23888  34.867   6.883  13.526
54074W        W23889  38.953  15.631  10.974
54075W        W23890  18.214   6.850  12.831
54076W        W23891  12.616   0.809  11.999
54077W        W23892  13.757  43.404  10.577
54078W        W23893  43.281  23.730  14.369
54079W        W23894   3.763   5.365  10.430
54080W        W23895  17.205   9.239   3.337
54081W        W23896  15.289  38.962  14.966
54082W        W23897  30.469  31.969   2.715
54083W        W23898   1.918  36.435   1.221
54084W        W23899  23.067  28.101   1.802
54085W        W23900   7.848   2.341  13.356
54086W        W23901  18.765  36.546   1.322
54087W        W23902   4.796  44.408  14.335
54088W        W23903  13.726  16.134   4.747
54089W        W23904  35.370  14.338  14.791
54090W        W23905  33.943   0.438  12.439
54091W        W23906  41.528  19.642  14.397
54092W        W23907   8.799  20.619   1.831
54093W        W23908  36.876  20.093   3.729
54094W        W23909  33.091  20.745   3.319
54095W        W23910  13.645  14.181   4.746
54096W        W23911  17.193  15.187   1.421
54097W        W23912  28.521  25.989  12.018
54098W        W23913  15.115  19.691  14.978
54099W        W23914   8.787  12.225  10.602
54100W        W23915   4.825  10.313  11.522
54101W        W23916   9.860  28.130   4.614
54102W        W23917  39.419   9.884   4.326
54103W        W23918  27.179  26.974  10.554
54104W        W23919   5.433  41.868  12.375
54105W        W23920  43.406  38.443  10.962
54106W        W23921  29.435   4.850  14.007
54107W        W23922  25.170  27.064  14.772
54108W        W23923  18.768  34.563   1.807
54109W        W23924   2.290  29.947   1.804
54110W        W23925  10.747  10.808   2.203
54111W        W23926  40.042   2.327  14.498
54112W        W23927  22.601  14.142  10.578
54113W        W23928  29.651  19.202   1.448
54114W        W23929  12.310  13.688   0.431
54115W        W23930   0.905  44.410   3.699
54116W        W23931  22.635  18.570   3.272
54117W        W23932  37.408  27.566   2.688
54118W        W23933  44.785   4.213  12.418
54119W        W23934  14.806  38.969  12.521
54120W        W23935  41.016  23.112   0.830
54121W        W23936   1.880  44.359   3.657
54122W        W23937  22.506  22.161  10.523
54123W        W23938  20.711  26.076   1.212
54124W        W23939  35.538  18.586   3.696
54125W        W23940  18.555   1.263  12.341
54126W        W23941  34.535  17.210   0.430
54127W        W23942  11.663  34.907   1.408
54128W        W23943  32.006  31.412  14.846
54129W        W23944  31.963  15.809  12.001
54130W        W23945  16.198  37.925   2.769
54131W        W23946  25.019  30.928  12.434
54132W        W23947  17.752  27.498   3.333
54133W        W23948  29.041   3.838   0.878
54134W        W23949  28.979  41.418   0.957
54135W        W23950   4.279   7.253   4.759
54136W        W23951  31.109   3.768  14.509
54137W        W23952  14.234  43.476  12.028
54138W        W23953  27.678   7.199   0.841
54139W        W23954  21.538  39.411   1.784
54140W        W23955  40.896  30.442  12.981
54141W        W23956  32.565  21.263   2.345
54142W        W23957   3.814   9.810  11.396
54143W        W23958  40.876  28.474  13.950
54144W        W23959   0.949  27.037  11.393
54145W        W23960   7.898  27.567  10.410
54146W        W23961  42.864  31.149   1.353
54147W        W23962  20.261  29.140  11.066
54148W        W23963  39.048  39.378  12.411
54149W        W23964  20.740   1.909   4.835
54150W        W23965  28.046  17.230  13.062
54151W        W23966  22.709  39.482   4.708
54152W        W23967  20.028  33.094  13.028
54153W        W23968  36.570  40.829  14.798
54154W        W23969   2.923  10.325  14.849
54155W        W23970  35.416   0.390   0.848
54156W        W23971  16.191  16.578   0.473
54157W        W23972  31.901   6.274  12.869
54158W        W23973  12.705  19.145  10.002
54159W        W23974  27.020   2.874   0.902
54160W        W23975  37.074  35.466  10.971
54161W        W23976  36.066  35.993   0.285
54162W        W23977   7.903  11.685   3.638
54163W        W23978  29.114  39.338  10.493
54164W        W23979  37.922  36.985   3.281
54165W        W23980  22.671   7.851   0.784
54166W        W23981  16.271  16.572  14.509
54167W        W23982  31.518  27.557   2.864
54168W        W23983  10.668  35.452   0.270
54169W        W23984  37.495   9.860  13.957
54170W        W23985  27.466  18.290  11.474
54171W        W23986  44.753  12.271   2.889
54172W        W23987  24.655  17.137   2.821
54173W        W23988  21.586  12.295   4.760
54174W        W23989  19.550   4.430  14.357
54175W        W23990  30.450  33.933  10.544
54176W        W23991   4.709   8.342  14.504
54177W        W23992   9.718   0.455   4.635
54178W        W23993  27.680  21.192  13.431
54179W        W23994  42.877   9.225  10.595
54180W        W23995  34.490  40.359  13.048
54181W        W23996  42.376  28.102  11.543
54182W        W23997  38.981  38.070  12.095
54183W        W23998  14.814   3.421  10.031
54184W        W23999  29.120   4.868  10.513
54185W        W24000  16.580   8.872   1.921
54186W        W24001  19.584  30.492   1.414
54187W        W24002  11.351  34.380  14.797
54188W        W24003  32.022   4.815  14.002
54189W        W24004  24.037  38.567  10.568
54190W        W24005  27.450   8.176   0.352
54191W        W24006  15.794   1.471   1.289
54192W        W24007  11.360  34.016   1.416
54193W        W24008  11.848  13.600  14.282
54194W        W24009  16.286  25.139  13.912
54195W        W24010  14.263   5.839  10.528
54196W        W24011   7.884  18.559   4.230
54197W        W24012  18.107  28.974  12.857
54198W        W24013  19.740   5.908   3.860
54199W        W24014  14.220  12.189   2.374
54200W        W24015  28.662   0.333  14.887
54201W        W24016  42.020  18.119   1.869
54202W        W24017  23.033  19.168  10.407
54203W        W24018   9.719  13.623  10.527
54204W        W24019  11.679   9.159   3.356
54205W        W24020  29.669  43.778   3.825
54206W        W24021  16.095  22.112  13.506
54207W        W24022  19.615   5.222  10.565
54208W        W24023  41.922   8.724  13.908
54209W        W24024  37.058  33.122   2.271
54210W        W24025   3.878  26.091   2.385
54211W        W24026  35.882  21.518   3.635
54212W        W24027  19.213  32.019  10.574
54213W        W24028  19.162   4.752   2.375
54214W        W24029  37.917  16.087   3.304
54215W        W24030  39.901  19.668   3.738
54216W        W24031  21.616   5.311  12.492
54217W        W24032  38.434  14.228   4.260
54218W        W24033   4.715  33.935   3.245
54219W        W24034  38.829  40.347  13.973
54220W        W24035  20.245   6.408   2.230
54221W        W24036   6.770  21.112  14.410
54222W        W24037  26.529  39.881  14.839
54223W        W24038   1.452   9.202   2.838
54224W        W24039   3.244  17.100  13.886
54225W        W24040  21.132  29.440  13.961
54226W        W24041  31.453   5.345   3.164
54227W        W24042  27.184  10.789   0.249
54228W        W24043  32.569  36.426  11.068
54229W        W24044  41.912   2.854  12.446
54230W        W24045   3.372  13.248   0.363
54231W        W24046  27.140  23.730  11.909
54232W        W24047  12.798  37.546   3.332
54233W        W24048  19.070  13.619  12.530
54234W        W24049  39.056  40.874   4.223
54235W        W24050  26.643   2.353   0.391
54236W        W24051  13.345   8.803   3.175
54237W        W24052  37.539  33.915   4.726
54238W        W24053  35.553  40.905  13.407
54239W        W24054  43.483  20.250   4.652
54240W        W24055   2.296  12.782  10.011
54241W        W24056  12.632   2.805  13.796
54242W        W24057  44.289  35.408  12.067
54243W        W24058   3.821  25.706   0.317
54244W        W24059  26.041  30.561  10.436
54245W        W24060  40.405   3.346   1.920
54246W        W24061   2.469  25.554   4.819
54247W        W24062   6.770  16.301  12.477
54248W        W24063   3.946  30.602   3.286
54249W        W24064  22.586  17.168   3.657
54250W        W24065  30.438  38.516   1.772
54251W        W24066  16.270  13.808  10.538
54252W        W24067  24.617  12.215   1.314
54253W        W24068  14.783  30.014   4.617
54254W        W24069  32.594  17.077  13.528
54255W        W24070   1.972  23.172  11.059
54256W        W24071   4.436  26.189   1.301
54257W        W24072  30.416  27.534  11.998
54258W        W24073  11.275  39.547   2.398
54259W        W24074   7.209  24.499  12.477
54260W        W24075  15.319  17.610  13.006
54261W        W24076   8.863  27.091  13.947
54262W        W24077  27.962   4.383  12.877
54263W        W24078  32.034  15.733  14.888
54264W        W24079  12.351  11.210  10.542
54265W        W24080  43.401  25.040   3.159
54266W        W24081   1.448  29.006  12.056
54267W        W24082  12.621  15.595   0.776
54268W        W24083  43.856   0.471  10.905
54269W        W24084  24.146  43.950  13.910
54270W        W24085  33.121  33.064   3.791
54271W        W24086  25.644  41.393   2.796
54272W        W24087   4.228  22.508  13.317
54273W        W24088  12.766  29.516  14.772
54274W        W24089  42.936  24.621  13.897
54275W        W24090   5.705  30.928   3.160
54276W        W24091  38.848  40.810  13.846
54277W        W24092  25.977  29.086  13.878
54278W        W24093   5.201  30.519  11.114
54279W        W24094   6.183  16.172   3.244
54280W        W24095  40.846  13.771   2.234
54281W        W24096  21.113  11.770   2.903
54282W        W24097  14.784  10.691  12.088
54283W        W24098  13.351  25.588  14.771
54284W        W24099   1.326  18.073  11.023
54285W        W24100  39.449  41.441  13.310
54286W        W24101  37.830  41.460   3.774
54287W        W24102  28.039  30.635  13.507
54288W        W24103  40.919  13.174  12.982
54289W        W24104  39.847  42.453   2.215
54290W        W24105  27.985  26.060   3.764
54291W        W24106  22.135  25.050  14.329
54292W        W24107  43.956  24.152  14.969
54293W        W24108   1.781  27.510   0.904
54294W        W24109  11.691  29.508  14.430
54295W        W24110   8.823  21.239   4.170
54296W        W24111   9.736   9.782  12.003
54297W        W24112  24.143  33.459  10.608
54298W        W24113  21.555  12.279   1.860
54299W        W24114  13.273  40.455   1.277
54300W        W24115  11.244  22.074  13.530
54301W        W24116  37.963  15.790  14.864
54302W        W24117   3.263  24.640  10.422
54303W        W24118  37.420   2.315  14.975
54304W        W24119  18.131  44.443   3.172
54305W        W24120  18.721  36.944  14.357
54306W        W24121  11.723  37.561  12.950
54307W        W24122  10.796  17.691   0.442
54308W        W24123  36.991  16.173   3.254
54309W        W24124  36.538   2.359  12.471
54310W        W24125  38.007  42.837   4.702
54311W        W24126  16.809  35.448  13.308
54312W        W24127  34.929  32.121  10.636
54313W        W24128   3.829   8.196  13.843
54314W        W24129  29.137   3.873   3.162
54315W        W24130  19.049  40.543  11.449
54316W        W24131  27.025   9.150   9.623
54317W        W24132   6.372  13.734   0.461
54318W        W24133  12.231  32.980  11.071
54319W        W24134  29.077  13.342   2.680
54320W        W24135   0.449  35.106  10.632
54321W        W24136  31.539  28.100   1.770
54322W        W24137  12.160  42.402  13.984
54323W        W24138   2.315  24.186   1.344
54324W        W24139   7.875  12.848  13.443
54325W        W24140  31.523  27.950  12.826
54326W        W24141  14.334  18.197  11.448
54327W        W24142  13.779  30.945   4.755
54328W        W24143  43.916  28.938   0.879
54329W        W24144  44.322   4.823   5.268
54330W        W24145   2.799   6.912   0.447
54331W        W24146   7.393  29.064   4.261
54332W        W24147  39.365  33.467  12.982
54333W        W24148  13.828  21.694  10.894
54334W        W24149  23.522  33.876  11.050
54335W        W24150  28.027  36.425  11.394
54336W        W24151  30.969  14.765  10.949
54337W        W24152  39.316  16.122  12.025
54338W        W24153  21.079  24.192  12.498
54339W        W24154  38.827  11.194   1.384
54340W        W24155  40.884  35.864   3.731
54341W        W24156  36.098  13.727   0.874
54342W        W24157  35.104   9.666  10.959
54343W        W24158   4.841   0.871  10.456
54344W        W24159  17.084  36.377   2.855
54345W        W24160  27.524  40.862  14.407
54346W        W24161  41.819  17.132   1.827
54347W        W24162  32.998  12.785  14.345
54348W        W24163   8.166  17.179  14.396
54349W        W24164  21.251  21.593   3.364
54350W        W24165  18.728  32.463  13.319
54351W        W24166  28.089   2.413   1.296
54352W        W24167  34.118  20.141  12.374
54353W        W24168  17.168  40.875  14.982
54354W        W24169  29.042  43.968  13.367
54355W        W24170  33.914  28.071   1.409
54356W        W24171   8.838   1.936  11.596
54357W        W24172   1.736  18.252   3.832
54358W        W24173  27.670   0.447   1.735
54359W        W24174   5.312   1.906   3.322
54360W        W24175  29.039   5.889  12.915
54361W        W24176  19.197  13.816  11.888
54362W        W24177  37.348  13.199   2.332
54363W        W24178  31.459   7.273  11.118
54364W        W24179   4.341   1.812  12.977
54365W        W24180   4.934  15.263   1.320
54366W        W24181  32.618   7.739   0.248
54367W        W24182   5.264  40.897  14.873
54368W        W24183  33.587   0.326  10.893
54369W        W24184  36.890  15.241  13.533
54370W        W24185  39.953  27.525  10.929
54371W        W24186  37.966   2.379   1.242
54372W        W24187  34.909  37.915   0.477
54373W        W24188   6.309  27.689   4.129
54374W        W24189  30.438   3.299   1.799
54375W        W24190  14.682   5.333   1.719
54376W        W24191  32.990   3.738  13.370
54377W        W24192  30.130  11.726   2.791
54378W        W24193  10.257  12.849   3.179
54379W        W24194  42.894  13.348  13.359
54380W        W24195  39.365  44.334  12.827
54381W        W24196  15.771  21.710   4.646
54382W        W24197  44.431  16.187   4.689
54383W        W24198  35.440  11.644   0.289
54384W        W24199  23.624  18.769   2.336
54385W        W24200  33.095   8.197   3.381
54386W        W24201   2.318  40.850   0.423
54387W        W24202  28.069  19.075  12.905
54388W        W24203  11.714  12.708   4.180
54389W        W24204  35.072  29.430  14.413
54390W        W24205  32.980  31.642  13.807
54391W        W24206  33.901  28.968  10.464
54392W        W24207  22.621  29.444  12.435
54393W        W24208  34.597  32.416   3.344
54394W        W24209   1.958  43.864   3.867
54395W        W24210  33.890  31.021  11.922
54396W        W24211  23.514  31.508  14.780
54397W        W24212  31.459   8.901   3.384
54398W        W24213   4.325  41.889  12.390
54399W        W24214  16.632  24.114   3.727
54400W        W24215  23.520  10.833  11.128
54401W        W24216  32.432   7.863  12.372
54402W        W24217  40.520   9.717   1.296
54403W        W24218  24.138   6.426   5.122
54404W        W24219   9.764  18.707  14.903
54405W        W24220  40.966  24.478   1.832
54406W        W24221   9.270   1.421   3.181
54407W        W24222   2.955  37.557   2.737
54408W        W24223  28.442  28.171  10.911
54409W        W24224  41.857   2.823  11.449
54410W        W24225  24.514  19.165  11.412
54411W        W24226  40.407  42.422  12.540
54412W        W24227  38.976  20.554  11.998
54413W        W24228   0.284   9.179   0.848
54414W        W24229  29.511  32.069  12.382
54415W        W24230  23.503  24.680   3.867
54416W        W24231  41.391  40.833  12.536
54417W        W24232  31.905  11.272  11.465
54418W        W24233   6.785  22.090  12.507
54419W        W24234  29.666  32.579   1.323
54420W        W24235  34.436   0.787   2.829
54421W        W24236  11.215  39.966  12.088
54422W        W24237  26.138  27.653  11.571
54423W        W24238  35.053  27.133   3.352
54424W        W24239   2.895  28.449  12.095
54425W        W24240  12.360  26.584  12.079
54426W        W24241  19.198  31.601   2.784
54427W        W24242   3.388   2.399   4.225
54428W        W24243  19.756  40.489  10.961
54429W        W24244  43.456  19.558   0.280
54430W        W24245   0.846  10.355  14.441
54431W        W24246   9.790  16.661  11.573
54432W        W24247  40.419  36.443  12.454
54433W        W24248   8.877  36.375  13.458
54434W        W24249  12.747  15.115  13.338
54435W        W24250   4.380  37.069   0.759
54436W        W24251  34.604  25.080   1.283
54437W        W24252  33.406  34.450  12.368
54438W        W24253   6.283  12.683   3.193
54439W        W24254  14.110  23.616   3.186
54440W        W24255  24.190  35.519  14.366
54441W        W24256  41.971  41.480  14.936
54442W        W24257  13.150  27.982  12.978
54443W        W24258  40.007  15.707  11.999
54444W        W24259  31.980   3.362  13.405
54445W        W24260  21.655  39.938  14.030
54446W        W24261  41.300  26.157   4.183
54447W        W24262  17.658  20.534   3.656
54448W        W24263  36.003   3.435  12.962
54449W        W24264  31.406  35.952  14.780
54450W        W24265  11.145   7.689  12.917
54451W        W24266   7.364  25.044  11.931
54452W        W24267  32.617  43.291  10.912
54453W        W24268   9.855  33.594   2.773
54454W        W24269   7.417  24.002   4.336
54455W        W24270  43.468   7.278   5.256
54456W        W24271  37.417  27.617   0.749
54457W        W24272  30.449  34.069   1.791
54458W        W24273   5.318   2.916   1.850
54459W        W24274  43.814  40.898   2.235
54460W        W24275  43.401  16.764   1.728
54461W        W24276   9.767  28.628   1.364
54462W        W24277  44.500  27.021  12.395
54463W        W24278  37.907  37.567  13.426
54464W        W24279  14.624  30.145  13.341
54465W        W24280  28.459  21.546  12.466
54466W        W24281  18.087   2.232  14.992
54467W        W24282  32.512  32.139  13.793
54468W        W24283  17.242  44.329   4.216
54469W        W24284  38.068  38.063  10.976
54470W        W24285  44.269   6.285  13.046
54471W        W24286  25.675  26.670   4.754
54472W        W24287  14.197  16.627   3.371
54473W        W24288   6.243  27.990   2.195
54474W        W24289  16.646  31.470  13.922
54475W        W24290  35.547  24.683   3.704
54476W        W24291  20.144  21.201   4.190
54477W        W24292  21.576   9.723   2.207
54478W        W24293  42.422   1.357  11.976
54479W        W24294  32.897  23.703  12.572
54480W        W24295  30.533  29.141   4.118
54481W        W24296  40.467  13.245   3.827
54482W        W24297  22.229  38.830  14.497
54483W        W24298  42.936  10.216  11.427
54484W        W24299  35.579  34.072   3.859
54485W        W24300  12.307   0.875  11.119
54486W        W24301  20.273  12.305  11.102
54487W        W24302  22.230  20.679  13.436
54488W        W24303  41.973  41.011  12.963
54489W        W24304   3.344  39.821  14.877
54490W        W24305  31.085  34.057   2.193
54491W        W24306  17.604  24.184  13.853
54492W        W24307  40.412   5.741   1.445
54493W        W24308  36.510  18.559  11.442
54494W        W24309  20.594  43.765  13.823
54495W        W24310  26.184  37.927  12.933
54496W        W24311  43.813  43.995   2.786
54497W        W24312   3.354  26.573   3.661
54498W        W24313  22.578  25.149   9.979
54499W        W24314  11.171  32.031   5.242
54500W        W24315  20.555  30.517   2.291
54501W        W24316  39.512  23.107   0.453
54502W        W24317  42.386  11.319   4.691
54503W        W24318  12.636   8.829   3.344
54504W        W24319  28.473  36.354  13.393
54505W        W24320  28.536   1.360  12.347
54506W        W24321  30.589   9.746   3.857
54507W        W24322   8.682   9.851  11.107
54508W        W24323  44.302   5.380   2.740
54509W        W24324  43.913  11.777  11.391
54510W        W24325   2.829  42.424   1.354
54511W        W24326  23.599  24.595   3.147
54512W        W24327  35.479  38.449  12.441
54513W        W24328  19.762  19.185   1.864
54514W        W24329  15.597  34.017   2.711
54515W        W24330  17.238  31.503  12.497
54516W        W24331   3.373  34.419  10.418
54517W        W24332  42.983  16.232  12.018
54518W        W24333  39.018  11.369   3.660
54519W        W24334  43.457   3.897  13.322
54520W        W24335  12.335  34.536  12.969
54521W        W24336  25.494  13.144  11.405
54522W        W24337   3.333   5.200   4.352
54523W        W24338   3.846   4.749  10.004
54524W        W24339  30.601  37.418  14.013
54525W        W24340   3.391  24.020   2.803
54526W        W24341  39.017  18.075  10.081
54527W        W24342  22.227  14.668  12.969
54528W        W24343   1.269  17.671  13.981
54529W        W24344  11.224  44.262  12.837
54530W        W24345  22.509  11.645  11.420
54531W        W24346  33.617  36.007   3.859
54532W        W24347  34.013   5.412   2.361
54533W        W24348  19.231  39.038   4.765
54534W        W24349  37.858  11.738  12.841
54535W        W24350  27.633   5.836  10.460
54536W        W24351  25.635  40.047   2.694
54537W        W24352  38.508   0.815   4.334
54538W        W24353  41.840  34.388  14.909
54539W        W24354  30.588  44.427  14.490
54540W        W24355  17.243  10.828  11.112
54541W        W24356  24.620  37.447   4.241
54542W        W24357  29.554  34.401   1.699
54543W        W24358  41.334  10.218   1.757
54544W        W24359   1.845   9.326  11.014
54545W        W24360  21.651  19.139   2.335
54546W        W24361  26.686  39.538  13.968
54547W        W24362  26.565  30.551   0.445
54548W        W24363  20.206  15.746  12.959
54549W        W24364   6.213  15.300   0.790
54550W        W24365  43.325  19.550  13.417
54551W        W24366  22.076   2.246  12.348
54552W        W24367  44.992  22.097  12.517
54553W        W24368   1.803  22.075   1.350
54554W        W24369  28.113  24.708   4.831
54555W        W24370  28.616  33.398   0.776
54556W        W24371   7.348  11.848  12.083
54557W        W24372   6.252  36.474   2.279
54558W        W24373  34.506  13.778   4.197
54559W        W24374  16.317  13.123  13.904
54560W        W24375  16.258  43.481  14.507
54561W        W24376   7.697  28.075   4.834
54562W        W24377   7.706  11.713  14.374
54563W        W24378  22.676  32.925  13.949
54564W        W24379  14.108  19.696   0.916
54565W        W24380  21.182  23.571   4.623
54566W        W24381  32.077  20.692  14.890
54567W        W24382   1.473   0.862  12.870
54568W        W24383  15.101   0.270   3.810
54569W        W24384  27.196  14.316  12.402
54570W        W24385  44.378  17.701   2.247
54571W        W24386  30.508  14.158   1.379
54572W        W24387  35.421  21.252   4.268
54573W        W24388   2.422  20.724  11.064
54574W        W24389  44.420   2.740  13.419
54575W        W24390  37.025  37.974   4.127
54576W        W24391  34.554  41.818   4.708
54577W        W24392  15.277  17.100  10.420
54578W        W24393  41.980  42.948  10.440
54579W        W24394   5.830  22.696  11.554
54580W        W24395  29.612  35.603   1.259
54581W        W24396  22.232   7.195   3.255
54582W        W24397  25.979  18.194   2.386
54583W        W24398  43.479   2.468   0.318
54584W        W24399   0.282  38.911   2.715
54585W        W24400  28.066   9.870  14.335
54586W        W24401  30.010  44.861  13.331
54587W        W24402  33.401  21.048   1.926
54588W        W24403  15.269  21.657  11.423
54589W        W24404  44.946  38.360  14.803
54590W        W24405  27.098   8.252  10.465
54591W        W24406  14.703  26.561   2.299
54592W        W24407  43.414   4.813   2.417
54593W        W24408  35.047   2.948  14.765
54594W        W24409  27.511  32.019   2.765
54595W        W24410  20.568  27.981   0.309
54596W        W24411   1.401   8.347   2.825
54597W        W24412  25.965  31.016   2.264
54598W        W24413  24.072  44.984   4.283
54599W        W24414  20.647  26.991   4.267
54600W        W24415  39.990  17.073  14.867
54601W        W24416  44.289   5.724   0.261
54602W        W24417  20.566  44.956   4.298
54603W        W24418  28.991  18.071  11.604
54604W        W24419   8.226  31.050   3.689
54605W        W24420  30.039   1.470   1.862
54606W        W24421  34.034  28.549   3.860
54607W        W24422  22.600  28.625   0.451
54608W        W24423  19.080  32.464  13.324
54609W        W24424   7.395   1.284  14.855
54610W        W24425  22.518  20.070  11.419
54611W        W24426  30.617  15.677   4.324
54612W        W24427   8.239  36.433   0.879
54613W        W24428  34.876  33.026   5.140
54614W        W24429  15.581  23.988  12.397
54615W        W24430  28.979  29.453  14.478
54616W        W24431  26.034  40.861   2.778
54617W        W24432  32.014  20.574  13.466
54618W        W24433  21.078  42.381  14.934
54619W        W24434  20.638  44.370   3.783
54620W        W24435  38.437  16.241  13.914
54621W        W24436  38.982  25.039   9.990
54622W        W24437  33.457  19.738  13.901
54623W        W24438  29.453  28.028   3.264
54624W        W24439  31.131  13.795   4.208
54625W        W24440  16.103  11.222   0.941
54626W        W24441  38.437  17.576   0.931
54627W        W24442  11.701  15.133   0.409
54628W        W24443  16.237   1.444  14.795
54629W        W24444   5.204  13.279   0.345
54630W        W24445  39.828  17.072   3.653
54631W        W24446  27.681   2.448  14.825
54632W        W24447  28.007  16.210  11.889
54633W        W24448  31.431  42.829   4.788
54634W        W24449  37.370   1.278   4.631
54635W        W24450  10.650  11.247   4.330
54636W        W24451  28.578   4.346   3.851
54637W        W24452  16.251  31.932   1.236
54638W        W24453  25.603  11.720  11.398
54639W        W24454  37.572  13.630   0.794
54640W        W24455  23.041  41.859  12.383
54641W        W24456   1.836   5.382  11.866
54642W        W24457  29.525   5.337  13.431
54643W        W24458   9.719  20.597   1.924
54644W        W24459   8.688  31.413  10.903
54645W        W24460   7.282  32.563  10.641
54646W        W24461  22.662  35.015  13.391
54647W        W24462  27.012  18.153  13.893
54648W        W24463  42.296   0.974  10.963
54649W        W24464  12.339  44.454  12.851
54650W        W24465   3.349  44.433  12.434
54651W        W24466  27.096  38.947  10.990
54652W        W24467  20.194  13.825   1.932
54653W        W24468  33.069   5.229   3.319
54654W        W24469  12.125   1.917  13.478
54655W        W24470  25.175   1.295  14.779
54656W        W24471  23.505   9.785   1.264
54657W        W24472  41.374  40.018   1.348
54658W        W24473  18.730   1.248   2.713
54659W        W24474  15.612  34.400   2.872
54660W        W24475  37.075  10.168   4.267
54661W        W24476  24.608  44.795  14.389
54662W        W24477  12.218  25.108   2.812
54663W        W24478  38.543  39.908  14.769
54664W        W24479  17.101  10.233   4.709
54665W        W24480  12.222  36.463   1.368
54666W        W24481  15.306  19.663   0.894
54667W        W24482  36.424  12.262   2.772
54668W        W24483   5.764  17.642  12.377
54669W        W24484   3.354  43.811   1.296
54670W        W24485  11.834  19.277  13.973
54671W        W24486  29.987  22.528  10.973
54672W        W24487  28.173   2.955   2.809
54673W        W24488  41.967  38.925  13.439
54674W        W24489  30.515  40.957  13.380
54675W        W24490  42.392  37.489  13.319
54676W        W24491  37.563   5.731   3.222
54677W        W24492   3.237   9.305  12.466
54678W        W24493   2.227  32.526   3.691
54679W        W24494  36.081  39.523  10.464
54680W        W24495   3.930  34.051  12.847
54681W        W24496  11.743  42.341  12.450
54682W        W24497  43.828  11.191   3.218
54683W        W24498  22.088   6.328  14.449
54684W        W24499  30.949  38.406   4.811
54685W        W24500  43.308  19.545   3.703
54686W        W24501  24.652  15.248   0.837
54687W        W24502  28.129   7.775  14.770
54688W        W24503  33.568  24.112   3.800
54689W        W24504  11.146  15.595  11.004
54690W        W24505  22.190  37.080   1.238
54691W        W24506  31.955  38.027   2.677
54692W        W24507  33.583  35.401   2.857
54693W        W24508  14.630  11.284  12.930
54694W        W24509  30.578  24.064   5.120
54695W        W24510  37.483  11.304   9.969
54696W        W24511  36.900  11.735  14.917
54697W        W24512  33.615  36.350   5.178
54698W        W24513  35.385   7.388  14.872
54699W        W24514   2.859  34.503   2.733
54700W        W24515  16.576  28.449  13.400
54701W        W24516  19.562  13.689   4.826
54702W        W24517  21.215  22.075  12.563
54703W        W24518  43.785   3.418   0.859
54704W        W24519  29.642   0.814   4.341
54705W        W24520  40.960   3.283   2.845
54706W        W24521  23.660  30.104   3.156
54707W        W24522  39.015  21.570   1.217
54708W        W24523  24.561  18.175  12.556
54709W        W24524  25.213  12.144   1.313
54710W        W24525  39.921  14.711   1.766
54711W        W24526   7.223  38.365   0.757
54712W        W24527  39.984  43.953   1.740
54713W        W24528  22.537   7.742  13.827
54714W        W24529   6.776  20.678  12.089
54715W        W24530  21.710  37.085  13.892
54716W        W24531   6.216  34.886   3.779
54717W        W24532   4.930   8.662   4.699
54718W        W24533  24.990  41.356  14.415
54719W        W24534  31.424  41.448   2.810
54720W        W24535   7.344   0.333  14.440
54721W        W24536   5.848   4.412   0.830
54722W        W24537  37.917  38.951   1.760
54723W        W24538  42.812  23.627   0.471
54724W        W24539  29.478  12.163  12.451
54725W        W24540  26.534  38.360  14.028
54726W        W24541  32.925  12.816   1.260
54727W        W24542  42.470   5.739   4.179
54728W        W24543   8.750  31.920  11.420
54729W        W24544  25.978  13.316  11.079
54730W        W24545  32.442  42.008  11.902
54731W        W24546  41.023  17.780   4.117
54732W        W24547   8.838  19.194  10.997
54733W        W24548  18.621  32.957  14.400
54734W        W24549  27.032  34.523   3.749
54735W        W24550  16.132  28.982  14.859
54736W        W24551  36.954  27.612   1.780
54737W        W24552   1.834   5.409   3.862
54738W        W24553   8.226  13.158   2.415
54739W        W24554  39.478  41.876   1.272
54740W        W24555  38.402  39.436   1.807
54741W        W24556  23.688  14.166   3.736
54742W        W24557  13.283  30.956  13.035
54743W        W24558  18.570  20.582  14.368
54744W        W24559  43.383  28.002   0.359
54745W        W24560  15.114   0.449   4.815
54746W        W24561  44.356   6.291   2.266
54747W        W24562  20.088  27.993  10.025
54748W        W24563  10.735  23.017  11.862
54749W        W24564   3.907   0.903   3.254
54750W        W24565   5.404  18.565   4.833
54751W        W24566   2.244   8.858  12.448
54752W        W24567  24.616  42.456   1.840
54753W        W24568  36.948   4.772  12.003
54754W        W24569  11.344  30.097  13.414
54755W        W24570   2.783  23.062   4.727
54756W        W24571  26.112  18.679   1.262
54757W        W24572  41.840  12.613   3.165
54758W        W24573  27.483  16.219  13.922
54759W        W24574  35.558   5.369  14.438
54760W        W24575  39.389  36.853   2.817
54761W        W24576  41.903  18.576  12.870
54762W        W24577   7.290   7.250   4.769
54763W        W24578   4.390  39.938  12.375
54764W        W24579  30.154  40.045   1.306
54765W        W24580  37.452   3.742  14.764
54766W        W24581  30.093   7.746  14.438
54767W        W24582  15.744  37.379   3.372
54768W        W24583  14.277  19.134   4.686
54769W        W24584  44.369   7.869  11.604
54770W        W24585  11.775   5.826  12.380
54771W        W24586  13.803  30.055   1.361
54772W        W24587   4.728  12.198   0.886
54773W        W24588  28.045  16.754  12.052
54774W        W24589  36.502  17.117   1.226
54775W        W24590  32.477  22.208   2.746
54776W        W24591  39.323  36.526  12.835
54777W        W24592  21.245  31.119   0.856
54778W        W24593  16.316   8.846   2.263
54779W        W24594  26.657  25.152  14.772
54780W        W24595   6.687  44.456   3.224
54781W        W24596   3.383  21.714  14.951
54782W        W24597  19.581  42.816  11.467
54783W        W24598  32.057  44.500  11.057
54784W        W24599  32.590  41.022  14.871
54785W        W24600  22.012   7.789   3.654
54786W        W24601  26.967  12.812   1.815
54787W        W24602  31.988   4.387   3.841
54788W        W24603  18.636   5.914  14.498
54789W        W24604  11.713   5.905   0.852
54790W        W24605  10.688   1.356  14.449
54791W        W24606  37.527  13.267   4.809
54792W        W24607  42.789  12.782   1.239
54793W        W24608   7.407  36.561  11.542
54794W        W24609  26.178  40.333   4.213
54795W        W24610  40.873  41.034  11.493
54796W        W24611  35.421  40.461  12.083
54797W        W24612   2.377   9.206  14.457
54798W        W24613  34.940  37.388   9.967
54799W        W24614  44.877  29.507   3.149
54800W        W24615  26.047   0.910   4.642
54801W        W24616  11.138  40.942   4.136
54802W        W24617  40.438  17.735  12.856
54803W        W24618  17.682   5.928   4.731
54804W        W24619   0.484  15.226   0.483
54805W        W24620  31.428  18.605  14.452
54806W        W24621  40.443  29.040   2.208
54807W        W24622  40.835   5.728   0.930
54808W        W24623  17.244  40.888   1.227
54809W        W24624   0.818  31.454  11.041
54810W        W24625   6.217  28.566   1.213
54811W        W24626   0.272  23.521   3.191
54812W        W24627  38.982  27.042  14.826
54813W        W24628  39.506  13.793   3.329
54814W        W24629  43.351  11.797   2.774
54815W        W24630  26.050  43.273   2.380
54816W        W24631  10.641  19.580  13.488
54817W        W24632  28.963  38.449  13.799
54818W        W24633  25.637  28.063   4.640
54819W        W24634  26.478  27.004  13.465
54820W        W24635  12.321  38.331  14.856
54821W        W24636   7.280  41.309   5.285
54822W        W24637  38.884  42.442  12.567
54823W        W24638  25.162  19.764  10.433
54824W        W24639  13.261   9.265  11.064
54825W        W24640  18.604   6.892   4.283
54826W        W24641  16.237  18.205  13.325
54827W        W24642  41.014  25.493  12.024
54828W        W24643  35.535  10.697   0.845
54829W        W24644  39.905  15.676   3.161
54830W        W24645  37.534   9.698  12.931
54831W        W24646  43.469   8.854   4.173
54832W        W24647  43.014  22.200  10.995
54833W        W24648  38.912  36.942   4.603
54834W        W24649  12.625   3.398  13.488
54835W        W24650   8.380  29.971  13.365
54836W        W24651  33.581  24.994  12.976
54837W        W24652   9.733  20.251   2.284
54838W        W24653  29.480  32.892  12.092
54839W        W24654  13.149  36.056  10.900
54840W        W24655  40.872  15.768   5.201
54841W        W24656  44.406  25.051   4.713
54842W        W24657  30.491  26.118  14.784
54843W        W24658  31.536   3.711   3.782
54844W        W24659  41.394  28.581  14.810
54845W        W24660  42.802  43.305  13.329
54846W        W24661   4.416  33.899  14.871
54847W        W24662  11.269  16.656   2.741
54848W        W24663  38.004   9.171  13.520
54849W        W24664  41.450  44.497   2.349
54850W        W24665  18.731  42.029   4.769
54851W        W24666  25.676  29.096   0.732
54852W        W24667  10.847  43.898  12.423
54853W        W24668  12.772   2.826  11.045
54854W        W24669  43.288  17.304  10.414
54855W        W24670  28.600   9.191  13.433
54856W        W24671  35.861  38.851   0.775
54857W        W24672  25.192  32.139   1.364
54858W        W24673  35.902   2.939  12.968
54859W        W24674   5.795  15.136  13.463
54860W        W24675  32.599  24.699   1.370
54861W        W24676  21.562  14.136   2.193
54862W        W24677  12.347   3.369  12.346
54863W        W24678  11.654  13.797   3.187
54864W        W24679  26.654   5.398   4.678
54865W        W24680  36.448  22.516   0.751
54866W        W24681  13.203  43.850  12.349
54867W        W24682  26.078  23.146   3.240
54868W        W24683  35.894  36.565  11.925
54869W        W24684  12.682  32.451   1.743
54870W        W24685  16.204  10.283  10.961
54871W        W24686   4.246  25.001   3.316
54872W        W24687  40.956  13.759   1.839
54873W        W24688   1.784  12.673   2.829
54874W        W24689  35.025  18.600   3.712
54875W        W24690  36.573  20.264  14.393
54876W        W24691  43.901  12.301   2.721
54877W        W24692  27.482  18.218   3.291
54878W        W24693  30.925  40.926  13.913
54879W        W24694  12.217  19.177   0.731
54880W        W24695   4.941  25.692   4.336
54881W        W24696  36.479  30.116   1.291
54882W        W24697  22.501   0.784  11.406
54883W        W24698  16.298   3.251   1.211
54884W        W24699  23.198  41.930   0.392
54885W        W24700  16.765  41.027   3.692
54886W        W24701  25.192   6.755  11.593
54887W        W24702  34.523  34.867   4.771
54888W        W24703  16.241  12.805   0.960
54889W        W24704   5.791  39.548  11.477
54890W        W24705  42.822  43.279  14.787
54891W        W24706  29.519   5.310   4.744
54892W        W24707  37.068   2.878  12.870
54893W        W24708  38.864  34.977  12.948
54894W        W24709   1.452  29.442   4.312
54895W        W24710   8.670  44.401  12.348
54896W        W24711  42.353  24.681   2.826
54897W        W24712  19.240  14.269   3.747
54898W        W24713   0.293  42.915  11.870
54899W        W24714  12.189  36.983  13.334
54900W        W24715  21.116  41.927   0.363
54901W        W24716   5.227   9.703  11.424
54902W        W24717  16.125  12.829  11.072
54903W        W24718  15.711  40.806   4.612
54904W        W24719  16.649  26.138  10.564
54905W        W24720   3.423   5.231  10.423
54906W        W24721  39.471   6.297  10.535
54907W        W24722  19.201   7.333  11.437
54908W        W24723  31.917  26.695   4.123
54909W        W24724  44.424  38.051   4.724
54910W        W24725   0.942  13.129  11.577
54911W        W24726  32.949  12.148  11.510
54912W        W24727  39.033   7.369   1.704
54913W        W24728  19.739  31.099  12.522
54914W        W24729  32.410  41.336   3.724
54915W        W24730  28.987  32.454  12.975
54916W        W24731  41.895  12.622   0.449
54917W        W24732  29.538  12.701  14.454
54918W        W24733   8.204   2.303  11.128
54919W        W24734  40.887  13.212   0.393
54920W        W24735  17.274   7.235  14.417
54921W        W24736   4.367  34.075  14.332
54922W        W24737  12.762  11.809   2.247
54923W        W24738  32.568  17.288  10.613
54924W        W24739  39.914  40.330  11.436
54925W        W24740   7.270  31.931  13.974
54926W        W24741  41.294  40.843   2.352
54927W        W24742  32.522  28.450  12.545
54928W        W24743   8.833  41.021  12.908
54929W        W24744  26.186  41.418   4.164
54930W        W24745  19.223  16.740   4.820
54931W        W24746  12.348  35.058  12.445
54932W        W24747   9.390   1.381  13.478
54933W        W24748  20.224  33.524   4.341
54934W        W24749   6.259  43.358   4.322
54935W        W24750  39.345  15.292  10.898
54936W        W24751   8.733  16.131  13.512
54937W        W24752  25.013   4.849   4.243
54938W        W24753  15.270   3.743  11.913
54939W        W24754  20.542  24.713  13.334
54940W        W24755   9.387  36.418  14.991
54941W        W24756  19.663  23.183   1.869
54942W        W24757  25.575  32.002  13.920
54943W        W24758  22.515  13.117   3.371
54944W        W24759  26.478  36.389   0.734
54945W        W24760  13.680  11.762   2.404
54946W        W24761  41.844  17.753  10.948
54947W        W24762  25.128  38.014   0.840
54948W        W24763   8.681  35.570  14.936
54949W        W24764  10.302  18.145  14.499
54950W        W24765  21.042   5.308   1.353
54951W        W24766  26.116  24.060  11.900
54952W        W24767  28.594  22.010   2.805
54953W        W24768   4.816   6.798  11.481
54954W        W24769  43.970  34.106   0.368
54955W        W24770  10.802   2.774   3.198
54956W        W24771  40.886  26.006  14.396
54957W        W24772  17.629   3.215  10.431
54958W        W24773  12.839  28.485  12.472
54959W        W24774   3.313  37.413   4.742
54960W        W24775  24.103  37.342   2.864
54961W        W24776  21.062  13.311  13.819
54962W        W24777  27.479  35.873   3.787
54963W        W24778   8.402   6.814  14.929
54964W        W24779  44.972  16.099   2.187
54965W        W24780  12.618  14.236   1.705
54966W        W24781  10.287  13.693   2.368
54967W        W24782  18.551  22.098  13.831
54968W        W24783  24.537  23.163  12.922
54969W        W24784   4.831  21.674   4.807
54970W        W24785  33.585  27.543  14.473
54971W        W24786  31.421   1.281  10.954
54972W        W24787  42.947   9.175   2.688
54973W        W24788  36.014  14.591   2.389
54974W        W24789  28.012  10.138   0.943
54975W        W24790  19.557  24.179  12.406
54976W        W24791  26.100  26.612  13.452
54977W        W24792  28.070   7.871   1.847
54978W        W24793  41.386  36.356  14.443
54979W        W24794  28.485   8.852   1.828
54980W        W24795   3.347  28.960   3.753
54981W        W24796  24.587  13.812   1.832
54982W        W24797  12.233  31.647   3.264
54983W        W24798  27.033  19.749  13.912
54984W        W24799  17.706  11.787  14.003
54985W        W24800   9.777  17.137   5.090
54986W        W24801  22.102  23.190  14.495
54987W        W24802  16.158  15.258   0.367
54988W        W24803  41.449  24.161  13.939
54989W        W24804  20.765  37.512   3.866
54990W        W24805  14.774  17.100  12.376
54991W        W24806  29.626  17.100  11.916
54992W        W24807   3.409  44.308   2.178
54993W        W24808  11.185  22.216   3.361
54994W        W24809  24.198  23.090   1.762
54995W        W24810  42.381  20.678  11.376
54996W        W24811   3.747  12.677   2.274
54997W        W24812  44.803   6.299  14.835
54998W        W24813  34.891  41.530  14.884
54999W        W24814  29.649  25.474  13.032
55000W        W24815   4.873  18.128  11.557
55001W        W24816  25.116  25.200   0.482
55002W        W24817  22.518  42.342   4.311
55003W        W24818   4.209  30.580   4.354
55004W        W24819   6.677  15.666   9.937
55005W        W24820  37.581  27.601  11.544
55006W        W24821  30.473  43.287  10.411
55007W        W24822  42.917   4.768   1.782
55008W        W24823  20.226   0.977  14.423
55009W        W24824  44.378  29.535  14.962
55010W        W24825  22.209  10.347   4.147
55011W        W24826  20.185  18.627  12.057
55012W        W24827  21.184  23.988   1.242
55013W        W24828  26.149  12.689  12.544
55014W        W24829  34.418  15.279  12.841
55015W        W24830  32.119   6.354  11.454
55016W        W24831  28.024  31.413   1.332
55017W        W24832  22.031  11.318   0.856
55018W        W24833  37.566  13.287  10.888
55019W        W24834  36.499  10.836   1.379
55020W        W24835  15.247  28.653   1.426
55021W        W24836  31.087   5.316  12.532
55022W        W24837   8.752   7.296   3.744
55023W        W24838  20.648  18.155  12.096
55024W        W24839  37.547  38.510  11.987
55025W        W24840  32.046  14.726   0.427
55026W        W24841   0.944  26.167   1.903
55027W        W24842  35.992  35.441  14.359
55028W        W24843  22.546   5.227  13.463
55029W        W24844  18.216  28.511  11.867
55030W        W24845  32.923  33.496   2.414
55031W        W24846  41.328  30.650   4.202
55032W        W24847   3.382  39.914   1.739
55033W        W24848  19.067   8.317   0.403
55034W        W24849  19.193   1.925  11.463
55035W        W24850  20.563  21.183  12.835
55036W        W24851  40.975  12.611   1.776
55037W        W24852  41.830  13.702   5.755
55038W        W24853  17.570   7.830   4.202
55039W        W24854  28.522   2.905   0.846
55040W        W24855  40.432  23.035   1.225
55041W        W24856  23.719  24.095   4.207
55042W        W24857   1.773  22.720   0.882
55043W        W24858  43.874   7.287   0.852
55044W        W24859  24.528  34.872   2.761
55045W        W24860  19.189  43.824   2.837
55046W        W24861  29.561  33.951  14.003
55047W        W24862   3.710  11.794   3.739
55048W        W24863  38.350  11.831  11.596
55049W        W24864   1.735  41.884  12.969
55050W        W24865  21.252  10.156   5.130
55051W        W24866  16.142   9.292  11.504
55052W        W24867   1.403   6.818   0.911
55053W        W24868  15.096   8.863   3.167
55054W        W24869  44.395  36.433   1.269
55055W        W24870  19.080   0.843  13.362
55056W        W24871  36.493  41.526  14.453
55057W        W24872  29.141  36.499  10.426
55058W        W24873  24.500  29.030  10.427
55059W        W24874  16.111   6.816  13.994
55060W        W24875  36.569  26.622  11.515
55061W        W24876  38.920  29.494  13.859
55062W        W24877  35.502   1.269   1.721
55063W        W24878  31.624  19.653  14.438
55064W        W24879  44.310  43.513   2.803
55065W        W24880  19.152  36.550  11.880
55066W        W24881  16.803   1.475   0.416
55067W        W24882  33.546   9.266  11.561
55068W        W24883   6.729  40.008   0.764
55069W        W24884  30.125  30.024   3.197
55070W        W24885   3.770  39.954  13.328
55071W        W24886  19.056  26.199  13.846
55072W        W24887  23.116  35.485  11.482
55073W        W24888   9.194  40.053  10.454
55074W        W24889  30.116  20.560   1.394
55075W        W24890  17.712  44.975   3.638
55076W        W24891  40.860  14.188  13.520
55077W        W24892  35.383  20.698   3.672
55078W        W24893  29.983  41.860   2.778
55079W        W24894  38.380  34.942  11.415
55080W        W24895  24.696   5.812   0.276
55081W        W24896  20.538   1.874  14.013
55082W        W24897  17.287  37.998  14.001
55083W        W24898   3.264  20.767  14.834
55084W        W24899  30.149  37.532   1.789
55085W        W24900  25.480   0.383  10.914
55086W        W24901  40.305  13.635   2.720
55087W        W24902  41.026  26.528  10.056
55088W        W24903  32.468  23.606   2.292
55089W        W24904  31.443   1.840   1.405
55090W        W24905  32.566  19.217  11.917
55091W        W24906  42.825   5.724   4.785
55092W        W24907  29.468  29.067   0.911
55093W        W24908  37.985  18.241  13.990
55094W        W24909  44.966  35.090   3.770
55095W        W24910  44.359  32.921  14.461
55096W        W24911  10.207   7.831   2.870
55097W        W24912  26.530  22.237   1.224
55098W        W24913  43.807   5.723  11.878
55099W        W24914  30.152  29.927  12.432
55100W        W24915  23.988  36.958  13.987
55101W        W24916  19.635  20.172   2.218
55102W        W24917  13.249  13.656   0.858
55103W        W24918  30.575  26.500   1.722
55104W        W24919   7.281  14.703  12.952
55105W        W24920  30.565  35.499   3.825
55106W        W24921  10.275  36.071   3.830
55107W        W24922  28.625  11.728   5.242
55108W        W24923  15.203  38.403  11.399
55109W        W24924  19.725   5.270  11.453
55110W        W24925  20.235  13.809   4.660
55111W        W24926   8.797  30.024  11.499
55112W        W24927  17.091   9.281  11.559
55113W        W24928  41.375  29.466  11.991
55114W        W24929  27.677  14.317  13.547
55115W        W24930  21.742   3.225   5.212
55116W        W24931   8.401  19.560  11.542
55117W        W24932  29.527   6.340   2.692
55118W        W24933  32.596  38.044  12.041
55119W        W24934  10.142  37.459  13.468
55120W        W24935  34.482  25.127   2.309
55121W        W24936  27.081  25.552   1.432
55122W        W24937  20.668   8.831   3.740
55123W        W24938  37.915   9.725   1.410
55124W        W24939  35.015  41.468   2.362
55125W        W24940  16.763  33.505  12.467
55126W        W24941  17.065  35.895  14.788
55127W        W24942  44.771  14.598  12.547
55128W        W24943  17.062  30.957  10.560
55129W        W24944  27.031  16.257  12.986
55130W        W24945   9.362  18.769   2.825
55131W        W24946  28.608  42.283  13.506
55132W        W24947  38.042  44.345  14.807
55133W        W24948  18.149  19.743   1.403
55134W        W24949  14.823  26.134  11.445
55135W        W24950  26.083  10.806  11.126
55136W        W24951  17.759  26.202   3.219
55137W        W24952   4.250  35.084   1.211
55138W        W24953   5.870   5.779   2.764
55139W        W24954  37.372   6.418  12.569
55140W        W24955  25.087  14.300   2.211
55141W        W24956  35.918   7.298   2.220
55142W        W24957  37.077  36.949  13.867
55143W        W24958  36.978  12.720  10.936
55144W        W24959  10.190   9.287  12.566
55145W        W24960   6.677  18.617   0.935
55146W        W24961   4.407  18.549   2.356
55147W        W24962   4.907  42.451  14.964
55148W        W24963  23.151  35.399   1.880
55149W        W24964  41.433   1.934  12.444
55150W        W24965  41.341  29.078  14.333
55151W        W24966  41.032   5.878  13.406
55152W        W24967  19.242   9.335  12.395
55153W        W24968   5.201  44.360  13.402
55154W        W24969   9.886   5.439   0.765
55155W        W24970  21.079  43.819  13.458
55156W        W24971  29.454   8.798   0.427
55157W        W24972   8.386  18.099   3.311
55158W        W24973  28.023  20.125   1.750
55159W        W24974  26.174  22.608   3.740
55160W        W24975  34.095   1.924   1.399
55161W        W24976   4.335  25.535  11.440
55162W        W24977  30.161  25.140   2.291
55163W        W24978  40.877  11.341  11.918
55164W        W24979  39.996   8.833   2.255
55165W        W24980  28.641  12.245   5.249
55166W        W24981  19.161  36.920   4.308
55167W        W24982  32.885  23.648  13.539
55168W        W24983  28.604  17.281  11.080
55169W        W24984  40.802  31.000   1.347
55170W        W24985  24.147  30.475  14.903
55171W        W24986  44.274  12.282  11.467
55172W        W24987  13.211  13.687  13.344
55173W        W24988  20.703  32.541   1.235
55174W        W24989   1.878   3.821   3.677
55175W        W24990   9.874  11.355  11.387
55176W        W24991  27.033  43.391  11.378
55177W        W24992  34.008   4.729  10.524
55178W        W24993   5.363  16.300  13.926
55179W        W24994  19.211  21.063  14.807
55180W        W24995   3.742  16.741  11.414
55181W        W24996  38.387  33.131  11.605
55182W        W24997  23.572  20.698   2.794
55183W        W24998  11.632  43.984   3.251
55184W        W24999   0.979  42.922   2.877
55185W        W25000  28.095   0.329  12.005
55186W        W25001  21.671  42.393  10.916
55187W        W25002  30.001  30.950  10.529
55188W        W25003   8.369  29.430   3.863
55189W        W25004  39.493   5.340   4.607
55190W        W25005  16.189  10.800  12.873
55191W        W25006  24.034  21.758  11.452
55192W        W25007  11.752  35.914  10.537
55193W        W25008   3.408  13.690  10.966
55194W        W25009  31.112  12.132  13.476
55195W        W25010  21.624  17.713  13.798
55196W        W25011   6.821  15.738   1.359
55197W        W25012  27.485  43.922  14.766
55198W        W25013   4.412  37.392   3.719
55199W        W25014  23.096  38.519   2.178
55200W        W25015  21.130  22.546  12.415
55201W        W25016   1.456   6.746   2.765
55202W        W25017  42.905  22.738   1.868
55203W        W25018   5.730  18.721   1.240
55204W        W25019   5.397   8.187  12.562
55205W        W25020  24.668  32.583  13.313
55206W        W25021  30.090  21.744  14.380
55207W        W25022  31.573  22.726  11.079
55208W        W25023  33.062   8.735   3.330
55209W        W25024  40.314  27.000   0.955
55210W        W25025   8.273   4.939   1.298
55211W        W25026  18.280  26.582   1.326
55212W        W25027   8.178   2.751   3.682
55213W        W25028  19.137  41.461   4.714
55214W        W25029  26.491  37.398  14.941
55215W        W25030   1.308   1.353   2.275
55216W        W25031  20.689  19.561   0.808
55217W        W25032  43.007   8.865  11.935
55218W        W25033  12.168  16.277  13.360
55219W        W25034  25.006  18.090   0.313
55220W        W25035  14.283  16.627  11.608
55221W        W25036  12.271  13.309   1.366
55222W        W25037  21.660  21.541   2.389
55223W        W25038   2.470   2.372  13.877
55224W        W25039  32.952  17.703   3.357
55225W        W25040   1.405  18.089   2.889
55226W        W25041  38.326  20.591   1.769
55227W        W25042  18.257  16.687   0.875
55228W        W25043  44.492   6.722  14.905
55229W        W25044  43.867  27.452   1.301
55230W        W25045  33.966  26.525  14.024
55231W        W25046  39.885   6.281   0.351
55232W        W25047   9.697  10.808  12.411
55233W        W25048  23.573   8.848   2.672
55234W        W25049  19.174   6.900   3.638
55235W        W25050  34.449   4.714   3.819
55236W        W25051  26.149   5.755  10.566
55237W        W25052   9.280  14.801   2.215
55238W        W25053   7.770   2.879  13.541
55239W        W25054  38.514  22.664   4.696
55240W        W25055  17.073  18.732  10.559
55241W        W25056  17.232  35.943  13.415
55242W        W25057   8.712  24.113  11.528
55243W        W25058   5.363  42.890  12.074
55244W        W25059  44.931  35.602  13.992
55245W        W25060   9.304  33.501  10.644
55246W        W25061   5.903  43.765  12.424
55247W        W25062  17.763  16.812  12.412
55248W        W25063  17.629   0.419  14.356
55249W        W25064  38.413  43.436  11.479
55250W        W25065  18.722  15.310   4.733
55251W        W25066  20.584   5.842  10.501
55252W        W25067  18.163  16.707   4.323
55253W        W25068  26.630  18.552   0.261
55254W        W25069   1.238  19.541  13.959
55255W        W25070  22.516   9.703   2.690
55256W        W25071  31.482  44.331   3.654
55257W        W25072  40.384  19.547   2.324
55258W        W25073  25.133   5.421   4.218
55259W        W25074  33.386   7.339  13.865
55260W        W25075  36.494  36.590   3.271
55261W        W25076  38.517  24.980  11.051
55262W        W25077  23.083  37.467   2.697
55263W        W25078  29.551   1.299  13.009
55264W        W25079  32.494  20.256   2.265
55265W        W25080  25.679   4.869  14.990
55266W        W25081  42.512  43.854   0.813
55267W        W25082   8.177  26.195  11.589
55268W        W25083  36.478  28.625  10.990
55269W        W25084  21.047  19.717  13.846
55270W        W25085  24.047   3.764  12.480
55271W        W25086  41.897  41.321  10.630
55272W        W25087  20.183  41.821  13.538
55273W        W25088  39.033  24.554   4.787
55274W        W25089  43.844  11.279   3.669
55275W        W25090   6.824   8.321  13.535
55276W        W25091  14.792  21.206  12.359
55277W        W25092   6.392  14.665   4.613
55278W        W25093  25.116  43.946   3.775
55279W        W25094  34.976   1.373  14.825
55280W        W25095  41.354  13.718  13.860
55281W        W25096  35.951   4.854  12.962
55282W        W25097  39.367  35.068   3.751
55283W        W25098  32.519  42.836   5.248
55284W        W25099  12.340  40.482  10.981
55285W        W25100   2.349  21.226  13.415
55286W        W25101  33.537   7.374  10.926
55287W        W25102  31.540  43.867   1.719
55288W        W25103  42.957  24.592  12.556
55289W        W25104  25.183  32.636  12.530
55290W        W25105  36.517  24.681   2.723
55291W        W25106  33.056  25.497   0.943
55292W        W25107   2.378  35.099   0.751
55293W        W25108  36.447  20.713  11.515
55294W        W25109   5.337  14.299  11.945
55295W        W25110  14.105  29.054   3.706
55296W        W25111  26.182  37.925   0.837
55297W        W25112  13.653  10.750   0.820
55298W        W25113  32.615  12.822   0.761
55299W        W25114  19.133   5.713   4.300
55300W        W25115  36.992  25.659   4.337
55301W        W25116  15.656  19.740   3.263
55302W        W25117  24.197  41.497   3.824
55303W        W25118  15.270   4.393   1.787
55304W        W25119  33.995  23.734  11.920
55305W        W25120  44.873   6.288  10.640
55306W        W25121  29.132  40.420  14.880
55307W        W25122   6.679  38.830  10.998
55308W        W25123  16.605  42.502   4.637
55309W        W25124  39.426  18.770  14.964
55310W        W25125  35.856   7.768  12.062
55311W        W25126  26.502   5.398  11.864
55312W        W25127  11.324  21.056  14.396
55313W        W25128  32.053  25.992   4.227
55314W        W25129  34.569  28.001   2.674
55315W        W25130  20.596  31.411   4.194
55316W        W25131  38.543  15.302  13.414
55317W        W25132  11.293  23.659   1.389
55318W        W25133  20.541  43.292  12.362
55319W        W25134   3.742  29.946  13.427
55320W        W25135  40.851   8.214  14.931
55321W        W25136  34.065   2.472  14.345
55322W        W25137  30.949  18.264   2.267
55323W        W25138  30.539  25.044  11.118
55324W        W25139  35.360   8.328  12.837
55325W        W25140   2.912  29.025  12.010
55326W        W25141   3.731  14.293  11.858
55327W        W25142  12.706   9.677  12.984
55328W        W25143  12.852  39.445  13.317
55329W        W25144  27.470   9.692  14.481
55330W        W25145  37.488  43.827   0.956
55331W        W25146  27.672   7.241  11.977
55332W        W25147  39.340  31.600   4.191
55333W        W25148  19.221   3.731  10.442
55334W        W25149  29.107  30.591  12.490
55335W        W25150  22.620  17.282  14.411
55336W        W25151   5.816  12.147  12.029
55337W        W25152  42.342  22.197   2.669
55338W        W25153  24.662  25.096  13.523
55339W        W25154  32.924  27.545  10.547
55340W        W25155  29.112   3.906  12.060
55341W        W25156  32.099  21.697  13.924
55342W        W25157  14.703  29.598   4.239
55343W        W25158  13.116  33.527   5.100
55344W        W25159   6.254  10.632   1.819
55345W        W25160  11.254   2.849  14.334
55346W        W25161   0.895  33.453  13.941
55347W        W25162  24.114  33.074  11.099
55348W        W25163  17.724   6.240   1.805
55349W        W25164  23.137  21.537   2.688
55350W        W25165  35.601  39.496   0.296
55351W        W25166  36.068  25.998  11.975
55352W        W25167  10.171  21.136  13.946
55353W        W25168  10.685   7.770   2.289
55354W        W25169  44.325  26.639   3.783
55355W        W25170   3.899  37.951   1.446
55356W        W25171  31.097  37.441   4.804
55357W        W25172  32.966   4.801   0.926
55358W        W25173  43.824  10.796   2.811
55359W        W25174  17.675  16.131  12.527
55360W        W25175   3.761  25.561  12.964
55361W        W25176   5.800  21.649   1.780
55362W        W25177  31.576  17.234  11.983
55363W        W25178  31.567  31.569  12.084
55364W        W25179  32.586  24.189  11.505
55365W        W25180  14.222  12.636  10.488
55366W        W25181  40.413   8.817  14.325
55367W        W25182  19.074   2.833   3.166
55368W        W25183  19.261  44.269   4.238
55369W        W25184  31.981  38.945   2.288
55370W        W25185  42.912  18.122   3.767
55371W        W25186  25.006  27.614   0.436
55372W        W25187  35.587  37.874   3.195
55373W        W25188  35.594  19.635  13.327
55374W        W25189  36.035  27.690  14.364
55375W        W25190  22.716  21.128   3.797
55376W        W25191  39.507   2.879   1.360
55377W        W25192  43.287  10.811   2.809
55378W        W25193  39.902   6.347   4.245
55379W        W25194  43.335  28.468   1.321
55380W        W25195  41.488  34.081  10.578
55381W        W25196  27.055  26.169  12.341
55382W        W25197   2.335  13.673   3.644
55383W        W25198  15.654   1.841  14.410
55384W        W25199  44.860   2.822  11.072
55385W        W25200  41.434   0.790   2.210
55386W        W25201   1.903   6.354   1.829
55387W        W25202  40.333  41.518   5.087
55388W        W25203  24.224   6.754  10.594
55389W        W25204  26.174  43.842  12.039
55390W        W25205  25.078  26.058   3.829
55391W        W25206  10.384  42.344  10.452
55392W        W25207   2.392   0.251  12.886
55393W        W25208  23.186   7.232  11.013
55394W        W25209  36.448  35.377   4.650
55395W        W25210  44.805   3.743  14.878
55396W        W25211  39.994  23.132   1.359
55397W        W25212  14.811   8.756  11.560
55398W        W25213   7.726  32.623   1.731
55399W        W25214   4.817  31.547  13.035
55400W        W25215  10.724  37.454  11.037
55401W        W25216  20.085  23.126  14.025
55402W        W25217  27.595  17.276  14.763
55403W        W25218  40.028   7.784  10.917
55404W        W25219  41.998   8.872   5.125
55405W        W25220  32.530  38.555   3.840
55406W        W25221  19.747  28.464  12.856
55407W        W25222   1.268  15.644  14.824
55408W        W25223  26.954  28.561   4.177
55409W        W25224  22.516  17.166  12.575
55410W        W25225  44.937  37.951   3.660
55411W        W25226  34.062  23.221   0.403
55412W        W25227  21.106   6.264   1.270
55413W        W25228  12.317  36.411   3.275
55414W        W25229  29.462  41.819   2.396
55415W        W25230   9.849  16.193   1.870
55416W        W25231   5.695  33.126  12.060
55417W        W25232  21.068  43.413   2.666
55418W        W25233   1.293  23.043  12.363
55419W        W25234  35.456  26.056  10.932
55420W        W25235  30.007  39.465  13.362
55421W        W25236   2.905  27.447  12.850
55422W        W25237  42.440  28.932  12.456
55423W        W25238  15.580  41.365  10.893
55424W        W25239  18.199   9.344   2.178
55425W        W25240  34.540  29.076   0.800
55426W        W25241  41.827   9.354   0.263
55427W        W25242   0.852  29.154   4.766
55428W        W25243  25.038  37.390   2.861
55429W        W25244  29.575  11.647   2.723
55430W        W25245   3.287  25.006   2.711
55431W        W25246   7.269  36.576   2.892
55432W        W25247   5.337  13.658   1.751
55433W        W25248  10.138   2.430  11.435
55434W        W25249  21.254  43.370  12.970
55435W        W25250  44.407  39.531   5.185
55436W        W25251  26.672   7.722  12.004
55437W        W25252  39.540   5.879   4.326
55438W        W25253  38.392  16.756  10.633
55439W        W25254  42.447  43.942  12.551
55440W        W25255  30.916  37.495   4.327
55441W        W25256   3.823  32.538  11.596
55442W        W25257  24.216   4.922  10.119
55443W        W25258  36.366  36.907  11.957
55444W        W25259  38.344  25.200   2.789
55445W        W25260  24.008   9.296   1.244
55446W        W25261  32.401  37.544  10.979
55447W        W25262  39.481   9.256   4.620
55448W        W25263  11.173   8.830  14.977
55449W        W25264  29.483  26.675  10.974
55450W        W25265  42.784  11.680   4.324
55451W        W25266  17.678  29.657   4.655
55452W        W25267  32.132  21.112   2.857
55453W        W25268   0.772  20.571   0.732
55454W        W25269  33.588   9.191   0.305
55455W        W25270   8.247   2.798   2.874
55456W        W25271  13.788  37.410  13.898
55457W        W25272  26.023  27.480  14.491
55458W        W25273  33.476  16.145   4.700
55459W        W25274   3.284  29.466   0.275
55460W        W25275  36.995  35.022  13.952
55461W        W25276  25.157  44.966   1.398
55462W        W25277  29.603  20.036   2.357
55463W        W25278   9.668  23.542  14.817
55464W        W25279  36.507  27.135   0.437
55465W        W25280  18.135  19.218   2.202
55466W        W25281  31.059  31.004  11.450
55467W        W25282  17.220  24.111   1.351
55468W        W25283  20.610  24.559  12.061
55469W        W25284   8.234  16.220   0.297
55470W        W25285   1.854  23.566  14.441
55471W        W25286  12.694  39.485   0.739
55472W        W25287  11.688  21.171  14.292
55473W        W25288  16.748  24.676  14.994
55474W        W25289  37.882  35.446  13.872
55475W        W25290  35.023  29.660  11.512
55476W        W25291  15.701  43.925  11.915
55477W        W25292  24.975  44.820  13.012
55478W        W25293  40.519  38.973  10.620
55479W        W25294  12.169  23.574   4.209
55480W        W25295  21.135  30.635   0.391
55481W        W25296  33.526   3.415  12.534
55482W        W25297  14.304  16.785  13.843
55483W        W25298  15.667  16.726  13.464
55484W        W25299   7.775  38.009   2.246
55485W        W25300   7.820  39.930   1.726
55486W        W25301  12.799  42.837   1.411
55487W        W25302  13.719   2.457   0.810
55488W        W25303  23.188  37.011   4.690
55489W        W25304  10.694  22.094   3.799
55490W        W25305  42.906  41.933   5.246
55491W        W25306  36.960  41.393  14.388
55492W        W25307  38.360  36.047   1.734
55493W        W25308  36.548   7.860  13.960
55494W        W25309  24.573  32.079   2.317
55495W        W25310  10.841   4.232   0.288
55496W        W25311  42.428  29.937   2.870
55497W        W25312  32.896  39.828   2.797
55498W        W25313  22.159  37.507  10.630
55499W        W25314  25.137  21.541  14.435
55500W        W25315  22.193  43.912   4.237
55501W        W25316  33.058  22.652   3.278
55502W        W25317   1.794  15.742  10.926
55503W        W25318  38.962  19.218  10.969
55504W        W25319   2.958  18.235  13.507
55505W        W25320  29.983  29.988  11.479
55506W        W25321  27.995   3.277   4.808
55507W        W25322   4.887  39.366  13.904
55508W        W25323  10.233  20.661   4.131
55509W        W25324  27.123  38.467  11.407
55510W        W25325  37.455  16.117   3.856
55511W        W25326  41.035  40.840   0.383
55512W        W25327   6.853  10.783  10.978
55513W        W25328  18.169  12.199   1.370
55514W        W25329   8.891   5.364   4.350
55515W        W25330  43.507  17.617  11.058
55516W        W25331  43.876  28.522   3.821
55517W        W25332   3.301  27.481   1.896
55518W        W25333  27.559   0.836   2.272
55519W        W25334  27.453   7.723  13.028
55520W        W25335  31.132  11.194   2.295
55521W        W25336  16.662  20.039  14.876
55522W        W25337   7.219  21.202  13.390
55523W        W25338  11.332  21.602  10.970
55524W        W25339  35.905  36.992  11.979
55525W        W25340  37.977  30.917   0.397
55526W        W25341  15.670  17.663  12.980
55527W        W25342  32.044   0.972   5.279
55528W        W25343  39.931  38.934   1.801
55529W        W25344   7.840  33.903  10.954
55530W        W25345  13.273  40.815   2.201
55531W        W25346  35.079   6.750  13.007
55532W        W25347  35.860  30.503   0.905
55533W        W25348   9.853   5.715   0.875
55534W        W25349  29.568   4.449  10.591
55535W        W25350  19.113   7.223   1.418
55536W        W25351  37.841   8.797   2.343
55537W        W25352  18.216  14.310  10.499
55538W        W25353  22.243  42.489   3.258
55539W        W25354  35.019  42.333   4.163
55540W        W25355  12.310  42.885   1.327
55541W        W25356  43.902  35.949   2.729
55542W        W25357  12.202  18.118  13.330
55543W        W25358  43.861  31.522   0.948
55544W        W25359   7.183  22.718   3.792
55545W        W25360  26.981  41.331  13.417
55546W        W25361   5.371   9.883   1.298
55547W        W25362  24.165  37.930   5.726
55548W        W25363   9.713  37.050   3.657
55549W        W25364  29.606  22.536  10.480
55550W        W25365  10.723  17.625  14.397
55551W        W25366  31.017   4.253   3.772
55552W        W25367  13.204   8.676   1.805
55553W        W25368   4.771  28.986   1.866
55554W        W25369  20.718  13.752  14.929
55555W        W25370   8.235  24.717   4.721
55556W        W25371  12.698   9.878   0.950
55557W        W25372  36.557  23.140   2.689
55558W        W25373  23.648  14.834   3.311
55559W        W25374  42.893  33.083  10.426
55560W        W25375  34.485  27.954   1.294
55561W        W25376  22.192  23.048   4.766
55562W        W25377  40.454   2.946  11.372
55563W        W25378  38.827  39.480  14.772
55564W        W25379  26.682  18.243   0.827
55565W        W25380  35.369  14.774  13.509
55566W        W25381  44.837  42.930  14.298
55567W        W25382  18.160  15.624   2.357
55568W        W25383  12.648   5.802  13.847
55569W        W25384  20.614  24.194   3.288
55570W        W25385   6.288   6.789   1.722
55571W        W25386  16.245   8.323   3.712
55572W        W25387   3.946  36.024   3.264
55573W        W25388  11.701  41.834  13.381
55574W        W25389  17.777  25.470   3.215
55575W        W25390  31.457  11.834   1.777
55576W        W25391  30.498  19.221  14.888
55577W        W25392   7.668  13.317   0.319
55578W        W25393  30.116  19.575  13.959
55579W        W25394  18.775  43.281   3.682
55580W        W25395  28.092   4.375   0.738
55581W        W25396  11.236   9.295  14.844
55582W        W25397  24.165  33.610  13.911
55583W        W25398  22.568  33.423  14.014
55584W        W25399  14.228  30.095   4.343
55585W        W25400   3.946  30.647  13.388
55586W        W25401   9.278   0.882  11.116
55587W        W25402  20.178  44.984  12.565
55588W        W25403   1.883  31.107   4.299
55589W        W25404   1.810  35.886  11.932
55590W        W25405  30.163   7.895   2.890
55591W        W25406  28.631  39.023  10.120
55592W        W25407  42.928  11.136   4.638
55593W        W25408  21.246  16.128   4.747
55594W        W25409  36.462  24.538  12.902
55595W        W25410  44.815   4.268   4.153
55596W        W25411  12.254  17.801   1.375
55597W        W25412  36.872  38.877   4.674
55598W        W25413  25.969  34.582  14.394
55599W        W25414  32.895  38.922  11.372
55600W        W25415  43.504  31.063  13.346
55601W        W25416  11.809  39.409  10.048
55602W        W25417  40.521  19.667  11.601
55603W        W25418  23.655  36.027   2.298
55604W        W25419  44.337  39.910   3.156
55605W        W25420  38.955  17.212   2.810
55606W        W25421  37.936  42.465   1.309
55607W        W25422  12.622  18.565   4.733
55608W        W25423  20.536  34.864   1.368
55609W        W25424   0.252  37.483  11.069
55610W        W25425  28.000  39.933   4.618
55611W        W25426  20.131  30.466   1.695
55612W        W25427  23.128  29.988   3.170
55613W        W25428  25.991  37.996   5.721
55614W        W25429  19.618   9.773  11.605
55615W        W25430   4.858  44.266  13.047
55616W        W25431  42.483  19.225  10.981
55617W        W25432  22.530   1.853   5.290
55618W        W25433   2.289  42.284  12.365
55619W        W25434  21.633   7.406   2.276
55620W        W25435  21.589   2.868  10.999
55621W        W25436  24.548  32.013  14.959
55622W        W25437  42.805  20.174  11.082
55623W        W25438  28.089  14.145  11.439
55624W        W25439  20.582  40.543   0.893
55625W        W25440  25.050  12.204   4.237
55626W        W25441   1.800   3.246  13.848
55627W        W25442  43.776  28.174   0.956
55628W        W25443  12.693  10.809  14.515
55629W        W25444   3.341  17.698   3.634
55630W        W25445   5.908  11.300   4.284
55631W        W25446  36.588  25.558  11.607
55632W        W25447   0.923  31.410   2.391
55633W        W25448  18.162  19.714   3.231
55634W        W25449  13.115  19.661   4.652
55635W        W25450   1.319  12.287  11.484
55636W        W25451   2.950  19.286   2.302
55637W        W25452  17.279  27.477   4.172
55638W        W25453   2.810  27.108  10.433
55639W        W25454  38.543  44.327  10.919
55640W        W25455  21.017  16.758   2.749
55641W        W25456  34.070   4.739  12.559
55642W        W25457  21.676  18.557   4.731
55643W        W25458  12.619  42.460   0.368
55644W        W25459   9.667  40.854  10.890
55645W        W25460  19.195  44.270  12.961
55646W        W25461   3.240  20.086   2.234
55647W        W25462  17.083  24.565  12.891
55648W        W25463  34.449  17.746   4.315
55649W        W25464  13.153  38.962   1.697
55650W        W25465  15.293   0.983  14.972
55651W        W25466  16.232   1.408   2.876
55652W        W25467  21.619  29.617   3.169
55653W        W25468  15.618  39.033   2.880
55654W        W25469  18.161  33.432   0.782
55655W        W25470  41.389  38.395  14.896
55656W        W25471   5.881   2.281  13.059
55657W        W25472   1.446   2.915   4.242
55658W        W25473  42.916  17.606  10.499
55659W        W25474   6.826   2.944   4.719
55660W        W25475  19.205  30.489   3.340
55661W        W25476  11.631   3.295  14.785
55662W        W25477  11.285  19.539  14.830
55663W        W25478   2.374  27.113  12.935
55664W        W25479  41.964  17.677  10.601
55665W        W25480  39.062  15.613   0.289
55666W        W25481  23.087  17.259  10.923
55667W        W25482  40.041  39.317   3.239
55668W        W25483  19.592  40.804   1.889
55669W        W25484  22.730  19.606  11.873
55670W        W25485  39.358  39.485   0.754
55671W        W25486  24.698  21.547   0.475
55672W        W25487   6.766  35.004  12.556
55673W        W25488  30.037  31.533  14.504
55674W        W25489  14.115   4.216   2.298
55675W        W25490   7.761  39.403   9.441
55676W        W25491  15.188  10.171  13.809
55677W        W25492  18.054  10.860  12.870
55678W        W25493  16.219  14.160   0.308
55679W        W25494  22.716  18.077   3.243
55680W        W25495  22.208  35.922   1.742
55681W        W25496  39.533  34.109   1.284
55682W        W25497  11.812  21.209  13.058
55683W        W25498  37.456  13.145  13.890
55684W        W25499  41.969  13.639  12.938
55685W        W25500  44.437  24.079   4.793
55686W        W25501  17.751   5.291  13.032
55687W        W25502  19.579  29.009  14.787
55688W        W25503  31.467   4.312  11.481
55689W        W25504  24.092   2.293  10.435
55690W        W25505  33.881  24.123  14.313
55691W        W25506  32.469  18.112  13.980
55692W        W25507   4.856  17.154   2.208
55693W        W25508   5.716   0.923   4.732
55694W        W25509   4.822  17.090  10.557
55695W        W25510  10.344  24.173   1.310
55696W        W25511   8.224  38.377  12.023
55697W        W25512  32.906  24.166  11.012
55698W        W25513  40.963  35.444   0.370
55699W        W25514   2.325   0.970   1.733
55700W        W25515   4.295  11.229   3.702
55701W        W25516  31.998   4.259   4.623
55702W        W25517  41.507   6.227  12.034
55703W        W25518  12.838  31.553  12.949
55704W        W25519  31.933  24.550   0.931
55705W        W25520  27.094  31.408  14.284
55706W        W25521  16.176  30.110   2.862
55707W        W25522  38.442  17.137   2.857
55708W        W25523   0.359   0.966   0.463
55709W        W25524  24.525  21.147  13.408
55710W        W25525  16.781  38.413  13.542
55711W        W25526  20.152   6.247   1.356
55712W        W25527  42.424  11.246  14.315
55713W        W25528   6.246  10.648   9.938
55714W        W25529  27.676  28.561   2.205
55715W        W25530  32.636  30.546  13.341
55716W        W25531   0.918  33.466   5.260
55717W        W25532  38.975  33.401   3.368
55718W        W25533  38.349  26.581  11.946
55719W        W25534  33.501  36.410  11.084
55720W        W25535   1.858  41.321   2.308
55721W        W25536  35.042   0.266   4.242
55722W        W25537   4.873  28.063  14.902
55723W        W25538  16.617  13.172  13.536
55724W        W25539  39.319  17.671   3.191
55725W        W25540  25.628  34.095  12.019
55726W        W25541  13.682  21.179  12.020
55727W        W25542   6.688  32.916  11.592
55728W        W25543  34.967  13.193   3.272
55729W        W25544  20.204  17.612   4.143
55730W        W25545  44.284  40.807  13.423
55731W        W25546  21.519  36.041   4.829
55732W        W25547  18.611  12.789  14.415
55733W        W25548   9.702  44.773  10.981
55734W        W25549  13.280  35.067   4.631
55735W        W25550  19.054  13.183  11.486
55736W        W25551  36.875  33.499  11.612
55737W        W25552  22.213  31.470   4.605
55738W        W25553  24.541  10.663   1.327
55739W        W25554   5.866  21.193   4.309
55740W        W25555  28.046  19.227  10.455
55741W        W25556  22.610   8.213  11.010
55742W        W25557   1.350   0.401  11.593
55743W        W25558   2.820  41.443  14.297
55744W        W25559  20.666  16.731  12.914
55745W        W25560  21.709  26.188   3.385
55746W        W25561  40.826  23.679   1.244
55747W        W25562  27.100   8.227   3.170
55748W        W25563   6.190  26.179   2.732
55749W        W25564  25.533   2.743   0.330
55750W        W25565  43.010  38.440   2.265
55751W        W25566  40.833  20.611  14.944
55752W        W25567   4.355  41.831  10.583
55753W        W25568  40.951  22.739  10.536
55754W        W25569  38.026  41.992  11.465
55755W        W25570  10.150  12.175  13.400
55756W        W25571  18.757   8.402  13.926
55757W        W25572  17.725  39.976  13.030
55758W        W25573  34.116  30.476  13.425
55759W        W25574  25.995  37.078   1.752
55760W        W25575  12.207  36.087  10.915
55761W        W25576   7.900  28.185   2.726
55762W        W25577  12.789   3.338  12.971
55763W        W25578  23.044  39.902  13.340
55764W        W25579  41.305  28.660   1.313
55765W        W25580  15.668   1.387  13.907
55766W        W25581  18.253  22.032  10.514
55767W        W25582  33.995  11.752  13.517
55768W        W25583  30.155   5.308  12.993
55769W        W25584  33.495  24.714  11.604
55770W        W25585  20.032  19.570  11.104
55771W        W25586  42.481  19.180  12.470
55772W        W25587  42.464  35.534  14.318
55773W        W25588  30.532  11.322  12.481
55774W        W25589  32.055  22.689   3.810
55775W        W25590  24.185  31.528   1.793
55776W        W25591  43.910  20.541  10.485
55777W        W25592  43.454  29.951  13.061
55778W        W25593  32.426  26.154  13.916
55779W        W25594   0.446  15.642   3.841
55780W        W25595   7.730  14.314   3.387
55781W        W25596   0.352  26.622  14.381
55782W        W25597  22.670  17.260   1.819
55783W        W25598  11.201  33.946  12.349
55784W        W25599  43.000  37.439   3.665
55785W        W25600  30.515  24.601   1.406
55786W        W25601  18.782  25.054  11.600
55787W        W25602  11.233   4.866   3.850
55788W        W25603   2.815   6.251  11.979
55789W        W25604  16.134  12.845   1.265
55790W        W25605  20.094  28.565  13.966
55791W        W25606   5.701  14.195  11.900
55792W        W25607  35.040  25.994   4.282
55793W        W25608  14.826  40.917   1.361
55794W        W25609  40.902   1.863   1.247
55795W        W25610  44.794  10.644  13.902
55796W        W25611  11.361  15.308   3.792
55797W        W25612  21.714  43.341   3.824
55798W        W25613  44.398  38.017   2.666
55799W        W25614   0.374   1.871   3.246
55800W        W25615  43.880  20.579  11.451
55801W        W25616  30.143   6.268   4.143
55802W        W25617  28.973  14.589  10.445
55803W        W25618   2.869  32.422  11.022
55804W        W25619   3.317  37.953  12.452
55805W        W25620   2.730  11.676   2.796
55806W        W25621  41.528  42.824  14.865
55807W        W25622  12.144  14.799   4.213
55808W        W25623   4.704  35.371   3.748
55809W        W25624  20.053   7.801   0.386
55810W        W25625  30.455   7.217   3.148
55811W        W25626  20.711  25.149   0.738
55812W        W25627   9.374   2.387  12.391
55813W        W25628   2.780  19.763  13.444
55814W        W25629  12.804   9.360  11.522
55815W        W25630   3.759  32.970  10.471
55816W        W25631  21.518  34.442  12.087
55817W        W25632  37.527  27.458   4.771
55818W        W25633   4.343   9.156   1.754
55819W        W25634  44.285  41.817   4.682
55820W        W25635  38.426   2.915  12.369
55821W        W25636  23.003  17.212  14.867
55822W        W25637  26.672  23.112   1.287
55823W        W25638  18.274  38.449  11.028
55824W        W25639  12.207   7.404  11.419
55825W        W25640  24.548  33.084  12.978
55826W        W25641   5.206  21.230   1.257
55827W        W25642  37.382   2.381  11.556
55828W        W25643  34.982  18.567   0.782
55829W        W25644   5.362  42.778   3.371
55830W        W25645   5.718  41.521   3.695
55831W        W25646  16.318  20.643  12.430
55832W        W25647  43.978   1.274  10.595
55833W        W25648  20.119  24.229  13.375
55834W        W25649   6.294  42.442  11.888
55835W        W25650  24.118  13.268   0.248
55836W        W25651  19.609  43.005  12.043
55837W        W25652  21.581  30.449  12.847
55838W        W25653   3.432  21.101   0.449
55839W        W25654  38.996  10.648  11.509
55840W        W25655   2.344  39.906  12.958
55841W        W25656  41.441  25.045  14.508
55842W        W25657  35.467  29.530   0.854
55843W        W25658  12.146  24.991  10.449
55844W        W25659  20.043  39.560   4.311
55845W        W25660  39.888   2.285   0.822
55846W        W25661  17.801  40.369   1.374
55847W        W25662  32.415  14.732  13.954
55848W        W25663  43.935  11.221   0.803
55849W        W25664  12.817  29.534   3.708
55850W        W25665   8.364  17.644   2.869
55851W        W25666  30.415  18.287   3.209
55852W        W25667  42.842  14.244   1.758
55853W        W25668  17.572  43.928   2.848
55854W        W25669   7.808  20.702  11.445
55855W        W25670  33.904  26.588  14.299
55856W        W25671  32.600  24.149  11.049
55857W        W25672  35.425  40.967   2.216
55858W        W25673   0.875  41.532   1.831
55859W        W25674  22.509  38.480  11.062
55860W        W25675  27.135   7.377   1.216
55861W        W25676  33.613  27.539  12.884
55862W        W25677  15.229  18.651   2.357
55863W        W25678   4.862  16.205  14.871
55864W        W25679  27.674   1.475  10.474
55865W        W25680  32.625  33.498  13.413
55866W        W25681  10.177  31.073  11.452
55867W        W25682  39.445  15.326   1.766
55868W        W25683   9.153  16.108   0.851
55869W        W25684  23.709  44.461  14.883
55870W        W25685  35.019   5.245  14.303
55871W        W25686  35.879  33.388   5.151
55872W        W25687  38.564  14.698   3.272
55873W        W25688  11.729   3.248  10.890
55874W        W25689  16.253   2.247  12.410
55875W        W25690   2.786   8.742   4.757
55876W        W25691  24.230  35.551   3.373
55877W        W25692  31.534  38.336   1.320
55878W        W25693  10.207  40.981  13.064
55879W        W25694   3.295  22.627   4.314
55880W        W25695  22.677  12.733  14.338
55881W        W25696  32.988   8.204   4.741
55882W        W25697  37.893  28.982   0.388
55883W        W25698  30.066  34.376  12.448
55884W        W25699  40.861  27.542  12.094
55885W        W25700  11.280  40.971   1.338
55886W        W25701  16.752  39.920  13.028
55887W        W25702  18.682   6.705  12.923
55888W        W25703  21.574  34.915  11.560
55889W        W25704  16.079  17.097   0.478
55890W        W25705  36.843  35.088   4.257
55891W        W25706  44.991  43.494   1.717
55892W        W25707  39.368  22.589   0.349
55893W        W25708  22.512  18.258  10.908
55894W        W25709  37.506  37.969   3.385
55895W        W25710   3.262  34.441   1.779
55896W        W25711  39.520  15.184  13.882
55897W        W25712   4.430  10.157  11.094
55898W        W25713  24.539   8.254  10.908
55899W        W25714   5.737  42.003  13.397
55900W        W25715   9.701  44.489  14.995
55901W        W25716  31.585  27.596  11.530
55902W        W25717   6.229  40.456  10.940
55903W        W25718  11.317  14.318   5.314
55904W        W25719   9.679  24.566   3.726
55905W        W25720  23.603   9.168  12.387
55906W        W25721   7.387  35.044  11.453
55907W        W25722  21.675  43.925  10.553
55908W        W25723  43.778   1.917   0.806
55909W        W25724  38.476  40.337  10.608
55910W        W25725  14.809  41.884   3.217
55911W        W25726  10.700  40.448  12.830
55912W        W25727   7.274  27.620   0.833
55913W        W25728  42.803  33.401   4.646
55914W        W25729  34.987  30.132  14.832
55915W        W25730  32.412   1.451  10.634
55916W        W25731  41.873  44.342   3.860
55917W        W25732  24.112  24.480  12.075
55918W        W25733  14.833  44.798  11.510
55919W        W25734  18.283  38.873  14.408
55920W        W25735  16.674  28.542   0.327
55921W        W25736  41.303  26.481  14.493
55922W        W25737  13.670   2.958   0.358
55923W        W25738  28.059  18.568   2.226
55924W        W25739  19.731  21.743  13.510
55925W        W25740  36.402  41.993   1.424
55926W        W25741  12.808  36.999   3.316
55927W        W25742   5.778   5.396   2.338
55928W        W25743   1.334  40.371  13.999
55929W        W25744  19.654  14.803   2.890
55930W        W25745  11.128   5.773  14.771
55931W        W25746  12.808  29.488  12.563
55932W        W25747   0.377  32.030   0.279
55933W        W25748  36.059  12.653   3.201
55934W        W25749  37.861  18.297  11.423
55935W        W25750  39.825  11.340   0.806
55936W        W25751  15.287   5.221  11.051
55937W        W25752   7.217   6.698   4.740
55938W        W25753  30.061  17.787  10.637
55939W        W25754  12.195  38.995  13.931
55940W        W25755  27.175  12.302  10.628
55941W        W25756   1.453   0.881  12.409
55942W        W25757   3.895  36.847   1.753
55943W        W25758  22.180  37.444   0.897
55944W        W25759  12.796  24.530   2.815
55945W        W25760  32.513  11.158  14.331
55946W        W25761  42.364   4.407  13.448
55947W        W25762  34.421   9.386   4.144
55948W        W25763   6.297  41.889   3.690
55949W        W25764  33.486  13.193  11.607
55950W        W25765   1.947  39.969  14.002
55951W        W25766  21.689   3.261  14.942
55952W        W25767   2.435  21.253   9.953
55953W        W25768  23.055  27.609   0.354
55954W        W25769   0.291  38.487  11.408
55955W        W25770   0.337  38.951  11.932
55956W        W25771  42.502  32.618   4.700
55957W        W25772  41.815  27.100  13.993
55958W        W25773  42.833  38.953   4.684
55959W        W25774  36.990  40.811   2.839
55960W        W25775  35.500  12.197  13.994
55961W        W25776  43.433  21.177   1.923
55962W        W25777  38.509  23.048   0.295
55963W        W25778  39.384  24.630  10.622
55964W        W25779  33.927  12.183  14.774
55965W        W25780  25.513   7.386  14.285
55966W        W25781  10.306  23.012   4.730
55967W        W25782   6.901  12.723  10.440
55968W        W25783  10.664   6.273  14.832
55969W        W25784  32.044  28.500   1.805
55970W        W25785  24.703   8.834  10.893
55971W        W25786  11.761  15.090  14.418
55972W        W25787   9.834  37.945  10.552
55973W        W25788  22.145   9.817  12.426
55974W        W25789   5.881  29.162   1.439
55975W        W25790  28.976  35.950   3.809
55976W        W25791  29.532  38.074  14.316
55977W        W25792   5.222   4.282  12.378
55978W        W25793  27.124  27.636  13.052
55979W        W25794  30.436  23.542   3.775
55980W        W25795   8.250  25.049  14.434
55981W        W25796  31.495  41.511  11.582
55982W        W25797  37.893  35.967   1.254
55983W        W25798  37.841  22.743   3.196
55984W        W25799  26.680  24.550   0.824
55985W        W25800  19.726  20.738  11.964
55986W        W25801  18.645   0.261  10.577
55987W        W25802  24.612   4.922  12.919
55988W        W25803  26.974  30.000  14.783
55989W        W25804   4.367  28.154  14.901
55990W        W25805  39.470  27.607  12.829
55991W        W25806  18.549  44.412   5.319
55992W        W25807  35.497  21.053   3.286
55993W        W25808  41.463  13.209  11.464
55994W        W25809  32.504  21.537   1.407
55995W        W25810  45.000  41.533   1.218
55996W        W25811   1.957  30.565   3.640
55997W        W25812  20.726  25.570   3.328
55998W        W25813   0.452  30.090  10.932
55999W        W25814   2.295  39.470   3.787
56000W        W25815  39.320  25.526  14.454
56001W        W25816   3.924  27.132   2.865
56002W        W25817  21.221  43.404   5.084
56003W        W25818  29.125  38.545  12.348
56004W        W25819  23.625  16.734  13.937
56005W        W25820  18.750  19.677  14.474
56006W        W25821  23.623  33.070  11.483
56007W        W25822   4.307  16.131  13.369
56008W        W25823  30.570  16.811  12.888
56009W        W25824  29.655  20.174   2.771
56010W        W25825   7.182   6.312   3.362
56011W        W25826   4.830  31.070   1.903
56012W        W25827   2.920   9.159  10.572
56013W        W25828   4.314  43.871   3.663
56014W        W25829  40.368  15.285  11.943
56015W        W25830  39.954  12.801  12.542
56016W        W25831  12.840  27.580  11.000
56017W        W25832  41.425   6.337  10.916
56018W        W25833  30.626   7.275   0.934
56019W        W25834   1.911   5.354   4.128
56020W        W25835  23.653  29.440  13.546
56021W        W25836  41.906  33.380   4.800
56022W        W25837  26.052  18.639   1.793
56023W        W25838  19.539   1.269   4.293
56024W        W25839   9.799  14.188  14.951
56025W        W25840  24.995  16.582  13.514
56026W        W25841  11.635  18.295   0.382
56027W        W25842  10.703   1.298   4.278
56028W        W25843  32.960  31.530  12.371
56029W        W25844   9.317  35.517  14.002
56030W        W25845  24.976  20.257   3.305
56031W        W25846  17.740  31.932  11.039
56032W        W25847  17.560   3.449   4.679
56033W        W25848  19.604   9.871   1.916
56034W        W25849  13.206  26.473   5.209
56035W        W25850  30.961  21.107  10.956
56036W        W25851  21.131  44.006  12.072
56037W        W25852   6.894  16.668  12.005
56038W        W25853  14.311  35.999   1.320
56039W        W25854   4.883  40.025   4.175
56040W        W25855  43.953  36.081   4.802
56041W        W25856  39.942  25.542  14.992
56042W        W25857  44.285  42.955  10.494
56043W        W25858  19.094  40.399  14.867
56044W        W25859  12.723  29.067  10.537
56045W        W25860  36.439  34.977   3.335
56046W        W25861  35.061  28.506   3.693
56047W        W25862   3.257  40.538  11.376
56048W        W25863  20.252  10.377   2.885
56049W        W25864  44.438  34.060  11.972
56050W        W25865  38.058  27.054  13.472
56051W        W25866  28.470  31.569  12.094
56052W        W25867   8.742  10.702   0.357
56053W        W25868  10.184  28.615   2.753
56054W        W25869  24.132  33.876  14.514
56055W        W25870  39.453  30.909   0.439
56056W        W25871  10.375  19.244  10.477
56057W        W25872  21.260  11.762   3.665
56058W        W25873  35.419  41.019   4.302
56059W        W25874  31.036  27.053  12.554
56060W        W25875  24.211  37.491  13.524
56061W        W25876  17.636   3.909   0.942
56062W        W25877  16.210  11.673   0.401
56063W        W25878  15.654   1.742   4.277
56064W        W25879   2.290  18.296  10.581
56065W        W25880  22.607  16.274   4.694
56066W        W25881  22.161   4.906  12.958
56067W        W25882  32.951  25.480  12.003
56068W        W25883   1.452  13.640   1.793
56069W        W25884  21.030   6.366   0.479
56070W        W25885  18.219  25.594  10.574
56071W        W25886  18.754  20.547  10.489
56072W        W25887  23.708   8.255   2.781
56073W        W25888   0.393  32.402  14.951
56074W        W25889  12.301  30.621   0.372
56075W        W25890  40.311   5.197   0.288
56076W        W25891  39.446   5.376  11.963
56077W        W25892   0.299  40.892  11.113
56078W        W25893  42.807  14.239   4.717
56079W        W25894  35.521   9.733   1.260
56080W        W25895  27.026  18.113   1.220
56081W        W25896  13.242   8.870   2.294
56082W        W25897  40.001  23.004   4.315
56083W        W25898   0.980  36.000  13.488
56084W        W25899  31.438  26.193   3.301
56085W        W25900   2.925  20.074  12.001
56086W        W25901  20.628  42.011   0.437
56087W        W25902  31.554  23.673   3.166
56088W        W25903  20.225  22.230   3.634
56089W        W25904  16.784  10.293   3.162
56090W        W25905  35.429  27.572  10.511
56091W        W25906  27.035  44.898  12.510
56092W        W25907  29.624  12.320   4.624
56093W        W25908  27.448  36.025  14.375
56094W        W25909  34.997  34.094  12.381
56095W        W25910  17.644  11.258  12.395
56096W        W25911   3.268  24.721   0.895
56097W        W25912  34.095  30.436   4.662
56098W        W25913  44.851  32.085   4.247
56099W        W25914  24.557  44.357  13.841
56100W        W25915   2.955  35.962   3.231
56101W        W25916  20.723  43.433   3.153
56102W        W25917  18.697   8.884   4.235
56103W        W25918  10.204  23.205  10.902
56104W        W25919  12.743  33.432  10.939
56105W        W25920  33.447  16.183   4.213
56106W        W25921  41.035  28.615   4.210
56107W        W25922  41.790  23.223  11.016
56108W        W25923  19.212  44.997  12.911
56109W        W25924  44.336  31.538  11.378
56110W        W25925  24.990  24.183   3.315
56111W        W25926   6.367  20.586   1.766
56112W        W25927  14.304  14.235   3.234
56113W        W25928   7.844  28.149  11.394
56114W        W25929  34.973  44.480  13.508
56115W        W25930  12.255  22.718  14.383
56116W        W25931  34.565   8.257  13.532
56117W        W25932  18.286   3.780   0.349
56118W        W25933  16.250  32.520   0.951
56119W        W25934  35.509   5.361   3.330
56120W        W25935  34.428  33.607   0.931
56121W        W25936   7.759  22.106   3.282
56122W        W25937  28.633  30.462  13.052
56123W        W25938  38.860  17.664  13.948
56124W        W25939  33.419   4.910   2.309
56125W        W25940   5.261  26.058  10.644
56126W        W25941  16.720  38.914  14.894
56127W        W25942  22.036   9.699  11.466
56128W        W25943  12.704   4.364  12.377
56129W        W25944  28.991   3.843  14.781
56130W        W25945   8.700  42.422  11.856
56131W        W25946  10.813  29.548   4.127
56132W        W25947  30.455  42.928   0.470
56133W        W25948  42.439  42.961  12.461
56134W        W25949   2.317   1.739   3.707
56135W        W25950  38.983   3.819   0.361
56136W        W25951  24.110  21.073   2.197
56137W        W25952  40.875  20.697   1.243
56138W        W25953  10.177  13.177   0.958
56139W        W25954  15.220   7.247  12.850
56140W        W25955  20.207  38.952  12.968
56141W        W25956  20.189  27.478  10.959
56142W        W25957  13.732  10.383   2.704
56143W        W25958  25.566  31.972   1.764
56144W        W25959  33.033  28.457   2.763
56145W        W25960   9.830  31.061  14.819
56146W        W25961   0.269  18.657   1.310
56147W        W25962  43.888  17.703   0.742
56148W        W25963  18.180  10.236   0.338
56149W        W25964   6.841  22.722  13.415
56150W        W25965  37.548   5.312  14.917
56151W        W25966  19.711  43.339  13.885
56152W        W25967  20.092  38.521  12.904
56153W        W25968  18.588  16.091   2.225
56154W        W25969  30.438   0.920  10.454
56155W        W25970  25.608   6.699   3.175
56156W        W25971  30.922   2.306  11.090
56157W        W25972  36.066  18.188  14.809
56158W        W25973   9.185  31.428   4.745
56159W        W25974  37.897  32.423   0.868
56160W        W25975   9.793  13.174  14.010
56161W        W25976   3.216  43.773   0.852
56162W        W25977  39.818  39.045   4.168
56163W        W25978  42.334  16.117  12.532
56164W        W25979  37.540  18.156  14.969
56165W        W25980  18.634  41.393   3.175
56166W        W25981  37.525   1.474   0.836
56167W        W25982  24.008  20.585  11.538
56168W        W25983  35.012   4.331  14.479
56169W        W25984  44.932  13.329  13.890
56170W        W25985  39.952  26.623   0.829
56171W        W25986  17.671  35.366   2.850
56172W        W25987  13.619  33.951  13.361
56173W        W25988  31.026  32.615   2.849
56174W        W25989  26.619  27.940   4.292
56175W        W25990  29.604  13.144  10.573
56176W        W25991   6.232  38.383  10.499
56177W        W25992  31.004  26.038  13.868
56178W        W25993  43.807  24.190  13.410
56179W        W25994  27.687   2.889   0.817
56180W        W25995  19.581  18.761   4.646
56181W        W25996  40.380   4.421  10.929
56182W        W25997   1.940  19.665  10.413
56183W        W25998   4.400  16.757   4.199
56184W        W25999  31.086  24.559  11.932
56185W        W26000  36.425  19.617   4.680
56186W        W26001  36.907  17.717   2.307
56187W        W26002  18.218  13.663  13.836
56188W        W26003  25.162   6.840  14.459
56189W        W26004  26.665  27.645   4.343
56190W        W26005  44.307  19.152  11.112
56191W        W26006  27.133  38.931   2.721
56192W        W26007  28.012  26.135   4.809
56193W        W26008  42.474  14.135  14.411
56194W        W26009  18.626  25.021   5.293
56195W        W26010  41.969  13.164   4.195
56196W        W26011  31.502  23.496  12.963
56197W        W26012   3.331  35.923  14.968
56198W        W26013   8.733  27.528  11.527
56199W        W26014  16.753  29.465  14.478
56200W        W26015  37.480   2.916   3.196
56201W        W26016  33.065  19.184   0.251
56202W        W26017  35.970   3.771   0.385
56203W        W26018  19.679   9.388  14.500
56204W        W26019   3.797   3.738   0.279
56205W        W26020  35.883  12.180  14.833
56206W        W26021   9.705  33.074   1.742
56207W        W26022   2.348  22.122  13.836
56208W        W26023  37.083  15.149   0.478
56209W        W26024  43.475  11.350   4.813
56210W        W26025  41.443  23.093  10.461
56211W        W26026  33.421  25.001   3.386
56212W        W26027  42.021  31.903   0.743
56213W        W26028  31.024  43.819  11.927
56214W        W26029  13.617  27.511  14.939
56215W        W26030  41.526  12.787  13.309
56216W        W26031   7.749  12.358   2.193
56217W        W26032  25.056  10.301  12.909
56218W        W26033  28.127  33.437   4.627
56219W        W26034   2.755  13.841   3.649
56220W        W26035  36.370  42.868   3.347
56221W        W26036  28.954  37.862   4.624
56222W        W26037   2.857   1.816  10.571
56223W        W26038  38.829  19.250   3.173
56224W        W26039  22.707  27.022   3.702
56225W        W26040  10.379  18.568  10.990
56226W        W26041   8.878  40.911   1.242
56227W        W26042  12.817  39.413   0.463
56228W        W26043  26.593   7.304  12.445
56229W        W26044  36.041  13.154  13.835
56230W        W26045   7.885  24.021   3.244
56231W        W26046  13.842  36.567   3.671
56232W        W26047   7.325  29.937  10.940
56233W        W26048  40.983  23.709  13.844
56234W        W26049  34.455  38.541  10.553
56235W        W26050  33.084  44.968  12.021
56236W        W26051  41.014  22.525  14.890
56237W        W26052  26.580  34.966  11.934
56238W        W26053  28.459  13.132   1.227
56239W        W26054   2.430  28.038   0.268
56240W        W26055  31.907  41.310  13.473
56241W        W26056  43.894  37.028   0.914
56242W        W26057  12.738   5.875  12.083
56243W        W26058  31.044  21.754   0.811
56244W        W26059  32.976  22.017  13.345
56245W        W26060  31.591  26.540  11.904
56246W        W26061  33.110  41.332   3.355
56247W        W26062   4.902  23.599   3.335
56248W        W26063   5.437   9.200  14.462
56249W        W26064  22.138   9.743  10.903
56250W        W26065  23.062  43.937   2.883
56251W        W26066   7.222  26.499  10.426
56252W        W26067   2.894  39.342  11.472
56253W        W26068  16.605   2.795  12.973
56254W        W26069  22.713  40.365   0.317
56255W        W26070   6.284  36.379   3.748
56256W        W26071  25.182   6.884   1.864
56257W        W26072  43.852  20.714  14.304
56258W        W26073  32.939  22.166  11.072
56259W        W26074  36.878  11.289   4.638
56260W        W26075  41.874   8.698  14.362
56261W        W26076  18.754   1.754  10.071
56262W        W26077   3.336  41.500   3.682
56263W        W26078   5.883   8.218  11.026
56264W        W26079  31.044  20.080  10.543
56265W        W26080  10.870   1.297   1.368
56266W        W26081  38.436  39.968   4.655
56267W        W26082   8.384  34.933   0.967
56268W        W26083  16.229   4.883  12.997
56269W        W26084  42.936  33.451  11.500
56270W        W26085  14.291  16.228  12.426
56271W        W26086  15.821  13.347  12.377
56272W        W26087  22.711   8.852   4.738
56273W        W26088  22.092  40.919  11.577
56274W        W26089   6.800   8.241  12.576
56275W        W26090   5.360   9.226   2.231
56276W        W26091  26.466   6.833  14.345
56277W        W26092  37.847   3.933  13.542
56278W        W26093   1.764  38.353   4.756
56279W        W26094   0.324  33.103   0.401
56280W        W26095  24.078  19.173   3.732
56281W        W26096   1.932  10.232   4.312
56282W        W26097  17.151  12.133   1.876
56283W        W26098   7.834   0.947   4.749
56284W        W26099  16.102  12.234   1.291
56285W        W26100  29.452  29.949  14.982
56286W        W26101  36.039  17.632  12.005
56287W        W26102   2.926  42.288  10.501
56288W        W26103  44.355   1.858  10.418
56289W        W26104  12.360  23.119   3.678
56290W        W26105  42.827  37.549  11.980
56291W        W26106   1.862  29.574   4.311
56292W        W26107  43.407   1.416  12.025
56293W        W26108  37.054  34.991  10.414
56294W        W26109  40.905  19.731  13.398
56295W        W26110  42.423   4.786   3.253
56296W        W26111  24.132  37.981  10.931
56297W        W26112  11.748  33.572  11.566
56298W        W26113   1.878  43.400  13.968
56299W        W26114  36.463  15.649  13.861
56300W        W26115  11.663  36.854   2.887
56301W        W26116  17.260  35.483  13.905
56302W        W26117  15.640  31.502   1.268
56303W        W26118  31.010  30.643   2.708
56304W        W26119   2.756  38.905   3.743
56305W        W26120  25.986  21.667   2.825
56306W        W26121  23.004  31.500   2.852
56307W        W26122  29.077  26.117  12.092
56308W        W26123  17.760  23.703  10.530
56309W        W26124  23.063  30.054   1.795
56310W        W26125   6.876  32.435   1.717
56311W        W26126  12.266  25.092   1.301
56312W        W26127  42.510  36.478  13.006
56313W        W26128  22.153  18.617   3.693
56314W        W26129   9.759  21.181  10.910
56315W        W26130   6.404  18.788  10.934
56316W        W26131  10.299  18.267  11.115
56317W        W26132  12.150  35.445   0.945
56318W        W26133  12.705  14.154   2.788
56319W        W26134  32.627  23.041   1.287
56320W        W26135  22.617  44.854   3.719
56321W        W26136   7.341   2.410   0.853
56322W        W26137   3.822  42.787   1.874
56323W        W26138   5.833   1.844  11.506
56324W        W26139  41.944  12.650  10.522
56325W        W26140  28.634   3.286   2.337
56326W        W26141   2.339   0.262  13.822
56327W        W26142  23.563  15.245   0.469
56328W        W26143  22.103  27.619  13.859
56329W        W26144  23.609  19.555  10.960
56330W        W26145  18.643   5.228  12.520
56331W        W26146  10.181  34.891  13.797
56332W        W26147  14.623  24.226   3.287
56333W        W26148  11.688   2.370  11.861
56334W        W26149  42.380  38.032   2.818
56335W        W26150  27.079  32.999  13.531
56336W        W26151  31.536  29.423   4.278
56337W        W26152   9.261   0.376  14.010
56338W        W26153  33.497  17.730  10.917
56339W        W26154  38.385  26.026  14.437
56340W        W26155   9.210  21.071   9.986
56341W        W26156   4.799   9.244  12.825
56342W        W26157  22.575   5.398   4.322
56343W        W26158  28.124   9.836   1.914
56344W        W26159   8.889  18.087  12.027
56345W        W26160  39.367  12.814   4.738
56346W        W26161  39.993  33.042   1.774
56347W        W26162  12.193   5.890  12.848
56348W        W26163  21.021  32.133   4.704
56349W        W26164   1.416  32.521  11.411
56350W        W26165  25.679  29.476   0.417
56351W        W26166  21.727   5.224   3.286
56352W        W26167  28.474  30.968  12.025
56353W        W26168  31.636  14.819   1.247
56354W        W26169  25.091  29.502  11.894
56355W        W26170  19.707  15.257  10.901
56356W        W26171  26.547   5.376  12.543
56357W        W26172  39.009   1.893   1.370
56358W        W26173  37.381  23.550   1.258
56359W        W26174  42.793  39.052  12.896
56360W        W26175  20.678  28.121   3.346
56361W        W26176  26.500   8.267   4.779
56362W        W26177  32.033  35.991   1.753
56363W        W26178  38.482  30.520  10.410
56364W        W26179  16.692   6.845   2.786
56365W        W26180  40.347  17.077  10.595
56366W        W26181  20.726  36.493   3.656
56367W        W26182   2.799  37.873   3.158
56368W        W26183  39.846   2.958  12.904
56369W        W26184  30.961  25.189   0.267
56370W        W26185  13.237  43.416   2.315
56371W        W26186  16.139   0.946  13.494
56372W        W26187  43.459  27.534  14.993
56373W        W26188   2.433   3.916   1.762
56374W        W26189  13.775  44.962   3.695
56375W        W26190  12.673   8.755  14.875
56376W        W26191  40.986  10.285   0.813
56377W        W26192   3.903  22.066  11.088
56378W        W26193  20.599  21.580  12.352
56379W        W26194  26.578  40.506  11.070
56380W        W26195  17.657  10.704   4.829
56381W        W26196  32.631  10.162   3.156
56382W        W26197  43.461  34.971  13.520
56383W        W26198  39.376  24.672  11.856
56384W        W26199  19.181   6.706  12.940
56385W        W26200   8.168  14.746   4.607
56386W        W26201  19.617  13.624   4.292
56387W        W26202  15.599  37.907   1.799
56388W        W26203  24.993  44.877   0.279
56389W        W26204   6.269  36.935   1.446
56390W        W26205   8.759   7.345  12.900
56391W        W26206  29.985  15.659  13.487
56392W        W26207  24.161   8.810  14.415
56393W        W26208  11.670  17.560  13.854
56394W        W26209   1.899  14.277  14.326
56395W        W26210  16.588  19.537  14.327
56396W        W26211  19.641  10.871  10.999
56397W        W26212  26.091  23.558  14.881
56398W        W26213  28.160  34.411  11.557
56399W        W26214   4.889  13.662  12.950
56400W        W26215   9.773  24.676   4.237
56401W        W26216  11.326   3.943  12.496
56402W        W26217  17.602   4.799   0.458
56403W        W26218  41.995  35.999  13.007
56404W        W26219  20.642  19.229   2.179
56405W        W26220  44.370  23.176   4.686
56406W        W26221  15.683   5.833   2.708
56407W        W26222  26.127   0.341  10.995
56408W        W26223  16.084  41.334   1.727
56409W        W26224  26.666   8.832   4.719
56410W        W26225  10.212  19.690  14.015
56411W        W26226   6.306  43.988  14.009
56412W        W26227  12.266   7.765  14.400
56413W        W26228   6.691   4.735  11.409
56414W        W26229  41.894   3.935   2.324
56415W        W26230  36.080  10.306  12.558
56416W        W26231  11.682  30.911  12.011
56417W        W26232   8.263   2.342  13.063
56418W        W26233  39.990  18.125   0.357
56419W        W26234   9.318  40.985  13.040
56420W        W26235  17.765  30.153   1.822
56421W        W26236  21.631  27.142  12.432
56422W        W26237   8.832  23.067   1.755
56423W        W26238   8.866  27.172   2.401
56424W        W26239   3.292  22.537  12.351
56425W        W26240  18.082  41.929   0.898
56426W        W26241  14.777  20.250  12.397
56427W        W26242  29.666  20.749   2.847
56428W        W26243  33.399  44.990  12.577
56429W        W26244  29.663   6.920   2.183
56430W        W26245  29.068  22.067  11.961
56431W        W26246   2.446  32.033   9.944
56432W        W26247  37.397  36.492   0.933
56433W        W26248  13.835  17.662   3.234
56434W        W26249  24.217  34.389   4.186
56435W        W26250  11.234   6.686  12.526
56436W        W26251  31.033   6.212   0.845
56437W        W26252  10.722  18.078   1.429
56438W        W26253  33.577  32.569  13.874
56439W        W26254  16.583   8.827   0.830
56440W        W26255  35.567  12.797   0.302
56441W        W26256  28.498   0.494   2.680
56442W        W26257  32.483  18.272   1.431
56443W        W26258  14.708   3.461  12.960
56444W        W26259  31.553   9.818  12.000
56445W        W26260  20.768   1.887  14.398
56446W        W26261   7.679  23.989   1.802
56447W        W26262  37.886  19.640   3.231
56448W        W26263   0.249  21.235   5.093
56449W        W26264  10.233   9.347   4.809
56450W        W26265  14.795  23.688  10.538
56451W        W26266  39.452  31.569  10.564
56452W        W26267  24.019  12.680   4.169
56453W        W26268  20.218   5.358   4.675
56454W        W26269  25.053  41.459   0.922
56455W        W26270  44.429  34.503  13.539
56456W        W26271   8.392   9.844   3.839
56457W        W26272   6.685  36.933   2.836
56458W        W26273  32.618  43.881   0.887
56459W        W26274  42.395  15.659   3.340
56460W        W26275  40.847  13.105  10.999
56461W        W26276  37.404   7.751  10.122
56462W        W26277  29.045  13.677   4.353
56463W        W26278  13.747  37.024  11.949
56464W        W26279  29.641   5.302  12.965
56465W        W26280  22.650  21.207   0.449
56466W        W26281  22.169  34.047  14.382
56467W        W26282  38.361  26.492   1.913
56468W        W26283  22.173  35.386  13.415
56469W        W26284   5.869  42.973   1.316
56470W        W26285  31.541  13.214   2.245
56471W        W26286  42.384  38.518   1.730
56472W        W26287  19.645  28.075  13.420
56473W        W26288  16.591  23.165   1.292
56474W        W26289   3.339  16.800  12.443
56475W        W26290  14.720  29.955   0.868
56476W        W26291  20.138  14.674  10.607
56477W        W26292  11.164  27.999  11.046
56478W        W26293  37.079  37.411   1.410
56479W        W26294  31.601  31.473   4.120
56480W        W26295  36.901  43.019  12.558
56481W        W26296  25.517  41.503   2.295
56482W        W26297  14.697  39.995   3.260
56483W        W26298   0.751   3.229   5.264
56484W        W26299  29.162  24.713   2.773
56485W        W26300  16.134   6.354   4.815
56486W        W26301   0.417  43.879  14.335
56487W        W26302  17.236   9.150  12.558
56488W        W26303  29.609   0.753  14.434
56489W        W26304   5.292   6.204   0.258
56490W        W26305  40.356  35.510   1.885
56491W        W26306  18.079  21.197  14.921
56492W        W26307   1.464  28.042  14.926
56493W        W26308   9.656  41.904   4.733
56494W        W26309  24.151  41.456   1.235
56495W        W26310  35.556  16.572   1.705
56496W        W26311   5.240   9.384   1.903
56497W        W26312  14.209  34.057   4.739
56498W        W26313  41.026  17.079   3.802
56499W        W26314  36.856  42.787   3.796
56500W        W26315   5.362  34.435  13.896
56501W        W26316   4.242  33.896  12.824
56502W        W26317  41.911  19.072   2.768
56503W        W26318  19.050  36.022  13.873
56504W        W26319   6.315  27.039   4.280
56505W        W26320  27.681   5.818   2.289
56506W        W26321  10.241  42.317   2.734
56507W        W26322  19.761  38.428   3.688
56508W        W26323  28.468  40.391   0.311
56509W        W26324   3.826  25.144  11.463
56510W        W26325  28.147  26.094  13.889
56511W        W26326   4.375  20.221  10.579
56512W        W26327  38.415  13.163   3.761
56513W        W26328  11.780   8.669   5.321
56514W        W26329  17.604  18.272   2.696
56515W        W26330   4.788   7.732  10.436
56516W        W26331  30.052  41.975   1.817
56517W        W26332  11.655   7.813  12.415
56518W        W26333  42.365  13.635   4.654
56519W        W26334  43.342  18.162   2.306
56520W        W26335  28.668  37.981  13.426
56521W        W26336  12.630   2.855   1.262
56522W        W26337  32.570  20.687  11.506
56523W        W26338  12.718  30.011  11.548
56524W        W26339  16.141  18.556  12.571
56525W        W26340  37.021  41.441  11.519
56526W        W26341  13.231  30.508   4.313
56527W        W26342  21.093   2.256  10.643
56528W        W26343  29.487  33.569   4.218
56529W        W26344  34.450  32.983   0.960
56530W        W26345   2.889   5.887   2.210
56531W        W26346   5.933  20.216  10.997
56532W        W26347  16.741   7.805  13.989
56533W        W26348  28.985  15.598   3.214
56534W        W26349  16.578  32.134  10.431
56535W        W26350   5.241   2.345   1.765
56536W        W26351  14.290  30.977   1.356
56537W        W26352  22.639   6.795   1.712
56538W        W26353  26.953  41.797  11.980
56539W        W26354  43.434  16.183   1.229
56540W        W26355  13.141  13.699  14.516
56541W        W26356  14.752  43.317   4.277
56542W        W26357  12.644  12.840   1.393
56543W        W26358  42.288  34.081   3.832
56544W        W26359  28.162  38.481  10.555
56545W        W26360  38.541  31.056   1.361
56546W        W26361  37.552   9.673   1.342
56547W        W26362  27.051  27.024   1.850
56548W        W26363  19.260  36.401   1.709
56549W        W26364  31.495  44.350  12.479
56550W        W26365  15.676  42.446   4.325
56551W        W26366  35.534  28.155  13.994
56552W        W26367   6.787  22.507   0.364
56553W        W26368  10.778  28.592   2.844
56554W        W26369  22.215  27.613  12.037
56555W        W26370  41.927  15.174  12.538
56556W        W26371  44.767   0.790   0.292
56557W        W26372  30.498  41.344   4.603
56558W        W26373  22.162   9.354   2.741
56559W        W26374  23.634   0.984  11.097
56560W        W26375  32.539  42.410  11.038
56561W        W26376  33.574  21.183  13.415
56562W        W26377  10.688  41.951  12.489
56563W        W26378  23.122  32.629   1.775
56564W        W26379  34.468  25.198  13.035
56565W        W26380  20.072  15.220  13.544
56566W        W26381  19.651  35.872  10.429
56567W        W26382  31.996  35.601  13.503
56568W        W26383  19.272  26.653  12.069
56569W        W26384  30.982  22.652   3.267
56570W        W26385  36.572  35.938   0.279
56571W        W26386  40.044  17.264   1.277
56572W        W26387  43.918  30.647  14.029
56573W        W26388  15.809  15.086   0.832
56574W        W26389  17.186  34.389   1.735
56575W        W26390  38.885   2.404  12.520
56576W        W26391  32.924   0.455  14.025
56577W        W26392  30.126   6.256  11.389
56578W        W26393  22.216   6.777   2.299
56579W        W26394   1.240  19.711   4.168
56580W        W26395  20.198  32.982  14.886
56581W        W26396   6.883  38.018   1.718
56582W        W26397  19.744  10.687  11.960
56583W        W26398  13.327  14.826  14.338
56584W        W26399  22.026  29.048  10.628
56585W        W26400  43.807   9.279   3.696
56586W        W26401  31.929  38.551   4.201
56587W        W26402  10.810  22.619   3.214
56588W        W26403  35.534  19.639   0.298
56589W        W26404  41.401  28.638  12.362
56590W        W26405  43.427  30.427  10.508
56591W        W26406  25.709  27.068  12.861
56592W        W26407  36.938   7.887   4.258
56593W        W26408  20.121  10.204  12.504
56594W        W26409  20.735  29.961  13.024
56595W        W26410  30.509  12.780   3.659
56596W        W26411   0.287  21.074  12.824
56597W        W26412  39.329   6.265   1.422
56598W        W26413  32.102  30.455  12.558
56599W        W26414  26.001   7.672  11.043
56600W        W26415   1.876  15.182  11.380
56601W        W26416  17.167   9.238  13.437
56602W        W26417  18.775  11.266   4.293
56603W        W26418  16.786  11.177   0.435
56604W        W26419  11.630  23.008   0.839
56605W        W26420  38.387  42.506   1.321
56606W        W26421  31.601  34.428   0.264
56607W        W26422   4.732  14.099   1.421
56608W        W26423  24.691  10.675   4.783
56609W        W26424  34.440  37.432  12.514
56610W        W26425  12.238   8.330  13.955
56611W        W26426  22.006   2.341  14.290
56612W        W26427   2.790  37.553  11.897
56613W        W26428  44.942  21.687   0.249
56614W        W26429  17.677  21.569  12.060
56615W        W26430  37.567  44.304   0.332
56616W        W26431  16.729   5.246   3.356
56617W        W26432  25.216   5.357   2.886
56618W        W26433  13.820   8.812  14.423
56619W        W26434  39.543  37.081  11.974
56620W        W26435   4.850  33.432   4.771
56621W        W26436  18.771  20.262  12.829
56622W        W26437  16.211  30.562   0.867
56623W        W26438   6.805  34.920   3.319
56624W        W26439  30.423  27.572   3.683
56625W        W26440  21.123  21.171   1.847
56626W        W26441  40.480  38.868   5.159
56627W        W26442  33.604  39.816   4.762
56628W        W26443  36.044  42.475   2.778
56629W        W26444  24.034  21.024  13.343
56630W        W26445  43.909  23.620  14.834
56631W        W26446   4.447  23.117   1.730
56632W        W26447   8.767  31.448  12.082
56633W        W26448  11.841  11.263  12.824
56634W        W26449  16.722  16.687  13.828
56635W        W26450  11.683  23.053  14.506
56636W        W26451  41.323  19.242   0.417
56637W        W26452  35.997   3.269   4.723
56638W        W26453  33.391  10.149  14.388
56639W        W26454  20.758  28.506   0.392
56640W        W26455  37.856  11.230  10.978
56641W        W26456  32.464  24.084   2.734
56642W        W26457  26.068  35.597   3.348
56643W        W26458  25.148  20.744  13.802
56644W        W26459   2.724  29.934   4.750
56645W        W26460   5.787  14.818  11.470
56646W        W26461  17.258  33.496  10.621
56647W        W26462  27.972  28.474  14.496
56648W        W26463  21.719  30.045   3.285
56649W        W26464  43.395  26.693  10.061
56650W        W26465  42.903  23.151   0.372
56651W        W26466  34.407  33.581  11.373
56652W        W26467  38.491   3.367   0.361
56653W        W26468  15.289  38.908  14.280
56654W        W26469  38.374   1.409   1.256
56655W        W26470  14.167  14.743  12.063
56656W        W26471   8.710  23.633  14.392
56657W        W26472  13.830  23.167   2.221
56658W        W26473  43.411  13.841  12.353
56659W        W26474  19.753  44.821  13.844
56660W        W26475   2.350  41.414   1.356
56661W        W26476  20.035   1.301   3.328
56662W        W26477  20.052  41.898   3.338
56663W        W26478  25.195  25.591   2.891
56664W        W26479   4.847   6.800  13.519
56665W        W26480   5.196  20.262  13.022
56666W        W26481   0.284  28.971   1.430
56667W        W26482  40.509  33.493   3.832
56668W        W26483   9.278   9.289   0.890
56669W        W26484   4.899  40.965  13.912
56670W        W26485  23.564  28.585   2.759
56671W        W26486  20.532  29.507   4.729
56672W        W26487  30.625  19.760   1.237
56673W        W26488  10.712  33.427   0.440
56674W        W26489  30.112  14.199  12.516
56675W        W26490  21.104  12.811  10.122
56676W        W26491  29.001  33.390   4.790
56677W        W26492  31.517  35.404  12.397
56678W        W26493  22.735  20.768  13.422
56679W        W26494  17.205  31.521   3.667
56680W        W26495  21.141  27.982  10.515
56681W        W26496  27.515  43.282   0.439
56682W        W26497  36.380  11.792   0.399
56683W        W26498   6.906   2.822   0.391
56684W        W26499  33.626  41.986  14.303
56685W        W26500  16.108  16.083   3.259
56686W        W26501  31.510  34.614  11.126
56687W        W26502  25.038   9.663  10.457
56688W        W26503  15.134  12.821  14.402
56689W        W26504  12.680  29.152  10.899
56690W        W26505  14.335  44.456   4.291
56691W        W26506   3.422  13.272  14.501
56692W        W26507  18.786  22.583   1.723
56693W        W26508  43.510   3.303   2.277
56694W        W26509  13.290  30.607  11.921
56695W        W26510   2.832   1.282  11.923
56696W        W26511  24.054   9.655   4.834
56697W        W26512  25.583  31.154   4.244
56698W        W26513  21.635  12.196   0.277
56699W        W26514  12.758  40.868  14.822
56700W        W26515  27.623  31.459   2.243
56701W        W26516  18.288  18.265  11.122
56702W        W26517  37.063  32.535   5.197
56703W        W26518  41.972   0.378  11.483
56704W        W26519  39.996  12.802  11.102
56705W        W26520  15.161  18.107  12.523
56706W        W26521  42.908  26.006  14.867
56707W        W26522  10.710  37.472   4.228
56708W        W26523   8.732   7.209  10.103
56709W        W26524  36.513  27.541  12.824
56710W        W26525  38.564  11.314  10.624
56711W        W26526  22.693  18.748   0.832
56712W        W26527   3.802  33.431   1.354
56713W        W26528  42.992   8.687   3.848
56714W        W26529  16.193  13.181   2.304
56715W        W26530  36.440  36.376   4.693
56716W        W26531  13.699   4.234   3.673
56717W        W26532   3.412   0.448  14.962
56718W        W26533  25.039  31.496  10.911
56719W        W26534  10.750  22.006  12.046
56720W        W26535   9.383   8.274  14.029
56721W        W26536  17.222  21.705  14.311
56722W        W26537  10.837  32.124   0.426
56723W        W26538  23.573  15.141  14.978
56724W        W26539  18.647  29.570  10.892
56725W        W26540   7.828   4.425   3.329
56726W        W26541  21.666  40.954   0.905
56727W        W26542  14.602  36.484   0.815
56728W        W26543  38.820  17.697  14.928
56729W        W26544  29.489   3.761   3.753
56730W        W26545  23.051  31.923  13.313
56731W        W26546  40.947  39.869  11.595
56732W        W26547  15.194  37.903   2.358
56733W        W26548   4.422  13.786   0.480
56734W        W26549  16.702  25.119   2.707
56735W        W26550   0.929  20.260   4.195
56736W        W26551  34.897  12.240   2.759
56737W        W26552   9.659   3.912   0.460
56738W        W26553   7.839  44.462  10.982
56739W        W26554  16.088  28.644  10.424
56740W        W26555   7.258  25.476  14.945
56741W        W26556  36.070  20.029  14.342
56742W        W26557   0.252  38.525  11.073
56743W        W26558   3.839  44.352   4.736
56744W        W26559  23.677   2.314   0.344
56745W        W26560  23.162   8.170   4.319
56746W        W26561  25.180  31.999   2.262
56747W        W26562  33.885   3.709   4.326
56748W        W26563  13.753  35.417  10.442
56749W        W26564  27.009  23.685  13.313
56750W        W26565  32.071  17.144  11.512
56751W        W26566  39.963  30.021  13.340
56752W        W26567  26.959  30.558  10.520
56753W        W26568  15.727  44.910  13.808
56754W        W26569  17.072  44.796  11.472
56755W        W26570  28.105   4.261   2.304
56756W        W26571   5.791  32.429  14.773
56757W        W26572  43.943  16.594  12.461
56758W        W26573  17.118   9.759  13.520
56759W        W26574  37.383  28.583  12.929
56760W        W26575  24.548  25.525  13.417
56761W        W26576  19.128   1.286  11.088
56762W        W26577   1.270  30.465   4.657
56763W        W26578  15.631   0.864   1.416
56764W        W26579  17.180  19.653  12.066
56765W        W26580  34.109   9.722   4.721
56766W        W26581  15.579   8.251   2.764
56767W        W26582  34.893   1.928  13.346
56768W        W26583   0.381  20.582  14.922
56769W        W26584  29.980  31.559  13.810
56770W        W26585   1.952   8.879  11.925
56771W        W26586   1.761  27.986   2.301
56772W        W26587   3.852   0.335  12.400
56773W        W26588  11.200  12.265  14.420
56774W        W26589  32.040   6.406  13.813
56775W        W26590  18.096  24.652   1.428
56776W        W26591   6.294  13.337   4.268
56777W        W26592  23.551  17.722  12.344
56778W        W26593  26.109  43.975  13.384
56779W        W26594  25.144   0.490  14.288
56780W        W26595  37.358  25.642  12.421
56781W        W26596  25.474   7.285   1.694
56782W        W26597  10.779  10.737   3.257
56783W        W26598  13.192  10.821  14.417
56784W        W26599   2.800  21.667  11.419
56785W        W26600   6.760  21.711   4.727
56786W        W26601  11.365  23.199   0.411
56787W        W26602  10.815   7.276  13.957
56788W        W26603  30.979  10.718   0.806
56789W        W26604   1.974  31.897   4.690
56790W        W26605  14.169  35.454   1.271
56791W        W26606  38.963  39.451  12.907
56792W        W26607   4.901  24.075  13.412
56793W        W26608  41.991  13.708   9.451
56794W        W26609   1.385   1.967  10.566
56795W        W26610  18.615  28.026   2.350
56796W        W26611   8.766  29.101   1.897
56797W        W26612  10.851   5.881  14.904
56798W        W26613  13.296  16.261   3.701
56799W        W26614  10.347  39.391   1.348
56800W        W26615   1.906  29.574   2.255
56801W        W26616   6.796   4.847   2.707
56802W        W26617  41.883  36.455   4.293
56803W        W26618  21.516  35.868  14.472
56804W        W26619  17.066   9.803   4.354
56805W        W26620  23.118  20.715  12.849
56806W        W26621   3.772  14.221   1.386
56807W        W26622  19.045  10.854  12.869
56808W        W26623  25.674  36.586   0.254
56809W        W26624  10.742  24.999   3.678
56810W        W26625   7.674  39.441   1.413
56811W        W26626  14.696   0.848   0.941
56812W        W26627  17.730  40.492   4.768
56813W        W26628  39.970   9.153   2.717
56814W        W26629  20.553  15.781   2.826
56815W        W26630  24.107  39.443   3.666
56816W        W26631  14.645   8.658   1.331
56817W        W26632  24.718  16.252  12.415
56818W        W26633  18.136  26.187  10.483
56819W        W26634  13.152  29.654   4.831
56820W        W26635  44.923  29.590   1.318
56821W        W26636  13.230   3.878  11.611
56822W        W26637  33.902  37.875   0.345
56823W        W26638  12.139  11.810   2.281
56824W        W26639  38.508   5.386   1.908
56825W        W26640  11.179  17.296   5.119
56826W        W26641   2.876  23.187  10.927
56827W        W26642  22.174  33.559  10.961
56828W        W26643  26.122  10.292   1.420
56829W        W26644  36.444   4.926   4.659
56830W        W26645   5.202   9.257   4.322
56831W        W26646  36.479  13.775  12.939
56832W        W26647  13.803  28.127  13.819
56833W        W26648  11.823  18.193  14.393
56834W        W26649  41.402  36.949  11.041
56835W        W26650  26.175  14.276   2.214
56836W        W26651  27.961  36.858  12.859
56837W        W26652  39.441  40.467   4.721
56838W        W26653   9.649  44.815   1.433
56839W        W26654  43.004  20.624  13.865
56840W        W26655  42.390   8.691  12.471
56841W        W26656  15.277  33.988   1.228
56842W        W26657   7.789  20.080  10.550
56843W        W26658   5.729  15.654   3.827
56844W        W26659  32.580  17.744  13.918
56845W        W26660  32.963  11.218  14.999
56846W        W26661  36.574  31.451   5.214
56847W        W26662   3.940   2.447   4.810
56848W        W26663  14.779  11.245   4.282
56849W        W26664  20.583   6.263   3.310
56850W        W26665  40.022   0.802  10.567
56851W        W26666  17.288  13.260   4.252
56852W        W26667  34.404  22.734   0.787
56853W        W26668   0.480   8.826  13.983
56854W        W26669  41.917  41.005   2.704
56855W        W26670  37.580   3.385   0.244
56856W        W26671  18.226  24.116   3.152
56857W        W26672   3.795  10.681   0.727
56858W        W26673  43.358  13.622  13.991
56859W        W26674  43.909  19.135  11.514
56860W        W26675  33.019  21.138  13.940
56861W        W26676  19.618  39.440  11.506
56862W        W26677  40.347  16.180  14.307
56863W        W26678  28.012  41.511   1.241
56864W        W26679  24.975  39.050  10.999
56865W        W26680  18.739  14.097   0.331
56866W        W26681   4.763  14.592  10.520
56867W        W26682  30.494  25.585  14.509
56868W        W26683  16.073   2.373   4.730
56869W        W26684  12.668  12.243   0.405
56870W        W26685  15.288  42.885  12.959
56871W        W26686   5.853   5.828  10.499
56872W        W26687  34.956   7.768  13.944
56873W        W26688  16.152  12.252  12.872
56874W        W26689  28.656  14.181   3.667
56875W        W26690  39.033  30.041  11.538
56876W        W26691   3.240  20.662   1.696
56877W        W26692  21.168  44.303  13.860
56878W        W26693   8.735  42.852   4.712
56879W        W26694   2.418   4.415   0.735
56880W        W26695   0.483  21.164  14.959
56881W        W26696  44.432  16.077  14.005
56882W        W26697  17.127  42.851  11.129
56883W        W26698   7.417  18.666  12.855
56884W        W26699   9.813  39.533   0.807
56885W        W26700  28.068   6.270  10.405
56886W        W26701  41.043  16.283  10.466
56887W        W26702  32.898  13.608  12.057
56888W        W26703   7.669  36.566   4.788
56889W        W26704  28.453  22.698  13.055
56890W        W26705  38.451  22.229  11.999
56891W        W26706  30.956   7.389   1.849
56892W        W26707  37.954   4.904  11.887
56893W        W26708  31.965  40.047   0.450
56894W        W26709  30.133  44.464  11.521
56895W        W26710   6.264   3.432  12.883
56896W        W26711  40.481  41.820   0.283
56897W        W26712  40.325  10.638   3.369
56898W        W26713  37.340   3.288  11.513
56899W        W26714  37.833  26.566  12.389
56900W        W26715  27.528   1.830  14.436
56901W        W26716  39.515  30.655  14.939
56902W        W26717  44.764  35.376   4.630
56903W        W26718  30.985  41.986   0.866
56904W        W26719  44.310  14.630  12.989
56905W        W26720   6.786  16.213   3.820
56906W        W26721  34.890  23.671  14.013
56907W        W26722   9.367  20.618  12.975
56908W        W26723  31.009  12.330  11.582
56909W        W26724   7.733  18.102   2.379
56910W        W26725  18.754  37.514  11.888
56911W        W26726  27.069  10.281   1.738
56912W        W26727  39.413  39.023   4.727
56913W        W26728  28.109  42.900   3.168
56914W        W26729  12.173  16.181  10.553
56915W        W26730  30.141   8.177   4.820
56916W        W26731  36.364  24.228   0.848
56917W        W26732  20.680  19.193  12.501
56918W        W26733   6.386  27.530   1.248
56919W        W26734  20.079  10.695  11.938
56920W        W26735  34.871  35.005  14.845
56921W        W26736  18.590  20.561   2.824
56922W        W26737   0.811  28.482   4.635
56923W        W26738  44.472   2.838   0.771
56924W        W26739  35.436   8.192   0.896
56925W        W26740  28.129   1.457  13.365
56926W        W26741  42.949  33.476  11.987
56927W        W26742  37.882  13.659  12.402
56928W        W26743   5.330  35.421   2.771
56929W        W26744  27.481   3.935  14.793
56930W        W26745  31.532   4.784  14.976
56931W        W26746   4.348  19.647   2.282
56932W        W26747  37.352   9.378  14.301
56933W        W26748  29.974  19.080  11.589
56934W        W26749  18.136  31.152  12.505
56935W        W26750  41.860   3.260   2.828
56936W        W26751  40.495  17.639   2.225
56937W        W26752   3.716  34.076   1.749
56938W        W26753  27.450  16.086  13.517
56939W        W26754  15.745  27.031  14.797
56940W        W26755  29.647   2.959  14.008
56941W        W26756  44.278  15.605  11.377
56942W        W26757   9.167  11.232  13.402
56943W        W26758  36.924   7.912   2.255
56944W        W26759  13.222  20.710  13.980
56945W        W26760  19.103  23.225  11.557
56946W        W26761  20.734   0.859  11.509
56947W        W26762  18.725  35.093  10.444
56948W        W26763   0.307  35.418  11.897
56949W        W26764  22.555  14.648   4.713
56950W        W26765   5.325  15.302   0.255
56951W        W26766  10.785   2.766   1.902
56952W        W26767  24.132  18.591  14.793
56953W        W26768  22.592  18.736  10.993
56954W        W26769   6.252  43.323   3.359
56955W        W26770  12.618  38.422   3.805
56956W        W26771  33.420   1.238   1.356
56957W        W26772  10.361  21.241   3.291
56958W        W26773  30.472   6.770  14.408
56959W        W26774  31.931   6.723  13.893
56960W        W26775  41.441  37.031  11.605
56961W        W26776  33.994  23.586  11.038
56962W        W26777  23.581   9.753   0.821
56963W        W26778  11.179  25.217  12.484
56964W        W26779  24.086  36.967   2.885
56965W        W26780  23.987  24.065  10.466
56966W        W26781  17.687  37.542  13.813
56967W        W26782  35.399  41.394   3.296
56968W        W26783  40.316   4.362   3.855
56969W        W26784   9.363  27.098  10.520
56970W        W26785  25.611  42.368   0.475
56971W        W26786   3.849  33.999   2.896
56972W        W26787  34.497  34.926  14.998
56973W        W26788  39.401  40.347  13.881
56974W        W26789   2.421  22.230  10.541
56975W        W26790   5.830  16.763   4.171
56976W        W26791  21.636  20.054  13.909
56977W        W26792  22.125  20.145  14.792
56978W        W26793   6.878  39.490  11.452
56979W        W26794  26.600  26.531   5.258
56980W        W26795   6.288  24.594  12.038
56981W        W26796   6.346  37.525   4.619
56982W        W26797  39.446  13.648  10.447
56983W        W26798  31.421  25.671   0.317
56984W        W26799  13.132  12.174  11.026
56985W        W26800  19.263  39.416   2.293
56986W        W26801   4.243  38.994  14.514
56987W        W26802   2.466  33.017   4.183
56988W        W26803   7.203   3.280  13.330
56989W        W26804   3.789   9.298  13.903
56990W        W26805   3.319  31.015  14.788
56991W        W26806  17.582   4.447   0.453
56992W        W26807  26.481  38.537  12.977
56993W        W26808   9.222   0.462   4.748
56994W        W26809  11.306  22.588  11.980
56995W        W26810   9.769  44.482  12.092
56996W        W26811  30.522  15.737  10.447
56997W        W26812  25.063  11.221  11.372
56998W        W26813  32.966  22.069   1.913
56999W        W26814  14.256  26.170   4.815
57000W        W26815  11.701  27.143  11.451
57001W        W26816   5.855  10.727  14.279
57002W        W26817  26.113  23.218   1.724
57003W        W26818  10.337  21.142   0.472
57004W        W26819  24.116  42.522  10.579
57005W        W26820  27.512  35.510  12.562
57006W        W26821  16.137   0.824  14.913
57007W        W26822  32.577  23.102   0.815
57008W        W26823  26.536  15.680   3.281
57009W        W26824  32.100  24.070   2.831
57010W        W26825  42.870  41.034   4.230
57011W        W26826  15.117   4.705   0.475
57012W        W26827   9.768  13.224  13.358
57013W        W26828  30.420  18.115  11.940
57014W        W26829  33.960  30.959  11.460
57015W        W26830  36.509   1.376  13.978
57016W        W26831  29.098  24.023   4.735
57017W        W26832  33.095  26.487   1.735
57018W        W26833  19.729  17.139   3.304
57019W        W26834   7.292  12.755  14.498
57020W        W26835  28.003  39.007  12.435
57021W        W26836  32.092  24.077   4.730
57022W        W26837  40.870   7.392   2.867
57023W        W26838  32.019   0.761   4.162
57024W        W26839  23.166  18.113  10.893
57025W        W26840   9.760   0.308   2.209
57026W        W26841  37.458  33.876   4.260
57027W        W26842  15.705  26.046   4.783
57028W        W26843   6.327   1.875   4.780
57029W        W26844  27.100  15.293  12.524
57030W        W26845  15.088  14.657   3.785
57031W        W26846  16.641  43.347   1.875
57032W        W26847  37.893   2.384  14.014
57033W        W26848  29.479   7.253   3.775
57034W        W26849   0.965  34.043  14.864
57035W        W26850  35.041   9.666   2.822
57036W        W26851  39.027  25.999  14.994
57037W        W26852  33.879  29.098  13.334
57038W        W26853  27.975  15.743  10.517
57039W        W26854  37.554  31.014  12.030
57040W        W26855  40.436  20.043   1.720
57041W        W26856  28.632  16.719  13.925
57042W        W26857  41.454  23.029  11.000
57043W        W26858  25.157  31.495  10.481
57044W        W26859   0.872  16.101  13.890
57045W        W26860  35.980  28.992   3.221
57046W        W26861  11.815  27.165   1.829
57047W        W26862  17.761  19.200   4.266
57048W        W26863  19.130  39.370  14.991
57049W        W26864   1.251  17.587  13.329
57050W        W26865  23.152   0.435  12.018
57051W        W26866  41.869  43.936  10.935
57052W        W26867  35.452  41.443   4.812
57053W        W26868  30.121  20.197   4.201
57054W        W26869  21.704  19.745   4.717
57055W        W26870  15.126  27.462  11.464
57056W        W26871  23.185  14.780   1.428
57057W        W26872  13.162   1.969  12.892
57058W        W26873   6.227  31.979   3.668
57059W        W26874  28.518  32.029   1.402
57060W        W26875  26.198  16.627   2.663
57061W        W26876  23.715  13.702  14.788
57062W        W26877  35.449  21.738  13.876
57063W        W26878  31.045  21.144   0.261
57064W        W26879   3.734  32.118  14.992
57065W        W26880   0.452  39.473   1.323
57066W        W26881  21.732  42.370  14.945
57067W        W26882  14.694   7.750   3.249
57068W        W26883  42.336  15.759  10.513
57069W        W26884  41.535  15.621   2.179
57070W        W26885  44.439  18.563  12.833
57071W        W26886  31.011   9.257   0.242
57072W        W26887  43.990  33.521   0.292
57073W        W26888   9.875  20.601   3.347
57074W        W26889   8.788   0.765   3.743
57075W        W26890   2.469  21.050   4.818
57076W        W26891   7.364  20.647  12.895
57077W        W26892  31.928   1.827   4.197
57078W        W26893  22.639  22.127  11.874
57079W        W26894   8.310   8.363  11.589
57080W        W26895  16.736  26.628  14.776
57081W        W26896  39.441  22.701   4.673
57082W        W26897  27.135  32.982  13.864
57083W        W26898  37.926   4.909   2.286
57084W        W26899   9.884  19.119   5.237
57085W        W26900   2.804  12.696   3.235
57086W        W26901  26.077  38.911   2.675
57087W        W26902   5.393   5.745   1.892
57088W        W26903  28.014  14.310  12.375
57089W        W26904  27.532  35.372   4.198
57090W        W26905  25.160  15.119  14.011
57091W        W26906  35.437  28.169  11.000
57092W        W26907  29.977   0.477   3.193
57093W        W26908  24.138  22.683  14.339
57094W        W26909  17.104  21.728   3.721
57095W        W26910  43.903   0.902   1.883
57096W        W26911  42.029  25.063   1.856
57097W        W26912  22.675   5.298   4.764
57098W        W26913  32.531  32.090  14.800
57099W        W26914  14.237  23.234   4.277
57100W        W26915   6.818  34.497   3.690
57101W        W26916  22.677  17.168  10.472
57102W        W26917  31.043  16.673   2.765
57103W        W26918  22.173  10.876  12.383
57104W        W26919  34.568  20.078   4.799
57105W        W26920  32.914  30.610   4.277
57106W        W26921  40.864   4.740   3.753
57107W        W26922  23.080  23.176   4.300
57108W        W26923   4.826  18.652   4.599
57109W        W26924  14.831   5.321   3.759
57110W        W26925  15.795   7.181   3.810
57111W        W26926  20.706  28.544   2.802
57112W        W26927  38.481  34.403   3.247
57113W        W26928  18.662   7.803  12.353
57114W        W26929  35.059  18.251   0.871
57115W        W26930  11.831  28.078  12.043
57116W        W26931  20.113  16.618   3.865
57117W        W26932  33.119  19.166  10.443
57118W        W26933   1.881  32.085  14.445
57119W        W26934   3.865  22.524  11.373
57120W        W26935   0.310  26.975   2.265
57121W        W26936   7.887  14.798   0.834
57122W        W26937   4.711   0.947   1.854
57123W        W26938  22.663  42.947  11.879
57124W        W26939   8.175   8.257   2.194
57125W        W26940  34.955   7.763   2.231
57126W        W26941  24.020  39.047  13.969
57127W        W26942  33.505  23.133  13.877
57128W        W26943  38.528   3.794  13.798
57129W        W26944  17.102  29.112  14.982
57130W        W26945  25.211  16.113   1.919
57131W        W26946   0.462  11.749  12.344
57132W        W26947  17.744  11.764  14.980
57133W        W26948  44.869  22.190  13.482
57134W        W26949  41.392  38.028   1.280
57135W        W26950  23.240  22.194  13.515
57136W        W26951  44.762  40.912  10.971
57137W        W26952   4.780  14.213   1.809
57138W        W26953   3.346  39.513  10.974
57139W        W26954  36.380  19.724  10.151
57140W        W26955  42.379  16.150   9.638
57141W        W26956  28.656  35.874  14.809
57142W        W26957   6.330  42.303   2.353
57143W        W26958  40.004  22.537   4.308
57144W        W26959  29.097  43.977   4.747
57145W        W26960  20.763  31.121   1.228
57146W        W26961  26.013  29.662   2.299
57147W        W26962   7.859  32.117   5.097
57148W        W26963  27.660  32.095  11.884
57149W        W26964   7.727  23.538   4.278
57150W        W26965  43.978  28.107  13.918
57151W        W26966  11.136  39.420  10.901
57152W        W26967  35.926  15.261   3.198
57153W        W26968  17.791   3.368  11.007
57154W        W26969   5.388  33.099  11.073
57155W        W26970  16.643   7.713  12.848
57156W        W26971  34.484   7.308  12.429
57157W        W26972  18.181   9.318   2.694
57158W        W26973  27.575  17.615   3.336
57159W        W26974  20.098  40.911   2.692
57160W        W26975  34.535   8.698   3.696
57161W        W26976   6.740  16.116   0.932
57162W        W26977  29.586  21.551  14.868
57163W        W26978   5.387  26.053  14.829
57164W        W26979   7.867  38.938   1.889
57165W        W26980  36.061  21.544   4.209
57166W        W26981  20.248  33.409  11.021
57167W        W26982   6.327  20.723   4.172
57168W        W26983  24.115  42.875  11.527
57169W        W26984  19.630  12.269   2.815
57170W        W26985   3.444  35.078   1.934
57171W        W26986  17.689  25.070  11.067
57172W        W26987  38.051  27.142  12.539
57173W        W26988  44.289  14.781  14.805
57174W        W26989  41.914   4.326   0.803
57175W        W26990  39.328  38.374   4.334
57176W        W26991  21.216   1.297   4.793
57177W        W26992  32.887   1.946   2.675
57178W        W26993  10.315  30.143   4.181
57179W        W26994  11.725   5.343  13.503
57180W        W26995  27.019   6.824   3.685
57181W        W26996  22.596  41.882   5.151
57182W        W26997  28.445  26.006   3.187
57183W        W26998  44.427  16.793  10.015
57184W        W26999  32.420  13.272   0.339
57185W        W27000   6.827  41.989  10.941
57186W        W27001  20.246  42.915   3.302
57187W        W27002   5.906  32.020  13.032
57188W        W27003   5.334   9.775  12.844
57189W        W27004  17.758  21.724   3.193
57190W        W27005  14.284   6.885   2.826
57191W        W27006  16.638  33.007   4.198
57192W        W27007  34.037  35.855  14.287
57193W        W27008  43.912  15.256   4.172
57194W        W27009  22.132  37.042   2.754
57195W        W27010  31.494  40.907  14.328
57196W        W27011  28.477   1.351  11.102
57197W        W27012  31.569  14.639  12.988
57198W        W27013  15.723  29.643   2.853
57199W        W27014  32.570  10.201  10.496
57200W        W27015  33.382  41.927   4.188
57201W        W27016  40.980   1.398  11.590
57202W        W27017   1.452  30.496   2.293
57203W        W27018   3.434  24.168   1.748
57204W        W27019  25.015   5.415   3.299
57205W        W27020  41.333  43.418  12.043
57206W        W27021  41.808  16.305   2.765
57207W        W27022  41.465  43.972  14.370
57208W        W27023  42.308  31.520   2.900
57209W        W27024  16.187   4.431  12.525
57210W        W27025  42.430  31.042  13.895
57211W        W27026  30.996  21.528  13.477
57212W        W27027  25.010  17.766   4.662
57213W        W27028  32.615  35.546   2.228
57214W        W27029  36.373  11.777   3.702
57215W        W27030  36.939  43.807   4.733
57216W        W27031  33.874  41.869  11.978
57217W        W27032  18.674   6.312   1.884
57218W        W27033   2.952  31.042   3.353
57219W        W27034  32.055  28.135  13.922
57220W        W27035  24.070  28.131  12.875
57221W        W27036  28.555   5.926   2.865
57222W        W27037   5.908  39.493  11.986
57223W        W27038  36.008  19.163  13.032
57224W        W27039  41.933  15.264  10.494
57225W        W27040  16.802  36.488   2.258
57226W        W27041  33.441  41.484  12.581
57227W        W27042  18.151  38.428   3.315
57228W        W27043  23.090  15.626  14.848
57229W        W27044  34.422  11.149  14.310
57230W        W27045  43.504  14.778  11.043
57231W        W27046  16.702  35.437   1.435
57232W        W27047  26.101   0.430   4.679
57233W        W27048  19.544   7.176  12.354
57234W        W27049  15.106  34.480  13.035
57235W        W27050   5.916  42.290  11.076
57236W        W27051  17.099  30.113  10.938
57237W        W27052  42.506  37.044   1.274
57238W        W27053  17.173  19.163  14.990
57239W        W27054  36.531  16.702  10.559
57240W        W27055  33.978   2.438   3.823
57241W        W27056  22.734  27.108  11.918
57242W        W27057  39.995  30.471   2.188
57243W        W27058  21.205  34.422  11.551
57244W        W27059   7.325  35.380  14.474
57245W        W27060   0.413  23.536  12.413
57246W        W27061  17.687  17.208   3.630
57247W        W27062  11.302  41.342  14.841
57248W        W27063  14.295  13.147  12.998
57249W        W27064  37.344  13.351   0.924
57250W        W27065   9.796  23.502  11.977
57251W        W27066   1.910   5.302   1.698
57252W        W27067  31.410   7.224   0.847
57253W        W27068  30.049  35.568   3.637
57254W        W27069  30.001   7.209  14.876
57255W        W27070  10.138   0.487   1.307
57256W        W27071   7.733  31.007   3.301
57257W        W27072  36.524  41.969   3.273
57258W        W27073   4.432  44.997  14.340
57259W        W27074  14.678  32.978  12.826
57260W        W27075  40.341  30.585   0.756
57261W        W27076  27.504  15.322  10.505
57262W        W27077   3.768   9.197   2.849
57263W        W27078  26.618  41.873  11.036
57264W        W27079  16.125  44.807  12.429
57265W        W27080   5.849  26.037   1.238
57266W        W27081  35.427  16.278   4.346
57267W        W27082  12.348  27.091   0.440
57268W        W27083  19.775   2.864  12.494
57269W        W27084  28.185  13.328  11.379
57270W        W27085   4.398  37.015   4.202
57271W        W27086  15.309  41.365   0.464
57272W        W27087  34.427  42.463  10.908
57273W        W27088  16.110  11.262   2.809
57274W        W27089  20.546  11.655  12.456
57275W        W27090  34.896  39.814  12.032
57276W        W27091  24.009  23.117   0.732
57277W        W27092  36.038  31.559   4.263
57278W        W27093  21.724  19.547   1.892
57279W        W27094  15.708   2.414  12.059
57280W        W27095  41.462   7.847  11.060
57281W        W27096  23.024  19.074   4.296
57282W        W27097  33.013  30.931   2.716
57283W        W27098  39.532  44.820   0.752
57284W        W27099   7.378  11.794   3.225
57285W        W27100  27.584  29.995   1.777
57286W        W27101   1.471  34.545   2.371
57287W        W27102  12.149   7.888   2.299
57288W        W27103  28.114   5.242   2.826
57289W        W27104  27.965  17.118  14.342
57290W        W27105  44.259  19.687  11.967
57291W        W27106  21.717   5.904   2.880
57292W        W27107  27.676  16.579   4.194
57293W        W27108  41.874  12.824  14.992
57294W        W27109   8.665  11.652  12.469
57295W        W27110  20.550  35.381   1.784
57296W        W27111   6.892  29.426   1.850
57297W        W27112   4.318  23.110   4.323
57298W        W27113   4.771   6.197  14.415
57299W        W27114   9.752  12.678   2.679
57300W        W27115   7.302  19.116   0.292
57301W        W27116  34.446  10.277   2.371
57302W        W27117  33.968  31.625   0.866
57303W        W27118  15.645  20.766  11.953
57304W        W27119  30.511  10.209  10.620
57305W        W27120   2.314  14.304   1.723
57306W        W27121  21.042  25.195  12.390
57307W        W27122  18.625  42.822   1.874
57308W        W27123  15.289   3.774  12.437
57309W        W27124  26.494  10.746   2.240
57310W        W27125  23.627  44.756   3.662
57311W        W27126   9.185   2.795   1.337
57312W        W27127   3.319  26.530   3.294
57313W        W27128   8.293  21.545  13.360
57314W        W27129   1.944  15.760  11.954
57315W        W27130  36.960  42.851   9.926
57316W        W27131   6.284  19.152  10.993
57317W        W27132  15.275  40.469  13.473
57318W        W27133  18.221  21.097   4.146
57319W        W27134  27.178  33.391   3.754
57320W        W27135  19.557  35.581  11.067
57321W        W27136   5.262  43.485  11.532
57322W        W27137  18.620  36.571   1.731
57323W        W27138  35.050  25.518   0.363
57324W        W27139  42.523  40.401  13.357
57325W        W27140  18.096  32.550   0.744
57326W        W27141   3.219  39.049  14.945
57327W        W27142  16.781  38.071  12.472
57328W        W27143  21.694  37.540  13.913
57329W        W27144  34.582  43.893  12.991
57330W        W27145  30.498  22.181  11.923
57331W        W27146  41.363  21.080  12.085
57332W        W27147  39.872   8.787  13.351
57333W        W27148  38.022  16.196   2.381
57334W        W27149  10.278   0.893   0.380
57335W        W27150  27.578   7.259  12.532
57336W        W27151  31.074  44.957  11.096
57337W        W27152  44.436  15.172   4.293
57338W        W27153   8.749   7.404   4.171
57339W        W27154  38.528   8.326   4.636
57340W        W27155  24.630  18.098   4.763
57341W        W27156  25.614  10.726  12.407
57342W        W27157   2.243  22.513  13.806
57343W        W27158   5.815   1.316  14.362
57344W        W27159  17.070  26.538  14.296
57345W        W27160  33.079   8.791  14.820
57346W        W27161  33.524  29.925   4.791
57347W        W27162  10.678  32.943   4.217
57348W        W27163  26.125  11.149   3.769
57349W        W27164   2.450  32.473   0.349
57350W        W27165  28.088   7.838   2.208
57351W        W27166  25.200   3.430   3.632
57352W        W27167  24.591   4.900   1.337
57353W        W27168  16.600  14.759  11.125
57354W        W27169  18.678  37.930  13.545
57355W        W27170  17.586  31.994   1.358
57356W        W27171   5.225  25.562  12.940
57357W        W27172  24.055  27.516   2.318
57358W        W27173  11.334  15.603  14.007
57359W        W27174   2.448  37.989  12.556
57360W        W27175  32.554  31.458   3.233
57361W        W27176  31.609  31.424  11.095
57362W        W27177  15.770   0.847   3.709
57363W        W27178   3.239  35.391   1.411
57364W        W27179  11.831   2.859  12.011
57365W        W27180  25.199  34.003  13.431
57366W        W27181  23.731  38.447  14.494
57367W        W27182  23.997  35.976   3.802
57368W        W27183  33.099  12.734  10.518
57369W        W27184  24.174  16.164  12.032
57370W        W27185  16.177  24.164   0.482
57371W        W27186   1.840  36.476  10.502
57372W        W27187  15.667  33.957   1.212
57373W        W27188  16.212  23.026  13.898
57374W        W27189  40.454   6.734  12.428
57375W        W27190  16.195  12.814   0.320
57376W        W27191  25.490   9.298  12.412
57377W        W27192  22.028  12.745  10.516
57378W        W27193  11.290  11.135   0.411
57379W        W27194  19.274   8.854   2.322
57380W        W27195   7.799  34.607   2.220
57381W        W27196  24.016  43.447  13.942
57382W        W27197  28.002  24.203   3.641
57383W        W27198  23.011  12.302  13.469
57384W        W27199  35.989  36.532  10.934
57385W        W27200  44.951  29.169  11.466
57386W        W27201  38.846  42.363  13.822
57387W        W27202  29.038  18.281  10.492
57388W        W27203   3.771   6.219  14.948
57389W        W27204  11.640   5.319   0.243
57390W        W27205  42.485  14.712  14.983
57391W        W27206   4.427  11.226   0.929
57392W        W27207   2.920  10.700  13.821
57393W        W27208  10.384  22.227  12.002
57394W        W27209  12.695  10.232   4.197
57395W        W27210  15.132  22.221  14.474
57396W        W27211  31.541   4.943   0.443
57397W        W27212  44.895  16.593   3.183
57398W        W27213  28.039  18.164  13.376
57399W        W27214  35.567  26.114   1.773
57400W        W27215  33.522  33.034   4.679
57401W        W27216   7.911  35.447   4.678
57402W        W27217  44.260  10.658  13.874
57403W        W27218  30.926  37.046  11.984
57404W        W27219  33.076  21.572   3.703
57405W        W27220  40.348   6.301  14.815
57406W        W27221   2.433   6.778  13.877
57407W        W27222  29.486  18.058   2.724
57408W        W27223  42.325  36.909  13.907
57409W        W27224  14.652  17.108  11.867
57410W        W27225  37.365   3.311  12.945
57411W        W27226  22.716  30.982  11.403
57412W        W27227   0.265  27.683  14.464
57413W        W27228  36.052  32.524   4.223
57414W        W27229  13.766  19.652   4.206
57415W        W27230   5.389  33.962   4.796
57416W        W27231   4.929  27.671   1.730
57417W        W27232  41.813  36.928  12.909
57418W        W27233   3.954  36.035   2.894
57419W        W27234  24.012  33.097  14.995
57420W        W27235  38.030  29.604   1.228
57421W        W27236  28.677   1.324  13.976
57422W        W27237  41.822  39.038  10.133
57423W        W27238  34.942  10.183  13.943
57424W        W27239  33.477  38.870   3.369
57425W        W27240  10.790  26.126   4.837
57426W        W27241   7.833  29.934  11.389
57427W        W27242   6.413  30.925   0.299
57428W        W27243  20.104  44.829   2.718
57429W        W27244  34.015  41.508   1.859
57430W        W27245  11.790   0.259  14.375
57431W        W27246  24.196   5.689  14.028
57432W        W27247  22.206   8.160   2.883
57433W        W27248  16.578   1.292  10.894
57434W        W27249  38.508  36.053   1.265
57435W        W27250   2.745  21.116  10.562
57436W        W27251  13.289  35.924   1.886
57437W        W27252  33.596  20.734  13.893
57438W        W27253  31.000  42.866  13.970
57439W        W27254   7.255  40.882  12.035
57440W        W27255  39.843   5.404  14.363
57441W        W27256  24.045  26.608   0.844
57442W        W27257  31.491  27.134  12.341
57443W        W27258  29.957  16.072   1.323
57444W        W27259  41.001  21.717  12.492
57445W        W27260   8.396  15.127  13.531
57446W        W27261  18.088  41.418  12.875
57447W        W27262   8.257  23.734  14.347
57448W        W27263  28.514  39.015  13.324
57449W        W27264  38.382  28.991   0.863
57450W        W27265   3.904  23.583   1.281
57451W        W27266  18.748  38.892   9.982
57452W        W27267  26.961  19.620   1.254
57453W        W27268  28.092  10.810   9.981
57454W        W27269  18.563   1.956   3.265
57455W        W27270  32.134  34.496  11.023
57456W        W27271  17.090  37.875   1.252
57457W        W27272   0.792   2.428  14.786
57458W        W27273   0.811   7.237   2.186
57459W        W27274   3.933  44.801  12.960
57460W        W27275  23.031  29.449   0.965
57461W        W27276   2.365  37.554   2.804
57462W        W27277  39.402  18.138  13.334
57463W        W27278  28.456  18.131  12.463
57464W        W27279  21.561  39.431  11.857
57465W        W27280  25.663  39.556   1.917
57466W        W27281   6.900  35.882  12.012
57467W        W27282  16.119   7.337   1.382
57468W        W27283  14.320  40.472   0.832
57469W        W27284  20.097  12.198   3.666
57470W        W27285  13.110  20.068   0.929
57471W        W27286   9.167  19.598   4.793
57472W        W27287   5.212  28.493   0.743
57473W        W27288  32.933  44.904  10.469
57474W        W27289  20.593  29.983   2.264
57475W        W27290  23.599  18.661   4.137
57476W        W27291   8.330  38.866   5.782
57477W        W27292   4.763  25.206  13.370
57478W        W27293  23.700  31.406   1.708
57479W        W27294  37.470  24.166   0.243
57480W        W27295  43.916   3.338  13.434
57481W        W27296  39.431  26.527   1.746
57482W        W27297  34.496   1.908   4.787
57483W        W27298  34.067   5.384   0.824
57484W        W27299  12.283  38.975   4.256
57485W        W27300   2.734  28.461  14.455
57486W        W27301  36.367  33.595  14.788
57487W        W27302  18.153  21.750  13.339
57488W        W27303  39.925  14.124   1.329
57489W        W27304  19.759  27.045  11.453
57490W        W27305  30.126  33.989   0.744
57491W        W27306  21.516  32.535  12.401
57492W        W27307  25.607  34.109  13.985
57493W        W27308  35.967  10.810   1.790
57494W        W27309  16.627  30.908   1.891
57495W        W27310  34.515  17.609  12.361
57496W        W27311  13.819  20.604   4.633
57497W        W27312  41.788  39.881   1.844
57498W        W27313  15.310  31.044  14.473
57499W        W27314   6.752  39.498  10.642
57500W        W27315  21.198  16.674   2.226
57501W        W27316  29.596  16.083  10.532
57502W        W27317   8.746  28.049   1.797
57503W        W27318  30.930  14.606   1.357
57504W        W27319  17.290  39.897  12.449
57505W        W27320  10.340  32.926   4.243
57506W        W27321  23.018  21.218  13.799
57507W        W27322  18.765  35.412  14.401
57508W        W27323  38.534  22.124   4.245
57509W        W27324  10.784  25.980  12.030
57510W        W27325   5.438  18.138   1.718
57511W        W27326  13.795  39.949   2.717
57512W        W27327   4.267  22.078   4.637
57513W        W27328  36.471  12.291   1.845
57514W        W27329  20.599  33.103   2.384
57515W        W27330  25.199   3.882   0.845
57516W        W27331  39.873  22.630  11.451
57517W        W27332  41.823  15.102   0.789
57518W        W27333   7.389  34.955  10.958
57519W        W27334  41.826  38.895   4.308
57520W        W27335  13.638  23.147   0.260
57521W        W27336  19.085  37.384  11.938
57522W        W27337  10.312  34.386   3.713
57523W        W27338  21.039   2.907  10.407
57524W        W27339  29.660  20.223  12.521
57525W        W27340   6.186  17.675  11.958
57526W        W27341   7.731  16.756   0.903
57527W        W27342   4.832   4.905  14.421
57528W        W27343  13.247  20.701   3.789
57529W        W27344  37.486   5.329  13.020
57530W        W27345  27.091  14.765   4.131
57531W        W27346  35.357  42.936   2.202
57532W        W27347   0.445  28.668  11.881
57533W        W27348  30.468   0.439  12.929
57534W        W27349  27.948  35.913   5.228
57535W        W27350  12.204  37.448  11.381
57536W        W27351  23.156  20.231   3.687
57537W        W27352  15.168  36.859   4.737
57538W        W27353   7.867  15.091   0.399
57539W        W27354  17.565  18.142  14.976
57540W        W27355  35.101  30.943   2.707
57541W        W27356  27.690  17.282  12.557
57542W        W27357  38.901  30.487  13.979
57543W        W27358  10.691   3.878   0.483
57544W        W27359  42.297  16.210  12.854
57545W        W27360  41.520  40.467  11.961
57546W        W27361  29.569  16.666   0.811
57547W        W27362  44.397  16.652  14.290
57548W        W27363  21.630   6.365  10.614
57549W        W27364   0.928  43.826  10.945
57550W        W27365  17.111  22.642  10.544
57551W        W27366   2.815  20.600   1.905
57552W        W27367  15.314   6.879  11.967
57553W        W27368   8.191  15.103   3.631
57554W        W27369  23.161  11.201  12.915
57555W        W27370  13.793  29.454   3.190
57556W        W27371  18.657  14.217   3.308
57557W        W27372  13.181   6.304  14.978
57558W        W27373  21.713   7.263   0.843
57559W        W27374   9.844  40.504  12.033
57560W        W27375  34.997  37.038   4.834
57561W        W27376  30.142  31.122  11.034
57562W        W27377  29.991  16.581   1.824
57563W        W27378  15.582   0.272  12.924
57564W        W27379   4.779   6.756   0.890
57565W        W27380  18.108  29.476   1.782
57566W        W27381  25.480  42.430  11.542
57567W        W27382  29.058   4.320  12.482
57568W        W27383  20.576  42.302  14.024
57569W        W27384   4.811  21.679   4.265
57570W        W27385  37.916  26.562   3.732
57571W        W27386  39.934   3.801   2.289
57572W        W27387  26.661  26.689   9.925
57573W        W27388  11.342   8.793   2.762
57574W        W27389   4.306  42.411  12.460
57575W        W27390  43.401   2.845   2.326
57576W        W27391  27.516  44.402   4.351
57577W        W27392  21.060   4.270   0.402
57578W        W27393  26.544  37.070  12.053
57579W        W27394  10.244   0.361  12.385
57580W        W27395  16.285  40.838   1.403
57581W        W27396  25.627  17.267   1.703
57582W        W27397   4.915  42.365  14.474
57583W        W27398  16.197  25.089  12.363
57584W        W27399  44.475  40.012  10.126
57585W        W27400  18.156  25.590  12.523
57586W        W27401  14.287  42.358  10.542
57587W        W27402  12.307   2.282   3.267
57588W        W27403  33.548  41.042   1.863
57589W        W27404  17.070  40.338   2.218
57590W        W27405  34.460  33.494   3.779
57591W        W27406  30.113  25.111   4.678
57592W        W27407   2.736  37.465  14.805
57593W        W27408   0.935  36.987  14.354
57594W        W27409  30.626  31.546  10.528
57595W        W27410  42.892  26.575  12.431
57596W        W27411  41.402   9.310  10.990
57597W        W27412  44.907  27.178  14.475
57598W        W27413  26.982  41.357   4.644
57599W        W27414  31.428   4.438  11.975
57600W        W27415  40.966  27.194   0.814
57601W        W27416  23.557  25.974   1.438
57602W        W27417  30.125  11.254  10.997
57603W        W27418  29.464  37.951  12.993
57604W        W27419  21.104  11.711  13.323
57605W        W27420  26.971  13.750  13.310
57606W        W27421   4.278  41.507   3.366
57607W        W27422  31.580  33.558  12.077
57608W        W27423  41.786  36.526   2.245
57609W        W27424  25.527  14.726   4.776
57610W        W27425   3.226  32.917  10.511
57611W        W27426  38.958   4.310   1.777
57612W        W27427  30.573  32.113  14.878
57613W        W27428  18.087  30.990   3.724
57614W        W27429  26.197   4.936   2.869
57615W        W27430  11.634  23.643   2.207
57616W        W27431  26.180   0.463  13.017
57617W        W27432   6.805  24.219  13.380
57618W        W27433  11.157  19.058  11.417
57619W        W27434  16.093  11.775   3.793
57620W        W27435  40.837  37.514   3.227
57621W        W27436   0.388  15.667   1.390
57622W        W27437  11.279  21.675   0.948
57623W        W27438  33.030  32.430   3.241
57624W        W27439  37.014  37.454  14.357
57625W        W27440  24.977  20.722   4.722
57626W        W27441  42.981  39.492  11.072
57627W        W27442   5.928  31.490   1.267
57628W        W27443  24.227  36.889  10.492
57629W        W27444  27.604  28.650  10.520
57630W        W27445  34.435  16.713  14.008
57631W        W27446  37.000  34.560  12.963
57632W        W27447  24.720   1.887   0.415
57633W        W27448   1.407  24.703   3.771
57634W        W27449  25.525   4.827   4.818
57635W        W27450  12.256  33.487   0.732
57636W        W27451  39.892  31.034   0.264
57637W        W27452  12.191   2.887   1.330
57638W        W27453  32.399  27.010   3.740
57639W        W27454  26.058  37.849   1.925
57640W        W27455  35.969  33.982  11.943
57641W        W27456   6.841  31.103   4.276
57642W        W27457  43.503  35.018  12.974
57643W        W27458   1.743  41.358   2.713
57644W        W27459   8.837  18.136   3.316
57645W        W27460  26.529  41.900  12.506
57646W        W27461  37.840   1.282   2.875
57647W        W27462  18.162  29.463   1.438
57648W        W27463  13.829  40.513   3.815
57649W        W27464  14.148  16.673  12.835
57650W        W27465   8.243  36.416   2.237
57651W        W27466   5.751   2.913  13.438
57652W        W27467  18.701  30.040  10.419
57653W        W27468   9.336  31.572  13.445
57654W        W27469   4.400  14.125   0.287
57655W        W27470  17.279  32.968   1.736
57656W        W27471  40.920   6.810   9.545
57657W        W27472  43.915  44.444   2.792
57658W        W27473  34.398  11.276   2.361
57659W        W27474   7.674  28.967  11.510
57660W        W27475   3.860  41.335  13.396
57661W        W27476  34.977  41.007   0.318
57662W        W27477  26.059  17.651   4.228
57663W        W27478  23.629  37.447   2.196
57664W        W27479  39.922   7.351   2.385
57665W        W27480   1.382  14.124  14.448
57666W        W27481   0.439  37.443   4.688
57667W        W27482  21.073  19.646   1.411
57668W        W27483  21.038  31.972   0.911
57669W        W27484  22.697  29.468  14.415
57670W        W27485  35.478  42.944   3.791
57671W        W27486  43.838  39.045  13.315
57672W        W27487   3.434  18.162  10.549
57673W        W27488  34.116   7.235  12.437
57674W        W27489  43.011  38.923  13.360
57675W        W27490  40.835  43.292   2.249
57676W        W27491   1.788  44.942   0.932
57677W        W27492   7.253  30.611  12.362
57678W        W27493  35.878  22.156   3.323
57679W        W27494  17.793  40.918  14.770
57680W        W27495  42.967  13.816  10.640
57681W        W27496  23.124  33.974  14.789
57682W        W27497  18.769   8.321   4.289
57683W        W27498  27.048  23.595   2.221
57684W        W27499   8.701  39.871  11.456
57685W        W27500  27.585  22.176  12.012
57686W        W27501  43.441  11.731  12.396
57687W        W27502   0.832  25.565  14.923
57688W        W27503  25.022   3.939   5.152
57689W        W27504  42.985  20.109  13.973
57690W        W27505  18.775  44.271  10.503
57691W        W27506  16.206  42.481   4.266
57692W        W27507  35.941  10.712  10.483
57693W        W27508  15.633  40.436   1.371
57694W        W27509  11.637  28.100  12.986
57695W        W27510  20.194  27.966   4.344
57696W        W27511  43.879  34.512  11.577
57697W        W27512  29.131   8.777  12.555
57698W        W27513  33.438  20.642  10.633
57699W        W27514  31.537  43.984  14.952
57700W        W27515  44.843   6.243   3.330
57701W        W27516  23.559  43.462   3.650
57702W        W27517  43.844   4.342  10.565
57703W        W27518  40.946   3.448   3.855
57704W        W27519  10.327  35.010   4.197
57705W        W27520  35.438  27.467  14.031
57706W        W27521  43.966   7.775   2.772
57707W        W27522  22.600  27.963  11.935
57708W        W27523  21.665  25.147  14.951
57709W        W27524  11.259  25.108   1.286
57710W        W27525  12.162   9.793  10.566
57711W        W27526  42.504   7.259  11.492
57712W        W27527   8.386  32.571  10.612
57713W        W27528  23.093   6.828  13.548
57714W        W27529  41.922   4.870   3.350
57715W        W27530  38.531  41.418   0.452
57716W        W27531   8.692  27.549   4.286
57717W        W27532  12.667  32.565   2.291
57718W        W27533  44.764  24.065   4.622
57719W        W27534  32.044   1.249   2.770
57720W        W27535   4.354  13.786   4.753
57721W        W27536  43.917  17.635  14.443
57722W        W27537  15.585  15.758  13.813
57723W        W27538  12.361  24.530   2.736
57724W        W27539  11.315  31.430  12.091
57725W        W27540  18.110  33.970   4.305
57726W        W27541  20.208  40.483   4.812
57727W        W27542  13.244  23.091   3.224
57728W        W27543   3.250  19.266   2.343
57729W        W27544  30.548  44.352   0.416
57730W        W27545   5.707  22.152   4.830
57731W        W27546  32.038  44.949  12.442
57732W        W27547  41.360  38.373  12.884
57733W        W27548  35.548  29.504  14.009
57734W        W27549   0.345  36.032   3.794
57735W        W27550  19.092   8.396   0.821
57736W        W27551  35.873  15.262   4.240
57737W        W27552   9.803  22.590   1.254
57738W        W27553   7.669  29.946   4.836
57739W        W27554  18.668  23.589   0.920
57740W        W27555  40.860  17.591  14.468
57741W        W27556  11.325  21.676   2.276
57742W        W27557  44.779  36.415   3.745
57743W        W27558  25.136  39.435   2.352
57744W        W27559  18.652  14.169  13.927
57745W        W27560   5.844  32.024   4.625
57746W        W27561  42.442  33.904  13.315
57747W        W27562  21.249  33.623   3.800
57748W        W27563  25.662  22.034  11.455
57749W        W27564  10.260  26.517  14.911
57750W        W27565  17.800  12.155   4.696
57751W        W27566  43.934  34.115  11.430
57752W        W27567  18.783   5.773  14.976
57753W        W27568  21.620  10.857  12.427
57754W        W27569  29.473  10.657   4.823
57755W        W27570  23.986  16.721  10.997
57756W        W27571  17.578   7.374  13.988
57757W        W27572  34.464  11.319  13.977
57758W        W27573  24.525   9.861  14.463
57759W        W27574  34.431  19.134  11.060
57760W        W27575  14.635  18.684   0.293
57761W        W27576  10.776  15.644   1.245
57762W        W27577   9.188  23.116  13.319
57763W        W27578  22.046   9.206   4.627
57764W        W27579   0.365   5.396  13.484
57765W        W27580  18.675  40.030  13.824
57766W        W27581  17.148  17.663   2.209
57767W        W27582  15.688   0.798  14.921
57768W        W27583  33.385  44.880  10.106
57769W        W27584   8.765  33.968  11.588
57770W        W27585  24.111  12.712  12.044
57771W        W27586  40.519   7.796   1.424
57772W        W27587  43.367  27.542  11.463
57773W        W27588  26.084  27.602   2.663
57774W        W27589  18.188  39.452   4.208
57775W        W27590   8.231  28.083  14.480
57776W        W27591  19.714  30.943  10.537
57777W        W27592  21.111  24.616  13.933
57778W        W27593  23.999  37.958   9.497
57779W        W27594  44.274  12.766  10.147
57780W        W27595   1.258  24.640   2.258
57781W        W27596  35.864  35.966  12.347
57782W        W27597  36.412  38.461  13.323
57783W        W27598  14.798  18.078   3.836
57784W        W27599  27.962  37.837   1.283
57785W        W27600   1.840  31.518  13.400
57786W        W27601  19.562  37.481   0.931
57787W        W27602  11.734  25.157   3.369
57788W        W27603  37.536   8.816   4.820
57789W        W27604  28.141  21.212  13.833
57790W        W27605  23.086  10.737  14.275
57791W        W27606  43.973  35.595  13.537
57792W        W27607  16.091  13.193  12.096
57793W        W27608  32.920  27.554  11.094
57794W        W27609  29.568  26.008  10.959
57795W        W27610  30.934  20.769  13.417
57796W        W27611   0.782   7.260   4.639
57797W        W27612  10.329  25.150   1.244
57798W        W27613   0.303   9.792  13.883
57799W        W27614  44.449  31.006  10.534
57800W        W27615  38.418  21.539  12.342
57801W        W27616   3.895  30.462   0.292
57802W        W27617  26.036   9.366  13.332
57803W        W27618  30.454  16.668   0.852
57804W        W27619  38.386   2.940  12.961
57805W        W27620  41.333  15.098  11.065
57806W        W27621   1.420  17.178   0.453
57807W        W27622  27.569  24.486  13.060
57808W        W27623  44.996   6.184  12.423
57809W        W27624   4.784  17.586   4.661
57810W        W27625  42.958  15.701  14.952
57811W        W27626  21.173  24.585  12.362
57812W        W27627  39.467   2.355   1.839
57813W        W27628  24.564  32.516  14.382
57814W        W27629  10.834  24.161  11.922
57815W        W27630   4.408  43.491   4.659
57816W        W27631  20.214   2.870  13.373
57817W        W27632  26.576  38.032  11.070
57818W        W27633  31.000  36.072  13.975
57819W        W27634  35.883  33.960  14.004
57820W        W27635   7.729   9.813  10.421
57821W        W27636  25.538  34.988   0.427
57822W        W27637  33.945  41.819   3.688
57823W        W27638  27.525   6.234   2.758
57824W        W27639  18.762  40.452  13.974
57825W        W27640  17.655  24.612  11.977
57826W        W27641  41.810  27.555   4.152
57827W        W27642  34.610   0.796  12.988
57828W        W27643   3.336  28.530  11.860
57829W        W27644   7.791  10.761   4.698
57830W        W27645  31.405  26.688   4.638
57831W        W27646  38.448  41.893   1.215
57832W        W27647  21.250  35.021  12.878
57833W        W27648  33.597  30.574   0.869
57834W        W27649   2.368  38.032   2.326
57835W        W27650  18.705  42.364   0.474
57836W        W27651  37.046  18.687  11.003
57837W        W27652  21.187  33.952  11.427
57838W        W27653   2.862  18.256  14.998
57839W        W27654  10.771   9.345   0.460
57840W        W27655  40.893  40.508  13.372
57841W        W27656  37.951  13.715  14.964
57842W        W27657  18.650  17.705   1.866
57843W        W27658  26.130  26.544   0.901
57844W        W27659  41.015  25.696   0.377
57845W        W27660  16.635  15.168  11.075
57846W        W27661  27.601  43.973  13.457
57847W        W27662   4.437  39.864   0.310
57848W        W27663  32.563  41.461  13.882
57849W        W27664  40.975  39.466  10.449
57850W        W27665  34.863  31.962  14.811
57851W        W27666   3.247   1.308   2.313
57852W        W27667   3.831   4.232   1.218
57853W        W27668  10.832  44.951   4.211
57854W        W27669  31.105  25.967  14.951
57855W        W27670   6.745  22.704   4.230
57856W        W27671  40.871  25.007  12.894
57857W        W27672  22.580   7.717  12.375
57858W        W27673   1.781  29.466  14.023
57859W        W27674  41.308  26.595   0.934
57860W        W27675   3.293  26.462  12.023
57861W        W27676   1.890  30.548  13.798
57862W        W27677   3.737  28.562  10.944
57863W        W27678   3.791  31.035  12.004
57864W        W27679  30.954  24.109   0.434
57865W        W27680  23.654  28.962   4.636
57866W        W27681  18.170  43.277   4.792
57867W        W27682   5.277  28.465   0.287
57868W        W27683   4.255  10.819   3.764
57869W        W27684  27.187   4.847   1.809
57870W        W27685  17.290   4.292  10.537
57871W        W27686  33.562  20.759   4.285
57872W        W27687   1.858  38.989   2.699
57873W        W27688  25.140  39.347  12.966
57874W        W27689   1.947  28.454  14.867
57875W        W27690  44.758   3.272  11.467
57876W        W27691  27.576  13.632   3.709
57877W        W27692  17.792  41.334   2.794
57878W        W27693  18.255   0.335  12.575
57879W        W27694  40.315   1.763   0.904
57880W        W27695  17.600   4.881   2.312
57881W        W27696  40.515  37.432   3.788
57882W        W27697  21.575   8.680  13.007
57883W        W27698  10.333  12.220   4.646
57884W        W27699  13.651  38.838   0.899
57885W        W27700  25.562  25.553   0.360
57886W        W27701  24.635  27.460  12.504
57887W        W27702  31.606  32.581   1.441
57888W        W27703  23.235   4.309   0.384
57889W        W27704  18.577   9.229  11.583
57890W        W27705  40.944   4.933  12.840
57891W        W27706  14.122  11.807  10.953
57892W        W27707   0.272  28.501  13.906
57893W        W27708   1.827  34.519  12.870
57894W        W27709  14.721   9.817   3.629
57895W        W27710  22.510  22.735  13.857
57896W        W27711  30.035  23.995   3.701
57897W        W27712   3.423  11.682  10.580
57898W        W27713  19.742  25.520   0.853
57899W        W27714  43.817  36.429  13.868
57900W        W27715  14.707  20.664   2.687
57901W        W27716  19.269  10.169  14.325
57902W        W27717  42.493   5.902   1.814
57903W        W27718  43.949  41.372   1.928
57904W        W27719  34.569  38.016  13.434
57905W        W27720  17.590  30.960   0.294
57906W        W27721  24.113  41.985   4.177
57907W        W27722  10.794  42.024  11.941
57908W        W27723  14.334  44.926   0.322
57909W        W27724   6.884  10.361   0.940
57910W        W27725   3.253   6.853   4.195
57911W        W27726  18.072  21.529  10.427
57912W        W27727  35.382  14.219  11.597
57913W        W27728  17.266  34.889  12.842
57914W        W27729  40.355   4.897   4.673
57915W        W27730  14.597  38.497  13.410
57916W        W27731   4.741   8.241   2.744
57917W        W27732   3.321  31.100   0.858
57918W        W27733  32.457  19.726  14.366
57919W        W27734  41.822   5.835  13.388
57920W        W27735  18.556  31.916  13.435
57921W        W27736  44.275   8.248   0.327
57922W        W27737   9.793  39.987  14.342
57923W        W27738  10.163  13.158   2.736
57924W        W27739  30.569  29.496  11.115
57925W        W27740  18.714  23.047  14.922
57926W        W27741  36.531  40.425   1.400
57927W        W27742  37.086  19.257   3.361
57928W        W27743  21.542  17.789   2.409
57929W        W27744  38.501  22.571   3.638
57930W        W27745  28.449  26.646   1.411
57931W        W27746  19.093  15.299  14.343
57932W        W27747  28.080  23.510   3.201
57933W        W27748   9.689   0.371   3.716
57934W        W27749   8.782  16.607  10.406
57935W        W27750  39.883   2.430   0.472
57936W        W27751  33.000  28.676  13.373
57937W        W27752   6.834  38.438  13.465
57938W        W27753  43.990  30.106  13.003
57939W        W27754  14.790  32.112   2.662
57940W        W27755   0.755  31.639  14.921
57941W        W27756  13.193  12.297  12.562
57942W        W27757  25.176  28.522  14.490
57943W        W27758   0.955   8.264  10.562
57944W        W27759  15.663  27.528   9.936
57945W        W27760  12.755  26.516  14.771
57946W        W27761  21.120  19.121  11.126
57947W        W27762  22.698  24.090  14.784
57948W        W27763   6.864   8.346   4.605
57949W        W27764  39.364  39.408   0.294
57950W        W27765   3.764  30.965  11.543
57951W        W27766  44.439  30.625  12.980
57952W        W27767  14.280  13.648   4.689
57953W        W27768  32.578  28.672  11.861
57954W        W27769  29.993  32.024   1.383
57955W        W27770   2.785  27.130  11.929
57956W        W27771  34.582  27.540   3.767
57957W        W27772  11.678  12.738   2.412
57958W        W27773   0.750  24.654  11.022
57959W        W27774  40.858   1.372   1.240
57960W        W27775  42.032   0.834   4.622
57961W        W27776  25.517  25.577   1.773
57962W        W27777  18.213  37.522  12.844
57963W        W27778  42.420  26.565   3.160
57964W        W27779   3.249   2.233   2.298
57965W        W27780  15.211  14.618   3.266
57966W        W27781   0.787  44.274   0.263
57967W        W27782  44.488  23.506   2.197
57968W        W27783  16.630   4.282   2.798
57969W        W27784   4.938  15.125  11.526
57970W        W27785  27.139  16.768   0.905
57971W        W27786  21.174  43.853   0.833
57972W        W27787  33.455   2.879   3.764
57973W        W27788   8.395  18.188  14.431
57974W        W27789  42.384  21.677  14.498
57975W        W27790  29.556  35.593  12.342
57976W        W27791  13.318   3.246   1.354
57977W        W27792  34.960  36.045   4.668
57978W        W27793  13.288   0.745   3.330
57979W        W27794  19.646  34.925   5.105
57980W        W27795  40.848  30.588  10.487
57981W        W27796  30.503  27.478  14.811
57982W        W27797  14.732  21.672   2.325
57983W        W27798   3.439  11.753   4.706
57984W        W27799  35.864  36.993   1.847
57985W        W27800  25.588  42.894  11.389
57986W        W27801  24.114  13.310  11.602
57987W        W27802  23.505  15.577   1.746
57988W        W27803  33.460  10.183  13.936
57989W        W27804  38.917  18.752  10.087
57990W        W27805   1.780  42.322  13.851
57991W        W27806  43.986  12.776  14.030
57992W        W27807   7.676  43.770   3.284
57993W        W27808  22.573  14.100   0.777
57994W        W27809  42.395  15.766  14.415
57995W        W27810  39.510  24.532   1.775
57996W        W27811   7.379   1.807  11.500
57997W        W27812   5.854  35.070  12.061
57998W        W27813  39.970   2.723  11.475
57999W        W27814  42.776  27.469   4.271
58000W        W27815  29.454   2.428  12.977
58001W        W27816  44.854  21.196  14.763
58002W        W27817  23.025  17.090   2.312
58003W        W27818   0.865  19.058   3.661
58004W        W27819   9.205   6.682   3.340
58005W        W27820  41.384  20.548  11.044
58006W        W27821   0.781  40.439  12.420
58007W        W27822  41.893   9.820  12.441
58008W        W27823  26.155  41.907   4.313
58009W        W27824  24.980  20.234   2.706
58010W        W27825  33.394  11.132  12.391
58011W        W27826  37.901  34.373   3.346
58012W        W27827   3.756  36.421   0.790
58013W        W27828  25.152  31.009   1.906
58014W        W27829   2.318  43.307   0.386
58015W        W27830  23.155   5.301   3.668
58016W        W27831  18.637  10.366   4.667
58017W        W27832  31.135  19.535  10.089
58018W        W27833  30.909   1.823   1.903
58019W        W27834  21.574  39.395   1.248
58020W        W27835   1.457  42.334   0.481
58021W        W27836  44.965  35.490   1.387
58022W        W27837  14.332   4.385   0.950
58023W        W27838  33.466  31.117  11.938
58024W        W27839  12.301  41.373  13.797
58025W        W27840   1.882  27.047  12.353
58026W        W27841  23.509  12.302  10.978
58027W        W27842  44.855   4.328   1.257
58028W        W27843  16.789  39.931  12.513
58029W        W27844  19.061  16.716   4.264
58030W        W27845  11.266  44.277   4.699
58031W        W27846  27.103  34.396  11.910
58032W        W27847  35.046  39.559  13.960
58033W        W27848  22.107   7.367   2.826
58034W        W27849   6.416  22.166   4.257
58035W        W27850  36.946   4.253   3.825
58036W        W27851  12.679  35.449  14.963
58037W        W27852  25.205  35.471  11.463
58038W        W27853  24.507   7.876  10.987
58039W        W27854  23.534   1.865   2.382
58040W        W27855  29.978   3.848  11.916
58041W        W27856   2.775  16.280  14.018
58042W        W27857  11.632   7.414  14.806
58043W        W27858  11.668  22.669   1.728
58044W        W27859  18.601  26.086  14.796
58045W        W27860  18.199  31.983  14.961
58046W        W27861  29.560  30.555  10.449
58047W        W27862   3.241  25.082  14.456
58048W        W27863  17.241  27.628   2.285
58049W        W27864  19.129  28.558  11.433
58050W        W27865  30.160  33.054  11.511
58051W        W27866  14.679  31.492  11.898
58052W        W27867  42.985  10.361   1.832
58053W        W27868  34.459  39.392  14.776
58054W        W27869   0.862   5.807   3.848
58055W        W27870  23.992  11.350  14.759
58056W        W27871  43.295  13.273  10.601
58057W        W27872  39.811  37.420   1.851
58058W        W27873   4.790   7.370  13.373
58059W        W27874  11.218  24.016  10.442
58060W        W27875  15.107  35.456   1.252
58061W        W27876  12.752  26.963   3.314
58062W        W27877  10.844  37.078  10.530
58063W        W27878  17.647  25.119   1.854
58064W        W27879  21.088  44.331  14.326
58065W        W27880  15.689  34.582  12.908
58066W        W27881   8.678  33.930  13.909
58067W        W27882  29.093   4.788   4.325
58068W        W27883   1.374  42.932   2.750
58069W        W27884  42.375  43.366  12.461
58070W        W27885  10.192  15.590  12.546
58071W        W27886  19.129  35.998  11.002
58072W        W27887  15.756  42.421  14.458
58073W        W27888  24.213  24.676  13.426
58074W        W27889  21.180  11.209   2.880
58075W        W27890  29.431  37.540  11.856
58076W        W27891   3.901  19.690   1.856
58077W        W27892   7.869   0.747   1.926
58078W        W27893  34.042  24.557   1.724
58079W        W27894  10.787  42.926   4.195
58080W        W27895  16.226   7.748  11.039
58081W        W27896  35.501  41.856   1.881
58082W        W27897  16.238  10.275  10.068
58083W        W27898  30.635  20.053   4.294
58084W        W27899  26.511  40.463   1.264
58085W        W27900   3.895   4.325   0.407
58086W        W27901  20.606  43.011   3.342
58087W        W27902   7.841   4.205  10.501
58088W        W27903   8.846  18.103  12.954
58089W        W27904   4.355  11.166  14.935
58090W        W27905   8.390  40.510  10.605
58091W        W27906  16.275  26.667   3.345
58092W        W27907  41.530  41.322   3.305
58093W        W27908  39.835  42.505   3.782
58094W        W27909  16.681  14.667   0.450
58095W        W27910  30.933  35.943  12.554
58096W        W27911   3.219  11.372  14.891
58097W        W27912  43.867  39.905  13.361
58098W        W27913  37.461   4.409   0.788
58099W        W27914  25.111  35.988  14.784
58100W        W27915   5.885  19.631   3.372
58101W        W27916  14.171  32.562  14.342
58102W        W27917  13.235  16.305   1.288
58103W        W27918   6.891  20.738   4.728
58104W        W27919  13.680  29.162  10.572
58105W        W27920  43.005  31.559  14.985
58106W        W27921  25.034   0.898  12.087
58107W        W27922  33.560  14.789   3.731
58108W        W27923  32.427  21.154  11.928
58109W        W27924  41.020  21.116   0.949
58110W        W27925  27.148  10.713   1.770
58111W        W27926  36.483  34.531   1.340
58112W        W27927  12.211  35.384   4.776
58113W        W27928  38.525  13.163   1.436
58114W        W27929  31.421  21.146   1.352
58115W        W27930  39.870  21.177   0.925
58116W        W27931  39.442  44.493   9.920
58117W        W27932  33.543   6.870   2.761
58118W        W27933   3.230  26.561   2.834
58119W        W27934  35.004  35.884  10.568
58120W        W27935   6.197  27.080  13.832
58121W        W27936  30.454   8.670   4.123
58122W        W27937  12.308  37.518   1.928
58123W        W27938  24.126   8.729   3.336
58124W        W27939  29.002  30.991   0.460
58125W        W27940  37.572   4.761  14.420
58126W        W27941  39.324   5.265  14.020
58127W        W27942  35.591  36.539  11.550
58128W        W27943  42.001   8.814  12.086
58129W        W27944  29.148  23.990   2.209
58130W        W27945   0.867  36.421   4.296
58131W        W27946  30.486  40.311   1.782
58132W        W27947   5.743  14.302   3.795
58133W        W27948  12.126   8.870   0.828
58134W        W27949  44.824  17.191  11.509
58135W        W27950  20.176  26.203   1.719
58136W        W27951  13.124   0.894  11.409
58137W        W27952  28.464  21.544   3.379
58138W        W27953  42.820  32.035   1.288
58139W        W27954  12.844  25.685  12.078
58140W        W27955  15.320  15.185   0.946
58141W        W27956  23.675  17.187   0.799
58142W        W27957  17.239   2.453  13.938
58143W        W27958  10.207  18.742  12.074
58144W        W27959  26.599  40.523   2.304
58145W        W27960   7.352  10.789  10.515
58146W        W27961  11.181  38.910   4.807
58147W        W27962   4.439  14.177   4.660
58148W        W27963  29.496  13.650  10.968
58149W        W27964   0.970   9.790  11.603
58150W        W27965  20.211  17.671  11.123
58151W        W27966   1.872   8.815  11.436
58152W        W27967  16.261  23.149  13.339
58153W        W27968  28.519  24.615   1.705
58154W        W27969   0.763  44.391   5.293
58155W        W27970  10.264  10.182   2.254
58156W        W27971   9.245  29.427  11.887
58157W        W27972  32.626  28.072  11.072
58158W        W27973  17.150  33.518  11.559
58159W        W27974  22.519  32.021   3.344
58160W        W27975  27.098  38.458   4.249
58161W        W27976  21.260  16.159   4.119
58162W        W27977   0.492   4.918  12.029
58163W        W27978  22.508  26.462   2.248
58164W        W27979  27.564   7.866   1.433
58165W        W27980  15.114   4.409  11.064
58166W        W27981  42.518   0.389  14.807
58167W        W27982   8.295  32.981   3.334
58168W        W27983  12.144  14.590   3.825
58169W        W27984  14.781  13.253  14.289
58170W        W27985   9.659   4.698  14.771
58171W        W27986  14.153  14.223   1.403
58172W        W27987  24.146  25.710  14.957
58173W        W27988  18.678  28.592   4.325
58174W        W27989   1.269  41.351  14.331
58175W        W27990   0.906   3.342  12.869
58176W        W27991  28.633   7.240  11.984
58177W        W27992  33.048  11.317  10.418
58178W        W27993  38.012   9.829  11.857
58179W        W27994   5.226  13.630   0.949
58180W        W27995  24.635  45.000  11.563
58181W        W27996  40.045  16.199  13.451
58182W        W27997  24.489  14.591   0.391
58183W        W27998  34.480  39.459  13.923
58184W        W27999  42.419  12.328   4.745
58185W        W28000  30.991  15.275  11.371
58186W        W28001   2.288  11.830  11.050
58187W        W28002  20.700  34.096  12.850
58188W        W28003   5.715  38.407  14.920
58189W        W28004   2.437  23.164  12.066
58190W        W28005  29.935  13.821  10.975
58191W        W28006   9.251   0.829   0.359
58192W        W28007  34.898   5.731   2.400
58193W        W28008  40.001  34.599   2.844
58194W        W28009  33.463  44.301   3.730
58195W        W28010   0.379  22.709   3.302
58196W        W28011  30.158  31.436   2.314
58197W        W28012  29.170  41.405  11.517
58198W        W28013  17.777  37.367   5.094
58199W        W28014  40.442  43.442   4.167
58200W        W28015   4.834  32.097  13.880
58201W        W28016  14.751   3.315   0.751
58202W        W28017  12.361  16.639   3.769
58203W        W28018  13.695  18.766   2.194
58204W        W28019  32.547  21.211  12.963
58205W        W28020   8.824  13.151   5.290
58206W        W28021  42.824  43.822  14.887
58207W        W28022   1.408  28.546  11.535
58208W        W28023   1.285   8.367   4.148
58209W        W28024  17.768  43.474   1.825
58210W        W28025  43.901   6.849   0.318
58211W        W28026   3.935  30.030   3.178
58212W        W28027   6.235   3.743  14.318
58213W        W28028  23.988  14.198   4.713
58214W        W28029  10.142  25.130   2.364
58215W        W28030  23.165  27.152   2.857
58216W        W28031  10.771   6.886   0.872
58217W        W28032  39.062  24.516  10.975
58218W        W28033  42.848  37.499   4.350
58219W        W28034  40.863  11.176   2.255
58220W        W28035  11.186  17.129   5.696
58221W        W28036  43.878  44.889  13.030
58222W        W28037  26.143   3.826   0.295
58223W        W28038  40.311  20.721   2.671
58224W        W28039  36.866  15.611  10.018
58225W        W28040  28.115  39.909   1.341
58226W        W28041  12.243  27.480   3.326
58227W        W28042   1.896  41.529   0.438
58228W        W28043   4.330  23.050  12.518
58229W        W28044  32.628   9.378   4.353
58230W        W28045  38.547   4.824   2.745
58231W        W28046  16.700   3.747   3.702
58232W        W28047  31.106  40.498  13.060
58233W        W28048   0.408  31.597   4.248
58234W        W28049  17.280  44.319   2.845
58235W        W28050  39.355  16.143   4.303
58236W        W28051  30.612  25.009   3.183
58237W        W28052   5.235  24.669   0.310
58238W        W28053  43.006  31.608  11.496
58239W        W28054  26.464   8.319   3.762
58240W        W28055  34.022  12.162  11.089
58241W        W28056   0.939  14.648   4.128
58242W        W28057  38.503   0.769   2.202
58243W        W28058  27.140  29.457   9.992
58244W        W28059  42.978  33.885  12.531
58245W        W28060  15.210  35.457   3.167
58246W        W28061  26.681  18.743  14.824
58247W        W28062  42.412  23.205  12.521
58248W        W28063  23.003  11.212  12.068
58249W        W28064  28.964  28.180   3.794
58250W        W28065  14.819  36.516   2.339
58251W        W28066  42.512   2.406   0.923
58252W        W28067  12.242  44.882   4.188
58253W        W28068  32.591  25.703  11.528
58254W        W28069  24.209  18.656  12.376
58255W        W28070  37.886  20.211   4.232
58256W        W28071  29.532  39.029  12.922
58257W        W28072   4.858  38.007  12.444
58258W        W28073  33.513  29.564  10.161
58259W        W28074  12.168  36.574   1.715
58260W        W28075  25.055  32.565   3.326
58261W        W28076   1.888  37.890  13.064
58262W        W28077  44.799  15.270  14.494
58263W        W28078   3.418   5.232  13.503
58264W        W28079  13.645  35.514   3.689
58265W        W28080  20.197   8.296   3.264
58266W        W28081  18.610  23.599   2.278
58267W        W28082  43.330  29.512  11.518
58268W        W28083  32.515  23.202   4.293
58269W        W28084  18.688  39.042  13.816
58270W        W28085   2.383  43.927   4.826
58271W        W28086  38.330  18.274  13.514
58272W        W28087  31.001  10.158   3.375
58273W        W28088  21.738  19.120   1.804
58274W        W28089  23.675  11.184   4.213
58275W        W28090  29.467  25.992   0.281
58276W        W28091  19.775  11.206  11.463
58277W        W28092   7.877  30.081   4.219
58278W        W28093  13.759  37.393  14.915
58279W        W28094   0.414   1.283  10.901
58280W        W28095  32.961   2.306   4.274
58281W        W28096  43.834  18.099   1.297
58282W        W28097  39.321  21.671   3.771
58283W        W28098  43.767   2.937   1.865
58284W        W28099   2.809  13.638   4.637
58285W        W28100  41.414  16.092   2.364
58286W        W28101  17.777  33.075   4.166
58287W        W28102  23.218  37.435  12.530
58288W        W28103   6.226  27.011   0.373
58289W        W28104   2.845  32.578   3.149
58290W        W28105  13.834  29.649   2.309
58291W        W28106  44.331  11.326   9.988
58292W        W28107   4.895   4.368   1.332
58293W        W28108  39.979  24.540   0.941
58294W        W28109   0.322   3.952  11.881
58295W        W28110  22.159  44.971   3.247
58296W        W28111  21.722  35.887  13.040
58297W        W28112  39.344  25.566  11.119
58298W        W28113   6.882  30.982  11.067
58299W        W28114  41.982  44.415   0.907
58300W        W28115   9.817  21.233  12.054
58301W        W28116  38.054  12.178   0.364
58302W        W28117  31.040  19.238  11.588
58303W        W28118  34.918  33.086  10.458
58304W        W28119  24.024   0.251   1.824
58305W        W28120  23.227  23.510   2.799
58306W        W28121  42.888  22.611   4.168
58307W        W28122  35.985  13.209   2.712
58308W        W28123  43.276  39.514  11.457
58309W        W28124  44.831   5.838   4.221
58310W        W28125  18.078  16.729  11.573
58311W        W28126   6.847  41.913   9.925
58312W        W28127   9.750  18.260   1.837
58313W        W28128  44.993  25.675   2.178
58314W        W28129  17.780   6.292  11.472
58315W        W28130  42.291   3.796   2.213
58316W        W28131  16.203  34.383  13.952
58317W        W28132  25.107  43.380  12.089
58318W        W28133  44.944  39.048  11.545
58319W        W28134   7.208  28.607  14.344
58320W        W28135   4.702  18.193  12.950
58321W        W28136  15.641  18.554   2.295
58322W        W28137  19.245  23.502  12.986
58323W        W28138  18.598  14.611  11.998
58324W        W28139  25.087  22.114   0.909
58325W        W28140  40.515  38.409  10.958
58326W        W28141   1.915   5.383  12.425
58327W        W28142   2.346  30.049  11.541
58328W        W28143  15.740  25.645   1.749
58329W        W28144  42.405   9.745  12.518
58330W        W28145  18.649  32.026   5.190
58331W        W28146  21.713  10.331  11.934
58332W        W28147  12.286   7.683   1.915
58333W        W28148  37.484   9.811  12.440
58334W        W28149   9.789  22.552   2.773
58335W        W28150   6.823  24.627  12.986
58336W        W28151  44.866  18.111  12.497
58337W        W28152  40.366  40.001   3.333
58338W        W28153  37.506  31.988   4.238
58339W        W28154  32.540  40.813  10.489
58340W        W28155  12.329  19.097   0.365
58341W        W28156  10.212  35.916  13.822
58342W        W28157  44.759  20.039  13.490
58343W        W28158   4.213   9.726  11.385
58344W        W28159  33.090   2.947  14.290
58345W        W28160  42.341  38.437  13.876
58346W        W28161  23.682  21.029   2.712
58347W        W28162   5.719  28.468  13.832
58348W        W28163  41.848   3.237  11.083
58349W        W28164  11.151  30.091  11.405
58350W        W28165  36.072  38.915  10.434
58351W        W28166  13.110  32.982   2.236
58352W        W28167  44.934  35.965   5.085
58353W        W28168  39.508   3.237   2.876
58354W        W28169  42.339  18.129   1.899
58355W        W28170  43.399  36.369   1.386
58356W        W28171   9.711  34.439  12.941
58357W        W28172  40.406  36.404   4.285
58358W        W28173  18.759   5.268   1.850
58359W        W28174  13.624  27.587  10.991
58360W        W28175  33.088   3.884   2.186
58361W        W28176  12.231  42.464  14.437
58362W        W28177  31.913  41.395  12.863
58363W        W28178   6.319  40.501   3.816
58364W        W28179  28.107  33.430   3.201
58365W        W28180   5.713  24.986  12.339
58366W        W28181  24.556  11.799  13.881
58367W        W28182  28.564  24.056   3.160
58368W        W28183  30.000  22.724  12.481
58369W        W28184  10.138  34.514   2.792
58370W        W28185  39.874   0.266  12.535
58371W        W28186  24.620  39.471  13.993
58372W        W28187   1.392  25.083   1.778
58373W        W28188  27.592  18.123  11.951
58374W        W28189  37.573  14.791   3.804
58375W        W28190  32.438  21.672  12.044
58376W        W28191  25.663  22.562   1.451
58377W        W28192  35.521  11.176  13.465
58378W        W28193   3.408  16.663  10.981
58379W        W28194  22.651   4.940  13.011
58380W        W28195  31.632  28.498   0.323
58381W        W28196  16.596   2.747  10.944
58382W        W28197  11.181  18.632  10.142
58383W        W28198  36.052   2.435  10.520
58384W        W28199  37.557   4.888   2.239
58385W        W28200  28.984   9.775  13.543
58386W        W28201  34.880  38.467  14.011
58387W        W28202  33.067  41.487  11.081
58388W        W28203   0.827  36.443  13.367
58389W        W28204  38.406  30.158  11.000
58390W        W28205  24.020  31.981   2.384
58391W        W28206   5.283   1.243   1.730
58392W        W28207  28.160  23.092   5.146
58393W        W28208  28.059  28.966   2.821
58394W        W28209  24.516   3.234   4.311
58395W        W28210  14.753  13.166  10.640
58396W        W28211  18.153  18.671   2.809
58397W        W28212   2.246  28.474  12.984
58398W        W28213  14.317  21.119  10.643
58399W        W28214  36.892   9.367   1.696
58400W        W28215  19.773   5.230  14.364
58401W        W28216  22.556  17.609  10.415
58402W        W28217  40.472  36.428   1.321
58403W        W28218  20.255   2.885   0.817
58404W        W28219  18.275  22.039   1.433
58405W        W28220  15.113  13.767  13.055
58406W        W28221  22.998   2.241   1.433
58407W        W28222  37.389  16.195  13.431
58408W        W28223  10.650  40.433   2.861
58409W        W28224  20.235  44.382  11.002
58410W        W28225   8.247  16.234   2.280
58411W        W28226   2.367   4.754  12.485
58412W        W28227  24.617  33.880  10.887
58413W        W28228   4.928  41.984  11.960
58414W        W28229  44.376  30.132   1.834
58415W        W28230  32.586   1.955   2.334
58416W        W28231  15.126  19.275   0.772
58417W        W28232  36.956  17.134  13.500
58418W        W28233  24.569  23.568   4.613
58419W        W28234   3.217  15.806   0.840
58420W        W28235   9.154  33.995  14.274
58421W        W28236  23.223  30.911   3.226
58422W        W28237  33.479  22.034   1.930
58423W        W28238  42.361  43.481   4.659
58424W        W28239   9.221   7.388  10.957
58425W        W28240  21.533  22.725  14.969
58426W        W28241  18.054  29.961   0.404
58427W        W28242  34.435  44.870   1.306
58428W        W28243  26.052  15.633  11.934
58429W        W28244   0.377   0.875   1.407
58430W        W28245  19.569  26.160   2.302
58431W        W28246   1.337  43.438   3.805
58432W        W28247  41.352   9.854  13.846
58433W        W28248  29.474  26.512   2.197
58434W        W28249  41.813  43.943  11.898
58435W        W28250   6.749  28.086  12.826
58436W        W28251   7.400   1.421  12.048
58437W        W28252  34.980   4.780  12.077
58438W        W28253   5.363  34.940  13.986
58439W        W28254   2.289  11.788   5.195
58440W        W28255  35.101  31.576   2.699
58441W        W28256  14.657  23.629   3.690
58442W        W28257  29.613  18.109  11.527
58443W        W28258  40.371  23.675  10.080
58444W        W28259  25.084  11.242   1.449
58445W        W28260  27.569  14.203  11.460
58446W        W28261  28.662  35.535   2.706
58447W        W28262  36.867  40.977   3.158
58448W        W28263   2.423  43.007  12.980
58449W        W28264  11.193  20.716   1.703
58450W        W28265  24.655  23.534   3.210
58451W        W28266  37.871  35.522  12.962
58452W        W28267  44.942  37.486  13.525
58453W        W28268  30.472  32.393  14.834
58454W        W28269   3.826  11.802   0.444
58455W        W28270  24.553  32.518  10.449
58456W        W28271   1.287   3.419   4.814
58457W        W28272  27.671  15.142  13.868
58458W        W28273  15.798   9.860  12.981
58459W        W28274   0.782  35.894   3.706
58460W        W28275   6.798   4.872  12.941
58461W        W28276  18.595   0.285  14.858
58462W        W28277  38.034  29.062  13.957
58463W        W28278  34.939  30.457   2.869
58464W        W28279  32.589  32.920   3.660
58465W        W28280  10.384  39.359   0.400
58466W        W28281  15.157  18.296   2.274
58467W        W28282  26.677  24.155   2.868
58468W        W28283   9.858  44.881   2.727
58469W        W28284  12.229  24.157  10.536
58470W        W28285  34.953   7.414   3.856
58471W        W28286  19.733  18.219   3.716
58472W        W28287  24.701  42.898   4.139
58473W        W28288  29.432  15.724   0.261
58474W        W28289  41.820   1.883  12.095
58475W        W28290   3.318  31.112   2.896
58476W        W28291  31.554  35.093   2.246
58477W        W28292  19.132  41.037   0.851
58478W        W28293  14.799   9.693   1.728
58479W        W28294  41.977  28.542  13.547
58480W        W28295  43.902  35.900  13.903
58481W        W28296  34.035  16.083  12.996
58482W        W28297  30.061  23.542  12.856
58483W        W28298  41.440  40.927   3.753
58484W        W28299  23.724  23.659  14.514
58485W        W28300  31.594  33.400  13.930
58486W        W28301   2.382  38.982  14.485
58487W        W28302  40.359  25.176  13.958
58488W        W28303  12.725  18.093  12.366
58489W        W28304  10.711  40.369   4.237
58490W        W28305  35.544   2.867  12.435
58491W        W28306  10.187  44.329  14.488
58492W        W28307  25.508   9.217   3.168
58493W        W28308  15.814  16.072  13.384
58494W        W28309  35.970  37.968   0.347
58495W        W28310   4.444  38.019  14.350
58496W        W28311  26.025  30.470   1.419
58497W        W28312   9.862  37.843   2.689
58498W        W28313  40.816  20.077  11.089
58499W        W28314   5.326  28.152  11.046
58500W        W28315  29.570  14.614   0.850
58501W        W28316  35.557  10.346   4.628
58502W        W28317  19.139  21.079  13.419
58503W        W28318  37.934   0.385   4.135
58504W        W28319  29.109  37.577   1.712
58505W        W28320  10.741   8.364   4.200
58506W        W28321  12.308  18.603  11.566
58507W        W28322   2.234  25.132  14.819
58508W        W28323  11.150   2.764  12.833
58509W        W28324  33.393  33.970  10.615
58510W        W28325  22.561  14.124  10.101
58511W        W28326  18.692   4.699  12.378
58512W        W28327  43.513  14.263   4.287
58513W        W28328   8.286   2.840   1.825
58514W        W28329  20.570  42.439   1.359
58515W        W28330  26.119  19.091   3.281
58516W        W28331  32.574   7.354   3.839
58517W        W28332  28.998  34.913   2.819
58518W        W28333  30.996  43.955   0.952
58519W        W28334   9.699  27.570  11.554
58520W        W28335   8.220  29.105  13.841
58521W        W28336  36.952  17.688   4.144
58522W        W28337   1.852  12.765  12.390
58523W        W28338  10.162   0.298   3.178
58524W        W28339  38.990   8.345   5.091
58525W        W28340  13.163  41.343  11.383
58526W        W28341  24.137   3.930  13.344
58527W        W28342  38.531  29.958   4.601
58528W        W28343  30.466  16.296  11.906
58529W        W28344  26.019  21.688   3.289
58530W        W28345  16.579  29.525  13.422
58531W        W28346  13.239  28.600  13.953
58532W        W28347  36.858  20.593  13.941
58533W        W28348   0.341  17.603   0.316
58534W        W28349  14.114   8.285  12.937
58535W        W28350  11.627  30.927  12.892
58536W        W28351  25.601  24.980  14.953
58537W        W28352   5.350  15.086   1.340
58538W        W28353  38.469   0.966   1.867
58539W        W28354  17.649   8.229  13.858
58540W        W28355  25.485  36.913   2.836
58541W        W28356  24.000  36.368   0.381
58542W        W28357  12.730   4.828   1.870
58543W        W28358   1.939  14.227   0.248
58544W        W28359  25.147  31.528   1.347
58545W        W28360  14.791   3.454   3.168
58546W        W28361   4.711  18.111  14.829
58547W        W28362  38.921   5.333   0.787
58548W        W28363  19.665  34.613  11.408
58549W        W28364   4.906   5.350  13.010
58550W        W28365  22.561   0.433   0.828
58551W        W28366  40.507  38.498  10.508
58552W        W28367  19.176   4.893  10.047
58553W        W28368  21.049  37.853   4.281
58554W        W28369  14.250   7.872   1.757
58555W        W28370   3.342  38.430  11.011
58556W        W28371  30.085  11.280  10.520
58557W        W28372  37.349   1.901  14.400
58558W        W28373  22.034  26.588  14.348
58559W        W28374  40.394  31.526  12.980
58560W        W28375  17.218  11.232  12.402
58561W        W28376   8.790  37.459  11.545
58562W        W28377  37.832  35.037  14.962
58563W        W28378  20.610  23.659  13.491
58564W        W28379   8.268   7.759  12.974
58565W        W28380  42.841  43.376   4.331
58566W        W28381  17.580  35.989  11.915
58567W        W28382  20.544  12.829   0.814
58568W        W28383   4.444   5.759  14.830
58569W        W28384  15.586  13.640  10.436
58570W        W28385  25.159  10.373   5.284
58571W        W28386  38.843  37.491   9.924
58572W        W28387  20.073   8.810   3.197
58573W        W28388  15.142  24.672  11.443
58574W        W28389  15.734  15.304  12.381
58575W        W28390   4.251   2.397   0.469
58576W        W28391  20.134  42.942  11.597
58577W        W28392  22.555   7.799   0.416
58578W        W28393  35.983  30.950   2.374
58579W        W28394  29.955   0.944   2.874
58580W        W28395  26.164  39.499  13.407
58581W        W28396  11.344   8.701   1.341
58582W        W28397  25.212  10.827   1.932
58583W        W28398  23.160  27.159  13.811
58584W        W28399  21.544  42.004   3.651
58585W        W28400  41.898  22.155   4.599
58586W        W28401  37.029  41.933  10.542
58587W        W28402  38.524  31.097  14.425
58588W        W28403  40.381  24.663  13.540
58589W        W28404   1.398  37.870  14.373
58590W        W28405  27.196  42.787   3.302
58591W        W28406  29.060  12.790   3.259
58592W        W28407  20.093  14.830   3.382
58593W        W28408  25.693   4.209   3.725
58594W        W28409   3.800  37.900   3.761
58595W        W28410  43.352   6.187  13.883
58596W        W28411  12.831  17.061  10.496
58597W        W28412  35.581  39.020   2.243
58598W        W28413   7.722  34.394   9.983
58599W        W28414  34.589  15.636  14.954
58600W        W28415  13.828  41.952   0.844
58601W        W28416  22.179  36.943   2.350
58602W        W28417  23.170  40.517   3.721
58603W        W28418  28.514   7.805   4.210
58604W        W28419  31.584   2.873   1.772
58605W        W28420  23.062  24.023  12.423
58606W        W28421  34.490   8.748   0.452
58607W        W28422  14.340   4.865  10.448
58608W        W28423  28.587  37.528   3.209
58609W        W28424  20.593  33.924   2.359
58610W        W28425  19.059  36.038  11.998
58611W        W28426   5.406  43.970   0.876
58612W        W28427   8.827  37.497  10.995
58613W        W28428   8.703  26.484   1.861
58614W        W28429   2.729  17.284  11.508
58615W        W28430  15.579  35.866  10.425
58616W        W28431  23.593   2.833  12.955
58617W        W28432  12.260  13.332   4.814
58618W        W28433  36.050  16.077  11.384
58619W        W28434  15.316  11.731  13.908
58620W        W28435  29.136  27.008  10.531
58621W        W28436  37.401  19.219   2.899
58622W        W28437  40.402  33.449   4.273
58623W        W28438   0.863  26.175  13.942
58624W        W28439  11.300  24.040  12.517
58625W        W28440  30.158  14.810   3.251
58626W        W28441  44.774  31.083   0.332
58627W        W28442  40.372  42.783   1.341
58628W        W28443  35.430   8.662   0.262
58629W        W28444  28.111  17.683  14.291
58630W        W28445  37.336  24.056   4.147
58631W        W28446   1.335  21.053   1.306
58632W        W28447   9.885  17.672   1.860
58633W        W28448   8.855   6.856  13.319
58634W        W28449  21.635   6.839  12.024
58635W        W28450  19.100  19.631  10.645
58636W        W28451  29.107  38.390   3.800
58637W        W28452  27.136  11.695  13.909
58638W        W28453  17.728   8.802  13.805
58639W        W28454  24.501  21.107  10.600
58640W        W28455  42.006   5.411   2.767
58641W        W28456  42.020  14.782  13.436
58642W        W28457  20.601  42.966   4.682
58643W        W28458  13.662  24.138   1.870
58644W        W28459  16.646  27.122  12.997
58645W        W28460  36.516  27.655   1.267
58646W        W28461   9.272   7.392   4.138
58647W        W28462  44.979   1.311  14.417
58648W        W28463  24.107   9.762   2.685
58649W        W28464  25.120  33.940  12.568
58650W        W28465   2.268  14.740   3.339
58651W        W28466  28.137  28.108   0.295
58652W        W28467  25.115  35.102   3.363
58653W        W28468  32.436  37.902  10.961
58654W        W28469   2.822  17.785   2.833
58655W        W28470  34.000  34.065  11.911
58656W        W28471  40.344  26.138  12.343
58657W        W28472  40.364  42.869   5.287
58658W        W28473  42.424   3.931  13.487
58659W        W28474  29.082  11.168  10.415
58660W        W28475   0.875   2.720   4.680
58661W        W28476   6.250  30.024  10.059
58662W        W28477  40.831  34.414   3.292
58663W        W28478  24.177  28.475   2.730
58664W        W28479  16.606  12.756  13.031
58665W        W28480  31.521  33.545  14.866
58666W        W28481  32.031  40.020  11.395
58667W        W28482  14.682  35.106   3.187
58668W        W28483   2.277  35.574  10.540
58669W        W28484  10.829  41.346   2.362
58670W        W28485  11.356  19.656   0.407
58671W        W28486   8.824  22.244  13.326
58672W        W28487   0.327  39.820  13.804
58673W        W28488  27.949  32.624  11.042
58674W        W28489  29.120   5.326  11.461
58675W        W28490   6.380   3.444  11.926
58676W        W28491  44.779  15.714  13.836
58677W        W28492  26.652   2.293   4.825
58678W        W28493  20.103  41.864   1.333
58679W        W28494  32.506  17.599   3.695
58680W        W28495  18.082  43.849  12.562
58681W        W28496  44.499  20.165  13.005
58682W        W28497  10.765  12.832   2.280
58683W        W28498  34.441  43.989   0.429
58684W        W28499  22.516  44.936  12.363
58685W        W28500   4.331  19.083  10.465
58686W        W28501   1.925  23.714   0.250
58687W        W28502  37.961   7.175   0.856
58688W        W28503   8.231   5.806  10.503
58689W        W28504  10.644   6.693   1.220
58690W        W28505  36.395  36.009   9.991
58691W        W28506  44.837  36.854   3.835
58692W        W28507   9.669  22.738  14.335
58693W        W28508   9.729  23.200   3.823
58694W        W28509  28.084  26.552  13.520
58695W        W28510  32.912  27.513  13.997
58696W        W28511  18.194  24.041  12.022
58697W        W28512  28.937   0.365  13.822
58698W        W28513   8.869  13.609  12.862
58699W        W28514  39.853  20.225   3.769
58700W        W28515   6.244  33.502   0.473
58701W        W28516  30.509  16.310  13.917
58702W        W28517  25.686  22.143  10.492
58703W        W28518   3.855  24.493   3.348
58704W        W28519  34.002  40.047   4.627
58705W        W28520  37.990  20.583  14.278
58706W        W28521  23.032  18.290   0.753
58707W        W28522  28.605  17.137   3.789
58708W        W28523  19.567   4.836   2.377
58709W        W28524  34.589   2.863   2.706
58710W        W28525  35.034   4.918   4.644
58711W        W28526  12.653  31.629   3.672
58712W        W28527  21.540   4.909  13.439
58713W        W28528  36.963  30.141  11.495
58714W        W28529   3.352  14.594  14.775
58715W        W28530   6.895   4.399   3.284
58716W        W28531  41.798  11.214  14.386
58717W        W28532  18.757   7.213  14.461
58718W        W28533  40.412   1.956  13.937
58719W        W28534  28.008  17.707  11.485
58720W        W28535  19.746  29.504  14.341
58721W        W28536  29.952   7.211  11.964
58722W        W28537   9.676  26.169  12.904
58723W        W28538  38.955   7.794   4.325
58724W        W28539  17.600  16.090   4.238
58725W        W28540  41.371  38.479  13.969
58726W        W28541  31.956  40.326  11.509
58727W        W28542  29.034  29.452   1.770
58728W        W28543   1.353  14.177   4.126
58729W        W28544  34.005  36.888   3.668
58730W        W28545  11.861  11.743   4.669
58731W        W28546  20.605   0.949  10.512
58732W        W28547  26.068  37.006  13.037
58733W        W28548  27.168  33.559   2.878
58734W        W28549   9.725  31.935   4.691
58735W        W28550  43.885   5.198   3.684
58736W        W28551  21.232  19.582  11.495
58737W        W28552  19.122  23.566  10.519
58738W        W28553  17.217  19.746   0.446
58739W        W28554   2.737  39.931  14.298
58740W        W28555  26.038  41.017   1.438
58741W        W28556  39.465  14.098   1.352
58742W        W28557   8.855  36.396  11.534
58743W        W28558   6.694  11.202  13.479
58744W        W28559  30.031  16.614   1.437
58745W        W28560  33.884  28.577  11.449
58746W        W28561  15.815  38.521   0.361
58747W        W28562  42.815  40.810   1.916
58748W        W28563  11.862   6.316   3.844
58749W        W28564  30.122  16.680  14.383
58750W        W28565  27.620  23.115   0.917
58751W        W28566  28.038  27.054  14.347
58752W        W28567  21.207  19.271   1.706
58753W        W28568   4.895  10.154  12.937
58754W        W28569  18.172  29.938  11.005
58755W        W28570  20.762   6.217   4.803
58756W        W28571   2.397  25.676  13.048
58757W        W28572  40.486  33.931   4.642
58758W        W28573  34.120  12.792  13.401
58759W        W28574  23.116  14.812   2.840
58760W        W28575  35.464  20.030   0.825
58761W        W28576   5.312  37.055   0.806
58762W        W28577  32.934  10.362  14.791
58763W        W28578  29.970  36.534   2.704
58764W        W28579  44.329  26.493   4.310
58765W        W28580  17.579  37.510  10.432
58766W        W28581  23.518  14.745  11.037
58767W        W28582  26.077  35.535   0.359
58768W        W28583  32.921  15.262  10.411
58769W        W28584  14.331  33.390   3.268
58770W        W28585   5.296  22.045  11.519
58771W        W28586  30.027  40.534   2.853
58772W        W28587   1.839  43.505   2.273
58773W        W28588  14.613  23.985   1.735
58774W        W28589  16.221  19.108  12.018
58775W        W28590   4.333  36.045  14.488
58776W        W28591  27.681  34.403  10.583
58777W        W28592   8.867  29.471   3.299
58778W        W28593  35.981  28.492  12.937
58779W        W28594  35.437  43.885   0.272
58780W        W28595  24.087   3.404  11.610
58781W        W28596  23.023  41.384  11.442
58782W        W28597   0.966  31.046   3.174
58783W        W28598  10.272  35.390  11.425
58784W        W28599  41.444  32.960   2.235
58785W        W28600  41.365  28.148  11.373
58786W        W28601  15.126  12.360  12.470
58787W        W28602  27.480  13.335  12.459
58788W        W28603  12.662   4.434  10.942
58789W        W28604  44.785  34.886  14.349
58790W        W28605  25.034  19.594   0.882
58791W        W28606   8.845   4.730  13.051
58792W        W28607  16.628  16.165   1.238
58793W        W28608   8.360  27.161   0.803
58794W        W28609   0.942  25.589   2.378
58795W        W28610  44.841  23.587   4.182
58796W        W28611  32.989  43.788   3.692
58797W        W28612  25.001  37.961   5.245
58798W        W28613  20.672   8.391  12.520
58799W        W28614  21.687  12.773  11.390
58800W        W28615  31.444  26.105   4.224
58801W        W28616   6.750  43.932  11.919
58802W        W28617  18.177  43.285   1.761
58803W        W28618   6.745  18.289   0.458
58804W        W28619  17.287  13.119   0.765
58805W        W28620  28.610  15.205   0.878
58806W        W28621  27.045   3.447  10.947
58807W        W28622  23.543   7.753   2.268
58808W        W28623  18.580  29.931   1.261
58809W        W28624   2.312   9.276  11.077
58810W        W28625  22.549  19.701  12.896
58811W        W28626  41.298  38.909   3.638
58812W        W28627  26.509   2.804   4.301
58813W        W28628  39.982  29.457  12.084
58814W        W28629  10.737   4.783  10.908
58815W        W28630   7.773  30.926  12.411
58816W        W28631  35.474  40.893   4.702
58817W        W28632  22.182  20.655  11.091
58818W        W28633  25.543  37.922  14.984
58819W        W28634  20.593  24.677  14.013
58820W        W28635  24.620   6.298   2.744
58821W        W28636  22.224  26.069   1.702
58822W        W28637  26.541  27.524  14.006
58823W        W28638  29.605  25.964  12.870
58824W        W28639  44.460  21.152  14.313
58825W        W28640  24.068  43.845  11.888
58826W        W28641  10.303  37.554   2.365
58827W        W28642  11.805  38.495  14.931
58828W        W28643   1.736  21.566   1.930
58829W        W28644  37.878   4.360   2.308
58830W        W28645  27.988   2.869  13.024
58831W        W28646  40.526  24.724   2.747
58832W        W28647  34.398  34.595  14.992
58833W        W28648  28.055  30.928  12.009
58834W        W28649   6.394  39.984  12.847
58835W        W28650  41.460  30.536   2.411
58836W        W28651  21.223  22.135   1.694
58837W        W28652   0.949  23.064  11.994
58838W        W28653  25.680  23.623   0.771
58839W        W28654  35.397   9.750  14.498
58840W        W28655   4.883   2.883  13.529
58841W        W28656  37.078  17.618   0.883
58842W        W28657  14.322  39.462   0.283
58843W        W28658  18.260  15.685  12.504
58844W        W28659  31.139  27.069  13.320
58845W        W28660  28.619  41.450   2.211
58846W        W28661   2.429  20.047  14.788
58847W        W28662  15.809  18.052  14.928
58848W        W28663  19.238   3.851   0.831
58849W        W28664  10.660  27.664  12.027
58850W        W28665  44.370  29.992   3.325
58851W        W28666  14.816  37.507   1.749
58852W        W28667  12.855  32.995   3.310
58853W        W28668  26.603  25.708   0.338
58854W        W28669  37.427   5.691   3.806
58855W        W28670  34.010  16.602  11.531
58856W        W28671   7.323  21.725   0.460
58857W        W28672   6.348  18.672  11.476
58858W        W28673  42.933  40.390   5.111
58859W        W28674  25.084   8.239   1.344
58860W        W28675  25.195  43.358  12.846
58861W        W28676  29.607   7.365   1.799
58862W        W28677  19.639  38.956  14.408
58863W        W28678  17.608  26.069   1.747
58864W        W28679  23.596  41.980  11.067
58865W        W28680  37.518  30.438   4.180
58866W        W28681  29.443  14.692  14.875
58867W        W28682   2.757  27.651   2.262
58868W        W28683  11.847  12.215   3.377
58869W        W28684   2.333  21.617   0.938
58870W        W28685  16.214  10.651   4.694
58871W        W28686  37.518  24.022   5.261
58872W        W28687  14.119  26.208  14.316
58873W        W28688  33.113  27.651   3.345
58874W        W28689   3.253  29.147  10.420
58875W        W28690  36.872  15.318  11.528
58876W        W28691  22.249  22.234   0.326
58877W        W28692  22.075  34.940   4.710
58878W        W28693   6.873  14.673   4.704
58879W        W28694   8.803  33.458   1.728
58880W        W28695  17.748  18.622  13.496
58881W        W28696  42.308  19.538  12.961
58882W        W28697  27.464  34.029  14.405
58883W        W28698  11.176  36.056  13.410
58884W        W28699  40.888   5.281   4.631
58885W        W28700  11.368  27.127  12.062
58886W        W28701  39.040  40.865   0.305
58887W        W28702  19.154  26.181  13.375
58888W        W28703  44.827  17.579   1.779
58889W        W28704   5.789  38.932   0.286
58890W        W28705  40.510  43.996  13.013
58891W        W28706  22.662  29.057  12.944
58892W        W28707  36.013  44.477  14.481
58893W        W28708  34.964  31.069   2.225
58894W        W28709  40.421   6.320   3.189
58895W        W28710  36.416  29.078  11.943
58896W        W28711   3.782  43.355   2.348
58897W        W28712  29.065   6.418  13.389
58898W        W28713  13.657  35.053   3.724
58899W        W28714  32.604   1.452   1.424
58900W        W28715   6.892  44.471   2.293
58901W        W28716  16.223   2.880   3.709
58902W        W28717  26.973  16.573  14.885
58903W        W28718  42.363  35.873  12.491
58904W        W28719   1.478  26.498  11.113
58905W        W28720  38.355  20.189  13.999
58906W        W28721   7.897  21.179   4.226
58907W        W28722   1.942  25.474  14.340
58908W        W28723  26.020  13.616  12.554
58909W        W28724   7.896   5.417  10.644
58910W        W28725  19.544  14.611  13.385
58911W        W28726  28.054  19.180   1.817
58912W        W28727   6.329  22.035   0.856
58913W        W28728  41.299   0.271   2.379
58914W        W28729  44.334  12.267   0.448
58915W        W28730   3.843  42.030   1.420
58916W        W28731  26.162  41.484   2.737
58917W        W28732  38.837  39.040   2.349
58918W        W28733   7.799  34.384  10.497
58919W        W28734  39.371  22.048  14.889
58920W        W28735   8.739   8.337  11.585
58921W        W28736  23.984  11.199  13.797
58922W        W28737  42.447  21.231   3.781
58923W        W28738  26.954  26.596   1.250
58924W        W28739   5.845  25.162  10.889
58925W        W28740  19.672   9.190  12.503
58926W        W28741  13.272  22.627   3.677
58927W        W28742  18.084  22.733  13.411
58928W        W28743  16.640   0.329  10.537
58929W        W28744  18.172   0.429  14.301
58930W        W28745  40.445  22.634   0.921
58931W        W28746  27.485  43.348   3.149
58932W        W28747  25.597   7.809   2.349
58933W        W28748  25.583  34.538  13.430
58934W        W28749  23.695  27.073   1.887
58935W        W28750  12.660  34.897  11.997
58936W        W28751  19.203  40.804  13.324
58937W        W28752   5.211  22.522  13.456
58938W        W28753  28.025   3.867  13.033
58939W        W28754   6.271  14.260  10.552
58940W        W28755  34.494  32.920   0.464
58941W        W28756   1.894  39.559  13.959
58942W        W28757  17.250  12.225  10.442
58943W        W28758  21.029   9.149  10.536
58944W        W28759  15.725  14.208  14.781
58945W        W28760  13.260   8.784  14.430
58946W        W28761   3.230  28.645  13.515
58947W        W28762  19.672  31.475  13.496
58948W        W28763  24.127  15.664  10.916
58949W        W28764  20.115  44.795   0.956
58950W        W28765  11.670  43.429  10.634
58951W        W28766   3.423  22.009   0.476
58952W        W28767  33.919  15.801  14.813
58953W        W28768  17.075  15.715   0.886
58954W        W28769  21.537   7.742   1.295
58955W        W28770  38.432  40.381  14.438
58956W        W28771  42.494  40.348   2.766
58957W        W28772  34.536  32.520  12.561
58958W        W28773  21.113  41.948   4.315
58959W        W28774  40.485  25.007   5.276
58960W        W28775  16.094   1.477   2.304
58961W        W28776  15.184  26.021   1.381
58962W        W28777   3.867  44.269   1.907
58963W        W28778  32.515  14.299   4.730
58964W        W28779  34.561  18.770  13.983
58965W        W28780  28.063  10.334  14.447
58966W        W28781  44.375  44.849  12.483
58967W        W28782  39.380  19.238  11.015
58968W        W28783  35.013  26.057  12.882
58969W        W28784  44.890  16.801  14.368
58970W        W28785  42.826  32.435  13.512
58971W        W28786  42.461  33.917  12.552
58972W        W28787  13.237  26.702  10.112
58973W        W28788  39.510  42.304  10.966
58974W        W28789  12.249  18.638   4.713
58975W        W28790  31.927   3.941   0.289
58976W        W28791  18.092  39.333  12.344
58977W        W28792   2.262  14.168  11.024
58978W        W28793  34.930   8.282   0.386
58979W        W28794  26.489  34.064   1.411
58980W        W28795  35.061  12.803   3.236
58981W        W28796  24.158  12.127  11.859
58982W        W28797  43.793  25.987   3.733
58983W        W28798  24.619  24.075   3.735
58984W        W28799   6.274  20.236   0.367
58985W        W28800  39.350  36.443   3.709
58986W        W28801  35.509  10.784  13.389
58987W        W28802  15.126  17.291   0.902
58988W        W28803  28.467  31.573   0.378
58989W        W28804  13.287  16.702  11.082
58990W        W28805  14.610  22.689   0.751
58991W        W28806  31.563  14.174  12.436
58992W        W28807  35.915  43.300  13.498
58993W        W28808   4.710   4.932   4.791
58994W        W28809  33.879  25.197   2.759
58995W        W28810  30.516  41.816   0.897
58996W        W28811  32.434  25.671   0.412
58997W        W28812  43.480  30.104   1.771
58998W        W28813  12.731  27.166   1.925
58999W        W28814  28.678  33.892  12.446
59000W        W28815  24.695  24.706  11.962
59001W        W28816  20.139  43.506  11.908
59002W        W28817  31.419  22.650  14.980
59003W        W28818  19.544  25.683  14.511
59004W        W28819   3.233  19.142  12.020
59005W        W28820  33.517  35.369   1.828
59006W        W28821  17.145  19.534   4.144
59007W        W28822  38.912  19.171   2.213
59008W        W28823  37.375  32.018  10.025
59009W        W28824  39.487  22.187  10.971
59010W        W28825  43.946  32.008  11.104
59011W        W28826   0.422   3.424   1.757
59012W        W28827  40.528  25.578  14.004
59013W        W28828  14.678  37.524  12.022
59014W        W28829  10.244   7.779  13.809
59015W        W28830   0.941  23.614   3.849
59016W        W28831   9.209   1.808   3.818
59017W        W28832  37.908   5.909   3.159
59018W        W28833  36.447  32.484   0.336
59019W        W28834  39.956   9.375   3.184
59020W        W28835  32.576   8.173   1.427
59021W        W28836  31.001  37.932   1.390
59022W        W28837  34.587  29.535   2.735
59023W        W28838   1.318  31.643   1.707
59024W        W28839   7.316  24.609  11.891
59025W        W28840  25.496  42.446   2.210
59026W        W28841  18.590  29.639   0.409
59027W        W28842  28.640   3.942   0.741
59028W        W28843  35.016  44.458  11.525
59029W        W28844  38.482  28.541   2.344
59030W        W28845   0.983   9.805  14.368
59031W        W28846   8.781  42.484   3.841
59032W        W28847  44.264   0.303   4.702
59033W        W28848  16.590  25.215   3.365
59034W        W28849   2.409   5.242  11.931
59035W        W28850   5.363  35.912  13.497
59036W        W28851  17.274  31.998  10.520
59037W        W28852  16.640  11.219   4.652
59038W        W28853  30.088  19.699   3.386
59039W        W28854  30.438  40.457  13.830
59040W        W28855   2.932  15.632  10.086
59041W        W28856  31.957  33.984   0.845
59042W        W28857  26.473  18.232   1.853
59043W        W28858  42.342  34.546  12.540
59044W        W28859  38.328  14.293  11.554
59045W        W28860  27.582   9.708  11.967
59046W        W28861   7.253   5.256  10.572
59047W        W28862   3.268  21.637   0.859
59048W        W28863  15.806  25.998  13.028
59049W        W28864  23.509  16.194  10.981
59050W        W28865  14.190  29.439   2.405
59051W        W28866  11.827   0.454  11.381
59052W        W28867  44.393  25.073   3.270
59053W        W28868  27.045  37.907   0.330
59054W        W28869  44.384  33.967  11.022
59055W        W28870  22.552  40.805  13.024
59056W        W28871   4.782  29.005   0.911
59057W        W28872  40.353  13.765  11.113
59058W        W28873   9.393   1.884  10.936
59059W        W28874  39.409  16.581  12.506
59060W        W28875  30.642  44.369  10.964
59061W        W28876  19.139  40.483   0.410
59062W        W28877   6.692   8.784   4.341
59063W        W28878  19.697  39.436   2.684
59064W        W28879  21.658  43.315   2.315
59065W        W28880  35.487  25.606  12.519
59066W        W28881  23.585  11.859   2.804
59067W        W28882  27.495  13.825   1.340
59068W        W28883  26.542  11.373  11.441
59069W        W28884  18.120  17.239   2.305
59070W        W28885  18.082  43.809   2.380
59071W        W28886  42.028   0.356  12.358
59072W        W28887   4.721  30.004   1.742
59073W        W28888  14.619  34.485  11.080
59074W        W28889  35.980  11.137   3.289
59075W        W28890  27.100  25.701   3.655
59076W        W28891  41.836  33.480   0.759
59077W        W28892  30.619  39.428  10.616
59078W        W28893  11.775  29.068  14.962
59079W        W28894  40.328  16.576  12.939
59080W        W28895  13.659   8.837   4.803
59081W        W28896  24.213  17.661  11.945
59082W        W28897  18.132   5.416  13.849
59083W        W28898  40.360  21.138   2.300
59084W        W28899   7.181  18.627  13.384
59085W        W28900  44.764  21.658   3.198
59086W        W28901  27.554   0.450   3.244
59087W        W28902  33.078  19.220  12.836
59088W        W28903  28.979  10.739  10.596
59089W        W28904   1.930  30.913  11.493
59090W        W28905  22.656  32.607   0.369
59091W        W28906  24.006  38.567   2.674
59092W        W28907  38.569   1.373  13.411
59093W        W28908  17.237  24.517   3.798
59094W        W28909  30.645  43.508  13.339
59095W        W28910  42.505  38.917   0.847
59096W        W28911  33.458  41.910   5.247
59097W        W28912  38.836  25.153  11.907
59098W        W28913   0.910  31.648   1.801
59099W        W28914   0.924  44.893  10.590
59100W        W28915   1.852  39.321   1.820
59101W        W28916  35.498   5.252  11.874
59102W        W28917  14.642  36.078  12.855
59103W        W28918  34.049  19.133  11.550
59104W        W28919  36.900   2.793   4.256
59105W        W28920  21.533  20.563  13.918
59106W        W28921  37.988   3.403  13.517
59107W        W28922  37.054  21.530  13.351
59108W        W28923  23.206  13.788   2.376
59109W        W28924  37.368  28.939  12.472
59110W        W28925  37.425   5.721  11.052
59111W        W28926  44.906  23.042  13.415
59112W        W28927  27.141   6.249   4.308
59113W        W28928  33.469  36.944   4.734
59114W        W28929  42.862  19.081  11.908
59115W        W28930  23.003   0.836   4.286
59116W        W28931  31.573   0.842  10.997
59117W        W28932  39.461  41.398  14.788
59118W        W28933  16.098  23.695   2.828
59119W        W28934  27.054  39.327   0.777
59120W        W28935   9.343  33.448  14.822
59121W        W28936  16.601  29.456  11.935
59122W        W28937  37.485  20.181  13.811
59123W        W28938  33.393   0.331   3.842
59124W        W28939   9.706   0.418  11.495
59125W        W28940   6.844  33.039  11.983
59126W        W28941  18.642  43.825   4.830
59127W        W28942  27.031  27.987   9.987
59128W        W28943  36.466  34.485   4.131
59129W        W28944   6.723   5.743  10.887
59130W        W28945  42.359  25.968  11.430
59131W        W28946  10.687   9.702  10.619
59132W        W28947  28.044  30.537   3.828
59133W        W28948  43.928  24.694   3.856
59134W        W28949  31.627  14.186   5.219
59135W        W28950  41.810  32.441   0.858
59136W        W28951  41.869  28.060  10.136
59137W        W28952  36.950   8.852   2.256
59138W        W28953  32.477  32.899  14.019
59139W        W28954  26.481  43.802   0.430
59140W        W28955  36.964   1.244   0.898
59141W        W28956  30.605  24.218  14.903
59142W        W28957   9.807  23.226  11.384
59143W        W28958  36.506   3.714   1.309
59144W        W28959  30.082  25.528   0.744
59145W        W28960  29.626   2.857   3.371
59146W        W28961  42.858  11.307   0.281
59147W        W28962  21.688   6.252   2.885
59148W        W28963   1.387  39.997  10.998
59149W        W28964  26.137  30.935  14.951
59150W        W28965   2.247  39.813   1.779
59151W        W28966  17.631  32.910   2.842
59152W        W28967  19.172  27.125  10.413
59153W        W28968  34.046  15.733  13.933
59154W        W28969  15.265   9.215   4.325
59155W        W28970  32.054  31.949   1.402
59156W        W28971  35.956  32.547  10.921
59157W        W28972  27.019  19.135   4.116
59158W        W28973  21.137  41.515  12.402
59159W        W28974  39.972  13.674   3.339
59160W        W28975  25.564   9.647  10.953
59161W        W28976  34.591  40.532   0.430
59162W        W28977  14.806  34.114  14.001
59163W        W28978  29.473   1.838  14.984
59164W        W28979   6.720   8.182   2.245
59165W        W28980   0.418  22.609   3.656
59166W        W28981   8.664  44.821   3.856
59167W        W28982  37.520  39.331  10.428
59168W        W28983  24.569  13.832  14.984
59169W        W28984   4.411  26.971   1.441
59170W        W28985  25.141  15.604   3.325
59171W        W28986   4.771  18.769   2.291
59172W        W28987  44.797  35.923   1.393
59173W        W28988  44.777  33.981  10.502
59174W        W28989  12.330  15.801  12.356
59175W        W28990  15.091  37.989   3.338
59176W        W28991  24.589   5.917  12.016
59177W        W28992  21.030   3.716   4.235
59178W        W28993  38.974  19.681  13.447
59179W        W28994  34.896  15.662   2.287
59180W        W28995  33.898  15.745   4.161
59181W        W28996   3.421  12.652   1.726
59182W        W28997  35.894  17.572   2.402
59183W        W28998  14.802  15.755   2.836
59184W        W28999  10.295  39.504   0.750
59185W        W29000   8.846  24.576   0.874
59186W        W29001  24.044  20.118   1.328
59187W        W29002  26.502   4.359   2.182
59188W        W29003  39.015  41.854   5.307
59189W        W29004  22.665  32.940   4.296
59190W        W29005  21.106  31.941  14.409
59191W        W29006  29.598  44.880  10.906
59192W        W29007   4.916  38.977   3.232
59193W        W29008  14.728   4.922  13.989
59194W        W29009  35.589   0.894  12.932
59195W        W29010   2.357  32.426   2.900
59196W        W29011  32.140  27.623  14.466
59197W        W29012  34.966  31.618   5.690
59198W        W29013  16.659  37.036   2.775
59199W        W29014  18.075  27.690  11.411
59200W        W29015  33.593   9.244   3.706
59201W        W29016  13.681  36.070   2.367
59202W        W29017   5.264   6.310   4.306
59203W        W29018  35.490  28.581  14.920
59204W        W29019  41.420   8.866  14.901
59205W        W29020  41.384   3.905   3.827
59206W        W29021  20.087  44.933   0.472
59207W        W29022   3.262  31.569  14.511
59208W        W29023  16.593   9.305   3.853
59209W        W29024  21.554  20.031   3.715
59210W        W29025  40.028   4.420  13.852
59211W        W29026  11.841   1.908  10.569
59212W        W29027  13.623  13.132  12.984
59213W        W29028  35.401   9.380   2.732
59214W        W29029  18.086  17.744   1.725
59215W        W29030  16.231  13.695   1.374
59216W        W29031   3.758  39.325  13.849
59217W        W29032   8.784  36.995  12.958
59218W        W29033  25.176  23.597  11.092
59219W        W29034  37.474   4.897  13.889
59220W        W29035   0.820  13.693  13.003
59221W        W29036   9.850  44.276   4.652
59222W        W29037  14.795  28.459   1.853
59223W        W29038  38.819  25.995  14.486
59224W        W29039  36.997   4.942  14.479
59225W        W29040   2.798   4.382   0.391
59226W        W29041  21.148  18.089  14.796
59227W        W29042  16.720  25.607   3.651
59228W        W29043  22.526  29.586  14.853
59229W        W29044  34.514  31.566   4.603
59230W        W29045   0.971  37.948  10.587
59231W        W29046  42.966  16.079   1.297
59232W        W29047  15.687  11.860  10.422
59233W        W29048  27.653  22.186  12.521
59234W        W29049   5.267  32.899  12.514
59235W        W29050  43.430   8.761  13.021
59236W        W29051  30.955  28.047  11.004
59237W        W29052  29.525  10.707  10.481
59238W        W29053  37.942  42.987   4.315
59239W        W29054  24.094  19.563  11.991
59240W        W29055  11.809  28.950  14.316
59241W        W29056   9.294  43.332   0.909
59242W        W29057  34.924  26.101   3.385
59243W        W29058   9.325   6.400  13.026
59244W        W29059  29.444   4.442  12.939
59245W        W29060  20.541  23.985   1.830
59246W        W29061  18.265  31.467  11.558
59247W        W29062   9.266   5.424  14.447
59248W        W29063  34.874  29.119   4.129
59249W        W29064  26.564  18.257   1.294
59250W        W29065  32.944  26.106  11.432
59251W        W29066   8.207  15.314  11.047
59252W        W29067  34.537  18.224  10.410
59253W        W29068  23.194  34.533   2.764
59254W        W29069   8.218  39.823   1.349
59255W        W29070   8.793  39.523  11.373
59256W        W29071  18.749  23.056  12.427
59257W        W29072  10.151  17.559   2.236
59258W        W29073  10.671  43.983   1.328
59259W        W29074   8.744  10.296  10.539
59260W        W29075  27.560  28.110  11.950
59261W        W29076  44.780  15.329  11.389
59262W        W29077  21.613  11.206   4.735
59263W        W29078  38.890  17.739  11.505
59264W        W29079  44.871   1.850  13.462
59265W        W29080  26.483  11.799   9.927
59266W        W29081   4.799  28.025   0.304
59267W        W29082  22.095   4.344   4.660
59268W        W29083  12.362  31.949   3.247
59269W        W29084  15.283  13.730   3.696
59270W        W29085  23.593  20.744  11.487
59271W        W29086   3.769  37.907  14.780
59272W        W29087  24.641  12.671   1.905
59273W        W29088   0.833   4.268   4.139
59274W        W29089  40.418  34.476  12.398
59275W        W29090  10.170  44.828  13.422
59276W        W29091  25.041   4.388   4.164
59277W        W29092  38.954  10.819   0.483
59278W        W29093   5.338  40.378  13.439
59279W        W29094  43.387  41.482   5.243
59280W        W29095   4.882  27.131  13.409
59281W        W29096  35.983  14.813  13.485
59282W        W29097   6.342   2.314  13.359
59283W        W29098  36.493   0.290  11.986
59284W        W29099  29.170  18.105   0.772
59285W        W29100   8.706  28.634   4.246
59286W        W29101  14.680  40.505  14.495
59287W        W29102  21.697  36.043  13.837
59288W        W29103   2.278  12.319  10.428
59289W        W29104  36.038  28.946  12.024
59290W        W29105  13.303  23.226   0.772
59291W        W29106   8.170  38.876  11.440
59292W        W29107  12.292  34.078   3.185
59293W        W29108  37.907  30.608  14.885
59294W        W29109  42.972  36.431   0.836
59295W        W29110  16.225  10.876  12.428
59296W        W29111  44.899  20.119  14.806
59297W        W29112  21.614  11.739  10.923
59298W        W29113   9.678  10.193   0.762
59299W        W29114   9.669  18.730   2.695
59300W        W29115  19.736   6.413   4.699
59301W        W29116  23.066  16.148   2.890
59302W        W29117  44.921   7.273  10.988
59303W        W29118  21.227  44.886   4.320
59304W        W29119  17.557  20.740  13.457
59305W        W29120   1.369  35.982   0.247
59306W        W29121  22.568  33.404   3.791
59307W        W29122  23.149  37.960   0.734
59308W        W29123   5.303  44.480  10.635
59309W        W29124  12.331  24.122  14.410
59310W        W29125   6.355   3.726   3.351
59311W        W29126  33.476  29.541   4.651
59312W        W29127  14.184  11.761  14.355
59313W        W29128  37.396  27.536   3.379
59314W        W29129  44.363   6.355   4.625
59315W        W29130  39.841  41.355   2.762
59316W        W29131  25.035  11.737  10.428
59317W        W29132  25.973  43.971  11.403
59318W        W29133  18.088   6.781   4.743
59319W        W29134  15.782  17.222   5.152
59320W        W29135  14.124  41.041   3.197
59321W        W29136  24.061  14.322  12.844
59322W        W29137  39.913  37.552   4.599
59323W        W29138   2.340  18.205   2.676
59324W        W29139  26.194  22.037   3.790
59325W        W29140  33.988  16.579   0.936
59326W        W29141   0.940  36.867  14.917
59327W        W29142   0.748  21.197   2.366
59328W        W29143  13.273  28.564  12.438
59329W        W29144  42.466   4.278   1.400
59330W        W29145   1.378  21.637  14.877
59331W        W29146  36.948  38.892   2.195
59332W        W29147  10.172  21.018   3.744
59333W        W29148  10.312  39.459  11.972
59334W        W29149  26.555  42.984  11.453
59335W        W29150  14.145  23.686  10.629
59336W        W29151  33.394  40.472   4.317
59337W        W29152   3.723  32.540  14.489
59338W        W29153  18.679   2.820   0.297
59339W        W29154   1.868  16.751  10.441
59340W        W29155  26.664  12.254  11.123
59341W        W29156  18.172  39.829  13.810
59342W        W29157   3.244  32.600   2.297
59343W        W29158   9.740  12.798   1.805
59344W        W29159  27.011  26.014   0.423
59345W        W29160  32.567  11.776  11.996
59346W        W29161  19.174  10.868   0.427
59347W        W29162  30.422   9.840   4.614
59348W        W29163  35.056  41.377  12.460
59349W        W29164  39.976  34.578  14.893
59350W        W29165   7.356  31.516   2.683
59351W        W29166  19.780  34.544   2.729
59352W        W29167   6.900   1.391  11.417
59353W        W29168  17.681  40.497  10.954
59354W        W29169   1.937  24.198  13.425
59355W        W29170   1.742  11.204   4.282
59356W        W29171  44.411  37.519   4.752
59357W        W29172  36.947  10.808   1.447
59358W        W29173   3.757   9.383   0.733
59359W        W29174  17.767  44.422   1.824
59360W        W29175  20.137   7.701  13.914
59361W        W29176   6.341   9.204  12.897
59362W        W29177  27.081   3.277  14.510
59363W        W29178   8.710  10.717  13.040
59364W        W29179  19.637  36.980   0.780
59365W        W29180  17.639  33.432   1.286
59366W        W29181   0.352  28.560   0.397
59367W        W29182  27.956  18.628   1.372
59368W        W29183  19.270   3.388   4.134
59369W        W29184   5.324  29.436  12.504
59370W        W29185   9.695  14.694  13.982
59371W        W29186  20.100  40.962   0.868
59372W        W29187  41.027  37.005   4.831
59373W        W29188  14.116  35.581  11.505
59374W        W29189  40.478  11.621   0.941
59375W        W29190  25.143  39.491   3.328
59376W        W29191  14.212  30.497  14.765
59377W        W29192  31.580   8.255   3.676
59378W        W29193  38.872   8.328   1.923
59379W        W29194   7.886  17.305   3.172
59380W        W29195  17.775  38.017   1.724
59381W        W29196  42.513  12.765   3.189
59382W        W29197  39.358   1.465   0.745
59383W        W29198  26.146  42.954   2.230
59384W        W29199   9.274  39.323  12.962
59385W        W29200  18.780  39.376   4.746
59386W        W29201  19.088  15.704   4.289
59387W        W29202  26.108  28.088   1.334
59388W        W29203  39.817  20.630  12.890
59389W        W29204  32.037  19.217  11.972
59390W        W29205  44.426  41.483   2.267
59391W        W29206   2.312   8.182  12.928
59392W        W29207  16.108  30.147   4.780
59393W        W29208  34.567  23.008  14.943
59394W        W29209  17.174  12.243   1.412
59395W        W29210  21.563   1.268  11.994
59396W        W29211   1.407  42.015   3.186
59397W        W29212  17.298  40.437  11.051
59398W        W29213  33.968  25.126   1.699
59399W        W29214  41.888  24.698   4.154
59400W        W29215   7.789  37.009  14.340
59401W        W29216   9.797   7.209  12.501
59402W        W29217  33.460   9.752  13.013
59403W        W29218  28.059  41.301   3.248
59404W        W29219  42.362  17.685   4.212
59405W        W29220  19.215  26.055  11.111
59406W        W29221  29.082  39.527   2.886
59407W        W29222   8.780  40.940  11.524
59408W        W29223  24.191  43.513   2.787
59409W        W29224  34.414  30.472  13.954
59410W        W29225  18.639  26.575   0.279
59411W        W29226   5.322  40.461  14.777
59412W        W29227   8.359  25.991  10.487
59413W        W29228  15.593  29.980  12.546
59414W        W29229  29.646  18.686  10.907
59415W        W29230  30.104  39.863   2.335
59416W        W29231  11.162   7.846  10.427
59417W        W29232   8.367  13.340   3.207
59418W        W29233  22.995   2.401   2.327
59419W        W29234  29.015   4.716  13.313
59420W        W29235  42.501  29.993  14.333
59421W        W29236  29.473  31.961  11.454
59422W        W29237   3.433   5.698  11.864
59423W        W29238  35.990  34.497  14.912
59424W        W29239  22.589  32.902   0.418
59425W        W29240  11.214  44.973  14.516
59426W        W29241  30.534  20.056  12.446
59427W        W29242  41.022   7.185  11.977
59428W        W29243  34.492  11.308  11.532
59429W        W29244  31.438  14.247  13.801
59430W        W29245  17.136   6.849   3.854
59431W        W29246  43.872  15.282   3.786
59432W        W29247  27.971   8.740  13.859
59433W        W29248  14.662  33.910  13.439
59434W        W29249  34.953  32.619   5.082
59435W        W29250  33.568  19.597   1.398
59436W        W29251  32.629  43.413   4.778
59437W        W29252  26.097   5.354  10.932
59438W        W29253  28.080  27.056  11.536
59439W        W29254  15.285  25.517   1.776
59440W        W29255  43.412  28.083  11.947
59441W        W29256  12.270  31.920  14.002
59442W        W29257  16.105  37.511   4.157
59443W        W29258  18.699  32.395  11.478
59444W        W29259  32.059  29.138   3.687
59445W        W29260   2.389  25.625   2.761
59446W        W29261  11.823  26.625  14.284
59447W        W29262   4.855  44.350   1.772
59448W        W29263  14.329  11.222   0.450
59449W        W29264  35.853   6.763  12.026
59450W        W29265  44.913  36.973   3.155
59451W        W29266  38.570  14.671  12.928
59452W        W29267   7.751   3.389   9.960
59453W        W29268  33.473  32.953  10.895
59454W        W29269  14.629   0.747   2.851
59455W        W29270  36.921  18.294   1.864
59456W        W29271   1.376  43.789  14.786
59457W        W29272  42.813  31.974  10.588
59458W        W29273  39.971  38.426  11.471
59459W        W29274  35.528  12.809   0.778
59460W        W29275  26.023  25.190   1.366
59461W        W29276  12.627  42.502   1.880
59462W        W29277  29.503  24.564   0.856
59463W        W29278  13.634   0.980  12.442
59464W        W29279  18.289  20.614  13.389
59465W        W29280  44.863   3.269   1.215
59466W        W29281  21.709  28.150   2.673
59467W        W29282   0.370  30.518  12.965
59468W        W29283  44.445  23.594  13.803
59469W        W29284  25.215   9.387  11.986
59470W        W29285   9.305   6.897  14.416
59471W        W29286  35.413  15.796  14.340
59472W        W29287  10.320  25.167  13.037
59473W        W29288  12.185  19.616   1.444
59474W        W29289  42.836   1.771  11.529
59475W        W29290  31.926  35.985  12.448
59476W        W29291  25.139  27.086   2.753
59477W        W29292  16.647   5.426  10.571
59478W        W29293   0.414   9.282   3.742
59479W        W29294   3.239  27.050  11.903
59480W        W29295  27.516  34.376   1.847
59481W        W29296  19.068  44.390   5.192
59482W        W29297  27.097   4.886  11.058
59483W        W29298  31.519  21.181   0.934
59484W        W29299  34.469  31.048   3.210
59485W        W29300  42.303  21.114  10.630
59486W        W29301  18.124  14.742  10.928
59487W        W29302  34.602  44.787  12.861
59488W        W29303  10.207   0.770  10.510
59489W        W29304  35.080  38.497  12.877
59490W        W29305  25.979  18.549  10.508
59491W        W29306   3.358  14.194  10.950
59492W        W29307  30.649  10.641   2.863
59493W        W29308  18.224  22.551  12.095
59494W        W29309  31.093  33.987   1.861
59495W        W29310   9.817  35.881  12.950
59496W        W29311  21.628  16.577  11.610
59497W        W29312   5.750   5.826  14.489
59498W        W29313  23.693  28.956  11.123
59499W        W29314   6.745  12.302   2.320
59500W        W29315  32.885   4.335   4.227
59501W        W29316   1.740  13.243   1.382
59502W        W29317  18.282   3.816  12.853
59503W        W29318  24.060   8.329   0.391
59504W        W29319  27.982  25.698  12.425
59505W        W29320   3.272  44.907  13.385
59506W        W29321   0.363   9.341  12.441
59507W        W29322  13.286  20.066  13.470
59508W        W29323  12.128   9.745   4.821
59509W        W29324  22.501  21.026  10.434
59510W        W29325  15.123  32.566   3.148
59511W        W29326  32.928   3.440  14.467
59512W        W29327  18.598   6.858   2.381
59513W        W29328  33.055  30.493  12.462
59514W        W29329  25.468  37.527   1.746
59515W        W29330  10.819  10.876  14.369
59516W        W29331   3.218  25.974  12.536
59517W        W29332   4.439  41.386  14.847
59518W        W29333  27.156  16.741   2.247
59519W        W29334  24.129  11.772  11.913
59520W        W29335  32.615  37.580   0.734
59521W        W29336  43.350  19.235   4.710
59522W        W29337   7.905  16.765  11.469
59523W        W29338  22.719   1.814  13.063
59524W        W29339  29.024  31.418  10.516
59525W        W29340  14.798  40.337   4.147
59526W        W29341   5.786   8.363   0.450
59527W        W29342  39.371  18.152  12.427
59528W        W29343  27.665  15.772  14.431
59529W        W29344  11.199   2.759  13.475
59530W        W29345  16.637  20.723  14.795
59531W        W29346   1.378  18.696   2.759
59532W        W29347  16.723   7.208   3.653
59533W        W29348  39.897  15.208  10.130
59534W        W29349   3.332  23.045  11.858
59535W        W29350  41.450  27.652  10.941
59536W        W29351  38.073  41.376   4.210
59537W        W29352   1.451   7.393  13.483
59538W        W29353  42.469  27.995  10.936
59539W        W29354  26.145  36.553   2.666
59540W        W29355  42.904   1.780  14.918
59541W        W29356  33.094   7.902  11.956
59542W        W29357  11.198  23.083  11.491
59543W        W29358   9.783  32.887  11.966
59544W        W29359  22.191  36.864   4.678
59545W        W29360  21.574  35.038   0.872
59546W        W29361  12.767  10.725   0.788
59547W        W29362  16.139  35.866  13.967
59548W        W29363   5.870  15.627   1.408
59549W        W29364  22.089  23.987  10.471
59550W        W29365  25.084  30.504   4.602
59551W        W29366  25.471  16.161   4.313
59552W        W29367   7.780  42.780   3.146
59553W        W29368  44.348   4.252  11.896
59554W        W29369  21.639  31.073  10.562
59555W        W29370  39.831   4.738   0.277
59556W        W29371  13.808  23.143  13.398
59557W        W29372   6.812  25.190   1.351
59558W        W29373   4.859  39.991  14.972
59559W        W29374   8.264  16.693   4.821
59560W        W29375  12.289  11.721  12.920
59561W        W29376  22.022   8.780  12.077
59562W        W29377  42.838  22.016  11.461
59563W        W29378   9.714  25.088  14.834
59564W        W29379   3.910  34.953   0.876
59565W        W29380   8.702  26.081  12.991
59566W        W29381  43.960  28.159   1.389
59567W        W29382  18.588  28.534  12.519
59568W        W29383  18.577  31.078  14.898
59569W        W29384  44.369  31.057  14.873
59570W        W29385  36.007   9.687   4.815
59571W        W29386  44.980  37.576   0.258
59572W        W29387  24.055   6.753  13.877
59573W        W29388  27.989   5.224  14.299
59574W        W29389  19.273  24.216  13.526
59575W        W29390  44.466  18.207   0.932
59576W        W29391   4.318  41.475  12.866
59577W        W29392  10.312  18.671   4.176
59578W        W29393  15.676  33.444  11.097
59579W        W29394  10.337  27.539  14.337
59580W        W29395  27.982  17.708  10.622
59581W        W29396   9.679  39.935   9.933
59582W        W29397  21.745   6.836   1.913
59583W        W29398  24.669  17.063   5.222
59584W        W29399  37.581  39.478  11.484
59585W        W29400   9.752   2.351  11.085
59586W        W29401   9.308  12.215  13.872
59587W        W29402  22.189  44.885   4.638
59588W        W29403  10.690  24.044  14.344
59589W        W29404  22.555  43.506  12.911
59590W        W29405  38.506   7.394   1.826
59591W        W29406  44.496  18.700  12.446
59592W        W29407  18.729  19.724   1.263
59593W        W29408   0.334   0.772  13.810
59594W        W29409  16.661  23.203   0.853
59595W        W29410  19.551   0.756   1.885
59596W        W29411  34.073  32.437   4.243
59597W        W29412  30.120  38.552   3.312
59598W        W29413   1.260  39.403  11.987
59599W        W29414  35.515   9.716   3.348
59600W        W29415  15.308  15.818   2.778
59601W        W29416  31.128  32.011   4.260
59602W        W29417  20.672  27.592  12.567
59603W        W29418  26.128  36.552  13.877
59604W        W29419  27.029  15.761   1.331
59605W        W29420  10.346  30.490  11.078
59606W        W29421   3.901  23.602   4.246
59607W        W29422  42.519  25.507  10.497
59608W        W29423  33.551  39.889   0.367
59609W        W29424   8.353  40.376  12.094
59610W        W29425  34.433  39.906   4.783
59611W        W29426  44.845   8.890  11.517
59612W        W29427  17.097  11.250  14.834
59613W        W29428  15.273   2.849  11.113
59614W        W29429  19.597  40.391   3.193
59615W        W29430   8.210  41.515   1.929
59616W        W29431  24.208  38.352   2.272
59617W        W29432  29.466  17.273   0.770
59618W        W29433   0.813  23.154  14.362
59619W        W29434  27.946   9.219  13.894
59620W        W29435  42.879  20.642   2.358
59621W        W29436  31.405   1.790   3.358
59622W        W29437  32.398   3.835  11.490
59623W        W29438  14.657  15.678  13.472
59624W        W29439  11.151   7.853  11.105
59625W        W29440  30.145   9.664  12.951
59626W        W29441  41.387  23.013   2.341
59627W        W29442   7.337   7.184  14.845
59628W        W29443  37.549  44.334  11.085
59629W        W29444  43.345   1.765  11.865
59630W        W29445  14.661  35.993   1.278
59631W        W29446   9.832  12.199  11.935
59632W        W29447  39.489  22.170   1.384
59633W        W29448  24.156  10.222   0.771
59634W        W29449  20.158   1.348  12.447
59635W        W29450   9.309  22.593   3.766
59636W        W29451  13.650   6.417   2.703
59637W        W29452   8.751  23.603  11.914
59638W        W29453  37.489  15.282   2.239
59639W        W29454  18.270   7.177   0.442
59640W        W29455  26.059  44.947  11.377
59641W        W29456  31.983  13.241  11.952
59642W        W29457  15.777  18.086  10.112
59643W        W29458  25.607  13.771   1.779
59644W        W29459   2.899  41.405   1.224
59645W        W29460   4.875  25.047   2.264
59646W        W29461  26.032  15.759  11.401
59647W        W29462  20.604  25.572   2.735
59648W        W29463  34.956  44.356  10.035
59649W        W29464  19.625  42.816   5.233
59650W        W29465  19.616   3.284   2.750
59651W        W29466  14.282  29.107   1.229
59652W        W29467  32.030  33.033   3.383
59653W        W29468  32.559   4.744   3.841
59654W        W29469  32.522   9.710  13.372
59655W        W29470  30.030  28.958   4.272
59656W        W29471  30.092  10.367   1.704
59657W        W29472  39.848  22.169  13.395
59658W        W29473  35.876  32.029  14.970
59659W        W29474  37.923  14.786  10.644
59660W        W29475  30.997   2.954  10.891
59661W        W29476   7.795  36.545   1.762
59662W        W29477  12.353   2.732   2.692
59663W        W29478  14.189   0.343  11.024
59664W        W29479   1.392   4.772   0.437
59665W        W29480  30.072  14.603   1.814
59666W        W29481  15.711  42.847  12.434
59667W        W29482   6.852   6.803   0.470
59668W        W29483  18.783  41.419   1.326
59669W        W29484  41.807  18.295   4.634
59670W        W29485  28.138   7.744   4.633
59671W        W29486  21.073  31.460   2.257
59672W        W29487  39.896  28.121   3.673
59673W        W29488   8.236  15.086   0.844
59674W        W29489  40.888   2.464  12.580
59675W        W29490  22.215  39.386  11.490
59676W        W29491  35.461  30.609  10.600
59677W        W29492  18.059  42.385  10.904
59678W        W29493  34.425  37.888  10.594
59679W        W29494  10.147  34.912   4.832
59680W        W29495  15.312   3.428  13.981
59681W        W29496  10.355  22.722  11.564
59682W        W29497  12.303  12.616   3.211
59683W        W29498  37.415  40.954   3.725
59684W        W29499  42.893  36.046  13.019
59685W        W29500   9.220  13.759  10.448
59686W        W29501  12.798  26.052   3.381
59687W        W29502  18.622   9.357  14.834
59688W        W29503  34.988  14.594   3.789
59689W        W29504  35.038  18.114  12.986
59690W        W29505  43.833  16.078  11.918
59691W        W29506   7.869  26.692  11.118
59692W        W29507  17.249  22.624  12.539
59693W        W29508   7.320  14.203   4.305
59694W        W29509   4.221  35.364  13.941
59695W        W29510  42.295  42.332   3.176
59696W        W29511  15.717   2.314   2.785
59697W        W29512  23.101   8.296   3.855
59698W        W29513  17.607  15.161   0.466
59699W        W29514  37.010  30.601   1.243
59700W        W29515   0.981  42.305  14.783
59701W        W29516  44.321  28.151  12.404
59702W        W29517   8.363  36.957  13.850
59703W        W29518  39.541  39.829   2.406
59704W        W29519  34.534  19.748  14.952
59705W        W29520  36.846  33.487  10.499
59706W        W29521  33.077   1.796   1.310
59707W        W29522  30.507  38.890  14.782
59708W        W29523   8.260   5.359   4.165
59709W        W29524  10.150  23.057   3.854
59710W        W29525   0.811  18.718  12.911
59711W        W29526  22.043  42.820   1.448
59712W        W29527  12.785  37.932  11.891
59713W        W29528  44.316  38.023  13.927
59714W        W29529  16.149  38.958  10.009
59715W        W29530  21.125  34.106   1.879
59716W        W29531   0.885  22.573  14.291
59717W        W29532   0.843   9.295  10.053
59718W        W29533  14.300  20.036  14.323
59719W        W29534  21.583  34.067   4.834
59720W        W29535  41.497  32.929  13.389
59721W        W29536  12.244   4.328   3.630
59722W        W29537  38.004  36.492   4.710
59723W        W29538  14.325  31.018   1.715
59724W        W29539  16.674   8.228  13.462
59725W        W29540  11.250  18.784  10.904
59726W        W29541  35.397   2.820  10.572
59727W        W29542  42.407  31.968   3.809
59728W        W29543   5.692  23.601  11.924
59729W        W29544  16.683   0.853  11.051
59730W        W29545  34.980  36.409   1.297
59731W        W29546   0.268  11.195   3.299
59732W        W29547  30.629   6.848   1.737
59733W        W29548  42.933  43.419  12.035
59734W        W29549  24.141  23.021   3.322
59735W        W29550  19.146  12.161   0.459
59736W        W29551  10.214  38.072   3.669
59737W        W29552   3.927   2.820  13.051
59738W        W29553   5.854  39.832  12.020
59739W        W29554  24.151  13.833   4.630
59740W        W29555  42.323  41.802  10.407
59741W        W29556  19.535  18.155  12.933
59742W        W29557  42.984  28.437  10.966
59743W        W29558   4.419  21.262   0.258
59744W        W29559  24.549   6.182  13.054
59745W        W29560  25.640  28.435  14.962
59746W        W29561  22.097  22.209   1.238
59747W        W29562  21.650  37.053  14.954
59748W        W29563  13.114  18.774   4.705
59749W        W29564  17.272   2.886   4.794
59750W        W29565  11.251   6.210  13.357
59751W        W29566  32.081   5.335   3.753
59752W        W29567  21.110  41.356   0.383
59753W        W29568  24.713   3.755   1.805
59754W        W29569  23.648   5.795   0.765
59755W        W29570  14.804  22.726   0.301
59756W        W29571   9.755   1.856   2.250
59757W        W29572  29.002  22.587   2.875
59758W        W29573  24.605  35.467   2.779
59759W        W29574  42.012  29.070  11.583
59760W        W29575  17.560  16.754  11.928
59761W        W29576  22.069  19.280   0.322
59762W        W29577   8.249  28.943  10.917
59763W        W29578  22.611  16.226   1.700
59764W        W29579   3.274  23.109   0.783
59765W        W29580  38.861   8.765  14.417
59766W        W29581   0.380  19.780  13.370
59767W        W29582  22.079  36.069   2.810
59768W        W29583   0.966  34.112  14.341
59769W        W29584  19.065  21.125  13.985
59770W        W29585  42.410  19.108  11.452
59771W        W29586  34.415  31.622   5.163
59772W        W29587  13.702  13.797   0.433
59773W        W29588  33.913  21.534  11.969
59774W        W29589   4.728  18.105   1.240
59775W        W29590  38.470  26.175   3.151
59776W        W29591   4.839  23.120  11.951
59777W        W29592  35.562  42.996  10.432
59778W        W29593  31.441  19.744  11.600
59779W        W29594   0.927  22.184   3.818
59780W        W29595  24.191  21.244   3.720
59781W        W29596   9.338   9.670  12.569
59782W        W29597  21.022  36.568  10.511
59783W        W29598  11.737  29.097   1.875
59784W        W29599   9.185   8.696   5.215
59785W        W29600  12.831  28.136   0.475
59786W        W29601  25.572  41.519   4.782
59787W        W29602  27.672  19.572   0.950
59788W        W29603  13.147  31.535  13.794
59789W        W29604  38.871  15.094  13.438
59790W        W29605  44.831  33.470   1.868
59791W        W29606  16.574   3.326   3.866
59792W        W29607   4.848  30.586   1.215
59793W        W29608  39.994  32.635   1.700
59794W        W29609  31.457  36.909  14.328
59795W        W29610  20.596  11.681  10.632
59796W        W29611   6.706   6.804   3.783
59797W        W29612  31.407  29.112   2.297
59798W        W29613  21.227  38.450  13.540
59799W        W29614  31.640  44.424  14.329
59800W        W29615  36.989  10.209   3.289
59801W        W29616  42.829  13.319  14.396
59802W        W29617  17.253   5.689   0.826
59803W        W29618   3.342  39.508   3.856
59804W        W29619  27.168  24.025   3.830
59805W        W29620  13.622  42.805   4.278
59806W        W29621  36.497  22.686   1.444
59807W        W29622  38.343  22.162  13.332
59808W        W29623   3.420  10.212  14.919
59809W        W29624   7.350  16.759   4.718
59810W        W29625  44.870  29.106   2.333
59811W        W29626   8.401  18.269  10.997
59812W        W29627   6.269  12.854   5.081
59813W        W29628  33.121  35.991   1.867
59814W        W29629  36.871   4.257  13.309
59815W        W29630  14.675   4.874  10.129
59816W        W29631  38.411  39.887  11.538
59817W        W29632  23.102   8.698   2.663
59818W        W29633  19.645   1.373  13.466
59819W        W29634  34.422  11.133   0.889
59820W        W29635  29.548  17.084   4.133
59821W        W29636  40.053   5.905   9.945
59822W        W29637  10.204  44.348  10.446
59823W        W29638  27.456  11.166  11.899
59824W        W29639   3.792   9.329  12.918
59825W        W29640  28.605  20.720   3.777
59826W        W29641  14.312  29.133   0.727
59827W        W29642  33.457  15.167  12.400
59828W        W29643   2.420  24.601   2.270
59829W        W29644  37.550  21.646   0.340
59830W        W29645   0.281  14.252  14.309
59831W        W29646  17.653  11.244   2.871
59832W        W29647  37.560  30.657  12.015
59833W        W29648  28.560  23.735  12.970
59834W        W29649   2.868  27.945  13.814
59835W        W29650  33.049  26.670   1.357
59836W        W29651  41.958  40.477  12.866
59837W        W29652  40.921   2.779   4.307
59838W        W29653  34.893  33.956  10.611
59839W        W29654   8.667  17.208  13.971
59840W        W29655  13.313   1.764   0.751
59841W        W29656  33.973  27.135  11.129
59842W        W29657  23.516  33.563   1.440
59843W        W29658  38.003   2.791  10.434
59844W        W29659  44.821  27.650  11.003
59845W        W29660  30.632  24.179  13.037
59846W        W29661  23.229  36.099  13.949
59847W        W29662   8.795  17.282   0.409
59848W        W29663  36.583   2.400   4.738
59849W        W29664  39.944  33.528  10.909
59850W        W29665  11.736  11.183   3.194
59851W        W29666  34.043   3.332   4.335
59852W        W29667   2.417  14.615   1.318
59853W        W29668  32.605   1.853   1.442
59854W        W29669  14.193   9.385   3.357
59855W        W29670  42.897   5.736  10.570
59856W        W29671  23.007  25.220  13.905
59857W        W29672  28.179  17.706   2.681
59858W        W29673  33.931   2.778  12.836
59859W        W29674  39.845   0.918   4.342
59860W        W29675   3.281  38.959  10.440
59861W        W29676  39.530  26.687   0.902
59862W        W29677  43.815  36.851  14.943
59863W        W29678  29.613  30.131  12.052
59864W        W29679  34.956  20.632  11.120
59865W        W29680  15.258  32.079  11.874
59866W        W29681   7.286  44.409   2.765
59867W        W29682  31.014   3.919  13.420
59868W        W29683  33.008  26.648   2.798
59869W        W29684  41.390  16.307  11.428
59870W        W29685  28.599  26.676   4.762
59871W        W29686  41.005  42.508   4.771
59872W        W29687  29.532   3.713   1.363
59873W        W29688   2.790  21.178   4.676
59874W        W29689   8.760  29.579  11.371
59875W        W29690  43.022  38.530  10.894
59876W        W29691   2.246  17.739  14.976
59877W        W29692  39.484  39.983   1.933
59878W        W29693   6.194  41.399  14.818
59879W        W29694  40.999   2.810  14.765
59880W        W29695  44.472  30.049   3.832
59881W        W29696  43.994  28.071   4.794
59882W        W29697  24.137   5.844  11.504
59883W        W29698  30.107  41.987  13.801
59884W        W29699  24.090  40.930  11.000
59885W        W29700  10.703  23.035   3.827
59886W        W29701  24.152  21.673  14.339
59887W        W29702  25.642  14.113   4.676
59888W        W29703  17.130  28.037   4.345
59889W        W29704   9.764  17.173   1.268
59890W        W29705  39.915   8.776   1.865
59891W        W29706  13.701  37.339  12.566
59892W        W29707  38.824  28.455  13.419
59893W        W29708   3.431  19.562  10.593
59894W        W29709   0.980   0.949   1.250
59895W        W29710  32.624   7.712  12.997
59896W        W29711  34.922  12.715  12.826
59897W        W29712  41.341   3.268  11.415
59898W        W29713   7.825  43.916   2.332
59899W        W29714  11.702  27.979  11.603
59900W        W29715  29.144  25.509  10.902
59901W        W29716  43.307  32.926  12.944
59902W        W29717  38.423  44.005  12.070
59903W        W29718  40.933  39.827   3.191
59904W        W29719  17.579   1.271  13.031
59905W        W29720  25.652  17.115  13.836
59906W        W29721  39.494  13.607   0.439
59907W        W29722  35.048   8.834   2.858
59908W        W29723  23.119  27.166  14.345
59909W        W29724  12.619  18.703  14.777
59910W        W29725   4.233  26.692   4.344
59911W        W29726  22.551  39.895   2.323
59912W        W29727   0.879  31.461  11.911
59913W        W29728  28.657  26.655  12.015
59914W        W29729  23.080  16.088   3.708
59915W        W29730   4.340  42.784  12.850
59916W        W29731  27.541  39.910  10.431
59917W        W29732  35.438  36.036  12.368
59918W        W29733   9.298  21.694   1.393
59919W        W29734  30.998  21.019   2.699
59920W        W29735  42.303  30.587  14.299
59921W        W29736  30.507  14.649  12.374
59922W        W29737  24.091  16.666   1.760
59923W        W29738  14.825  39.390   3.812
59924W        W29739  28.996  40.339   1.791
59925W        W29740  39.491   6.415   1.697
59926W        W29741  19.694  20.116  13.798
59927W        W29742  40.939  17.307  13.988
59928W        W29743  26.593  28.559  13.024
59929W        W29744   1.302   7.724   4.716
59930W        W29745  25.532  35.458  13.340
59931W        W29746  28.943  38.418  13.354
59932W        W29747  25.537  28.106  14.309
59933W        W29748  23.636   9.270  11.126
59934W        W29749   1.748  22.063   3.775
59935W        W29750   1.454  30.967   0.420
59936W        W29751  33.942  20.225   2.262
59937W        W29752  30.579  25.051  12.064
59938W        W29753  18.100  39.844  13.352
59939W        W29754  19.669  13.719  13.448
59940W        W29755  11.812  25.571  10.114
59941W        W29756  15.645   9.257  13.850
59942W        W29757  18.088  40.835   2.846
59943W        W29758  18.149  19.080   2.842
59944W        W29759  36.459  32.585  11.076
59945W        W29760  12.131  11.734  12.481
59946W        W29761   0.331  43.341   0.318
59947W        W29762  16.583  42.370   1.834
59948W        W29763  35.901  30.094   0.343
59949W        W29764  38.869   3.401  10.567
59950W        W29765  24.672   5.336   0.857
59951W        W29766  33.113  17.606  12.000
59952W        W29767  42.419  42.027   2.229
59953W        W29768   1.782  22.093  10.415
59954W        W29769   5.721  25.628   1.918
59955W        W29770   5.825   6.764   4.196
59956W        W29771  19.093  27.979   3.648
59957W        W29772  18.780  27.453  11.081
59958W        W29773  17.736  24.549   1.440
59959W        W29774   0.363  31.521   2.853
59960W        W29775  22.047  21.256   2.823
59961W        W29776   7.285  32.106   1.346
59962W        W29777   9.664  20.564  13.794
59963W        W29778  12.748   1.890  11.108
59964W        W29779  15.116  14.268  10.463
59965W        W29780   5.228  37.912  11.984
59966W        W29781  17.627  36.973  13.388
59967W        W29782  33.553  20.071  12.893
59968W        W29783  21.222  37.488   5.157
59969W        W29784  43.974  15.113  13.962
59970W        W29785  18.165   3.949  13.362
59971W        W29786  44.800  39.981   0.382
59972W        W29787  28.947   4.722  10.006
59973W        W29788  44.784  33.459  10.962
59974W        W29789  32.009  18.667   1.702
59975W        W29790  40.968   1.371  12.978
59976W        W29791   6.804  17.170   3.729
59977W        W29792  33.925  28.506  10.412
59978W        W29793  13.627   8.814  10.488
59979W        W29794  15.704   3.784  10.130
59980W        W29795  28.073  41.994   4.657
59981W        W29796  12.620   5.929  14.930
59982W        W29797  18.616  33.090  11.405
59983W        W29798  36.875  13.287  12.966
59984W        W29799  32.892  24.622   1.759
59985W        W29800   2.798  35.086  14.508
59986W        W29801  37.553  44.352  13.996
59987W        W29802  11.818  31.453   4.193
59988W        W29803   3.766  15.767  10.410
59989W        W29804   0.320   7.739  14.906
59990W        W29805   0.785  13.671   4.663
59991W        W29806   0.303   5.258   0.854
59992W        W29807  21.524  19.560  10.578
59993W        W29808  22.726   7.708  14.811
59994W        W29809  38.554   3.752  14.884
59995W        W29810  35.580  34.091   0.846
59996W        W29811  11.779  33.509  12.375
59997W        W29812  10.819  18.129  14.394
59998W        W29813  33.108  43.386   1.848
59999W        W29814  43.961   8.228   3.294
60000W        W29815   6.348  37.375  13.861
60001W        W29816  24.491   4.833   2.809
60002W        W29817  16.160  40.049  11.489
60003W        W29818  37.944   1.791  14.866
60004W        W29819  11.733   1.385  14.458
60005W        W29820  42.446  38.033   0.443
60006W        W29821   5.690  27.962  12.465
60007W        W29822  38.075  32.577  10.549
60008W        W29823  13.267  18.073  11.384
60009W        W29824  31.634  24.650  14.309
60010W        W29825  32.100  25.121  14.980
60011W        W29826  17.182  44.805   2.298
60012W        W29827  35.459  20.076  12.374
60013W        W29828  39.328  22.226   3.729
60014W        W29829  44.410   7.333   4.333
60015W        W29830  32.402  14.654  14.368
60016W        W29831  42.418  16.108  10.625
60017W        W29832   9.873  28.976   0.256
60018W        W29833   7.667  11.217  11.504
60019W        W29834  29.509  17.710   1.334
60020W        W29835   5.434   8.754   3.346
60021W        W29836   9.381  43.473   4.758
60022W        W29837  29.647  42.907   1.879
60023W        W29838  24.121  18.662  12.824
60024W        W29839  30.556  14.150  13.402
60025W        W29840  31.012  27.593   4.116
60026W        W29841  44.785  25.194  14.951
60027W        W29842  27.500  18.092  13.491
60028W        W29843  29.568  41.926   1.441
60029W        W29844  41.470  44.356  10.990
60030W        W29845  23.234  42.450  13.533
60031W        W29846  44.493  30.039  11.937
60032W        W29847   7.764  22.208  14.804
60033W        W29848  42.804  18.574  10.527
60034W        W29849  42.281   9.726   2.413
60035W        W29850  22.192   0.330   2.310
60036W        W29851  22.235   5.250  11.494
60037W        W29852  19.052   6.869  13.867
60038W        W29853  41.986  21.237  12.968
60039W        W29854   5.351  12.663  11.937
60040W        W29855   1.785  43.444  14.293
60041W        W29856  34.053  42.986   0.781
60042W        W29857  37.855  32.012  12.828
60043W        W29858  37.956  39.533  10.911
60044W        W29859  17.172  29.463   1.229
60045W        W29860  29.967  25.973   4.807
60046W        W29861  14.756  44.439  12.349
60047W        W29862  34.050  11.308  11.547
60048W        W29863  12.702  17.125  14.958
60049W        W29864  36.041  38.041   3.685
60050W        W29865  12.821  36.033  14.813
60051W        W29866  20.688  13.793   2.401
60052W        W29867   6.261  23.704   0.966
60053W        W29868  22.252  38.910   2.230
60054W        W29869  43.440  41.820   1.787
60055W        W29870  11.202  34.983  13.829
60056W        W29871   8.832  32.995  11.030
60057W        W29872   5.341   3.933   3.667
60058W        W29873   7.287  29.447   0.374
60059W        W29874  10.696  44.004   3.792
60060W        W29875   1.953  26.575  13.485
60061W        W29876  14.265  24.596   4.350
60062W        W29877  16.738  27.185   1.730
60063W        W29878   4.366  37.476  11.492
60064W        W29879  12.158   8.808   4.743
60065W        W29880  40.906   3.936  12.342
60066W        W29881  11.156  35.384  12.557
60067W        W29882  24.697  17.163  11.082
60068W        W29883  34.523  23.681   4.746
60069W        W29884   9.747  38.537  11.434
60070W        W29885  23.096  19.122   3.298
60071W        W29886   7.359  21.066  13.876
60072W        W29887  30.112  13.116  11.869
60073W        W29888  24.088  30.000   2.304
60074W        W29889   4.257  28.956   1.406
60075W        W29890   3.293   9.649   4.798
60076W        W29891  41.997   4.781  14.965
60077W        W29892  19.146  18.790  11.017
60078W        W29893  21.553  31.092   3.665
60079W        W29894  21.229  35.107   0.433
60080W        W29895  29.070   1.268   1.831
60081W        W29896  18.772  35.578   4.205
60082W        W29897  11.675  31.139   3.639
60083W        W29898   1.339  34.034  12.891
60084W        W29899  28.056   5.722  10.511
60085W        W29900  30.482   2.862   2.287
60086W        W29901  10.292  39.341  12.391
60087W        W29902  43.482  12.357  10.907
60088W        W29903  20.730   1.336  13.940
60089W        W29904   9.850  24.697   4.697
60090W        W29905  34.046  17.616   2.866
60091W        W29906  31.919  26.521  14.503
60092W        W29907   8.772  43.897   2.865
60093W        W29908  41.985  36.562   0.955
60094W        W29909  28.133  35.877  11.931
60095W        W29910  19.193   1.835   1.858
60096W        W29911  26.550  23.136  10.550
60097W        W29912  10.723   4.355  12.528
60098W        W29913  14.721  28.116  11.503
60099W        W29914  24.163  44.760  12.398
60100W        W29915  17.575  13.656  13.432
60101W        W29916  11.834  17.130  13.417
60102W        W29917  38.927  14.230   3.789
60103W        W29918  37.952  10.651   3.367
60104W        W29919  36.449   3.328   5.275
60105W        W29920  34.059  26.537   2.327
60106W        W29921  37.345  37.857   4.765
60107W        W29922  22.673  28.456  11.452
60108W        W29923  22.102  11.191  10.609
60109W        W29924  27.493  38.900   2.691
60110W        W29925  14.246  41.973  13.372
60111W        W29926  17.595  18.624   0.748
60112W        W29927   4.228  40.814  13.975
60113W        W29928  21.200   5.925  10.644
60114W        W29929  11.155  27.514  12.386
60115W        W29930  17.285  19.560  11.072
60116W        W29931  16.290  21.206  13.882
60117W        W29932  37.903  18.666  13.437
60118W        W29933  34.971  40.477   5.236
60119W        W29934  28.035   6.378  14.776
60120W        W29935  39.511  15.737  13.376
60121W        W29936  22.087  26.048  11.920
60122W        W29937  20.550   9.771   2.749
60123W        W29938  15.110  18.089   3.791
60124W        W29939  41.818  16.788   4.231
60125W        W29940  37.952   8.816   1.873
60126W        W29941   5.742  37.393  14.845
60127W        W29942  28.942  32.521  13.801
60128W        W29943  19.721  42.500   2.790
60129W        W29944  44.329  30.916  12.426
60130W        W29945  29.109   3.779   1.287
60131W        W29946   2.720  36.016  11.524
60132W        W29947   9.154  22.659  10.058
60133W        W29948   6.331  18.634  13.026
60134W        W29949  44.977  12.338  14.830
60135W        W29950   9.174  19.568  10.141
60136W        W29951   1.812  27.549   4.212
60137W        W29952  25.587  22.094   1.755
60138W        W29953  23.194  31.549   0.938
60139W        W29954  33.927   0.358   0.375
60140W        W29955  37.066   9.839   0.920
60141W        W29956   6.728  19.710  12.532
60142W        W29957  37.994   5.770  11.553
60143W        W29958  43.898  15.136  14.911
60144W        W29959  39.984  44.760   2.681
60145W        W29960  40.430   7.881   4.223
60146W        W29961  34.559  17.558  14.326
60147W        W29962  18.769  30.999   4.721
60148W        W29963   3.432  18.618   0.408
60149W        W29964  34.424  39.535   1.351
60150W        W29965   8.256  38.072  14.026
60151W        W29966  44.433  37.465   0.353
60152W        W29967  19.573  44.802  10.620
60153W        W29968  38.421  29.007   4.800
60154W        W29969  18.612  24.509   2.861
60155W        W29970  15.728  30.093   0.353
60156W        W29971  26.512  20.755  13.997
60157W        W29972  38.504  16.309  12.977
60158W        W29973  32.612  42.932  13.063
60159W        W29974   9.365  10.694  10.481
60160W        W29975  21.722  15.762   2.253
60161W        W29976  16.707  31.055   2.752
60162W        W29977  41.402  44.479  14.489
60163W        W29978  39.480   1.269   3.178
60164W        W29979  32.555  34.905  12.060
60165W        W29980   4.873   7.402   1.223
60166W        W29981  35.370  16.118   1.399
60167W        W29982  22.645  25.549   3.832
60168W        W29983   3.251  15.144   1.211
60169W        W29984  28.602  29.666   0.396
60170W        W29985  33.412  12.124   0.348
60171W        W29986   0.758   0.432   2.804
60172W        W29987  14.336   4.397   3.848
60173W        W29988   1.365  39.531   1.900
60174W        W29989   3.784  20.572   2.719
60175W        W29990  22.060  44.422  13.872
60176W        W29991  23.183  25.509  11.898
60177W        W29992  35.561  20.196  14.460
60178W        W29993  16.167  10.696  11.944
60179W        W29994  24.092   9.862   3.710
60180W        W29995  24.225   6.772   0.359
60181W        W29996   3.869  27.144   0.370
60182W        W29997  16.233  37.348   1.272
60183W        W29998  35.510  38.909  11.464
60184W        W29999  35.900  39.555   2.891
60185W        W30000   1.938  17.618  10.888
60186W        W30001  10.309  34.094   3.324
60187W        W30002  12.309  30.576  10.428
60188W        W30003  42.354   7.298   3.348
60189W        W30004  21.043   8.160   2.667
60190W        W30005  28.067  34.064   1.800
60191W        W30006   1.373  30.602   0.272
60192W        W30007  23.042  20.702   0.871
60193W        W30008   5.318  39.056  12.029
60194W        W30009   7.279  28.992  13.054
60195W        W30010  32.633  34.439   1.850
60196W        W30011  24.584  13.705  10.905
60197W        W30012  42.509  34.503   4.725
60198W        W30013  25.646   1.946  12.874
60199W        W30014   5.772  16.747  14.378
60200W        W30015  40.046   7.283  12.906
60201W        W30016  38.067  31.452  12.472
60202W        W30017  28.454  10.636   1.739
60203W        W30018  15.202   9.725   3.765
60204W        W30019  13.277  28.083  14.938
60205W        W30020   5.714  13.330   4.816
60206W        W30021  22.175  29.996   4.250
60207W        W30022  42.386  32.049   4.750
60208W        W30023  14.609   8.290   4.599
60209W        W30024   3.749  11.805  11.549
60210W        W30025  30.563   6.239   1.881
60211W        W30026  44.781   6.234  14.013
60212W        W30027  19.609  44.908  14.443
60213W        W30028  11.135  36.014  13.943
60214W        W30029  35.065   1.827   3.829
60215W        W30030   7.204  18.116   3.838
60216W        W30031  29.089  40.995   3.749
60217W        W30032  12.147   5.838  13.887
60218W        W30033  16.312  41.884  14.952
60219W        W30034  44.958  10.152   2.185
60220W        W30035  36.868  21.749   4.194
60221W        W30036  43.005  15.662  12.850
60222W        W30037   1.966  39.015  14.330
60223W        W30038   8.322  27.992   2.343
60224W        W30039  35.978   3.459  14.438
60225W        W30040  12.803  41.990   2.799
60226W        W30041   9.782  25.544  10.469
60227W        W30042  26.683   4.712  11.920
60228W        W30043  11.743  12.723  13.956
60229W        W30044  38.827   5.223   2.391
60230W        W30045   9.809  23.722  10.934
60231W        W30046  28.504   2.726  11.473
60232W        W30047  30.150  33.960  11.916
60233W        W30048   1.941  21.544  12.469
60234W        W30049   4.813  16.583  10.519
60235W        W30050  38.451   7.232  10.569
60236W        W30051  14.297  31.409  11.502
60237W        W30052   6.336  13.816  13.927
60238W        W30053  10.252  32.590  11.033
60239W        W30054  17.300  23.530   5.217
60240W        W30055  35.081  38.369   2.203
60241W        W30056   4.724  31.496  14.955
60242W        W30057  36.050  28.655   4.823
60243W        W30058  10.827  17.182   4.806
60244W        W30059  15.713   5.861  11.118
60245W        W30060  22.738  30.031  14.350
60246W        W30061  27.685  27.101   3.352
60247W        W30062   1.385  44.805   2.240
60248W        W30063  29.469  24.055   5.107
60249W        W30064  43.454  43.330  13.480
60250W        W30065  10.741  22.508  12.530
60251W        W30066   4.229   2.303  14.511
60252W        W30067  34.416  37.929   3.731
60253W        W30068   0.824  24.015  14.796
60254W        W30069   3.943   6.200  14.330
60255W        W30070  11.144  36.923  11.443
60256W        W30071  10.343  17.620   1.429
60257W        W30072  29.072  29.153  14.458
60258W        W30073  29.560   2.408   1.375
60259W        W30074  44.412  16.307  14.760
60260W        W30075  35.576  17.801   4.769
60261W        W30076  22.090  29.593  11.965
60262W        W30077  18.610   9.696  13.436
60263W        W30078  44.363  17.646   4.718
60264W        W30079  35.097  40.472   4.311
60265W        W30080  23.649   3.264  11.997
60266W        W30081  42.354  11.247   1.786
60267W        W30082  33.930  34.500  11.592
60268W        W30083   7.760   1.446  11.075
60269W        W30084  10.187  13.661   1.802
60270W        W30085  18.251  14.637   0.434
60271W        W30086  26.553  34.506   3.644
60272W        W30087  40.832  28.133  11.998
60273W        W30088   5.869  32.540  13.933
60274W        W30089  33.416  40.303  11.454
60275W        W30090  37.907  40.949   4.633
60276W        W30091   5.230  19.559  14.509
60277W        W30092   0.351  26.203  12.966
60278W        W30093  29.014  22.610  14.431
60279W        W30094  32.049   9.310   1.776
60280W        W30095  36.504   3.263   4.623
60281W        W30096  37.340  37.415  13.355
60282W        W30097  11.215  24.975   0.288
60283W        W30098  17.781  21.225  14.430
60284W        W30099  27.558   4.748  10.468
60285W        W30100  43.422   2.460   1.357
60286W        W30101  18.186  22.547   2.747
60287W        W30102   8.721   7.173  12.570
60288W        W30103  10.794  19.213  14.310
60289W        W30104  10.661  42.027  13.059
60290W        W30105  13.639  44.949  14.879
60291W        W30106   4.333  17.127   0.450
60292W        W30107  13.669  10.807  12.966
60293W        W30108  34.977  21.694   0.851
60294W        W30109  27.960  43.473  14.814
60295W        W30110  19.180  39.358  10.613
60296W        W30111   6.732  22.722   2.882
60297W        W30112  12.356  20.173  11.988
60298W        W30113  20.079  16.146  12.049
60299W        W30114  40.912  41.432  12.371
60300W        W30115   4.837  37.522   5.266
60301W        W30116  34.517   1.888  13.522
60302W        W30117   3.751   6.836  14.921
60303W        W30118   0.977   9.242   0.923
60304W        W30119  19.586  10.204  12.393
60305W        W30120  22.131  39.065  12.849
60306W        W30121  26.479  23.078  13.361
60307W        W30122  10.351  28.519   3.738
60308W        W30123  29.924  38.414   1.844
60309W        W30124  13.189  40.527  14.770
60310W        W30125  20.525  29.005   1.762
60311W        W30126  39.001  14.184  10.571
60312W        W30127  16.076   9.225   2.179
60313W        W30128  19.087  20.218  10.983
60314W        W30129  23.597   9.149   1.276
60315W        W30130  31.637  16.782  13.384
60316W        W30131   0.388  24.514  14.280
60317W        W30132  19.730  29.630   0.739
60318W        W30133  39.314  44.786   2.879
60319W        W30134   2.818  28.064   0.915
60320W        W30135  27.163   9.180  10.912
60321W        W30136  39.958  28.647   1.442
60322W        W30137   6.722   2.409   3.256
60323W        W30138  22.670  29.524  11.863
60324W        W30139  10.794  32.564  10.555
60325W        W30140  23.699  44.858  12.412
60326W        W30141   6.316  34.449   2.872
60327W        W30142  33.995  22.081  11.090
60328W        W30143  14.817   2.375   4.123
60329W        W30144  33.559  22.624   3.731
60330W        W30145  20.181  33.403  13.858
60331W        W30146  15.120  33.582  14.824
60332W        W30147  42.346  27.483  13.453
60333W        W30148   0.793   8.794  14.762
60334W        W30149   6.339  41.424   3.215
60335W        W30150  41.863  18.281  11.403
60336W        W30151  12.691  23.518  12.924
60337W        W30152  43.492   8.361   2.743
60338W        W30153  35.029   3.749  10.490
60339W        W30154   6.331  15.144   1.794
60340W        W30155  19.113  41.023  14.936
60341W        W30156  25.506  39.836  14.448
60342W        W30157  37.983  43.866  12.021
60343W        W30158  16.265  18.614   4.194
60344W        W30159  17.128  22.034   4.329
60345W        W30160  31.067   2.759  11.377
60346W        W30161  44.439  12.262   0.855
60347W        W30162   1.401  24.484   1.378
60348W        W30163   1.367  28.444  10.954
60349W        W30164  32.919  22.246  11.417
60350W        W30165   0.764  19.550  10.078
60351W        W30166  20.131  35.998   4.215
60352W        W30167  16.281  32.119  10.987
60353W        W30168   5.705  40.036  14.874
60354W        W30169  32.019  14.784  13.505
60355W        W30170  19.101  20.133   4.341
60356W        W30171  20.682  36.940   1.235
60357W        W30172  15.630  21.683  11.890
60358W        W30173   7.911   7.346   2.309
60359W        W30174  16.744  22.534   3.278
60360W        W30175  34.980  43.409   4.674
60361W        W30176  33.025  27.026   4.823
60362W        W30177  33.442   5.928   4.280
60363W        W30178  14.611  31.504   0.417
60364W        W30179  14.162   0.405  10.417
60365W        W30180   6.283  43.836  12.444
60366W        W30181   5.817  14.212   4.816
60367W        W30182   5.839  13.703   3.779
60368W        W30183  41.032  25.076   3.344
60369W        W30184   9.375  13.157  14.773
60370W        W30185  25.572  14.667  14.909
60371W        W30186   2.271  28.596   4.678
60372W        W30187  37.938  23.217   4.744
60373W        W30188  21.127   7.809   5.264
60374W        W30189   4.360  17.146  11.121
60375W        W30190   0.878  16.296  10.616
60376W        W30191  33.589  42.807  10.075
60377W        W30192  42.325  25.990   3.727
60378W        W30193  33.984   1.443   4.728
60379W        W30194   7.876  42.319   0.441
60380W        W30195  35.458  26.982  13.865
60381W        W30196  23.173  20.524   2.266
60382W        W30197  44.010  32.071   2.823
60383W        W30198  38.846   7.867  10.954
60384W        W30199  19.137  26.076   2.836
60385W        W30200  34.910  20.560   3.365
60386W        W30201  21.676  14.094  13.924
60387W        W30202  21.619  44.760   3.675
60388W        W30203  27.680   9.844  14.946
60389W        W30204  17.277  20.147   1.267
60390W        W30205  15.774  13.149  14.501
60391W        W30206  27.591  16.269   0.400
60392W        W30207  16.805  19.673   1.316
60393W        W30208  43.890  20.139   4.252
60394W        W30209  34.374  39.052   1.411
60395W        W30210   2.245  27.064  11.474
60396W        W30211   6.216  23.003   9.939
60397W        W30212  18.210  41.907   3.664
60398W        W30213  14.198  10.207   1.428
60399W        W30214  19.637  18.207   4.138
60400W        W30215  28.143   7.718  10.971
60401W        W30216  34.580  42.464   3.773
60402W        W30217  31.555  38.367  14.460
60403W        W30218   3.939  40.337   0.876
60404W        W30219  25.468   9.721   3.258
60405W        W30220   5.873  33.128   3.826
60406W        W30221  26.664   1.951  13.314
60407W        W30222   1.267   6.231   2.793
60408W        W30223  15.653  10.357  13.527
60409W        W30224  12.751  35.883  14.467
60410W        W30225   4.880  29.600   3.158
60411W        W30226  15.173  18.751   4.613
60412W        W30227  25.141  38.326  11.577
60413W        W30228  21.542  32.910   1.878
60414W        W30229  26.061  29.092   1.716
60415W        W30230   9.748  10.770   1.715
60416W        W30231  44.997  20.698  12.864
60417W        W30232  22.172  22.645   3.856
60418W        W30233  30.917  15.810   4.140
60419W        W30234  42.468  29.940   0.805
60420W        W30235   7.672  10.378   0.732
60421W        W30236  33.025  32.069  14.789
60422W        W30237  37.374  14.319  11.968
60423W        W30238  16.641  26.560  10.926
60424W        W30239   8.838   8.863  10.522
60425W        W30240  44.903  39.475  12.490
60426W        W30241  18.771  11.193   4.763
60427W        W30242  21.632  33.513   1.235
60428W        W30243  12.346  40.516  14.983
60429W        W30244  13.147  33.456  14.946
60430W        W30245   8.270   6.207  13.015
60431W        W30246  23.616  11.364  13.482
60432W        W30247  30.959  19.159  12.427
60433W        W30248   3.851  15.220  13.981
60434W        W30249  14.709  11.826  13.021
60435W        W30250  24.491  38.462  13.360
60436W        W30251  36.993  22.691  10.989
60437W        W30252  38.412  35.896  12.023
60438W        W30253  20.691  13.841  10.961
60439W        W30254  18.254  37.376  14.428
60440W        W30255  35.376   5.304  13.444
60441W        W30256   4.324  18.088   2.359
60442W        W30257  12.856   6.873   4.676
60443W        W30258  24.683  12.308   0.290
60444W        W30259   7.333  32.451   0.922
60445W        W30260  24.147  34.586   0.838
60446W        W30261  20.101  18.733   2.220
60447W        W30262  41.793  29.567   3.243
60448W        W30263  37.973  19.550  14.323
60449W        W30264  27.096  24.661   3.825
60450W        W30265  32.887   8.333   0.878
60451W        W30266  15.301  44.460   2.334
60452W        W30267  34.070   7.672  12.002
60453W        W30268  30.465  35.459   4.726
60454W        W30269  33.100   5.844  13.987
60455W        W30270   4.780  25.212   0.480
60456W        W30271  42.862  34.577  10.405
60457W        W30272  34.455  15.742   4.796
60458W        W30273  15.134  11.771   1.881
60459W        W30274   3.354  34.876   2.771
60460W        W30275  39.898  30.646   4.623
60461W        W30276  38.897  34.552   4.628
60462W        W30277  25.983   3.887   2.347
60463W        W30278   5.887   6.351  12.861
60464W        W30279  38.048  35.916  12.503
60465W        W30280  30.559  34.565  14.285
60466W        W30281   6.897  26.063   3.819
60467W        W30282  31.605  44.761  13.472
60468W        W30283  36.096  33.535   3.652
60469W        W30284  16.638  29.149   1.844
60470W        W30285  43.301  24.115  12.871
60471W        W30286  38.533  18.646   3.194
60472W        W30287   8.165  26.459   4.695
60473W        W30288   4.415  39.933   3.342
60474W        W30289  31.100  43.807   3.360
60475W        W30290  20.130   2.904  12.991
60476W        W30291  21.721   6.313   2.291
60477W        W30292  18.237  14.805  13.863
60478W        W30293  11.755  21.671   4.655
60479W        W30294  42.515  28.532   0.446
60480W        W30295   9.362  37.415   0.890
60481W        W30296  21.225  40.899  12.872
60482W        W30297  16.678  24.481  11.409
60483W        W30298  43.411  23.046  12.008
60484W        W30299  36.543  34.487  11.581
60485W        W30300  41.453  18.180   4.253
60486W        W30301  21.729  13.832   1.254
60487W        W30302   9.753  44.984   3.748
60488W        W30303  14.731  28.501  13.810
60489W        W30304  42.411   4.261   0.313
60490W        W30305  21.605  22.673   2.804
60491W        W30306   8.305  25.662   1.398
60492W        W30307  19.230  36.979  11.380
60493W        W30308  28.039  20.174   2.739
60494W        W30309  29.439  11.683   3.744
60495W        W30310  25.171  35.945   4.745
60496W        W30311   7.317   9.869  12.348
60497W        W30312  19.601  35.491  14.502
60498W        W30313  22.603   1.427  12.521
60499W        W30314  39.499  36.546  14.787
60500W        W30315  36.041  44.492  11.862
60501W        W30316  11.798  18.714  14.953
60502W        W30317  37.973  10.382   4.796
60503W        W30318  12.793   5.823   3.763
60504W        W30319  10.722  14.181  14.514
60505W        W30320  36.545   9.822   1.321
60506W        W30321  30.924   9.788  11.439
60507W        W30322   8.699   1.251  10.951
60508W        W30323  20.185  10.790   4.823
60509W        W30324  43.005  39.958   0.338
60510W        W30325   3.782  12.173  12.974
60511W        W30326  15.143  33.564   4.163
60512W        W30327   3.714   4.890  11.503
60513W        W30328   0.440  40.535  13.515
60514W        W30329  26.464   5.764   2.187
60515W        W30330  25.026  35.523   1.360
60516W        W30331   8.843  23.493   4.279
60517W        W30332   2.923  39.332  11.084
60518W        W30333  32.958   6.910  10.491
60519W        W30334  43.475  42.327   4.280
60520W        W30335  33.427  37.425  12.449
60521W        W30336  43.281  35.093   1.896
60522W        W30337  38.821  27.142   3.255
60523W        W30338  36.896  35.463   4.132
60524W        W30339  40.945  32.890   2.889
60525W        W30340   1.760   5.711   2.290
60526W        W30341  32.590  32.929  13.324
60527W        W30342  13.150  20.740   0.473
60528W        W30343  14.287   2.467  12.069
60529W        W30344  24.486   7.388  10.598
60530W        W30345  27.580  23.208   4.719
60531W        W30346  37.389  26.065  13.515
60532W        W30347  10.259  43.825   4.705
60533W        W30348   8.728  13.330   2.220
60534W        W30349  42.789  12.323  10.638
60535W        W30350  32.110   8.355  10.477
60536W        W30351  20.179  42.347   4.639
60537W        W30352   2.374  43.021  10.131
60538W        W30353  11.161   0.455  12.885
60539W        W30354  25.605  15.214  13.986
60540W        W30355  44.836   4.450  13.487
60541W        W30356  34.933  25.185   2.184
60542W        W30357  21.718  32.577  14.839
60543W        W30358  36.947  10.645  14.947
60544W        W30359  41.869   0.299   3.812
60545W        W30360  12.634  42.307   4.271
60546W        W30361  27.956  39.388   0.738
60547W        W30362  30.059  23.237   2.327
60548W        W30363   4.402  24.007   3.709
60549W        W30364   4.221   6.299   4.719
60550W        W30365  19.647  43.319  14.491
60551W        W30366  43.879  40.401   0.263
60552W        W30367  10.844  28.520  14.502
60553W        W30368  11.145  41.940   2.857
60554W        W30369  16.279   3.394   4.753
60555W        W30370  30.067   4.415   0.950
60556W        W30371   1.835  36.557  13.891
60557W        W30372  36.902  17.072  13.871
60558W        W30373  29.957  13.711  11.887
60559W        W30374   9.644  44.979  11.461
60560W        W30375  36.088  33.884  10.403
60561W        W30376   3.797  24.627   0.807
60562W        W30377  16.143  24.062   3.356
60563W        W30378  15.184  20.666  11.534
60564W        W30379  44.773  43.946   4.202
60565W        W30380  27.583  19.173  11.407
60566W        W30381  29.004  34.506   4.618
60567W        W30382  28.467  22.746  11.999
60568W        W30383  40.361  44.347   4.238
60569W        W30384  28.981  34.003   1.930
60570W        W30385   2.812  14.328   3.817
60571W        W30386  39.009  22.224   2.685
60572W        W30387  24.527  16.179   4.814
60573W        W30388  25.667   3.743  12.954
60574W        W30389   8.228  23.490   4.757
60575W        W30390  35.591  34.432  12.564
60576W        W30391  20.615  38.484  13.339
60577W        W30392   3.754  13.842  10.456
60578W        W30393  40.504  35.558   2.182
60579W        W30394  31.520  11.177   4.286
60580W        W30395   6.376  25.003  11.560
60581W        W30396   0.310  40.432  13.029
60582W        W30397  42.898  17.271   1.742
60583W        W30398   4.830   0.441  10.590
60584W        W30399  23.683  18.627  10.604
60585W        W30400  43.353  37.437  12.044
60586W        W30401  36.415  36.557  11.478
60587W        W30402  39.838  34.039   1.759
60588W        W30403  44.277  42.281  12.057
60589W        W30404  31.014  12.224   4.719
60590W        W30405  42.466  39.842  10.914
60591W        W30406  43.272   8.206   2.239
60592W        W30407   8.197  10.699  10.556
60593W        W30408  33.119  28.622  12.475
60594W        W30409   7.781   4.748   0.310
60595W        W30410  30.944   9.294  13.803
60596W        W30411   6.762  12.758   4.698
60597W        W30412  12.621   2.466  13.845
60598W        W30413  32.054  39.359   1.237
60599W        W30414   3.366  22.048   0.851
60600W        W30415  25.489  15.259   4.328
60601W        W30416  30.928  11.179  11.890
60602W        W30417  33.948  43.479  11.014
60603W        W30418  28.032  23.166   4.139
60604W        W30419  29.017  42.999   4.750
60605W        W30420   4.837  39.065   0.767
60606W        W30421   3.276  31.981  11.602
60607W        W30422  12.270  35.018   3.779
60608W        W30423  28.130  32.962   2.229
60609W        W30424  18.578   7.318   3.699
60610W        W30425  21.747  40.481   3.698
60611W        W30426  16.801  35.919   0.351
60612W        W30427  12.290  19.071   1.791
60613W        W30428  35.510  15.198  11.127
60614W        W30429  16.702  19.709  13.453
60615W        W30430  28.475  43.844   4.194
60616W        W30431  23.022  32.564   0.297
60617W        W30432  28.939  20.580   2.793
60618W        W30433  17.714  12.347  14.772
60619W        W30434  36.968   7.236  11.877
60620W        W30435   7.214  11.344   2.262
60621W        W30436  32.085  23.095  12.380
60622W        W30437  16.245  29.669  13.055
60623W        W30438   4.750   3.277  11.604
60624W        W30439  37.068  42.896   4.309
60625W        W30440   5.804   8.361   3.730
60626W        W30441  11.689   5.888  11.438
60627W        W30442  42.873  32.887  13.881
60628W        W30443  39.342  31.986   0.858
60629W        W30444  38.438  44.895  13.961
60630W        W30445  25.567  28.067  11.925
60631W        W30446  27.961  18.712   2.880
60632W        W30447  16.113  30.501   0.413
60633W        W30448  39.420  30.505  12.016
60634W        W30449   3.394   0.478   2.196
60635W        W30450  12.691  31.118  11.936
60636W        W30451  12.613  11.678  14.978
60637W        W30452  13.285  18.567   0.313
60638W        W30453  31.635  41.868   3.327
60639W        W30454  13.185  32.913  11.397
60640W        W30455  29.473   8.170  11.878
60641W        W30456   0.269  19.116   1.259
60642W        W30457  43.466  12.237  13.062
60643W        W30458  31.419  39.922  14.858
60644W        W30459  12.618   4.337  13.060
60645W        W30460  31.622  13.284   3.662
60646W        W30461   3.244  17.134   4.790
60647W        W30462  25.477  32.973  14.830
60648W        W30463  37.552  17.272   1.403
60649W        W30464   2.343  28.061   1.357
60650W        W30465   7.345  14.815   0.361
60651W        W30466  39.400  29.061   3.643
60652W        W30467  35.475  33.536   5.237
60653W        W30468   9.859  11.299  14.313
60654W        W30469  10.330  13.224   4.727
60655W        W30470  40.402   7.192   2.287
60656W        W30471  44.376   2.257  11.438
60657W        W30472  23.702   8.767  13.460
60658W        W30473  21.244  33.573   4.132
60659W        W30474  33.037  29.161   2.662
60660W        W30475  24.005  35.369   1.337
60661W        W30476  36.944   9.816   3.157
60662W        W30477  19.125   9.866   1.410
60663W        W30478  24.069   4.758   1.385
60664W        W30479  24.597  27.117  12.484
60665W        W30480  28.932  24.702   3.212
60666W        W30481   6.908  41.038  14.825
60667W        W30482  23.198  24.583   3.276
60668W        W30483   8.370  13.635  13.856
60669W        W30484  44.304  17.715  11.052
60670W        W30485  10.816   3.461  11.492
60671W        W30486  15.235  40.934   0.476
60672W        W30487  15.618  11.745  13.387
60673W        W30488  28.009  18.245  14.468
60674W        W30489  10.724  11.816  11.030
60675W        W30490  12.810  38.964   4.753
60676W        W30491   2.760   0.350  11.997
60677W        W30492   7.821  30.639  13.881
60678W        W30493  35.936   3.294  13.857
60679W        W30494  14.722  10.223   2.279
60680W        W30495  17.266   2.338   2.820
60681W        W30496  17.245  16.717  11.444
60682W        W30497  41.501  38.352   2.872
60683W        W30498  36.972   6.207  12.836
60684W        W30499  39.416   9.757  10.491
60685W        W30500  19.580   4.425  14.903
60686W        W30501  44.755  12.624   0.274
60687W        W30502  24.658  40.352   2.300
60688W        W30503  23.002   4.269   2.851
60689W        W30504  32.400  32.495   3.856
60690W        W30505  15.606   9.845   2.268
60691W        W30506   5.294  20.131   0.736
60692W        W30507   3.927   9.727   0.400
60693W        W30508  18.547   1.871  12.459
60694W        W30509  36.358   4.791   5.276
60695W        W30510  39.984   8.657   4.118
60696W        W30511  24.128  12.805   0.475
60697W        W30512  31.068  35.379   4.769
60698W        W30513  31.128  22.049   3.206
60699W        W30514  22.579  30.614   3.719
60700W        W30515  30.066  14.830  13.498
60701W        W30516  12.687  12.756   0.728
60702W        W30517   5.752  22.653   2.217
60703W        W30518  24.577   0.841  14.410
60704W        W30519   9.803  11.310   1.853
60705W        W30520  12.623  42.854   0.447
60706W        W30521  17.269  33.557   4.326
60707W        W30522  15.199  38.919  12.562
60708W        W30523  16.714  16.627  10.985
60709W        W30524  23.004  11.718  13.850
60710W        W30525  25.215  37.981  12.955
60711W        W30526  33.077  18.243  11.398
60712W        W30527  10.706  23.590   0.296
60713W        W30528  44.349  20.753   1.764
60714W        W30529  30.436  17.628  14.897
60715W        W30530  36.081  11.833   4.672
60716W        W30531  40.809  15.708   2.281
60717W        W30532  41.915  29.500  11.862
60718W        W30533  41.383  21.579   4.623
60719W        W30534  42.419  16.567  11.375
60720W        W30535  38.432  35.089   1.924
60721W        W30536   3.228  28.458   1.707
60722W        W30537  16.781   6.422  10.951
60723W        W30538  24.145  24.606  10.643
60724W        W30539  30.978  43.861   3.706
60725W        W30540  28.570  28.645   4.237
60726W        W30541  19.684   8.367  12.968
60727W        W30542  29.116  34.049  13.913
60728W        W30543   6.842  40.361  10.160
60729W        W30544  20.254  43.511  10.043
60730W        W30545  26.569  40.976  13.806
60731W        W30546  21.029   5.205   2.274
60732W        W30547  31.016  40.530  12.369
60733W        W30548  12.145  35.006   2.786
60734W        W30549  38.468   0.252  11.445
60735W        W30550   9.820  33.101   1.299
60736W        W30551   8.697  39.394   2.326
60737W        W30552   9.376  23.587  10.632
60738W        W30553  37.963  18.269  12.842
60739W        W30554  28.012  10.187  13.508
60740W        W30555  15.083   0.871   2.370
60741W        W30556  35.905  11.198  12.384
60742W        W30557   6.423  35.391   1.720
60743W        W30558  28.055  36.013  10.042
60744W        W30559  12.656  11.338  13.548
60745W        W30560  44.766  35.510   0.915
60746W        W30561  22.556  22.058   1.348
60747W        W30562  11.145  13.713  13.038
60748W        W30563  38.006   1.412  14.288
60749W        W30564  19.582  43.886  11.127
60750W        W30565  32.962  16.099   4.820
60751W        W30566   1.249  14.718   1.781
60752W        W30567  40.980   2.912   3.810
60753W        W30568  44.370   0.775  11.478
60754W        W30569  42.844  25.001  14.398
60755W        W30570  19.631  44.793   1.752
60756W        W30571  13.715  23.581  14.838
60757W        W30572  28.978  44.858  13.942
60758W        W30573  41.812  35.063   0.965
60759W        W30574  43.377  23.152  14.927
60760W        W30575  36.024  23.987   2.387
60761W        W30576  13.319   2.363   3.678
60762W        W30577  15.268  24.055   3.213
60763W        W30578  24.596  42.794   3.849
60764W        W30579  14.291  31.615  13.478
60765W        W30580  28.532  19.139  11.486
60766W        W30581  13.661   0.401  11.037
60767W        W30582  44.456  39.012  13.534
60768W        W30583  27.639  24.493  14.793
60769W        W30584  38.421   2.327   4.300
60770W        W30585  40.009  38.514   1.289
60771W        W30586  42.338  18.623   1.698
60772W        W30587  22.034  40.837   0.412
60773W        W30588  13.286  30.970   0.735
60774W        W30589  26.017  35.477  13.924
60775W        W30590  29.942  17.722   0.925
60776W        W30591  14.250   4.903  12.495
60777W        W30592  44.258  12.253  10.940
60778W        W30593  25.655  25.101   4.752
60779W        W30594   3.292  32.632  10.413
60780W        W30595  15.209   4.708   0.905
60781W        W30596  29.576  41.020   0.800
60782W        W30597   3.249  34.502   1.261
60783W        W30598  17.253  43.418   2.784
60784W        W30599  15.220   7.249  12.052
60785W        W30600  36.524  13.635   3.768
60786W        W30601  21.712  13.745   2.380
60787W        W30602  37.016  24.724   1.918
60788W        W30603  44.989  44.825   0.336
60789W        W30604  26.960   0.286   3.243
60790W        W30605   6.817  44.347  14.002
60791W        W30606  13.234  25.475  14.337
60792W        W30607  35.460  12.336  10.624
60793W        W30608  21.573  39.337  10.513
60794W        W30609  24.114  21.637  10.445
60795W        W30610  28.032  14.774  14.802
60796W        W30611  37.964  12.782  13.975
60797W        W30612  30.502  17.742   1.214
60798W        W30613   2.390  14.303  12.479
60799W        W30614  10.202  14.811   5.190
60800W        W30615   8.687  25.079  13.965
60801W        W30616   6.365  27.105  10.898
60802W        W30617  22.069  12.303  14.864
60803W        W30618   6.707  32.468  14.335
60804W        W30619  13.758   5.383  13.432
60805W        W30620  39.475  35.946  14.830
60806W        W30621  34.905   1.793  14.945
60807W        W30622  25.213  31.611  14.956
60808W        W30623  26.111  12.713  14.822
60809W        W30624  40.522  41.794   3.641
60810W        W30625  28.007  29.027   2.392
60811W        W30626  27.992  24.048  13.851
60812W        W30627   4.777   4.867   0.919
60813W        W30628   2.261   9.153  12.070
60814W        W30629  17.776  38.342  11.003
60815W        W30630  20.201  29.987  10.489
60816W        W30631  39.020  35.064  11.047
60817W        W30632  30.942  41.517  11.413
60818W        W30633  31.610   0.902  13.321
60819W        W30634  32.008  37.460   1.913
60820W        W30635  32.596  38.917   0.899
60821W        W30636  19.161  43.486   1.418
60822W        W30637  16.160  19.614  13.954
60823W        W30638  11.684  13.780   9.995
60824W        W30639  19.711  38.867   0.277
60825W        W30640  19.251  36.396  10.926
60826W        W30641  40.503  13.617  14.030
60827W        W30642  18.179  44.855  10.543
60828W        W30643   3.715   4.235  11.863
60829W        W30644  33.988  20.140   0.794
60830W        W30645  18.085  35.362   4.263
60831W        W30646  26.992   0.434  10.602
60832W        W30647  32.961  30.037   0.809
60833W        W30648  39.428  29.047   0.913
60834W        W30649  36.966  29.457   3.795
60835W        W30650  21.022  10.840   1.907
60836W        W30651  35.440   5.896   3.837
60837W        W30652  24.660  19.092  14.508
60838W        W30653   3.901  13.338   2.771
60839W        W30654   3.246   9.831  13.524
60840W        W30655  42.874  13.726   0.273
60841W        W30656  20.579   9.766  11.047
60842W        W30657  26.495  27.595   1.907
60843W        W30658  42.944   1.782  10.975
60844W        W30659  35.515   8.182  14.338
60845W        W30660   5.356  31.009   0.250
60846W        W30661  11.302  12.325   2.257
60847W        W30662  12.229  21.684   0.956
60848W        W30663  43.920   4.770   2.287
60849W        W30664  16.756  41.889   0.741
60850W        W30665   8.795   7.732   0.258
60851W        W30666  25.711  21.634  14.010
60852W        W30667  13.734  20.579   0.727
60853W        W30668  43.908  30.632   3.195
60854W        W30669  29.561  27.997  14.835
60855W        W30670   6.194  13.819   2.201
60856W        W30671  21.141  27.117   3.367
60857W        W30672  42.984  12.834  10.155
60858W        W30673   5.899  23.071  11.384
60859W        W30674  39.945  36.486   0.294
60860W        W30675  35.408  16.284   3.707
60861W        W30676  40.824   5.234  11.875
60862W        W30677  10.858  10.313   4.635
60863W        W30678  10.215  36.439   4.290
60864W        W30679  11.166  44.851  10.559
60865W        W30680  28.975   5.401   1.325
60866W        W30681  11.696  36.954   4.615
60867W        W30682  42.519   2.352   2.312
60868W        W30683  18.752   7.871  12.008
60869W        W30684  37.484   3.783   4.734
60870W        W30685   8.310  44.413  11.544
60871W        W30686  13.716   8.758   2.266
60872W        W30687   9.194  12.676  10.156
60873W        W30688   1.290  38.902  11.454
60874W        W30689  37.984  20.224   1.799
60875W        W30690  37.916   4.436   1.258
60876W        W30691   3.739  39.884  13.053
60877W        W30692   0.294  35.988  10.607
60878W        W30693  19.209   9.653  10.495
60879W        W30694  32.090  10.850   0.786
60880W        W30695   5.761   8.784   2.356
60881W        W30696  24.485   0.963   4.163
60882W        W30697   0.303   9.864   1.894
60883W        W30698  27.447  37.394  10.991
60884W        W30699  30.139  24.534   3.643
60885W        W30700   2.454  24.161  14.293
60886W        W30701  43.271  15.824  10.956
60887W        W30702  35.539  32.134  13.393
60888W        W30703  26.040  22.572   4.125
60889W        W30704   1.330  23.110  10.525
60890W        W30705  25.985   0.409  14.288
60891W        W30706  22.249   0.895   4.303
60892W        W30707  14.778   9.149   0.844
60893W        W30708  18.273  15.728  11.082
60894W        W30709  37.880  41.388  11.397
60895W        W30710   6.289  14.705  10.964
60896W        W30711  32.923  36.903   4.758
60897W        W30712  38.839  19.677   2.890
60898W        W30713   6.363   2.749  11.867
60899W        W30714  15.183  31.433   2.706
60900W        W30715  16.292  26.634   2.183
60901W        W30716  30.134  44.935   1.855
60902W        W30717  29.431  11.719  10.623
60903W        W30718  23.722  27.135   3.693
60904W        W30719  14.657   5.775   2.885
60905W        W30720   4.943  36.087  14.504
60906W        W30721  22.653  43.872  14.411
60907W        W30722  29.148  34.414  11.965
60908W        W30723  37.030  25.575  13.056
60909W        W30724  13.810  10.285   4.212
60910W        W30725   1.349  33.937  13.329
60911W        W30726  36.035  22.244   3.688
60912W        W30727  23.199  38.566   4.721
60913W        W30728  28.122   8.883  14.984
60914W        W30729   3.940   8.765  11.095
60915W        W30730  10.782  33.080  12.836
60916W        W30731  22.092  26.685   3.213
60917W        W30732  42.893  31.476   0.735
60918W        W30733   5.328  15.645   3.656
60919W        W30734  29.134  12.162   4.697
60920W        W30735  42.486   5.818  14.867
60921W        W30736   6.368  15.122   9.933
60922W        W30737  27.143  37.908   1.893
60923W        W30738  32.055  25.671  14.317
60924W        W30739  14.814  10.648  11.531
60925W        W30740   4.869  27.083  10.140
60926W        W30741  28.939  19.173  12.863
60927W        W30742  44.357  21.030   1.428
60928W        W30743  28.498  33.916   0.454
60929W        W30744  16.568  21.220   4.332
60930W        W30745  16.717  30.657   1.212
60931W        W30746  34.932  11.259  14.765
60932W        W30747   7.385  22.729  13.510
60933W        W30748  17.768  35.074   3.863
60934W        W30749  19.197  33.411  10.914
60935W        W30750  20.553  15.257   2.235
60936W        W30751  26.976  22.526   0.736
60937W        W30752  42.776   0.986   4.734
60938W        W30753   0.899   4.878  13.368
60939W        W30754  30.494  39.452  14.300
60940W        W30755   1.373  21.140  12.971
60941W        W30756  42.851  18.244   2.336
60942W        W30757   9.757  40.490   5.150
60943W        W30758   5.254  24.485   1.802
60944W        W30759  35.082  13.840  11.556
60945W        W30760  36.461   2.842  11.455
60946W        W30761  11.780   6.706   4.800
60947W        W30762  42.919  23.215  14.508
60948W        W30763   2.738  17.222   4.823
60949W        W30764  26.082   8.269  12.923
60950W        W30765  28.155  39.481  13.015
60951W        W30766  13.347  16.730   3.310
60952W        W30767   7.666  36.977  10.480
60953W        W30768   5.690  26.165  11.114
60954W        W30769   9.758  13.677  13.829
60955W        W30770  31.050  25.711  13.348
60956W        W30771  28.076   8.342  12.019
60957W        W30772  34.082  13.130   1.861
60958W        W30773  42.456  22.669   4.337
60959W        W30774  34.601   3.770   3.857
60960W        W30775  33.549  31.064   3.834
60961W        W30776   4.223  20.097  12.857
60962W        W30777  23.200  27.147  14.992
60963W        W30778  33.453  40.976  11.100
60964W        W30779   1.382  18.638  10.550
60965W        W30780  18.231  12.299  13.892
60966W        W30781   1.750  31.900   4.270
60967W        W30782   4.869  23.647  13.986
60968W        W30783  29.509  18.552  12.991
60969W        W30784   8.215  40.025   0.446
60970W        W30785  30.086   7.294   4.261
60971W        W30786   2.757  37.477  10.903
60972W        W30787  13.755  44.502   1.916
60973W        W30788  44.791   0.962  10.953
60974W        W30789  20.141  32.019   4.319
60975W        W30790   4.885  24.578  11.464
60976W        W30791   8.177  13.627  12.449
60977W        W30792  23.532   4.416   0.370
60978W        W30793  31.518   8.315  14.385
60979W        W30794  29.609  19.649  10.641
60980W        W30795  29.140  13.651  12.897
60981W        W30796  44.396  20.232   4.837
60982W        W30797  17.801   8.186  13.319
60983W        W30798  42.957  17.649  11.565
60984W        W30799  15.596   1.305   0.317
60985W        W30800  42.302  41.323   2.735
60986W        W30801   5.714  44.270  13.819
60987W        W30802  42.915  32.599  14.831
60988W        W30803  36.890   5.719   0.377
60989W        W30804  37.020  18.115   0.732
60990W        W30805   3.778  19.226  11.467
60991W        W30806  12.233  18.776   2.265
60992W        W30807   3.424  21.620   3.726
60993W        W30808   0.749  37.466   4.670
60994W        W30809   4.280  11.245   2.873
60995W        W30810  20.228   4.417   3.386
60996W        W30811  42.856  14.227  12.441
60997W        W30812  34.884  36.507  11.437
60998W        W30813   6.869   8.752   2.675
60999W        W30814  44.311  25.638   1.424
61000W        W30815   9.395  23.058  13.835
61001W        W30816  43.271  38.893   3.809
61002W        W30817  17.681  19.613   0.311
61003W        W30818  21.084  10.366  10.967
61004W        W30819  18.581  13.308   0.870
61005W        W30820  44.340  16.591  12.943
61006W        W30821  23.644   6.747  14.823
61007W        W30822  13.299  39.832   3.652
61008W        W30823   8.811  34.082   4.300
61009W        W30824  29.008  30.081   3.713
61010W        W30825  22.570   7.279   0.263
61011W        W30826  15.259  25.170  12.497
61012W        W30827  26.993   2.901  10.411
61013W        W30828  22.083  10.353   0.860
61014W        W30829  43.437   2.937  11.984
61015W        W30830  44.973  35.590  11.039
61016W        W30831  20.761  25.003   2.362
61017W        W30832  31.022  41.311   4.752
61018W        W30833   2.307  26.677   3.340
61019W        W30834  34.959  31.471   0.385
61020W        W30835  27.035  35.953   5.204
61021W        W30836   7.305  37.464  10.483
61022W        W30837  24.107  21.189   5.197
61023W        W30838  26.550   8.708   2.237
61024W        W30839   2.933  32.064   0.406
61025W        W30840  40.855  44.429   3.368
61026W        W30841  10.194  27.685   1.893
61027W        W30842   9.736  22.030  11.473
61028W        W30843  17.787  39.924   3.641
61029W        W30844   7.714   3.370  12.002
61030W        W30845  23.117  12.352  12.051
61031W        W30846   4.744  41.475   0.760
61032W        W30847  29.092  33.605   3.212
61033W        W30848  31.453   3.453  10.443
61034W        W30849  24.662  36.995   2.772
61035W        W30850   0.931  21.164  13.539
61036W        W30851  30.127  30.457  13.376
61037W        W30852  32.579  36.951  12.442
61038W        W30853  17.751  12.123  13.450
61039W        W30854  22.187  12.220  11.539
61040W        W30855  26.573   3.839  14.505
61041W        W30856  34.004  14.244  11.895
61042W        W30857  12.346  17.196   1.246
61043W        W30858  29.974  21.585   0.443
61044W        W30859  26.506   1.373   4.298
61045W        W30860   1.362  35.410  14.322
61046W        W30861  38.440  35.048   2.395
61047W        W30862  27.040   9.807  12.921
61048W        W30863  18.663  27.676   2.393
61049W        W30864  24.134  27.676   0.252
61050W        W30865  35.105  16.263   2.207
61051W        W30866   9.168  42.918  14.017
61052W        W30867  43.868  22.199   4.183
61053W        W30868  10.321  38.421   3.730
61054W        W30869  23.158  15.184   1.235
61055W        W30870   7.298  41.455  10.577
61056W        W30871  41.806   3.246  12.008
61057W        W30872  44.881   7.359   0.811
61058W        W30873   2.471   3.846  10.625
61059W        W30874  21.174  39.994   0.253
61060W        W30875   1.901  31.094   2.855
61061W        W30876  25.689  15.703   4.254
61062W        W30877  12.212  14.128   4.124
61063W        W30878   0.487  11.220   4.767
61064W        W30879  31.896  28.021   1.283
61065W        W30880  26.030  32.922  12.932
61066W        W30881  10.849  38.437   4.163
61067W        W30882   6.743  37.552  13.326
61068W        W30883   4.864  16.585   2.832
61069W        W30884  20.606  44.341  13.315
61070W        W30885  41.012  11.300  14.400
61071W        W30886   1.884   2.424  14.355
61072W        W30887  35.877  25.677  10.629
61073W        W30888  16.644  31.955  13.441
61074W        W30889  14.103  34.029  13.907
61075W        W30890  31.081  44.898  11.898
61076W        W30891  40.457  33.433  10.509
61077W        W30892   5.737  27.627  13.808
61078W        W30893  43.898  19.563   1.918
61079W        W30894  11.760  41.828  12.384
61080W        W30895  37.892  16.648  12.966
61081W        W30896   9.151   5.914   0.765
61082W        W30897  43.020   3.283   2.693
61083W        W30898  32.392  20.738   3.694
61084W        W30899  16.161  21.725  12.351
61085W        W30900   6.283  14.098  14.378
61086W        W30901  20.669  23.186   1.908
61087W        W30902  22.051  17.280  14.399
61088W        W30903  19.044  32.423  10.425
61089W        W30904   0.956  33.554  14.304
61090W        W30905   3.805  23.574   3.385
61091W        W30906  35.903  17.711  13.414
61092W        W30907  27.513  15.115   2.886
61093W        W30908  18.679  25.635  14.795
61094W        W30909  25.000  14.610   0.961
61095W        W30910  18.278  10.708  13.885
61096W        W30911  25.051   6.884   4.333
61097W        W30912  26.980  44.937   0.760
61098W        W30913   0.379  11.348  11.517
61099W        W30914  44.969  41.986   1.215
61100W        W30915  26.703   4.240  14.962
61101W        W30916  34.578  24.109  11.040
61102W        W30917  35.359   5.402  14.964
61103W        W30918  20.573  26.051   1.842
61104W        W30919  23.735   5.337   0.908
61105W        W30920  12.166  28.521  12.406
61106W        W30921  20.128  38.502   2.241
61107W        W30922  25.064  15.282   1.216
61108W        W30923  38.865  12.202   3.685
61109W        W30924  39.896  41.802  14.285
61110W        W30925   7.225  18.139  12.415
61111W        W30926  35.505   2.808  14.472
61112W        W30927  28.599  15.193  12.484
61113W        W30928  34.436  26.010  14.921
61114W        W30929   2.941  25.019   1.360
61115W        W30930  25.589  38.946  13.981
61116W        W30931  22.637  36.918   4.344
61117W        W30932  12.786   8.179  14.905
61118W        W30933  28.120   3.435   0.332
61119W        W30934  18.623  23.034   3.679
61120W        W30935   1.438  36.381   0.778
61121W        W30936  30.073  41.379   1.320
61122W        W30937  42.357   7.729  13.922
61123W        W30938  38.889  11.194   2.309
61124W        W30939   8.319   0.900  11.532
61125W        W30940  24.105  39.998   3.270
61126W        W30941  42.948  25.521   4.780
61127W        W30942  20.250  33.450   2.253
61128W        W30943  31.408  40.869   4.310
61129W        W30944  12.789  22.080   2.717
61130W        W30945  42.778  34.487   0.302
61131W        W30946   7.391  27.509  13.521
61132W        W30947   5.264  25.634  14.482
61133W        W30948  23.634  12.279   0.741
61134W        W30949  43.825  43.314   1.766
61135W        W30950  27.114  27.025   3.225
61136W        W30951   7.711  35.027  14.924
61137W        W30952  21.103  23.004  13.354
61138W        W30953  19.602  37.355   0.270
61139W        W30954  13.114  40.429  11.940
61140W        W30955  14.774  22.034  12.835
61141W        W30956   5.753   5.230  13.895
61142W        W30957  20.523  40.340  14.814
61143W        W30958   7.351  34.406   1.440
61144W        W30959  38.545  15.090   1.926
61145W        W30960  32.601  14.590   4.835
61146W        W30961  27.983  28.450  10.030
61147W        W30962  22.531  34.899  14.888
61148W        W30963  37.006   7.400   2.197
61149W        W30964  33.999  16.666   3.745
61150W        W30965  12.846  13.750   3.676
61151W        W30966   8.750   3.829  11.967
61152W        W30967  16.592  39.938  14.988
61153W        W30968  24.165  13.316   3.755
61154W        W30969  11.694  20.240   5.083
61155W        W30970  36.430   7.174   9.998
61156W        W30971  11.765  20.751   3.374
61157W        W30972  35.472  35.560   2.807
61158W        W30973  42.815  26.592   1.784
61159W        W30974  18.593  27.465  14.431
61160W        W30975   2.822  25.183  14.390
61161W        W30976   0.320  39.400   4.816
61162W        W30977  40.436  41.939  14.295
61163W        W30978  40.446  35.464   3.646
61164W        W30979  26.512  18.570   4.247
61165W        W30980  36.985  24.592   0.463
61166W        W30981   5.215  23.984  12.341
61167W        W30982  10.346  18.778   3.740
61168W        W30983  14.195  37.412   1.818
61169W        W30984  17.800   1.239   3.348
61170W        W30985  20.620   7.290  12.431
61171W        W30986   2.819  23.196  14.916
61172W        W30987  20.159   6.750  10.458
61173W        W30988  21.705  10.156  12.386
61174W        W30989  39.441  24.621  13.890
61175W        W30990  24.034  30.986  11.066
61176W        W30991  18.141  29.998   3.247
61177W        W30992  33.924  18.142   3.150
61178W        W30993  32.466  35.983   1.731
61179W        W30994   5.707  38.935  13.487
61180W        W30995  41.976  43.435  10.622
61181W        W30996   8.206   3.401   4.143
61182W        W30997  18.225  35.944  12.043
61183W        W30998  29.537  14.682   2.824
61184W        W30999   0.824  33.932   2.365
61185W        W31000  29.588  39.937   0.807
61186W        W31001  26.635  44.411   3.232
61187W        W31002  35.003  41.501  11.532
61188W        W31003  29.582  38.438  14.505
61189W        W31004   1.450  18.293   1.820
61190W        W31005   6.856  15.288  11.097
61191W        W31006  18.067  44.502   1.222
61192W        W31007  25.642  12.298  14.844
61193W        W31008  16.714  42.420  11.912
61194W        W31009  14.821   7.790  13.813
61195W        W31010  35.576  25.628  11.612
61196W        W31011   6.755  32.410  14.791
61197W        W31012  18.611  34.430   4.267
61198W        W31013  12.642  25.691  12.407
61199W        W31014   4.236  18.713   3.773
61200W        W31015   9.394   9.856   1.386
61201W        W31016  19.237  12.281   0.785
61202W        W31017  28.556  18.280  14.883
61203W        W31018   4.229  43.771   3.362
61204W        W31019  23.521  13.610   4.608
61205W        W31020  12.209   0.358  10.643
61206W        W31021  32.140  21.645  11.907
61207W        W31022  29.451  42.409  12.830
61208W        W31023  32.123   8.880  11.499
61209W        W31024  12.233  16.219   3.287
61210W        W31025  12.257  23.167   3.316
61211W        W31026  21.098  41.946  10.913
61212W        W31027  21.094  39.985   9.979
61213W        W31028  25.969  27.595  13.536
61214W        W31029  16.642   6.886   4.820
61215W        W31030  21.238  21.077  13.319
61216W        W31031  34.379  24.491   0.805
61217W        W31032  17.664  29.955  14.774
61218W        W31033  14.187   0.773   2.251
61219W        W31034  26.997  39.318   2.794
61220W        W31035   9.708  11.745  13.518
61221W        W31036   8.742  28.059  11.927
61222W        W31037   1.468   1.451   2.769
61223W        W31038  32.916  25.175   0.766
61224W        W31039  26.521  40.846   3.280
61225W        W31040  14.121   3.231   3.233
61226W        W31041  22.237  33.573   0.461
61227W        W31042  33.626   5.776   3.361
61228W        W31043  36.505   3.456   0.902
61229W        W31044   8.742  10.871  14.767
61230W        W31045  11.824  28.466   0.737
61231W        W31046   9.196  42.987   1.367
61232W        W31047  44.870  37.867  10.607
61233W        W31048  21.142  20.535  10.927
61234W        W31049  31.461  38.889   0.367
61235W        W31050  16.770  43.331  10.580
61236W        W31051  32.955  19.165   1.813
61237W        W31052  21.646  19.702   2.188
61238W        W31053  36.096  28.034   3.809
61239W        W31054  32.550  26.107   3.666
61240W        W31055   6.708  41.007   2.694
61241W        W31056  32.981   3.765  14.927
61242W        W31057  37.026   7.862  11.472
61243W        W31058   4.838  41.939  11.382
61244W        W31059  29.044  18.063   3.773
61245W        W31060   3.266  42.354  12.951
61246W        W31061  16.291  22.221   1.211
61247W        W31062  27.055  17.296  11.422
61248W        W31063   2.956   3.349   2.196
61249W        W31064  20.757  37.428  11.542
61250W        W31065  30.996  17.254   5.152
61251W        W31066  26.466  21.537  14.926
61252W        W31067  25.208  33.395   4.349
61253W        W31068  32.520   6.727   2.234
61254W        W31069  30.417   5.359   4.133
61255W        W31070  27.997  10.240   3.720
61256W        W31071   8.264   7.869   3.207
61257W        W31072   9.314  33.445   1.826
61258W        W31073  41.530  37.940  10.617
61259W        W31074  25.033  38.011  10.077
61260W        W31075   6.803  34.938  10.617
61261W        W31076  28.091   0.337  10.431
61262W        W31077  38.845   6.850  10.409
61263W        W31078   9.681  26.992   1.433
61264W        W31079  29.460   3.776   0.339
61265W        W31080  20.168  41.398  13.832
61266W        W31081  23.164  31.600   1.244
61267W        W31082  33.434   4.295   3.816
61268W        W31083  36.920  44.471  13.827
61269W        W31084  11.738  26.572   1.696
61270W        W31085  16.662  20.723   4.307
61271W        W31086  44.878  11.727   3.254
61272W        W31087  30.548  17.584   3.365
61273W        W31088  26.183  17.064   1.243
61274W        W31089  38.444  10.866  11.593
61275W        W31090   1.254  20.212  14.474
61276W        W31091  26.579  26.586   3.316
61277W        W31092  35.396   4.428  12.344
61278W        W31093   6.368  43.353   2.409
61279W        W31094  19.702  25.649  13.465
61280W        W31095   5.310  18.133   0.892
61281W        W31096  37.886  41.874   4.782
61282W        W31097  41.837  13.327   0.369
61283W        W31098   3.446  13.173   0.845
61284W        W31099  33.016   3.814   0.930
61285W        W31100  12.621  12.149  11.901
61286W        W31101  18.768  27.580   1.353
61287W        W31102  40.546  39.872   0.353
61288W        W31103  12.347  29.142  13.849
61289W        W31104  37.568  27.449  12.020
61290W        W31105  40.334  33.408  12.578
61291W        W31106  44.924  23.724  11.501
61292W        W31107  21.548  20.250  11.993
61293W        W31108  26.456  12.299   5.716
61294W        W31109  12.782  25.099   4.202
61295W        W31110  35.996  21.250  11.056
61296W        W31111  16.703  22.613  10.567
61297W        W31112  21.171  20.728   1.732
61298W        W31113  31.098  19.729  10.928
61299W        W31114   4.848  21.555  11.460
61300W        W31115  17.213  37.883   4.181
61301W        W31116  21.172  43.331   4.733
61302W        W31117  11.802   2.941   2.290
61303W        W31118  22.587   7.780   2.887
61304W        W31119  18.073  16.093   4.252
61305W        W31120   5.779  18.618  11.892
61306W        W31121   6.776  42.328   3.825
61307W        W31122  12.829  11.255  13.989
61308W        W31123  44.402   3.814   4.321
61309W        W31124  39.887  27.018  10.521
61310W        W31125   8.787  33.384   2.198
61311W        W31126  22.601  43.269  11.547
61312W        W31127  16.116   1.274  11.535
61313W        W31128  19.754  28.488   1.362
61314W        W31129   1.340  23.515  14.006
61315W        W31130  22.608  41.342   3.241
61316W        W31131  28.113  27.529  13.472
61317W        W31132   8.246   1.461   3.694
61318W        W31133  30.911  11.202   3.252
61319W        W31134  12.648   7.775   1.868
61320W        W31135  11.142  18.618   3.850
61321W        W31136  43.950  17.597  14.961
61322W        W31137  13.817  23.620   0.901
61323W        W31138  32.118  44.001  13.028
61324W        W31139  35.033  23.060  11.065
61325W        W31140   6.690  13.810   0.445
61326W        W31141  34.893  19.051   3.258
61327W        W31142   6.426  38.383  12.400
61328W        W31143   4.884  23.039  10.896
61329W        W31144  29.517  11.814  11.424
61330W        W31145  27.455   5.842  12.409
61331W        W31146   4.296   4.303  11.429
61332W        W31147  35.508   7.734   0.254
61333W        W31148   1.761  33.416   1.358
61334W        W31149   9.338  24.708  11.115
61335W        W31150  14.135  34.967   2.398
61336W        W31151   6.773  28.126   2.865
61337W        W31152  12.674  16.662  11.910
61338W        W31153  27.088  26.980   3.866
61339W        W31154  33.414   6.303  11.404
61340W        W31155   0.385  22.197   2.688
61341W        W31156  10.242  15.185   0.784
61342W        W31157  17.296  35.064  12.089
61343W        W31158  43.776  39.489  11.082
61344W        W31159  24.148  22.148   1.260
61345W        W31160  43.835  29.987  14.974
61346W        W31161  33.543  42.312   4.771
61347W        W31162  31.611  35.089  10.475
61348W        W31163  11.318   9.326   2.831
61349W        W31164  12.778  43.418  14.839
61350W        W31165  36.849  23.138   0.775
61351W        W31166  15.099  28.543   3.807
61352W        W31167  41.819   6.858   3.186
61353W        W31168  24.628  30.057  13.546
61354W        W31169   7.732  27.462   4.214
61355W        W31170   3.732   5.923  11.541
61356W        W31171  43.422  36.851  12.039
61357W        W31172   0.400  28.111   1.369
61358W        W31173  33.476   2.439   2.350
61359W        W31174  21.251  33.916   2.400
61360W        W31175   7.308  31.073  12.977
61361W        W31176   7.409  26.029  11.569
61362W        W31177  17.207  41.468   4.693
61363W        W31178   0.879  23.730  12.867
61364W        W31179   9.781  20.052   4.333
61365W        W31180   4.265  12.262  12.973
61366W        W31181  12.239  16.647  12.438
61367W        W31182  31.565  30.557  11.989
61368W        W31183  19.128  33.943   0.297
61369W        W31184  19.760  27.585  10.602
61370W        W31185  22.618  22.528   2.313
61371W        W31186  27.100   3.860  11.533
61372W        W31187  24.116  27.109  12.957
61373W        W31188  34.474  35.592  12.398
61374W        W31189  18.662   3.359   2.285
61375W        W31190   2.764  30.000  14.394
61376W        W31191   1.864  33.898   4.681
61377W        W31192  43.356  27.526   4.619
61378W        W31193   0.295   5.902   3.190
61379W        W31194  35.586  37.372  12.886
61380W        W31195  28.098  19.574   1.395
61381W        W31196  31.043   5.759   4.289
61382W        W31197  23.001  38.544  11.450
61383W        W31198  24.127   7.406   4.213
61384W        W31199  20.075  31.940  12.937
61385W        W31200  29.454  31.095   4.814
61386W        W31201   3.252  34.869  13.888
61387W        W31202  39.028  22.646  12.838
61388W        W31203  31.090  29.955  12.996
61389W        W31204   3.937  29.025  11.446
61390W        W31205  36.367  13.267   1.780
61391W        W31206  32.444   4.836  14.025
61392W        W31207  15.134  36.365  11.015
61393W        W31208  11.155  12.668   2.297
61394W        W31209  14.825  19.662  12.077
61395W        W31210  17.634  38.912  12.341
61396W        W31211  27.053  15.694  12.373
61397W        W31212  40.512  26.971  12.426
61398W        W31213  36.418  39.400  11.114
61399W        W31214  42.821  26.525  13.911
61400W        W31215  19.779  43.834   4.271
61401W        W31216  18.668  27.033  14.005
61402W        W31217  17.185  29.956   1.912
61403W        W31218   0.405   6.279  14.790
61404W        W31219   6.827  20.582  10.624
61405W        W31220  30.461  38.467   4.804
61406W        W31221  21.229   2.889   4.798
61407W        W31222  19.194  29.979  12.361
61408W        W31223  19.262   2.759  13.799
61409W        W31224  16.792  35.871   4.336
61410W        W31225   7.807  15.810  12.977
61411W        W31226  26.564   5.409   2.394
61412W        W31227  12.758  24.642   0.270
61413W        W31228   6.697   4.847   4.785
61414W        W31229  22.611  29.521  12.875
61415W        W31230  13.759  17.783   3.701
61416W        W31231  26.536  32.452   0.282
61417W        W31232  27.682  29.501  10.996
61418W        W31233  28.082  31.409   2.268
61419W        W31234  20.169  22.090  14.503
61420W        W31235   7.200  25.167   3.351
61421W        W31236   2.292  30.053  12.011
61422W        W31237  25.677  11.159  12.547
61423W        W31238  13.621  19.772  14.514
61424W        W31239   1.910  12.144  12.932
61425W        W31240  13.164  17.123  12.988
61426W        W31241  22.069  10.291   2.836
61427W        W31242  22.245  12.754   3.288
61428W        W31243   6.895   6.320   1.298
61429W        W31244  41.973   9.150   3.163
61430W        W31245  10.841   5.921   0.395
61431W        W31246  24.173  32.065  11.968
61432W        W31247  12.281   7.691   4.616
61433W        W31248  21.053  31.108  14.906
61434W        W31249  34.893  34.878  13.970
61435W        W31250  42.031   9.158   0.768
61436W        W31251  19.141  41.536  12.988
61437W        W31252   6.404  28.114  10.634
61438W        W31253  39.004  10.269  14.365
61439W        W31254  32.616   6.826   2.796
61440W        W31255  24.181  22.742  13.465
61441W        W31256  33.553  42.443   3.725
61442W        W31257  33.071  44.370   1.815
61443W        W31258   6.761   3.774   4.284
61444W        W31259  29.922  28.537  14.874
61445W        W31260  20.757  28.043   3.685
61446W        W31261   8.842  10.871   4.836
61447W        W31262   1.284  29.654  11.113
61448W        W31263  21.239  24.131  11.957
61449W        W31264  35.020   7.310   1.857
61450W        W31265   7.244  40.484  10.916
61451W        W31266  44.453  30.417  14.414
61452W        W31267   4.904   4.334  13.880
61453W        W31268  19.210   9.226   2.274
61454W        W31269   1.267  42.281  10.611
61455W        W31270  38.825  41.983   0.475
61456W        W31271  25.041  12.691   1.761
61457W        W31272  24.568  36.908   3.646
61458W        W31273  26.979   6.787   4.711
61459W        W31274  19.576  26.971   3.345
61460W        W31275  17.687   9.315  12.932
61461W        W31276  20.667  12.745  10.601
61462W        W31277  14.337  34.456   1.276
61463W        W31278  16.201  15.780   2.185
61464W        W31279  29.062  32.397  12.535
61465W        W31280  43.359  17.147   1.255
61466W        W31281  11.788  38.353   2.321
61467W        W31282   1.898  29.490   1.898
61468W        W31283  33.899  12.815  13.833
61469W        W31284  30.930  12.762   3.682
61470W        W31285  11.670  34.401  13.811
61471W        W31286  44.480  36.920  12.362
61472W        W31287  28.167  43.349   2.306
61473W        W31288   6.824  16.735  10.407
61474W        W31289  25.163  37.355  13.444
61475W        W31290  30.481  44.754   4.284
61476W        W31291   0.835  25.659  10.933
61477W        W31292  33.489  40.304  12.412
61478W        W31293  13.691  19.117  14.822
61479W        W31294  37.080  11.262   1.411
61480W        W31295   9.235  23.985  12.511
61481W        W31296  31.543  28.025   0.331
61482W        W31297  12.182  29.436  13.530
61483W        W31298  13.731  36.854  10.981
61484W        W31299  19.195  33.017   4.756
61485W        W31300   8.316  13.831   0.945
61486W        W31301   2.414   1.400  11.512
61487W        W31302  11.205  28.113   0.923
61488W        W31303  39.361  44.847   0.339
61489W        W31304  18.221  12.731  12.899
61490W        W31305   1.361  35.938  14.998
61491W        W31306  20.761   9.374  12.957
61492W        W31307  14.643   9.694   4.620
61493W        W31308  23.673  27.482   1.782
61494W        W31309  42.895  42.929   4.816
61495W        W31310  36.404  31.493  12.953
61496W        W31311  14.110  13.683  12.823
61497W        W31312   2.759  30.422  10.571
61498W        W31313  27.081  42.404  12.845
61499W        W31314  17.089  44.931   4.768
61500W        W31315  38.414  14.260   0.843
61501W        W31316  39.061  16.139  10.481
61502W        W31317  34.387  40.544   2.345
61503W        W31318   0.304   5.836   4.295
61504W        W31319  15.305  34.610  13.886
61505W        W31320  24.689  41.467  12.491
61506W        W31321  28.019  18.063   2.194
61507W        W31322  22.570  33.008  10.491
61508W        W31323   7.219  15.324   3.212
61509W        W31324  31.486  33.448  11.480
61510W        W31325  39.362  32.909  14.414
61511W        W31326   2.808  12.287  10.430
61512W        W31327  21.703  27.625   2.194
61513W        W31328  40.880   5.740   4.178
61514W        W31329  19.700  38.458  12.548
61515W        W31330  20.055  27.081   3.202
61516W        W31331  11.242  12.117  12.470
61517W        W31332   6.253  11.838  12.521
61518W        W31333  16.160  24.994   3.170
61519W        W31334  43.362  27.456  11.869
61520W        W31335  22.563   5.900  11.050
61521W        W31336  39.910  16.794  11.501
61522W        W31337  30.933  29.557  10.509
61523W        W31338  16.261  25.037  11.037
61524W        W31339  42.923  36.539   4.270
61525W        W31340  44.327  15.630   9.972
61526W        W31341  11.729  26.202  13.380
61527W        W31342  22.165  23.685   4.838
61528W        W31343  10.270  17.112  12.474
61529W        W31344  19.565  32.062   0.481
61530W        W31345   4.734   0.900   4.633
61531W        W31346  35.016   6.686  11.964
61532W        W31347   6.841  29.935   0.421
61533W        W31348   3.935  35.439   2.824
61534W        W31349  35.957  15.150   1.768
61535W        W31350   4.794   2.382   5.203
61536W        W31351  37.019  42.860  11.062
61537W        W31352  23.991  21.718   2.282
61538W        W31353  25.485  24.643  12.889
61539W        W31354  34.612  44.885  14.880
61540W        W31355  32.635  33.916   4.693
61541W        W31356  22.562  12.719  11.546
61542W        W31357  12.713   4.774  14.005
61543W        W31358  29.567  15.644   3.157
61544W        W31359   3.281  26.986   0.363
61545W        W31360  33.590  20.089  13.864
61546W        W31361  32.094   1.803  13.413
61547W        W31362   1.398  16.175   2.705
61548W        W31363   6.370  13.201   4.730
61549W        W31364  36.518  37.508  11.544
61550W        W31365  12.678  24.189   3.297
61551W        W31366  30.580  12.644  14.868
61552W        W31367  14.199  33.128  12.460
61553W        W31368  16.255  41.955   1.214
61554W        W31369  23.515  24.162  12.531
61555W        W31370   0.887   0.336  12.483
61556W        W31371  21.529  30.557   1.374
61557W        W31372   4.850  16.204  14.012
61558W        W31373  38.874  27.066  11.047
61559W        W31374  18.720  22.021  11.938
61560W        W31375  30.605  23.128  13.996
61561W        W31376  20.071  27.943  12.880
61562W        W31377  25.025  12.788  13.315
61563W        W31378  35.489  11.186   4.173
61564W        W31379  25.697  28.029  11.473
61565W        W31380   9.796  25.540   4.708
61566W        W31381  22.214  43.500   3.200
61567W        W31382  28.625  10.348  14.775
61568W        W31383   0.966   2.402   1.363
61569W        W31384  34.369   3.843  12.379
61570W        W31385  40.011  20.054  14.969
61571W        W31386  24.542   9.698   0.436
61572W        W31387   8.267  32.623   1.739
61573W        W31388  40.338  25.083   4.343
61574W        W31389  17.589  18.266  13.953
61575W        W31390  32.962  34.578   3.745
61576W        W31391  20.035  34.535  12.897
61577W        W31392  22.179  35.453   0.452
61578W        W31393  31.982   9.730   3.845
61579W        W31394  16.120  16.753   4.332
61580W        W31395  13.234  23.066  11.521
61581W        W31396  40.837  44.951  14.857
61582W        W31397  15.784  43.856  12.948
61583W        W31398  10.182  31.000  12.874
61584W        W31399  31.648   2.439   1.248
61585W        W31400  33.453  15.623   0.417
61586W        W31401  17.595  42.873  12.456
61587W        W31402  31.529  20.179   4.270
61588W        W31403  33.387   1.388  12.372
61589W        W31404   3.882  39.951   0.737
61590W        W31405  42.928  26.047  10.447
61591W        W31406  20.129  22.739   1.752
61592W        W31407  17.774  44.782   1.302
61593W        W31408  11.284  15.788   2.310
61594W        W31409  32.419  42.820   4.637
61595W        W31410  26.569  34.538   4.680
61596W        W31411  36.066  32.588  14.806
61597W        W31412  35.534   3.254   4.132
61598W        W31413  38.883  32.022   1.883
61599W        W31414  21.147   9.161   2.890
61600W        W31415   4.902   4.284   3.361
61601W        W31416  34.075   3.391  10.971
61602W        W31417  36.851  32.917  14.902
61603W        W31418  36.362  35.375  12.978
61604W        W31419  35.992  23.017   2.850
61605W        W31420  44.856  15.758   1.886
61606W        W31421   1.319   5.358  13.512
61607W        W31422  32.446  33.024   0.937
61608W        W31423  18.170  24.554   2.402
61609W        W31424  14.229  16.220   2.262
61610W        W31425  12.771   3.820  12.019
61611W        W31426   9.783   8.838   4.768
61612W        W31427  21.095  30.106   1.696
61613W        W31428  38.367  29.567   3.317
61614W        W31429  41.370  42.887   0.730
61615W        W31430  30.440  32.483   3.741
61616W        W31431  15.177  39.539  14.280
61617W        W31432  36.915  12.304  14.507
61618W        W31433   3.436  22.212  11.923
61619W        W31434  27.961  37.498  12.929
61620W        W31435  33.076  11.868  13.060
61621W        W31436  23.993   0.307  14.867
61622W        W31437  11.675  42.514   1.381
61623W        W31438   0.944   9.241  13.396
61624W        W31439  36.467  15.647   1.220
61625W        W31440  39.860  44.815   0.282
61626W        W31441  37.989   7.295  11.096
61627W        W31442  24.509  11.790   0.783
61628W        W31443  31.937  30.945   0.761
61629W        W31444  25.989  27.684  12.852
61630W        W31445  14.624  37.011  11.079
61631W        W31446  17.114   5.386   4.820
61632W        W31447  33.404  26.491  11.413
61633W        W31448  11.734  28.491   3.708
61634W        W31449  33.420  28.170   2.664
61635W        W31450  36.864  35.012   0.252
61636W        W31451  15.808  38.405   4.767
61637W        W31452  29.031  34.549   3.631
61638W        W31453   6.410   2.275   0.454
61639W        W31454  20.589  11.640   4.795
61640W        W31455  36.558  21.551  12.949
61641W        W31456   7.335   3.786  11.961
61642W        W31457  36.935  21.029  14.020
61643W        W31458  28.173  19.119  14.858
61644W        W31459  40.524  10.675   2.898
61645W        W31460  18.628   9.348   4.765
61646W        W31461  40.449   4.834   2.208
61647W        W31462  13.166  25.057   5.304
61648W        W31463  17.091  35.483   0.469
61649W        W31464  19.710   6.395   2.716
61650W        W31465  11.210  44.877  13.512
61651W        W31466  11.666   7.198   0.244
61652W        W31467   4.908  24.151  11.427
61653W        W31468   9.354  28.460   0.768
61654W        W31469  19.141  18.741  12.086
61655W        W31470  21.584  21.532   0.335
61656W        W31471   9.812  10.144  11.611
61657W        W31472  37.967  34.551   4.623
61658W        W31473  37.910   4.236   3.643
61659W        W31474  25.042  15.208   3.182
61660W        W31475  14.654  14.285  12.449
61661W        W31476  32.990  41.895  12.889
61662W        W31477  28.456  22.052  13.962
61663W        W31478  32.405  38.489  14.885
61664W        W31479  13.731   2.812   4.750
61665W        W31480  34.114  33.002   4.144
61666W        W31481  20.245  35.020   4.158
61667W        W31482  32.528  27.613  11.480
61668W        W31483  30.142  27.138  13.483
61669W        W31484  10.703  31.936   3.262
61670W        W31485   5.855  16.657   0.303
61671W        W31486  14.816   6.778   2.833
61672W        W31487   6.694   9.685   1.764
61673W        W31488   6.789  10.685  10.479
61674W        W31489   4.215  16.697  12.037
61675W        W31490  38.442  29.579   4.184
61676W        W31491  41.812  17.566  13.404
61677W        W31492  14.610  42.930   5.085
61678W        W31493  34.579  23.688   0.946
61679W        W31494   9.698  12.769   3.150
61680W        W31495  41.394  36.899  14.810
61681W        W31496  31.420  42.016  11.432
61682W        W31497  13.257  19.250  10.592
61683W        W31498  17.199  24.205   3.766
61684W        W31499  20.566  31.554   2.821
61685W        W31500   2.858  37.455  14.360
61686W        W31501   0.315  24.621  11.486
61687W        W31502  19.276  44.261  10.474
61688W        W31503  21.612  14.628   2.890
61689W        W31504  32.040  13.733   0.874
61690W        W31505  39.985  21.610   1.372
61691W        W31506  11.144  26.204  12.948
61692W        W31507  33.529   2.784  14.926
61693W        W31508  24.987   8.396  10.644
61694W        W31509  41.469  33.944   2.297
61695W        W31510   5.372  20.081   3.652
61696W        W31511  32.054  32.017  13.019
61697W        W31512  15.657   7.889   3.198
61698W        W31513  29.998   9.882   2.678
61699W        W31514   3.371   2.326  13.401
61700W        W31515  24.587  27.079  12.979
61701W        W31516  27.601  12.840   0.290
61702W        W31517   4.715  22.144   1.820
61703W        W31518  18.690  32.431  13.023
61704W        W31519  16.616  31.146  14.876
61705W        W31520  32.029  10.146   0.343
61706W        W31521   3.889  15.273  10.626
61707W        W31522  29.528  34.068  12.361
61708W        W31523  33.516  11.195   3.201
61709W        W31524  12.124   6.904   0.372
61710W        W31525  14.640  44.945  11.110
61711W        W31526   4.755   1.443   0.941
61712W        W31527  31.091  42.372   0.823
61713W        W31528  28.595  37.443  11.514
61714W        W31529  39.388  27.062  14.970
61715W        W31530  25.117  32.905   0.801
61716W        W31531  16.728   3.901   3.231
61717W        W31532  25.140  18.693   0.454
61718W        W31533  17.159  11.856   2.279
61719W        W31534  36.007   6.238   0.326
61720W        W31535  40.920  21.170  14.845
61721W        W31536  12.199   2.883  11.562
61722W        W31537  14.660  29.453  13.527
61723W        W31538  13.340  39.935   3.226
61724W        W31539   6.261  44.813  12.426
61725W        W31540  10.215  11.839  11.437
61726W        W31541  22.079  18.213   2.279
61727W        W31542   5.796   4.344   1.237
61728W        W31543  44.458  42.376   1.741
61729W        W31544  27.646  16.228  14.877
61730W        W31545   6.245   4.307  11.925
61731W        W31546  34.898  31.582   4.764
61732W        W31547  20.077  26.462   3.633
61733W        W31548   9.875   4.228   0.433
61734W        W31549  36.976   4.701  12.482
61735W        W31550   5.807  38.398   4.322
61736W        W31551  14.338  13.607   3.795
61737W        W31552  19.638  18.749   2.732
61738W        W31553  32.477  20.708  13.423
61739W        W31554  44.260  27.557  10.904
61740W        W31555  15.823  24.682   0.941
61741W        W31556  35.544   3.459  11.938
61742W        W31557   4.438  22.657   0.784
61743W        W31558  32.106   9.715   0.350
61744W        W31559  18.567  38.981  10.477
61745W        W31560  39.901  24.686  14.357
61746W        W31561  28.069   6.202  13.024
61747W        W31562  14.631  18.120  13.499
61748W        W31563  15.303  44.910  14.834
61749W        W31564  14.656   6.888   3.694
61750W        W31565  13.314  37.562  12.866
61751W        W31566  27.047  10.823  13.408
61752W        W31567  29.029  23.505  11.904
61753W        W31568   1.738  40.020   1.878
61754W        W31569  44.485   2.307  14.004
61755W        W31570  25.591  13.287  14.993
61756W        W31571  41.838  13.192  10.597
61757W        W31572  26.120  14.607   4.667
61758W        W31573   0.461  34.602  13.970
61759W        W31574  30.081   2.839   2.240
61760W        W31575  39.868  24.560   3.816
61761W        W31576  38.988   1.287  10.570
61762W        W31577  13.133   7.268  13.327
61763W        W31578   0.966  16.097   4.818
61764W        W31579  23.646  38.034  13.338
61765W        W31580  14.667   5.430   3.230
61766W        W31581  25.509  32.026   1.345
61767W        W31582  10.632  33.551   3.707
61768W        W31583  13.714  13.741   3.239
61769W        W31584  13.201  22.665   0.278
61770W        W31585   3.739  38.343   2.719
61771W        W31586   3.264  21.716  10.457
61772W        W31587  26.076   7.326  13.352
61773W        W31588  31.465  43.785   4.676
61774W        W31589   7.830  11.635   1.309
61775W        W31590  42.395  14.791  12.045
61776W        W31591  41.791  24.080  14.012
61777W        W31592   8.275  36.067   1.394
61778W        W31593  28.973  35.414  14.838
61779W        W31594  38.365  14.329   2.677
61780W        W31595  20.717  40.026  11.035
61781W        W31596  27.507  15.799   1.401
61782W        W31597  21.707  34.449   3.781
61783W        W31598   2.914  26.637   3.280
61784W        W31599  23.228  29.990  13.847
61785W        W31600  42.322  35.492  11.467
61786W        W31601  31.411  41.855   0.798
61787W        W31602  27.663  12.666   1.308
61788W        W31603  16.216  34.407   2.781
61789W        W31604  40.827  26.633   2.182
61790W        W31605  36.944  39.554  14.971
61791W        W31606  41.872  29.106   2.793
61792W        W31607   2.747  26.512  10.515
61793W        W31608   3.447  18.114   2.746
61794W        W31609   5.328  25.496   4.816
61795W        W31610  36.920  17.201   0.343
61796W        W31611   7.405  19.582   0.340
61797W        W31612  22.602  39.882   1.386
61798W        W31613  28.673  43.487   1.360
61799W        W31614  11.779  10.815   1.901
61800W        W31615  31.104  10.745   3.771
61801W        W31616  28.059  19.746   0.727
61802W        W31617  19.727  32.436  12.882
61803W        W31618  31.597  32.988  11.876
61804W        W31619  26.522  39.352   2.790
61805W        W31620  38.855  25.511   3.661
61806W        W31621  24.121  11.756   1.742
61807W        W31622  30.162  11.694  13.320
61808W        W31623  24.008  17.585  12.488
61809W        W31624  42.789  43.783   4.233
61810W        W31625  21.197  43.312  14.988
61811W        W31626  40.805  26.118   0.903
61812W        W31627   1.908  20.656   1.299
61813W        W31628   6.388  25.548  10.590
61814W        W31629  26.467   5.415  10.603
61815W        W31630  34.466  35.859   4.686
61816W        W31631  25.678  19.121  14.365
61817W        W31632  31.076  32.446  12.034
61818W        W31633  43.860   0.427  10.624
61819W        W31634  35.908  38.567   1.845
61820W        W31635  17.165  14.607   3.691
61821W        W31636  14.313   1.365  12.011
61822W        W31637  40.950  23.207   1.334
61823W        W31638  30.592  17.131   0.760
61824W        W31639  30.144   4.225   2.697
61825W        W31640  19.263  21.035  11.518
61826W        W31641  13.675  10.810   3.265
61827W        W31642  24.625  37.416  13.392
61828W        W31643  14.764  40.302  11.938
61829W        W31644   2.866   3.893   1.798
61830W        W31645  36.895  29.592   0.748
61831W        W31646  17.214  18.592  14.289
61832W        W31647  27.140  24.186  11.550
61833W        W31648   5.847  13.135  11.878
61834W        W31649  19.201  27.635   3.757
61835W        W31650   5.431  32.596   4.139
61836W        W31651  36.998  28.647   3.166
61837W        W31652  27.665  15.715  10.421
61838W        W31653  29.650  18.753   4.176
61839W        W31654   6.803  28.987   3.747
61840W        W31655  26.598  35.980   3.323
61841W        W31656   5.762  20.716  10.427
61842W        W31657   6.308  28.485  13.808
61843W        W31658   5.808  37.430  12.057
61844W        W31659   1.929  15.149   1.436
61845W        W31660  12.122  22.566   0.731
61846W        W31661  37.380  35.602  14.291
61847W        W31662  23.732  38.539  13.955
61848W        W31663  41.316  26.608   2.750
61849W        W31664   4.208  40.383   0.954
61850W        W31665  41.973  39.502  10.909
61851W        W31666  44.439  13.698   4.212
61852W        W31667  19.119  36.017   2.274
61853W        W31668  36.849  37.352  10.940
61854W        W31669  31.974  18.666   0.262
61855W        W31670  21.544  36.593   3.229
61856W        W31671  31.071  39.516   0.271
61857W        W31672   3.328  35.430   2.212
61858W        W31673  16.197  23.197  14.503
61859W        W31674  39.816  20.709  14.302
61860W        W31675  43.495  16.752  14.830
61861W        W31676  35.581  25.002  13.454
61862W        W31677   8.394   3.942  12.367
61863W        W31678  38.402  18.257   1.913
61864W        W31679   9.875  34.964   1.349
61865W        W31680  20.644  33.497  11.465
61866W        W31681  28.960   1.742   3.273
61867W        W31682  41.329  36.503   1.214
61868W        W31683  29.496  32.935   3.635
61869W        W31684  12.150  31.557   0.795
61870W        W31685  41.397  21.189   4.702
61871W        W31686  42.910  12.229  14.346
61872W        W31687  42.997  42.290  14.775
61873W        W31688   6.231   2.431   3.808
61874W        W31689  17.573   2.816   4.603
61875W        W31690   5.925   0.343   1.406
61876W        W31691  19.555  27.179   0.891
61877W        W31692  17.590  43.322  11.091
61878W        W31693  27.977  26.004  14.443
61879W        W31694  12.219   8.167   2.213
61880W        W31695  28.477  17.672   4.298
61881W        W31696  25.969  14.634   2.188
61882W        W31697  14.232  44.376  11.540
61883W        W31698   9.379  22.068  10.551
61884W        W31699   8.864  28.076   3.364
61885W        W31700  43.490  37.464   0.909
61886W        W31701  38.409  44.903  11.468
61887W        W31702  40.411  38.386  13.440
61888W        W31703  21.729  33.466   4.825
61889W        W31704   1.404  26.537   3.869
61890W        W31705   0.900   2.944  10.607
61891W        W31706  13.117   4.378   2.796
61892W        W31707  13.703  39.454  13.505
61893W        W31708   6.254   9.748   1.842
61894W        W31709  13.229  16.191  13.449
61895W        W31710   3.419  36.569   2.784
61896W        W31711  25.649  42.809  14.500
61897W        W31712  29.029  43.507   0.400
61898W        W31713  27.187  33.880  14.879
61899W        W31714   2.235  20.569  11.420
61900W        W31715   4.433  32.453   3.171
61901W        W31716   3.300  16.731   2.737
61902W        W31717  39.455  16.764  11.957
61903W        W31718   9.877  43.911  10.919
61904W        W31719  34.455  26.689   3.768
61905W        W31720  24.030  36.419  11.951
61906W        W31721  40.427   6.206   4.353
61907W        W31722   9.297  43.974   2.807
61908W        W31723   9.244  43.492  13.815
61909W        W31724   3.348  20.603   0.275
61910W        W31725  22.100  14.329   0.371
61911W        W31726  20.557   5.430   2.795
61912W        W31727  19.102   0.334   1.449
61913W        W31728  17.069  41.810  12.927
61914W        W31729  37.511  20.709  14.465
61915W        W31730  36.476  17.624  12.396
61916W        W31731  32.111  34.059  10.969
61917W        W31732  37.362  16.568   0.755
61918W        W31733   0.284  10.858   2.739
61919W        W31734  13.276  12.795   4.216
61920W        W31735  34.607  13.194  10.586
61921W        W31736   3.281  31.486   4.821
61922W        W31737  19.082   8.824  12.374
61923W        W31738  25.070  31.085   2.366
61924W        W31739  10.319  14.730   1.442
61925W        W31740  20.630   0.367   2.790
61926W        W31741   6.184  26.080  13.926
61927W        W31742  42.971  39.358  13.882
61928W        W31743  21.741  34.991  13.388
61929W        W31744  18.661   5.211   0.280
61930W        W31745  29.517  10.302   1.906
61931W        W31746  25.197  24.198   1.865
61932W        W31747  34.873  12.339   2.223
61933W        W31748  22.067  38.534   4.772
61934W        W31749   0.450  28.078  12.843
61935W        W31750  43.963   6.896  14.309
61936W        W31751  28.659  28.159   3.845
61937W        W31752  28.663  26.584  14.344
61938W        W31753  24.542  14.301   3.786
61939W        W31754  21.234  29.572   4.685
61940W        W31755  40.926   8.877  14.016
61941W        W31756   4.742   8.210  10.063
61942W        W31757  43.855  17.584   3.226
61943W        W31758  29.512   1.944   2.759
61944W        W31759  14.713  42.495  11.026
61945W        W31760  43.455   0.365  11.568
61946W        W31761  40.981  23.695  13.053
61947W        W31762  30.983  38.430   0.320
61948W        W31763  18.273   7.338   4.837
61949W        W31764  42.399  26.133   4.625
61950W        W31765   6.303  27.682  12.489
61951W        W31766  15.665  12.265   2.239
61952W        W31767  26.683  28.453  14.419
61953W        W31768  26.198  17.763  14.276
61954W        W31769   2.290  17.200  12.051
61955W        W31770   7.669  31.470   0.245
61956W        W31771  38.518  25.115  12.907
61957W        W31772  32.483  37.941  12.366
61958W        W31773  39.959  13.296  11.100
61959W        W31774  26.995  31.931   0.840
61960W        W31775  21.170  29.093  10.638
61961W        W31776  11.687   2.964   3.299
61962W        W31777   4.716   2.963   0.906
61963W        W31778  39.515  23.075  10.536
61964W        W31779  13.776  33.967  14.814
61965W        W31780  15.773  32.077   4.624
61966W        W31781  16.798  24.719  13.533
61967W        W31782  21.065  33.999  14.762
61968W        W31783  24.219  11.779   1.283
61969W        W31784  12.236   2.753  14.454
61970W        W31785  37.379  33.000   3.802
61971W        W31786  37.838  12.207  12.827
61972W        W31787  21.535  15.216  11.105
61973W        W31788  38.066  41.871   1.808
61974W        W31789  42.417  39.403  14.479
61975W        W31790   7.771  13.680  13.869
61976W        W31791  38.837  15.225  12.407
61977W        W31792  28.499   2.926   1.315
61978W        W31793  15.643  37.023   0.931
61979W        W31794  22.608  43.496  14.424
61980W        W31795   6.843  14.117   2.307
61981W        W31796  34.615  42.965  14.885
61982W        W31797  31.433  18.140   3.788
61983W        W31798  34.914  17.071  12.945
61984W        W31799  21.692  13.222  14.382
61985W        W31800   8.354  28.660  11.956
61986W        W31801  13.624  33.990  13.010
61987W        W31802  44.753   2.250  13.361
61988W        W31803   6.276   3.315  11.541
61989W        W31804  16.777  40.493   3.710
61990W        W31805  18.285  37.394   0.826
61991W        W31806  44.887  14.765  10.592
61992W        W31807  43.977   0.485  14.864
61993W        W31808  38.366  20.638  12.417
61994W        W31809  17.654  28.602  13.375
61995W        W31810  12.699   8.814  12.897
61996W        W31811  25.579  22.699  12.372
61997W        W31812  14.621   2.880   4.337
61998W        W31813  44.801  35.095   0.889
61999W        W31814   1.417  19.778   3.175
62000W        W31815  15.298  33.017  10.630
62001W        W31816  17.208  43.805   4.335
62002W        W31817  33.508   5.383  10.628
62003W        W31818   8.716  10.704   1.344
62004W        W31819  31.574  27.063  10.890
62005W        W31820  13.735  33.032  11.024
62006W        W31821  29.587   3.365   3.677
62007W        W31822   3.852  20.091  13.001
62008W        W31823  16.283  40.822   0.862
62009W        W31824  41.367  27.465  14.444
62010W        W31825  41.538  42.926   3.176
62011W        W31826  18.294   0.924   3.271
62012W        W31827  31.443  44.299  11.542
62013W        W31828  24.503   5.919   2.192
62014W        W31829  12.753  12.844  13.979
62015W        W31830  31.142  15.135   2.308
62016W        W31831  12.250  20.200  11.485
62017W        W31832  11.284  29.643   2.771
62018W        W31833  18.765  25.656   3.288
62019W        W31834   9.335  24.524  11.421
62020W        W31835  35.863  23.237   0.395
62021W        W31836  28.454  30.097   0.958
62022W        W31837  19.268   6.787   1.433
62023W        W31838   8.332  34.543   4.834
62024W        W31839   6.838  20.608  12.863
62025W        W31840  25.145  33.442   3.249
62026W        W31841  34.945  33.022   4.189
62027W        W31842  15.784  34.475  14.388
62028W        W31843   4.207  33.979   2.397
62029W        W31844  39.435  10.280   1.828
62030W        W31845  24.703   4.260  14.808
62031W        W31846  35.055  37.994   4.746
62032W        W31847   9.672   8.676  14.838
62033W        W31848  39.443  38.443  14.481
62034W        W31849  42.831   4.820  12.831
62035W        W31850  31.136  33.588   0.870
62036W        W31851  27.593   4.796   4.177
62037W        W31852  37.451  36.541   3.867
62038W        W31853  11.291  35.523  11.447
62039W        W31854  30.116  13.646   0.277
62040W        W31855  31.039  24.614   2.698
62041W        W31856  10.260  38.543   4.824
62042W        W31857  38.023  30.431   4.807
62043W        W31858  35.974  13.170   4.717
62044W        W31859  39.878  27.548  13.365
62045W        W31860  28.610  35.984  12.569
62046W        W31861  33.901  19.263  14.824
62047W        W31862  41.037  41.851   4.186
62048W        W31863   2.820  21.228  13.391
62049W        W31864  35.597   1.460  11.457
62050W        W31865  40.328  21.707   3.792
62051W        W31866  14.668  38.550  13.986
62052W        W31867  23.573   5.221   1.887
62053W        W31868  30.585  38.475   4.118
62054W        W31869  39.426  38.048  14.869
62055W        W31870  20.027   6.821   3.304
62056W        W31871  22.698  12.759   0.363
62057W        W31872  25.533  16.224  10.936
62058W        W31873   7.680  26.077   4.731
62059W        W31874  25.144  18.742  12.848
62060W        W31875  35.437  11.785  11.857
62061W        W31876  18.697   6.321  12.844
62062W        W31877  26.586  26.506   1.430
62063W        W31878  28.005  32.135  13.824
62064W        W31879  14.225  44.332   0.934
62065W        W31880  19.265  25.086  13.521
62066W        W31881  23.554  21.557  11.483
62067W        W31882  22.634  24.097   2.365
62068W        W31883  20.659   7.764  10.631
62069W        W31884  20.757  27.679   3.673
62070W        W31885  40.886   6.264   1.820
62071W        W31886  18.289  35.454   2.248
62072W        W31887  30.984  10.241   2.265
62073W        W31888  24.638   5.863  13.058
62074W        W31889  25.116  26.507  14.462
62075W        W31890   3.943  10.808  11.469
62076W        W31891  29.617  28.606   4.254
62077W        W31892  42.827   9.207  11.521
62078W        W31893  27.687  39.351  10.578
62079W        W31894  15.131  40.016   0.762
62080W        W31895  33.460   6.684  14.444
62081W        W31896  40.901  11.738   4.711
62082W        W31897  24.536  19.778  11.509
62083W        W31898  41.528  23.498  14.473
62084W        W31899   4.230  14.120   2.249
62085W        W31900  27.476  43.332   1.736
62086W        W31901   3.859  42.475   2.410
62087W        W31902  33.017  21.740  11.945
62088W        W31903   0.387  22.553  14.914
62089W        W31904  42.352  10.289   1.720
62090W        W31905  17.121  16.633   0.768
62091W        W31906  28.087   4.776  10.555
62092W        W31907  33.406  24.131  11.433
62093W        W31908  35.369  34.409   0.433
62094W        W31909  33.456   0.835   0.937
62095W        W31910  38.043  11.298   0.446
62096W        W31911  37.501   3.429   2.714
62097W        W31912  13.667  29.554  10.577
62098W        W31913   5.756  36.967  13.377
62099W        W31914  29.163  37.538  14.825
62100W        W31915  17.690  19.586   3.655
62101W        W31916  32.002  29.962  13.417
62102W        W31917  15.622  13.173   5.271
62103W        W31918  27.583  39.022   2.378
62104W        W31919   3.896  37.849  10.909
62105W        W31920  24.000  19.115  12.352
62106W        W31921  41.308  43.963   4.727
62107W        W31922  15.303  39.545   1.247
62108W        W31923  42.869  28.491   4.168
62109W        W31924  10.215  43.294   0.816
62110W        W31925  20.716  14.759  13.451
62111W        W31926  39.555   8.317   3.239
62112W        W31927  36.501  31.029   1.212
62113W        W31928  16.748  37.027  12.917
62114W        W31929  30.623  35.428   0.464
62115W        W31930  34.581  29.455   4.122
62116W        W31931  23.673  40.843   3.647
62117W        W31932   0.480  34.116   1.918
62118W        W31933   2.400  11.765  14.863
62119W        W31934  11.231   5.707   1.827
62120W        W31935  10.764   8.174  14.800
62121W        W31936  24.095  21.262   1.287
62122W        W31937   6.397   1.794  12.013
62123W        W31938  43.820   4.711   0.769
62124W        W31939  24.527  44.270   1.770
62125W        W31940  36.375  42.440   1.787
62126W        W31941  44.824  30.522  11.961
62127W        W31942  35.949  20.759   0.392
62128W        W31943  41.483   6.818   4.784
62129W        W31944   6.690  13.697   3.208
62130W        W31945   0.387   1.264   4.220
62131W        W31946  13.262   5.215   4.789
62132W        W31947   3.950   0.979   3.823
62133W        W31948  30.459  37.405   0.890
62134W        W31949   0.848  12.721  10.532
62135W        W31950   1.959  41.370   1.238
62136W        W31951   6.247  29.499   4.738
62137W        W31952  10.819  32.957   2.192
62138W        W31953  34.089  34.968  14.961
62139W        W31954  32.402  41.909   1.901
62140W        W31955  13.790   9.319   3.650
62141W        W31956  26.125  27.591   4.816
62142W        W31957  19.763   3.896   1.761
62143W        W31958   6.866  21.707  13.908
62144W        W31959   5.840   9.373   2.754
62145W        W31960   3.935  28.461  11.525
62146W        W31961  14.110  15.616   9.960
62147W        W31962  36.431   0.346  11.542
62148W        W31963   9.694  40.823  11.906
62149W        W31964   5.916  27.153   2.261
62150W        W31965   8.725  28.101   5.134
62151W        W31966  33.533  13.112   5.161
62152W        W31967  17.207   7.879  14.910
62153W        W31968  43.480   0.448   4.136
62154W        W31969  27.636  30.479  13.453
62155W        W31970  19.136  32.472  11.925
62156W        W31971  39.437   5.402  14.348
62157W        W31972  33.446  19.566   3.284
62158W        W31973  15.801  35.400  14.818
62159W        W31974  42.296  19.733   0.950
62160W        W31975  15.795  34.464  11.874
62161W        W31976  30.021   7.325   2.805
62162W        W31977  38.830  29.550   4.831
62163W        W31978  22.032  17.585  13.336
62164W        W31979  44.909  31.979   0.873
62165W        W31980  29.643  38.982  11.025
62166W        W31981  30.060   2.322   3.305
62167W        W31982  17.709   8.357   4.278
62168W        W31983   0.874  43.980  13.430
62169W        W31984  10.674  21.646   4.152
62170W        W31985  19.715  35.500   4.267
62171W        W31986  30.543  44.483   1.408
62172W        W31987   0.279  30.463   0.781
62173W        W31988   9.678  12.683  10.619
62174W        W31989  44.448  11.774   3.846
62175W        W31990   7.765  37.026   2.236
62176W        W31991   3.449   9.835  14.874
62177W        W31992  22.531  17.265  13.827
62178W        W31993  40.344  14.165   3.821
62179W        W31994   9.327   7.676  11.509
62180W        W31995  20.666  13.275   0.467
62181W        W31996  34.873   7.784   3.789
62182W        W31997  41.824  39.833   2.857
62183W        W31998  33.561  43.470  12.080
62184W        W31999   8.381  18.592   3.363
62185W        W32000   1.946  20.639  13.430
62186W        W32001  41.484  33.917  11.063
62187W        W32002  25.544  32.896  13.332
62188W        W32003  29.073   0.749  13.360
62189W        W32004   7.267  10.774  13.047
62190W        W32005  37.472  41.853  11.933
62191W        W32006  22.146   6.415   0.798
62192W        W32007  38.008  24.517  14.924
62193W        W32008  14.109  10.847   4.701
62194W        W32009  33.888  11.852   0.852
62195W        W32010  40.521  13.684   9.467
62196W        W32011  30.124  11.686   1.300
62197W        W32012  34.469   5.766  11.909
62198W        W32013  33.043  43.481   3.849
62199W        W32014  35.859  16.568  13.307
62200W        W32015  33.070  23.696   4.607
62201W        W32016  29.925  31.008  11.458
62202W        W32017  26.585  14.704   3.747
62203W        W32018  14.230  35.370   4.289
62204W        W32019   7.351  31.072   3.819
62205W        W32020   4.207  25.631   0.275
62206W        W32021  25.089  32.917  13.954
62207W        W32022  41.822  34.407  11.097
62208W        W32023   6.866  39.935  14.469
62209W        W32024  36.867   0.986   3.189
62210W        W32025  27.108  14.112   2.324
62211W        W32026  34.953  12.676   2.804
62212W        W32027  26.685  11.141   3.263
62213W        W32028   0.260   6.300   4.772
62214W        W32029   4.743  39.019  14.492
62215W        W32030  17.280  19.268  11.035
62216W        W32031   2.451   9.369   4.765
62217W        W32032   1.404  21.694   2.788
62218W        W32033  21.245  21.581  12.017
62219W        W32034  15.244  37.863   1.781
62220W        W32035  25.106   6.346  10.416
62221W        W32036  32.473   0.312  11.859
62222W        W32037  39.459  44.804  13.510
62223W        W32038  43.445  35.539  13.516
62224W        W32039  36.848  42.986   3.248
62225W        W32040  10.318  13.772   0.848
62226W        W32041  30.024  10.196  12.347
62227W        W32042  34.407  44.494  10.461
62228W        W32043  25.056  25.143  10.501
62229W        W32044  22.020  34.866  11.598
62230W        W32045  35.367  21.103  11.376
62231W        W32046  20.602  37.844  14.445
62232W        W32047  11.354   1.898  11.906
62233W        W32048   4.325   1.377  13.368
62234W        W32049  33.021  25.644   1.823
62235W        W32050  32.017  32.967  13.457
62236W        W32051  41.528   0.400  13.987
62237W        W32052  39.952   9.789  11.889
62238W        W32053  11.303  41.340   2.332
62239W        W32054   1.959  31.437  14.997
62240W        W32055   1.448  41.339   4.774
62241W        W32056  38.068  21.544  11.417
62242W        W32057  18.078  40.520  11.586
62243W        W32058  34.092  23.511   3.827
62244W        W32059  20.241  10.200   1.778
62245W        W32060  42.794  20.618   1.216
62246W        W32061  22.041  40.038   1.764
62247W        W32062   2.868  25.708   2.388
62248W        W32063  13.712  26.204  14.762
62249W        W32064  24.490  41.390  13.483
62250W        W32065  42.347  26.191   4.178
62251W        W32066  14.176  17.245  11.561
62252W        W32067   5.747   0.432  14.006
62253W        W32068  29.482  23.215  14.425
62254W        W32069  29.973  25.538  10.468
62255W        W32070  34.114   1.460  14.473
62256W        W32071  34.492  42.956  11.545
62257W        W32072  33.551  40.935   1.377
62258W        W32073  24.224  43.837   1.882
62259W        W32074  30.005  34.027   4.656
62260W        W32075   4.768   5.753   0.881
62261W        W32076  22.632  37.402   5.204
62262W        W32077  17.770  36.004  13.853
62263W        W32078  27.148   3.280   5.197
62264W        W32079  42.801   0.901   1.293
62265W        W32080  28.950   4.387  12.958
62266W        W32081   5.895  19.166  13.486
62267W        W32082  30.934   0.942  13.398
62268W        W32083  16.576   6.874   0.361
62269W        W32084   0.765  24.602  12.469
62270W        W32085  26.953  42.013   0.251
62271W        W32086   7.250  16.084   4.278
62272W        W32087   4.425  20.209   2.224
62273W        W32088  29.586  12.661   4.298
62274W        W32089  32.028   6.860   0.352
62275W        W32090   2.304  28.604  13.887
62276W        W32091  42.968  10.841   0.868
62277W        W32092  42.913  28.974  14.803
62278W        W32093  33.974  18.227   0.383
62279W        W32094   9.171  12.827  10.540
62280W        W32095  41.919   0.771   0.866
62281W        W32096  27.127  32.612   1.275
62282W        W32097  39.959   5.889  14.396
62283W        W32098  38.975  28.074  14.457
62284W        W32099  22.096   2.868  13.820
62285W        W32100  17.777   5.297   3.778
62286W        W32101  29.646  19.629  11.519
62287W        W32102  13.267  17.767  10.547
62288W        W32103   9.238  20.742   2.841
62289W        W32104  17.570  36.948   1.817
62290W        W32105  22.589  19.221   3.791
62291W        W32106  24.204  25.099  14.808
62292W        W32107  17.150   9.650  14.290
62293W        W32108  42.918  27.095  14.788
62294W        W32109  41.920  22.103   1.436
62295W        W32110  23.652  40.333  12.062
62296W        W32111  31.049  42.820   0.436
62297W        W32112   1.842  40.833   2.875
62298W        W32113  17.102   2.754   0.393
62299W        W32114   9.249   7.846   5.264
62300W        W32115  22.126  28.987   2.384
62301W        W32116  21.097   4.918  13.490
62302W        W32117   6.336  29.050  14.407
62303W        W32118   4.779  21.235   5.176
62304W        W32119  26.164  41.907   3.790
62305W        W32120  15.795   4.785   3.379
62306W        W32121  23.120  27.969  12.415
62307W        W32122  31.897  18.765  10.599
62308W        W32123   4.865  18.764   3.208
62309W        W32124   5.748  28.523   0.358
62310W        W32125  22.132  40.460  13.960
62311W        W32126  18.217  41.812  13.813
62312W        W32127  30.450  38.544   0.397
62313W        W32128   5.303   5.866  11.382
62314W        W32129  38.354   6.195   2.294
62315W        W32130  22.107  43.819   3.694
62316W        W32131   8.743  10.679  14.442
62317W        W32132  11.166   4.290  11.959
62318W        W32133  35.888   9.750  11.889
62319W        W32134  36.353  40.547  14.840
62320W        W32135   0.275   8.722   2.317
62321W        W32136   6.374  21.566   2.691
62322W        W32137  11.867   2.739   2.886
62323W        W32138  24.578   9.785  13.866
62324W        W32139  32.885  11.264   0.751
62325W        W32140  16.630  20.210  13.938
62326W        W32141  31.493  33.966   3.149
62327W        W32142  33.604  22.093  12.059
62328W        W32143  25.571  22.743  12.864
62329W        W32144  22.683  12.117   3.177
62330W        W32145  11.307  11.330  12.450
62331W        W32146   9.272   6.713   0.765
62332W        W32147   0.404  31.424   1.406
62333W        W32148  14.607  35.900   2.831
62334W        W32149  26.493   8.308  10.921
62335W        W32150  41.924  41.792   4.277
62336W        W32151  23.105  33.578   4.116
62337W        W32152  40.448  23.018   2.336
62338W        W32153  26.987  11.253  14.841
62339W        W32154  21.755  23.193   2.889
62340W        W32155   2.758   2.967  13.447
62341W        W32156  17.581  10.266   2.880
62342W        W32157  31.132  42.325   2.197
62343W        W32158   2.862  38.410  12.006
62344W        W32159  34.034  44.969  11.053
62345W        W32160  43.358  11.364  10.640
62346W        W32161  13.152  22.219  11.418
62347W        W32162  14.681  32.619  14.997
62348W        W32163   4.236  29.636  14.356
62349W        W32164   7.675  22.570   2.228
62350W        W32165  10.636  12.622   2.663
62351W        W32166  44.897   8.855   1.859
62352W        W32167  14.242  15.154   3.343
62353W        W32168  33.499  16.177   2.707
62354W        W32169  32.103  16.296  12.460
62355W        W32170   5.400  31.431  10.894
62356W        W32171  10.303  23.584   2.836
62357W        W32172  41.347   7.415   4.225
62358W        W32173  19.650  22.066   1.876
62359W        W32174   0.255  35.423  11.062
62360W        W32175   0.446  12.255  13.932
62361W        W32176  38.831  10.272   3.178
62362W        W32177  14.117  16.669  14.941
62363W        W32178   6.399  33.583   5.250
62364W        W32179  16.089  18.633  14.433
62365W        W32180  37.560  19.774   2.766
62366W        W32181  13.278  23.023   4.352
62367W        W32182   8.779  22.006   4.352
62368W        W32183   4.776  13.657   4.188
62369W        W32184  31.975  27.093  14.494
62370W        W32185   9.877  40.963  12.487
62371W        W32186   8.325  14.608  14.013
62372W        W32187   6.298  14.240   4.275
62373W        W32188   4.219   1.382  12.490
62374W        W32189  32.554  37.882   4.155
62375W        W32190  18.661  27.143   4.668
62376W        W32191  42.827   7.198   3.375
62377W        W32192  22.598  34.055  11.888
62378W        W32193  11.169  31.448  13.467
62379W        W32194   2.314  35.925   3.740
62380W        W32195  37.454   6.861  10.417
62381W        W32196  25.011   2.356  11.463
62382W        W32197  13.787  33.024   4.306
62383W        W32198  16.761  12.234  11.976
62384W        W32199  30.011  37.854  12.932
62385W        W32200  20.706  29.985  14.295
62386W        W32201  20.168  36.982   1.270
62387W        W32202  34.049   1.376  11.910
62388W        W32203  18.592  44.953   3.712
62389W        W32204   1.776  22.037  13.850
62390W        W32205  13.683  32.409  11.519
62391W        W32206  26.524  15.105   3.213
62392W        W32207  11.340  34.023   3.856
62393W        W32208  44.956  38.375   3.696
62394W        W32209  37.373  20.217   4.154
62395W        W32210  24.670   2.274  14.942
62396W        W32211  38.946  10.808  10.428
62397W        W32212  10.186  24.162  10.888
62398W        W32213   0.857  39.935  14.438
62399W        W32214  41.000  25.074   2.870
62400W        W32215  26.627  14.606  12.358
62401W        W32216  29.639  40.310   2.206
62402W        W32217   2.361  21.724   1.762
62403W        W32218  38.963  11.657   3.176
62404W        W32219  34.518  30.594  12.978
62405W        W32220  40.039  21.534   2.218
62406W        W32221  10.821  43.299   1.287
62407W        W32222   5.373  12.293   3.352
62408W        W32223  33.942   2.318  11.460
62409W        W32224  41.309  36.444  12.823
62410W        W32225  11.699  22.545  11.987
62411W        W32226  41.826  43.898   1.810
62412W        W32227  39.836  44.296  13.008
62413W        W32228  42.841  37.362   1.868
62414W        W32229  38.968  31.047   3.837
62415W        W32230  39.851  21.077  14.466
62416W        W32231  25.161  12.206  10.538
62417W        W32232  38.550  12.820  14.416
62418W        W32233  31.083  13.677  10.618
62419W        W32234  15.180  43.837   1.884
62420W        W32235  27.016  43.300   4.629
62421W        W32236  28.133   2.871  14.512
62422W        W32237   1.438   7.369   2.734
62423W        W32238  13.766  17.099  14.345
62424W        W32239  40.364  25.002   2.227
62425W        W32240  12.673  43.911  14.960
62426W        W32241  18.157  44.453   2.269
62427W        W32242  43.769  15.163  10.554
62428W        W32243  21.689  39.359   4.835
62429W        W32244   6.732  15.747  14.787
62430W        W32245  14.609  39.863  13.030
62431W        W32246   3.266  14.265  12.903
62432W        W32247  15.279  30.976   2.866
62433W        W32248  43.945  24.658  14.788
62434W        W32249  23.201  15.771  14.516
62435W        W32250  36.860   8.360   4.127
62436W        W32251  14.811  10.154   1.415
62437W        W32252  13.683  22.505   1.224
62438W        W32253  37.507  44.865   0.862
62439W        W32254  17.284  41.318   5.152
62440W        W32255   6.819  42.936  13.058
62441W        W32256  42.310  32.584   3.341
62442W        W32257  12.814  32.020   1.431
62443W        W32258   3.778  31.544   1.342
62444W        W32259  33.899   8.346   0.295
62445W        W32260  38.833  16.132   1.288
62446W        W32261   5.921  39.445  14.512
62447W        W32262  13.642  20.541  14.010
62448W        W32263  22.096  12.196   1.931
62449W        W32264  24.087   8.160  13.905
62450W        W32265  37.350  42.918   4.150
62451W        W32266  34.462  15.325   3.643
62452W        W32267  26.193  34.376  11.009
62453W        W32268  27.667  29.596   1.348
62454W        W32269   8.664   3.955  12.358
62455W        W32270  10.874  11.706   4.233
62456W        W32271  27.952  30.939  14.431
62457W        W32272  12.168   4.235   4.634
62458W        W32273  42.379  13.667  14.020
62459W        W32274  14.778  31.617  10.459
62460W        W32275  36.037  28.057  10.888
62461W        W32276  44.998  34.429   1.785
62462W        W32277   1.813   8.703   5.103
62463W        W32278  35.108  42.999   3.362
62464W        W32279  13.820  44.311  12.989
62465W        W32280  23.995  11.270  11.032
62466W        W32281  38.343   0.381   2.838
62467W        W32282  37.831  42.002   1.282
62468W        W32283   8.776   2.843  10.525
62469W        W32284  42.522  14.293  11.906
62470W        W32285  11.235  30.647  14.466
62471W        W32286  21.623  42.882   3.844
62472W        W32287   9.816  15.254  14.368
62473W        W32288  39.346  33.426  14.824
62474W        W32289  21.024  21.605   4.674
62475W        W32290   2.953  14.132  10.628
62476W        W32291  18.781   7.801  13.505
62477W        W32292  10.752  39.981  13.949
62478W        W32293   5.883  35.915   2.855
62479W        W32294   9.304   9.835  11.036
62480W        W32295   6.746   0.958   3.321
62481W        W32296  25.104  13.824   4.631
62482W        W32297  24.659  44.279  14.923
62483W        W32298  34.404  31.566   2.223
62484W        W32299  27.050  14.609   0.378
62485W        W32300  16.096  27.530  11.398
62486W        W32301  26.669  39.841   0.265
62487W        W32302   8.296  23.601  13.826
62488W        W32303  39.931   4.815   4.216
62489W        W32304  15.719   6.852   1.229
62490W        W32305  16.297  25.059  10.598
62491W        W32306  42.467  15.149   4.684
62492W        W32307  12.757   9.350  12.851
62493W        W32308   8.218  44.458  12.511
62494W        W32309  23.498  11.339  11.415
62495W        W32310  17.641  38.870   1.325
62496W        W32311  37.344  25.184   1.844
62497W        W32312   8.353  32.982   4.752
62498W        W32313  20.220   5.732  12.428
62499W        W32314  31.914  12.663   2.331
62500W        W32315  29.941  21.076  12.442
62501W        W32316  43.990  40.391  13.812
62502W        W32317   1.427  10.219   4.281
62503W        W32318  10.262   8.404  13.338
62504W        W32319   7.753  30.913   1.930
62505W        W32320  22.590   1.783   3.385
62506W        W32321  14.136  30.043  14.919
62507W        W32322   4.940  40.808  13.385
62508W        W32323  16.305  31.118  14.281
62509W        W32324   0.869  19.191  13.458
62510W        W32325  30.498   6.257   5.103
62511W        W32326  40.304  24.530  14.307
62512W        W32327  20.259  16.245   4.712
62513W        W32328  42.777  20.548   4.199
62514W        W32329  41.971   7.904   3.839
62515W        W32330  25.069  21.237  14.991
62516W        W32331  39.981  18.191   1.904
62517W        W32332  44.309  28.561   3.214
62518W        W32333  24.124  34.938  13.894
62519W        W32334  11.159  31.068  13.847
62520W        W32335  30.163   4.902  14.005
62521W        W32336  34.473  12.124   3.844
62522W        W32337  43.407   4.928   1.764
62523W        W32338  35.590   1.896  12.089
62524W        W32339  22.742  33.119   2.260
62525W        W32340   2.320   6.921   1.759
62526W        W32341  17.647   5.773  14.277
62527W        W32342  15.692   1.869   1.885
62528W        W32343  19.123  13.211  13.404
62529W        W32344   6.737  21.116   4.345
62530W        W32345  22.191  11.760  11.609
62531W        W32346   3.370  34.121   4.289
62532W        W32347  41.341  27.096   2.749
62533W        W32348  28.038  30.490   5.292
62534W        W32349  25.532   8.833   4.689
62535W        W32350  13.296  28.050   2.350
62536W        W32351  22.596  31.104   3.861
62537W        W32352  44.859   5.738   0.429
62538W        W32353  31.512   2.354   0.769
62539W        W32354  37.504  21.643   3.212
62540W        W32355   7.196  30.612   3.836
62541W        W32356  30.912  28.019  11.605
62542W        W32357   8.275  43.790   1.933
62543W        W32358  38.391   0.825  13.985
62544W        W32359  34.024  32.531  14.021
62545W        W32360   2.933   5.287   3.253
62546W        W32361  22.734  15.270   4.838
62547W        W32362  38.853  28.640  12.924
62548W        W32363  14.252   4.243   0.346
62549W        W32364  35.392  36.503   2.698
62550W        W32365  34.438   7.764   3.800
62551W        W32366  21.726   7.336  11.414
62552W        W32367  20.115  12.824  11.901
62553W        W32368  22.139   0.940  14.837
62554W        W32369  32.991  41.839   0.921
62555W        W32370   5.320   0.962   4.662
62556W        W32371  13.843  44.905   0.741
62557W        W32372  16.714  23.734  10.575
62558W        W32373  39.849  39.963  13.388
62559W        W32374  24.093  20.091  10.609
62560W        W32375  44.289  27.028  11.963
62561W        W32376  43.814  37.466  14.954
62562W        W32377  44.284  40.834   2.684
62563W        W32378  25.005  42.023   2.208
62564W        W32379   9.776  12.188  10.418
62565W        W32380   7.700   7.355  12.941
62566W        W32381  12.769  16.092  12.341
62567W        W32382  21.587  23.198  10.984
62568W        W32383  33.078  32.973  14.306
62569W        W32384  29.483  25.059  12.562
62570W        W32385  17.690  43.460  13.370
62571W        W32386  22.508  27.642  12.061
62572W        W32387  39.401   5.300  13.474
62573W        W32388  39.537  29.988   3.246
62574W        W32389  32.095  30.632   4.795
62575W        W32390   0.756  21.047  12.479
62576W        W32391  22.505  10.741   4.718
62577W        W32392   4.723  29.595   1.886
62578W        W32393  31.646  36.446  11.537
62579W        W32394  20.181  15.224   2.354
62580W        W32395  34.552  38.453  14.450
62581W        W32396  34.898   4.821  13.956
62582W        W32397  42.433  10.838   1.812
62583W        W32398  28.070  23.168   0.817
62584W        W32399   8.721   0.438   3.185
62585W        W32400  11.687   0.792  12.998
62586W        W32401  30.524  16.632   4.697
62587W        W32402  18.193   0.897  13.376
62588W        W32403  13.292  16.133  13.798
62589W        W32404  12.156  12.191  12.411
62590W        W32405  34.588   0.851   0.380
62591W        W32406  21.221   9.170  13.991
62592W        W32407  30.656  40.847   1.735
62593W        W32408  12.640  43.489   4.764
62594W        W32409   8.259  28.052  11.885
62595W        W32410   0.355  26.547  10.411
62596W        W32411   0.483  35.000   3.299
62597W        W32412   3.234  10.224   2.338
62598W        W32413  32.473   9.662   3.321
62599W        W32414  43.960   6.817  11.088
62600W        W32415  17.069  40.895  13.330
62601W        W32416  10.316  43.418   2.664
62602W        W32417  19.259  30.935   1.883
62603W        W32418   8.324  43.353  12.561
62604W        W32419   8.895  18.613   4.196
62605W        W32420   6.241  27.461   2.344
62606W        W32421  12.238  40.811  14.408
62607W        W32422   8.254  18.238   4.625
62608W        W32423  13.616   7.712   0.327
62609W        W32424   2.930   8.183   2.766
62610W        W32425  28.645   7.319  14.939
62611W        W32426  33.475  24.161  13.423
62612W        W32427  34.378   4.712   2.249
62613W        W32428  35.581   5.832  11.992
62614W        W32429  26.469  42.940  11.093
62615W        W32430  40.856  23.629  14.847
62616W        W32431  21.033  32.986   4.618
62617W        W32432  18.758   6.839  14.292
62618W        W32433   8.769  11.850  14.010
62619W        W32434   2.443   4.838   1.281
62620W        W32435  42.342  23.092   1.798
62621W        W32436   5.250  11.222  10.986
62622W        W32437  21.647  23.615  10.580
62623W        W32438  17.282   9.288  14.813
62624W        W32439   3.355   7.211  13.895
62625W        W32440   4.440   3.415  14.366
62626W        W32441  39.894  27.504  13.998
62627W        W32442  21.617   9.662  10.624
62628W        W32443  13.663  37.048  10.601
62629W        W32444  32.016  12.764  13.502
62630W        W32445  43.920  37.875  13.963
62631W        W32446  17.263  41.455   1.440
62632W        W32447   6.683  10.159  11.001
62633W        W32448   4.385  11.645  11.873
62634W        W32449  30.065  14.604  12.070
62635W        W32450  35.103   2.378  14.291
62636W        W32451  21.660  19.216  14.354
62637W        W32452  26.140  22.628   4.621
62638W        W32453  36.581  19.743  12.869
62639W        W32454   5.826  25.608   0.424
62640W        W32455  10.803  34.091   4.293
62641W        W32456  44.367  10.828   1.378
62642W        W32457  20.095  14.674   3.785
62643W        W32458   3.728   8.377   4.682
62644W        W32459  17.729  42.020   3.243
62645W        W32460  15.250  14.610   0.942
62646W        W32461  28.665   4.822   2.731
62647W        W32462  44.474  39.934   1.904
62648W        W32463  22.593  24.635  10.540
62649W        W32464  20.205  35.883  12.347
62650W        W32465  41.019  16.257  11.947
62651W        W32466  20.594  38.401   2.715
62652W        W32467  18.224   1.742   2.305
62653W        W32468  26.650  15.274   0.929
62654W        W32469  23.151  36.470   0.905
62655W        W32470  15.702  18.769   1.216
62656W        W32471  38.835  34.004   5.280
62657W        W32472  40.889   4.729   1.385
62658W        W32473  14.671  24.573  12.902
62659W        W32474   6.684   2.230   4.220
62660W        W32475  30.143  28.977  10.978
62661W        W32476  30.603  33.883  10.996
62662W        W32477  18.685  30.462   3.677
62663W        W32478  25.064   0.958  14.797
62664W        W32479   2.417  44.365  11.514
62665W        W32480   0.885  21.134  13.033
62666W        W32481  33.925  26.681  12.033
62667W        W32482  34.452  20.629   2.233
62668W        W32483  17.294  13.754  14.472
62669W        W32484  16.139  32.473  13.505
62670W        W32485  10.164  43.407  11.900
62671W        W32486  10.354  42.856   4.757
62672W        W32487  43.488  36.414  13.828
62673W        W32488  18.084  12.279  13.531
62674W        W32489  20.688  10.701  14.950
62675W        W32490  31.120   8.339   4.184
62676W        W32491   7.287  29.005   0.354
62677W        W32492  38.829  27.032  13.315
62678W        W32493  11.777  19.579  12.520
62679W        W32494  23.033   7.287  14.977
62680W        W32495  44.354   3.229   9.950
62681W        W32496  40.544  20.666   1.752
62682W        W32497  18.260  35.007   1.356
62683W        W32498  40.019  16.728  13.926
62684W        W32499  31.430  22.698  11.868
62685W        W32500  16.636  34.964   0.958
62686W        W32501  27.007  28.983   0.471
62687W        W32502  20.566  22.603   1.298
62688W        W32503  28.662   6.847   4.615
62689W        W32504  25.618  38.472   2.403
62690W        W32505  11.726   0.336   4.791
62691W        W32506   8.820   0.985   0.842
62692W        W32507   1.352   9.256  10.417
62693W        W32508  41.295  34.599   4.733
62694W        W32509  11.248   9.713  11.055
62695W        W32510   4.723  19.603  10.593
62696W        W32511  30.974  37.984   3.722
62697W        W32512  44.828  16.138   1.424
62698W        W32513  42.309  42.942   5.123
62699W        W32514  28.008  12.819  12.842
62700W        W32515  38.036   0.460   9.665
62701W        W32516   0.301  40.876  12.571
62702W        W32517   2.870  19.221  11.459
62703W        W32518  15.702  39.383  11.522
62704W        W32519  18.056  14.124  12.969
62705W        W32520   2.334  15.798  14.984
62706W        W32521  39.970  34.888  12.527
62707W        W32522  41.821  43.399   1.912
62708W        W32523  33.110  32.594  11.128
62709W        W32524  40.416  24.196  12.016
62710W        W32525   6.331   4.770  10.153
62711W        W32526  24.230  32.592  10.631
62712W        W32527  32.942  36.419   4.234
62713W        W32528  41.347  31.079   1.397
62714W        W32529  14.603  40.036  13.342
62715W        W32530   0.896  39.908  10.536
62716W        W32531  43.405  37.027  14.378
62717W        W32532  19.227  29.496  12.480
62718W        W32533  18.571  39.998   3.233
62719W        W32534   4.739  20.135  10.594
62720W        W32535  29.967   4.816  12.394
62721W        W32536  35.596  39.371   4.809
62722W        W32537  35.546  13.731   2.701
62723W        W32538  16.176   1.429   1.347
62724W        W32539  34.607  10.766  12.350
62725W        W32540  24.703  17.299  13.004
62726W        W32541   5.861  43.361   1.792
62727W        W32542   2.770  26.972  13.007
62728W        W32543  20.223  42.395   3.827
62729W        W32544  25.085  22.707   5.319
62730W        W32545  13.817  16.604   2.220
62731W        W32546  26.514  10.838   3.368
62732W        W32547   2.782  43.295  11.089
62733W        W32548   1.477  14.597  13.001
62734W        W32549   6.800  23.528   1.705
62735W        W32550  33.436   7.885   0.361
62736W        W32551  37.493  44.881   0.357
62737W        W32552  19.734  34.970   2.774
62738W        W32553  26.033   6.255   1.857
62739W        W32554   8.223  29.114  11.963
62740W        W32555  30.943  11.325  11.008
62741W        W32556  18.700  38.836  13.441
62742W        W32557  44.815  43.283   3.155
62743W        W32558  20.152  24.990  11.041
62744W        W32559  21.121  25.712   3.205
62745W        W32560  19.155  11.243  11.903
62746W        W32561  33.933  16.755  13.355
62747W        W32562  23.126  26.649   0.782
62748W        W32563  29.093   2.446   4.676
62749W        W32564  11.230   6.225   1.243
62750W        W32565   7.282  36.399   0.784
62751W        W32566  28.448  13.780   1.762
62752W        W32567  30.598  14.790  10.503
62753W        W32568  23.086  31.147  14.843
62754W        W32569   1.374  42.465  13.369
62755W        W32570  38.904  31.534   2.709
62756W        W32571   3.215  43.929   3.737
62757W        W32572  30.055  12.357  13.844
62758W        W32573  30.625   0.796   3.317
62759W        W32574  10.255   7.295   0.448
62760W        W32575   9.754  18.775  12.859
62761W        W32576  41.352  28.165   1.811
62762W        W32577  42.522  22.650   0.818
62763W        W32578   1.890  17.197   4.230
62764W        W32579  43.416  21.094   1.258
62765W        W32580  41.822   5.761   0.474
62766W        W32581  41.538   9.187  12.435
62767W        W32582   1.261  20.612   2.849
62768W        W32583  18.744  39.360   2.848
62769W        W32584  14.615  24.996   3.839
62770W        W32585  36.074   3.267  14.948
62771W        W32586  30.929  11.739  12.436
62772W        W32587  40.380  43.445  14.295
62773W        W32588   2.337  30.024   0.947
62774W        W32589  31.534  35.012  13.338
62775W        W32590  12.177  42.417  10.515
62776W        W32591   1.732  11.255  12.478
62777W        W32592   7.791  44.864   4.187
62778W        W32593  14.221  36.905   4.726
62779W        W32594  11.137  42.294  12.420
62780W        W32595  38.962  35.403  12.972
62781W        W32596  12.339   2.311  12.445
62782W        W32597  23.178  20.181   4.210
62783W        W32598  37.563  39.007  11.982
62784W        W32599   2.435  12.323   2.851
62785W        W32600   2.939   4.252  13.462
62786W        W32601  12.787  21.145  13.838
62787W        W32602  12.355  32.067   2.846
62788W        W32603   9.151  39.315   5.180
62789W        W32604  21.700  26.019  14.026
62790W        W32605  19.562  22.997   3.672
62791W        W32606   5.799  41.925  11.469
62792W        W32607  42.945  19.192   2.789
62793W        W32608   6.427  40.832  14.004
62794W        W32609  27.594  15.626   0.323
62795W        W32610  19.762  15.713  10.641
62796W        W32611  10.792   5.252  11.098
62797W        W32612  17.223  27.505  13.919
62798W        W32613   7.814  22.529  13.867
62799W        W32614  13.136  37.952  13.016
62800W        W32615  19.235  15.604  12.840
62801W        W32616  40.423  17.212  10.958
62802W        W32617  33.993   8.715   3.800
62803W        W32618  20.140  13.162   0.935
62804W        W32619  21.701  14.292  13.462
62805W        W32620   8.204   6.843   2.728
62806W        W32621  24.168  17.171   0.815
62807W        W32622  15.791  32.625   0.765
62808W        W32623   4.870  12.663   1.267
62809W        W32624  26.990  35.929   2.217
62810W        W32625   4.229  25.487   2.837
62811W        W32626  36.412  35.990   4.752
62812W        W32627  39.339  37.884  14.338
62813W        W32628  39.506  20.581   4.131
62814W        W32629  18.237  44.884  11.901
62815W        W32630  34.592  19.681   0.929
62816W        W32631  16.737  10.251   2.743
62817W        W32632  44.907   5.744  13.053
62818W        W32633  42.440  20.647  13.840
62819W        W32634  22.541  24.622  11.552
62820W        W32635   0.304  22.193   3.674
62821W        W32636  36.031   6.385  10.894
62822W        W32637  39.923   0.453  12.920
62823W        W32638  16.811  35.496  13.881
62824W        W32639  38.983  27.985  13.501
62825W        W32640  24.548  36.414   3.384
62826W        W32641   9.724   4.337   3.363
62827W        W32642   6.290  44.387   3.338
62828W        W32643  27.521   0.766   3.655
62829W        W32644  38.346  17.072   2.294
62830W        W32645  16.203  17.742  11.588
62831W        W32646   9.813  32.115   0.365
62832W        W32647   9.395  34.466  12.049
62833W        W32648  39.336  22.686  10.109
62834W        W32649  25.163   5.782  11.438
62835W        W32650   5.388   9.889   0.729
62836W        W32651  15.616  40.028  14.975
62837W        W32652   9.322  16.190   4.305
62838W        W32653  32.429   8.298   2.878
62839W        W32654  21.051  38.385   9.994
62840W        W32655  24.061  27.538   2.823
62841W        W32656  19.633  28.989  13.044
62842W        W32657  26.483   0.328  14.424
62843W        W32658   7.292  32.905  11.563
62844W        W32659  31.105  25.020   4.770
62845W        W32660  31.480  37.908   0.422
62846W        W32661   9.321   2.309  11.098
62847W        W32662  20.752  32.564   2.900
62848W        W32663  27.673  26.588   1.430
62849W        W32664   5.805   4.777   0.342
62850W        W32665   7.189  39.864  14.869
62851W        W32666  11.779  28.057   1.381
62852W        W32667   6.862  39.387   1.224
62853W        W32668  14.609  38.384   2.242
62854W        W32669   9.749  21.610   4.606
62855W        W32670   6.296  26.096  14.844
62856W        W32671  35.454   7.887  10.468
62857W        W32672   9.227  26.045   0.436
62858W        W32673  20.727  13.758   0.329
62859W        W32674   5.284  27.595   3.164
62860W        W32675  20.730   6.906   3.292
62861W        W32676  28.442  30.441   2.295
62862W        W32677  16.788  34.407   2.877
62863W        W32678  11.776  29.100  13.321
62864W        W32679  15.295  19.220   2.199
62865W        W32680   1.244   7.672  12.864
62866W        W32681  11.243  10.791   0.817
62867W        W32682  24.538  18.786  11.999
62868W        W32683   9.187  23.516  14.786
62869W        W32684  13.347  24.131   3.306
62870W        W32685   4.249   8.710  12.090
62871W        W32686  25.196   3.782  13.528
62872W        W32687  37.038  24.584  14.433
62873W        W32688   6.860  23.535  10.637
62874W        W32689   6.791  26.558  12.390
62875W        W32690   3.349  31.447   3.682
62876W        W32691  39.862  38.342  13.865
62877W        W32692  31.637   6.378  14.397
62878W        W32693   2.270  40.443  11.531
62879W        W32694  12.816  10.186  10.937
62880W        W32695  28.995   8.374   1.326
62881W        W32696  35.467  37.061  14.390
62882W        W32697  25.592  11.138   4.335
62883W        W32698  41.441  18.563   5.241
62884W        W32699   4.447  39.482  14.334
62885W        W32700  43.847  29.652  12.889
62886W        W32701  20.554  31.104   2.860
62887W        W32702  19.274  11.249   4.191
62888W        W32703  28.016  38.928   1.251
62889W        W32704   1.742  38.522  13.527
62890W        W32705  33.498  15.686  13.021
62891W        W32706   9.721  42.987  13.488
62892W        W32707   5.876  25.507  11.093
62893W        W32708   3.872  14.674   3.665
62894W        W32709  19.167  14.631  14.846
62895W        W32710  44.299   5.206  14.808
62896W        W32711  37.379   4.423  10.926
62897W        W32712   3.293  40.002   2.285
62898W        W32713  22.654  11.809  10.497
62899W        W32714   8.662   7.819  14.379
62900W        W32715   4.281   8.777   2.826
62901W        W32716   5.752   6.686  11.535
62902W        W32717  34.038  35.973   1.845
62903W        W32718   0.323  17.642   4.235
62904W        W32719  40.371  14.232   4.165
62905W        W32720  44.009  17.771  11.455
62906W        W32721   2.251  37.352  10.555
62907W        W32722  37.428  21.622  12.089
62908W        W32723  22.746   5.708  11.920
62909W        W32724   7.355  42.425  12.022
62910W        W32725  42.005  15.087   4.118
62911W        W32726  32.411  37.433  14.280
62912W        W32727  15.116   0.381   2.714
62913W        W32728  15.087  41.334   3.173
62914W        W32729  28.515  13.642   2.810
62915W        W32730  44.271  28.074  10.466
62916W        W32731  16.591  38.325   4.192
62917W        W32732  39.337  23.159  12.363
62918W        W32733  29.924   2.395  10.631
62919W        W32734  32.920  11.653   1.772
62920W        W32735   7.326  24.689  14.360
62921W        W32736   6.324  32.637   3.846
62922W        W32737  32.975  15.303   1.391
62923W        W32738  25.034  23.021  13.052
62924W        W32739   7.317  13.790  12.466
62925W        W32740  15.128  44.435   0.387
62926W        W32741  26.164  24.560  12.391
62927W        W32742  27.136  27.944   0.320
62928W        W32743  38.899  25.073   1.856
62929W        W32744  40.808  10.293  11.381
62930W        W32745  36.383  28.539   2.347
62931W        W32746  22.164  24.523   1.313
62932W        W32747  36.358  15.708   9.957
62933W        W32748  33.517  15.298  10.549
62934W        W32749  28.111  18.067  14.865
62935W        W32750  12.624  23.584   4.638
62936W        W32751  37.472  44.927   2.846
62937W        W32752  32.425  37.994  11.451
62938W        W32753   7.768  12.647   3.812
62939W        W32754  23.033   9.666   3.303
62940W        W32755  29.457  33.397   0.942
62941W        W32756   5.428  30.924   1.441
62942W        W32757  12.746  19.674   3.774
62943W        W32758  33.884  25.969   4.148
62944W        W32759  35.390  34.591  10.937
62945W        W32760  18.729  19.666  11.586
62946W        W32761   9.873  30.116  14.299
62947W        W32762  40.951  20.651   3.650
62948W        W32763  26.169  42.397   3.231
62949W        W32764  24.988  41.320   0.322
62950W        W32765  13.165  35.504  13.915
62951W        W32766  35.380  10.768   1.696
62952W        W32767  30.468  44.365   0.727
62953W        W32768   0.459  20.273  14.417
62954W        W32769  10.335  40.320  12.078
62955W        W32770  12.723  12.223   4.212
62956W        W32771  42.385  36.426   1.273
62957W        W32772  11.737  10.185  13.512
62958W        W32773  12.209  22.007   3.704
62959W        W32774   4.805  38.439   3.774
62960W        W32775  40.488  20.242  14.000
62961W        W32776   4.409  43.835  12.828
62962W        W32777   7.366  39.419   9.937
62963W        W32778  40.504  24.480  10.456
62964W        W32779  32.443  35.370  14.493
62965W        W32780  43.451  14.296   3.195
62966W        W32781  29.581  36.569  13.818
62967W        W32782  21.235  20.065   4.619
62968W        W32783   2.434  42.949   4.159
62969W        W32784  12.669   9.318   2.771
62970W        W32785  40.857  17.593   0.876
62971W        W32786  44.824  18.616  14.390
62972W        W32787   8.373  34.408   0.393
62973W        W32788  10.161  32.429  13.888
62974W        W32789  37.059   0.918   0.854
62975W        W32790  21.209  14.638  13.009
62976W        W32791   4.817  27.604  10.149
62977W        W32792  24.108  29.561  13.948
62978W        W32793   8.375   4.927   0.372
62979W        W32794   0.427  32.440   0.953
62980W        W32795   0.951  24.129  10.422
62981W        W32796  17.127  43.770  11.415
62982W        W32797  10.230   2.893   4.318
62983W        W32798  11.336  42.017   4.188
62984W        W32799  42.817   5.919  11.903
62985W        W32800   7.362  16.136   3.681
62986W        W32801  43.479  37.395  13.386
62987W        W32802  32.444  19.589  10.031
62988W        W32803  35.915   0.254   0.315
62989W        W32804  31.441  31.480   1.229
62990W        W32805  14.730  36.347  14.874
62991W        W32806  23.212  38.859   3.221
62992W        W32807  22.245  15.770  12.967
62993W        W32808  28.472   9.201  12.480
62994W        W32809  39.917  17.069   0.271
62995W        W32810  41.994   7.260   3.680
62996W        W32811  21.088  21.725   0.375
62997W        W32812  28.494  14.160   5.319
62998W        W32813  44.829   3.741   1.449
62999W        W32814  20.219   2.922   2.776
63000W        W32815  38.880  11.152  13.064
63001W        W32816   4.316  19.649   5.082
63002W        W32817   5.764   1.960  14.787
63003W        W32818  17.744   6.308  12.026
63004W        W32819   5.297  25.166   4.648
63005W        W32820  35.570  42.819   5.134
63006W        W32821   5.259  35.958  11.017
63007W        W32822  18.613  42.915   5.161
63008W        W32823  16.314  21.192  13.031
63009W        W32824  11.787  31.597   1.858
63010W        W32825  40.027  21.059  14.866
63011W        W32826  38.075  27.174  14.913
63012W        W32827  14.204  17.252  13.393
63013W        W32828  31.989   7.234   3.329
63014W        W32829   5.392  24.044   3.286
63015W        W32830  17.734  19.697  11.067
63016W        W32831  41.349  11.214   4.125
63017W        W32832  20.239  41.504   0.813
63018W        W32833  11.342  34.467  12.908
63019W        W32834  27.597  33.048   2.666
63020W        W32835  38.846  35.970  13.410
63021W        W32836  24.042  14.308   1.323
63022W        W32837  14.714  17.076  10.434
63023W        W32838  33.469  40.830   3.235
63024W        W32839  45.000   8.179   3.196
63025W        W32840  36.054  25.972   0.289
63026W        W32841   7.206  28.646  13.834
63027W        W32842   8.341  43.937  12.990
63028W        W32843  39.850   8.222  14.448
63029W        W32844   6.347  16.804   2.188
63030W        W32845  11.772  26.177   0.331
63031W        W32846  15.144  37.509  13.029
63032W        W32847  32.465  39.985  12.046
63033W        W32848  21.711  43.893  11.901
63034W        W32849  22.097   3.770   3.862
63035W        W32850  24.073  41.455  13.920
63036W        W32851  13.213  32.574   2.187
63037W        W32852   6.389  38.373   0.744
63038W        W32853  15.125  31.901  13.811
63039W        W32854  23.999  22.205  11.472
63040W        W32855   2.832   9.668  11.939
63041W        W32856  30.653  31.938   1.327
63042W        W32857   1.745  30.508   0.827
63043W        W32858  41.955  12.238   3.753
63044W        W32859  10.173  38.339   4.139
63045W        W32860   0.289  10.349   2.891
63046W        W32861   3.250  15.316   0.461
63047W        W32862  14.700  41.398   5.242
63048W        W32863  16.614   2.399   3.694
63049W        W32864  42.384  44.872   0.937
63050W        W32865  14.602  11.672   1.704
63051W        W32866  10.164  37.995  14.440
63052W        W32867   0.293  16.105   0.455
63053W        W32868   4.924  11.148  10.450
63054W        W32869  18.606  39.535   1.448
63055W        W32870  16.114  22.674  13.920
63056W        W32871  35.977   1.371  14.891
63057W        W32872  14.231  43.465  13.989
63058W        W32873  16.734  32.127   0.388
63059W        W32874   8.887  17.269   2.732
63060W        W32875  28.577  20.725   0.306
63061W        W32876  33.067  31.446   2.681
63062W        W32877  13.678  33.890   3.709
63063W        W32878   4.731  19.748   1.851
63064W        W32879  26.575  31.486  14.913
63065W        W32880   5.246  42.390   1.417
63066W        W32881   8.256  35.480  14.993
63067W        W32882  28.496   3.316   2.852
63068W        W32883  15.252  43.295  11.376
63069W        W32884   3.315   3.777   0.291
63070W        W32885  29.460   5.420   2.416
63071W        W32886  14.277  34.072   2.862
63072W        W32887   3.908  15.684  13.355
63073W        W32888  36.896  30.126   1.782
63074W        W32889   0.317  44.423  13.868
63075W        W32890  10.190  29.607   2.283
63076W        W32891  34.393  19.203   2.289
63077W        W32892   9.767   1.957   0.459
63078W        W32893   3.842  24.008  14.777
63079W        W32894   9.256  11.752   9.954
63080W        W32895  22.027  11.167  12.350
63081W        W32896   8.686  10.303  13.851
63082W        W32897  19.768  34.915   4.744
63083W        W32898  42.372   2.859  11.552
63084W        W32899   6.707  18.712   3.231
63085W        W32900  32.470  32.998  11.455
63086W        W32901  12.121  22.012   3.365
63087W        W32902  36.927  39.913   4.175
63088W        W32903  30.131   4.427   3.278
63089W        W32904   0.482  21.738  13.828
63090W        W32905  35.431  38.900   1.851
63091W        W32906  18.272  26.621   0.860
63092W        W32907   9.306  30.558  12.876
63093W        W32908   8.724  32.023  13.793
63094W        W32909   5.278  23.647  11.124
63095W        W32910  20.168  35.401   4.179
63096W        W32911  32.958  19.130   4.772
63097W        W32912  40.326   1.479  11.428
63098W        W32913  15.692  28.953  12.971
63099W        W32914  14.626   6.384  12.361
63100W        W32915  34.952  16.798  10.470
63101W        W32916  34.566  14.321  11.858
63102W        W32917  26.138   8.311  10.456
63103W        W32918  24.569  14.168   1.749
63104W        W32919  27.548   0.456   4.625
63105W        W32920  29.445  44.260   4.728
63106W        W32921   3.799  40.372  11.918
63107W        W32922  28.953  17.079  13.309
63108W        W32923  14.177   2.948   4.822
63109W        W32924  33.398  40.932  14.375
63110W        W32925  41.471  14.274  12.435
63111W        W32926  39.514  22.104   0.405
63112W        W32927  37.858  10.199   2.306
63113W        W32928   3.402  44.418   4.639
63114W        W32929  21.633  36.552   2.284
63115W        W32930  31.145  23.070   0.884
63116W        W32931  36.412  34.521   2.674
63117W        W32932  37.575  19.654  10.902
63118W        W32933  19.572   5.907   4.602
63119W        W32934  17.703  38.546  12.934
63120W        W32935  23.996   9.350   1.873
63121W        W32936  34.026  37.564   4.338
63122W        W32937  11.865  13.601   4.831
63123W        W32938  39.997  37.576  14.442
63124W        W32939   9.666  34.865  14.763
63125W        W32940  19.185  27.603   3.196
63126W        W32941  13.610  39.517   1.719
63127W        W32942   2.294  44.502   2.365
63128W        W32943   0.803  19.553  11.012
63129W        W32944  13.614  28.627   0.356
63130W        W32945   0.828   0.908  10.516
63131W        W32946  27.488  14.289  11.030
63132W        W32947  26.627  34.954   0.412
63133W        W32948  34.421   8.288   1.299
63134W        W32949  13.143  24.062  10.614
63135W        W32950  18.125  25.527  13.795
63136W        W32951  24.993  21.189  11.397
63137W        W32952  18.693  35.882  10.484
63138W        W32953  25.021  30.000  10.553
63139W        W32954  17.210  15.754  10.894
63140W        W32955  31.081   0.819   3.789
63141W        W32956  36.482  42.283   3.353
63142W        W32957  24.037  41.417   4.708
63143W        W32958  21.616  42.387   3.871
63144W        W32959  18.142  35.035   1.860
63145W        W32960  34.038  11.702   0.405
63146W        W32961  24.500  25.649  13.875
63147W        W32962   9.728  36.420  12.022
63148W        W32963  29.640   8.677   2.279
63149W        W32964  37.904  10.247   0.335
63150W        W32965  36.528  44.268   4.761
63151W        W32966  31.909  36.551  14.833
63152W        W32967  23.101  10.358   1.268
63153W        W32968   2.375   1.284  10.617
63154W        W32969  26.003   9.362   3.765
63155W        W32970  11.200  21.569  12.925
63156W        W32971  23.114  19.194   2.396
63157W        W32972   4.834  41.515   0.341
63158W        W32973  40.549  17.108   2.393
63159W        W32974   4.809  32.470   0.479
63160W        W32975  42.789   6.293  11.480
63161W        W32976  38.981  42.946   0.452
63162W        W32977  26.579  24.111   2.209
63163W        W32978  34.868  33.120   4.732
63164W        W32979  39.318   4.310  14.959
63165W        W32980  26.646  21.240  13.325
63166W        W32981  27.018   6.921   4.123
63167W        W32982   5.422  16.097  14.921
63168W        W32983  20.207  40.953   3.707
63169W        W32984  34.981  15.316   3.813
63170W        W32985  40.806  14.308  11.953
63171W        W32986  29.098  26.476   1.305
63172W        W32987  36.473  43.899  14.937
63173W        W32988   8.679   8.165  13.373
63174W        W32989   2.285  21.207  10.925
63175W        W32990   8.725  22.135  10.040
63176W        W32991  32.398  13.133  11.399
63177W        W32992  43.882  32.135   4.625
63178W        W32993  25.121  29.641   3.717
63179W        W32994  22.094  20.109   4.682
63180W        W32995   2.764  25.679  13.795
63181W        W32996   6.360  40.846  11.988
63182W        W32997   8.273   0.317  11.393
63183W        W32998   9.345  34.402  14.439
63184W        W32999  20.274   7.393   1.751
63185W        W33000  17.067  20.262  10.569
63186W        W33001  44.930  28.488  10.642
63187W        W33002  31.500  21.233  12.996
63188W        W33003  20.594  34.595  12.421
63189W        W33004  27.049  29.093   3.778
63190W        W33005  33.889  43.765  11.377
63191W        W33006   2.301  33.452   1.248
63192W        W33007  25.490  12.239  11.126
63193W        W33008  11.822  21.599   0.436
63194W        W33009  38.533  23.094  13.881
63195W        W33010  20.544  16.209   3.754
63196W        W33011  20.185  27.455  14.431
63197W        W33012  38.473   7.759   0.842
63198W        W33013  15.577  42.849   4.773
63199W        W33014  44.335  12.127  13.884
63200W        W33015  36.536  35.534  10.540
63201W        W33016  43.465  44.855   0.901
63202W        W33017  24.039  29.611  10.893
63203W        W33018  17.240  36.349   0.906
63204W        W33019  21.153  22.535  14.926
63205W        W33020  13.673  10.702  13.461
63206W        W33021  41.845  27.586   3.379
63207W        W33022  14.757   8.184   3.330
63208W        W33023  16.110  31.637  12.520
63209W        W33024  34.103  30.141  10.597
63210W        W33025  12.136  14.619  13.860
63211W        W33026  30.656  13.274  13.025
63212W        W33027   9.331  18.073   0.822
63213W        W33028  27.957   0.337  14.760
63214W        W33029  39.336  28.458   3.633
63215W        W33030   2.303  33.576  13.935
63216W        W33031  14.307   4.746  13.857
63217W        W33032  40.389  29.593  11.011
63218W        W33033  43.330  36.415   2.770
63219W        W33034  30.924  15.756   3.686
63220W        W33035  40.888  33.086  14.935
63221W        W33036  31.505  22.553   3.178
63222W        W33037   4.399  12.789   0.741
63223W        W33038  10.305  15.620  11.879
63224W        W33039  21.168  18.066  13.966
63225W        W33040  32.424   6.715   0.911
63226W        W33041   8.730  31.606  10.518
63227W        W33042  22.745  11.264   9.984
63228W        W33043  42.956  39.919   0.840
63229W        W33044  16.594  30.526   0.927
63230W        W33045  20.111  38.008  14.514
63231W        W33046  27.039   2.265  12.077
63232W        W33047  24.122  25.028   0.263
63233W        W33048  14.695  24.207   2.249
63234W        W33049  35.107  26.559   5.158
63235W        W33050  21.227  32.579   4.277
63236W        W33051  20.181  43.271   1.218
63237W        W33052  17.589   5.922   1.337
63238W        W33053   8.836  21.677  13.062
63239W        W33054  24.037  40.931   4.264
63240W        W33055  40.055  22.052   0.897
63241W        W33056  11.226   7.406  11.552
63242W        W33057  27.556   8.854   0.915
63243W        W33058  38.929  22.520   4.223
63244W        W33059  10.661   7.810  12.513
63245W        W33060  11.190  35.106   2.326
63246W        W33061  18.559  10.239  14.463
63247W        W33062   6.772   4.835   0.792
63248W        W33063  24.671  37.563  12.846
63249W        W33064  16.116  28.476   4.318
63250W        W33065  40.969   4.232  11.448
63251W        W33066  33.445  11.286  13.956
63252W        W33067  24.665   3.420   0.432
63253W        W33068  22.118  43.008   2.740
63254W        W33069  12.214  14.677   0.440
63255W        W33070  40.531  27.002  11.945
63256W        W33071  20.263  40.347   3.284
63257W        W33072  40.521  35.943  12.850
63258W        W33073   7.250   5.705  11.987
63259W        W33074  14.153   0.925  14.829
63260W        W33075  14.275   4.865  12.031
63261W        W33076  18.694   4.701  13.990
63262W        W33077  21.041   4.263  12.027
63263W        W33078  13.126  43.413  14.850
63264W        W33079  19.093  41.928  13.909
63265W        W33080  10.140  36.005  10.411
63266W        W33081  30.039  28.486  12.364
63267W        W33082  42.491  13.308   1.266
63268W        W33083   4.740  34.065   9.941
63269W        W33084  19.064   5.366   0.285
63270W        W33085  41.456  35.902   3.312
63271W        W33086  21.741  17.691   0.916
63272W        W33087  21.732  42.792   2.894
63273W        W33088  35.025  32.089   2.871
63274W        W33089  33.579  16.245  12.461
63275W        W33090  44.860   4.759  10.102
63276W        W33091   0.858  43.944   2.799
63277W        W33092  14.819  37.881   3.258
63278W        W33093  40.525  10.375   9.971
63279W        W33094   2.440  41.361   4.685
63280W        W33095  28.014  27.568  12.014
63281W        W33096  39.338   7.406  12.541
63282W        W33097  39.847   6.822   0.307
63283W        W33098   2.256  25.128   3.216
63284W        W33099  44.964  25.527   0.754
63285W        W33100  38.883  33.484   0.923
63286W        W33101  42.919  30.502   3.869
63287W        W33102  10.167  44.312  12.579
63288W        W33103  43.895  19.607   0.795
63289W        W33104   6.358  27.464   2.734
63290W        W33105  31.897  44.876  12.859
63291W        W33106  14.157  23.072  10.530
63292W        W33107  15.732   6.855  10.583
63293W        W33108  37.073  17.758  11.499
63294W        W33109  44.807  26.121   4.613
63295W        W33110  15.799  14.831  14.766
63296W        W33111  35.011  37.883  11.426
63297W        W33112  17.104  27.538   2.829
63298W        W33113  31.039   3.914   2.812
63299W        W33114  44.008  36.996  14.439
63300W        W33115  36.913  29.459   3.278
63301W        W33116  34.903  41.786   1.421
63302W        W33117  21.583  10.633  10.913
63303W        W33118  26.695  22.182   4.294
63304W        W33119  28.599  29.471  14.772
63305W        W33120  23.186  13.821  14.328
63306W        W33121   5.331  19.281  12.381
63307W        W33122   4.882  12.612   2.284
63308W        W33123  21.071  25.553  11.908
63309W        W33124   1.398  39.386   4.835
63310W        W33125  21.045  14.185  10.090
63311W        W33126  21.262  16.589   0.262
63312W        W33127  11.670  12.821  14.301
63313W        W33128  19.048  42.316  11.607
63314W        W33129  13.259   7.765   0.300
63315W        W33130  11.679  22.665  12.840
63316W        W33131  34.900   4.744   0.402
63317W        W33132   3.947   5.300   3.198
63318W        W33133   0.962  20.091   0.365
63319W        W33134  32.508  30.952   4.632
63320W        W33135  34.088  39.469  12.989
63321W        W33136  30.020  42.897   3.849
63322W        W33137  10.323  40.001   1.268
63323W        W33138  25.468  33.964   1.875
63324W        W33139   5.854  10.259   0.370
63325W        W33140  44.905   8.861  11.878
63326W        W33141  17.569   5.807  12.448
63327W        W33142  39.047  41.498  13.989
63328W        W33143  14.794  19.687   5.155
63329W        W33144  22.025  22.649  14.878
63330W        W33145   0.835   9.302   4.183
63331W        W33146  36.873  29.934   4.143
63332W        W33147  15.800  32.544  12.083
63333W        W33148   0.787  21.120   2.831
63334W        W33149  44.417  16.811  12.006
63335W        W33150  33.012  18.265  12.012
63336W        W33151   6.263  14.773   3.329
63337W        W33152  11.182   0.965  13.368
63338W        W33153  34.493   5.836   4.822
63339W        W33154  12.242  41.997   4.811
63340W        W33155  24.112  44.421   4.163
63341W        W33156  10.145   1.337  11.576
63342W        W33157  22.578  20.663   0.256
63343W        W33158   4.786  31.953  10.409
63344W        W33159  32.431  32.090   4.297
63345W        W33160  20.162  14.680  13.834
63346W        W33161   1.800   4.328  11.552
63347W        W33162  37.395   7.763   0.352
63348W        W33163  42.894  33.040   4.266
63349W        W33164  41.806  29.007   1.750
63350W        W33165   3.857  37.552   3.684
63351W        W33166  43.847  38.544  10.469
63352W        W33167   7.214   7.818  13.438
63353W        W33168   2.895  38.547  12.371
63354W        W33169   7.314  38.338  11.904
63355W        W33170  30.087   7.385   0.819
63356W        W33171  19.772   8.390   1.843
63357W        W33172  44.422  43.951   1.904
63358W        W33173  37.920  35.543  14.994
63359W        W33174  30.494  42.521   2.329
63360W        W33175  31.478  29.993   1.888
63361W        W33176   6.753   9.643  11.481
63362W        W33177  44.921   2.847   2.263
63363W        W33178  25.674  30.522   2.343
63364W        W33179  13.137  34.400  12.044
63365W        W33180  16.748  30.078  12.019
63366W        W33181  20.167  16.759  10.474
63367W        W33182   9.230  21.191   0.814
63368W        W33183  33.415  11.733   4.607
63369W        W33184  12.158  22.663  12.445
63370W        W33185  29.142  15.164  11.388
63371W        W33186  39.465  17.094   1.898
63372W        W33187   5.716  17.609   1.295
63373W        W33188  36.859  31.107   0.275
63374W        W33189   6.262  31.022  14.416
63375W        W33190   2.957   7.321   0.805
63376W        W33191  41.855  17.211  13.857
63377W        W33192  21.149  27.577  12.091
63378W        W33193  15.295  37.391  12.081
63379W        W33194  34.581  34.073   2.189
63380W        W33195  14.762  19.631   3.631
63381W        W33196  19.206  11.660   2.398
63382W        W33197  22.109   1.255  10.625
63383W        W33198  42.783  17.076  12.851
63384W        W33199  11.855  34.599  12.354
63385W        W33200   0.445  31.482  13.966
63386W        W33201  27.666   8.807   3.811
63387W        W33202  27.652   4.899  12.534
63388W        W33203  36.073  18.102   3.361
63389W        W33204   7.410  11.663   2.707
63390W        W33205  29.125   9.819  12.076
63391W        W33206  32.590  16.668  13.933
63392W        W33207  40.893  17.141  12.476
63393W        W33208  29.945  10.758   1.305
63394W        W33209  14.283   0.774   0.736
63395W        W33210  18.264  39.384   1.727
63396W        W33211  15.793   6.233   1.777
63397W        W33212   1.893  39.946  13.064
63398W        W33213  12.819  14.780  12.511
63399W        W33214   9.277  19.165  10.466
63400W        W33215   7.670   2.872   0.473
63401W        W33216  11.786   0.308  11.948
63402W        W33217  43.404  43.506  12.526
63403W        W33218   0.781  30.120   1.336
63404W        W33219  15.119  26.198   2.835
63405W        W33220  43.437   5.203  11.384
63406W        W33221  14.319  34.602  12.527
63407W        W33222  31.590   8.364  14.814
63408W        W33223   7.313  19.764   2.802
63409W        W33224   3.787  32.397  10.556
63410W        W33225  37.928   9.207  12.567
63411W        W33226   7.373  17.227   2.311
63412W        W33227  35.036  32.925  10.994
63413W        W33228  42.009  23.572  11.067
63414W        W33229   9.308  16.075  12.344
63415W        W33230  19.186  27.109  10.904
63416W        W33231  24.016  15.120   3.231
63417W        W33232  28.559  10.307   1.739
63418W        W33233  23.652  24.642  12.913
63419W        W33234  14.217  12.338  10.513
63420W        W33235  39.889  10.804   3.224
63421W        W33236  23.501  25.188  14.883
63422W        W33237  11.264  42.338   3.382
63423W        W33238   3.392  33.380   4.678
63424W        W33239  19.223  32.568   1.264
63425W        W33240  27.684  19.672  11.920
63426W        W33241  41.806  16.629   2.689
63427W        W33242  21.588  33.007   3.664
63428W        W33243  23.988  11.693  14.943
63429W        W33244  20.047  34.403   4.173
63430W        W33245  19.697  36.975  11.092
63431W        W33246   0.856  10.368  14.024
63432W        W33247  28.574  32.452  11.390
63433W        W33248  18.784  18.788  14.846
63434W        W33249  30.463  17.189   3.330
63435W        W33250  29.655   0.975   0.431
63436W        W33251   3.924  34.599   3.355
63437W        W33252  39.821  44.468  11.389
63438W        W33253  38.055   7.778   3.707
63439W        W33254  32.055  24.595   2.238
63440W        W33255  41.854  13.203   3.186
63441W        W33256  44.470   7.901  14.329
63442W        W33257  44.782  44.893  11.893
63443W        W33258  19.736  30.033   0.420
63444W        W33259  13.146  13.229   0.822
63445W        W33260   4.700   0.312   4.133
63446W        W33261  39.027  10.824  13.978
63447W        W33262  26.117  12.281  14.824
63448W        W33263  19.713   3.816  10.525
63449W        W33264  23.507  16.691  12.896
63450W        W33265   0.873  16.585  11.485
63451W        W33266   1.848  34.467  14.428
63452W        W33267  29.047  33.561   1.767
63453W        W33268  10.228  30.638  10.107
63454W        W33269  37.946  39.932   4.636
63455W        W33270  24.982  34.400   4.745
63456W        W33271  39.366  15.655   0.432
63457W        W33272  36.346   8.892  10.513
63458W        W33273  41.041  44.396  11.984
63459W        W33274  38.858   9.205  12.980
63460W        W33275   1.466  36.895  12.546
63461W        W33276  39.063  37.987   0.819
63462W        W33277   9.331  19.281  12.569
63463W        W33278  13.328  26.114   1.892
63464W        W33279  18.603  30.472  11.541
63465W        W33280  34.080  40.984   2.187
63466W        W33281   3.239  14.244  12.457
63467W        W33282  40.861  19.607   0.300
63468W        W33283   9.883  35.953   2.178
63469W        W33284  26.200   7.207  10.523
63470W        W33285   7.865  33.969  10.599
63471W        W33286  44.918   7.292   3.378
63472W        W33287  17.693   7.197  10.607
63473W        W33288  15.705  21.163  14.764
63474W        W33289  23.715  17.752   3.373
63475W        W33290   0.468  22.193   1.311
63476W        W33291  37.041  19.195  13.887
63477W        W33292  20.082  44.911   3.789
63478W        W33293  43.892  19.623  13.449
63479W        W33294  43.829  42.502  10.625
63480W        W33295  21.533  42.908  11.105
63481W        W33296   9.173  36.914  13.991
63482W        W33297  20.765  11.189  12.060
63483W        W33298   9.792  40.417  13.872
63484W        W33299  34.470  29.102   1.694
63485W        W33300  24.505   8.183  13.008
63486W        W33301  44.381  38.484   4.223
63487W        W33302  31.482   9.201  12.424
63488W        W33303  43.506  24.182   4.634
63489W        W33304  13.748  14.123   0.248
63490W        W33305   4.908  19.224  10.621
63491W        W33306   6.769   0.493  11.004
63492W        W33307  17.758   8.193  12.532
63493W        W33308  26.037  42.302  12.894
63494W        W33309  33.507  19.771   2.688
63495W        W33310  42.790  28.076  14.841
63496W        W33311  19.630  15.163  12.891
63497W        W33312   6.913   7.841   0.780
63498W        W33313  23.618  23.625   3.656
63499W        W33314  17.627   1.414  10.414
63500W        W33315  22.102   8.722   3.300
63501W        W33316  40.392  33.532  10.003
63502W        W33317  24.129  10.162   1.409
63503W        W33318  22.531  28.110  10.972
63504W        W33319  12.753  39.810   2.402
63505W        W33320  20.112  14.280  13.010
63506W        W33321  16.225   2.902  11.470
63507W        W33322   8.878  10.196   4.250
63508W        W33323  32.909  38.390   0.430
63509W        W33324   3.333  40.480   1.705
63510W        W33325  18.072  34.484  12.906
63511W        W33326  36.930  19.689  12.047
63512W        W33327  43.889  16.580  12.021
63513W        W33328   0.416  19.110  13.507
63514W        W33329  43.294   3.757   0.961
63515W        W33330  33.508  32.134  11.602
63516W        W33331  10.347  29.930   3.692
63517W        W33332   8.213  10.147  10.933
63518W        W33333   0.377  36.492  14.932
63519W        W33334  28.119  19.057  14.010
63520W        W33335  16.582   8.729  12.954
63521W        W33336  21.095  41.921  10.588
63522W        W33337  19.598  22.672   0.811
63523W        W33338   0.794  17.588   0.752
63524W        W33339  10.194  28.560  14.502
63525W        W33340  13.179  28.653  14.334
63526W        W33341   8.702  10.337  12.038
63527W        W33342  14.224   7.877  13.541
63528W        W33343  24.011  11.358   3.726
63529W        W33344  11.202  36.503  11.559
63530W        W33345  25.654   8.171   4.611
63531W        W33346  31.527  19.176  14.372
63532W        W33347  11.809   1.284   2.257
63533W        W33348  29.505  21.246   1.742
63534W        W33349  21.690   2.434   0.282
63535W        W33350  16.697  11.865  11.037
63536W        W33351  39.907  38.851  14.419
63537W        W33352   2.953   5.259   0.262
63538W        W33353   6.908  21.020   1.432
63539W        W33354  26.116  44.466  13.840
63540W        W33355  28.436  40.541   3.300
63541W        W33356  29.606  24.056   3.385
63542W        W33357  42.414  28.046   0.744
63543W        W33358  17.145  11.218  13.922
63544W        W33359   8.341   8.803   1.917
63545W        W33360  18.561  38.391   2.383
63546W        W33361   4.205  13.835   4.344
63547W        W33362   9.676  19.209   1.289
63548W        W33363  34.978  41.799   0.747
63549W        W33364  21.061  13.722  14.448
63550W        W33365  35.033  24.996   4.318
63551W        W33366   6.375  42.956   0.832
63552W        W33367   6.694   3.353  11.082
63553W        W33368  36.389   5.852   4.669
63554W        W33369   4.263  16.641   0.764
63555W        W33370  13.734  42.826   0.273
63556W        W33371  25.163  13.793  11.935
63557W        W33372  23.696  12.720   2.673
63558W        W33373  29.139  34.916  12.447
63559W        W33374  32.006  42.987   4.334
63560W        W33375  21.750  43.432   9.545
63561W        W33376  26.492  10.676  14.934
63562W        W33377  31.927  19.751  11.887
63563W        W33378  22.188   8.262  11.468
63564W        W33379  31.533   9.284  13.971
63565W        W33380  16.150   3.878  11.430
63566W        W33381  32.089  20.627   2.345
63567W        W33382  17.787  43.275   0.253
63568W        W33383   9.329   7.226   0.848
63569W        W33384  31.429  36.506  13.954
63570W        W33385  44.440  42.910  12.948
63571W        W33386  17.144  30.926  14.974
63572W        W33387  35.054  33.527  14.884
63573W        W33388  16.729  15.195  11.377
63574W        W33389  34.869  26.527  10.077
63575W        W33390  12.748   7.270  11.389
63576W        W33391  24.543  40.405   3.865
63577W        W33392  25.531  35.882   3.385
63578W        W33393  18.083  27.532  10.432
63579W        W33394  25.027  18.634   0.861
63580W        W33395  10.748  29.500   1.351
63581W        W33396  42.415  28.664   3.292
63582W        W33397  43.853  11.832   4.257
63583W        W33398  20.238  24.002   3.183
63584W        W33399  13.722  37.914  13.861
63585W        W33400  27.183  13.166   0.893
63586W        W33401  34.895  16.117  13.997
63587W        W33402  30.016  22.640  13.383
63588W        W33403  30.534   0.811  12.383
63589W        W33404   9.726  12.738  11.120
63590W        W33405  27.963  31.012  10.444
63591W        W33406  38.041  40.845   3.841
63592W        W33407  34.961  11.780   0.957
63593W        W33408  17.557  13.239  11.456
63594W        W33409   3.309  15.134  13.500
63595W        W33410   9.799  34.001  14.494
63596W        W33411  35.929  36.058   1.248
63597W        W33412  24.559  23.098   3.155
63598W        W33413  20.601  31.100   0.779
63599W        W33414  21.072  24.995  14.990
63600W        W33415  20.164   4.798  10.629
63601W        W33416  38.881  17.147  12.345
63602W        W33417  18.166   4.397   4.775
63603W        W33418  34.078   8.344   3.764
63604W        W33419  33.613   4.934  12.439
63605W        W33420  37.850   3.216  12.934
63606W        W33421   4.880  18.173   4.166
63607W        W33422   5.301  10.870   2.891
63608W        W33423  30.576  12.675  10.566
63609W        W33424   2.269  15.244  11.541
63610W        W33425  25.630  31.608   3.310
63611W        W33426   4.847  17.155  12.402
63612W        W33427  43.795  15.214   1.911
63613W        W33428  24.565  43.513   2.370
63614W        W33429  32.899  24.674  10.600
63615W        W33430  37.937   8.812  13.335
63616W        W33431   2.787  14.315   3.270
63617W        W33432   0.749  12.777  14.023
63618W        W33433  26.484  33.469   2.276
63619W        W33434  21.027   2.354  13.822
63620W        W33435  20.149  39.835   3.345
63621W        W33436  43.400  44.323  11.092
63622W        W33437   7.792  25.495  12.064
63623W        W33438  40.905  10.762   3.318
63624W        W33439  26.700  13.225   4.768
63625W        W33440  36.968  20.603   3.848
63626W        W33441  38.973  39.520  10.406
63627W        W33442  15.211  41.900   3.704
63628W        W33443  11.867  35.923   4.748
63629W        W33444   3.411  18.064   2.344
63630W        W33445  28.604  16.111  12.996
63631W        W33446  41.811  15.706   2.307
63632W        W33447   3.878  23.206  10.449
63633W        W33448   6.209  36.024   4.710
63634W        W33449  38.837  33.092  11.485
63635W        W33450   5.814  10.207   0.908
63636W        W33451   2.453   2.261   4.733
63637W        W33452  28.600   7.784   3.292
63638W        W33453  31.950  16.299  11.412
63639W        W33454  11.363  38.361   1.837
63640W        W33455  14.612  22.603  10.575
63641W        W33456  30.939  39.951   1.903
63642W        W33457  36.994  21.166  12.852
63643W        W33458  40.952  26.470  14.275
63644W        W33459   8.306  31.964  10.103
63645W        W33460  13.626  16.608  11.383
63646W        W33461  22.017  17.076   1.242
63647W        W33462  24.088  21.586  14.912
63648W        W33463  43.367  18.217   0.959
63649W        W33464  22.694  36.430   4.704
63650W        W33465  23.155  18.182   2.769
63651W        W33466  30.937  28.975  12.941
63652W        W33467  35.868  36.095  10.955
63653W        W33468  19.595  35.033   1.919
63654W        W33469  28.953  15.654   3.684
63655W        W33470  12.678  29.598   2.300
63656W        W33471  10.232  17.247  12.837
63657W        W33472  27.002  25.007  14.426
63658W        W33473  25.671  26.558  11.372
63659W        W33474  44.877   7.349   3.715
63660W        W33475   4.931  42.012   3.268
63661W        W33476  11.194  17.281   4.628
63662W        W33477  31.575  27.188  13.532
63663W        W33478  42.500  17.163   4.218
63664W        W33479  19.626   4.388   1.357
63665W        W33480  36.386  11.315  14.464
63666W        W33481   1.745  35.541   1.863
63667W        W33482   4.944   4.732  10.929
63668W        W33483  43.500   4.890  12.855
63669W        W33484  33.011   7.389  10.519
63670W        W33485  18.133  25.193  13.320
63671W        W33486   2.330  20.260   2.399
63672W        W33487  13.788   9.764  13.838
63673W        W33488  20.525  18.621  14.919
63674W        W33489   7.273  31.927   5.110
63675W        W33490  25.573  37.013  12.372
63676W        W33491  37.841  34.882  14.471
63677W        W33492  14.816   7.374  12.029
63678W        W33493  12.360  13.843  10.430
63679W        W33494  35.018   3.378   2.399
63680W        W33495   5.743  21.521  11.427
63681W        W33496   2.860   2.303  12.433
63682W        W33497  44.911   6.716  12.090
63683W        W33498  13.774  11.367   0.809
63684W        W33499  42.526  41.949  11.419
63685W        W33500  26.000  44.862   3.373
63686W        W33501  12.141  26.166  12.387
63687W        W33502   5.281  42.848  14.859
63688W        W33503   5.900  34.499   2.794
63689W        W33504  11.642  30.452  14.346
63690W        W33505  28.166  39.333   3.359
63691W        W33506  32.482  17.740   1.786
63692W        W33507  25.630   1.385  12.085
63693W        W33508  39.884  37.962  12.384
63694W        W33509  36.523  39.393   2.261
63695W        W33510  36.063  28.132   1.768
63696W        W33511  42.910  24.131   4.635
63697W        W33512   9.256  21.692   0.302
63698W        W33513  32.011  22.538  10.484
63699W        W33514  15.203  15.159  13.855
63700W        W33515  15.193  25.041  10.537
63701W        W33516   4.412   4.702  13.477
63702W        W33517  22.216   5.877  11.385
63703W        W33518  14.644  23.658   5.104
63704W        W33519  38.980  34.575  14.288
63705W        W33520  42.886   7.338   1.418
63706W        W33521  27.599  18.146   4.118
63707W        W33522  25.149  21.562   1.396
63708W        W33523   7.908  28.987   3.825
63709W        W33524  24.000   1.961  12.494
63710W        W33525  34.555  13.327   3.330
63711W        W33526  20.211  16.232  13.993
63712W        W33527   3.956   3.227   3.814
63713W        W33528  14.142  29.952   3.228
63714W        W33529  29.654  23.067  12.480
63715W        W33530  38.836  13.225   3.341
63716W        W33531  15.599  29.041   0.789
63717W        W33532  37.017  30.089  12.037
63718W        W33533  41.307  13.830   0.472
63719W        W33534  28.135   8.797   4.740
63720W        W33535  40.946   6.787   2.189
63721W        W33536  37.957  42.292  11.896
63722W        W33537  20.650  22.704   3.159
63723W        W33538   9.172  20.591  12.376
63724W        W33539  10.663  23.528  12.474
63725W        W33540   0.954  35.548   0.947
63726W        W33541  13.136  17.211  12.493
63727W        W33542  32.045  20.588   4.149
63728W        W33543  43.286  25.170   5.199
63729W        W33544   5.321   3.888   0.816
63730W        W33545  27.165  42.889  14.945
63731W        W33546   9.149  38.524  14.379
63732W        W33547  10.347  17.285  10.601
63733W        W33548   5.760  26.115   3.271
63734W        W33549  18.641  36.940  12.874
63735W        W33550  32.421  27.114  13.414
63736W        W33551  43.011   8.882   4.659
63737W        W33552  44.841  35.096   1.852
63738W        W33553  27.077  44.354   1.436
63739W        W33554  25.553  42.386   4.251
63740W        W33555  12.356   3.812  12.372
63741W        W33556   5.917  35.603   4.226
63742W        W33557  35.928  12.218   0.827
63743W        W33558  31.600  19.218  12.864
63744W        W33559   9.795  31.911   4.232
63745W        W33560  13.767   5.392  13.950
63746W        W33561  31.487  39.975  10.440
63747W        W33562  44.760  29.168   4.321
63748W        W33563   9.376  27.990  12.084
63749W        W33564   2.806   0.801  12.069
63750W        W33565  12.622  16.183  13.972
63751W        W33566  35.002  14.656  12.524
63752W        W33567  38.931   0.376   0.729
63753W        W33568  40.472   7.363   3.314
63754W        W33569  38.449   0.944  10.973
63755W        W33570  13.313   0.455   1.262
63756W        W33571  38.525  33.995   0.274
63757W        W33572  25.662  30.553   5.287
63758W        W33573  44.893  21.584  11.390
63759W        W33574  44.412  41.400  11.876
63760W        W33575  30.545  43.794   4.624
63761W        W33576   0.782  38.970   4.773
63762W        W33577  29.520  11.770  13.975
63763W        W33578  24.536  44.791   2.700
63764W        W33579  35.926  22.543   4.232
63765W        W33580  12.276  32.525   3.325
63766W        W33581  32.980  15.198  11.095
63767W        W33582   3.856  36.535  11.066
63768W        W33583  13.697   3.792  12.578
63769W        W33584  36.963  43.917  13.838
63770W        W33585  17.281  38.993  13.944
63771W        W33586   6.260   4.859   4.201
63772W        W33587  38.971  38.375  13.494
63773W        W33588  17.729  21.516   2.337
63774W        W33589  14.219  38.442   1.698
63775W        W33590   4.810  25.969   4.213
63776W        W33591   2.250   8.353   4.168
63777W        W33592  26.620   7.366  14.947
63778W        W33593  33.484  19.730   4.771
63779W        W33594  14.775  18.616   3.733
63780W        W33595  33.901  24.088   1.699
63781W        W33596   7.831  30.957  12.063
63782W        W33597  38.491  16.577  14.409
63783W        W33598  44.889  11.187   0.941
63784W        W33599  24.485  32.924  11.004
63785W        W33600  25.109  26.587  11.598
63786W        W33601  30.073   5.711  10.591
63787W        W33602  22.537  12.335   3.636
63788W        W33603  17.301  18.075   2.748
63789W        W33604  15.702  40.005   3.685
63790W        W33605   8.366  21.161  14.002
63791W        W33606  14.332   8.837   3.777
63792W        W33607  21.220  19.192  10.531
63793W        W33608  23.677  17.250   3.167
63794W        W33609  32.486   1.475  13.853
63795W        W33610  38.434  31.066   4.771
63796W        W33611  40.978   3.225  10.959
63797W        W33612  43.844   4.769   3.643
63798W        W33613  12.753  27.567  14.768
63799W        W33614  37.841   2.730   4.267
63800W        W33615  16.641  35.566  12.375
63801W        W33616   5.292   0.479  14.290
63802W        W33617  22.663   6.233  13.499
63803W        W33618   1.270  32.425   4.798
63804W        W33619   6.809  34.403   0.395
63805W        W33620  19.708  27.026   1.358
63806W        W33621  16.600  26.121   1.776
63807W        W33622  20.228  29.465  11.405
63808W        W33623  10.789  18.687   1.927
63809W        W33624  25.216  13.137  14.785
63810W        W33625  18.172   7.673   4.153
63811W        W33626  32.580  37.357   1.875
63812W        W33627   5.740  10.304  13.353
63813W        W33628  17.577  42.300   2.884
63814W        W33629  40.375  13.623   0.360
63815W        W33630  30.135  38.545  10.931
63816W        W33631  41.516  26.998  14.921
63817W        W33632   8.730  26.960   3.350
63818W        W33633  19.740   0.279  10.138
63819W        W33634  43.389  37.526  14.887
63820W        W33635  18.601  30.525  12.390
63821W        W33636  26.588  34.458  11.930
63822W        W33637   1.752  12.758  14.927
63823W        W33638  22.638  25.983   4.177
63824W        W33639  35.589  14.766  13.805
63825W        W33640  20.242   6.275   2.793
63826W        W33641  43.377  33.403  13.393
63827W        W33642  21.600  32.084   0.868
63828W        W33643   1.899  20.258   1.270
63829W        W33644  38.876  33.617  14.334
63830W        W33645   5.274  15.263  12.918
63831W        W33646   9.234  15.326  11.030
63832W        W33647  25.663  17.224  14.335
63833W        W33648  35.067  29.577   1.729
63834W        W33649   4.240   5.702  10.447
63835W        W33650  44.761  33.419   1.404
63836W        W33651   4.350  26.956   0.891
63837W        W33652  39.506  18.690   1.875
63838W        W33653  33.885  29.161  12.979
63839W        W33654  23.173  25.547   0.454
63840W        W33655  26.049  44.414  11.427
63841W        W33656  29.450  19.723   3.347
63842W        W33657  29.457  11.266  13.888
63843W        W33658   4.727  20.528  14.316
63844W        W33659  31.080  43.945   1.216
63845W        W33660  43.803  25.599  13.842
63846W        W33661  25.039  32.082   1.767
63847W        W33662   5.762  29.034  14.406
63848W        W33663  38.357   0.413   2.388
63849W        W33664  14.670  11.212  12.541
63850W        W33665   2.294  24.548  10.436
63851W        W33666  27.086  22.613   1.337
63852W        W33667  40.438  14.605   2.750
63853W        W33668  27.619  10.795   0.737
63854W        W33669  18.572  23.673  10.917
63855W        W33670  38.371  41.506  12.555
63856W        W33671  28.984   4.883   2.881
63857W        W33672  36.025   9.720  14.833
63858W        W33673  27.026   1.859   5.302
63859W        W33674  36.521  25.676   3.661
63860W        W33675  25.219  25.638   0.736
63861W        W33676  43.896   4.801  13.800
63862W        W33677  20.544  17.562   0.833
63863W        W33678  30.491   5.317   3.807
63864W        W33679   7.208  28.936   3.693
63865W        W33680  34.945  43.937   1.269
63866W        W33681  20.171   8.848   2.274
63867W        W33682  12.767  21.139  11.484
63868W        W33683  12.694  11.765   0.726
63869W        W33684  11.230  30.542  14.869
63870W        W33685  23.202  35.882  12.434
63871W        W33686  37.531  27.469  12.362
63872W        W33687  11.692  10.848   4.338
63873W        W33688  24.499  14.643   4.184
63874W        W33689  44.284  32.139  11.887
63875W        W33690   1.464   9.336   1.385
63876W        W33691  35.943   4.386  11.383
63877W        W33692  28.496  17.686  11.484
63878W        W33693   7.767  34.020   4.283
63879W        W33694  18.765  16.660   1.255
63880W        W33695  19.231   8.198  11.981
63881W        W33696  13.343  11.770   4.639
63882W        W33697  19.582   3.938  12.580
63883W        W33698   5.433   5.853  12.400
63884W        W33699  40.901  20.271   1.409
63885W        W33700   4.252   1.825  14.280
63886W        W33701  42.352   0.879   3.707
63887W        W33702  18.263  41.473  11.892
63888W        W33703   8.796  43.831  14.278
63889W        W33704   6.348   8.859  12.089
63890W        W33705  35.941  12.820   1.867
63891W        W33706  38.984  21.528   4.242
63892W        W33707  29.942  30.519   0.912
63893W        W33708  36.381  10.709   3.205
63894W        W33709  19.573  41.009  12.512
63895W        W33710   0.346  44.415   0.469
63896W        W33711  16.768   4.236  12.466
63897W        W33712  44.267   1.930   5.083
63898W        W33713  20.234  13.201   1.935
63899W        W33714  14.750  39.537  12.958
63900W        W33715   9.233  21.258   4.326
63901W        W33716   8.718  10.646  11.895
63902W        W33717   6.797  14.655   3.349
63903W        W33718  34.877   3.259   3.214
63904W        W33719  42.386  27.070   0.442
63905W        W33720  28.455  35.031   2.338
63906W        W33721  34.098  24.553  10.534
63907W        W33722  41.477  18.163   0.440
63908W        W33723  36.850  28.935   3.368
63909W        W33724  19.095  12.160  13.838
63910W        W33725  19.043  32.922  11.909
63911W        W33726  14.207  33.055   4.318
63912W        W33727   9.152  31.466  11.411
63913W        W33728  19.267  24.198   1.931
63914W        W33729  20.539   0.989  13.060
63915W        W33730  18.140  36.864   4.837
63916W        W33731  24.723   3.800   0.272
63917W        W33732  33.001  32.115  13.052
63918W        W33733  44.436  26.026  11.038
63919W        W33734   8.285  33.017  13.362
63920W        W33735  22.006  15.667   3.228
63921W        W33736  44.893   4.772  13.817
63922W        W33737  16.117  29.635   1.279
63923W        W33738  23.171  26.017  10.993
63924W        W33739  16.789  41.968   2.263
63925W        W33740   3.363  21.694   2.188
63926W        W33741  44.922  18.765  12.086
63927W        W33742  40.824   8.827   4.662
63928W        W33743   2.285   6.219   4.730
63929W        W33744  38.449   8.172   2.824
63930W        W33745   5.415  14.106  13.921
63931W        W33746  41.949   6.842  14.918
63932W        W33747   5.849  43.009  14.880
63933W        W33748  24.712  35.027   4.615
63934W        W33749  23.546   2.288   3.218
63935W        W33750   4.794  22.537  14.986
63936W        W33751  39.046  26.632  13.829
63937W        W33752  38.507  21.223  13.319
63938W        W33753  24.525  30.055   1.442
63939W        W33754  23.043   0.250   4.233
63940W        W33755  18.551  35.879   1.890
63941W        W33756  36.370  28.975   3.848
63942W        W33757  39.829  43.877   0.483
63943W        W33758  24.196  42.468  12.982
63944W        W33759   2.823  37.553   4.198
63945W        W33760  33.118  10.836  14.932
63946W        W33761  14.160  15.083   2.332
63947W        W33762  13.308  33.102  13.867
63948W        W33763  26.559  35.100  13.526
63949W        W33764  25.699   1.462   3.761
63950W        W33765  14.745  36.856   4.276
63951W        W33766   0.879  27.042  12.009
63952W        W33767  40.950  14.820   1.718
63953W        W33768   7.383  32.479   2.244
63954W        W33769   9.350   3.317   1.218
63955W        W33770  19.102  38.361  10.577
63956W        W33771  35.537   2.943   1.861
63957W        W33772  40.827  10.690   3.855
63958W        W33773  31.501   4.786   2.757
63959W        W33774   4.726  33.552   3.317
63960W        W33775  24.215   3.371   2.750
63961W        W33776   2.869   6.760   1.748
63962W        W33777  14.175  37.513  13.908
63963W        W33778  22.715  28.478   3.644
63964W        W33779  28.505  42.976   4.738
63965W        W33780  42.457  17.160  14.822
63966W        W33781   4.362  15.664  10.936
63967W        W33782  37.084   9.198  10.497
63968W        W33783  25.686  28.116  12.999
63969W        W33784  37.855  13.260  14.980
63970W        W33785  18.179  38.822   0.451
63971W        W33786  26.614  17.184   1.235
63972W        W33787  44.807   0.982  11.373
63973W        W33788  27.623  28.141  11.441
63974W        W33789  11.287  36.998   0.253
63975W        W33790  30.424  17.682   4.163
63976W        W33791  42.316  16.252  13.410
63977W        W33792  15.713  43.290   0.958
63978W        W33793  35.953  10.655  14.861
63979W        W33794  31.988  24.718   3.357
63980W        W33795   9.675  36.884   4.773
63981W        W33796  17.263  10.195   3.732
63982W        W33797   9.306   9.682   4.241
63983W        W33798   1.258  18.146   3.666
63984W        W33799  23.637  12.326   4.254
63985W        W33800   2.369  33.925   3.636
63986W        W33801   8.202  22.531  12.973
63987W        W33802  20.224   6.689  12.988
63988W        W33803  26.497   6.337   1.732
63989W        W33804  43.503  13.813   2.735
63990W        W33805  29.067  40.934  11.426
63991W        W33806   0.395   2.456  14.320
63992W        W33807  25.081  28.179   0.736
63993W        W33808  12.221  34.944  10.903
63994W        W33809  29.646  30.483  12.836
63995W        W33810   8.222  26.113  12.349
63996W        W33811  34.529  31.593  14.412
63997W        W33812  31.473  17.768   4.782
63998W        W33813  16.689  42.427  13.972
63999W        W33814  11.374  38.475  12.076
64000W        W33815  28.442  32.061   4.600
64001W        W33816   7.280  43.998  12.533
64002W        W33817  37.521  20.657  13.936
64003W        W33818  40.546  22.054   4.827
64004W        W33819  16.198   8.347  10.925
64005W        W33820  41.499  20.103  11.884
64006W        W33821  11.294  14.302  14.351
64007W        W33822  36.442  15.629   3.728
64008W        W33823   1.474   3.889  13.391
64009W        W33824  29.506  27.000  11.419
64010W        W33825  36.950  23.699   3.696
64011W        W33826  32.515  37.542  11.501
64012W        W33827  37.510  15.663   3.736
64013W        W33828  18.721  21.553   0.838
64014W        W33829  26.497   4.801   2.798
64015W        W33830  40.480   1.460  12.094
64016W        W33831  16.203   8.794  10.485
64017W        W33832  28.987   3.239   1.391
64018W        W33833   9.675  24.556  14.970
64019W        W33834  22.233  13.331  12.928
64020W        W33835  35.907   3.780  11.465
64021W        W33836  33.415  37.451  14.364
64022W        W33837  19.073   4.282   3.221
64023W        W33838  39.046   8.730   3.338
64024W        W33839  25.546  24.214   2.255
64025W        W33840  14.201  17.100  14.810
64026W        W33841  35.030  10.288  11.089
64027W        W33842  21.160  18.632   1.284
64028W        W33843  40.803   1.433   5.161
64029W        W33844  25.614  10.705   0.357
64030W        W33845  40.032   8.824   1.292
64031W        W33846  29.583  43.353  10.469
64032W        W33847  30.935  39.834   2.783
64033W        W33848  37.537   4.414  13.326
64034W        W33849   7.790  17.736  10.456
64035W        W33850  19.094  17.181   0.770
64036W        W33851  33.453  42.951   4.227
64037W        W33852   1.949   6.379   3.678
64038W        W33853   9.885  30.125   1.359
64039W        W33854  13.233  37.071  14.833
64040W        W33855  23.556  35.076  11.423
64041W        W33856  10.272  15.780  14.472
64042W        W33857  24.153  27.668  13.049
64043W        W33858  23.567  14.303   4.609
64044W        W33859  17.679  25.047   1.341
64045W        W33860   7.260  10.339  14.878
64046W        W33861  38.910  27.952   3.276
64047W        W33862  35.574  18.087  11.398
64048W        W33863   4.909   9.222  11.076
64049W        W33864  13.135   1.803   1.791
64050W        W33865  40.428  13.277  14.923
64051W        W33866  29.446   5.234  14.405
64052W        W33867   4.259  33.601   2.722
64053W        W33868  37.501   3.333   5.271
64054W        W33869  21.097   8.786  10.643
64055W        W33870  33.497  40.486   4.826
64056W        W33871  33.422   5.368   2.789
64057W        W33872  26.466  17.771  13.827
64058W        W33873  28.463  38.039   1.268
64059W        W33874  16.688  10.788  14.008
64060W        W33875  30.417   8.247   4.603
64061W        W33876  36.890  40.324   2.248
64062W        W33877  26.009   0.751   3.314
64063W        W33878  26.999  37.999   2.273
64064W        W33879  30.582  27.997  12.041
64065W        W33880  43.478   7.277  14.853
64066W        W33881  17.800  19.064   3.201
64067W        W33882  44.796   6.326   1.383
64068W        W33883  10.680  22.586   1.767
64069W        W33884   6.386   8.247  10.941
64070W        W33885  26.157  37.950  12.010
64071W        W33886   0.844  25.089   1.218
64072W        W33887  16.303   2.400  11.500
64073W        W33888  14.101  40.348   4.195
64074W        W33889  10.787   6.746   4.726
64075W        W33890   0.977   7.898  11.463
64076W        W33891  37.462   5.292  14.324
64077W        W33892  15.629  25.004   2.340
64078W        W33893  22.735  11.208  14.948
64079W        W33894  27.495  15.280  10.972
64080W        W33895  25.024  36.579  10.972
64081W        W33896  15.749  19.117   1.227
64082W        W33897  27.594  37.883   2.332
64083W        W33898  40.410  32.497   0.923
64084W        W33899  15.814  41.787  13.791
64085W        W33900   9.350  27.989  10.614
64086W        W33901   1.437  24.524  14.483
64087W        W33902   5.870  16.251  11.051
64088W        W33903  27.620   5.360  12.863
64089W        W33904  36.095  27.137  13.843
64090W        W33905  34.525  18.672   4.773
64091W        W33906  25.137  26.996   3.807
64092W        W33907   7.279  36.842  14.274
64093W        W33908  34.388  39.868  12.973
64094W        W33909   2.367  38.056   4.188
64095W        W33910  24.071  27.685   3.248
64096W        W33911   4.712  40.355  11.069
64097W        W33912  40.935   7.864   4.644
64098W        W33913   1.414   4.710  11.507
64099W        W33914   5.771  17.689   4.237
64100W        W33915  12.626   2.820   2.201
64101W        W33916  18.615   8.886   0.415
64102W        W33917  29.528  34.015  12.849
64103W        W33918  32.082  10.372  14.445
64104W        W33919  15.643  20.708   3.847
64105W        W33920   9.288  30.027  12.420
64106W        W33921  41.916  41.402   3.253
64107W        W33922   7.365  41.043  14.790
64108W        W33923  27.666   4.945  13.463
64109W        W33924  15.792  22.120  12.002
64110W        W33925   8.399  39.927  12.414
64111W        W33926   3.433  23.687   1.737
64112W        W33927  16.654  20.655  12.905
64113W        W33928  38.865   2.870   3.181
64114W        W33929  35.466  11.672  12.444
64115W        W33930  15.267  11.717   2.790
64116W        W33931  15.688  23.069  14.282
64117W        W33932  15.687   3.799  11.931
64118W        W33933  14.741  26.983   4.179
64119W        W33934  18.625   2.399  10.462
64120W        W33935  18.108  11.151  12.447
64121W        W33936  43.770  18.551  12.038
64122W        W33937  19.700  32.627   0.944
64123W        W33938   4.220  38.974   0.915
64124W        W33939   7.193   3.404  10.457
64125W        W33940  39.839  24.977   1.276
64126W        W33941  40.804   9.339   0.746
64127W        W33942  38.893   6.818  14.471
64128W        W33943  36.955  11.141  14.817
64129W        W33944  16.240  12.628   3.761
64130W        W33945  19.610  41.441  14.476
64131W        W33946  18.614  33.514   1.739
64132W        W33947  44.975  15.588   3.782
64133W        W33948   0.324  15.662  11.517
64134W        W33949  31.628  29.584   1.877
64135W        W33950  43.008  38.365   1.271
64136W        W33951  44.843  31.427   3.781
64137W        W33952   4.224  34.568   2.720
64138W        W33953  24.580  14.704  14.006
64139W        W33954  33.510  43.941   3.166
64140W        W33955  40.431  15.713   0.951
64141W        W33956  18.178  40.481   3.151
64142W        W33957  32.091  26.191  10.911
64143W        W33958  17.722  12.317   3.646
64144W        W33959   8.811  38.947  10.430
64145W        W33960  24.603  43.331  14.835
64146W        W33961  43.444  28.150   3.665
64147W        W33962  24.071  12.839   0.958
64148W        W33963  33.407  36.408  12.429
64149W        W33964  42.858  16.191   3.350
64150W        W33965   9.295  23.674   3.161
64151W        W33966  18.229  21.674   2.360
64152W        W33967  31.407  13.287  10.532
64153W        W33968  31.416   8.771   0.745
64154W        W33969  21.642  38.980  14.021
64155W        W33970   7.351  37.944   2.403
64156W        W33971  10.163   4.747   2.319
64157W        W33972  17.108   2.349   1.390
64158W        W33973  26.156   0.927   0.305
64159W        W33974   3.332  28.519  13.793
64160W        W33975  43.370  44.810   1.395
64161W        W33976   7.792   8.753   9.946
64162W        W33977   5.706   2.857   0.737
64163W        W33978  39.413  29.958   2.354
64164W        W33979  25.975   5.809  11.127
64165W        W33980  42.836  22.501  10.579
64166W        W33981  32.393  40.044  12.927
64167W        W33982   2.345   1.468  14.857
64168W        W33983  15.595  16.704  10.484
64169W        W33984   4.420  25.598   1.735
64170W        W33985  10.370  19.099  11.581
64171W        W33986  18.151   2.332   0.833
64172W        W33987  38.893  10.669   2.715
64173W        W33988  39.455  13.181  13.024
64174W        W33989  27.520   8.207   2.330
64175W        W33990   7.899  13.637   4.617
64176W        W33991  17.732  41.495   3.793
64177W        W33992  23.539  33.514  13.887
64178W        W33993  39.429  15.247  14.833
64179W        W33994  11.626  35.463  11.544
64180W        W33995  42.520   3.338   2.730
64181W        W33996   6.865  18.082   3.315
64182W        W33997  29.637  26.130   1.390
64183W        W33998  31.483  31.614  13.826
64184W        W33999  44.387  33.431  10.128
64185W        W34000  40.879   4.875   3.256
64186W        W34001   9.718   5.786   2.267
64187W        W34002   2.906   2.322   3.284
64188W        W34003  22.548  42.520   0.280
64189W        W34004  30.014  40.935   0.861
64190W        W34005   2.332  34.449  10.573
64191W        W34006  37.352  33.477   5.218
64192W        W34007  14.629  23.679  10.115
64193W        W34008  44.381  17.698  12.510
64194W        W34009  24.993  23.009  13.889
64195W        W34010   8.685   1.310  14.327
64196W        W34011  36.939  22.652   4.731
64197W        W34012   4.858  14.723   4.231
64198W        W34013  29.034  44.406  11.473
64199W        W34014   8.799   5.840  14.352
64200W        W34015  43.459   4.824   4.202
64201W        W34016  17.079   3.716   2.281
64202W        W34017  13.295  42.495  13.439
64203W        W34018  44.007  36.854   4.223
64204W        W34019  10.647  39.525  11.410
64205W        W34020  17.752   3.805  14.805
64206W        W34021  39.045  36.476   3.704
64207W        W34022  21.612  26.607   1.331
64208W        W34023  34.537   7.721   0.324
64209W        W34024  12.182   3.872   0.967
64210W        W34025  17.264  18.755   3.858
64211W        W34026  15.759  42.527  11.976
64212W        W34027  39.537  17.080   0.903
64213W        W34028  14.614  39.956   1.773
64214W        W34029  33.061  27.585   0.432
64215W        W34030  24.604   6.766   4.677
64216W        W34031  10.736  24.033   2.767
64217W        W34032  16.579   6.706  13.826
64218W        W34033  34.091  39.031  14.414
64219W        W34034  36.465  25.681  13.363
64220W        W34035  16.628   7.904   4.646
64221W        W34036  32.081  17.298  13.357
64222W        W34037  25.469  26.676   2.368
64223W        W34038  31.102  36.934  10.991
64224W        W34039  15.758  21.100  11.432
64225W        W34040  14.765  44.442   9.983
64226W        W34041  10.314  18.633  14.339
64227W        W34042  17.722  20.210  10.892
64228W        W34043  35.532  42.975  11.094
64229W        W34044  37.505  37.481  12.463
64230W        W34045  37.557  41.331   1.404
64231W        W34046  38.394  29.495   2.768
64232W        W34047  39.473   0.483  12.842
64233W        W34048   0.809   5.829  14.463
64234W        W34049  44.435  23.127   2.896
64235W        W34050   6.923  34.097  12.011
64236W        W34051  21.219  14.131  10.463
64237W        W34052  41.330  38.379   2.300
64238W        W34053  37.413  24.536  13.538
64239W        W34054   1.241  21.234  12.360
64240W        W34055  29.982  19.089   2.812
64241W        W34056   1.421  29.541  13.009
64242W        W34057  34.386  17.590  10.990
64243W        W34058  28.031  22.680   0.824
64244W        W34059  38.502  37.361   4.257
64245W        W34060  18.775  44.863  10.515
64246W        W34061  32.088   8.274  13.971
64247W        W34062  29.434  28.609   1.917
64248W        W34063   8.372   1.442  14.866
64249W        W34064  37.012  40.843   1.783
64250W        W34065  20.602   1.357   0.394
64251W        W34066  20.557   4.423   0.800
64252W        W34067  44.936  11.173  11.019
64253W        W34068  38.501  22.172  10.451
64254W        W34069  35.478   1.880   0.460
64255W        W34070  18.126  30.488   0.331
64256W        W34071  44.895  10.241   0.811
64257W        W34072  43.465  18.578  11.892
64258W        W34073   2.440  23.108   3.287
64259W        W34074   2.857  35.475   2.897
64260W        W34075  18.694   9.696   0.333
64261W        W34076  12.633  11.174   0.350
64262W        W34077  20.135  30.979  13.023
64263W        W34078  44.441  19.599   1.889
64264W        W34079  17.747  28.059  11.016
64265W        W34080   0.452  40.992  14.474
64266W        W34081  16.164  43.489  10.580
64267W        W34082  24.516  21.667   2.740
64268W        W34083  41.880   6.259   3.707
64269W        W34084  14.620  37.474   4.825
64270W        W34085   0.282   7.808  14.318
64271W        W34086   5.335  33.537   1.740
64272W        W34087  35.980   4.283   3.691
64273W        W34088  18.106  38.565  13.325
64274W        W34089  39.384  23.116  14.390
64275W        W34090   0.450  22.176  11.429
64276W        W34091  40.921  24.987   2.192
64277W        W34092  11.290  43.962  14.988
64278W        W34093  43.318  32.445  14.944
64279W        W34094  44.385  13.129   1.386
64280W        W34095  24.103   9.348   0.439
64281W        W34096  11.831  36.521  14.007
64282W        W34097  30.980  35.516  14.300
64283W        W34098  35.508   3.804   2.338
64284W        W34099   2.792  19.262  14.829
64285W        W34100   9.254  33.424   2.249
64286W        W34101  26.206  20.657  13.043
64287W        W34102  29.045  23.541  11.511
64288W        W34103  11.783  34.075  10.968
64289W        W34104  40.812   9.156  11.458
64290W        W34105  44.447  18.062   4.114
64291W        W34106   6.215  28.597  12.959
64292W        W34107  25.549  25.665  13.372
64293W        W34108  15.278  23.205   2.743
64294W        W34109  17.578   3.782  14.449
64295W        W34110  28.037   7.372   2.668
64296W        W34111  35.944  41.321  12.014
64297W        W34112  40.031  36.526   3.784
64298W        W34113  28.104  19.708   1.770
64299W        W34114  11.742   2.891   3.646
64300W        W34115  17.601  33.072   1.743
64301W        W34116  20.248  35.441  12.828
64302W        W34117  20.077  29.466  13.509
64303W        W34118   3.811  29.958   4.753
64304W        W34119  28.086  22.119   0.918
64305W        W34120   4.417  29.500  10.638
64306W        W34121   0.446  42.898   4.234
64307W        W34122  16.255  13.665  14.486
64308W        W34123  34.078  25.017  14.934
64309W        W34124  22.028   0.360   2.683
64310W        W34125   2.434  13.646  13.333
64311W        W34126   7.190  38.075   1.718
64312W        W34127  27.945   7.779  12.573
64313W        W34128  31.474   8.348   0.817
64314W        W34129  37.941   2.916   2.711
64315W        W34130  16.276  11.725  13.396
64316W        W34131  21.122  10.300   3.677
64317W        W34132   0.804  15.618   4.215
64318W        W34133  42.821  16.721   2.292
64319W        W34134   1.274  20.584  11.881
64320W        W34135  36.995  42.964   2.866
64321W        W34136  13.265   5.755   4.758
64322W        W34137  18.665  18.261   1.874
64323W        W34138  10.679   2.748  10.452
64324W        W34139   4.741  35.405  13.992
64325W        W34140  30.581  32.907  11.401
64326W        W34141  17.208  25.017  14.442
64327W        W34142  43.867  40.499  12.533
64328W        W34143  36.586  16.733   3.158
64329W        W34144  38.388  30.121   3.764
64330W        W34145  38.560  22.510  13.793
64331W        W34146  32.587  24.025   4.678
64332W        W34147  31.018  19.563  14.428
64333W        W34148  30.923  22.567   4.176
64334W        W34149  17.756  42.286  10.450
64335W        W34150  25.988  43.925   3.694
64336W        W34151  15.669   5.216  11.940
64337W        W34152   4.392   0.880   1.293
64338W        W34153  33.901  10.783  11.486
64339W        W34154  42.311  36.056   2.198
64340W        W34155   2.900  23.075  11.538
64341W        W34156  35.887  43.876   3.327
64342W        W34157  18.552   3.294  12.506
64343W        W34158  35.962  17.591   1.413
64344W        W34159   0.833  20.197  14.017
64345W        W34160  25.469  34.010  14.487
64346W        W34161   6.263  25.009  14.407
64347W        W34162   5.735  42.517   1.826
64348W        W34163   1.332  39.402  10.528
64349W        W34164  30.618  24.189  10.997
64350W        W34165  26.554  28.468   2.691
64351W        W34166  21.203  37.973  13.451
64352W        W34167   3.395  19.707  14.934
64353W        W34168  25.616  15.610  10.135
64354W        W34169  23.635   9.805  12.542
64355W        W34170   2.829  33.945   1.302
64356W        W34171  17.090  35.374  11.475
64357W        W34172  31.931  37.435   3.818
64358W        W34173  23.663  10.698   3.835
64359W        W34174  42.905  40.834  11.579
64360W        W34175  16.769  10.242   4.143
64361W        W34176  41.346  24.707  13.857
64362W        W34177  17.774  42.412   1.447
64363W        W34178   3.224  37.834  11.121
64364W        W34179  37.402  22.214  11.452
64365W        W34180  29.935  34.561   2.284
64366W        W34181  13.836  24.117   3.218
64367W        W34182  22.087  21.170  13.836
64368W        W34183  24.678  14.131   4.715
64369W        W34184   1.919  15.638  12.925
64370W        W34185  40.039  33.036  14.930
64371W        W34186   7.690   6.345  10.006
64372W        W34187  17.104   1.898   4.723
64373W        W34188  38.429  44.854  11.058
64374W        W34189  36.548  12.252   2.356
64375W        W34190  15.206   0.317  10.536
64376W        W34191   3.827  12.157   2.202
64377W        W34192   4.316  35.509  14.430
64378W        W34193   2.923  42.314   3.352
64379W        W34194  25.655  31.146  12.365
64380W        W34195  30.514  41.907   4.647
64381W        W34196  19.238   3.760   4.228
64382W        W34197  12.754  27.184   2.388
64383W        W34198  30.562  31.153  13.980
64384W        W34199  39.917  23.102   0.960
64385W        W34200  26.609  44.926   1.246
64386W        W34201  33.609  29.029   0.941
64387W        W34202   8.752  35.529  12.536
64388W        W34203  37.991   5.209  11.441
64389W        W34204  30.440  27.956  13.421
64390W        W34205  15.701  11.243  11.372
64391W        W34206  16.288  37.001  14.000
64392W        W34207   7.750  24.160   4.629
64393W        W34208   1.362   9.723  10.412
64394W        W34209  40.527  40.335  13.350
64395W        W34210  25.576  18.199  13.053
64396W        W34211   3.891   3.260   5.219
64397W        W34212  42.341  40.865   4.683
64398W        W34213   3.434   7.175  13.526
64399W        W34214   2.371  13.334   1.338
64400W        W34215  10.634  42.959   0.728
64401W        W34216  31.617  34.589  11.539
64402W        W34217   9.860   2.849   3.361
64403W        W34218  43.790  28.638   2.818
64404W        W34219   8.757  38.451  13.974
64405W        W34220  16.183  31.148   0.290
64406W        W34221  32.535  11.651  11.552
64407W        W34222  40.389  37.370   0.950
64408W        W34223  24.708  35.441  11.463
64409W        W34224  42.977  35.449   2.784
64410W        W34225  28.003   8.890  10.911
64411W        W34226  29.442  37.979   4.170
64412W        W34227  44.814   5.891  11.446
64413W        W34228  27.958  23.720   2.835
64414W        W34229  23.648  24.974   2.790
64415W        W34230  28.597  15.231  14.821
64416W        W34231  43.784   4.373  14.989
64417W        W34232   0.880   6.696   3.783
64418W        W34233  19.589  19.203  11.926
64419W        W34234  27.470  33.056  10.558
64420W        W34235  29.160  42.366   0.881
64421W        W34236  36.880  38.914  10.590
64422W        W34237  25.036  17.172   0.442
64423W        W34238  38.853  34.929  13.918
64424W        W34239  10.374  18.264  11.915
64425W        W34240  40.359  27.097  10.597
64426W        W34241   6.306  34.576   1.765
64427W        W34242  20.735  17.169  12.915
64428W        W34243  38.402  30.576  11.566
64429W        W34244   7.735  26.535   3.683
64430W        W34245  15.290  19.616   3.727
64431W        W34246  37.336  28.966  11.098
64432W        W34247  25.212   1.967  10.458
64433W        W34248  32.397  38.004   2.284
64434W        W34249  42.281  10.176  14.020
64435W        W34250  21.222  27.051   1.903
64436W        W34251  43.953  40.977  12.869
64437W        W34252  39.824  30.147   2.339
64438W        W34253  26.529  36.410   1.894
64439W        W34254  29.502  18.060   2.402
64440W        W34255  43.964  21.654  12.387
64441W        W34256  10.329  13.107   1.738
64442W        W34257  27.613  15.145   2.186
64443W        W34258  28.560  25.614  12.892
64444W        W34259  18.275  12.267  12.412
64445W        W34260   2.805  13.764   2.248
64446W        W34261  22.721  20.707   4.677
64447W        W34262   5.291  31.977  10.558
64448W        W34263  37.452   0.826  12.559
64449W        W34264  13.828  23.495  11.877
64450W        W34265  26.550  15.602   1.705
64451W        W34266  23.125   7.334   2.851
64452W        W34267  23.171  22.013  13.901
64453W        W34268   8.832   1.261  12.056
64454W        W34269   2.245  11.849  13.529
64455W        W34270  44.470  22.554  13.431
64456W        W34271  44.773  28.087   1.258
64457W        W34272  24.709  15.279  11.984
64458W        W34273  24.654  31.600  14.825
64459W        W34274   7.258  25.987  13.945
64460W        W34275   3.218  24.533  11.035
64461W        W34276  20.661  20.694  12.073
64462W        W34277  24.143  12.337   4.330
64463W        W34278  38.509  44.998   3.702
64464W        W34279  24.508  42.310  12.392
64465W        W34280  26.651   3.861  12.065
64466W        W34281  14.107  19.285   1.234
64467W        W34282  38.401  14.280   0.337
64468W        W34283  14.823  34.873   0.924
64469W        W34284  39.908  17.722   2.831
64470W        W34285  20.680  40.977   1.442
64471W        W34286  26.463  42.788   9.980
64472W        W34287  16.598   6.286  13.371
64473W        W34288  29.050  41.856   1.416
64474W        W34289   4.222  17.657  13.853
64475W        W34290  12.688  35.424  10.619
64476W        W34291  10.175  40.399   4.783
64477W        W34292  24.212  25.080  12.443
64478W        W34293  22.168  40.537   1.335
64479W        W34294   1.800  41.842  13.316
64480W        W34295  41.394   5.769   0.739
64481W        W34296  32.995  23.692   2.255
64482W        W34297  38.446   7.892  14.807
64483W        W34298  13.287  23.145  14.772
64484W        W34299  24.228  20.621   3.708
64485W        W34300  25.569  13.719  13.914
64486W        W34301  32.619  43.821  13.490
64487W        W34302  19.714  10.878   2.826
64488W        W34303  32.095  40.404   1.875
64489W        W34304  39.498  36.433   0.442
64490W        W34305  15.595  29.087  10.528
64491W        W34306  28.180  37.034   3.683
64492W        W34307  31.949  29.619   1.773
64493W        W34308  28.445  13.827   2.248
64494W        W34309  29.109  42.971  14.295
64495W        W34310   4.350  36.087  10.547
64496W        W34311  15.725   2.882  14.961
64497W        W34312  17.219  35.859  14.318
64498W        W34313  41.829  43.443  13.341
64499W        W34314  31.571  33.994  14.499
64500W        W34315   0.972  10.748   0.798
64501W        W34316  25.991  23.041  12.002
64502W        W34317  19.556  12.352  11.389
64503W        W34318  21.124  25.994  11.504
64504W        W34319  31.955  23.152   1.350
64505W        W34320  42.443   6.856   2.719
64506W        W34321  16.304   6.298   1.428
64507W        W34322  35.521   9.210  13.027
64508W        W34323   4.793  35.542  12.849
64509W        W34324  22.034   4.284  13.461
64510W        W34325  10.679  13.250   0.748
64511W        W34326  19.575  23.651   1.877
64512W        W34327  33.067   6.344   1.702
64513W        W34328  10.876   5.289  11.967
64514W        W34329   3.709  12.344   0.864
64515W        W34330  41.968   8.236  12.918
64516W        W34331   6.381  16.185   4.706
64517W        W34332  26.033  19.729  12.005
64518W        W34333   6.421  17.157   1.363
64519W        W34334  18.663  16.716   3.816
64520W        W34335   2.833  38.479  13.994
64521W        W34336  43.411   7.173   2.220
64522W        W34337  41.029   7.872   5.775
64523W        W34338  42.861  28.440  14.783
64524W        W34339  22.132   8.229  14.858
64525W        W34340  18.790  15.262  12.912
64526W        W34341  33.560   6.266  10.961
64527W        W34342  40.480  25.198  12.845
64528W        W34343  33.608  25.619   3.779
64529W        W34344  13.805  27.549  14.406
64530W        W34345  24.045  40.885   0.299
64531W        W34346  44.859  44.760   4.711
64532W        W34347  11.672  23.176   4.143
64533W        W34348  27.449  22.085  13.891
64534W        W34349   0.900  19.587  12.875
64535W        W34350  22.668  21.088  13.810
64536W        W34351   4.919   3.893  14.994
64537W        W34352  36.935  38.340   1.288
64538W        W34353   7.738  20.183  14.397
64539W        W34354  14.773   9.258  11.465
64540W        W34355  17.635  10.840  14.388
64541W        W34356  13.806   0.297  10.494
64542W        W34357  33.510  41.899   0.420
64543W        W34358   9.805  40.003   1.909
64544W        W34359  34.418  39.430  13.373
64545W        W34360  11.784   5.747   4.779
64546W        W34361  25.123  15.265  14.315
64547W        W34362  21.646  24.510   2.677
64548W        W34363  37.562  39.861   1.392
64549W        W34364  19.759  22.094   0.358
64550W        W34365  29.162  18.196   4.709
64551W        W34366   1.411  25.090  13.907
64552W        W34367  23.123  22.663   1.784
64553W        W34368  13.833  19.705  14.854
64554W        W34369  14.660   1.977  12.847
64555W        W34370  19.562  32.607  14.407
64556W        W34371   3.356  14.662   1.887
64557W        W34372  41.471   6.386   1.722
64558W        W34373  36.441  40.362  12.851
64559W        W34374   1.962   7.752   3.150
64560W        W34375  20.195  18.101  10.636
64561W        W34376  40.919  31.428   2.229
64562W        W34377   2.427  11.697   3.163
64563W        W34378   0.403  29.661  14.934
64564W        W34379  24.600   6.295   0.366
64565W        W34380  36.405  25.603  14.284
64566W        W34381  35.408   9.782  13.339
64567W        W34382  25.553  37.928   4.701
64568W        W34383  27.680  33.390   4.259
64569W        W34384  13.699  42.005   1.768
64570W        W34385   3.267  22.513  11.073
64571W        W34386  12.126   8.780  13.341
64572W        W34387   7.182  20.538  14.856
64573W        W34388  42.850   6.793   1.447
64574W        W34389  22.640  20.161  14.817
64575W        W34390  27.611  34.433   3.631
64576W        W34391  22.077   9.729  11.957
64577W        W34392  23.674  16.731   4.217
64578W        W34393  40.019  32.105  12.919
64579W        W34394  26.526   1.931   0.941
64580W        W34395  34.940   7.399  14.816
64581W        W34396  40.985   6.297   3.163
64582W        W34397  33.541  35.104  12.036
64583W        W34398  14.778   5.399  12.933
64584W        W34399  43.285  30.646  13.901
64585W        W34400  34.082   3.943   3.358
64586W        W34401  14.119  35.097  13.053
64587W        W34402  35.565  42.982   4.122
64588W        W34403  12.824  21.624   4.747
64589W        W34404  30.149  23.627  11.449
64590W        W34405  17.162  25.521   0.743
64591W        W34406   1.320  31.601  11.106
64592W        W34407  29.944   1.857   0.790
64593W        W34408  21.042  43.791  12.456
64594W        W34409  31.438  22.212  14.327
64595W        W34410  19.276  25.049  14.446
64596W        W34411  11.631  30.557  10.079
64597W        W34412  33.886  37.373  10.069
64598W        W34413  19.607  41.538   3.658
64599W        W34414  29.117  21.607   4.330
64600W        W34415   6.203  39.475   2.390
64601W        W34416  36.090  16.224   3.682
64602W        W34417  24.588  21.035  11.478
64603W        W34418  39.887  16.727   4.225
64604W        W34419  43.469   1.423   3.813
64605W        W34420  39.330   1.916  11.557
64606W        W34421   0.250  15.193   4.306
64607W        W34422   3.880  36.944  12.027
64608W        W34423  40.023  29.004  13.973
64609W        W34424  43.836  20.197   2.372
64610W        W34425  38.014  44.791  13.050
64611W        W34426  22.592  21.743  10.563
64612W        W34427   5.933  30.428  13.050
64613W        W34428  21.597  16.571   0.258
64614W        W34429  44.434  19.183  14.356
64615W        W34430  32.454  39.504  13.377
64616W        W34431  42.414   2.963  14.012
64617W        W34432  40.329  40.049  10.939
64618W        W34433  32.599  12.190  13.944
64619W        W34434   5.760  22.100   1.822
64620W        W34435  30.934  14.830   3.667
64621W        W34436  21.569  43.508  10.530
64622W        W34437  28.633  39.500  12.973
64623W        W34438  35.411  12.139  12.560
64624W        W34439  32.906  18.168  11.017
64625W        W34440   1.422   6.683  14.510
64626W        W34441  28.105  19.727  13.494
64627W        W34442  12.332  30.435  12.946
64628W        W34443  23.585  25.020  12.050
64629W        W34444   6.393  18.665   4.738
64630W        W34445   6.376  37.047   3.772
64631W        W34446  31.466  26.097   2.234
64632W        W34447  39.472  40.920  12.453
64633W        W34448  23.190   1.782   0.903
64634W        W34449  18.653  17.257  11.546
64635W        W34450  35.071  37.349  10.968
64636W        W34451  20.262  42.955   2.412
64637W        W34452  35.981  14.162   1.854
64638W        W34453  16.226  43.362  12.378
64639W        W34454  40.360  27.139   2.184
64640W        W34455  22.230   3.446  10.620
64641W        W34456  15.598  22.168   4.115
64642W        W34457  21.704   7.270   0.376
64643W        W34458   8.354  30.109   1.252
64644W        W34459  13.619  11.678  10.511
64645W        W34460  22.607  28.643   1.335
64646W        W34461  27.638  20.661  14.941
64647W        W34462   5.197   2.846  12.971
64648W        W34463  42.781  20.667   2.768
64649W        W34464  36.555   2.772  11.969
64650W        W34465  13.185  12.174   1.210
64651W        W34466  32.960   1.805  10.407
64652W        W34467  40.005  32.559  11.482
64653W        W34468  30.430  24.149   1.218
64654W        W34469   3.889  14.102   5.192
64655W        W34470   4.413  34.379  13.489
64656W        W34471  33.023  41.867  14.796
64657W        W34472  26.120  10.268  11.520
64658W        W34473  40.442  23.627  11.573
64659W        W34474  15.275  18.612  11.060
64660W        W34475  39.318  17.646  12.515
64661W        W34476  36.854   0.829   4.801
64662W        W34477  35.383  34.415   1.336
64663W        W34478  27.974   4.769   4.648
64664W        W34479   7.750  14.132  10.575
64665W        W34480   7.267  18.097   1.697
64666W        W34481  43.417  12.811   1.734
64667W        W34482  33.968   5.279  10.441
64668W        W34483  13.680  38.976   3.851
64669W        W34484  25.187   3.238  11.951
64670W        W34485  15.244   0.874   1.364
64671W        W34486   9.788  36.518  13.804
64672W        W34487  22.618  35.868  12.064
64673W        W34488  33.962  12.754  12.054
64674W        W34489  19.196  39.369   3.234
64675W        W34490   9.654  12.157   4.220
64676W        W34491  28.560  41.869   1.432
64677W        W34492  43.495   1.341   0.439
64678W        W34493  18.621  10.811  12.992
64679W        W34494  29.494  35.907  10.567
64680W        W34495  41.939   6.249  13.499
64681W        W34496  11.184   5.336  11.592
64682W        W34497   3.839  10.701   0.264
64683W        W34498   2.409  37.427  11.426
64684W        W34499  35.590   8.186  11.862
64685W        W34500  20.727   9.689   0.347
64686W        W34501  21.656  10.842  13.371
64687W        W34502  29.957  22.214   4.327
64688W        W34503  25.558  38.882  11.568
64689W        W34504  17.651  27.511   2.178
64690W        W34505  40.323  20.206   2.680
64691W        W34506  31.140  32.905   0.469
64692W        W34507   8.725  36.848   2.391
64693W        W34508  17.725  37.543  14.287
64694W        W34509   4.934  23.644  13.007
64695W        W34510  37.440  11.742  14.323
64696W        W34511  44.492  17.156   3.385
64697W        W34512  41.533   2.466   2.377
64698W        W34513  27.121  13.229  13.899
64699W        W34514   7.733  18.223   3.670
64700W        W34515   7.706  15.087   3.634
64701W        W34516   3.459  10.752  14.004
64702W        W34517  34.864   9.716  12.846
64703W        W34518  24.045   4.361   2.313
64704W        W34519  23.158  19.552   0.454
64705W        W34520  43.989  23.040   3.632
64706W        W34521  11.168  27.048  14.811
64707W        W34522  15.620   4.876  14.928
64708W        W34523  44.934  26.543  13.885
64709W        W34524   4.803   6.230   0.322
64710W        W34525  28.610   0.936  14.289
64711W        W34526  12.692  18.146   0.806
64712W        W34527  39.485  40.425   0.794
64713W        W34528   8.367  30.454   0.390
64714W        W34529   6.186   9.769   2.875
64715W        W34530  35.569  44.816   2.327
64716W        W34531  21.749  30.072  13.015
64717W        W34532   9.831  18.200  13.340
64718W        W34533   9.245  38.962  13.374
64719W        W34534   9.830  23.111  13.839
64720W        W34535   0.249  10.689  12.010
64721W        W34536  15.768  18.207   2.741
64722W        W34537   8.175  20.543  12.058
64723W        W34538  41.933  19.661  10.106
64724W        W34539  30.122  43.000   2.867
64725W        W34540  41.400  35.078  14.304
64726W        W34541  37.034   5.716  11.032
64727W        W34542   8.222  34.006  11.411
64728W        W34543  17.636  13.107   2.411
64729W        W34544  40.527  29.559   4.600
64730W        W34545  10.797  40.418   4.684
64731W        W34546   1.972  40.342  14.766
64732W        W34547  10.851   8.358   1.398
64733W        W34548  34.875   9.230  12.041
64734W        W34549  38.013  29.593   0.923
64735W        W34550  34.955  13.749  13.949
64736W        W34551   3.924  16.180   2.859
64737W        W34552  19.173  14.770   1.715
64738W        W34553  18.675  34.069  10.430
64739W        W34554  22.244  25.570  12.930
64740W        W34555  31.645  41.376  11.017
64741W        W34556  38.926  34.075  13.907
64742W        W34557  36.375  38.917  12.370
64743W        W34558  22.075  25.979   2.383
64744W        W34559  20.186  28.448  14.770
64745W        W34560  33.900  18.201   3.824
64746W        W34561   0.441  14.609  11.045
64747W        W34562  23.216  44.424  14.405
64748W        W34563  12.757  40.984   1.741
64749W        W34564  18.154  25.480  12.885
64750W        W34565  36.877  14.614   1.906
64751W        W34566  13.208  22.030   3.691
64752W        W34567  26.187  34.926   0.369
64753W        W34568  39.531  18.293   1.380
64754W        W34569  22.038  43.413   2.819
64755W        W34570  41.846  43.913   4.677
64756W        W34571  18.568  13.664   0.880
64757W        W34572   2.399  21.143  11.468
64758W        W34573   4.936   9.889   0.420
64759W        W34574  22.019  32.467   0.758
64760W        W34575  21.227   9.647   3.190
64761W        W34576  14.253  19.545   3.354
64762W        W34577   4.439  11.798  10.632
64763W        W34578  26.520  32.934  12.410
64764W        W34579  15.257   5.792   0.957
64765W        W34580  44.794   4.858  11.439
64766W        W34581  44.916   6.407  13.437
64767W        W34582  17.602  43.994   1.405
64768W        W34583  34.973  20.099   1.699
64769W        W34584  19.639  18.574  14.954
64770W        W34585  20.118  44.793   1.369
64771W        W34586  16.628  10.140   1.931
64772W        W34587  40.524   9.368   3.668
64773W        W34588  27.136   3.784   3.763
64774W        W34589  36.995  14.829  12.920
64775W        W34590  40.966   9.873   2.764
64776W        W34591  41.430  10.862   3.771
64777W        W34592   0.482   9.658   1.339
64778W        W34593   5.419  42.383  11.545
64779W        W34594  15.720  44.397   1.902
64780W        W34595   3.423  33.603   1.414
64781W        W34596  30.618  19.247   2.839
64782W        W34597  41.366   5.878  13.480
64783W        W34598  21.140  24.602  13.481
64784W        W34599  34.061  25.511   2.710
64785W        W34600   7.370  30.462  11.407
64786W        W34601   7.850   7.883   4.632
64787W        W34602   3.232  44.434  14.423
64788W        W34603   8.275   9.683  14.477
64789W        W34604  40.914   6.685  10.940
64790W        W34605  33.578   8.788   1.737
64791W        W34606  22.580  42.011  12.411
64792W        W34607   7.669  10.657  11.947
64793W        W34608  17.250  33.592   0.388
64794W        W34609   8.738  27.060   2.789
64795W        W34610  22.624   3.938   2.831
64796W        W34611  32.529  19.114  13.531
64797W        W34612  44.809   8.253  10.959
64798W        W34613  12.157  27.025   3.201
64799W        W34614  16.708  25.594   4.293
64800W        W34615  23.608  43.893  11.937
64801W        W34616   0.328  26.500  14.812
64802W        W34617   4.424   3.810  12.554
64803W        W34618  28.650  20.226   2.760
64804W        W34619   7.321   3.221  13.886
64805W        W34620  31.601  30.430   2.216
64806W        W34621   3.757  23.651   2.842
64807W        W34622   5.264   6.274  11.590
64808W        W34623  38.943  16.148  11.552
64809W        W34624  23.992  14.755  12.471
64810W        W34625  15.638  41.483   1.804
64811W        W34626  29.121   9.867   3.320
64812W        W34627  21.584   2.421  11.909
64813W        W34628   4.404  31.602   0.878
64814W        W34629  44.354  17.653  13.025
64815W        W34630  18.069  37.510   5.181
64816W        W34631  22.036   1.968   1.286
64817W        W34632  34.980  15.679   2.686
64818W        W34633   2.433  27.566  11.380
64819W        W34634  23.140  41.025   1.262
64820W        W34635  34.372  40.371  14.966
64821W        W34636  39.065   8.862   4.336
64822W        W34637   6.862   5.371  10.900
64823W        W34638   2.728  15.664   2.899
64824W        W34639  14.735  28.442  14.429
64825W        W34640   9.360   0.744   1.830
64826W        W34641   9.799  14.678   3.827
64827W        W34642   4.754  36.864   0.304
64828W        W34643  37.045  13.344  14.329
64829W        W34644   9.169  13.175  14.497
64830W        W34645   3.346  30.065   0.292
64831W        W34646  41.376  13.761  10.916
64832W        W34647  38.538  18.221   0.347
64833W        W34648  44.949  18.705  10.569
64834W        W34649   1.735   1.934  11.470
64835W        W34650  24.568  33.588   3.756
64836W        W34651  16.623  27.521   0.424
64837W        W34652  26.628  17.131  14.820
64838W        W34653   4.786  41.815  13.537
64839W        W34654  18.103  31.631   3.758
64840W        W34655   8.180  15.220  12.491
64841W        W34656  33.598  36.587   1.773
64842W        W34657  22.090   3.812  11.128
64843W        W34658  17.785   5.336   1.897
64844W        W34659  28.486   4.326  12.527
64845W        W34660  21.642  13.315   1.721
64846W        W34661  24.698  22.055   1.912
64847W        W34662  24.177  17.123  11.898
64848W        W34663  34.935  40.043   3.166
64849W        W34664  22.604  44.790   2.238
64850W        W34665  22.246  25.219  12.041
64851W        W34666  19.197  42.343  13.400
64852W        W34667  39.840  34.525   1.211
64853W        W34668   3.753  38.000  10.540
64854W        W34669  42.319  27.593  12.999
64855W        W34670  32.129  11.806  11.996
64856W        W34671  33.941  34.455  11.102
64857W        W34672  38.952  34.614  10.143
64858W        W34673  24.127  17.145   2.813
64859W        W34674   7.264  35.865   2.221
64860W        W34675  23.676  10.218  12.420
64861W        W34676  38.518  38.392  11.997
64862W        W34677  29.136  19.758  12.861
64863W        W34678  32.396  39.420   1.922
64864W        W34679  44.307  14.312  14.940
64865W        W34680  41.792  33.546   3.228
64866W        W34681  19.756  42.411  12.037
64867W        W34682  27.045  24.502   2.359
64868W        W34683  10.735  35.021  13.919
64869W        W34684   7.406  34.934   1.852
64870W        W34685  40.815   8.326   0.930
64871W        W34686   6.898  13.170   1.835
64872W        W34687  34.369  19.082   1.361
64873W        W34688  39.513  42.358  13.508
64874W        W34689  12.736  31.515   0.961
64875W        W34690   4.704  17.712   0.397
64876W        W34691  40.003  12.317   2.673
64877W        W34692  38.013  41.532  14.944
64878W        W34693  16.605  30.011   1.786
64879W        W34694  16.693  41.367  12.372
64880W        W34695  23.560  12.362  11.396
64881W        W34696  37.428   0.797  13.853
64882W        W34697  36.049  26.604   1.258
64883W        W34698  31.001  38.045  12.574
64884W        W34699  17.724  22.569  11.415
64885W        W34700  42.498   6.425  14.947
64886W        W34701   0.461  42.439  14.792
64887W        W34702  31.503  22.014  10.470
64888W        W34703  28.530  11.751  11.973
64889W        W34704  25.570   2.753   0.967
64890W        W34705  14.661  30.437  14.450
64891W        W34706  27.505  14.108   4.739
64892W        W34707   5.320  16.219   0.446
64893W        W34708  39.435  23.532  14.962
64894W        W34709  22.707  14.774   2.699
64895W        W34710  41.437  14.725   4.263
64896W        W34711  36.471  37.483  12.984
64897W        W34712  42.292  34.943  12.401
64898W        W34713  20.216  24.697   1.278
64899W        W34714  37.506  29.621   1.777
64900W        W34715  44.478  19.167   3.210
64901W        W34716  33.946  31.587  10.968
64902W        W34717   7.390   0.857   3.747
64903W        W34718  10.878  15.582   3.775
64904W        W34719  16.595   3.907  11.919
64905W        W34720  15.814  11.265   3.702
64906W        W34721   8.709   9.764   1.406
64907W        W34722  12.668   5.373  11.462
64908W        W34723  32.139  42.033  11.497
64909W        W34724  11.174  20.724   4.206
64910W        W34725  43.380   8.377  12.395
64911W        W34726  39.888  43.350  13.909
64912W        W34727  15.715  38.076   1.410
64913W        W34728  34.536  29.451   0.299
64914W        W34729  26.703  30.014  11.562
64915W        W34730  12.824   5.709  13.426
64916W        W34731  34.420  21.590   2.859
64917W        W34732  15.103   2.295  14.896
64918W        W34733   2.426  31.144  13.482
64919W        W34734  21.037  35.882  11.581
64920W        W34735  35.009   0.491   3.733
64921W        W34736   3.354  40.949   2.367
64922W        W34737  31.407   1.458  10.477
64923W        W34738  38.535  42.915  14.822
64924W        W34739   2.735   8.898  10.585
64925W        W34740  40.841  21.583  11.974
64926W        W34741  40.927  16.689  13.808
64927W        W34742   8.354  30.510  13.998
64928W        W34743   2.927   4.319  11.908
64929W        W34744  18.630   6.186  11.921
64930W        W34745   9.188  33.047  13.335
64931W        W34746  21.102  21.134   3.644
64932W        W34747  31.533  16.122  13.531
64933W        W34748  17.574  26.658   4.245
64934W        W34749  28.045  42.455  14.510
64935W        W34750  24.011  25.995   3.174
64936W        W34751  31.151   5.414  13.483
64937W        W34752  28.971  27.501  10.431
64938W        W34753  41.388  22.024  11.480
64939W        W34754  37.467  40.825  12.943
64940W        W34755  26.477  15.764   4.660
64941W        W34756  20.575  14.753  11.926
64942W        W34757  15.291  26.658   4.832
64943W        W34758   8.856   5.855   0.856
64944W        W34759   7.391  21.673  14.487
64945W        W34760  41.341  17.607  11.401
64946W        W34761  18.760  13.646   1.917
64947W        W34762   7.670  12.300  11.003
64948W        W34763  34.013  33.450  13.843
64949W        W34764   8.843  19.252  10.503
64950W        W34765  21.148   8.888  10.926
64951W        W34766  21.250  30.545  12.369
64952W        W34767  32.610  18.184  14.777
64953W        W34768  23.648  35.593   1.935
64954W        W34769  41.974  39.401  11.475
64955W        W34770  12.713  25.182   0.328
64956W        W34771   4.817   2.776   2.294
64957W        W34772  25.049   1.249   2.288
64958W        W34773  41.842  33.055   1.700
64959W        W34774   9.212  14.203  11.546
64960W        W34775  14.272  24.200  12.517
64961W        W34776  30.467  43.355   1.784
64962W        W34777  14.797  32.462  13.961
64963W        W34778  40.855   4.706  12.556
64964W        W34779  17.583  33.891   4.318
64965W        W34780  15.669  14.608   3.705
64966W        W34781   8.337  18.186  10.615
64967W        W34782  34.894  14.677   2.831
64968W        W34783  25.586   3.768   1.369
64969W        W34784  25.972  15.227   1.354
64970W        W34785  40.483  34.960  13.912
64971W        W34786  26.556   2.949  12.862
64972W        W34787  13.325  35.084  13.913
64973W        W34788  38.999  18.635   2.283
64974W        W34789   6.412  16.694  14.449
64975W        W34790  25.002  10.665   9.968
64976W        W34791  10.702  43.421   0.273
64977W        W34792  14.625   0.347  11.556
64978W        W34793  12.356  17.206   2.852
64979W        W34794   4.887  20.055   3.832
64980W        W34795   0.878  29.448   4.120
64981W        W34796  33.434  42.985   0.309
64982W        W34797  41.873  21.114  12.390
64983W        W34798   1.277   9.278   4.788
64984W        W34799  33.128  37.369   4.639
64985W        W34800   7.331  19.622  11.855
64986W        W34801   5.758   0.860  13.449
64987W        W34802  22.656  22.553   4.283
64988W        W34803  30.531  22.129  10.915
64989W        W34804  25.549  16.691  12.484
64990W        W34805  14.140   0.760   1.702
64991W        W34806   3.787  18.227  11.383
64992W        W34807   7.885  17.799  14.838
64993W        W34808  10.873  38.548  13.408
64994W        W34809  16.078  37.059   0.736
64995W        W34810   0.900  40.006   3.286
64996W        W34811  29.054  22.239  10.480
64997W        W34812  41.348  28.092  13.963
64998W        W34813  36.519   0.338   1.302
64999W        W34814  17.616  20.564  10.625
65000W        W34815  32.919  19.129  10.887
65001W        W34816   5.316   0.757   0.736
65002W        W34817   8.269   3.230  10.917
65003W        W34818  17.073  32.509  13.373
65004W        W34819  16.784  18.661   0.948
65005W        W34820  30.016  23.003  13.402
65006W        W34821  41.980  18.708   3.175
65007W        W34822  37.470  22.019   3.309
65008W        W34823  40.930  42.851   2.898
65009W        W34824  30.563   0.402   1.255
65010W        W34825  44.807  44.879   2.331
65011W        W34826  19.276  24.981  12.457
65012W        W34827   0.780   0.357   4.725
65013W        W34828   7.695  22.721  12.866
65014W        W34829  27.954  39.855  13.318
65015W        W34830   0.273  35.956   0.423
65016W        W34831   4.206  34.511   3.642
65017W        W34832  28.590   0.339  13.454
65018W        W34833  22.533  40.807  10.955
65019W        W34834  32.129  36.428  13.926
65020W        W34835  43.315  20.125  12.412
65021W        W34836   4.775  40.474  13.438
65022W        W34837   1.741  20.042  10.501
65023W        W34838  22.157  39.809  10.447
65024W        W34839  10.270  40.987   2.893
65025W        W34840  37.044  38.928  10.976
65026W        W34841  30.490  33.103  11.902
65027W        W34842  17.664  28.186   4.288
65028W        W34843  38.430  40.540  11.418
65029W        W34844   7.731  43.404   4.147
65030W        W34845  11.218  16.580  14.288
65031W        W34846   8.341  25.169   3.676
65032W        W34847  27.484  32.082   4.305
65033W        W34848   5.352  36.080   3.265
65034W        W34849  26.147  34.399  12.545
65035W        W34850   9.750  15.634   0.875
65036W        W34851  43.349  22.086  11.401
65037W        W34852  15.734  16.800   4.601
65038W        W34853  23.685  31.525   2.360
65039W        W34854  44.905  27.150  14.974
65040W        W34855  29.036  16.309   2.702
65041W        W34856   0.418  17.756  13.861
65042W        W34857   5.218  17.736   1.851
65043W        W34858  20.641  24.637   2.418
65044W        W34859  27.980   5.843   1.436
65045W        W34860  29.030   6.817   2.417
65046W        W34861   8.790  22.537  13.944
65047W        W34862  22.527  40.879  10.040
65048W        W34863  39.034   7.352  11.048
65049W        W34864   2.947  28.976  13.900
65050W        W34865  20.108  43.297   0.888
65051W        W34866  20.236  40.017  14.398
65052W        W34867  26.079  30.498   4.142
65053W        W34868  26.970  22.218  11.068
65054W        W34869  22.701  42.458   1.263
65055W        W34870  40.402  29.032  13.027
65056W        W34871  34.406  19.206  14.833
65057W        W34872  27.035  14.288   4.230
65058W        W34873   1.453  42.858   3.260
65059W        W34874  40.032  33.022  14.384
65060W        W34875  27.540  10.715   2.849
65061W        W34876  23.572  41.407  10.590
65062W        W34877  18.676  38.523   4.769
65063W        W34878   9.783  44.483   1.235
65064W        W34879  24.491  15.822   2.231
65065W        W34880   2.736   0.760   0.250
65066W        W34881  41.937  43.496   4.730
65067W        W34882  21.680  33.615  13.414
65068W        W34883   5.690  32.887   3.248
65069W        W34884   4.753  36.521   2.735
65070W        W34885  21.207  44.839   2.242
65071W        W34886  34.459  18.610   1.935
65072W        W34887  19.246  21.712   0.745
65073W        W34888   4.834   9.833   4.767
65074W        W34889  24.713  34.897  14.017
65075W        W34890  41.522   4.883  10.416
65076W        W34891  23.042  23.625   1.785
65077W        W34892  11.302  39.409   3.788
65078W        W34893  26.687  11.142   1.422
65079W        W34894  36.881  35.380  11.475
65080W        W34895  24.489  14.246   0.870
65081W        W34896  14.276  20.747   0.887
65082W        W34897  41.953   9.718   4.348
65083W        W34898   2.281  22.684  14.826
65084W        W34899  40.934   9.240  12.415
65085W        W34900   9.237  15.231   2.868
65086W        W34901  28.068  14.616  10.620
65087W        W34902   4.824  10.206   2.386
65088W        W34903   6.920  17.603  11.401
65089W        W34904  31.101  30.618   0.766
65090W        W34905   7.834  44.950  14.412
65091W        W34906  18.066  35.582  14.452
65092W        W34907   6.245  34.897  11.376
65093W        W34908  39.492  21.094   1.238
65094W        W34909   6.251   0.329  12.360
65095W        W34910   8.734   4.863  14.792
65096W        W34911  37.399  43.317   0.394
65097W        W34912  40.473  11.736  14.794
65098W        W34913  10.224  17.795  11.108
65099W        W34914  42.507  11.246   4.248
65100W        W34915  30.430  12.205   2.670
65101W        W34916  16.593  30.973  10.999
65102W        W34917  31.958  17.240   3.325
65103W        W34918  15.257  27.515  14.437
65104W        W34919  15.618  19.740   4.802
65105W        W34920  10.688  37.971   0.872
65106W        W34921  15.587  28.090   2.271
65107W        W34922  19.677  29.968   4.794
65108W        W34923   4.721  25.499   0.752
65109W        W34924   7.375  33.044  11.095
65110W        W34925  20.749  12.286   0.447
65111W        W34926  30.604   7.335   1.357
65112W        W34927  42.365   1.803   1.845
65113W        W34928  33.533   8.746  14.990
65114W        W34929  25.700  25.016  11.914
65115W        W34930  17.560  30.568   3.220
65116W        W34931  32.580  36.414   4.678
65117W        W34932   8.729  17.180   4.273
65118W        W34933  43.299  44.297   1.827
65119W        W34934  15.115  20.105   2.301
65120W        W34935  22.245  15.633   0.871
65121W        W34936  15.733  28.498   1.221
65122W        W34937   6.214  32.905  10.945
65123W        W34938   2.336  10.258   2.891
65124W        W34939   9.282  35.361  12.051
65125W        W34940  41.025  27.595   1.288
65126W        W34941  13.792  21.098   1.314
65127W        W34942  12.166  43.398   0.767
65128W        W34943   8.225  38.896   4.136
65129W        W34944  23.563  21.139  13.982
65130W        W34945  39.432  17.652  13.866
65131W        W34946  36.971   8.401  12.038
65132W        W34947  19.747  14.156  10.973
65133W        W34948   6.799  33.054  14.869
65134W        W34949   4.436  11.372  14.295
65135W        W34950  10.708  16.751   5.189
65136W        W34951  22.661  42.337  14.992
65137W        W34952  31.482  21.242  10.922
65138W        W34953  14.793  36.020   4.205
65139W        W34954  11.850   7.229  11.456
65140W        W34955   8.342  43.415   1.447
65141W        W34956   5.430  42.515   4.227
65142W        W34957  22.693  28.570  13.324
65143W        W34958  37.919  41.362   3.343
65144W        W34959  29.546  30.468   9.993
65145W        W34960   7.776  28.678   0.817
65146W        W34961  31.493   5.427   3.865
65147W        W34962  43.299  40.492  10.503
65148W        W34963   0.274   4.251  13.544
65149W        W34964  28.624  37.999   4.802
65150W        W34965  38.555  15.283  11.390
65151W        W34966  35.384  32.937   0.828
65152W        W34967   5.834  20.652   3.782
65153W        W34968   8.386  31.561   2.674
65154W        W34969  33.590   2.747  12.889
65155W        W34970  12.158  16.244  12.450
65156W        W34971  20.035  20.694   4.118
65157W        W34972  16.184  17.777   3.783
65158W        W34973   6.688   7.295   2.361
65159W        W34974  13.657  10.836   4.320
65160W        W34975  13.248   3.715   1.418
65161W        W34976  16.789  22.575   4.785
65162W        W34977   4.730  29.448  13.054
65163W        W34978  23.670   8.234  11.974
65164W        W34979  30.947  22.126  14.815
65165W        W34980  22.701  17.246   4.253
65166W        W34981   1.337  14.243   1.865
65167W        W34982  31.138  10.178   0.775
65168W        W34983  14.753  19.160  14.844
65169W        W34984  32.070  37.057   4.778
65170W        W34985  35.481  24.666  14.904
65171W        W34986  34.993  43.346   3.828
65172W        W34987   6.421  34.600   1.407
65173W        W34988   5.304  26.083   1.852
65174W        W34989  41.345  19.062  10.413
65175W        W34990  11.686  11.640  10.928
65176W        W34991  39.992  40.383  12.058
65177W        W34992  44.755  33.596   0.809
65178W        W34993  36.059  43.991  14.374
65179W        W34994   2.279  34.084  11.058
65180W        W34995  24.711   2.291   3.307
65181W        W34996  26.958  16.667   0.318
65182W        W34997   1.315  12.152  14.456
65183W        W34998  26.662  36.563   3.153
65184W        W34999  29.954  16.759   2.701
65185W        W35000  36.882   6.376  10.459
65186W        W35001   9.839  18.284   4.819
65187W        W35002  32.459   6.340  11.005
65188W        W35003  18.729  29.615   4.782
65189W        W35004  27.455  14.620  13.032
65190W        W35005   6.880  38.960   1.856
65191W        W35006  22.747  33.473   1.855
65192W        W35007   6.424  36.998   4.814
65193W        W35008  28.495   9.688  14.878
65194W        W35009  18.287  13.324  14.799
65195W        W35010  37.087  42.381   4.159
65196W        W35011  19.183  20.531  11.376
65197W        W35012  37.400  27.016  11.856
65198W        W35013  32.613  38.015   3.353
65199W        W35014   3.414  15.615  12.007
65200W        W35015  27.519  43.408   4.748
65201W        W35016  22.733  20.258   4.201
65202W        W35017  28.107  30.475  10.894
65203W        W35018  40.857  10.725   1.352
65204W        W35019  40.341   8.400   5.582
65205W        W35020  44.925  40.432  13.835
65206W        W35021  35.046   6.378  14.023
65207W        W35022  43.477  19.681  12.052
65208W        W35023  30.937  31.059   0.464
65209W        W35024   7.328  27.650  12.562
65210W        W35025  38.837  15.270   4.600
65211W        W35026  14.172   8.707   0.348
65212W        W35027  29.603  23.174   1.827
65213W        W35028  17.093  44.928   3.864
65214W        W35029  23.605  43.827  12.491
65215W        W35030  17.297  36.083   0.871
65216W        W35031  30.641  26.065  11.857
65217W        W35032  13.308  35.042   3.370
65218W        W35033  10.164  21.040  13.414
65219W        W35034  12.718   3.935   2.263
65220W        W35035  40.894  25.509  11.516
65221W        W35036  20.643  17.278   2.717
65222W        W35037  10.264  38.490  11.888
65223W        W35038   6.748  18.725  10.538
65224W        W35039  36.911  33.983   9.509
65225W        W35040   9.209  26.634  10.428
65226W        W35041  37.532  15.751  10.933
65227W        W35042  14.719  29.618  14.854
65228W        W35043  36.050  35.461  10.407
65229W        W35044  34.070  33.532   2.407
65230W        W35045  19.576  44.842   3.685
65231W        W35046   2.469   8.837  13.011
65232W        W35047  33.978  35.913  13.017
65233W        W35048  28.994  44.305   4.809
65234W        W35049   0.807  44.263  13.403
65235W        W35050  37.911  22.156  12.460
65236W        W35051  28.653  21.165  13.977
65237W        W35052  37.476  28.040   2.750
65238W        W35053  39.453  31.013  13.376
65239W        W35054  35.033  29.163   0.387
65240W        W35055  40.931  40.513  14.784
65241W        W35056  37.990  19.156  11.489
65242W        W35057  42.791  44.438   5.212
65243W        W35058  23.090  32.397  12.516
65244W        W35059  43.997  35.889  13.350
65245W        W35060  44.388   1.949   2.320
65246W        W35061  31.417  37.527   4.153
65247W        W35062  34.576  14.725  12.363
65248W        W35063  13.735  27.986   0.849
65249W        W35064  17.305  13.272  12.492
65250W        W35065  10.150  42.936  14.834
65251W        W35066  28.568  10.866   4.185
65252W        W35067  43.838  39.951   4.199
65253W        W35068  41.934  18.178  13.958
65254W        W35069   4.812  30.501   4.243
65255W        W35070  23.100  34.580  10.557
65256W        W35071  20.691  37.941   4.235
65257W        W35072  13.256  25.471   1.855
65258W        W35073  27.186   1.314  14.281
65259W        W35074  10.291  13.119  13.484
65260W        W35075   6.213  44.467  10.595
65261W        W35076  34.411  10.232   3.682
65262W        W35077  19.154  31.550  12.019
65263W        W35078   6.336  44.818  11.869
65264W        W35079  37.541  36.081   0.255
65265W        W35080  24.070   8.855   0.370
65266W        W35081   9.383  20.059  11.871
65267W        W35082  41.292   6.836   4.208
65268W        W35083  20.076  24.182  13.927
65269W        W35084   9.335  22.572  13.795
65270W        W35085  17.758  28.984  10.417
65271W        W35086  13.267  41.393   3.216
65272W        W35087  37.516   6.746  13.020
65273W        W35088  14.179  33.455   0.860
65274W        W35089  17.239   9.879   2.365
65275W        W35090  29.499  30.445  11.500
65276W        W35091   4.386  42.395   0.776
65277W        W35092   6.416   6.317   9.945
65278W        W35093  10.182   2.437  13.379
65279W        W35094  28.151  28.603  11.521
65280W        W35095  22.110  13.190   4.117
65281W        W35096  32.448  44.810   1.916
65282W        W35097  16.161   0.294   3.159
65283W        W35098  18.253  38.351   1.745
65284W        W35099  31.485  21.531   4.733
65285W        W35100  23.548   8.376  10.546
65286W        W35101   3.325   0.494   0.383
65287W        W35102  18.595  42.526   2.802
65288W        W35103  34.910  28.637   4.128
65289W        W35104  32.998  40.886   4.306
65290W        W35105  43.847  22.197   4.836
65291W        W35106  25.548  36.887  14.940
65292W        W35107  41.965   1.365  14.445
65293W        W35108  18.619  16.173   0.298
65294W        W35109  40.804  18.226  14.789
65295W        W35110   9.195  12.848   3.829
65296W        W35111  41.820  43.476   4.288
65297W        W35112  39.406   7.869  12.964
65298W        W35113  33.093  42.781   4.315
65299W        W35114   0.317  13.675   0.400
65300W        W35115  36.413  20.598  14.924
65301W        W35116   1.816  41.321  12.860
65302W        W35117  36.983  33.003  12.868
65303W        W35118  19.748  35.491  13.980
65304W        W35119  32.103   3.274  11.476
65305W        W35120  23.566   6.859  14.317
65306W        W35121  10.667  25.170   5.314
65307W        W35122  33.046  11.716   3.377
65308W        W35123   9.760  36.407   3.187
65309W        W35124  44.954  38.467   2.796
65310W        W35125  28.029  12.777  10.061
65311W        W35126  16.082  29.442   0.833
65312W        W35127  35.426  37.491  11.093
65313W        W35128  14.218  10.324  12.489
65314W        W35129  16.233   0.458   0.812
65315W        W35130  40.491  43.776   3.806
65316W        W35131   2.902  30.974  12.842
65317W        W35132  42.820  15.581  14.509
65318W        W35133  10.828  18.776   3.767
65319W        W35134  20.199   8.723  14.447
65320W        W35135   2.413  39.427  11.590
65321W        W35136  26.201  34.009   0.863
65322W        W35137  11.146  38.893  11.492
65323W        W35138  16.226  18.296  11.552
65324W        W35139  13.840   3.227   4.753
65325W        W35140  39.971  34.039  12.845
65326W        W35141  15.144  23.001   1.438
65327W        W35142   8.343  41.328   1.257
65328W        W35143  29.605  40.497   0.763
65329W        W35144  35.508   0.801  13.516
65330W        W35145  23.537   2.274  13.471
65331W        W35146  22.165  28.622   1.415
65332W        W35147   5.229  19.571   2.318
65333W        W35148  28.946  30.041  11.014
65334W        W35149  23.728  30.539   4.280
65335W        W35150  21.126   3.271  12.554
65336W        W35151   8.748  11.798  10.519
65337W        W35152  34.977  21.058   3.765
65338W        W35153  26.471  42.346   4.223
65339W        W35154  15.665  27.499   0.937
65340W        W35155  38.339  34.090  14.396
65341W        W35156  19.555   3.764  13.802
65342W        W35157   9.333   2.784  11.459
65343W        W35158  29.484  34.384   0.900
65344W        W35159   0.271  44.843  12.832
65345W        W35160  11.194  30.622  11.550
65346W        W35161  30.109  24.042  14.494
65347W        W35162   1.958  39.531  11.376
65348W        W35163  35.018  44.290   3.735
65349W        W35164  40.480  26.656  14.484
65350W        W35165   0.297  30.099   2.755
65351W        W35166   8.376   2.305  13.825
65352W        W35167  27.087  40.410   4.204
65353W        W35168  44.903  40.520  12.370
65354W        W35169  31.471   2.903  13.928
65355W        W35170  16.578  21.668  14.809
65356W        W35171  38.440   5.285   4.724
65357W        W35172  33.981  40.841  14.820
65358W        W35173  20.618   3.803  11.430
65359W        W35174  33.903  12.732   0.871
65360W        W35175  20.100  38.858  11.514
65361W        W35176  38.953  16.090   4.197
65362W        W35177  42.438  32.620  13.333
65363W        W35178  25.658  24.009  13.447
65364W        W35179   9.359  39.408   9.997
65365W        W35180  35.387  13.624  14.820
65366W        W35181  17.651  21.239  14.766
65367W        W35182  17.074  33.066   2.249
65368W        W35183  11.360  12.228   0.298
65369W        W35184  10.793  33.415   2.220
65370W        W35185  28.963  31.126  13.414
65371W        W35186  31.475  31.599   2.792
65372W        W35187   4.784  32.406  12.976
65373W        W35188  19.658  44.462  14.288
65374W        W35189  38.895  25.992  10.060
65375W        W35190  15.763  12.785  12.861
65376W        W35191  43.393  19.149   1.893
65377W        W35192  42.892  38.455   0.390
65378W        W35193   0.823  13.347  13.972
65379W        W35194  37.415   7.282  12.048
65380W        W35195   4.859  24.585   1.726
65381W        W35196  15.709  13.684   4.715
65382W        W35197  39.345  39.418   2.787
65383W        W35198  31.490  40.932   3.721
65384W        W35199   7.410  12.698  11.607
65385W        W35200  41.016  35.467  14.947
65386W        W35201  19.681  21.160  14.995
65387W        W35202   2.791  13.270  13.449
65388W        W35203   0.788  24.574  13.356
65389W        W35204  37.503  10.878   4.821
65390W        W35205  38.942  12.356   1.336
65391W        W35206  25.491  31.028  12.846
65392W        W35207  29.143  26.515   0.821
65393W        W35208  35.980  35.089   2.363
65394W        W35209   7.878  29.648  12.073
65395W        W35210   5.392   7.352   1.926
65396W        W35211  39.490  28.577  13.530
65397W        W35212  12.133   5.345   2.868
65398W        W35213  10.273   8.659  12.553
65399W        W35214  17.239   1.471   2.673
65400W        W35215  20.236  23.071   1.357
65401W        W35216  27.068  30.983   3.832
65402W        W35217  16.656  38.419   0.770
65403W        W35218  33.511  29.617  11.084
65404W        W35219  15.169   5.877  13.512
65405W        W35220  27.465  16.771   3.368
65406W        W35221  42.502  19.155   1.392
65407W        W35222   2.288  26.063  10.951
65408W        W35223  25.122  31.597  12.462
65409W        W35224  34.424  40.896   1.372
65410W        W35225  22.098  26.976  12.849
65411W        W35226  34.486  36.520  12.479
65412W        W35227   3.710  19.719   5.148
65413W        W35228  34.602  24.627  14.979
65414W        W35229  38.909  41.944   1.724
65415W        W35230   2.463  34.880  13.464
65416W        W35231  32.023  32.981   1.921
65417W        W35232  30.415  26.594  10.506
65418W        W35233  18.142  41.840  12.471
65419W        W35234   3.842   1.761  11.477
65420W        W35235  37.902  33.977   2.380
65421W        W35236  16.590  37.907   0.887
65422W        W35237  20.707  35.057   4.136
65423W        W35238  43.889  22.694   2.272
65424W        W35239  14.678   8.858  12.904
65425W        W35240  29.097  28.057   3.383
65426W        W35241  14.327  39.846  13.442
65427W        W35242  38.465  17.588   2.666
65428W        W35243  32.607  11.252   1.384
65429W        W35244  39.344  36.484   0.856
65430W        W35245  14.800  15.798   0.755
65431W        W35246  23.531  10.798   1.341
65432W        W35247   8.676  37.835   2.254
65433W        W35248  18.235  36.989  12.950
65434W        W35249  10.645  16.255  11.432
65435W        W35250  16.598   2.385   4.620
65436W        W35251  44.935  30.982  13.972
65437W        W35252   5.929   0.830   2.712
65438W        W35253   3.424  37.548  14.420
65439W        W35254  27.472  24.716   0.902
65440W        W35255  16.697  18.558  11.931
65441W        W35256  18.595  20.745  12.429
65442W        W35257   6.865   6.855   4.703
65443W        W35258  40.806  30.113   0.367
65444W        W35259  19.673  39.901   2.748
65445W        W35260  29.952  30.502  11.475
65446W        W35261  14.616  34.563   3.375
65447W        W35262   7.749  38.408   3.672
65448W        W35263  21.713   6.861  14.506
65449W        W35264  36.943  30.487  10.898
65450W        W35265  43.326  39.842   3.263
65451W        W35266  29.463   7.893   4.766
65452W        W35267  20.081  39.476  13.477
65453W        W35268  37.536  20.225  10.562
65454W        W35269   5.288  24.025  13.906
65455W        W35270  32.901  31.607   3.813
65456W        W35271  37.469  44.483   1.865
65457W        W35272   5.390  44.923  11.890
65458W        W35273  24.537  13.145   2.408
65459W        W35274  23.183  24.570  11.990
65460W        W35275   4.728  16.612  11.565
65461W        W35276   5.370  29.522   1.830
65462W        W35277  29.643  36.392   4.799
65463W        W35278  18.283   1.793  10.629
65464W        W35279  28.654  17.297  10.582
65465W        W35280   9.219  32.455   0.827
65466W        W35281   4.224   6.819   0.817
65467W        W35282  35.391  37.472  12.355
65468W        W35283   7.713  16.081   3.284
65469W        W35284  27.064  37.951   4.118
65470W        W35285  14.222  10.764   3.283
65471W        W35286  30.507   9.832  13.883
65472W        W35287  37.916  33.461   0.917
65473W        W35288   5.300   3.425   1.786
65474W        W35289  22.006  41.883   2.185
65475W        W35290   9.175  17.623   0.726
65476W        W35291  39.372   1.337   1.896
65477W        W35292  38.942   8.790   1.922
65478W        W35293  41.438  16.691   2.837
65479W        W35294  18.257  10.195   2.291
65480W        W35295  23.159  30.000   2.712
65481W        W35296  35.528  19.568   2.819
65482W        W35297  31.118  36.537  12.828
65483W        W35298  40.811   5.382  10.641
65484W        W35299  26.095   6.356  14.875
65485W        W35300   1.835  27.652   2.894
65486W        W35301  41.299  30.638   1.874
65487W        W35302  38.914  32.971  10.546
65488W        W35303  33.050   5.731   1.436
65489W        W35304   3.930  12.317  14.276
65490W        W35305  39.424   4.900   2.766
65491W        W35306  20.179  28.093  10.639
65492W        W35307   9.830  29.953  12.578
65493W        W35308  21.710  21.124   1.380
65494W        W35309  18.719  21.212   1.240
65495W        W35310  32.533  31.567  11.106
65496W        W35311   5.432  31.964  14.904
65497W        W35312  44.429   5.771   3.769
65498W        W35313  16.294   9.790   2.302
65499W        W35314  42.344  27.504   2.384
65500W        W35315  41.368  15.126  14.376
65501W        W35316  42.810  17.083  10.635
65502W        W35317  36.094  41.918  14.779
65503W        W35318  26.020  26.024   4.626
65504W        W35319  28.088   7.367   4.178
65505W        W35320  27.945  22.235   0.292
65506W        W35321   2.402   2.822  13.492
65507W        W35322   8.182  40.811   3.236
65508W        W35323  15.300  30.538   1.298
65509W        W35324  34.463  40.988  10.582
65510W        W35325  24.621  40.514   9.996
65511W        W35326  13.645  21.581   3.264
65512W        W35327  27.526  36.892  11.039
65513W        W35328  23.088  21.156   3.179
65514W        W35329  39.908  11.188  14.421
65515W        W35330  31.949  40.445  13.946
65516W        W35331  23.179  15.179  11.913
65517W        W35332  34.469  41.810  11.600
65518W        W35333  22.710  13.297   4.713
65519W        W35334  22.247  29.983   1.258
65520W        W35335   4.898  16.652   0.794
65521W        W35336   5.227  27.101   2.261
65522W        W35337   9.330   6.751  13.474
65523W        W35338   8.691  32.083   2.336
65524W        W35339  24.529  34.464   1.346
65525W        W35340  15.625   7.244   1.313
65526W        W35341   1.966  32.415  12.470
65527W        W35342  28.641  22.144  13.361
65528W        W35343  28.110  24.481  13.453
65529W        W35344  34.898  10.158   4.776
65530W        W35345  20.044  35.860  11.004
65531W        W35346  43.285   3.825   1.407
65532W        W35347  22.181  26.685   1.702
65533W        W35348  12.344   8.276   3.374
65534W        W35349  35.528  30.952  13.815
65535W        W35350  28.518  41.023  10.927
65536W        W35351  28.969   2.279  14.490
65537W        W35352   4.839  20.620   2.749
65538W        W35353  39.053  12.305   2.759
65539W        W35354   8.840  35.062  14.318
65540W        W35355  23.196  39.460  12.350
65541W        W35356  36.507  33.897  14.490
65542W        W35357  22.139   8.722   1.823
65543W        W35358  27.996  11.151  11.461
65544W        W35359  15.682  32.586  14.953
65545W        W35360  16.171   4.216   1.747
65546W        W35361  44.831  18.272  14.972
65547W        W35362  17.565  31.445   3.226
65548W        W35363  19.247  39.848   1.768
65549W        W35364  15.205   3.948  11.025
65550W        W35365  28.543  22.595   4.832
65551W        W35366  39.026  10.681   2.198
65552W        W35367  24.185  38.070  10.136
65553W        W35368   0.796  16.074  11.435
65554W        W35369   9.248  40.304   3.720
65555W        W35370  11.142  38.481   3.303
65556W        W35371  36.088   4.734   2.283
65557W        W35372  31.921  34.523  12.540
65558W        W35373   6.863  12.619   2.770
65559W        W35374  31.902  25.144   3.324
65560W        W35375  40.524   0.759  12.987
65561W        W35376  35.870   7.190   3.794
65562W        W35377   4.348  14.741   1.860
65563W        W35378  37.985  32.577  13.371
65564W        W35379   1.449  26.053  14.916
65565W        W35380  44.494  16.259   4.311
65566W        W35381  22.549  29.162  11.943
65567W        W35382   3.439   2.860  13.913
65568W        W35383  17.719  27.530   4.317
65569W        W35384  19.264  43.314  12.077
65570W        W35385   1.354  30.493   3.157
65571W        W35386  17.722  21.135  12.851
65572W        W35387  35.027   2.245   3.203
65573W        W35388   7.768  11.820  12.391
65574W        W35389   9.758  18.137   0.407
65575W        W35390   0.356  38.535   1.367
65576W        W35391  26.074  36.041   2.288
65577W        W35392  14.781   6.364  10.612
65578W        W35393  15.095  12.320   1.716
65579W        W35394  25.519   3.288   3.380
65580W        W35395  16.094  27.607   2.181
65581W        W35396  42.397  40.532   4.163
65582W        W35397   2.253   8.855  14.973
65583W        W35398  44.496  13.791  11.486
65584W        W35399   3.902  11.726  12.984
65585W        W35400   2.252  10.214  11.564
65586W        W35401   9.888   6.893   0.920
65587W        W35402   4.781  27.099  10.571
65588W        W35403  11.358   1.842  11.020
65589W        W35404  33.553  42.953   1.809
65590W        W35405  40.033  13.676   0.437
65591W        W35406  40.410   8.192   1.230
65592W        W35407  24.123  31.497   3.257
65593W        W35408  39.907   1.930   3.725
65594W        W35409  13.137  21.171   2.669
65595W        W35410   1.809  12.233  13.827
65596W        W35411  35.931   5.742  11.397
65597W        W35412  41.034   4.829  14.929
65598W        W35413  37.051   5.417  13.969
65599W        W35414  40.520  37.474  10.516
65600W        W35415   3.454  39.490  14.383
65601W        W35416   6.272  24.097   2.897
65602W        W35417  24.706  33.002   0.786
65603W        W35418  20.205  41.887   4.687
65604W        W35419  33.116   6.798   2.354
65605W        W35420  29.663   8.702   1.418
65606W        W35421  41.902  41.452   0.380
65607W        W35422  17.588  37.367   1.865
65608W        W35423   9.369  41.911  12.376
65609W        W35424  44.890  26.175   2.713
65610W        W35425  25.672  20.076  14.498
65611W        W35426   0.375  43.902   4.324
65612W        W35427  20.537  22.149   0.369
65613W        W35428  17.087   4.823  13.495
65614W        W35429  27.082   2.877   4.710
65615W        W35430  23.151   0.770   2.715
65616W        W35431  25.559  36.391  10.433
65617W        W35432  17.798  43.416   1.357
65618W        W35433  41.487  22.593   2.282
65619W        W35434  33.967  14.335   5.190
65620W        W35435   0.921   6.877   1.899
65621W        W35436   6.782   3.216   1.350
65622W        W35437  22.593  29.059  10.584
65623W        W35438  18.279  17.796   3.305
65624W        W35439   5.799  16.738   1.855
65625W        W35440  32.899  44.343   4.128
65626W        W35441  38.518  39.538  13.895
65627W        W35442   9.242   8.830  10.456
65628W        W35443   8.360  22.165   2.293
65629W        W35444  30.465   8.845   4.763
65630W        W35445   6.817   1.819  14.999
65631W        W35446  26.625  39.486   3.206
65632W        W35447  10.232  13.662  14.490
65633W        W35448  21.750   8.288   3.673
65634W        W35449  21.574  38.363  11.873
65635W        W35450  28.590  35.909   2.289
65636W        W35451  41.896  32.123   1.366
65637W        W35452  38.478  33.472   1.874
65638W        W35453  36.970   7.825   0.858
65639W        W35454  24.027  32.010   4.658
65640W        W35455  18.705  22.610  13.343
65641W        W35456  41.807   1.342  13.468
65642W        W35457  41.916  10.866  12.953
65643W        W35458   1.407  18.107  11.898
65644W        W35459   6.358  22.682   3.308
65645W        W35460   5.327   2.376  11.927
65646W        W35461  36.474  32.579  14.906
65647W        W35462  29.634  32.457  11.977
65648W        W35463  12.289   8.292  13.370
65649W        W35464  12.856   2.339   1.871
65650W        W35465  44.981  34.454   2.770
65651W        W35466  41.795   6.790   4.711
65652W        W35467  39.415  40.411  10.537
65653W        W35468  33.467  18.657  10.638
65654W        W35469   4.336  33.096  14.297
65655W        W35470   2.461  26.066   1.397
65656W        W35471  21.071  19.645  13.379
65657W        W35472   8.831  40.020  10.920
65658W        W35473  14.759   2.791   0.420
65659W        W35474  35.556  19.251   1.400
65660W        W35475  24.011  11.226  13.504
65661W        W35476  31.572  37.342   3.339
65662W        W35477  28.106   2.411   2.694
65663W        W35478   0.750  12.204   1.345
65664W        W35479  38.377   5.224  10.559
65665W        W35480  14.721  41.889  10.525
65666W        W35481  37.379  36.998   3.317
65667W        W35482  38.550  30.543  12.862
65668W        W35483  14.173   3.371  13.515
65669W        W35484  18.067  21.143  10.928
65670W        W35485  13.241  33.932   0.341
65671W        W35486  22.630  31.937   0.751
65672W        W35487  29.136  39.854   4.715
65673W        W35488  29.028  18.189  14.938
65674W        W35489   0.416   0.882   3.735
65675W        W35490  34.105   4.280  10.454
65676W        W35491  28.018  13.778  11.445
65677W        W35492  21.571  11.132   2.688
65678W        W35493  13.654  24.626   3.215
65679W        W35494  11.806  13.294   4.656
65680W        W35495   6.770  25.020  11.935
65681W        W35496  14.262  25.979  12.530
65682W        W35497   2.430  40.953  12.544
65683W        W35498  10.858  43.339  12.002
65684W        W35499  42.465  27.598  11.557
65685W        W35500   6.198   0.785   2.212
65686W        W35501  36.376  11.628  14.932
65687W        W35502  43.493  19.115  14.282
65688W        W35503  40.882   9.355  11.092
65689W        W35504  24.607  40.430  12.550
65690W        W35505  21.108  20.244   2.737
65691W        W35506  38.033  27.032  12.079
65692W        W35507   0.400   0.370  11.926
65693W        W35508  27.532  13.275   2.338
65694W        W35509   0.338  12.359   0.862
65695W        W35510  18.127  28.988   1.349
65696W        W35511   0.453   6.243   0.437
65697W        W35512   7.223  27.542  11.068
65698W        W35513  29.142  32.469  11.999
65699W        W35514  26.145  37.491  13.052
65700W        W35515  11.624  36.045   3.822
65701W        W35516  14.127  41.041   1.311
65702W        W35517  13.330  39.504   3.764
65703W        W35518  40.894  36.977  14.482
65704W        W35519  27.041  41.430   1.269
65705W        W35520  14.095   7.912  13.872
65706W        W35521  13.262  12.751  14.312
65707W        W35522  29.082  11.703   0.328
65708W        W35523  31.487   1.399  14.793
65709W        W35524   2.420  22.677   1.286
65710W        W35525  44.440  28.499  11.467
65711W        W35526  39.485  36.941  14.865
65712W        W35527  35.050  29.002  12.976
65713W        W35528  42.875  31.633   3.171
65714W        W35529  12.734   7.838  13.850
65715W        W35530  14.308  10.237  11.441
65716W        W35531  29.057  41.850  12.539
65717W        W35532   1.361  38.883   0.347
65718W        W35533  17.763  20.074   4.720
65719W        W35534   7.727   4.411   1.827
65720W        W35535  27.556  33.921  10.944
65721W        W35536  34.476  13.117   1.322
65722W        W35537   0.777  40.382   3.273
65723W        W35538   6.899  12.324   4.778
65724W        W35539   7.195  40.342  13.002
65725W        W35540  33.012  11.747   2.295
65726W        W35541  11.373  24.039   2.666
65727W        W35542  27.966  13.235   4.636
65728W        W35543  29.928  10.822  12.891
65729W        W35544   9.661   4.717  12.873
65730W        W35545   8.300  12.120  13.315
65731W        W35546   0.953  19.595  13.803
65732W        W35547  12.269  34.466   1.802
65733W        W35548  10.384   3.409   3.329
65734W        W35549  36.365  39.453   3.820
65735W        W35550  22.045  36.979   0.952
65736W        W35551   5.409   4.336  11.104
65737W        W35552  42.782  36.038   4.182
65738W        W35553  16.740  29.437   0.856
65739W        W35554  28.610   8.392   4.797
65740W        W35555  32.408   4.741  12.959
65741W        W35556  20.180   7.710  14.456
65742W        W35557   2.938  22.217  13.530
65743W        W35558   4.393   2.942  12.490
65744W        W35559  44.360   7.773   1.396
65745W        W35560  12.158  14.142  11.517
65746W        W35561  41.831  25.979   3.271
65747W        W35562   5.799  43.822   0.822
65748W        W35563   0.416  40.507   4.632
65749W        W35564  42.949  16.129  13.968
65750W        W35565  29.009   9.216   4.740
65751W        W35566  39.976  30.471   2.738
65752W        W35567  38.075  35.030   1.246
65753W        W35568  25.678  24.524  13.420
65754W        W35569  42.909   0.857  11.458
65755W        W35570  16.771  41.525   3.161
65756W        W35571  14.191  39.548  11.987
65757W        W35572   4.762  41.885   1.811
65758W        W35573  16.143  41.501   3.253
65759W        W35574  10.842   5.738   3.149
65760W        W35575  28.071   4.939   0.826
65761W        W35576  19.278  31.542  14.385
65762W        W35577  10.153   4.773   4.326
65763W        W35578  31.447  44.825   1.915
65764W        W35579  30.995  29.990   1.426
65765W        W35580  29.614  21.212  10.526
65766W        W35581  41.513  34.540   1.415
65767W        W35582  42.353  13.735   0.344
65768W        W35583  37.364  39.952   2.302
65769W        W35584   7.898   2.322   3.865
65770W        W35585  24.606  17.096   9.579
65771W        W35586  40.348  44.934   1.283
65772W        W35587   6.411  40.533   1.923
65773W        W35588   1.375  41.446   0.736
65774W        W35589  30.608  33.973   1.273
65775W        W35590  41.038  15.090   0.259
65776W        W35591  11.754  41.336  14.032
65777W        W35592  33.933  10.750  10.893
65778W        W35593  24.665  14.285  14.305
65779W        W35594  26.576   8.757  11.558
65780W        W35595  38.927   3.801   4.256
65781W        W35596  31.136  44.997   0.746
65782W        W35597   7.671  19.218  11.412
65783W        W35598  44.901  42.476  14.319
65784W        W35599  42.823   4.752   3.310
65785W        W35600  18.547  21.247  12.906
65786W        W35601  25.092  36.464   0.766
65787W        W35602  13.112  37.895   0.838
65788W        W35603  13.105  35.921   1.381
65789W        W35604  15.202   2.836  12.494
65790W        W35605   1.257  43.009   4.345
65791W        W35606  37.458  20.083   1.750
65792W        W35607  18.664   8.293  12.074
65793W        W35608   1.957   5.408  13.981
65794W        W35609  29.947  23.020   2.862
65795W        W35610  39.958  15.104  13.986
65796W        W35611   1.326  37.999  12.550
65797W        W35612   3.282  30.622  12.961
65798W        W35613  10.729  15.659  14.985
65799W        W35614  29.637  28.000   3.680
65800W        W35615   2.794  33.063   4.326
65801W        W35616   9.772  25.599   3.700
65802W        W35617  36.447  31.596   3.819
65803W        W35618  22.711  41.890   1.783
65804W        W35619   9.286  21.193  14.332
65805W        W35620  42.406   9.160  10.500
65806W        W35621  35.027   4.842   1.288
65807W        W35622  38.473  42.815   3.170
65808W        W35623  42.486   3.801   2.866
65809W        W35624   3.784  44.995  10.954
65810W        W35625  44.877  30.074   1.808
65811W        W35626  32.954   2.870  11.475
65812W        W35627  14.143  17.209   1.810
65813W        W35628   3.772  25.082   1.245
65814W        W35629  17.705  18.620   4.209
65815W        W35630  17.253  13.179   3.710
65816W        W35631   7.902  21.180   4.618
65817W        W35632   7.412  30.013  13.030
65818W        W35633  10.251  18.258  12.370
65819W        W35634  16.282  10.226   0.836
65820W        W35635  40.548  11.215   4.327
65821W        W35636  31.570  16.270   1.803
65822W        W35637  24.511  25.984   0.838
65823W        W35638  35.418  35.881  10.567
65824W        W35639  37.894  23.582   3.870
65825W        W35640  34.572  37.384  14.348
65826W        W35641  12.725  10.806  12.525
65827W        W35642   9.888  14.174  13.037
65828W        W35643   3.939  14.315  14.935
65829W        W35644  44.409  15.177   0.934
65830W        W35645  19.711  11.860  11.463
65831W        W35646  23.490  15.736  11.061
65832W        W35647  37.408  38.853   1.244
65833W        W35648  41.398  15.745   0.352
65834W        W35649  34.398  22.195   0.811
65835W        W35650  31.122  25.962   3.804
65836W        W35651  39.888  12.309  10.520
65837W        W35652   2.931  32.572  14.360
65838W        W35653   3.900   8.191   2.894
65839W        W35654  36.972  43.892  12.033
65840W        W35655  41.925  17.246   0.747
65841W        W35656  30.161  11.165   1.863
65842W        W35657   8.399  14.216  11.443
65843W        W35658  32.405   9.239  13.961
65844W        W35659  13.627  34.417   3.229
65845W        W35660   8.279  23.528  10.628
65846W        W35661   0.415  18.102   1.437
65847W        W35662   7.199  21.710  11.999
65848W        W35663   2.250  27.162   2.768
65849W        W35664  40.844   6.193   3.666
65850W        W35665  31.023   5.314   1.359
65851W        W35666  40.027  21.631  12.017
65852W        W35667   7.306  19.057   1.812
65853W        W35668  23.564  28.112   0.328
65854W        W35669  13.181   5.232  12.873
65855W        W35670  10.263  27.638  10.086
65856W        W35671  24.676  32.611  12.832
65857W        W35672  41.376  35.070   2.194
65858W        W35673  25.629  26.016  11.569
65859W        W35674  36.577  39.420  11.874
65860W        W35675  28.116  38.473  10.927
65861W        W35676  29.632  23.989  14.008
65862W        W35677  39.509  14.758   3.810
65863W        W35678  39.443   9.367   2.202
65864W        W35679  21.732  10.303  13.478
65865W        W35680   9.380  40.394   2.192
65866W        W35681   5.881   2.452   2.699
65867W        W35682  20.565  26.666   4.801
65868W        W35683   0.274  35.917  12.510
65869W        W35684   8.673  23.043   0.346
65870W        W35685  42.346  18.090  11.964
65871W        W35686  28.087  11.641  14.514
65872W        W35687  18.185  27.619   4.190
65873W        W35688  24.071   7.411   3.366
65874W        W35689   5.758  43.506  11.559
65875W        W35690   6.244  15.734   4.176
65876W        W35691  22.558   0.248   1.304
65877W        W35692  29.076  22.537  13.318
65878W        W35693  24.050  43.774   2.711
65879W        W35694   8.876  26.462  12.915
65880W        W35695  28.124   2.868   4.247
65881W        W35696  26.603  31.096  12.942
65882W        W35697  11.794  10.720  13.516
65883W        W35698   0.987  13.700  12.059
65884W        W35699   2.946   8.805  11.873
65885W        W35700  42.362  22.056   2.408
65886W        W35701  28.987   8.206   3.785
65887W        W35702  40.484  24.542   3.728
65888W        W35703  32.138   4.359   3.273
65889W        W35704  19.659  31.017   4.712
65890W        W35705   7.289  44.267   4.311
65891W        W35706  15.177  11.237   1.437
65892W        W35707  23.125  37.934   1.359
65893W        W35708  26.614  34.959   1.402
65894W        W35709  42.406   6.913  11.385
65895W        W35710  30.419  43.957   3.200
65896W        W35711  17.119  11.758   3.339
65897W        W35712   5.400   7.224  10.936
65898W        W35713  30.077  32.471   1.767
65899W        W35714  15.168  22.159   0.783
65900W        W35715  28.090  26.130  14.962
65901W        W35716   5.736   5.855   0.785
65902W        W35717  31.585  33.439   0.868
65903W        W35718   1.379   1.412  13.994
65904W        W35719   3.403  40.030  12.827
65905W        W35720  11.277  37.895   4.307
65906W        W35721  13.763  30.959   0.737
65907W        W35722  40.516  32.548  12.566
65908W        W35723  39.940   8.399  10.967
65909W        W35724  11.661  24.225  13.973
65910W        W35725  29.464  42.894   9.977
65911W        W35726   0.319  10.716  13.878
65912W        W35727  19.559   3.342   3.790
65913W        W35728  43.317  25.612  12.435
65914W        W35729   5.284  39.823   2.891
65915W        W35730  26.692   9.326   2.787
65916W        W35731  12.206  28.026  14.290
65917W        W35732  21.170   7.414  10.080
65918W        W35733  34.031   6.385  13.795
65919W        W35734   9.776  43.478  11.069
65920W        W35735   2.964   8.882  12.824
65921W        W35736  19.768  20.605   3.246
65922W        W35737   9.266  33.478  11.454
65923W        W35738  14.336  22.618   5.239
65924W        W35739   1.314  39.982  10.585
65925W        W35740  20.185  18.717  14.496
65926W        W35741  29.445  17.262   2.301
65927W        W35742  30.425  12.806   0.264
65928W        W35743  25.981  29.660  14.419
65929W        W35744  43.346   0.451  12.004
65930W        W35745  16.635  22.561  10.953
65931W        W35746  20.699  24.979  11.534
65932W        W35747   2.914   5.922   0.897
65933W        W35748   3.736  41.002   1.788
65934W        W35749  34.988  29.044   2.226
65935W        W35750  16.096   8.741  11.961
65936W        W35751  40.528  39.345   4.750
65937W        W35752  40.940   9.222   1.695
65938W        W35753   7.856  30.944   2.690
65939W        W35754   7.302  30.962  12.467
65940W        W35755  36.966  12.273   2.275
65941W        W35756  22.579  19.136   1.226
65942W        W35757  17.675   3.862   3.218
65943W        W35758  24.663  32.119   4.315
65944W        W35759  21.549   3.363   0.741
65945W        W35760  37.425  24.106  11.586
65946W        W35761   8.340  35.546  11.069
65947W        W35762  38.444  41.033   0.762
65948W        W35763  31.125  44.425   1.768
65949W        W35764  20.690  21.545   3.249
65950W        W35765  19.250  24.129  11.496
65951W        W35766  13.269  16.756  14.853
65952W        W35767  23.240  43.871  13.003
65953W        W35768  40.420  42.914  14.004
65954W        W35769  26.507   4.735  14.906
65955W        W35770  20.648  44.892  12.569
65956W        W35771   1.242   3.909   0.436
65957W        W35772  42.506  21.161   2.283
65958W        W35773  26.481  41.791   2.195
65959W        W35774  21.094   8.292   0.431
65960W        W35775  32.560  38.846   4.812
65961W        W35776  24.199  27.127   3.854
65962W        W35777   4.273   1.314   4.678
65963W        W35778  18.547  24.573   4.766
65964W        W35779  10.363  18.163   3.166
65965W        W35780  34.504  27.197   3.709
65966W        W35781   3.720  20.185   3.160
65967W        W35782  38.426   1.448  10.617
65968W        W35783   0.904  33.578  14.774
65969W        W35784  27.075   3.723  13.536
65970W        W35785   9.299  34.543   1.721
65971W        W35786  25.974  43.455   1.906
65972W        W35787  36.515  11.370   0.851
65973W        W35788   6.858   0.878   1.917
65974W        W35789  17.115  38.983  14.508
65975W        W35790  26.596  26.147  10.407
65976W        W35791  43.984  42.020   3.158
65977W        W35792  19.776  28.051   2.264
65978W        W35793  13.167   5.429  14.310
65979W        W35794   8.670  20.238  11.402
65980W        W35795  11.310  11.320   2.767
65981W        W35796   6.370   0.288  12.924
65982W        W35797   8.864  15.730   1.876
65983W        W35798  35.919  32.414   5.275
65984W        W35799   0.851  42.817   4.767
65985W        W35800  24.042  13.688   2.708
65986W        W35801   2.846  26.149   4.646
65987W        W35802  34.471   2.246   3.309
65988W        W35803  13.264  27.474   0.767
65989W        W35804  43.328   8.683  13.924
65990W        W35805  20.642   9.151  14.398
65991W        W35806  34.093  35.564   4.217
65992W        W35807  33.972  24.660  14.765
65993W        W35808  17.244  32.951  10.956
65994W        W35809  11.179  25.063   3.181
65995W        W35810  11.708  27.108   2.339
65996W        W35811   7.671  22.616   3.721
65997W        W35812  44.815  23.551  13.791
65998W        W35813  22.715  34.560   0.480
65999W        W35814   3.916  36.588  10.549
66000W        W35815  20.674   6.277   0.774
66001W        W35816  40.327  11.334   3.751
66002W        W35817  21.638  44.899   4.703
66003W        W35818  21.712   2.830   3.169
66004W        W35819  26.634   1.327  11.085
66005W        W35820  19.629  25.625   1.249
66006W        W35821   8.743  15.697   4.721
66007W        W35822   3.742  26.065   3.694
66008W        W35823   2.799  36.914  13.874
66009W        W35824  16.627  36.576  11.090
66010W        W35825   4.281   5.416  11.919
66011W        W35826  14.125  28.992  13.502
66012W        W35827  20.588  32.977  11.892
66013W        W35828  32.070  29.505  10.898
66014W        W35829  27.505  24.178  11.985
66015W        W35830   0.912  20.205   3.674
66016W        W35831   2.403  42.468  11.882
66017W        W35832  20.582  12.856   1.809
66018W        W35833  35.989  24.630  13.875
66019W        W35834  30.039  41.962  11.876
66020W        W35835  16.569   7.322  13.911
66021W        W35836  19.768  36.987  14.313
66022W        W35837  26.028  20.105   0.776
66023W        W35838  33.970  16.772  13.993
66024W        W35839   2.321  35.928  12.532
66025W        W35840   0.838   5.699  10.131
66026W        W35841  18.679  13.173   2.708
66027W        W35842  29.524  28.462  11.923
66028W        W35843  15.181  40.385   3.179
66029W        W35844   3.915  16.796   2.664
66030W        W35845  44.379  26.161  14.932
66031W        W35846   0.799  42.496  12.513
66032W        W35847   9.232  31.919   9.945
66033W        W35848  29.577  40.969   3.249
66034W        W35849  39.876  11.172   2.331
66035W        W35850  36.077  37.578   0.768
66036W        W35851  39.937  34.029  13.917
66037W        W35852   7.245  37.336   3.664
66038W        W35853  24.091   9.243  14.494
66039W        W35854   6.845  34.011  11.577
66040W        W35855  24.563   1.303  12.053
66041W        W35856  33.449   3.736  10.560
66042W        W35857  11.718  34.103   2.782
66043W        W35858  16.642  38.996   1.867
66044W        W35859  32.034  20.735  10.611
66045W        W35860  39.330  25.546  12.047
66046W        W35861  18.151  15.092   4.734
66047W        W35862  39.530  42.523  12.881
66048W        W35863  40.324  40.952   4.644
66049W        W35864  10.838  34.058  14.979
66050W        W35865  11.835   0.950   1.921
66051W        W35866  24.141  40.959   1.308
66052W        W35867   1.872  13.819   3.323
66053W        W35868  41.002  29.522  13.522
66054W        W35869  16.278  43.792  13.426
66055W        W35870  39.411   7.298  10.564
66056W        W35871  21.705  28.577  13.833
66057W        W35872  32.397  24.532  10.554
66058W        W35873   5.244  34.112  11.526
66059W        W35874  19.743  31.084   2.395
66060W        W35875  23.666  33.558  10.611
66061W        W35876  18.569  12.652  14.029
66062W        W35877  34.461  36.505  13.888
66063W        W35878   8.388   6.774  14.516
66064W        W35879  34.538   7.817   2.276
66065W        W35880  15.176  15.270  12.461
66066W        W35881  24.485  27.995   4.345
66067W        W35882  35.016  29.501  11.015
66068W        W35883  37.884  28.482   2.726
66069W        W35884   8.227  43.909   2.873
66070W        W35885  22.506  16.646   0.815
66071W        W35886  22.245  16.789  13.484
66072W        W35887  28.474  13.118   3.189
66073W        W35888  22.585  22.578   1.443
66074W        W35889  11.328   8.347   1.921
66075W        W35890   0.325  37.871  13.990
66076W        W35891  24.179  10.790   2.671
66077W        W35892  21.587  26.954   4.124
66078W        W35893  24.710  14.193  12.865
66079W        W35894  27.191  16.669  11.953
66080W        W35895  34.056   7.760  14.392
66081W        W35896  20.207  35.539   1.712
66082W        W35897  44.278  23.620   1.257
66083W        W35898  22.136  29.953   2.287
66084W        W35899  27.501  38.412   4.770
66085W        W35900  44.358   6.425   1.900
66086W        W35901  29.634  20.656   2.201
66087W        W35902  11.325   9.721  13.414
66088W        W35903  34.106  24.618   3.274
66089W        W35904  32.487   5.881   4.757
66090W        W35905  39.047  37.038   4.156
66091W        W35906  25.687  17.708  11.379
66092W        W35907   8.812  37.842  13.317
66093W        W35908  30.462  32.422  13.314
66094W        W35909  41.297  15.741  10.513
66095W        W35910  28.018  29.573  14.500
66096W        W35911  24.648  27.940   4.765
66097W        W35912  15.806  22.554   0.483
66098W        W35913  28.583  10.167   1.358
66099W        W35914  16.672  37.892   3.859
66100W        W35915  30.136  43.364   3.826
66101W        W35916  24.653   3.848  11.081
66102W        W35917  25.993  32.937  14.948
66103W        W35918  23.074   2.264   4.804
66104W        W35919  39.437  36.053   3.383
66105W        W35920  42.425  27.102  14.457
66106W        W35921  39.003  15.198  14.862
66107W        W35922   1.776  43.865   1.344
66108W        W35923  37.968  31.519   5.221
66109W        W35924  34.970  12.191   1.853
66110W        W35925   6.727   6.372  12.954
66111W        W35926  38.394   5.794  12.560
66112W        W35927  40.444  17.761  13.441
66113W        W35928  25.586   2.775  12.537
66114W        W35929  11.235  38.364   0.381
66115W        W35930  11.185  28.111   2.197
66116W        W35931  25.658  26.135   0.471
66117W        W35932   8.675   8.244  11.993
66118W        W35933  31.566  20.668   1.855
66119W        W35934  17.564  36.474   4.762
66120W        W35935  19.284  12.748   4.611
66121W        W35936  34.602  35.934   2.757
66122W        W35937  30.469  34.436   2.747
66123W        W35938  39.845  13.794   4.757
66124W        W35939  44.909   0.311  13.040
66125W        W35940  28.589  26.114  14.483
66126W        W35941   9.785  16.190  14.842
66127W        W35942  11.689   8.163   4.600
66128W        W35943  23.514  18.258   3.379
66129W        W35944  18.290   4.225  10.499
66130W        W35945   7.790  18.632  12.516
66131W        W35946   7.759   3.272   0.928
66132W        W35947  28.480  42.425   1.892
66133W        W35948  38.376   1.921   3.381
66134W        W35949  41.859  14.642  10.598
66135W        W35950  43.781  41.885  10.581
66136W        W35951  28.013  18.073   9.949
66137W        W35952  10.805  42.436  12.979
66138W        W35953  35.051  25.005  14.360
66139W        W35954  41.374  39.449   1.883
66140W        W35955  25.514  40.345   0.793
66141W        W35956   8.691  42.822   1.788
66142W        W35957   8.285   3.451  10.439
66143W        W35958  44.927  11.674   3.821
66144W        W35959  14.766  32.575  12.086
66145W        W35960  23.219  29.582  12.534
66146W        W35961  12.326   4.289   2.406
66147W        W35962  30.987  20.157  11.075
66148W        W35963  26.127  20.226   2.318
66149W        W35964  24.637  27.614   2.265
66150W        W35965   6.276  32.432  12.868
66151W        W35966  10.634   0.851   0.457
66152W        W35967   5.382  26.472  13.386
66153W        W35968  41.295  28.170   0.938
66154W        W35969   3.245  23.107   3.285
66155W        W35970  13.836  37.042  12.990
66156W        W35971  35.943   8.894  12.047
66157W        W35972  42.013  16.170   0.256
66158W        W35973  40.816  33.920   2.719
66159W        W35974  15.240  33.911  10.512
66160W        W35975  34.462  32.496  11.896
66161W        W35976  37.448  18.741  14.893
66162W        W35977  17.211  13.728   4.227
66163W        W35978  39.940   6.346  10.104
66164W        W35979  19.167  29.069  13.401
66165W        W35980  18.709   0.339  11.553
66166W        W35981  22.035  19.271   5.246
66167W        W35982  22.671  25.612  10.157
66168W        W35983  23.646  27.959  12.926
66169W        W35984  13.263   0.845   4.747
66170W        W35985  11.827  25.519  14.759
66171W        W35986  10.751  22.695  11.383
66172W        W35987   4.795   7.389  11.452
66173W        W35988   1.894  21.154  12.418
66174W        W35989   9.373  28.460  12.051
66175W        W35990   5.213  30.654  11.944
66176W        W35991  31.099   1.475  11.373
66177W        W35992  25.539  38.521  11.998
66178W        W35993  17.178  29.974  14.954
66179W        W35994  33.950   2.446  10.539
66180W        W35995  12.819  13.302  11.091
66181W        W35996   0.935  13.251  11.896
66182W        W35997  32.534  37.580   3.210
66183W        W35998  42.947   7.815   2.834
66184W        W35999  10.650  36.519  12.545
66185W        W36000  39.496  28.060  12.410
66186W        W36001  30.948  10.841  11.562
66187W        W36002  28.170  31.904  14.787
66188W        W36003  10.643  36.515  13.873
66189W        W36004  39.959  20.664   3.331
66190W        W36005  40.004  43.967  14.314
66191W        W36006   8.260  18.225   4.297
66192W        W36007  37.445  31.459  10.463
66193W        W36008  29.464  13.293   5.233
66194W        W36009  29.025  39.938  14.900
66195W        W36010  23.682  35.071   4.315
66196W        W36011   8.870  37.489   4.206
66197W        W36012  43.274  12.678  14.988
66198W        W36013   8.283   1.954  14.475
66199W        W36014   8.810  18.284  10.537
66200W        W36015   9.286  44.425   9.952
66201W        W36016  26.052   2.930   2.363
66202W        W36017  44.275  10.854  12.530
66203W        W36018  37.396  33.465  10.066
66204W        W36019  10.214  24.177   3.791
66205W        W36020  36.426   0.928  12.446
66206W        W36021   0.779  31.995   4.179
66207W        W36022   9.310   2.911  13.807
66208W        W36023  19.181  37.903   4.818
66209W        W36024  43.402   4.864  13.428
66210W        W36025  12.362  30.144   4.811
66211W        W36026  18.611  18.566   4.788
66212W        W36027  10.717  33.882  10.925
66213W        W36028  14.594  28.122   3.248
66214W        W36029   5.386  14.733  14.314
66215W        W36030   1.802  40.485   2.701
66216W        W36031  14.211  17.707  11.950
66217W        W36032  20.092  35.501  11.488
66218W        W36033  22.144  43.886   5.151
66219W        W36034   0.307  26.106  10.421
66220W        W36035  37.862  14.260  10.134
66221W        W36036  41.007  32.541  11.944
66222W        W36037  37.417  22.203  14.876
66223W        W36038  11.643  29.535   3.345
66224W        W36039  44.878  21.193  10.555
66225W        W36040  25.991   6.261  12.425
66226W        W36041  37.991  14.208   3.289
66227W        W36042   4.320  27.032   0.398
66228W        W36043  40.968   0.781  10.017
66229W        W36044  27.061  34.432   4.352
66230W        W36045  44.906  31.131   2.868
66231W        W36046   9.819  35.073   1.828
66232W        W36047  42.305  41.881  14.998
66233W        W36048  18.707   7.866  14.358
66234W        W36049  16.736   0.935   0.418
66235W        W36050  20.168  21.216   2.783
66236W        W36051  13.145  36.032  11.555
66237W        W36052  26.164  15.585  12.905
66238W        W36053   5.790  18.143  12.968
66239W        W36054  29.122  25.564   2.816
66240W        W36055  24.615  11.346   4.256
66241W        W36056   0.310  28.073  12.054
66242W        W36057  44.910  17.633  13.460
66243W        W36058  19.266  12.614  14.895
66244W        W36059  15.606  13.162   3.781
66245W        W36060  35.078  38.962   4.344
66246W        W36061   7.711  37.556  13.035
66247W        W36062  21.204  17.571   2.217
66248W        W36063  41.493  38.436   1.285
66249W        W36064  41.986  43.483   3.305
66250W        W36065  28.100   9.854   9.946
66251W        W36066   1.744  32.425   0.339
66252W        W36067  38.328  17.232   4.274
66253W        W36068  42.492  16.121   1.859
66254W        W36069  38.542  13.114  11.937
66255W        W36070  43.334  33.974   1.761
66256W        W36071   7.772  37.895  12.967
66257W        W36072  43.910   9.831  13.902
66258W        W36073  44.981  42.293  14.025
66259W        W36074   5.817   2.872   4.624
66260W        W36075  41.817  25.996  13.032
66261W        W36076   6.759  19.276  12.910
66262W        W36077   4.448   1.866   2.666
66263W        W36078  22.144   0.483  13.867
66264W        W36079  13.600  16.257   0.280
66265W        W36080  38.509  26.515  10.910
66266W        W36081  33.905  14.123   0.787
66267W        W36082  24.198  33.105   1.371
66268W        W36083  29.948  21.532  11.034
66269W        W36084   2.320   4.235  12.457
66270W        W36085  32.124  16.160  10.472
66271W        W36086   0.254   6.396   4.329
66272W        W36087  19.688   3.774  11.869
66273W        W36088  40.997  12.189   0.373
66274W        W36089  33.549  37.992  10.558
66275W        W36090  38.073  38.461   2.825
66276W        W36091  24.707  35.455   4.652
66277W        W36092  16.220   6.356  12.377
66278W        W36093   4.208  17.559   1.405
66279W        W36094  31.102  34.378  12.052
66280W        W36095   8.832   5.343   3.796
66281W        W36096  16.225  18.622   0.405
66282W        W36097  28.953  17.282   1.866
66283W        W36098  40.394   2.335   1.809
66284W        W36099   1.370  10.295   0.864
66285W        W36100  22.998  19.220   9.577
66286W        W36101  41.446   3.245   3.289
66287W        W36102   8.160  23.207  12.486
66288W        W36103  26.695  15.663   1.232
66289W        W36104  30.967  13.146   3.820
66290W        W36105  10.671  20.596  12.041
66291W        W36106  30.942  16.270  13.838
66292W        W36107  30.942   8.877   1.249
66293W        W36108   8.673  42.795  10.028
66294W        W36109   2.722  37.527  13.481
66295W        W36110  18.053  38.026   2.897
66296W        W36111  12.827   7.349   0.867
66297W        W36112  15.702  35.092  13.420
66298W        W36113  15.624   0.928   4.815
66299W        W36114  24.589  32.094  14.440
66300W        W36115  29.123   9.877  10.443
66301W        W36116  32.612  34.615   1.234
66302W        W36117  30.466  38.060   2.759
66303W        W36118   0.465  19.579  13.957
66304W        W36119  22.634   4.722   2.301
66305W        W36120   0.865   6.366  12.555
66306W        W36121   5.368  43.307  12.955
66307W        W36122   1.371  40.887  13.965
66308W        W36123  39.496  44.423   1.821
66309W        W36124  11.812  14.181   1.837
66310W        W36125  20.627   0.909  11.030
66311W        W36126  27.087  14.280  14.978
66312W        W36127  17.115   1.974  14.483
66313W        W36128   1.910  41.842  14.407
66314W        W36129   6.836  19.263   3.238
66315W        W36130  33.529  11.192  11.524
66316W        W36131   7.750  13.205   0.792
66317W        W36132  19.153  15.117  13.954
66318W        W36133  37.346  20.262   3.727
66319W        W36134  29.940  10.322  14.965
66320W        W36135  17.151   6.818   1.316
66321W        W36136  42.900   4.915   1.229
66322W        W36137  44.417  21.753   1.914
66323W        W36138  10.334  20.734   3.307
66324W        W36139  17.307  30.471   5.145
66325W        W36140  21.026   9.774   0.434
66326W        W36141  44.786   4.368   3.630
66327W        W36142  36.503   9.813  12.578
66328W        W36143   4.312  43.846   2.292
66329W        W36144  32.094   3.275   0.831
66330W        W36145  39.881  18.729   1.376
66331W        W36146  16.657   7.318  10.522
66332W        W36147   1.809   3.932   1.356
66333W        W36148  13.606  17.578   0.336
66334W        W36149   5.279  33.927  12.513
66335W        W36150   0.316  21.559   2.300
66336W        W36151  43.393  37.525  11.485
66337W        W36152  41.437   2.867  12.007
66338W        W36153  38.347  30.988   0.801
66339W        W36154  39.053  28.487  14.313
66340W        W36155  29.478  24.055   1.769
66341W        W36156  23.706   2.786   4.254
66342W        W36157  39.035  26.965  12.495
66343W        W36158  14.717   4.387  12.006
66344W        W36159  32.470  28.123   4.121
66345W        W36160   3.382  36.409  14.396
66346W        W36161  24.996   5.870   3.329
66347W        W36162  10.199  24.996  11.578
66348W        W36163   6.272  34.064  11.395
66349W        W36164   0.323  11.766  12.824
66350W        W36165  13.269  42.965   2.271
66351W        W36166   0.401  34.070  11.993
66352W        W36167  35.569  11.737  13.409
66353W        W36168   2.387   5.726  13.806
66354W        W36169  20.176  44.004  10.444
66355W        W36170  32.957  14.198   2.199
66356W        W36171  23.645  26.156  12.055
66357W        W36172  37.556   0.307  10.003
66358W        W36173  26.698  33.528  13.039
66359W        W36174  25.002   5.369  12.868
66360W        W36175  17.130  15.236  10.022
66361W        W36176  17.774   7.757  12.434
66362W        W36177  30.493  26.141   2.372
66363W        W36178  20.088  39.408   1.738
66364W        W36179  29.583  37.943  12.480
66365W        W36180  17.725  44.401   2.360
66366W        W36181  35.027  44.957  11.126
66367W        W36182  11.204  31.932  10.504
66368W        W36183  22.567  36.975   4.638
66369W        W36184  16.737  23.000   3.230
66370W        W36185  23.023  44.264  10.023
66371W        W36186  11.657  44.864  13.371
66372W        W36187  26.490  30.632  11.075
66373W        W36188  33.928   0.260  10.439
66374W        W36189   1.963  12.741   2.199
66375W        W36190  16.281  11.712  11.545
66376W        W36191   8.374  24.985   3.231
66377W        W36192  29.650  32.989  12.989
66378W        W36193  31.080  24.493  10.538
66379W        W36194  18.233   2.722  13.419
66380W        W36195  26.480  16.223   4.732
66381W        W36196  34.929   9.273  13.809
66382W        W36197  28.122  42.807  13.529
66383W        W36198  35.945  27.496  11.100
66384W        W36199  39.364  35.511  14.469
66385W        W36200  28.095   8.212  11.609
66386W        W36201  42.327   7.693   1.925
66387W        W36202  27.184  11.750  11.107
66388W        W36203  19.643   6.346  14.965
66389W        W36204  23.664  34.010   2.409
66390W        W36205  20.632  20.767   4.169
66391W        W36206  41.837   8.334   4.646
66392W        W36207  11.821  11.794  13.337
66393W        W36208   3.386  23.604  14.326
66394W        W36209  19.619  13.111  10.572
66395W        W36210  29.432   9.890  12.869
66396W        W36211  34.961   9.655   0.304
66397W        W36212  13.254  10.150   1.318
66398W        W36213  42.455  35.003   1.813
66399W        W36214  25.037  44.303   3.247
66400W        W36215   6.815  22.581  12.973
66401W        W36216  11.331  17.607   3.651
66402W        W36217  23.112  34.949   3.659
66403W        W36218   8.341   4.715  13.940
66404W        W36219  41.314  31.075   3.249
66405W        W36220  11.671  33.504   0.246
66406W        W36221  13.825   2.346  12.420
66407W        W36222  34.084  32.142  14.961
66408W        W36223  14.180   2.461   0.438
66409W        W36224  26.980  17.138   3.238
66410W        W36225  13.157  17.201  13.308
66411W        W36226  14.804  43.403   2.331
66412W        W36227  26.185  41.354  11.919
66413W        W36228  36.551  34.563  13.996
66414W        W36229  35.882   3.860  13.331
66415W        W36230   8.808  10.800  13.804
66416W        W36231  37.853   5.879   5.710
66417W        W36232   5.345   3.299   3.761
66418W        W36233  16.254  43.304   0.836
66419W        W36234  27.646   5.763   0.810
66420W        W36235  25.110  12.679   2.313
66421W        W36236   3.865  18.153   4.262
66422W        W36237   6.792  32.449  10.429
66423W        W36238   0.875  18.161   1.425
66424W        W36239   1.238   0.769  11.463
66425W        W36240   9.673  22.070  10.480
66426W        W36241  25.704  31.510  12.095
66427W        W36242   9.860  25.135   4.630
66428W        W36243  40.373   7.187   9.455
66429W        W36244   8.657  40.428   2.755
66430W        W36245  11.363  39.393  11.910
66431W        W36246  24.690  42.825   4.655
66432W        W36247  32.410  42.432  12.369
66433W        W36248  10.792  37.915  10.910
66434W        W36249  43.903  14.144  14.410
66435W        W36250  30.947  44.493  11.890
66436W        W36251  39.369  22.011   4.700
66437W        W36252  44.329  37.842   0.380
66438W        W36253  40.998  15.192   0.869
66439W        W36254   8.248   3.316   3.755
66440W        W36255  41.340   8.208   4.693
66441W        W36256  33.906  41.392  12.095
66442W        W36257   9.825  24.703  13.864
66443W        W36258  38.343   5.719   3.759
66444W        W36259  40.002  44.503   3.191
66445W        W36260   2.297  41.362  13.888
66446W        W36261  36.547   1.320  10.490
66447W        W36262   5.224   2.465   3.733
66448W        W36263  14.766  32.990   3.705
66449W        W36264  43.495  44.443  11.421
66450W        W36265  16.719  41.958   4.148
66451W        W36266  22.620   9.736  10.984
66452W        W36267  24.506  28.608  14.902
66453W        W36268   8.837  28.476  14.934
66454W        W36269   6.883  18.075   1.248
66455W        W36270  32.011  42.019   5.265
66456W        W36271  34.006  11.732   1.929
66457W        W36272  10.701   8.798  10.435
66458W        W36273  11.837  42.949  10.531
66459W        W36274   8.377  16.651  10.643
66460W        W36275   3.839  43.011   0.306
66461W        W36276   1.305  28.104   1.418
66462W        W36277  19.649  28.599  14.847
66463W        W36278  42.790  31.587  14.492
66464W        W36279  25.701  14.639  10.576
66465W        W36280  38.561  20.567  10.937
66466W        W36281   9.266  29.544  11.003
66467W        W36282   5.290   8.704   9.947
66468W        W36283  28.171   1.244  14.357
66469W        W36284  16.278   2.800   3.260
66470W        W36285  43.015  15.240  13.054
66471W        W36286  37.393  15.211  14.440
66472W        W36287   1.434   8.242  12.935
66473W        W36288  38.050   3.218   1.760
66474W        W36289  33.380  32.595  14.471
66475W        W36290  25.483  19.231   3.784
66476W        W36291   1.358  17.235   3.150
66477W        W36292  16.181  39.434  12.388
66478W        W36293  44.330  16.166   3.307
66479W        W36294  27.974  12.333   3.296
66480W        W36295   6.687  15.114   1.429
66481W        W36296   6.738  36.368  12.845
66482W        W36297  25.081  13.152   1.267
66483W        W36298  39.537   6.854  10.982
66484W        W36299   8.275  13.308  11.959
66485W        W36300  32.549   9.197   0.410
66486W        W36301  37.831  25.514   3.731
66487W        W36302  41.501  44.920   1.758
66488W        W36303  16.283  35.021  13.341
66489W        W36304  16.144  16.140  10.918
66490W        W36305  27.082  42.870  11.913
66491W        W36306   0.962  25.664   3.806
66492W        W36307  38.826   5.394   3.795
66493W        W36308  18.066  16.594   1.279
66494W        W36309  28.535  30.987  13.312
66495W        W36310  17.643   8.828   2.334
66496W        W36311  43.385  30.143  14.475
66497W        W36312  14.656   0.256   4.143
66498W        W36313  29.436  12.196  11.588
66499W        W36314  23.106  28.007  14.421
66500W        W36315  43.310  41.935  11.477
66501W        W36316  21.595  18.060  13.984
66502W        W36317  36.521   7.351  11.536
66503W        W36318  38.538   9.298   1.230
66504W        W36319   6.286  40.848   4.124
66505W        W36320  30.003   9.276   4.281
66506W        W36321  31.497   6.299  10.558
66507W        W36322  19.644   6.228   1.233
66508W        W36323   0.320  33.568  13.374
66509W        W36324  17.105  27.104  13.896
66510W        W36325  33.118  14.797   0.934
66511W        W36326  29.989   8.669   4.298
66512W        W36327   1.386  37.436   2.264
66513W        W36328   2.378  43.912  11.890
66514W        W36329  27.469  32.472  13.048
66515W        W36330  37.083  44.895   3.678
66516W        W36331  32.134  37.447   3.303
66517W        W36332  28.574  26.660  10.481
66518W        W36333  37.522  22.682   3.726
66519W        W36334  29.017  23.141   4.266
66520W        W36335  28.501  35.969   4.837
66521W        W36336  24.571  36.031   1.717
66522W        W36337  16.201  38.426  12.535
66523W        W36338  13.187   9.693  12.350
66524W        W36339   8.805   3.230   2.713
66525W        W36340   2.410  23.619   1.761
66526W        W36341   1.972  33.097   3.200
66527W        W36342  17.140  10.651   0.869
66528W        W36343   6.708   8.690   1.713
66529W        W36344   1.281  28.633   4.193
66530W        W36345  18.783  23.216   3.151
66531W        W36346  42.503  16.166  11.070
66532W        W36347  15.294  34.117   4.119
66533W        W36348  34.936  18.582  11.538
66534W        W36349  28.597  25.585  13.460
66535W        W36350  28.056  39.386  11.938
66536W        W36351  40.412  20.199  13.403
66537W        W36352  34.959  23.531  12.069
66538W        W36353   5.336  30.068  11.532
66539W        W36354  14.605  40.380   1.240
66540W        W36355  14.660  43.398  13.003
66541W        W36356   7.711  43.966  14.886
66542W        W36357  33.441  25.697   5.190
66543W        W36358  33.612  20.744   3.160
66544W        W36359  33.430   8.295  10.889
66545W        W36360  42.930  15.732   2.238
66546W        W36361   5.921  27.605  10.945
66547W        W36362   6.872  12.271  11.459
66548W        W36363  25.709  32.579   3.796
66549W        W36364  33.583  42.961  12.449
66550W        W36365   0.923  26.082   4.728
66551W        W36366  12.793  13.338  10.589
66552W        W36367  30.097  27.168   3.846
66553W        W36368  24.722   2.294  11.561
66554W        W36369  12.358   5.207   1.855
66555W        W36370  34.466   2.229   0.745
66556W        W36371   3.369  29.033  12.401
66557W        W36372   9.340  29.541   3.191
66558W        W36373  22.179  18.580   0.405
66559W        W36374   2.230  18.171  12.071
66560W        W36375  32.023  40.824  11.459
66561W        W36376  38.516   0.906  11.958
66562W        W36377  32.071  20.589   0.328
66563W        W36378  31.447   3.367  13.802
66564W        W36379   5.751  33.583   1.445
66565W        W36380  30.969  24.645   3.769
66566W        W36381   2.814   9.309  11.560
66567W        W36382   5.714   8.255  13.832
66568W        W36383   0.423   8.896   4.769
66569W        W36384  34.061  26.054   2.780
66570W        W36385  27.669  38.869   3.172
66571W        W36386   9.327   8.739  13.924
66572W        W36387   0.899  25.505   0.296
66573W        W36388  21.067   1.797   0.804
66574W        W36389  18.087  28.548   1.225
66575W        W36390   8.192  32.048  13.460
66576W        W36391  12.805  43.407  11.078
66577W        W36392   2.848  20.672   4.756
66578W        W36393   4.250   1.307  13.836
66579W        W36394  15.798  32.139   0.859
66580W        W36395  27.468  11.780  14.400
66581W        W36396  19.730  43.482  11.898
66582W        W36397  18.264  42.921   4.283
66583W        W36398  18.547  14.779  13.883
66584W        W36399  28.512   0.261  11.560
66585W        W36400  24.158  19.201   5.591
66586W        W36401  22.559  10.253   2.197
66587W        W36402  10.367  26.134  11.076
66588W        W36403  41.882  44.950  10.914
66589W        W36404   0.854  14.817  13.914
66590W        W36405   9.830  32.527   4.233
66591W        W36406  13.770  23.527   2.823
66592W        W36407  17.222  16.090   3.850
66593W        W36408  19.745  14.101  13.393
66594W        W36409   7.826  15.642  14.308
66595W        W36410  43.889  44.348  12.347
66596W        W36411  39.382   9.188   4.191
66597W        W36412  37.519  38.910  10.081
66598W        W36413  42.462  29.545  12.875
66599W        W36414  44.945   9.751   4.184
66600W        W36415  13.149  37.897  11.890
66601W        W36416  17.579  28.947  12.917
66602W        W36417  33.482   7.386  14.433
66603W        W36418  33.489  22.744   3.342
66604W        W36419  14.314   6.805   0.245
66605W        W36420  13.253  34.424   4.629
66606W        W36421  10.803  34.039   3.750
66607W        W36422  32.897   0.250   3.281
66608W        W36423  38.850   5.915   4.709
66609W        W36424  43.406   5.310  11.956
66610W        W36425  23.644  19.545   3.733
66611W        W36426  15.774   7.706  13.486
66612W        W36427  21.223   1.914  10.134
66613W        W36428  30.562  18.566   0.727
66614W        W36429  15.288  39.382  10.431
66615W        W36430  22.587  38.973  11.048
66616W        W36431  37.842   7.173   4.133
66617W        W36432  35.922  33.577  11.503
66618W        W36433  15.083  40.851  12.525
66619W        W36434   6.227  24.565  14.840
66620W        W36435  42.492  35.035   0.884
66621W        W36436  23.535  34.995   3.255
66622W        W36437  38.962  38.551  13.958
66623W        W36438  25.173   7.802   3.206
66624W        W36439  42.995  43.841   1.368
66625W        W36440  32.576  19.580   2.317
66626W        W36441   8.277  16.105  14.366
66627W        W36442  36.080  21.211   3.376
66628W        W36443  10.783  11.744  11.886
66629W        W36444  41.894  19.774  12.909
66630W        W36445  25.473  42.953   0.823
66631W        W36446  43.921  13.838  14.798
66632W        W36447  11.713  20.673   2.822
66633W        W36448  10.217  22.183  13.797
66634W        W36449   7.777  43.008  12.513
66635W        W36450  38.868  30.091   0.935
66636W        W36451  12.225   3.334   0.461
66637W        W36452  18.671  39.061   3.865
66638W        W36453  18.157   4.396  11.105
66639W        W36454  13.663  44.991   2.688
66640W        W36455  22.745  41.305   0.886
66641W        W36456   9.360  38.929   1.397
66642W        W36457  44.967  21.020   0.422
66643W        W36458  22.650  10.740  10.604
66644W        W36459  24.063  34.977  11.061
66645W        W36460  39.509  13.784   0.743
66646W        W36461  35.909  26.101   1.376
66647W        W36462  10.347   5.218  12.959
66648W        W36463  22.538  31.095   4.657
66649W        W36464  36.390  17.719   1.916
66650W        W36465  18.204   0.852  11.459
66651W        W36466   4.713  28.106  10.896
66652W        W36467  30.650  31.639  12.549
66653W        W36468  25.490  14.825   1.884
66654W        W36469  11.668   0.457   3.354
66655W        W36470  19.597  23.100   1.211
66656W        W36471  27.183   1.945  13.821
66657W        W36472  18.239  15.262  11.880
66658W        W36473  31.517  12.817  13.878
66659W        W36474   8.294  35.062  14.777
66660W        W36475  24.069  27.042   1.806
66661W        W36476  23.629  21.533  13.792
66662W        W36477   3.319  19.597  14.356
66663W        W36478  17.567  42.909   2.762
66664W        W36479  31.960  42.386   3.798
66665W        W36480  23.670  28.625   3.176
66666W        W36481  40.051   0.361   2.271
66667W        W36482  35.474   3.939  10.516
66668W        W36483  44.862   5.361   0.959
66669W        W36484   3.434  18.695   1.895
66670W        W36485  10.660  35.540  14.991
66671W        W36486  10.687  21.718   3.691
66672W        W36487  38.043   3.886   1.372
66673W        W36488  38.901  24.677   1.412
66674W        W36489  28.643  13.658   0.466
66675W        W36490   8.308  37.555   0.803
66676W        W36491  28.020  36.537   3.692
66677W        W36492  22.102  36.895   1.841
66678W        W36493  22.246   7.745   0.255
66679W        W36494  23.541  36.945   3.676
66680W        W36495   5.402  36.000  13.021
66681W        W36496  18.753  31.128  11.432
66682W        W36497  14.151  44.765  13.409
66683W        W36498   8.254  44.305   0.433
66684W        W36499  31.584  40.942  14.996
66685W        W36500  44.450  18.252   2.877
66686W        W36501  40.510  44.382   0.802
66687W        W36502  44.796  34.111   3.288
66688W        W36503  24.106   8.344   3.755
66689W        W36504  38.393  19.053   3.833
66690W        W36505  33.593  25.636  12.447
66691W        W36506  14.708  21.248  10.539
66692W        W36507  14.790  12.743   0.728
66693W        W36508  27.056  38.378   3.700
66694W        W36509  28.677  24.620  13.366
66695W        W36510  23.069  30.164   4.338
66696W        W36511  29.530   5.305   0.916
66697W        W36512   5.790   3.794  10.939
66698W        W36513  22.016  23.023   1.837
66699W        W36514  25.083   0.942   3.835
66700W        W36515  12.133   0.463   2.411
66701W        W36516  21.236  13.215  12.560
66702W        W36517   6.733  37.469   3.274
66703W        W36518  34.898  37.542   3.720
66704W        W36519   4.273   8.695  10.642
66705W        W36520  20.055  39.942   3.696
66706W        W36521  42.334  11.225   3.269
66707W        W36522  38.359  25.590   3.221
66708W        W36523  16.772  32.914   3.775
66709W        W36524  43.425  31.610  14.789
66710W        W36525   5.232  26.505   2.763
66711W        W36526  12.353  26.062   3.864
66712W        W36527  38.916   4.837   2.186
66713W        W36528  39.529   2.402   5.102
66714W        W36529  39.428  20.123  13.507
66715W        W36530  39.815  37.984  11.543
66716W        W36531  41.986   9.297   1.258
66717W        W36532  33.036  37.925   4.277
66718W        W36533  15.123   2.405  11.968
66719W        W36534  41.824  41.292  12.841
66720W        W36535  17.558  28.027  14.288
66721W        W36536  41.993  14.689   0.967
66722W        W36537  24.722  18.240  13.542
66723W        W36538  28.627   2.293   0.892
66724W        W36539  30.537  12.310  11.575
66725W        W36540  19.695  31.565   2.181
66726W        W36541   9.158  26.129  13.454
66727W        W36542  37.903  39.988   3.193
66728W        W36543  15.639   7.905  11.589
66729W        W36544  21.636  39.008  11.492
66730W        W36545  22.593  18.551  13.506
66731W        W36546  29.514  40.381  10.069
66732W        W36547  29.504   0.353   0.906
66733W        W36548  15.683  10.734   0.966
66734W        W36549  23.597  26.000  14.971
66735W        W36550  43.391  20.718  13.881
66736W        W36551  24.717  34.444   4.714
66737W        W36552  33.013  28.151  13.857
66738W        W36553  21.709  16.124   0.745
66739W        W36554  44.935  34.609  13.792
66740W        W36555  35.549  29.086   2.795
66741W        W36556  30.101  30.927   0.804
66742W        W36557  28.166  32.946   0.845
66743W        W36558  27.176  38.473  13.888
66744W        W36559  40.933  18.223  14.430
66745W        W36560  25.510  13.236  13.818
66746W        W36561  41.354  36.547  12.468
66747W        W36562   1.939  33.967  12.851
66748W        W36563   0.303  34.099   1.410
66749W        W36564  38.919  38.874  14.980
66750W        W36565   3.438  28.458   2.346
66751W        W36566  23.986  37.569   9.991
66752W        W36567   5.929  34.899  14.783
66753W        W36568  13.676  29.025   0.839
66754W        W36569   6.683  20.223   0.914
66755W        W36570   1.914   2.433   2.197
66756W        W36571  13.199  27.961   1.698
66757W        W36572  38.921  26.667  12.405
66758W        W36573  12.649   0.779   1.392
66759W        W36574  12.854  15.775  11.950
66760W        W36575  14.300  38.447  14.462
66761W        W36576  23.554  21.084  10.547
66762W        W36577  41.833  14.621  12.868
66763W        W36578  20.706   7.897   2.824
66764W        W36579  41.875  41.822   0.944
66765W        W36580  34.957  43.806  10.551
66766W        W36581   7.798  27.129   2.702
66767W        W36582  44.456  35.015  13.396
66768W        W36583  21.134  41.377   3.644
66769W        W36584  23.123  38.564   4.141
66770W        W36585  22.637  37.843  10.945
66771W        W36586  20.727  10.708   4.659
66772W        W36587  16.213  39.882   1.234
66773W        W36588  36.924   6.771  11.015
66774W        W36589  37.402  20.076  12.471
66775W        W36590  36.850   6.878   3.767
66776W        W36591  22.072  33.111   4.316
66777W        W36592  19.703  34.037   2.316
66778W        W36593  15.250  42.002  14.289
66779W        W36594   6.234  32.414  11.446
66780W        W36595   4.416  32.143   4.247
66781W        W36596   5.736  39.364  13.419
66782W        W36597  38.340  38.348   2.897
66783W        W36598   9.233   6.882   2.844
66784W        W36599  30.915  19.055   3.764
66785W        W36600  30.055   6.231   2.706
66786W        W36601  43.795   8.815  12.936
66787W        W36602   3.220  15.324   3.155
66788W        W36603  12.216  35.933  12.891
66789W        W36604  12.217   4.926  10.137
66790W        W36605  12.194  17.142   3.200
66791W        W36606  34.503  15.693  11.998
66792W        W36607  16.309  31.562  14.985
66793W        W36608  24.607  30.504   3.669
66794W        W36609  42.992  19.255   4.320
66795W        W36610  20.048  30.130  12.357
66796W        W36611  21.137  29.526  14.368
66797W        W36612  32.063  43.344   4.198
66798W        W36613  32.626  19.603   4.658
66799W        W36614   7.895  24.680  13.347
66800W        W36615  35.079  19.062   3.751
66801W        W36616   0.348  21.097   0.250
66802W        W36617   9.842  32.544   1.904
66803W        W36618  22.205  26.677   0.891
66804W        W36619  30.027  17.767  14.010
66805W        W36620  30.466  42.970   4.287
66806W        W36621  34.884  11.835  11.537
66807W        W36622  34.075   1.842   2.806
66808W        W36623  18.783  33.386  10.024
66809W        W36624  15.260  32.992   2.213
66810W        W36625  36.378  39.901  13.897
66811W        W36626  35.859   5.753   4.286
66812W        W36627  22.205  17.632  10.892
66813W        W36628  19.257  24.192  10.888
66814W        W36629   4.841  28.983   2.295
66815W        W36630  23.001  17.208   2.814
66816W        W36631  23.231  10.865   1.797
66817W        W36632   7.310  22.092   1.413
66818W        W36633  39.350   9.177  14.844
66819W        W36634  19.181  18.075  13.928
66820W        W36635  44.864  41.299   2.846
66821W        W36636   3.406  37.414  10.526
66822W        W36637  31.520  35.412  13.536
66823W        W36638  30.511  11.271   1.843
66824W        W36639  28.059   4.273  11.985
66825W        W36640  18.133  22.563   3.718
66826W        W36641   9.388  43.445  14.307
66827W        W36642  20.531  19.564   2.201
66828W        W36643  30.955   1.860  10.536
66829W        W36644  12.227  32.917  14.031
66830W        W36645  36.494  32.022  13.381
66831W        W36646  30.550  42.815  13.336
66832W        W36647  10.139  23.684  13.852
66833W        W36648   8.654  21.595   0.305
66834W        W36649  21.513  10.314  11.032
66835W        W36650  34.976  24.715   2.883
66836W        W36651  27.601   8.685  12.446
66837W        W36652   6.344  41.430   1.890
66838W        W36653  17.203  25.024   3.635
66839W        W36654   2.347   7.717  11.963
66840W        W36655  32.993   9.774   3.871
66841W        W36656  25.125  29.155   1.430
66842W        W36657  37.363  36.920  14.515
66843W        W36658   7.358  31.479  12.344
66844W        W36659  32.119  16.569   4.344
66845W        W36660   0.752  17.693   4.616
66846W        W36661  30.003  31.411   0.436
66847W        W36662  39.059  20.553  10.562
66848W        W36663   2.741   7.387   4.794
66849W        W36664  10.256   3.365   1.893
66850W        W36665  28.934  21.069  12.995
66851W        W36666   5.695  39.905  14.393
66852W        W36667   4.342  13.198  11.100
66853W        W36668  16.176  29.571   0.419
66854W        W36669  20.765  27.462   2.745
66855W        W36670  31.511  30.628  13.434
66856W        W36671  21.086  41.519  14.327
66857W        W36672  21.564  37.438   3.237
66858W        W36673   8.880  14.280  10.988
66859W        W36674   4.922  27.167   2.738
66860W        W36675  10.376  40.045   4.170
66861W        W36676   8.766   9.149  11.892
66862W        W36677  13.736  18.194  12.909
66863W        W36678   9.224  43.897   2.383
66864W        W36679   5.429  44.979   2.708
66865W        W36680  34.074   1.300  10.490
66866W        W36681  25.508  27.548  14.997
66867W        W36682   4.908   0.857   3.858
66868W        W36683   9.714  26.085   2.272
66869W        W36684  39.415  44.971   4.653
66870W        W36685  17.690  11.670  14.411
66871W        W36686  43.398  26.992   3.158
66872W        W36687   2.765  31.010  13.824
66873W        W36688  25.663   8.873  13.925
66874W        W36689  31.512   9.829  12.536
66875W        W36690  36.909  41.329  11.907
66876W        W36691  10.319  26.642  14.488
66877W        W36692   6.884  28.595   0.925
66878W        W36693  12.852  31.548  11.884
66879W        W36694  35.946  26.101  11.405
66880W        W36695   8.692  23.553  14.936
66881W        W36696  44.881  25.039  13.435
66882W        W36697  33.886  18.196   1.930
66883W        W36698  11.300   0.422   2.314
66884W        W36699  32.597   6.858   1.761
66885W        W36700  13.690  41.333  11.128
66886W        W36701   1.737  15.226  13.873
66887W        W36702   7.697   2.274  11.097
66888W        W36703   2.284  31.414   0.810
66889W        W36704  35.087  41.388   3.191
66890W        W36705   5.897  24.995   2.179
66891W        W36706  11.723   6.704   3.270
66892W        W36707   2.288   4.353  13.818
66893W        W36708  25.208  21.017   3.273
66894W        W36709  31.433  39.994  12.546
66895W        W36710  33.594  42.823   2.784
66896W        W36711   7.367  17.131  10.977
66897W        W36712  35.490   4.805  11.385
66898W        W36713  11.694   7.297   2.193
66899W        W36714  13.272  12.118  14.876
66900W        W36715  43.343  16.601  11.500
66901W        W36716  29.440  25.117  11.971
66902W        W36717  42.825  22.028   4.206
66903W        W36718  20.561   1.337  10.972
66904W        W36719   5.712  30.066   2.320
66905W        W36720  39.001  10.293  10.069
66906W        W36721  22.567  31.637  14.811
66907W        W36722   1.248  19.077  12.512
66908W        W36723   9.668  12.688   4.252
66909W        W36724  14.249  24.516   0.468
66910W        W36725  36.083   7.280  13.946
66911W        W36726  36.479  42.863  11.978
66912W        W36727  28.963  10.295  11.470
66913W        W36728   2.910  23.192   0.405
66914W        W36729  11.689  21.721  12.575
66915W        W36730  25.611  35.510   3.796
66916W        W36731  27.165   6.364  10.495
66917W        W36732   9.327   6.842  11.039
66918W        W36733  23.511  34.370   3.284
66919W        W36734  24.682  31.135   1.846
66920W        W36735  18.286   0.975  12.423
66921W        W36736   5.269  11.215   0.748
66922W        W36737  13.616  44.379   3.189
66923W        W36738  39.369  33.422   0.326
66924W        W36739  40.893   9.875  11.101
66925W        W36740  25.099  11.690  11.007
66926W        W36741  39.338  44.801   2.339
66927W        W36742   0.958  11.724   3.171
66928W        W36743  30.082  18.072   4.640
66929W        W36744  44.326  17.759  10.405
66930W        W36745  43.903  40.842  14.362
66931W        W36746  40.953  41.917   1.347
66932W        W36747  26.161   0.334  13.320
66933W        W36748   8.295  43.933   2.288
66934W        W36749  15.208   0.459  13.017
66935W        W36750  10.155  44.813  12.424
66936W        W36751   2.304  28.173  11.962
66937W        W36752  38.329  25.706   0.883
66938W        W36753  44.488   4.878   4.783
66939W        W36754  43.999  34.440   4.117
66940W        W36755   4.396  42.853   2.835
66941W        W36756  11.764  16.582  10.908
66942W        W36757  18.224   9.394  13.374
66943W        W36758  26.533  20.151   0.259
66944W        W36759  42.300  22.524   1.900
66945W        W36760  32.390   0.822  14.881
66946W        W36761   4.396   8.712  12.434
66947W        W36762  16.634  36.591   2.772
66948W        W36763   8.215  17.193  12.383
66949W        W36764  25.499  39.473   0.407
66950W        W36765  37.954   7.235   2.408
66951W        W36766  25.700  35.073   3.180
66952W        W36767   9.711  17.748  12.566
66953W        W36768  44.791  22.563  12.361
66954W        W36769  22.088  27.121  13.825
66955W        W36770  11.149  35.894  11.856
66956W        W36771  44.009  19.152   1.852
66957W        W36772  18.744  17.104  12.529
66958W        W36773  14.677   2.419  11.436
66959W        W36774  39.918  30.989   4.307
66960W        W36775  13.108  33.534  10.555
66961W        W36776  23.652  11.296  10.547
66962W        W36777   5.319  22.189   0.340
66963W        W36778  33.566  13.677  10.621
66964W        W36779  37.045  33.428   0.425
66965W        W36780  20.587  34.369  10.955
66966W        W36781  41.419  21.611  10.503
66967W        W36782  44.950  30.087   0.895
66968W        W36783   7.837  36.533  10.491
66969W        W36784  43.768  30.584   0.859
66970W        W36785   2.838  26.969  12.534
66971W        W36786  21.136  27.967   2.239
66972W        W36787   0.333  13.800   4.159
66973W        W36788  31.546  24.154  10.540
66974W        W36789  20.674  19.734  12.991
66975W        W36790  18.645  29.919   1.858
66976W        W36791  38.458   4.412  10.916
66977W        W36792  14.337  12.146   0.262
66978W        W36793  38.369  12.123   4.178
66979W        W36794   0.953  18.211   2.399
66980W        W36795  22.514  30.988   3.322
66981W        W36796   7.683  24.504  12.541
66982W        W36797  25.493   3.745   3.722
66983W        W36798  10.240   5.701  14.998
66984W        W36799  40.832  36.446   2.300
66985W        W36800  25.640  42.963   9.970
66986W        W36801  33.979  21.704   2.690
66987W        W36802  37.569  37.437  14.423
66988W        W36803   8.168  34.000  14.907
66989W        W36804  13.203  40.871  14.450
66990W        W36805  24.559   5.411  12.057
66991W        W36806   4.389  14.603  11.593
66992W        W36807  39.519  21.522   0.797
66993W        W36808  20.162   9.660  12.341
66994W        W36809  32.055  30.087   2.381
66995W        W36810  41.360  24.643  14.453
66996W        W36811  38.915  30.929  11.874
66997W        W36812  44.880  17.585   0.276
66998W        W36813   1.420  15.228   4.832
66999W        W36814  33.592  38.034   2.786
67000W        W36815  16.168  43.385  12.008
67001W        W36816  11.803  15.214   1.251
67002W        W36817  19.062  28.151   1.871
67003W        W36818  28.541  40.862   0.900
67004W        W36819  40.006  28.647  14.908
67005W        W36820  25.689  35.993  14.302
67006W        W36821  36.451   5.245  14.494
67007W        W36822  13.285  22.519  10.528
67008W        W36823  22.604   7.268   4.835
67009W        W36824  35.417  37.053   0.426
67010W        W36825  17.096  43.800   0.265
67011W        W36826  21.023  36.910  11.448
67012W        W36827  30.652  23.997   1.911
67013W        W36828  30.068  35.391  14.882
67014W        W36829  35.048  29.011  11.974
67015W        W36830  27.019   9.253   0.762
67016W        W36831  42.894  11.278  10.114
67017W        W36832   0.425  30.138  14.433
67018W        W36833   8.844  22.513  12.900
67019W        W36834  13.606   4.840   0.276
67020W        W36835  30.020  24.684  11.988
67021W        W36836  13.126  12.653   1.854
67022W        W36837   5.202  40.875  11.997
67023W        W36838  12.129  20.215  12.984
67024W        W36839  32.980  19.549   4.123
67025W        W36840  36.962  14.141   2.887
67026W        W36841  28.054   6.426   2.242
67027W        W36842  15.623  42.935  12.014
67028W        W36843  44.892  39.898   1.696
67029W        W36844   6.718  33.537  11.385
67030W        W36845  15.103  22.693  14.898
67031W        W36846  17.141  32.451  10.937
67032W        W36847   6.768   2.841   1.707
67033W        W36848  41.949  39.436   0.460
67034W        W36849  41.501  32.050   2.412
67035W        W36850  11.656  40.514  10.539
67036W        W36851  39.322  27.043   3.261
67037W        W36852  41.871  41.457   2.406
67038W        W36853   1.885  30.930   3.667
67039W        W36854  38.023  20.151   4.781
67040W        W36855   8.895  10.829  10.494
67041W        W36856  43.789  27.654   0.373
67042W        W36857  16.113  12.348   4.645
67043W        W36858   9.317  13.736  12.067
67044W        W36859   9.157  44.970  13.405
67045W        W36860  36.470   1.369   4.252
67046W        W36861  22.105  13.320   2.792
67047W        W36862  43.824  39.016  11.984
67048W        W36863   7.345  20.266   1.749
67049W        W36864  26.599  12.264   0.290
67050W        W36865  33.017   1.342  14.906
67051W        W36866  37.843   9.321   0.767
67052W        W36867   4.730  14.170  14.962
67053W        W36868  43.432  16.604   3.227
67054W        W36869  15.784  15.658   1.788
67055W        W36870   9.389  24.099   4.185
67056W        W36871  39.423  22.712  12.350
67057W        W36872  12.237  32.618  12.908
67058W        W36873  33.395  27.026  13.543
67059W        W36874  14.815  24.203   4.225
67060W        W36875  10.205  32.055   0.966
67061W        W36876   5.425  32.575   0.837
67062W        W36877  23.708  18.569  14.811
67063W        W36878   9.646  36.367   2.696
67064W        W36879  18.101   3.426   4.281
67065W        W36880   1.408   5.298   3.670
67066W        W36881   9.350  22.739  14.299
67067W        W36882  39.924  23.199  11.081
67068W        W36883  15.306   4.722   1.912
67069W        W36884  44.859  34.049   4.217
67070W        W36885   4.712   5.795   9.971
67071W        W36886  32.097  35.929   9.984
67072W        W36887  20.045  16.182   3.349
67073W        W36888  36.049  20.142   4.237
67074W        W36889  17.228  40.453   0.394
67075W        W36890  37.489   6.759  11.400
67076W        W36891  19.150  22.119   0.741
67077W        W36892  44.909  20.526  11.099
67078W        W36893  20.229  38.457   4.832
67079W        W36894  27.143  28.585   4.781
67080W        W36895  19.232   2.948   1.240
67081W        W36896  21.172  12.826   1.289
67082W        W36897  26.983  30.460  12.951
67083W        W36898  39.353  31.972   4.725
67084W        W36899   6.297  32.066  14.489
67085W        W36900  11.711  44.413  12.935
67086W        W36901  15.304  38.473   0.913
67087W        W36902  16.654  20.627   0.244
67088W        W36903  36.940   9.328   2.277
67089W        W36904  44.407   9.315   2.252
67090W        W36905   2.321  11.297   4.627
67091W        W36906   2.900  15.246   3.342
67092W        W36907  41.979  27.103   1.345
67093W        W36908  34.563  26.964   0.746
67094W        W36909  11.692  40.467  13.390
67095W        W36910  23.067  43.458  13.057
67096W        W36911  14.623  19.179   1.748
67097W        W36912  23.521   3.299   2.681
67098W        W36913  23.230  17.687   1.437
67099W        W36914  21.033   7.905   4.772
67100W        W36915  24.036  21.098   1.805
67101W        W36916  11.836  20.140   2.672
67102W        W36917  11.621  41.960   3.786
67103W        W36918  43.359  19.042   0.960
67104W        W36919  17.614  40.006  10.918
67105W        W36920  36.025  31.523  13.051
67106W        W36921  29.423  43.279   3.272
67107W        W36922  32.095  19.113   1.241
67108W        W36923   0.892   2.386  14.348
67109W        W36924  39.992   8.708  10.962
67110W        W36925  14.793  39.485  13.472
67111W        W36926  24.227  16.720  10.404
67112W        W36927  22.009  13.687  14.384
67113W        W36928   9.774  14.712   0.396
67114W        W36929  23.489  14.685   0.751
67115W        W36930  19.095  29.467  14.922
67116W        W36931  38.992  28.657  12.063
67117W        W36932  33.395   4.206  14.349
67118W        W36933  33.038  18.139   1.359
67119W        W36934   9.275  40.418   1.760
67120W        W36935  21.018  11.626   5.253
67121W        W36936   3.877  24.711  12.895
67122W        W36937  32.586  28.035   1.827
67123W        W36938  26.657  41.798  13.864
67124W        W36939  35.539  15.287  14.965
67125W        W36940   4.863  21.631   0.791
67126W        W36941  19.751   2.733  10.980
67127W        W36942  31.949   7.668   0.743
67128W        W36943   8.836  43.976   0.285
67129W        W36944  28.992  25.031  13.931
67130W        W36945  36.452  22.243   1.290
67131W        W36946  34.008  31.461  12.343
67132W        W36947  14.646   3.325  13.923
67133W        W36948  43.882  32.043   3.706
67134W        W36949  14.773  14.600   1.750
67135W        W36950   9.295  42.011  12.984
67136W        W36951  39.409  14.120  14.782
67137W        W36952  35.021   2.918  13.495
67138W        W36953  28.578   5.360  14.381
67139W        W36954  38.907  17.073   0.371
67140W        W36955  41.528  17.121   4.818
67141W        W36956  18.235  10.792   0.342
67142W        W36957  30.022  18.151  13.894
67143W        W36958   1.863   4.442  14.870
67144W        W36959  28.949  33.613  13.050
67145W        W36960  32.537   4.219  14.391
67146W        W36961  19.534  29.440  11.578
67147W        W36962   7.349   2.364   4.164
67148W        W36963  10.312  28.049  12.344
67149W        W36964  21.230  17.179   0.950
67150W        W36965  24.487  30.612  14.393
67151W        W36966  40.990  11.261  10.573
67152W        W36967  31.129  31.963   1.885
67153W        W36968   5.815  40.927  10.438
67154W        W36969  20.583   1.447   4.609
67155W        W36970  11.235  42.463  14.458
67156W        W36971  12.748  10.312   0.812
67157W        W36972   6.699  40.464   2.861
67158W        W36973  25.120   8.343  11.500
67159W        W36974  36.568   4.703   3.268
67160W        W36975  38.053  14.717   2.387
67161W        W36976   4.273   9.316   0.439
67162W        W36977  10.212  39.542   4.806
67163W        W36978   4.292  26.134   4.693
67164W        W36979  44.815  16.264  10.545
67165W        W36980   4.380  21.664  11.110
67166W        W36981  34.544  40.380   0.853
67167W        W36982  26.049  14.638   2.795
67168W        W36983   6.240  37.926  10.024
67169W        W36984  13.210  23.583   0.454
67170W        W36985  19.721  28.036   5.305
67171W        W36986  15.602  39.969   1.834
67172W        W36987   2.392  22.673   9.995
67173W        W36988  22.171  34.890  11.968
67174W        W36989  35.559   7.372   3.368
67175W        W36990  23.165   2.410  10.484
67176W        W36991  22.585  28.154  13.890
67177W        W36992   4.432  21.166   2.322
67178W        W36993   2.392  28.476   0.956
67179W        W36994  25.472   2.809  14.991
67180W        W36995  37.035  29.478   1.345
67181W        W36996  43.870  33.426   4.174
67182W        W36997  31.427  22.143  11.025
67183W        W36998  19.667  31.584  10.567
67184W        W36999  41.432   9.689  11.547
67185W        W37000  23.044  25.622   2.863
67186W        W37001  19.640  16.746   4.227
67187W        W37002  38.004  23.670  12.972
67188W        W37003  17.660  25.144   4.264
67189W        W37004  17.255  35.446  13.408
67190W        W37005  24.039  25.169  14.031
67191W        W37006  37.346  25.161   0.327
67192W        W37007  18.082  42.459  13.889
67193W        W37008  10.820   3.327   4.308
67194W        W37009   0.285  12.175  11.533
67195W        W37010  24.499  13.610  10.449
67196W        W37011   4.440  33.071   2.785
67197W        W37012   1.786  30.094   3.860
67198W        W37013  42.009  24.030  14.443
67199W        W37014  23.500  40.873  13.843
67200W        W37015  36.591   7.189   0.858
67201W        W37016  35.904   7.255  12.883
67202W        W37017  27.946   3.848   4.614
67203W        W37018  21.211  31.547  14.960
67204W        W37019  13.725  11.852   4.193
67205W        W37020  22.541   2.759   0.731
67206W        W37021  23.671  10.142  13.527
67207W        W37022  34.099  41.323  12.563
67208W        W37023  35.384  23.071  14.449
67209W        W37024  33.116  37.967   4.642
67210W        W37025  44.463   5.407   4.813
67211W        W37026  16.141  26.128   2.334
67212W        W37027   7.330   1.408   1.325
67213W        W37028   8.373   1.873  11.115
67214W        W37029  20.547   7.269   4.618
67215W        W37030   4.419  24.655  13.884
67216W        W37031  32.076  12.339   4.737
67217W        W37032  33.103  13.105   4.337
67218W        W37033  33.545   3.834   4.195
67219W        W37034  11.299  17.672  13.863
67220W        W37035   8.891  29.574   2.678
67221W        W37036   1.366   0.873  10.437
67222W        W37037  30.462   7.895   1.385
67223W        W37038  27.052  37.496   4.195
67224W        W37039  37.472  20.092  12.903
67225W        W37040  15.790   2.840  12.012
67226W        W37041  15.773   7.672  14.412
67227W        W37042  12.197  44.384   4.351
67228W        W37043  13.799   8.212   1.237
67229W        W37044   0.267  14.692  14.775
67230W        W37045  11.752  29.616   0.781
67231W        W37046  22.051  43.431   1.407
67232W        W37047  21.758  26.086   2.889
67233W        W37048  21.094   9.325   3.231
67234W        W37049  38.459  25.484  13.964
67235W        W37050  15.700  21.663  14.362
67236W        W37051  35.073  30.505   1.841
67237W        W37052  41.407  23.514   2.243
67238W        W37053  33.384  25.661  11.503
67239W        W37054  14.250  18.739  14.801
67240W        W37055  44.962  25.113   4.601
67241W        W37056   4.903   5.434  13.815
67242W        W37057  15.674   0.979  12.467
67243W        W37058  13.275   3.408   4.350
67244W        W37059  13.193   3.343  10.621
67245W        W37060  20.631  33.480  10.946
67246W        W37061   6.837  14.209  11.396
67247W        W37062  21.675  21.120   4.676
67248W        W37063  31.966  40.882  14.822
67249W        W37064  37.451  38.878   3.655
67250W        W37065  44.958   4.313   3.196
67251W        W37066  30.987   4.923  10.585
67252W        W37067   9.841  14.279   1.872
67253W        W37068  16.178   8.333   2.313
67254W        W37069  40.365   7.253  11.953
67255W        W37070  25.490  19.273  11.559
67256W        W37071  35.866   2.753   1.869
67257W        W37072   2.399  27.572   3.331
67258W        W37073   5.850  11.316   0.277
67259W        W37074   0.875  37.462   5.120
67260W        W37075  17.151   0.913   0.301
67261W        W37076  24.498   3.930   2.748
67262W        W37077   4.206   9.275   4.657
67263W        W37078  17.306  40.003   2.364
67264W        W37079   9.809  39.821  11.379
67265W        W37080  34.439  42.882   0.740
67266W        W37081   5.850  44.322  11.903
67267W        W37082  29.516  10.831   3.331
67268W        W37083  15.322  26.051  14.310
67269W        W37084  40.371  27.490  13.488
67270W        W37085   7.260   6.293  10.497
67271W        W37086  12.179   2.326  11.499
67272W        W37087  43.280  36.037  12.071
67273W        W37088  23.651  26.998  10.490
67274W        W37089  23.005   4.404   4.834
67275W        W37090  44.850  39.029  10.576
67276W        W37091  40.369  21.152   3.212
67277W        W37092  28.436   5.875   2.227
67278W        W37093  40.342   3.899  13.992
67279W        W37094   8.345  43.331  14.774
67280W        W37095  37.889  19.192   2.898
67281W        W37096  22.224  15.091   4.711
67282W        W37097  23.666  25.111  13.031
67283W        W37098  21.041   8.285  12.519
67284W        W37099  30.524  27.031  14.767
67285W        W37100  35.932  25.016  13.862
67286W        W37101  19.669   8.375  14.503
67287W        W37102   0.879  20.748  13.514
67288W        W37103  36.354  25.585   0.868
67289W        W37104  23.198  16.806   4.201
67290W        W37105  26.511  42.959   2.764
67291W        W37106  13.138  16.284  14.821
67292W        W37107  29.176   5.390   4.118
67293W        W37108   5.343   5.883  10.572
67294W        W37109  35.064  33.563   5.194
67295W        W37110  39.467  11.674  14.887
67296W        W37111   4.391   6.839   4.263
67297W        W37112  39.815  32.449  11.998
67298W        W37113   6.394  33.583   3.201
67299W        W37114  25.002  13.208   1.729
67300W        W37115   6.333  31.596  13.484
67301W        W37116  12.634  25.159  13.849
67302W        W37117  15.823  16.302   2.300
67303W        W37118  30.610  10.233   2.316
67304W        W37119  17.730  35.372   0.768
67305W        W37120   7.734  40.990  13.917
67306W        W37121   9.655   4.450  10.888
67307W        W37122  19.075  30.522   2.813
67308W        W37123  13.263  39.521   0.272
67309W        W37124  29.012  42.505   4.749
67310W        W37125   9.672  34.910   2.389
67311W        W37126   3.303  20.171   1.824
67312W        W37127  36.029  31.995   4.795
67313W        W37128  32.118  25.161   4.637
67314W        W37129  19.590  22.660  13.370
67315W        W37130  30.111  41.506   1.785
67316W        W37131  29.975  15.691   4.152
67317W        W37132  14.645   6.855  11.426
67318W        W37133  21.525  26.558  10.956
67319W        W37134  38.368  40.464   0.341
67320W        W37135   9.168  43.021   0.326
67321W        W37136  16.205  20.035   0.807
67322W        W37137  13.672  23.696  11.053
67323W        W37138  16.621  14.314  11.609
67324W        W37139  25.138  16.304   1.341
67325W        W37140  41.534  25.534   2.667
67326W        W37141   3.246  40.981   4.195
67327W        W37142  25.670  39.993  10.472
67328W        W37143  36.563  33.549   3.719
67329W        W37144  44.332  37.476  12.477
67330W        W37145   5.889  30.634  12.041
67331W        W37146  35.877  39.928  11.484
67332W        W37147   4.943  10.338   2.708
67333W        W37148  29.518  15.167  13.446
67334W        W37149  28.012  24.048   4.324
67335W        W37150  33.012  27.017  11.956
67336W        W37151  38.365   3.940  11.090
67337W        W37152  19.264  31.952  10.995
67338W        W37153  29.555  35.462   2.303
67339W        W37154  44.488  37.946   3.344
67340W        W37155  38.400  27.196  11.115
67341W        W37156  23.048  37.974   3.326
67342W        W37157  25.603   8.692  13.454
67343W        W37158   0.816  16.649   4.320
67344W        W37159  19.161  42.505   2.895
67345W        W37160  11.230  35.509  14.777
67346W        W37161  14.739  27.133  14.289
67347W        W37162  44.008   8.720  13.928
67348W        W37163   3.766  22.686  10.012
67349W        W37164  11.717  42.505  11.584
67350W        W37165  40.397  35.535  12.999
67351W        W37166  36.938  41.839  12.936
67352W        W37167  10.284   4.805  14.280
67353W        W37168  16.685  12.852   1.232
67354W        W37169  38.426   2.325  10.558
67355W        W37170  21.708   4.340  11.459
67356W        W37171  18.658  40.476   4.191
67357W        W37172  30.441  44.865   2.887
67358W        W37173  15.793   5.320  14.280
67359W        W37174   1.967  26.973   4.290
67360W        W37175  19.566  23.159  10.536
67361W        W37176  27.948  37.029   4.347
67362W        W37177  23.225  28.993   2.662
67363W        W37178  40.420  31.076   4.210
67364W        W37179  12.195   5.840  13.441
67365W        W37180  35.562   1.894  13.496
67366W        W37181  11.336  39.887  14.007
67367W        W37182   6.778   0.376   4.669
67368W        W37183  35.392  24.724   1.388
67369W        W37184   2.391  40.540   2.256
67370W        W37185  17.092  40.340   3.306
67371W        W37186  43.827   8.299   1.935
67372W        W37187  30.019  38.545   4.602
67373W        W37188  11.287  10.734   3.852
67374W        W37189   5.313  12.281  11.388
67375W        W37190  43.947  41.299  14.955
67376W        W37191   3.729  13.332   0.478
67377W        W37192   1.337  18.581   1.920
67378W        W37193   5.724  19.186   3.330
67379W        W37194  11.633  17.156  14.974
67380W        W37195  25.203  32.063  11.447
67381W        W37196  44.834  14.243  11.543
67382W        W37197   4.720  26.582   1.835
67383W        W37198  10.783  30.622   1.738
67384W        W37199  34.100   5.338  12.537
67385W        W37200  20.583  36.998  14.507
67386W        W37201  44.436  36.844  12.883
67387W        W37202  11.795  11.296  10.917
67388W        W37203   9.692   6.326  11.392
67389W        W37204  18.274  24.573   3.169
67390W        W37205  25.987   0.897   3.657
67391W        W37206   4.237  11.215   0.431
67392W        W37207  13.607   1.956  12.343
67393W        W37208   5.848  27.685   4.828
67394W        W37209   1.742   3.753   2.794
67395W        W37210  28.972  15.183   1.912
67396W        W37211  16.077  29.962   3.708
67397W        W37212  22.033  23.693  10.513
67398W        W37213   5.744   6.184   0.860
67399W        W37214  36.517   1.965   3.281
67400W        W37215  27.471  39.454  13.043
67401W        W37216  41.364   8.849   1.892
67402W        W37217  15.738  21.644   3.210
67403W        W37218  24.101  39.817   0.398
67404W        W37219  26.667  34.103  11.484
67405W        W37220  20.057   9.364  14.921
67406W        W37221  28.976  14.792  13.936
67407W        W37222   9.234   1.895   1.407
67408W        W37223  24.076  29.091   2.293
67409W        W37224   2.834  19.722  13.859
67410W        W37225  12.328  28.511  12.985
67411W        W37226  41.406   1.829  10.422
67412W        W37227  44.870  19.056  13.021
67413W        W37228  25.073  23.030   1.903
67414W        W37229  24.091  40.955  13.488
67415W        W37230  11.155  16.648   9.952
67416W        W37231   9.850   1.811   2.845
67417W        W37232   2.955  11.373  11.869
67418W        W37233   9.712  26.161   3.198
67419W        W37234   5.933  18.267   2.249
67420W        W37235   7.745  29.918  10.551
67421W        W37236  11.727  34.955  12.854
67422W        W37237  39.493   8.661   2.734
67423W        W37238  11.256  10.187  14.904
67424W        W37239  29.536  40.960   3.743
67425W        W37240  21.644  30.975  12.959
67426W        W37241   7.243  28.053   2.744
67427W        W37242  12.119  24.694  12.954
67428W        W37243  25.490  27.488  12.042
67429W        W37244   0.489  26.072   1.819
67430W        W37245  37.025   3.787  14.897
67431W        W37246  40.416  26.624  11.554
67432W        W37247  34.952   1.938   1.236
67433W        W37248  35.916   8.320  12.832
67434W        W37249   8.748  16.072  11.570
67435W        W37250  34.500  32.391   5.249
67436W        W37251  21.514   8.846   2.753
67437W        W37252  14.262  41.336   4.761
67438W        W37253  35.410  15.822   2.234
67439W        W37254  20.575  44.455   0.842
67440W        W37255  15.627  37.403   0.759
67441W        W37256   0.792  18.259  10.117
67442W        W37257  42.031   9.250   2.360
67443W        W37258  34.944  40.484   0.940
67444W        W37259   4.929   2.908  14.407
67445W        W37260  18.702  15.237  11.094
67446W        W37261  25.157  13.653  10.970
67447W        W37262   9.256  24.720   3.869
67448W        W37263  11.322   4.926   0.310
67449W        W37264   7.239  43.823   4.733
67450W        W37265  39.487   9.314  14.017
67451W        W37266  44.354  27.978  13.887
67452W        W37267  30.099  27.531  13.806
67453W        W37268  37.049  35.501   2.221
67454W        W37269  20.612   8.849   1.447
67455W        W37270  20.158  44.423  10.094
67456W        W37271  33.997  28.521  12.866
67457W        W37272  23.632  20.673   1.785
67458W        W37273  40.926  18.765   4.697
67459W        W37274  15.797  44.486  12.510
67460W        W37275  25.596  23.490   3.266
67461W        W37276  39.920   0.853   3.188
67462W        W37277  35.537  20.086  11.083
67463W        W37278   8.299   4.225  12.441
67464W        W37279   2.859   6.255  13.539
67465W        W37280  19.227  37.434  10.483
67466W        W37281  20.682  29.570   4.344
67467W        W37282  19.565  29.445   4.135
67468W        W37283  24.987  28.964  11.088
67469W        W37284   6.279  26.632  11.084
67470W        W37285   6.313  13.106   0.874
67471W        W37286  28.587  40.987   2.334
67472W        W37287  23.121   9.850   4.152
67473W        W37288  23.730  16.160   4.244
67474W        W37289  18.721  21.621   4.600
67475W        W37290  41.337   8.360  14.776
67476W        W37291  40.844  18.151  13.918
67477W        W37292  15.263  25.559   3.166
67478W        W37293  19.236  26.633   4.138
67479W        W37294   5.198  13.285  14.514
67480W        W37295  43.422  25.569   4.648
67481W        W37296   0.399  14.655   2.754
67482W        W37297   0.494  18.163   2.674
67483W        W37298  12.267  23.082   2.418
67484W        W37299  36.898  28.626  14.783
67485W        W37300   2.745  25.148   1.819
67486W        W37301  27.103  38.980  12.893
67487W        W37302   1.416  39.856  12.856
67488W        W37303  17.678  38.892   4.261
67489W        W37304  33.620  35.072   2.242
67490W        W37305  27.504  10.300   2.674
67491W        W37306   8.861   1.320  12.964
67492W        W37307  40.338   9.345  10.584
67493W        W37308  26.546  25.521   3.756
67494W        W37309  16.661  27.485  10.428
67495W        W37310  38.008  17.184   1.417
67496W        W37311  13.314   8.683  11.014
67497W        W37312  41.415  20.043   1.284
67498W        W37313   4.801  12.169  12.409
67499W        W37314  39.032  24.002  11.605
67500W        W37315  13.652  13.675  10.410
67501W        W37316  19.534  38.472  10.945
67502W        W37317  39.450   7.199  12.013
67503W        W37318  28.463   6.762  13.050
67504W        W37319  28.526  35.473  14.978
67505W        W37320  38.439  20.523  12.035
67506W        W37321  42.459  42.839  14.999
67507W        W37322  29.075  26.022  13.357
67508W        W37323  43.340  41.963  10.907
67509W        W37324  20.190   0.817   3.300
67510W        W37325   0.356  23.640  11.411
67511W        W37326  41.912  15.154   2.807
67512W        W37327   6.861  43.869  10.892
67513W        W37328  36.898   3.886  10.579
67514W        W37329  24.636  10.237   2.689
67515W        W37330  25.641   3.344   2.341
67516W        W37331  11.273  30.141  10.971
67517W        W37332   2.442   9.369   1.272
67518W        W37333  12.730  24.614  11.573
67519W        W37334  40.303  34.436   3.254
67520W        W37335  13.132  33.568  10.096
67521W        W37336  14.692   7.171  12.911
67522W        W37337  34.928   9.341   2.824
67523W        W37338  15.149   9.273  11.593
67524W        W37339  16.279  25.620   2.796
67525W        W37340  32.512   4.290  10.630
67526W        W37341  23.147  16.707   3.215
67527W        W37342  34.984  37.068   4.180
67528W        W37343  36.051  18.151   4.606
67529W        W37344  40.034  23.628  13.062
67530W        W37345  35.925   2.952   4.193
67531W        W37346   2.470  20.043  11.865
67532W        W37347  33.110  23.662   3.152
67533W        W37348  25.974  20.252  11.054
67534W        W37349   7.315  11.838   4.294
67535W        W37350  26.658  15.786   4.132
67536W        W37351  21.081  40.522  14.967
67537W        W37352  31.134  24.653  14.339
67538W        W37353  23.621  21.195  12.832
67539W        W37354   9.864  18.788   3.757
67540W        W37355  17.576  25.580  13.826
67541W        W37356  41.499   6.789  12.085
67542W        W37357  39.365   9.682   1.440
67543W        W37358  42.949   6.867  13.430
67544W        W37359  40.860  16.263  11.377
67545W        W37360  19.659  17.228   4.731
67546W        W37361   3.366  39.942  14.432
67547W        W37362  41.488  32.098  14.845
67548W        W37363  21.218  30.525   2.729
67549W        W37364  13.758  16.194   2.710
67550W        W37365  15.143  36.955  10.939
67551W        W37366   6.260  16.218   1.324
67552W        W37367  37.937  38.858   3.861
67553W        W37368  41.476  42.335  11.057
67554W        W37369  14.154  22.531  10.637
67555W        W37370   4.228   3.860  13.047
67556W        W37371  32.053  27.575   4.793
67557W        W37372   5.763   7.176   0.249
67558W        W37373  18.090   3.422  10.598
67559W        W37374  34.544  16.617  10.575
67560W        W37375  14.713  40.425  11.594
67561W        W37376   3.934  22.585   3.816
67562W        W37377   8.737   1.812   4.235
67563W        W37378   9.805  11.748  10.419
67564W        W37379   4.431   0.806   0.391
67565W        W37380  18.548  37.458   1.272
67566W        W37381   8.250  42.323   4.141
67567W        W37382  15.197  39.004  11.564
67568W        W37383   4.428  37.378   0.289
67569W        W37384   4.219  18.716   1.409
67570W        W37385   7.700  14.620  13.992
67571W        W37386  40.360  39.359  12.434
67572W        W37387  14.114  44.000   2.369
67573W        W37388  30.954   5.829   2.320
67574W        W37389  37.017  24.538  11.509
67575W        W37390   9.782  16.092  10.409
67576W        W37391  18.140  34.957  14.792
67577W        W37392   1.399  20.562   4.234
67578W        W37393  14.700  41.435  13.841
67579W        W37394  38.512  20.128   3.708
67580W        W37395   1.774   0.750  11.427
67581W        W37396   2.248  24.686  11.456
67582W        W37397  39.345   2.921  11.582
67583W        W37398  14.716  42.454   0.742
67584W        W37399  17.065   2.438  14.393
67585W        W37400  26.962  37.359  13.900
67586W        W37401  24.019  20.150  14.375
67587W        W37402   5.729  34.388   1.324
67588W        W37403   7.732  16.103   2.682
67589W        W37404   3.373  26.475   5.133
67590W        W37405   9.336  24.526  10.503
67591W        W37406   9.339  38.387  13.861
67592W        W37407  30.970  18.710   1.311
67593W        W37408  29.006  37.019   2.391
67594W        W37409  17.089  44.492  11.585
67595W        W37410  25.185  28.605  11.114
67596W        W37411   1.732  14.809  14.931
67597W        W37412  22.105  32.484  12.093
67598W        W37413   2.904  18.261  11.449
67599W        W37414  10.803  16.090   3.680
67600W        W37415   4.738  19.256   5.198
67601W        W37416  33.962  35.578  11.871
67602W        W37417  19.168  38.968  12.436
67603W        W37418  25.484  27.598   3.831
67604W        W37419   5.422   0.305  11.496
67605W        W37420  36.552  11.658  10.026
67606W        W37421  16.257  14.705  13.855
67607W        W37422   2.948   9.152   3.346
67608W        W37423  33.466  32.629  11.596
67609W        W37424  25.094  15.329  10.443
67610W        W37425   8.386  21.682   4.617
67611W        W37426  26.558   7.352  13.023
67612W        W37427  23.985  10.826   3.841
67613W        W37428  14.287   5.725  14.838
67614W        W37429  10.652   9.741   3.733
67615W        W37430  11.179  13.147  11.916
67616W        W37431   4.797  37.374   0.772
67617W        W37432  27.489  22.012   0.878
67618W        W37433  31.592  10.782  11.537
67619W        W37434  44.772  32.970   3.656
67620W        W37435  34.081   0.744   4.213
67621W        W37436  32.601  26.492  10.567
67622W        W37437  39.928  33.878   3.182
67623W        W37438  19.158   7.878   2.316
67624W        W37439   3.247   4.399   4.226
67625W        W37440  24.065   1.824  11.937
67626W        W37441   5.262  26.007  13.026
67627W        W37442  36.374  33.943  10.912
67628W        W37443  42.502  28.002   3.684
67629W        W37444  12.328  20.125   0.376
67630W        W37445  12.726  22.248  11.427
67631W        W37446  15.185  20.653   4.607
67632W        W37447  17.111  30.094  12.936
67633W        W37448  34.600  17.216  13.456
67634W        W37449  42.482  39.829   4.737
67635W        W37450  24.611  44.335   1.233
67636W        W37451  13.616   2.243   3.168
67637W        W37452  25.543   3.841  11.423
67638W        W37453   6.294  25.982   2.217
67639W        W37454  34.395  33.614  10.452
67640W        W37455  42.487  40.312  11.410
67641W        W37456   6.827   2.742  12.039
67642W        W37457  22.664   2.921  13.988
67643W        W37458  31.914  26.156  12.889
67644W        W37459  12.252  28.655   0.808
67645W        W37460  31.433  15.277  13.876
67646W        W37461  43.850  24.686  10.517
67647W        W37462  14.727   1.482  10.924
67648W        W37463  39.856   5.759   4.686
67649W        W37464  10.271   5.221   4.332
67650W        W37465   1.913  20.185  14.029
67651W        W37466  23.217  10.384  11.052
67652W        W37467  10.336   1.375  13.502
67653W        W37468  22.158  44.879   2.859
67654W        W37469   9.225  17.671  14.991
67655W        W37470  22.705   9.683  12.541
67656W        W37471  13.769  43.356  12.396
67657W        W37472   5.431  30.165  10.493
67658W        W37473  42.373  42.374  14.851
67659W        W37474   5.698  43.826   3.245
67660W        W37475  11.184  13.635   3.347
67661W        W37476  20.243   8.851   0.788
67662W        W37477   8.779  43.305  14.372
67663W        W37478  24.080  32.035  12.428
67664W        W37479  20.566  32.416  14.301
67665W        W37480  40.311  11.630  10.495
67666W        W37481  32.998  13.132   2.685
67667W        W37482  21.741  44.892  11.436
67668W        W37483  37.971   9.739   0.875
67669W        W37484  21.748   0.931   1.297
67670W        W37485  40.336  30.649  14.280
67671W        W37486  31.101  30.538   1.814
67672W        W37487  34.421   3.322   1.375
67673W        W37488   8.171   8.754  13.525
67674W        W37489   8.295   5.240   0.475
67675W        W37490  11.176  38.490   4.249
67676W        W37491  20.656  41.968   4.681
67677W        W37492   2.875  37.885   2.708
67678W        W37493  19.725  10.758  14.409
67679W        W37494   8.209  14.116   0.305
67680W        W37495   9.752  28.562  11.959
67681W        W37496  12.688  12.616   3.296
67682W        W37497   6.329  40.831  14.773
67683W        W37498  43.284  36.920   0.399
67684W        W37499  23.493  37.072  11.532
67685W        W37500  40.924  13.195  14.493
67686W        W37501  38.439  25.557  11.533
67687W        W37502  30.472  36.562  14.832
67688W        W37503   8.162  43.920   3.374
67689W        W37504  30.625   8.752  13.945
67690W        W37505   9.770  11.654   3.718
67691W        W37506  42.884   0.436  12.864
67692W        W37507  12.203  14.321   3.153
67693W        W37508  32.141  31.472  13.986
67694W        W37509   5.220  18.096   1.394
67695W        W37510  33.053   5.262   0.242
67696W        W37511  38.975  16.609   3.246
67697W        W37512   5.934  41.450   1.815
67698W        W37513   0.302  14.245  13.882
67699W        W37514  38.836  29.931  12.457
67700W        W37515  15.212  23.614   2.300
67701W        W37516  32.092   3.852  13.491
67702W        W37517  11.265  24.987  12.836
67703W        W37518   6.285  42.999   3.740
67704W        W37519  26.058   3.424   0.426
67705W        W37520   5.760  10.208  11.611
67706W        W37521  20.267  13.773  12.084
67707W        W37522  26.662  22.723  11.012
67708W        W37523  39.460  30.941  12.892
67709W        W37524  14.194  18.558   4.125
67710W        W37525  35.935   3.829  13.927
67711W        W37526  21.733   7.234   4.618
67712W        W37527  15.693  44.496   0.393
67713W        W37528   8.707   5.687   2.897
67714W        W37529  30.072  10.219   3.790
67715W        W37530  28.972  37.851  11.376
67716W        W37531  11.729  41.482   2.679
67717W        W37532  13.309  29.514  13.836
67718W        W37533  18.703  19.638   0.903
67719W        W37534  10.355   9.310  13.986
67720W        W37535  17.604   0.300   4.662
67721W        W37536  17.125   6.768  10.467
67722W        W37537  19.655  35.011   0.338
67723W        W37538   0.871  24.635  12.062
67724W        W37539  14.746  29.571   3.659
67725W        W37540  17.086   7.694  11.967
67726W        W37541  38.025  15.730  11.972
67727W        W37542  20.113  20.706  11.893
67728W        W37543   8.752  22.739  13.499
67729W        W37544  21.705  16.745   4.787
67730W        W37545   7.721  41.896  12.997
67731W        W37546  20.217   3.423  11.900
67732W        W37547  38.820   9.803   4.771
67733W        W37548   9.151  25.130  12.045
67734W        W37549  34.427  16.729  12.442
67735W        W37550   0.813  13.803  10.621
67736W        W37551  17.248   9.234   2.328
67737W        W37552  18.555  29.572   1.257
67738W        W37553  20.551  31.478  12.459
67739W        W37554  36.021  30.152  13.986
67740W        W37555  32.979  25.598   4.252
67741W        W37556  33.929  10.867  12.097
67742W        W37557  21.179  33.542  12.432
67743W        W37558  21.707  40.346  14.974
67744W        W37559  13.303  12.708  14.928
67745W        W37560  13.196   2.737   2.852
67746W        W37561  13.234   9.295   4.144
67747W        W37562  22.735  11.146   0.963
67748W        W37563  35.481   5.355   0.746
67749W        W37564  43.820  13.639   2.752
67750W        W37565  26.034  17.173   3.832
67751W        W37566  10.269  19.734   4.186
67752W        W37567  36.364  17.601  14.308
67753W        W37568   6.304  42.489   1.704
67754W        W37569  34.919  32.053  12.057
67755W        W37570   8.665  36.031   3.818
67756W        W37571  17.561  33.451  12.491
67757W        W37572  17.264   3.363   2.716
67758W        W37573  29.653  20.703  13.435
67759W        W37574  25.058  41.978   4.680
67760W        W37575  37.840   7.309  14.952
67761W        W37576   0.945  34.560   3.279
67762W        W37577   2.939  34.934  11.443
67763W        W37578  36.094  34.980   3.305
67764W        W37579  39.507  29.944  11.871
67765W        W37580  31.575  38.887  12.046
67766W        W37581   5.399  40.310  14.455
67767W        W37582   1.337  26.068  13.036
67768W        W37583  25.121  11.751   1.884
67769W        W37584  31.616  33.938  14.817
67770W        W37585   8.838  36.465   5.144
67771W        W37586   5.706   0.928   3.833
67772W        W37587  29.425  32.976   3.359
67773W        W37588  39.492   1.249   4.823
67774W        W37589   2.956  27.625  12.004
67775W        W37590  22.547  28.540  11.882
67776W        W37591  17.252  39.849   3.166
67777W        W37592  28.113   3.217   2.254
67778W        W37593  42.812  41.382   4.704
67779W        W37594  15.155  28.476   2.765
67780W        W37595   8.711  39.502  14.847
67781W        W37596  16.224   7.210  13.369
67782W        W37597  14.651   5.415  11.909
67783W        W37598  35.384  44.815  10.939
67784W        W37599   6.682  16.575   0.347
67785W        W37600  25.546  39.489   2.888
67786W        W37601  44.332   7.180   9.995
67787W        W37602   6.380  29.935  14.312
67788W        W37603  42.862  19.709   2.891
67789W        W37604  25.134  15.589   4.293
67790W        W37605  42.832  24.979  12.395
67791W        W37606  31.571  13.140   3.298
67792W        W37607  42.428  24.691  14.417
67793W        W37608  40.320  23.220   3.750
67794W        W37609  31.402  16.147  10.484
67795W        W37610  43.492  11.255  11.452
67796W        W37611  44.871  24.082  10.960
67797W        W37612  36.465   0.952   1.341
67798W        W37613  20.247  14.705  12.068
67799W        W37614  19.756  16.747  11.033
67800W        W37615  19.175   7.239   0.864
67801W        W37616  33.055  38.516   4.819
67802W        W37617   1.421  14.112  13.475
67803W        W37618  10.272  34.491  12.885
67804W        W37619  34.398  28.067  14.373
67805W        W37620   4.774  43.982   5.093
67806W        W37621  27.002   4.360   4.157
67807W        W37622  27.978  38.420  11.577
67808W        W37623  12.618  21.259   1.244
67809W        W37624  19.097  27.187   4.140
67810W        W37625  29.134  24.108   1.892
67811W        W37626  34.077  17.595   3.764
67812W        W37627   8.698   7.367  13.542
67813W        W37628  32.606  23.608   2.725
67814W        W37629  41.928  37.470   2.400
67815W        W37630  11.703  14.262   0.382
67816W        W37631   8.679  36.589  10.436
67817W        W37632  21.025  18.157  14.513
67818W        W37633  14.797  29.556   2.750
67819W        W37634  39.432  20.741  10.607
67820W        W37635  44.900  33.031  11.982
67821W        W37636  13.163  39.427  10.418
67822W        W37637  23.163   0.284  13.469
67823W        W37638  21.513  24.678  12.013
67824W        W37639   5.410   6.399  14.367
67825W        W37640   5.916  44.988   3.233
67826W        W37641  33.599  41.041   0.898
67827W        W37642  10.710  21.175   1.766
67828W        W37643   2.942  24.709  10.525
67829W        W37644  36.928  44.441  10.538
67830W        W37645  16.077  24.204   1.237
67831W        W37646  13.170   0.428  10.953
67832W        W37647  37.567  37.995  11.125
67833W        W37648  28.515  32.038   2.898
67834W        W37649  13.682  23.164   4.188
67835W        W37650   8.777  25.530   4.255
67836W        W37651  43.968   2.828  11.430
67837W        W37652  22.176  34.560   3.383
67838W        W37653   0.837   5.813  11.894
67839W        W37654  42.930  23.039  11.385
67840W        W37655  18.263  39.549  14.494
67841W        W37656  32.500  41.337  12.017
67842W        W37657  12.817  40.366   4.246
67843W        W37658  22.012  26.952   3.850
67844W        W37659  33.950  44.418   4.131
67845W        W37660  37.069  30.971  12.471
67846W        W37661  27.625  13.717  14.010
67847W        W37662  14.588  21.703   0.289
67848W        W37663  41.964   3.729   0.308
67849W        W37664  30.629  23.063   4.207
67850W        W37665  14.143  44.451   5.186
67851W        W37666  44.842  30.563   2.366
67852W        W37667  26.626  36.074  10.523
67853W        W37668  17.133   7.243   3.208
67854W        W37669  17.266  10.371  14.483
67855W        W37670  13.702   4.335  12.028
67856W        W37671   5.261  24.612  13.464
67857W        W37672  44.313  15.699  13.893
67858W        W37673   5.703  19.264   1.308
67859W        W37674  30.436  14.609   2.866
67860W        W37675   9.663   1.414  14.389
67861W        W37676   1.354  20.647  11.532
67862W        W37677   7.320  41.869   3.792
67863W        W37678  43.962  43.901   0.272
67864W        W37679  33.444   2.910  11.506
67865W        W37680   8.198  26.617  14.847
67866W        W37681  43.888  30.558   1.283
67867W        W37682  17.643  27.045  13.417
67868W        W37683  30.106  40.941  11.551
67869W        W37684  22.712  18.221   3.729
67870W        W37685  19.092  35.502   1.752
67871W        W37686  34.387  38.990  12.562
67872W        W37687   8.188  28.511   3.648
67873W        W37688  12.307  17.304   0.917
67874W        W37689  14.589   4.423  13.317
67875W        W37690  36.089   3.935   3.278
67876W        W37691   6.226   7.692  10.512
67877W        W37692   8.173  44.468   0.870
67878W        W37693  37.423  41.862   1.298
67879W        W37694  13.748  44.952  14.017
67880W        W37695   3.431  38.411   3.329
67881W        W37696   2.867  23.012  13.420
67882W        W37697  20.612  35.555   3.199
67883W        W37698   9.688  38.454   4.650
67884W        W37699  11.762   4.774  12.468
67885W        W37700  41.320  43.374   0.245
67886W        W37701  36.386  32.890   2.752
67887W        W37702  12.249  17.735  13.911
67888W        W37703  33.960   0.876  14.891
67889W        W37704  31.062  37.971   2.338
67890W        W37705  10.792   9.804   2.787
67891W        W37706  17.713  43.288  13.955
67892W        W37707  42.998  30.917   2.265
67893W        W37708  37.856   2.865  13.900
67894W        W37709  23.708  32.581   0.951
67895W        W37710  25.513  27.667  10.501
67896W        W37711   2.321  21.687  12.086
67897W        W37712  15.300   4.216   3.811
67898W        W37713   8.823  13.107   0.826
67899W        W37714   3.235  39.447  10.593
67900W        W37715  18.280  40.859   2.419
67901W        W37716  10.821  42.385  11.479
67902W        W37717  27.080  36.527   2.665
67903W        W37718   6.336  21.042  12.427
67904W        W37719  33.400  16.275   9.934
67905W        W37720  11.634  17.624   2.772
67906W        W37721  13.793  17.209   3.238
67907W        W37722  28.628  43.847   3.714
67908W        W37723  10.291  39.876  11.524
67909W        W37724  15.770  16.206  14.759
67910W        W37725  14.793  32.892   0.886
67911W        W37726  21.176   3.783   5.137
67912W        W37727  10.249  16.088  12.979
67913W        W37728   1.827  13.808  13.467
67914W        W37729  38.542  24.567   1.903
67915W        W37730  13.221  23.718   1.339
67916W        W37731   8.365  39.552   2.280
67917W        W37732  37.982  38.857  11.125
67918W        W37733   2.415  19.712   3.349
67919W        W37734   3.448   7.216  11.033
67920W        W37735  31.570  36.371   0.316
67921W        W37736  40.038  34.028  10.956
67922W        W37737   0.951  18.054  10.509
67923W        W37738  43.471  20.525   3.196
67924W        W37739   3.406  22.735  11.503
67925W        W37740  35.539  42.502  14.476
67926W        W37741  37.971  20.541  13.797
67927W        W37742   3.719   8.305  12.075
67928W        W37743  10.730   3.306  13.064
67929W        W37744  20.689   2.867  10.589
67930W        W37745  25.475   5.841   9.976
67931W        W37746  12.171   1.249   2.398
67932W        W37747  27.119  23.698  10.997
67933W        W37748  26.026  29.149  11.018
67934W        W37749  20.668  12.749   0.431
67935W        W37750   2.728   9.322   2.739
67936W        W37751  19.086  40.867  11.503
67937W        W37752  37.497  18.166   1.915
67938W        W37753   1.395   3.798  12.028
67939W        W37754   4.277  36.957  13.853
67940W        W37755  32.483   0.449  13.445
67941W        W37756  11.704  44.505   1.875
67942W        W37757   0.817  33.565   4.832
67943W        W37758  32.089  26.613   0.935
67944W        W37759   1.731  15.772   4.301
67945W        W37760  12.743  36.590  13.835
67946W        W37761   9.333  16.197   3.326
67947W        W37762   4.746  29.965   0.802
67948W        W37763   8.283  42.418  11.546
67949W        W37764  21.641   4.239   1.849
67950W        W37765  37.852  24.667  14.496
67951W        W37766  37.463   0.459   3.723
67952W        W37767  22.122  38.914   4.772
67953W        W37768  11.197   4.885   4.777
67954W        W37769  28.492  39.494  13.532
67955W        W37770  30.093  29.611   3.306
67956W        W37771  27.943  25.191  12.439
67957W        W37772   7.366   5.251   2.901
67958W        W37773  18.069  12.343   3.295
67959W        W37774  38.879  28.529  10.944
67960W        W37775  44.936  34.891   4.642
67961W        W37776  33.879  44.771  11.459
67962W        W37777   6.397  33.114   3.369
67963W        W37778  36.499  23.668  13.343
67964W        W37779  37.500  13.674   3.195
67965W        W37780  25.074  14.735   2.369
67966W        W37781  39.520  32.084  13.882
67967W        W37782  38.855  34.033  14.484
67968W        W37783  40.306  13.116   1.449
67969W        W37784  31.067  10.320   4.239
67970W        W37785  21.686  17.762   2.680
67971W        W37786  32.114  22.736   1.240
67972W        W37787  35.457  42.907   0.478
67973W        W37788   6.890  17.237  11.062
67974W        W37789  41.788   1.317  13.837
67975W        W37790  24.008  15.305  12.976
67976W        W37791  17.607   5.330  10.566
67977W        W37792  30.587  36.017  10.582
67978W        W37793  39.936  32.484   3.816
67979W        W37794  31.053  40.534  14.478
67980W        W37795   2.934  37.978  14.287
67981W        W37796  12.168   5.831  11.871
67982W        W37797  15.749  32.586  14.318
67983W        W37798   8.202   1.266  13.436
67984W        W37799  22.140  16.094  11.060
67985W        W37800  31.579  17.215   2.338
67986W        W37801  23.213  25.999  13.910
67987W        W37802  43.961  42.515  12.467
67988W        W37803  25.142  11.202  14.275
67989W        W37804  33.064  39.554  14.888
67990W        W37805  10.632   1.890   0.811
67991W        W37806   0.321  39.395   2.327
67992W        W37807   2.275  26.463   0.794
67993W        W37808  34.097  32.442   0.861
67994W        W37809   2.301  31.461   2.219
67995W        W37810  37.004  37.086  14.834
67996W        W37811  37.371  13.229   4.352
67997W        W37812  10.141  37.839  14.847
67998W        W37813  38.545  22.587   3.364
67999W        W37814  12.337  15.779  13.441
68000W        W37815  19.712  16.577   3.211
68001W        W37816  35.435  44.364  14.855
68002W        W37817  27.952  41.789  10.905
68003W        W37818  29.068  14.655   1.758
68004W        W37819  41.461  39.464   0.869
68005W        W37820  38.477  20.616  13.982
68006W        W37821  11.203  34.997   1.225
68007W        W37822  17.144  24.589   1.222
68008W        W37823  18.634   4.836   0.281
68009W        W37824  37.546   9.878   0.478
68010W        W37825  12.628  31.952  13.866
68011W        W37826  13.281  15.144  14.005
68012W        W37827  19.720  29.048  10.930
68013W        W37828  23.219  22.124   2.183
68014W        W37829   9.831  28.643  14.353
68015W        W37830  17.601  13.656   2.827
68016W        W37831  37.880   7.191   3.307
68017W        W37832  22.693  26.598  13.447
68018W        W37833   0.780   5.434   1.308
68019W        W37834   8.874  36.901   0.892
68020W        W37835  15.293  36.444   0.901
68021W        W37836   4.248  27.169  11.502
68022W        W37837  28.978   8.170  11.964
68023W        W37838  31.625  38.048   1.864
68024W        W37839  10.714  25.508  14.388
68025W        W37840   7.864   3.272   3.180
68026W        W37841  12.173  29.963  14.885
68027W        W37842   5.709  31.485  12.534
68028W        W37843  28.501  39.545   2.195
68029W        W37844  22.538  27.173  12.919
68030W        W37845  25.490  25.528  12.936
68031W        W37846  38.980  22.087   0.922
68032W        W37847  13.232  13.105   3.792
68033W        W37848   4.913  18.575  11.475
68034W        W37849  33.469   3.938   1.368
68035W        W37850  36.519  23.228  12.550
68036W        W37851  43.871  10.190   0.948
68037W        W37852  14.769  19.203   0.941
68038W        W37853  10.371   4.824   5.218
68039W        W37854  44.378  11.633   1.352
68040W        W37855  26.954   6.865   0.731
68041W        W37856  40.436  20.088   4.283
68042W        W37857  32.478  20.626  10.448
68043W        W37858  13.824   3.835   0.745
68044W        W37859  39.387  30.413  10.614
68045W        W37860   6.403  23.034  13.048
68046W        W37861  25.978   5.320  12.045
68047W        W37862  41.523  10.175  13.845
68048W        W37863  27.001  26.515   4.146
68049W        W37864  25.011  31.126  10.472
68050W        W37865  21.246  18.729   4.742
68051W        W37866  29.639  32.070  14.807
68052W        W37867  24.151  32.088  10.543
68053W        W37868   4.205  13.229  14.982
68054W        W37869  36.430  16.240  12.932
68055W        W37870  15.205   1.874   4.229
68056W        W37871  20.080   8.741  12.015
68057W        W37872   6.188  26.182   0.399
68058W        W37873  41.510  17.777  10.434
68059W        W37874  28.595  34.517  12.070
68060W        W37875  33.493  26.703   9.986
68061W        W37876  17.675  12.767   4.180
68062W        W37877   6.813   1.752  10.546
68063W        W37878  18.732  25.538  12.939
68064W        W37879  15.301  43.481  11.097
68065W        W37880  39.531  16.081   0.297
68066W        W37881  43.969  43.890   2.290
68067W        W37882  37.921  16.287  14.403
68068W        W37883  11.362  17.176   2.335
68069W        W37884  27.998  34.084  14.314
68070W        W37885   5.774  30.064  13.917
68071W        W37886  30.449  38.489  14.803
68072W        W37887  41.794  16.206   9.629
68073W        W37888  35.545  10.315  10.537
68074W        W37889  25.127  16.734  13.044
68075W        W37890  22.021  25.608  12.536
68076W        W37891  27.595  26.488  14.508
68077W        W37892  35.388  12.132   0.439
68078W        W37893   1.932  32.109  10.528
68079W        W37894  30.511  33.452  14.442
68080W        W37895  39.410  31.405  11.983
68081W        W37896  39.954   7.362   3.346
68082W        W37897  43.270   3.790   4.175
68083W        W37898  10.845  10.249  12.043
68084W        W37899  36.054  35.945   3.807
68085W        W37900  44.365  35.396   3.739
68086W        W37901   5.698   0.290  11.103
68087W        W37902  21.630  26.164  10.629
68088W        W37903  30.989  21.026   2.394
68089W        W37904  39.355  37.088   4.350
68090W        W37905   0.268   9.678  11.393
68091W        W37906   3.753  28.487   2.260
68092W        W37907   0.859  43.273   4.250
68093W        W37908   2.726  43.946  14.873
68094W        W37909  37.002  29.640  12.941
68095W        W37910  44.894   4.833  12.905
68096W        W37911  15.648  32.630   1.701
68097W        W37912  19.067   1.336   2.720
68098W        W37913  27.197  36.481   4.742
68099W        W37914  33.398  28.598  13.415
68100W        W37915  33.583  38.341  14.828
68101W        W37916  26.458  12.640   2.690
68102W        W37917  39.981  22.653   3.724
68103W        W37918  19.090  43.312  10.542
68104W        W37919  19.209  32.077   2.360
68105W        W37920  28.561  32.460  11.915
68106W        W37921  44.804   2.813  10.622
68107W        W37922   3.440  12.843   0.477
68108W        W37923  29.108   1.292   2.878
68109W        W37924   0.931  41.506   2.720
68110W        W37925  22.201  22.149   2.768
68111W        W37926  40.470   8.217  12.484
68112W        W37927   3.267  16.187  13.421
68113W        W37928  44.795  26.047  10.537
68114W        W37929  42.478  21.580   4.806
68115W        W37930   3.866  15.310  14.387
68116W        W37931  31.587   8.298   4.341
68117W        W37932   7.206  22.092   4.225
68118W        W37933   8.881   8.383  14.027
68119W        W37934  40.905  34.867   0.813
68120W        W37935   3.381  35.451  13.977
68121W        W37936   2.370  22.614   3.342
68122W        W37937  34.457  31.903  10.985
68123W        W37938  15.171  28.121  12.079
68124W        W37939   1.270  23.202   4.733
68125W        W37940  34.474  40.973  12.921
68126W        W37941  36.029   6.401  13.532
68127W        W37942   8.865  33.122  14.012
68128W        W37943   1.823  14.779  10.636
68129W        W37944   0.486  32.531   1.859
68130W        W37945  30.032  37.479  13.897
68131W        W37946   0.797  14.183  11.974
68132W        W37947  28.462  38.421   0.863
68133W        W37948   4.241  27.164  10.902
68134W        W37949  22.155  15.585   1.337
68135W        W37950  37.008   4.386   4.310
68136W        W37951  23.671  32.966  11.994
68137W        W37952  14.100  44.937  10.408
68138W        W37953  15.146  33.432  13.865
68139W        W37954  37.410   4.226   1.318
68140W        W37955  40.548   9.213   4.286
68141W        W37956  39.036  33.052   2.703
68142W        W37957   3.753  17.780   2.745
68143W        W37958  18.252  19.224   3.183
68144W        W37959  12.205  38.473  11.464
68145W        W37960  43.904  25.205   2.753
68146W        W37961  12.856  15.690   1.818
68147W        W37962   3.711  13.323  11.995
68148W        W37963  44.997   5.228  14.987
68149W        W37964   1.876  32.072  11.974
68150W        W37965   8.835  27.094   1.837
68151W        W37966  31.989  25.590   1.257
68152W        W37967  29.934   2.730   1.733
68153W        W37968  14.223   9.339  11.405
68154W        W37969  35.039  12.180  14.887
68155W        W37970   7.330  41.788   0.773
68156W        W37971  42.522   3.943   4.680
68157W        W37972  17.779  22.067   3.355
68158W        W37973  16.674   6.752   3.163
68159W        W37974  31.902  23.075   4.739
68160W        W37975  25.018  40.455   4.748
68161W        W37976  23.513  11.695  12.903
68162W        W37977  27.551  38.547   2.230
68163W        W37978  15.751  18.628   2.810
68164W        W37979  20.202  13.259   4.671
68165W        W37980  11.352  23.568  10.908
68166W        W37981  29.055  39.533   0.419
68167W        W37982  12.632  12.793   1.903
68168W        W37983  42.812  28.072  13.793
68169W        W37984  29.516  21.671  10.936
68170W        W37985  26.641  24.548  14.940
68171W        W37986   7.770  30.927  11.053
68172W        W37987  35.102   9.725   3.292
68173W        W37988  10.190  14.160   2.772
68174W        W37989  11.240   4.259  12.427
68175W        W37990  19.097  16.606   1.797
68176W        W37991  35.016   0.319  13.869
68177W        W37992   2.228  42.317  11.051
68178W        W37993  43.994   4.903   4.697
68179W        W37994  12.306  33.487  11.502
68180W        W37995  41.946  28.522   4.199
68181W        W37996  33.061  44.963  13.808
68182W        W37997   3.887  39.435  10.599
68183W        W37998   6.224  17.089  14.277
68184W        W37999  18.167  40.897   0.739
68185W        W38000  11.274  43.784  13.384
68186W        W38001  29.524  39.037  13.433
68187W        W38002   8.191  22.564  13.322
68188W        W38003  25.651  40.384   2.664
68189W        W38004  19.056   2.423  10.438
68190W        W38005  39.839   8.752   0.773
68191W        W38006  19.275  39.004   0.802
68192W        W38007  27.671  32.035  10.562
68193W        W38008   1.801   6.903   0.924
68194W        W38009   3.841  26.537   3.815
68195W        W38010  42.823  43.319  10.614
68196W        W38011  13.743   3.361   3.158
68197W        W38012  21.120  23.088  14.456
68198W        W38013   5.838  19.211  12.825
68199W        W38014  43.420  41.004  12.574
68200W        W38015  25.701  23.500   3.728
68201W        W38016   6.249  33.128  13.901
68202W        W38017   4.334  42.003  14.017
68203W        W38018   9.176   5.916  13.923
68204W        W38019  41.027  39.872  10.599
68205W        W38020  24.056  27.188   4.190
68206W        W38021  15.787  42.906  10.545
68207W        W38022  33.538  43.327  12.837
68208W        W38023  26.066  23.032  10.519
68209W        W38024  30.994  38.989   2.249
68210W        W38025   5.391  30.077  10.973
68211W        W38026  21.221  18.294  12.355
68212W        W38027  11.238  25.490  12.027
68213W        W38028  32.052  41.868   2.737
68214W        W38029  43.474   0.744   2.766
68215W        W38030  37.032   6.397   3.154
68216W        W38031  12.740  23.621   2.325
68217W        W38032   2.806  42.856   2.793
68218W        W38033  10.248   4.765  11.432
68219W        W38034  31.570  31.431  14.994
68220W        W38035   6.911  40.865   2.236
68221W        W38036   1.884  39.407   0.744
68222W        W38037  36.591  20.740   4.166
68223W        W38038  15.797  35.906   1.912
68224W        W38039   6.812  24.618   2.197
68225W        W38040   7.205  26.957  12.074
68226W        W38041  36.564  16.214   0.883
68227W        W38042   2.364  23.144  13.941
68228W        W38043  19.046   3.780   3.766
68229W        W38044  12.818   5.800  14.419
68230W        W38045  42.469  23.164  11.992
68231W        W38046   2.391  23.222   4.731
68232W        W38047  11.713  42.916   0.365
68233W        W38048  21.164  44.276   5.287
68234W        W38049   6.384  25.030   0.258
68235W        W38050   3.394  13.690  13.810
68236W        W38051   3.453  12.721  13.952
68237W        W38052  36.472  16.154  14.869
68238W        W38053   7.840  24.979  14.898
68239W        W38054  28.658   6.406   1.744
68240W        W38055  36.021   1.806  11.527
68241W        W38056  30.008   9.149  11.374
68242W        W38057  14.798  31.118  11.063
68243W        W38058  40.820  25.205  14.002
68244W        W38059  26.664  33.403   5.089
68245W        W38060  28.165  35.930  11.535
68246W        W38061  28.027  22.594  13.824
68247W        W38062   8.727   6.193   1.436
68248W        W38063   8.331  26.686  13.468
68249W        W38064  39.422   3.363   0.859
68250W        W38065  35.087  16.630  11.389
68251W        W38066  40.918  34.478  12.553
68252W        W38067   6.341   3.726   2.734
68253W        W38068  11.146   2.352   1.223
68254W        W38069   4.851  40.860   2.821
68255W        W38070   4.769  22.525  10.573
68256W        W38071  38.539  28.946   3.284
68257W        W38072  11.723  19.570   3.697
68258W        W38073  44.389  11.772  10.012
68259W        W38074  26.954  20.166  11.069
68260W        W38075  12.214   1.809  13.856
68261W        W38076   7.256  44.394   0.899
68262W        W38077  23.534  42.324  11.408
68263W        W38078   9.261  20.730   1.807
68264W        W38079  16.747  19.687   2.870
68265W        W38080  44.785  25.484   3.818
68266W        W38081   1.793  30.594  14.953
68267W        W38082   3.925  12.749   3.862
68268W        W38083  41.873  42.951  10.134
68269W        W38084  34.012  28.678   1.428
68270W        W38085  31.574  41.480  13.314
68271W        W38086  36.538  11.777   1.274
68272W        W38087  15.656  17.787  10.997
68273W        W38088   3.777  12.693   5.138
68274W        W38089  30.414   3.833  13.915
68275W        W38090  14.243   3.869   3.385
68276W        W38091  38.002  36.427   0.838
68277W        W38092  21.548   5.914  14.918
68278W        W38093  19.534  24.600  11.071
68279W        W38094  44.981  23.624   2.664
68280W        W38095  12.351  18.609   0.277
68281W        W38096   3.342  40.894   1.301
68282W        W38097  32.516  11.790  14.831
68283W        W38098  43.771  37.344  11.865
68284W        W38099  27.042  13.181  11.899
68285W        W38100  30.946  17.571  10.614
68286W        W38101  10.748  40.416  12.486
68287W        W38102   4.911   2.472  11.575
68288W        W38103  40.992   6.287   2.313
68289W        W38104  35.869  34.071   2.742
68290W        W38105  21.105   5.891   4.764
68291W        W38106   5.880  30.913   0.264
68292W        W38107  43.904  37.411  12.962
68293W        W38108  11.292  44.888  11.016
68294W        W38109  33.940  32.505   3.757
68295W        W38110   2.955   1.915  12.014
68296W        W38111  28.994  43.445  14.413
68297W        W38112  41.456  43.387   2.189
68298W        W38113  36.086  12.180   2.330
68299W        W38114   0.482  16.281  14.986
68300W        W38115  39.859  39.535  14.809
68301W        W38116  17.719  42.468  13.323
68302W        W38117  33.086  17.757  10.635
68303W        W38118  22.508  30.039  11.052
68304W        W38119  43.302  37.005  13.855
68305W        W38120  10.815  11.804   2.755
68306W        W38121  13.653  43.447  14.799
68307W        W38122   3.270  20.197   4.132
68308W        W38123  31.015   9.287  12.000
68309W        W38124  37.866   7.907   3.292
68310W        W38125  34.917   4.310  12.397
68311W        W38126   0.776   0.954  11.442
68312W        W38127  21.730   7.827   4.807
68313W        W38128   5.429  42.307  12.439
68314W        W38129  41.507   5.748  14.490
68315W        W38130  12.348   7.273   1.727
68316W        W38131  41.412  25.201   0.747
68317W        W38132   0.972  22.707  12.367
68318W        W38133   5.252  36.543   3.817
68319W        W38134   9.182  11.840   2.708
68320W        W38135  38.477  14.817  13.866
68321W        W38136  25.511  40.387  11.040
68322W        W38137  34.989  35.582  12.476
68323W        W38138  38.526  33.054   1.406
68324W        W38139  24.481  15.306  13.350
68325W        W38140   4.890   9.834   3.284
68326W        W38141   6.681  35.382  11.549
68327W        W38142  25.075  34.400   1.400
68328W        W38143  34.889  34.541  14.944
68329W        W38144  14.253  20.585   3.691
68330W        W38145  15.818  32.574   2.700
68331W        W38146  31.604  10.206   4.744
68332W        W38147  37.058  32.062   0.402
68333W        W38148  17.113  36.522  12.944
68334W        W38149  29.082  40.456  11.981
68335W        W38150  21.251  39.442   1.434
68336W        W38151   6.798  25.618  11.492
68337W        W38152  22.694  26.035  14.784
68338W        W38153  34.443  10.707   1.704
68339W        W38154  39.339  20.202  11.522
68340W        W38155   6.417  23.229   1.241
68341W        W38156  40.460  44.496  11.520
68342W        W38157  43.492  10.822   2.186
68343W        W38158  40.391  31.116  14.877
68344W        W38159  21.636  15.643  14.491
68345W        W38160  37.388  31.105   4.154
68346W        W38161  38.434  32.972   3.675
68347W        W38162  19.703  21.052   1.708
68348W        W38163  30.067   1.762  11.571
68349W        W38164   9.705  41.826   1.449
68350W        W38165   4.271   2.383   2.703
68351W        W38166  32.414  17.200  11.526
68352W        W38167  11.823  14.602  13.049
68353W        W38168  16.737   6.808  10.975
68354W        W38169  21.248   7.909   2.196
68355W        W38170   8.404  41.913   9.959
68356W        W38171  30.938  26.627  11.418
68357W        W38172  32.582  41.819  10.496
68358W        W38173  41.963   8.693  10.978
68359W        W38174  29.533  22.728  13.815
68360W        W38175   7.822  23.211   3.673
68361W        W38176  14.746  35.388  13.434
68362W        W38177  10.813   2.368   3.323
68363W        W38178  35.499  43.935  14.931
68364W        W38179  36.585   0.854  13.942
68365W        W38180  22.623   7.325  11.066
68366W        W38181  35.569  28.000   0.893
68367W        W38182  17.292  43.994  11.071
68368W        W38183  22.592  43.275  13.841
68369W        W38184  17.165  42.932   2.807
68370W        W38185  21.042  16.172  14.394
68371W        W38186   5.402  37.923  10.970
68372W        W38187  10.851  40.922  14.831
68373W        W38188  19.697   0.294  12.359
68374W        W38189   4.387  29.028  14.276
68375W        W38190  24.614   9.269   3.869
68376W        W38191   4.281  15.159   2.379
68377W        W38192  11.251  17.071  11.092
68378W        W38193  31.486  12.315   0.922
68379W        W38194  38.482  25.116  14.499
68380W        W38195  20.098  22.567  13.501
68381W        W38196   4.209  44.290  14.859
68382W        W38197  17.622  16.785   3.172
68383W        W38198  20.157  19.137  12.441
68384W        W38199  29.033  22.248   4.273
68385W        W38200  18.685  38.022   1.772
68386W        W38201  44.936  17.245   0.355
68387W        W38202  15.087   8.387   0.806
68388W        W38203  29.115  40.882   3.320
68389W        W38204  13.351  24.978  14.513
68390W        W38205   0.764   1.787   4.624
68391W        W38206  36.521  32.544   1.890
68392W        W38207  22.088  32.600   4.299
68393W        W38208  36.001  13.125   1.915
68394W        W38209   1.820  23.173  14.469
68395W        W38210   0.433   4.735   0.950
68396W        W38211   0.882  25.551  10.426
68397W        W38212  27.632  18.263  13.823
68398W        W38213  34.463  36.412   3.809
68399W        W38214  38.459   3.755   4.119
68400W        W38215  24.988  20.154   0.321
68401W        W38216  20.619  35.985   1.228
68402W        W38217  33.980  18.054  14.774
68403W        W38218  24.205  30.514   1.845
68404W        W38219  26.048   3.912  13.397
68405W        W38220  37.546   1.823   2.300
68406W        W38221  34.525  37.834   3.376
68407W        W38222  36.843   5.213   3.281
68408W        W38223  25.600  17.147  12.525
68409W        W38224  11.843  12.187  14.853
68410W        W38225  44.939  17.619   3.846
68411W        W38226  33.958  39.931  10.551
68412W        W38227  38.841  26.066  12.399
68413W        W38228   4.725  36.550  13.810
68414W        W38229  32.142  32.479  10.955
68415W        W38230  33.014   4.779   3.773
68416W        W38231  24.098  34.466  10.951
68417W        W38232   9.378   8.738  12.576
68418W        W38233  26.579   6.213   2.827
68419W        W38234  22.135   3.804  13.337
68420W        W38235  38.542  13.208  11.390
68421W        W38236  25.536  15.308  11.994
68422W        W38237  34.983  30.061   0.368
68423W        W38238  19.233   6.408  11.443
68424W        W38239  22.612  35.104   1.824
68425W        W38240   7.871  37.518  10.966
68426W        W38241  25.664  40.421   0.353
68427W        W38242   4.815  16.130  11.441
68428W        W38243  20.218  31.045   0.771
68429W        W38244  10.377  32.114   2.334
68430W        W38245   6.869  29.063  10.941
68431W        W38246  41.412  23.579  13.845
68432W        W38247  15.194  35.921   2.677
68433W        W38248  17.778  42.356   4.686
68434W        W38249  12.638  35.513  11.955
68435W        W38250  14.136  24.196  14.488
68436W        W38251  28.983  35.982   2.330
68437W        W38252  24.568  30.569  13.827
68438W        W38253  35.592  38.828  10.528
68439W        W38254  25.050  25.714  12.013
68440W        W38255  31.004   2.890   4.780
68441W        W38256   1.943  20.536   4.694
68442W        W38257  37.515  35.984   3.807
68443W        W38258  20.233  44.007   1.818
68444W        W38259  31.555  42.797   2.743
68445W        W38260  26.027  30.573  12.339
68446W        W38261  27.446   7.776  14.844
68447W        W38262  42.925  33.537  11.067
68448W        W38263  23.105  18.058  12.050
68449W        W38264  15.704   6.722   0.477
68450W        W38265   0.330  33.913   4.325
68451W        W38266  11.236   0.340   0.774
68452W        W38267  29.019  30.116  12.396
68453W        W38268  18.070  30.938   3.161
68454W        W38269  35.939  19.210  10.968
68455W        W38270  31.070   2.808  13.356
68456W        W38271  39.380  43.981   2.725
68457W        W38272  38.371   1.850  12.900
68458W        W38273  37.841  18.701  11.442
68459W        W38274  28.052  19.117   0.785
68460W        W38275  32.617  31.464   0.742
68461W        W38276  23.630  22.587  12.531
68462W        W38277  24.222  37.851  11.875
68463W        W38278  44.802  22.222   1.824
68464W        W38279   9.842   6.890  14.476
68465W        W38280  39.815  15.216   4.144
68466W        W38281   3.370  22.577  13.479
68467W        W38282  42.494  35.969   4.242
68468W        W38283  21.537  19.175  11.534
68469W        W38284  38.554  10.700  14.483
68470W        W38285  43.452  10.740   1.844
68471W        W38286   7.743  28.120   0.449
68472W        W38287  39.427  23.612   0.848
68473W        W38288  36.088  24.106   5.116
68474W        W38289   9.693  38.862   3.269
68475W        W38290   9.278   8.874   2.211
68476W        W38291  22.015  42.489   2.210
68477W        W38292  13.772   1.403   1.892
68478W        W38293  15.168  24.536   1.744
68479W        W38294  25.702  35.090  11.388
68480W        W38295  32.493  43.840  14.435
68481W        W38296  44.504  21.122   2.366
68482W        W38297   2.243  27.000  13.524
68483W        W38298  35.373  11.331   2.766
68484W        W38299  16.612  36.383  14.837
68485W        W38300   8.183  11.768  14.777
68486W        W38301  29.100  14.600  11.113
68487W        W38302  25.646  41.340  13.044
68488W        W38303  44.890   4.443   0.821
68489W        W38304  21.706  22.043  13.518
68490W        W38305  33.993  41.021  10.642
68491W        W38306  39.861  41.532   0.322
68492W        W38307  27.186   6.211  10.935
68493W        W38308   7.895  41.041  12.373
68494W        W38309  11.274  35.861  14.368
68495W        W38310  24.552   5.712   4.196
68496W        W38311  18.217  23.549   0.479
68497W        W38312   0.778   6.705  11.086
68498W        W38313  18.201  35.964  12.967
68499W        W38314   5.337  39.400  12.339
68500W        W38315  40.434   6.267   3.718
68501W        W38316   5.904  17.074  10.503
68502W        W38317  36.441  31.910  11.437
68503W        W38318  22.549  29.026   2.735
68504W        W38319  36.039  42.444   4.775
68505W        W38320  22.243  26.143  12.894
68506W        W38321  34.098  12.293  13.878
68507W        W38322  28.934   7.227   4.345
68508W        W38323  32.512  39.929   2.241
68509W        W38324   6.704  34.056   1.377
68510W        W38325   5.239  36.451  10.413
68511W        W38326  36.408   3.935  11.551
68512W        W38327  29.423  27.507  14.811
68513W        W38328  12.841  25.472  12.943
68514W        W38329  21.183  18.586   2.347
68515W        W38330  33.499  21.579   4.604
68516W        W38331  42.978   5.193   1.330
68517W        W38332  17.290  13.773  12.078
68518W        W38333  44.488  15.248   3.686
68519W        W38334  23.672  15.148   4.650
68520W        W38335  31.105  34.981  12.974
68521W        W38336  26.046  37.929  10.058
68522W        W38337   0.358   2.241  12.849
68523W        W38338  38.522  20.607   3.380
68524W        W38339  10.208   9.695  14.456
68525W        W38340  11.226  18.105   1.267
68526W        W38341  16.702   9.340   1.379
68527W        W38342   9.878  15.118   0.869
68528W        W38343  33.434  27.490  13.448
68529W        W38344  18.141   7.872  14.444
68530W        W38345  37.881  30.486   3.373
68531W        W38346  10.213  21.086  12.349
68532W        W38347   4.745  34.971   0.742
68533W        W38348  33.464  44.454  12.532
68534W        W38349   1.367   9.836  11.419
68535W        W38350  16.773   8.667   0.347
68536W        W38351  39.876   2.362  14.815
68537W        W38352  24.215   9.252  13.990
68538W        W38353   5.241  10.356  10.136
68539W        W38354   1.435  28.133   0.864
68540W        W38355  38.524  43.341  10.437
68541W        W38356  37.964  19.755   0.473
68542W        W38357  41.448  34.024   2.738
68543W        W38358   0.818  24.216   1.928
68544W        W38359   9.292  33.968  13.460
68545W        W38360  35.480  34.091  10.405
68546W        W38361  13.802  25.021  12.361
68547W        W38362  29.594  27.578   1.425
68548W        W38363   3.253  41.349  11.072
68549W        W38364   3.738  42.867  14.382
68550W        W38365   5.853  11.296  10.892
68551W        W38366   7.228  13.296   2.244
68552W        W38367  42.023  32.416   3.148
68553W        W38368   7.391  43.464   3.777
68554W        W38369   3.797  29.157  12.422
68555W        W38370   6.749  35.537   0.900
68556W        W38371  18.679   5.768  12.041
68557W        W38372   5.896  12.667  12.904
68558W        W38373  42.949  13.159   1.860
68559W        W38374  19.129  10.217  10.892
68560W        W38375  31.117  19.237  13.965
68561W        W38376  43.285  33.988   0.951
68562W        W38377  43.882  10.682   1.805
68563W        W38378  14.621   4.721   3.775
68564W        W38379  25.069  11.621   2.867
68565W        W38380  12.173   5.815  14.432
68566W        W38381  10.138  36.070   5.306
68567W        W38382  40.007  32.535  10.421
68568W        W38383  38.855  35.578  10.574
68569W        W38384   7.682  16.750  12.860
68570W        W38385  37.014   5.330  14.982
68571W        W38386  26.974  35.947   3.722
68572W        W38387  35.503  35.997  12.053
68573W        W38388  42.779  12.690  14.835
68574W        W38389  11.370  38.075   1.346
68575W        W38390  25.979   4.867   3.170
68576W        W38391  18.095   2.473  13.414
68577W        W38392  15.797  11.165   4.183
68578W        W38393  43.483  25.708  11.102
68579W        W38394  25.984  35.939  14.881
68580W        W38395  35.978  29.161  13.978
68581W        W38396   4.819  10.296   0.267
68582W        W38397  27.560   5.403   0.751
68583W        W38398  14.722  28.666   2.312
68584W        W38399  41.924  22.544  11.994
68585W        W38400   6.765   8.405  11.445
68586W        W38401   7.762  34.964  12.075
68587W        W38402  26.690  24.090   4.144
68588W        W38403   6.393  32.126  12.083
68589W        W38404  19.743  11.320  12.885
68590W        W38405  10.234   3.356  14.366
68591W        W38406  12.812  26.006  12.986
68592W        W38407  38.528   7.831  12.340
68593W        W38408  38.894   2.245  11.125
68594W        W38409  42.420   5.377   3.683
68595W        W38410  31.028   1.743   2.855
68596W        W38411  11.856  35.527   1.885
68597W        W38412  14.657  25.096   2.864
68598W        W38413  21.744  14.255   0.746
68599W        W38414  43.001  32.086   5.194
68600W        W38415  33.117   0.948   1.911
68601W        W38416  32.044  30.487  10.474
68602W        W38417  12.121  25.052  13.824
68603W        W38418  12.295  12.315   1.289
68604W        W38419  27.650  17.648  12.003
68605W        W38420  34.011   6.822   3.754
68606W        W38421  36.405   6.350  11.011
68607W        W38422  29.093   4.801   1.362
68608W        W38423  33.953  31.153   4.720
68609W        W38424  25.036   2.295  14.396
68610W        W38425  32.438  38.410   2.339
68611W        W38426   9.743  16.254   4.114
68612W        W38427  41.948  35.359  12.013
68613W        W38428  37.473   5.193   1.330
68614W        W38429  38.938  38.875   1.789
68615W        W38430   3.255  41.881   1.760
68616W        W38431   6.198  42.433   4.215
68617W        W38432  19.763  42.871  13.507
68618W        W38433  16.113   9.385   4.242
68619W        W38434   0.772  44.009  11.415
68620W        W38435   2.741  33.581   3.155
68621W        W38436  17.087  13.106   4.724
68622W        W38437  22.156  19.671  11.984
68623W        W38438  39.422  24.036   0.748
68624W        W38439  11.692  37.053   0.410
68625W        W38440   2.817  14.183  14.477
68626W        W38441  13.252  25.078   0.270
68627W        W38442  21.077  34.910  12.419
68628W        W38443  20.562  19.775   3.851
68629W        W38444  35.600  41.922   0.385
68630W        W38445  24.104  23.614   3.351
68631W        W38446  26.134  29.449  14.833
68632W        W38447  20.071  37.426  10.927
68633W        W38448  19.040  12.309   4.691
68634W        W38449  20.132  27.167   0.839
68635W        W38450  14.763  22.186  12.044
68636W        W38451   3.948  29.574   0.456
68637W        W38452  26.611  37.582  12.902
68638W        W38453  35.011  39.957   4.712
68639W        W38454  40.516  43.359   3.756
68640W        W38455  14.782  29.036  10.904
68641W        W38456  19.171   3.385   0.842
68642W        W38457  22.708  14.299   1.728
68643W        W38458  39.481  24.977  13.485
68644W        W38459  12.836  26.129   0.881
68645W        W38460   0.752   0.432   3.229
68646W        W38461  25.711  18.258   4.297
68647W        W38462   5.865  10.742   2.695
68648W        W38463  32.050  19.143   0.317
68649W        W38464  35.104  27.056   2.270
68650W        W38465  23.073  17.107   1.352
68651W        W38466  21.630  31.541  14.281
68652W        W38467  28.639  33.579   3.256
68653W        W38468  36.488   7.358  11.886
68654W        W38469  10.152  10.296  11.951
68655W        W38470   1.381  31.640  13.481
68656W        W38471   8.829   5.855   4.667
68657W        W38472  16.131  43.782  12.850
68658W        W38473  42.479   0.798   3.324
68659W        W38474   8.395  14.295   1.775
68660W        W38475  12.757  39.988  12.920
68661W        W38476  15.107  28.929   3.197
68662W        W38477  14.733  36.420   0.478
68663W        W38478  37.519   5.193  12.431
68664W        W38479  26.608   9.887  10.990
68665W        W38480  22.637  37.883   3.769
68666W        W38481  34.867   9.816  10.538
68667W        W38482  44.923  25.094  13.877
68668W        W38483  41.041  44.823  11.902
68669W        W38484   7.207   8.186  13.460
68670W        W38485  22.711  29.128  12.458
68671W        W38486  28.450  37.545  13.908
68672W        W38487  27.682   5.208  13.906
68673W        W38488  16.298  13.264  11.072
68674W        W38489  12.255  32.088   0.877
68675W        W38490  14.192  19.620  13.822
68676W        W38491  38.829  37.399  13.969
68677W        W38492  10.187  15.168  11.450
68678W        W38493  11.186   3.288   1.229
68679W        W38494  24.221  41.865   2.410
68680W        W38495   0.467  30.503  12.091
68681W        W38496   7.325  37.579  10.902
68682W        W38497   1.744  36.489  14.838
68683W        W38498  36.991   5.877   4.321
68684W        W38499  37.462  22.222   3.793
68685W        W38500  44.954  24.195  12.547
68686W        W38501  42.485  29.429  13.906
68687W        W38502   2.801   6.356   0.951
68688W        W38503  30.930  24.721  14.997
68689W        W38504  30.433  31.953  12.357
68690W        W38505  43.886  43.858   0.816
68691W        W38506  28.021  27.505  13.927
68692W        W38507  35.407  33.958   1.708
68693W        W38508  33.409  19.547  11.007
68694W        W38509  37.026  26.627  13.040
68695W        W38510  40.391  42.350   4.614
68696W        W38511   8.386  32.487   1.245
68697W        W38512  22.103   1.355   2.310
68698W        W38513  32.543  19.652  11.577
68699W        W38514  29.996  10.356  11.546
68700W        W38515   4.868  44.446  11.418
68701W        W38516   3.864  23.561  13.320
68702W        W38517   8.252  27.157  13.319
68703W        W38518  43.492  10.334   0.960
68704W        W38519   9.252  41.027   3.860
68705W        W38520  19.579  32.535   2.696
68706W        W38521  39.994  13.764  14.408
68707W        W38522  20.130   9.683   1.444
68708W        W38523  29.037  34.903  14.870
68709W        W38524  15.607  24.224  11.103
68710W        W38525  11.755  35.994   4.152
68711W        W38526  40.361   5.884   4.708
68712W        W38527  21.155  24.043   4.302
68713W        W38528  37.561   8.342   2.807
68714W        W38529  11.142  32.424  12.842
68715W        W38530  44.385  40.996   3.785
68716W        W38531   8.315   7.260   0.286
68717W        W38532   8.380  29.131  13.448
68718W        W38533  10.154  18.743   4.783
68719W        W38534   9.729  39.054  12.410
68720W        W38535  14.634   8.844   4.296
68721W        W38536   7.186  39.867  13.490
68722W        W38537  17.638   0.416  11.481
68723W        W38538  27.532  28.612  13.954
68724W        W38539  42.293   7.821   4.669
68725W        W38540  27.482  28.157   1.384
68726W        W38541  43.020  27.095  10.445
68727W        W38542  24.488  44.823   4.293
68728W        W38543  43.901   0.359  11.413
68729W        W38544  25.115  36.094   3.796
68730W        W38545   8.830  43.781   2.407
68731W        W38546  31.995  15.319   3.174
68732W        W38547  37.489  37.501   5.183
68733W        W38548  39.325  29.097  10.985
68734W        W38549  15.242  13.841   0.761
68735W        W38550   4.883  18.136  13.470
68736W        W38551  40.971  37.006  11.420
68737W        W38552  28.569  29.504  13.468
68738W        W38553  18.764  40.391   5.260
68739W        W38554  18.081  29.105  11.894
68740W        W38555  40.436  11.748   2.246
68741W        W38556  44.388  24.223   3.200
68742W        W38557  22.241  15.237   0.276
68743W        W38558  24.604  23.218  11.402
68744W        W38559  10.253  43.944   1.404
68745W        W38560  27.062  20.168   1.730
68746W        W38561   9.189   3.892   1.317
68747W        W38562  38.052  11.168   3.687
68748W        W38563   1.451  30.147   0.799
68749W        W38564  41.798  19.144  14.011
68750W        W38565  16.671  44.986   2.383
68751W        W38566  17.559   7.288  12.972
68752W        W38567  21.588  35.443  10.897
68753W        W38568  30.623  28.675   1.835
68754W        W38569  36.971   9.368  13.534
68755W        W38570  12.284   0.435   2.801
68756W        W38571  15.279  23.990   0.734
68757W        W38572  35.011   4.798  14.977
68758W        W38573  26.119  20.152  13.050
68759W        W38574  18.656   9.869   1.789
68760W        W38575  35.494  20.258  12.942
68761W        W38576  33.983   1.951   2.384
68762W        W38577  12.803  18.101   3.149
68763W        W38578  33.506  18.175  13.048
68764W        W38579   6.226  19.599   3.184
68765W        W38580   8.229   2.364   2.184
68766W        W38581   0.479  20.738  12.392
68767W        W38582  19.652  12.847  13.798
68768W        W38583  23.682  23.088  13.044
68769W        W38584  17.712  31.087   1.267
68770W        W38585  19.627  14.799   4.737
68771W        W38586   0.947  42.979   0.405
68772W        W38587  32.042  19.117   3.635
68773W        W38588  15.095  28.655   1.820
68774W        W38589  12.274  11.355  13.965
68775W        W38590  39.536   1.968   1.934
68776W        W38591  41.923  14.118   2.353
68777W        W38592   9.213  17.773   4.276
68778W        W38593  11.771  40.475  14.966
68779W        W38594  44.375  40.536   3.213
68780W        W38595  32.587   1.339  12.539
68781W        W38596  17.068  26.991  13.334
68782W        W38597   7.282  38.410   0.324
68783W        W38598  23.997   7.284   0.911
68784W        W38599   9.775  18.569   5.611
68785W        W38600  16.227  18.749   1.312
68786W        W38601  26.682  41.300   3.340
68787W        W38602  44.769  39.488  13.426
68788W        W38603  11.687   7.377  10.579
68789W        W38604  26.580   0.367  13.454
68790W        W38605  12.240  17.776   2.843
68791W        W38606  20.660  30.915  14.936
68792W        W38607   4.417  16.130  13.999
68793W        W38608  14.165   2.380  14.901
68794W        W38609  25.111  10.831  13.320
68795W        W38610   3.380  26.086  11.511
68796W        W38611  44.484   1.325   0.434
68797W        W38612  24.129  44.350  14.388
68798W        W38613  29.507   4.748  12.341
68799W        W38614  41.955  32.138  11.111
68800W        W38615   9.174  10.138  13.428
68801W        W38616  18.207  31.949  13.909
68802W        W38617  31.032  23.120  12.485
68803W        W38618  39.466  13.792   2.849
68804W        W38619  39.379  21.138   3.222
68805W        W38620  35.007  29.656  12.506
68806W        W38621  20.131  43.302  12.825
68807W        W38622  28.484   0.865   3.670
68808W        W38623  25.968  35.890  12.433
68809W        W38624  13.269   4.387  12.013
68810W        W38625  37.998   3.720  14.450
68811W        W38626   4.874  17.208   5.142
68812W        W38627   7.749  26.464   3.172
68813W        W38628   1.279   0.398   1.854
68814W        W38629  41.414  26.672   3.203
68815W        W38630  43.296  21.735  13.827
68816W        W38631   5.270  24.078  10.559
68817W        W38632  28.526  39.544  11.417
68818W        W38633  21.146  15.326  11.074
68819W        W38634  25.511  21.632   2.791
68820W        W38635  38.882  22.547  11.406
68821W        W38636  24.722  34.603  10.951
68822W        W38637  43.290  28.069   1.214
68823W        W38638  23.018  24.082   2.838
68824W        W38639   7.268  29.443   2.815
68825W        W38640   3.254  39.501   3.292
68826W        W38641  16.261  23.588   3.365
68827W        W38642  17.205  31.592  10.038
68828W        W38643  21.710  33.393  14.007
68829W        W38644  43.355   6.244   3.257
68830W        W38645  14.154  22.534   1.792
68831W        W38646   7.266   3.354   1.793
68832W        W38647   0.263  21.100   1.353
68833W        W38648  41.522  22.042   1.342
68834W        W38649  37.377  26.173   2.720
68835W        W38650   5.291  28.579  12.008
68836W        W38651  14.163  20.147   2.339
68837W        W38652   7.239  27.072   3.302
68838W        W38653  17.292  28.671  12.429
68839W        W38654  29.583   3.915  10.545
68840W        W38655  19.554  14.332   1.408
68841W        W38656   9.803  38.950   4.337
68842W        W38657   5.257  23.172   4.682
68843W        W38658   3.868  35.048  11.909
68844W        W38659  14.107  15.589  14.944
68845W        W38660   6.314  42.839  12.964
68846W        W38661   1.399  43.864  10.927
68847W        W38662  43.289  22.559   0.470
68848W        W38663  37.081  42.366  11.088
68849W        W38664  24.124  39.332  13.362
68850W        W38665  19.150  31.011   0.405
68851W        W38666   3.899   5.227   2.793
68852W        W38667   2.383  27.002  10.447
68853W        W38668   2.846  22.169  12.890
68854W        W38669   2.271   0.789  10.587
68855W        W38670  18.106  20.117  12.443
68856W        W38671  32.585   2.455   1.357
68857W        W38672  21.541  31.973  14.901
68858W        W38673  29.949  36.077  11.518
68859W        W38674  25.669  20.645  14.345
68860W        W38675  18.063  21.754   4.115
68861W        W38676  14.301  13.806  11.516
68862W        W38677   5.246  22.082   1.715
68863W        W38678  38.873  20.652  14.315
68864W        W38679  35.564   8.322   3.630
68865W        W38680   6.410   1.389   3.758
68866W        W38681  30.099   4.826  14.483
68867W        W38682  35.004  15.319   4.305
68868W        W38683  23.133  19.636  14.434
68869W        W38684   0.283   9.279  14.010
68870W        W38685  15.714   5.290  12.401
68871W        W38686   1.247   3.280  14.291
68872W        W38687  37.403   5.371   2.729
68873W        W38688   1.754  35.554  11.425
68874W        W38689  43.370  36.992  11.013
68875W        W38690   1.918  32.100   1.912
68876W        W38691  42.348  28.965   3.851
68877W        W38692  32.038   6.322   4.693
68878W        W38693  36.351  30.146   0.411
68879W        W38694  24.720  31.908  13.441
68880W        W38695  16.754   7.851   1.700
68881W        W38696  32.994  15.626  13.909
68882W        W38697  11.650   1.273  13.317
68883W        W38698  18.761  17.578  14.296
68884W        W38699  19.055  31.978   0.432
68885W        W38700  44.771  16.072  14.829
68886W        W38701  33.450  32.553  11.041
68887W        W38702  10.670  35.550   3.750
68888W        W38703   2.734  37.564  11.523
68889W        W38704  29.592  12.338   2.768
68890W        W38705  22.533  32.101   4.678
68891W        W38706  43.847  28.677  14.444
68892W        W38707   3.433  41.349   1.296
68893W        W38708  15.151  42.801   2.349
68894W        W38709  24.524  43.900  14.392
68895W        W38710  26.966  14.334  11.991
68896W        W38711  17.240  41.930   4.616
68897W        W38712  28.677  43.305  11.873
68898W        W38713  17.794  23.536  13.919
68899W        W38714  34.010  20.660  14.860
68900W        W38715  39.500  39.853  10.974
68901W        W38716   4.785  11.812  11.879
68902W        W38717  11.668   5.381   2.343
68903W        W38718   0.322  41.498  14.429
68904W        W38719  31.628   6.893  12.878
68905W        W38720  33.059  18.590   2.356
68906W        W38721  23.129  25.680   4.172
68907W        W38722  20.190  19.614   4.812
68908W        W38723  23.110  35.986  14.312
68909W        W38724  33.405  39.037   2.405
68910W        W38725  17.612  44.419  14.380
68911W        W38726  15.756  40.808   2.342
68912W        W38727  43.399  15.136  12.993
68913W        W38728  20.173  10.138  11.047
68914W        W38729  14.298  15.192  14.906
68915W        W38730  13.311   2.321  12.367
68916W        W38731  32.997  28.104  11.956
68917W        W38732  25.650  38.447   0.458
68918W        W38733  19.145   6.302  12.867
68919W        W38734  36.011   0.482   1.378
68920W        W38735  42.322  33.560  13.482
68921W        W38736  43.008  12.160  12.919
68922W        W38737  25.137  42.444   2.721
68923W        W38738  14.590  41.406  10.949
68924W        W38739  24.652  22.142  12.071
68925W        W38740  25.636  26.117   4.790
68926W        W38741   9.664  33.432   2.187
68927W        W38742  19.573   1.884   0.732
68928W        W38743  13.677  18.645  14.816
68929W        W38744  24.058  19.778  10.936
68930W        W38745   5.931  39.373  10.943
68931W        W38746  11.175  16.108  14.504
68932W        W38747  17.152  32.559   3.639
68933W        W38748  36.906  36.992   0.729
68934W        W38749  27.639  17.642   4.834
68935W        W38750  36.869  38.954   1.774
68936W        W38751  43.431  26.049  12.005
68937W        W38752  31.544  40.391   4.786
68938W        W38753  15.652  43.452  10.432
68939W        W38754   4.405  44.433   0.479
68940W        W38755  26.980  32.564  13.373
68941W        W38756  28.934   9.215  10.507
68942W        W38757  41.816  20.168   3.232
68943W        W38758   8.814  32.067  14.309
68944W        W38759   6.884  25.195   3.380
68945W        W38760  20.732  29.075  14.886
68946W        W38761   8.800   7.174  11.588
68947W        W38762  44.862  38.836  12.085
68948W        W38763  20.060  26.524  13.873
68949W        W38764   5.934  35.985  13.819
68950W        W38765  17.158  14.820  11.001
68951W        W38766   8.683  23.682   3.841
68952W        W38767  39.476  31.631  13.794
68953W        W38768   5.437  10.305  13.981
68954W        W38769  26.680  25.196  13.486
68955W        W38770  31.575  12.654  10.535
68956W        W38771  19.145  23.507   2.804
68957W        W38772  35.479   2.449   3.772
68958W        W38773  39.852   9.889  11.381
68959W        W38774  29.462  12.655   1.721
68960W        W38775  18.272  31.456   4.660
68961W        W38776  36.578  32.968  13.857
68962W        W38777  44.870  16.099   4.691
68963W        W38778  28.029  23.529  12.965
68964W        W38779   1.400  13.683   4.598
68965W        W38780   2.434   4.381  13.538
68966W        W38781  13.807  23.502  13.819
68967W        W38782  23.038  16.625  14.436
68968W        W38783  32.033  36.501   0.406
68969W        W38784  38.922  13.338   0.411
68970W        W38785  28.512  30.510   0.455
68971W        W38786  40.919  38.394  10.640
68972W        W38787  38.464  30.522  13.921
68973W        W38788  14.177  37.427   2.279
68974W        W38789  38.533  33.883   3.215
68975W        W38790   8.667  10.333   0.788
68976W        W38791  26.164  22.228  14.283
68977W        W38792   9.802   5.202   4.238
68978W        W38793  36.506  15.732   4.712
68979W        W38794  14.192  11.352   4.348
68980W        W38795  26.575  35.463   2.366
68981W        W38796  43.974  29.525  13.381
68982W        W38797  15.324  14.324   2.183
68983W        W38798   7.173  32.590   2.666
68984W        W38799   6.424   3.331   0.785
68985W        W38800  13.661  19.740   1.380
68986W        W38801  42.820  35.548  11.585
68987W        W38802  11.237  35.965  10.433
68988W        W38803   3.868  33.919  14.311
68989W        W38804  10.251  44.983  14.287
68990W        W38805  27.499  26.537  12.935
68991W        W38806  41.910  23.156  10.561
68992W        W38807  19.266  25.691   0.786
68993W        W38808  14.168  33.567   1.245
68994W        W38809  13.643  12.292   3.665
68995W        W38810  23.635  23.543   4.748
68996W        W38811  17.614  44.774   0.342
68997W        W38812   2.927  30.549   2.207
68998W        W38813  14.102   9.824   2.693
68999W        W38814  34.435   1.412  11.424
69000W        W38815  11.339  18.702   1.353
69001W        W38816  16.159   2.427  10.506
69002W        W38817  14.148   1.908  13.824
69003W        W38818  13.719  28.459   1.350
69004W        W38819  27.110   2.357  14.961
69005W        W38820   5.311   8.663   4.739
69006W        W38821  11.284  26.613   2.768
69007W        W38822  18.652   2.407   0.482
69008W        W38823  29.437  29.474  10.519
69009W        W38824  40.522  28.122  12.404
69010W        W38825   2.303  11.136  13.544
69011W        W38826  24.088  20.694   2.689
69012W        W38827  34.609   6.347   1.249
69013W        W38828  15.744  28.028   1.435
69014W        W38829  35.916  17.108   4.267
69015W        W38830  24.211  10.317  12.413
69016W        W38831  16.780  29.656  10.989
69017W        W38832  20.188  41.964   1.802
69018W        W38833  37.547  32.523  11.046
69019W        W38834  31.997  36.003  14.466
69020W        W38835  43.446  16.696   1.274
69021W        W38836  23.233  26.583   3.869
69022W        W38837  17.738  15.190   2.266
69023W        W38838  39.492  13.309   2.714
69024W        W38839  28.074   1.830   3.244
69025W        W38840  24.723   0.980   4.689
69026W        W38841  38.999  33.611   3.741
69027W        W38842   7.192  18.735   1.777
69028W        W38843  18.127   0.305   3.242
69029W        W38844  23.670  26.159  14.401
69030W        W38845  38.915   0.830  11.031
69031W        W38846   6.243   2.236  12.075
69032W        W38847  29.957   0.897  11.502
69033W        W38848  37.432  32.994  12.008
69034W        W38849  17.569   9.724  14.427
69035W        W38850  44.342   2.740  13.836
69036W        W38851  16.578  23.223  14.976
69037W        W38852  34.579   4.925   1.828
69038W        W38853  24.170   5.728   1.793
69039W        W38854   2.296  11.365  14.306
69040W        W38855  33.963  40.360   1.274
69041W        W38856   5.239  42.904  13.036
69042W        W38857  38.402  30.571   2.799
69043W        W38858  30.560  25.644   4.302
69044W        W38859  23.090   6.244   0.370
69045W        W38860   4.794  32.097  13.529
69046W        W38861   9.785   0.249  14.019
69047W        W38862  24.593  16.185  14.284
69048W        W38863  20.073   4.385   2.330
69049W        W38864   8.263  34.109   0.815
69050W        W38865  27.676  42.523   1.712
69051W        W38866  20.029  43.797   1.386
69052W        W38867  27.127  24.626   1.856
69053W        W38868  14.176  12.684  12.546
69054W        W38869   1.874  24.559  12.454
69055W        W38870   9.206  18.258  14.997
69056W        W38871   2.853   4.843  13.989
69057W        W38872   8.900   9.809  14.470
69058W        W38873   3.310   7.848   3.840
69059W        W38874   2.347   0.973  13.940
69060W        W38875  30.588  11.829  14.797
69061W        W38876  18.270  22.692   4.719
69062W        W38877  12.342  17.203  12.013
69063W        W38878   6.346  29.504  14.896
69064W        W38879  11.214  41.440   3.375
69065W        W38880   6.373   9.727   0.967
69066W        W38881   5.209  11.284  13.386
69067W        W38882   3.224  19.213   4.297
69068W        W38883  22.527   4.847  10.147
69069W        W38884  42.915   2.253   0.278
69070W        W38885  23.091  19.059   1.838
69071W        W38886   2.342  16.086  14.305
69072W        W38887  44.344  37.547   2.414
69073W        W38888  41.384  19.191  14.281
69074W        W38889  22.211  30.569   3.220
69075W        W38890   8.285  27.586  11.591
69076W        W38891  40.940   8.314  11.579
69077W        W38892   7.415  39.057  11.588
69078W        W38893  15.201  13.283   4.304
69079W        W38894  34.943  43.516  14.801
69080W        W38895  14.649  33.608  14.840
69081W        W38896  19.677  41.406  10.575
69082W        W38897  26.569   7.361   5.285
69083W        W38898   2.390  27.616   4.230
69084W        W38899  23.574  15.655   4.314
69085W        W38900  24.713   1.323   2.301
69086W        W38901   0.937  26.566  12.894
69087W        W38902  43.877  20.224  14.340
69088W        W38903  42.527  43.344   0.307
69089W        W38904   8.892  29.989  12.913
69090W        W38905  44.875  33.102   0.414
69091W        W38906  33.028   1.922  12.377
69092W        W38907  15.754  36.980  13.343
69093W        W38908  24.673  23.043  13.533
69094W        W38909  24.662   6.908   1.756
69095W        W38910  34.120  13.778   3.241
69096W        W38911  23.651  44.325  11.386
69097W        W38912  24.576  18.700  10.533
69098W        W38913   9.771  41.359  10.450
69099W        W38914   6.888  29.142   3.159
69100W        W38915  34.591  26.531   2.264
69101W        W38916  44.802   9.182   4.147
69102W        W38917  43.832  38.869   3.659
69103W        W38918  17.085  15.607  12.903
69104W        W38919  44.334  13.288   1.763
69105W        W38920  21.692  43.362   3.381
69106W        W38921  37.902  36.043  13.847
69107W        W38922  25.182  17.703   0.331
69108W        W38923   7.816  19.556  10.893
69109W        W38924  13.267  32.602   3.157
69110W        W38925   3.224  22.043  10.895
69111W        W38926  38.931  40.516  10.418
69112W        W38927  28.672  15.100  13.885
69113W        W38928  43.973  25.612   1.759
69114W        W38929  13.151  25.206   4.168
69115W        W38930  42.887  24.516  14.372
69116W        W38931  36.503  25.105   2.360
69117W        W38932  10.140  29.530   2.889
69118W        W38933  34.880  39.506  13.379
69119W        W38934  11.780  13.786   0.837
69120W        W38935  25.666  22.734   0.925
69121W        W38936   4.808  38.911  11.932
69122W        W38937  42.851  23.555   1.914
69123W        W38938  32.981  21.048   2.697
69124W        W38939  28.495  40.905  10.518
69125W        W38940  30.425  23.102   4.678
69126W        W38941  17.574  19.183  13.411
69127W        W38942  41.822  28.955   3.379
69128W        W38943  25.100  30.465   2.371
69129W        W38944  19.779  26.992   2.733
69130W        W38945  39.502   2.306   4.315
69131W        W38946  29.495  23.040   1.265
69132W        W38947  33.910  38.495   1.696
69133W        W38948  26.496  35.031   1.877
69134W        W38949  22.536  13.641   3.718
69135W        W38950  24.065  39.426   0.390
69136W        W38951  42.937  43.957  10.066
69137W        W38952  16.160  36.574  14.418
69138W        W38953   2.742  12.629   3.724
69139W        W38954  30.422  29.572  14.016
69140W        W38955  20.248  38.551  11.523
69141W        W38956  23.543  31.059   4.762
69142W        W38957  23.579   4.765  11.527
69143W        W38958   3.760  17.573  10.619
69144W        W38959  15.625  32.890  11.944
69145W        W38960  20.044  17.629   4.652
69146W        W38961  16.698   9.660  13.394
69147W        W38962  23.124  31.071   4.655
69148W        W38963   1.396   0.951   2.194
69149W        W38964  10.749   4.921   1.402
69150W        W38965  44.500   4.426   4.331
69151W        W38966  17.670  35.562  14.009
69152W        W38967   3.434   5.269   3.208
69153W        W38968  21.055  18.583  14.452
69154W        W38969   2.833  35.074   3.147
69155W        W38970  17.176  32.131   2.317
69156W        W38971  36.380  22.154   2.363
69157W        W38972   8.213  15.586   4.653
69158W        W38973  27.161  14.714   2.219
69159W        W38974  36.845  14.185  12.441
69160W        W38975  18.196  21.718  11.126
69161W        W38976   3.233  25.589  13.832
69162W        W38977  36.400  20.196   0.801
69163W        W38978  20.675  20.196   3.822
69164W        W38979   4.264  26.468   2.281
69165W        W38980  15.666  37.435  10.615
69166W        W38981  26.090  19.766   1.841
69167W        W38982   6.864  14.127   2.796
69168W        W38983  19.550   0.844  12.024
69169W        W38984  42.783  24.221  12.430
69170W        W38985  36.865   9.806  11.510
69171W        W38986  44.447  31.574  13.859
69172W        W38987  37.343  32.008   2.328
69173W        W38988  24.081   8.214  12.415
69174W        W38989  23.020  29.555   3.146
69175W        W38990  15.189  41.930   4.661
69176W        W38991  27.595  15.255   1.312
69177W        W38992  42.794  25.060  10.433
69178W        W38993  43.820  42.511  11.103
69179W        W38994  39.827  10.693  10.560
69180W        W38995  30.995  42.339  12.899
69181W        W38996   2.447   6.273   2.372
69182W        W38997  29.085  27.642   3.367
69183W        W38998  39.550   0.957  13.838
69184W        W38999  43.321  14.767   2.209
69185W        W39000  33.478  27.157  11.019
69186W        W39001  18.050  37.412  10.139
69187W        W39002  19.171  36.882  13.028
69188W        W39003  12.732  16.264   2.283
69189W        W39004   7.401   2.314   2.776
69190W        W39005  31.638  25.485   4.667
69191W        W39006   8.242  39.493   4.820
69192W        W39007   6.677   3.223  13.363
69193W        W39008  10.263  12.306  14.918
69194W        W39009  22.162  12.170   3.326
69195W        W39010  24.130  36.990   4.329
69196W        W39011  20.125  40.497  11.475
69197W        W39012  42.954  32.489   3.256
69198W        W39013  15.813  42.993   1.293
69199W        W39014  25.621  21.260  10.602
69200W        W39015  39.435  19.736   0.902
69201W        W39016  41.502  25.539  13.511
69202W        W39017   5.889  36.006   4.744
69203W        W39018  43.352  24.025   0.940
69204W        W39019  10.661  15.787   0.948
69205W        W39020  11.285   5.702  13.496
69206W        W39021   3.816  17.148   9.952
69207W        W39022  19.139  16.232  12.919
69208W        W39023   1.399  44.259  13.960
69209W        W39024  39.036  25.987   0.471
69210W        W39025   3.353  14.284   2.253
69211W        W39026  28.969  19.105   4.204
69212W        W39027  11.826  20.243   1.759
69213W        W39028  27.018  29.029   3.307
69214W        W39029  41.918  34.903  11.497
69215W        W39030  13.314   6.311  14.018
69216W        W39031  39.393   6.721   0.359
69217W        W39032  23.548  22.028   2.740
69218W        W39033  38.867  16.285  12.933
69219W        W39034  32.530  35.102   4.618
69220W        W39035  32.483  44.362  11.515
69221W        W39036  43.869   4.397   2.736
69222W        W39037  30.532  28.985  12.475
69223W        W39038  26.158   2.284  14.977
69224W        W39039   4.899  40.527   1.319
69225W        W39040  10.383  20.702  14.897
69226W        W39041   1.407  13.142  13.038
69227W        W39042  42.344  11.668   4.699
69228W        W39043  18.246  29.054  10.607
69229W        W39044  32.969  12.828  12.576
69230W        W39045  16.296  39.557   3.322
69231W        W39046   3.335  43.805   2.889
69232W        W39047  40.329  35.439   1.341
69233W        W39048  32.056  27.577   3.323
69234W        W39049  35.890  23.608   4.721
69235W        W39050  44.395  32.025   5.258
69236W        W39051  41.505  42.998  10.476
69237W        W39052   6.376  27.962   2.797
69238W        W39053  14.796  26.181   2.388
69239W        W39054   6.873  10.845   4.286
69240W        W39055  42.313  27.601   0.403
69241W        W39056  29.571   6.378  13.520
69242W        W39057  31.113  16.708  13.454
69243W        W39058  39.458   2.417  10.031
69244W        W39059  24.487  24.689   4.134
69245W        W39060  30.447  17.560   3.740
69246W        W39061  11.785  43.301  12.376
69247W        W39062  23.614  28.954  13.042
69248W        W39063   1.883   2.745  13.854
69249W        W39064  12.122  10.157   4.141
69250W        W39065  32.409  35.090   3.311
69251W        W39066  15.742  31.445   2.365
69252W        W39067   8.323  29.013   0.757
69253W        W39068  22.591  43.995  14.897
69254W        W39069  39.863  35.532   3.330
69255W        W39070  33.410   4.705  13.317
69256W        W39071  28.068  35.452   2.238
69257W        W39072   9.677  37.053  14.480
69258W        W39073  18.637  38.545   1.326
69259W        W39074  16.739  12.333   0.878
69260W        W39075  25.972  38.963  14.999
69261W        W39076   2.802  26.645  11.920
69262W        W39077   7.869  31.988   4.151
69263W        W39078  25.056  16.243   0.838
69264W        W39079   1.321  21.233   0.839
69265W        W39080  22.503  20.101  12.447
69266W        W39081   4.446  14.195  11.536
69267W        W39082  30.428  15.178   1.229
69268W        W39083   1.399  43.507   4.282
69269W        W39084  43.409  12.640   4.763
69270W        W39085   5.435   1.249  10.544
69271W        W39086   0.348  24.038  12.389
69272W        W39087  40.987   3.803   1.320
69273W        W39088  15.256  19.149   1.933
69274W        W39089   0.938  21.171  14.872
69275W        W39090  25.606  21.726   0.420
69276W        W39091  38.540   8.254   3.227
69277W        W39092  33.994  20.739  10.917
69278W        W39093   5.204  25.098   3.219
69279W        W39094  42.420  28.138   0.391
69280W        W39095   3.929  18.726   0.412
69281W        W39096   0.975  15.172   2.356
69282W        W39097  33.420   5.335  14.856
69283W        W39098   8.892  25.566  13.030
69284W        W39099  41.447  39.832   3.639
69285W        W39100   3.306  37.388  12.993
69286W        W39101  36.542  30.073  14.296
69287W        W39102  38.036   2.386  10.608
69288W        W39103   9.684  42.317   1.289
69289W        W39104  28.625  25.566   0.341
69290W        W39105  34.118  34.409  12.930
69291W        W39106  11.159  13.310   4.691
69292W        W39107  18.168  27.686  13.422
69293W        W39108  32.977  44.331  11.503
69294W        W39109  21.666   3.265   4.254
69295W        W39110  24.592  28.520  12.096
69296W        W39111  19.690   8.328  14.012
69297W        W39112  32.598  17.253   0.447
69298W        W39113  24.004  41.412  11.924
69299W        W39114   1.930  28.990   1.268
69300W        W39115  24.093   3.753  14.456
69301W        W39116  39.826  34.601  10.890
69302W        W39117  36.873  35.390  14.868
69303W        W39118  39.017   3.763   3.148
69304W        W39119   8.264  21.110   4.329
69305W        W39120   4.310  17.753  14.308
69306W        W39121   7.277  21.582  11.117
69307W        W39122   2.235  28.648   1.722
69308W        W39123  36.986  13.206   3.387
69309W        W39124  27.003  17.722   0.388
69310W        W39125  33.896  18.226   0.933
69311W        W39126  32.489   2.285  12.466
69312W        W39127   3.460   9.178  13.373
69313W        W39128  27.573  28.681   4.136
69314W        W39129  36.533  15.250   0.929
69315W        W39130  29.064  10.147  13.873
69316W        W39131  29.935   2.858  12.887
69317W        W39132  34.072  35.477  11.023
69318W        W39133  20.561   1.334  11.910
69319W        W39134  21.627  17.179  11.575
69320W        W39135   0.408   9.161   4.269
69321W        W39136  28.656  37.465   0.772
69322W        W39137  43.004  10.830   4.674
69323W        W39138   8.873   1.417   0.859
69324W        W39139  16.633  41.992   3.237
69325W        W39140  27.582  22.698   2.371
69326W        W39141   9.299  27.477  12.985
69327W        W39142  17.107  37.532   4.273
69328W        W39143  11.661  35.863   2.228
69329W        W39144  23.146  13.720  11.985
69330W        W39145  17.611  26.061  10.428
69331W        W39146  12.205  20.130  10.464
69332W        W39147  12.757  28.007  11.086
69333W        W39148  22.665  35.367  12.095
69334W        W39149  33.952  23.206   4.191
69335W        W39150  16.317  24.079  13.325
69336W        W39151  37.945  21.532  14.027
69337W        W39152  20.059  15.168   0.326
69338W        W39153  29.032  44.393  13.894
69339W        W39154   9.761  23.518  14.374
69340W        W39155  20.722   4.265  14.434
69341W        W39156  19.181  39.388  12.863
69342W        W39157  41.445   6.404  10.445
69343W        W39158  14.160  22.598   2.878
69344W        W39159  34.398  19.585  10.452
69345W        W39160  15.139  43.368   2.742
69346W        W39161  33.106  38.499  10.553
69347W        W39162  33.508  31.908   3.721
69348W        W39163  16.809   0.451   2.399
69349W        W39164  17.615  10.798   1.297
69350W        W39165  10.638  31.954  12.561
69351W        W39166  12.287  18.189   0.812
69352W        W39167  17.566  35.465  12.068
69353W        W39168   9.705  16.301   2.800
69354W        W39169  25.153  19.582  12.426
69355W        W39170  38.565  28.989   1.896
69356W        W39171  37.424  17.637   1.360
69357W        W39172  31.085  41.447  13.834
69358W        W39173  44.762  43.840  11.898
69359W        W39174  29.976  42.299  11.585
69360W        W39175   3.742  22.097   2.684
69361W        W39176   6.249  17.655   3.247
69362W        W39177   2.331  22.557   1.918
69363W        W39178  32.114  11.747   2.407
69364W        W39179  41.490  40.014   3.285
69365W        W39180  10.244  36.558  13.057
69366W        W39181  35.975   0.798   1.710
69367W        W39182  17.669  32.061  14.289
69368W        W39183  30.563  39.430   3.764
69369W        W39184   7.690  39.497   4.268
69370W        W39185  15.220  39.898  14.450
69371W        W39186  11.652  10.141  11.904
69372W        W39187  24.694   1.264  13.920
69373W        W39188  42.971  11.341   3.847
69374W        W39189  33.928  27.116   1.291
69375W        W39190  15.217  14.277   4.153
69376W        W39191  31.133  31.022  13.939
69377W        W39192  21.117  41.853  13.047
69378W        W39193  12.670   2.458  10.626
69379W        W39194  39.371  12.769   0.775
69380W        W39195  21.616  22.020   3.749
69381W        W39196  29.159  12.842  12.018
69382W        W39197  19.045  37.903  12.343
69383W        W39198   2.243   2.422   2.822
69384W        W39199  43.854  19.148   0.862
69385W        W39200  21.511  26.042  11.887
69386W        W39201   8.345  16.194   1.825
69387W        W39202  34.452  19.749   3.819
69388W        W39203  32.964  27.077  13.813
69389W        W39204  20.147  29.578  12.533
69390W        W39205  17.600   1.814   3.241
69391W        W39206  32.998  32.620   1.441
69392W        W39207  21.646  18.682   4.123
69393W        W39208  29.974  29.545  14.465
69394W        W39209  22.582  32.535   1.861
69395W        W39210  15.119   4.780   4.121
69396W        W39211   6.283  34.604   0.328
69397W        W39212  34.391  21.725   0.851
69398W        W39213  14.780   9.652  14.308
69399W        W39214  44.828  21.181  11.557
69400W        W39215  14.175   2.448   5.132
69401W        W39216   8.826   7.804  14.019
69402W        W39217  24.479  33.921   4.164
69403W        W39218  39.838  17.292  12.482
69404W        W39219  34.398  19.148   1.778
69405W        W39220   2.331  42.837   2.332
69406W        W39221  11.861   2.343   0.765
69407W        W39222  16.810  15.130  12.850
69408W        W39223  23.507  34.038  14.851
69409W        W39224  24.543  14.623  12.921
69410W        W39225  21.599  37.396  10.101
69411W        W39226  43.824  18.078  12.936
69412W        W39227  31.497  30.546  10.998
69413W        W39228  13.239  40.531  13.884
69414W        W39229  43.503  29.018  10.996
69415W        W39230   2.869  26.173   0.927
69416W        W39231   5.740  42.520  13.013
69417W        W39232  29.432  14.646   1.416
69418W        W39233  26.065  31.486   4.312
69419W        W39234  13.614  35.084   1.393
69420W        W39235  34.864  18.283  14.421
69421W        W39236  18.764   1.472  14.396
69422W        W39237   3.900   4.945  12.379
69423W        W39238   9.883  32.503   0.792
69424W        W39239  34.922  26.687  10.992
69425W        W39240  28.051   4.835  14.838
69426W        W39241  24.685  24.537   3.691
69427W        W39242   0.844  40.524  10.030
69428W        W39243   8.174  44.836  12.354
69429W        W39244  10.191  35.381   4.297
69430W        W39245  36.512   5.914   3.266
69431W        W39246  28.958  10.819   1.360
69432W        W39247  43.404   8.742   0.365
69433W        W39248   9.825  40.431  12.456
69434W        W39249  13.802  21.560   2.726
69435W        W39250   5.316  13.725   4.343
69436W        W39251  44.317  18.598   4.176
69437W        W39252   9.715  29.596   2.662
69438W        W39253  38.830  32.458  11.533
69439W        W39254   4.931  44.904   1.889
69440W        W39255  11.207  31.036   3.639
69441W        W39256  28.537  30.431   3.817
69442W        W39257  43.890  34.550   0.861
69443W        W39258  12.758  29.456   0.253
69444W        W39259  31.020  34.906   1.345
69445W        W39260  18.764   1.408  14.999
69446W        W39261   3.818  18.096  12.018
69447W        W39262   3.256  44.366  11.871
69448W        W39263  43.291  22.178   0.839
69449W        W39264   2.400  43.906  10.527
69450W        W39265  37.855  42.863   3.768
69451W        W39266  12.697   8.667  10.558
69452W        W39267  43.391  29.580   4.660
69453W        W39268  13.136   1.835  10.597
69454W        W39269  11.639  40.867  14.332
69455W        W39270  11.865  19.655   4.275
69456W        W39271  37.381  37.346  10.930
69457W        W39272  33.528   6.244   4.635
69458W        W39273  39.848  32.069   2.416
69459W        W39274  42.835  40.403   2.794
69460W        W39275   0.330   2.264   0.927
69461W        W39276  26.198  41.833  10.480
69462W        W39277  25.559   1.291  10.993
69463W        W39278   2.760  29.935   0.258
69464W        W39279  38.386  35.013   3.793
69465W        W39280  41.857  12.814   4.144
69466W        W39281  28.610  18.597   1.344
69467W        W39282  30.433   3.806  13.533
69468W        W39283  43.784   0.868   2.193
69469W        W39284   9.816   9.174   1.268
69470W        W39285  25.023  33.528  12.533
69471W        W39286  25.675  21.176   3.303
69472W        W39287  32.455  35.470   1.816
69473W        W39288  17.215  31.090   1.794
69474W        W39289  42.843  34.050   0.268
69475W        W39290  12.757  41.462  14.840
69476W        W39291  16.611  33.926   1.785
69477W        W39292  36.917  29.001   4.220
69478W        W39293   0.444  26.473   0.765
69479W        W39294   7.735  11.293  14.769
69480W        W39295  15.779  27.194  10.524
69481W        W39296  14.186   3.761  13.404
69482W        W39297  40.859  34.493   4.294
69483W        W39298  37.406  42.883   5.297
69484W        W39299  27.510  27.997   1.800
69485W        W39300  26.525  37.479  14.498
69486W        W39301  22.654   8.165   0.278
69487W        W39302  24.214  43.804   4.764
69488W        W39303  11.140  25.201   4.660
69489W        W39304  31.992  40.048  14.435
69490W        W39305  39.981  37.856  13.795
69491W        W39306  22.174  13.799  14.840
69492W        W39307  13.810  38.050  12.548
69493W        W39308  17.215  16.742  14.296
69494W        W39309   6.706  37.944   0.483
69495W        W39310  11.659  22.217   3.790
69496W        W39311   4.274  23.031  12.028
69497W        W39312  36.461  42.470  14.937
69498W        W39313  15.192  35.433  12.522
69499W        W39314   8.836   2.429  10.513
69500W        W39315  21.147  24.053   2.702
69501W        W39316   9.282  35.003  12.358
69502W        W39317  33.567  21.255   3.148
69503W        W39318  20.670  29.098  11.006
69504W        W39319  36.587  33.392   2.336
69505W        W39320  30.430  42.023   2.209
69506W        W39321   2.752  42.918  10.492
69507W        W39322  34.045  39.839   0.361
69508W        W39323  35.947  12.820  12.460
69509W        W39324  15.297  34.423  11.584
69510W        W39325  43.307   5.917   2.712
69511W        W39326  29.005  29.457  12.532
69512W        W39327  18.547  18.608   1.791
69513W        W39328  14.592   6.204  11.892
69514W        W39329  34.603  32.015   0.808
69515W        W39330   1.800  36.955  14.000
69516W        W39331  20.714  42.353  14.826
69517W        W39332  31.572   2.864   2.337
69518W        W39333  35.544  43.404  10.502
69519W        W39334   6.891  10.795  13.965
69520W        W39335  44.869  40.810  12.979
69521W        W39336  23.073  44.324   4.802
69522W        W39337  18.171  13.677   3.713
69523W        W39338  43.424  35.864   4.180
69524W        W39339   2.861  27.093  14.759
69525W        W39340   9.667   6.366   2.886
69526W        W39341  27.636  11.259   4.697
69527W        W39342  31.604  19.719   2.304
69528W        W39343  39.367  33.473  11.952
69529W        W39344   5.276  31.593   2.252
69530W        W39345   6.314   0.961  14.999
69531W        W39346  21.629   3.845  11.867
69532W        W39347  38.913  21.607  12.926
69533W        W39348   7.789  41.512   1.777
69534W        W39349  32.979  23.133   2.350
69535W        W39350  15.642  25.575  13.955
69536W        W39351  11.716  30.490   0.940
69537W        W39352  23.189  25.712   2.361
69538W        W39353  31.980  26.037   2.230
69539W        W39354  12.791  13.648  11.020
69540W        W39355   4.350   5.339  10.594
69541W        W39356  17.103  23.660   0.833
69542W        W39357  23.014   9.341  12.538
69543W        W39358   2.965  42.911  11.081
69544W        W39359   1.827   5.197  12.952
69545W        W39360  13.613  31.431  13.972
69546W        W39361   2.413  27.473   1.837
69547W        W39362  42.478  12.701  11.086
69548W        W39363   9.656  41.992  12.495
69549W        W39364  42.959  38.504  12.091
69550W        W39365  43.803  27.058  14.867
69551W        W39366  14.658  27.984   1.251
69552W        W39367  24.656  17.095   3.869
69553W        W39368  13.639  12.787  10.523
69554W        W39369   6.425  29.137   1.840
69555W        W39370   7.220   7.370  13.060
69556W        W39371  38.913  14.822  13.969
69557W        W39372  13.176  11.193  11.856
69558W        W39373   6.788  38.872  14.335
69559W        W39374  19.089  27.664  10.583
69560W        W39375  10.376   8.339  13.007
69561W        W39376  26.691  33.067  11.561
69562W        W39377  17.717  40.823  10.511
69563W        W39378  19.164  33.954  11.063
69564W        W39379   3.838  22.035  13.360
69565W        W39380  20.209  16.613  13.927
69566W        W39381  22.176  18.668   2.732
69567W        W39382   2.250   8.780   9.971
69568W        W39383  40.325  16.248   2.395
69569W        W39384  25.574   3.845   1.834
69570W        W39385   6.851  24.630  13.948
69571W        W39386  32.427  11.774  11.026
69572W        W39387  18.682  18.119  11.007
69573W        W39388  10.801  36.859   1.786
69574W        W39389   5.764  23.997   1.232
69575W        W39390  20.595  24.011  11.971
69576W        W39391  36.961  39.451  11.913
69577W        W39392  27.459  13.825   1.797
69578W        W39393  24.700  12.239   4.718
69579W        W39394   0.863  17.694  13.511
69580W        W39395  14.786  21.647   0.952
69581W        W39396  13.277   2.854   0.391
69582W        W39397   4.359  22.623   2.273
69583W        W39398  27.954   7.289  13.946
69584W        W39399  31.941  34.869   2.348
69585W        W39400  30.597  42.306   4.736
69586W        W39401   1.787   5.767  11.600
69587W        W39402   8.816   5.405  11.479
69588W        W39403   1.848  14.784   2.835
69589W        W39404  32.573   3.241  13.446
69590W        W39405  42.313  26.180   1.440
69591W        W39406  36.523  28.965  12.923
69592W        W39407  25.211   8.887  14.296
69593W        W39408  23.709  26.578   2.890
69594W        W39409   7.174  30.062   3.209
69595W        W39410  33.052  20.590   1.901
69596W        W39411  33.096  16.233  13.992
69597W        W39412  32.038  35.520   4.814
69598W        W39413   4.257  13.786   0.911
69599W        W39414  10.247  17.226   2.369
69600W        W39415  16.709  20.537   3.758
69601W        W39416  24.098  19.742   5.212
69602W        W39417  41.471   9.179   3.147
69603W        W39418   3.250  26.514  10.448
69604W        W39419   0.409   1.769   4.714
69605W        W39420   9.358   9.791  10.451
69606W        W39421  42.883  23.112  10.599
69607W        W39422  25.685  36.977   4.671
69608W        W39423   0.410  24.515  13.316
69609W        W39424  36.025  19.221   4.336
69610W        W39425  36.473  22.013   1.762
69611W        W39426   5.315  44.262  12.451
69612W        W39427   6.681  41.318   3.797
69613W        W39428  10.708  17.629   2.229
69614W        W39429  14.318   9.727   0.832
69615W        W39430   9.710  40.486   4.203
69616W        W39431   4.418  28.015  11.998
69617W        W39432  44.985   8.278   0.829
69618W        W39433   6.855  35.935   2.367
69619W        W39434  30.078  20.031  12.400
69620W        W39435  33.409  10.253  11.946
69621W        W39436   3.437   9.707  10.509
69622W        W39437   0.887  23.720  13.926
69623W        W39438  32.531  11.736   4.349
69624W        W39439  28.141  25.087  13.918
69625W        W39440  26.662  35.867   0.856
69626W        W39441   6.331  24.494   4.336
69627W        W39442  41.535  41.035   0.851
69628W        W39443  10.327  24.215   4.230
69629W        W39444  42.469  25.094  12.531
69630W        W39445  10.856   1.804   0.353
69631W        W39446  35.363  19.538   2.400
69632W        W39447  16.580  34.066  12.840
69633W        W39448  38.883  21.627   2.740
69634W        W39449  10.149  44.277   2.379
69635W        W39450  15.584   8.344  14.343
69636W        W39451   9.388  31.046  14.478
69637W        W39452  22.681  31.435   2.272
69638W        W39453  37.341  35.935  11.377
69639W        W39454  33.096  10.167  11.403
69640W        W39455  32.974  23.999   1.715
69641W        W39456  33.970  36.980   1.336
69642W        W39457  26.480  10.374   9.471
69643W        W39458  22.637   8.359  14.781
69644W        W39459  14.622   6.761   4.152
69645W        W39460  39.441  18.626   2.275
69646W        W39461  21.059  20.596  13.369
69647W        W39462  20.721  42.312  11.072
69648W        W39463  28.999   2.786   1.834
69649W        W39464  19.155  24.034  12.404
69650W        W39465   8.666   7.709  11.022
69651W        W39466   7.417   8.827   1.255
69652W        W39467  29.511   7.248   2.302
69653W        W39468  11.198  20.092  13.329
69654W        W39469  12.132  30.479  12.495
69655W        W39470  40.393  42.448  12.929
69656W        W39471  18.586  14.316   1.723
69657W        W39472  23.131  33.598   0.420
69658W        W39473  31.093  38.346  12.567
69659W        W39474  17.642   3.731   4.334
69660W        W39475  29.522  13.773  11.425
69661W        W39476   5.320  44.868   0.903
69662W        W39477  30.007  22.651   4.665
69663W        W39478  41.886  28.567   1.696
69664W        W39479  16.121  10.171  14.421
69665W        W39480  15.234  29.667  13.932
69666W        W39481  29.611  26.561  14.803
69667W        W39482  26.647  30.049  13.012
69668W        W39483  21.058   1.238  11.069
69669W        W39484   5.913  10.659   1.856
69670W        W39485   3.344  35.429   4.170
69671W        W39486  42.501  24.571   3.658
69672W        W39487  44.343   6.185   3.815
69673W        W39488  12.206  44.920   0.300
69674W        W39489   8.879  38.560  14.447
69675W        W39490  32.549  23.615   1.907
69676W        W39491   2.790  21.588  13.024
69677W        W39492  29.659   2.334   2.706
69678W        W39493  19.689  21.592   1.438
69679W        W39494   0.850  19.160   0.356
69680W        W39495   3.825   4.927  10.548
69681W        W39496   4.390  16.219   2.711
69682W        W39497  28.532   5.412  12.993
69683W        W39498  36.940   7.350  12.961
69684W        W39499  28.657  26.186  12.409
69685W        W39500  43.282  24.533   3.751
69686W        W39501   5.890  33.468   1.788
69687W        W39502  40.531  38.833  10.074
69688W        W39503  11.350  18.246   9.971
69689W        W39504  25.111  28.442  14.803
69690W        W39505  36.461  32.027   0.957
69691W        W39506   9.733  34.989   2.764
69692W        W39507  35.874  33.615   5.669
69693W        W39508  24.585   1.360  14.417
69694W        W39509  35.092  44.336  12.459
69695W        W39510  41.830  11.254   2.267
69696W        W39511   7.696  44.485   0.344
69697W        W39512  13.126   0.290  11.477
69698W        W39513  33.941  22.219   0.250
69699W        W39514  24.599  12.844  14.900
69700W        W39515  28.456  24.492  11.575
69701W        W39516   0.939  16.316  12.355
69702W        W39517   8.301   1.973  12.385
69703W        W39518  31.918  18.669   1.428
69704W        W39519   3.223   2.935   4.136
69705W        W39520  38.987  11.203   4.598
69706W        W39521   7.373   1.802   2.881
69707W        W39522  28.598   9.161   4.745
69708W        W39523  31.030  41.378   3.352
69709W        W39524   5.777   8.733  14.976
69710W        W39525   8.789  40.534   2.232
69711W        W39526  24.114  13.236  12.891
69712W        W39527  18.206  22.601  12.352
69713W        W39528  40.995  36.355  10.916
69714W        W39529  37.521   5.271   4.786
69715W        W39530   3.740  39.385  13.030
69716W        W39531  39.377   7.841  11.606
69717W        W39532   2.407  11.347  10.161
69718W        W39533  37.432  27.502  13.318
69719W        W39534  38.045  41.797   3.189
69720W        W39535  42.801   9.652   2.690
69721W        W39536  31.897  27.610  13.999
69722W        W39537  40.012   3.761   0.846
69723W        W39538   7.853   6.915   1.377
69724W        W39539  34.052  37.953   2.268
69725W        W39540  12.616  37.354  12.878
69726W        W39541   4.268  12.215   3.690
69727W        W39542  11.760  36.852  13.910
69728W        W39543  38.063  33.035   0.913
69729W        W39544  11.822  43.443  10.950
69730W        W39545  20.244  24.680   1.926
69731W        W39546  10.667  16.106   2.404
69732W        W39547  14.287  31.994   2.278
69733W        W39548   1.945   8.689  14.796
69734W        W39549  10.235  34.381   2.411
69735W        W39550  29.075  21.074   0.402
69736W        W39551   9.221  12.360  14.805
69737W        W39552  10.680  35.876   0.314
69738W        W39553  37.528  30.960  11.081
69739W        W39554  44.776  41.346  13.347
69740W        W39555  12.124  40.387  10.597
69741W        W39556  28.067  31.104   0.303
69742W        W39557   4.839  29.543   2.890
69743W        W39558  28.468  37.065  10.904
69744W        W39559  35.474  14.315   2.250
69745W        W39560  27.112  44.983   3.258
69746W        W39561  23.216   1.364   3.785
69747W        W39562  15.691   1.914   2.275
69748W        W39563  27.450  44.996   4.195
69749W        W39564   3.389  26.954  14.843
69750W        W39565   5.704   2.429   0.840
69751W        W39566   0.830   6.422   2.414
69752W        W39567   1.389  44.791   0.470
69753W        W39568   3.318  39.508  14.878
69754W        W39569  23.157  16.227   0.368
69755W        W39570  40.825  23.535  11.440
69756W        W39571  31.070  40.973   3.378
69757W        W39572  11.195  27.024   1.446
69758W        W39573  31.567  10.837  12.949
69759W        W39574  25.123  28.453  11.471
69760W        W39575   1.969  19.674  11.447
69761W        W39576   6.327  36.403  11.919
69762W        W39577  25.206  16.220  10.562
69763W        W39578  22.019  29.122  12.425
69764W        W39579  23.721  39.466  14.427
69765W        W39580  38.998  14.217   1.809
69766W        W39581  20.144  26.993  11.900
69767W        W39582  33.889  38.442  14.962
69768W        W39583  36.421  26.471  10.489
69769W        W39584  24.658  41.468   4.327
69770W        W39585  23.092   0.762   5.268
69771W        W39586  33.886  19.230   2.875
69772W        W39587  22.246  18.063   3.699
69773W        W39588  10.263  39.386  12.855
69774W        W39589  31.503   1.348  12.542
69775W        W39590   2.455   3.385   4.793
69776W        W39591   1.951   6.251   0.843
69777W        W39592  10.808   8.833   2.219
69778W        W39593  23.717  33.562  14.387
69779W        W39594  31.940  29.970  11.929
69780W        W39595  12.813  26.608   0.335
69781W        W39596  41.504  43.963   0.461
69782W        W39597  16.221  29.542  11.403
69783W        W39598  40.544  29.447   1.384
69784W        W39599  28.178  33.121  12.059
69785W        W39600  21.735  18.105  14.331
69786W        W39601  13.687  18.581   1.248
69787W        W39602   6.383  24.126   0.843
69788W        W39603   0.857  32.497  11.856
69789W        W39604  25.110  23.725   2.292
69790W        W39605  37.067  14.679   0.848
69791W        W39606  13.763  15.169  11.449
69792W        W39607  11.303  16.187   1.901
69793W        W39608  19.070  40.917  13.970
69794W        W39609  11.832  15.242  13.029
69795W        W39610  30.936  18.592  12.479
69796W        W39611  32.477  10.760  11.473
69797W        W39612   3.953  41.810   2.281
69798W        W39613  37.494  32.628  14.881
69799W        W39614  29.449  15.295  12.001
69800W        W39615  32.454   0.470   2.672
69801W        W39616  36.384  20.563   2.873
69802W        W39617   2.404  10.238  12.837
69803W        W39618   7.772  21.752   4.337
69804W        W39619  37.050  17.619  13.829
69805W        W39620  29.650  35.058  12.990
69806W        W39621  19.570  19.568  13.493
69807W        W39622   4.845  32.605   2.717
69808W        W39623  26.659  27.970  13.914
69809W        W39624  18.132   3.756  11.030
69810W        W39625  22.514  31.539  13.893
69811W        W39626  37.950  29.087  11.897
69812W        W39627   2.433   8.362   2.685
69813W        W39628  34.456  32.598   4.679
69814W        W39629  30.641  40.392   4.601
69815W        W39630  29.146  20.094   2.350
69816W        W39631  40.322   8.685   1.301
69817W        W39632  20.204   8.206  13.447
69818W        W39633  41.930  26.563  12.427
69819W        W39634   1.776   8.229   1.734
69820W        W39635  21.666  16.073   4.248
69821W        W39636  24.593  25.066   1.357
69822W        W39637  20.042  18.170  11.409
69823W        W39638  37.883  14.614  13.325
69824W        W39639  40.929  35.936  13.373
69825W        W39640  11.228  15.715   5.198
69826W        W39641   4.860  16.764  12.042
69827W        W39642  37.842  40.887  11.873
69828W        W39643  38.406   8.680   3.204
69829W        W39644   0.475  10.745  12.873
69830W        W39645  42.013  31.142  13.967
69831W        W39646  42.006  40.491   5.156
69832W        W39647  24.113  25.504   1.787
69833W        W39648  38.561  42.949   5.260
69834W        W39649   5.398  11.131   4.645
69835W        W39650  31.477  36.407   3.653
69836W        W39651  25.645  37.393   5.741
69837W        W39652  22.244  10.841  13.048
69838W        W39653  27.030  25.565   2.206
69839W        W39654  23.132  39.465   1.360
69840W        W39655   9.160  21.634   0.831
69841W        W39656  22.544  34.385  10.070
69842W        W39657  18.180   5.700  11.973
69843W        W39658   5.430  18.744   3.190
69844W        W39659  25.117   0.279  11.949
69845W        W39660  18.569  11.716  11.604
69846W        W39661  35.064  21.206  10.063
69847W        W39662  28.598  25.527   4.293
69848W        W39663   2.773  21.722   3.771
69849W        W39664  14.598  16.260   1.377
69850W        W39665  26.503  30.049   3.770
69851W        W39666  16.608  18.746   1.748
69852W        W39667  44.444  22.725  12.009
69853W        W39668   5.193   4.382   1.807
69854W        W39669  39.965   8.305   1.220
69855W        W39670  26.105  40.044  11.539
69856W        W39671  15.720  22.219  12.419
69857W        W39672  18.218   2.399  12.882
69858W        W39673  25.539  10.734   2.191
69859W        W39674  31.979  15.599   3.862
69860W        W39675   1.476  28.072  12.057
69861W        W39676  44.319  29.647  10.486
69862W        W39677  39.374  35.597  10.522
69863W        W39678  26.519   1.323  13.436
69864W        W39679  33.529  42.853  10.432
69865W        W39680   0.272  19.536  14.325
69866W        W39681   9.880  20.224  10.519
69867W        W39682  31.153  18.176  11.868
69868W        W39683  32.469  38.834  13.353
69869W        W39684  11.742  33.980  14.004
69870W        W39685   4.832  35.456   1.803
69871W        W39686   4.399  20.704  11.907
69872W        W39687  29.937   5.309   0.427
69873W        W39688   6.183   4.227  13.497
69874W        W39689  30.431  13.173  13.950
69875W        W39690  41.336   6.195   1.338
69876W        W39691   8.347  28.569   1.339
69877W        W39692  14.788  14.656  12.558
69878W        W39693  31.954   0.822   3.167
69879W        W39694   4.261  25.511   1.275
69880W        W39695  32.101   1.277  11.384
69881W        W39696  27.609  17.264  10.540
69882W        W39697  29.447  34.490   2.273
69883W        W39698  31.490  37.449   1.752
69884W        W39699  32.437  31.076  13.386
69885W        W39700   1.416  38.963  14.923
69886W        W39701  35.955  18.713   2.384
69887W        W39702  12.690  17.681   5.157
69888W        W39703   0.425  20.631  10.545
69889W        W39704  17.679  35.962   4.666
69890W        W39705   0.463  30.415  13.440
69891W        W39706  28.673   5.299   4.671
69892W        W39707  21.707   2.821  13.485
69893W        W39708  28.135  31.951   1.439
69894W        W39709  34.385  12.357  12.014
69895W        W39710   4.869  37.535  10.986
69896W        W39711  41.474  40.862  13.894
69897W        W39712  39.053  42.510   1.345
69898W        W39713  43.827  38.564  12.537
69899W        W39714   7.861  27.000  13.482
69900W        W39715  19.137  14.798  14.422
69901W        W39716  31.007  27.525   3.664
69902W        W39717  13.233  15.198  12.910
69903W        W39718  25.623  18.250  10.924
69904W        W39719  22.089  16.733   1.269
69905W        W39720  38.430   9.186   0.749
69906W        W39721  10.368  10.768   0.871
69907W        W39722  11.699  29.928   2.664
69908W        W39723  36.931  15.278  10.579
69909W        W39724  16.093  31.589  11.548
69910W        W39725  25.197  24.174  14.366
69911W        W39726  37.569   7.801   3.786
69912W        W39727  26.590  18.771  12.945
69913W        W39728   6.409  28.543  14.937
69914W        W39729  28.963   8.315   0.944
69915W        W39730  38.971  38.535  13.024
69916W        W39731  17.592  26.572   0.856
69917W        W39732  44.409  10.272   4.141
69918W        W39733  17.694  26.069  10.914
69919W        W39734  18.775  20.581  12.942
69920W        W39735  20.090  35.984  13.055
69921W        W39736  11.737   4.937   3.641
69922W        W39737  15.763  34.942   4.737
69923W        W39738   8.656  44.782  12.898
69924W        W39739   1.840  24.491  11.541
69925W        W39740   2.468  43.376  12.487
69926W        W39741   2.453  24.552  13.918
69927W        W39742  17.215  43.824   2.284
69928W        W39743  33.021  27.518   0.860
69929W        W39744  23.630   6.340  11.007
69930W        W39745  30.585  26.461   2.307
69931W        W39746  21.739  39.932  14.515
69932W        W39747  24.097  29.475  13.523
69933W        W39748   3.291  36.841   0.778
69934W        W39749   6.768  14.337  10.480
69935W        W39750  18.233  24.525  11.052
69936W        W39751   4.391  28.623  13.527
69937W        W39752  24.055  11.836  10.561
69938W        W39753   1.830  21.681  10.888
69939W        W39754   7.815  36.405   2.402
69940W        W39755   3.878  17.068   4.825
69941W        W39756  12.165   9.656   0.468
69942W        W39757  15.146  34.097   1.764
69943W        W39758   8.292  14.657   2.887
69944W        W39759   7.828  13.251   2.668
69945W        W39760  43.372  13.801   2.394
69946W        W39761  17.598   2.294  12.071
69947W        W39762  12.218  15.218  10.417
69948W        W39763  32.122  44.395   5.273
69949W        W39764  32.072  10.688   0.305
69950W        W39765  43.973  28.063  10.504
69951W        W39766  28.161  25.115  11.944
69952W        W39767   6.307  35.021  11.857
69953W        W39768  44.403  11.695   5.301
69954W        W39769  37.410  41.474  10.890
69955W        W39770  43.429   4.862   0.279
69956W        W39771   0.892  19.099  12.040
69957W        W39772   2.322  29.096   0.425
69958W        W39773  13.621   9.746  11.027
69959W        W39774   6.893  24.532   1.425
69960W        W39775  23.625  25.975  13.933
69961W        W39776  11.756  15.625  10.133
69962W        W39777  42.033   4.213   3.641
69963W        W39778  23.221   6.250   1.790
69964W        W39779  12.118   2.256   4.828
69965W        W39780  13.129   4.843   3.370
69966W        W39781  28.964  32.942   3.203
69967W        W39782  10.281  33.562   4.246
69968W        W39783  36.897  37.018  11.494
69969W        W39784  39.012  14.174   4.705
69970W        W39785  41.907  24.706   3.811
69971W        W39786  12.626   3.390   2.880
69972W        W39787  11.307   3.300   1.889
69973W        W39788  27.588  12.849  10.554
69974W        W39789   6.889  27.686   0.867
69975W        W39790  21.590   6.289  13.011
69976W        W39791  33.611  14.645  11.437
69977W        W39792  43.834  12.724  14.430
69978W        W39793  17.124  15.115  13.547
69979W        W39794  37.521  41.390  12.917
69980W        W39795  21.533  18.708   0.935
69981W        W39796  18.594  28.941  14.829
69982W        W39797   7.848  28.013   3.674
69983W        W39798   7.854  10.141   1.768
69984W        W39799  24.139   9.861  11.478
69985W        W39800  10.652  15.163  11.886
69986W        W39801  35.398  33.926  10.986
69987W        W39802  40.456  27.455   4.722
69988W        W39803   3.914  41.800   3.178
69989W        W39804  23.731   0.958   0.463
69990W        W39805  10.356  16.240   3.236
69991W        W39806  27.621  44.406  14.869
69992W        W39807  36.366  40.860   3.830
69993W        W39808  13.825   7.356   3.195
69994W        W39809  17.701   1.460   0.757
69995W        W39810  17.143  28.634   3.282
69996W        W39811  16.592  43.492   3.737
69997W        W39812  12.660  25.995   2.899
69998W        W39813  24.991   3.377   1.411
69999W        W39814  24.592  36.992   4.165
70000W        W39815  26.082   1.452  10.567
70001W        W39816   8.276  37.485  10.439
70002W        W39817  19.205  13.147   2.322
70003W        W39818  39.363  37.970  10.944
70004W        W39819  27.634  14.158   2.411
70005W        W39820   8.684  17.683  11.051
70006W        W39821  23.589   1.384   2.740
70007W        W39822  29.095  18.608   3.335
70008W        W39823  42.864  41.529  10.894
70009W        W39824  30.012  10.696  10.444
70010W        W39825  12.630   9.690   1.350
70011W        W39826  26.042  38.925   5.153
70012W        W39827  10.260  29.603  13.312
70013W        W39828   2.242  31.955   1.341
70014W        W39829  26.115  10.818  12.535
70015W        W39830  29.585   8.374  13.792
70016W        W39831  12.344   3.421  13.491
70017W        W39832  12.832  25.069  13.001
70018W        W39833   4.905  32.510   1.334
70019W        W39834  24.147   0.904  10.978
70020W        W39835   8.178  28.635   0.862
70021W        W39836   1.382   8.856   1.348
70022W        W39837   4.889  38.073  13.947
70023W        W39838  23.229  29.557  13.406
70024W        W39839  22.735  10.683  12.956
70025W        W39840  34.458  39.419   0.271
70026W        W39841  26.673   8.662   3.292
70027W        W39842  10.334   7.326  12.361
70028W        W39843  30.450  24.179  14.460
70029W        W39844  44.483  21.046  13.971
70030W        W39845  17.190  40.873  11.972
70031W        W39846  24.212  37.979   5.296
70032W        W39847  31.535  12.645   4.291
70033W        W39848   9.854  15.277   4.699
70034W        W39849   5.769   7.739   2.268
70035W        W39850  16.781  29.988  11.433
70036W        W39851   0.823   2.452   3.261
70037W        W39852  17.096  21.542   0.274
70038W        W39853   7.333  10.740  11.533
70039W        W39854  25.072  35.948   0.794
70040W        W39855  24.617   4.415   4.138
70041W        W39856  44.429  32.079   1.716
70042W        W39857   0.941  24.016  11.529
70043W        W39858  43.775  40.848  14.022
70044W        W39859  23.642  25.066   1.297
70045W        W39860  39.819  30.935   2.398
70046W        W39861  15.630  16.282  10.467
70047W        W39862   7.811  42.400   3.216
70048W        W39863   4.932  43.894   1.388
70049W        W39864  43.876  21.552  11.944
70050W        W39865  28.977   8.313  11.111
70051W        W39866  32.141   4.941  10.993
70052W        W39867  26.023  33.008   3.359
70053W        W39868  33.619  24.040   3.256
70054W        W39869  16.803  42.876  10.459
70055W        W39870  16.785  42.446   4.259
70056W        W39871   8.313  30.009   0.912
70057W        W39872  19.065  44.919   1.774
70058W        W39873  21.198   9.225  12.895
70059W        W39874  23.607  16.302   0.451
70060W        W39875   3.363  28.030   4.682
70061W        W39876  32.467  15.778   1.809
70062W        W39877  44.883  40.473   3.168
70063W        W39878  42.376  10.649  14.949
70064W        W39879   4.868   1.930   1.354
70065W        W39880   1.267  34.942  13.480
70066W        W39881  32.016  19.535  10.562
70067W        W39882  23.511  40.810  14.836
70068W        W39883  26.208  38.473  11.123
70069W        W39884  11.302  20.084   1.263
70070W        W39885   7.200  20.055  12.538
70071W        W39886  14.116  16.279   0.957
70072W        W39887  14.216  43.359   3.309
70073W        W39888  13.708  31.588   2.891
70074W        W39889  16.645  20.079  11.408
70075W        W39890   6.294   4.408  14.347
70076W        W39891   7.757  19.062   3.638
70077W        W39892   4.282  28.482   1.233
70078W        W39893   1.843  30.126  11.093
70079W        W39894  22.100  38.328   3.641
70080W        W39895  44.316   9.759   4.693
70081W        W39896   1.767  23.676   0.843
70082W        W39897  23.650  35.445   1.424
70083W        W39898   0.253   5.930  13.999
70084W        W39899  16.647  11.194  14.013
70085W        W39900  25.200   7.388  13.933
70086W        W39901   7.233  28.645   1.708
70087W        W39902  13.752   0.964   1.421
70088W        W39903  34.922  25.193  11.126
70089W        W39904  12.699  19.171   0.355
70090W        W39905  17.639   4.408   4.655
70091W        W39906  20.189  19.249  10.405
70092W        W39907   0.798  16.669  12.505
70093W        W39908  41.865  39.535   1.329
70094W        W39909  17.703  14.268   1.860
70095W        W39910  24.682  21.532  13.854
70096W        W39911  34.394  18.753   4.225
70097W        W39912  31.574  21.244   4.159
70098W        W39913   9.795  29.648  12.826
70099W        W39914  16.283  31.439   4.712
70100W        W39915  43.336  27.054   3.809
70101W        W39916  43.497  39.984  11.013
70102W        W39917  42.358   0.306  13.875
70103W        W39918  35.359  21.136  14.857
70104W        W39919  22.041  44.334   3.367
70105W        W39920  31.413  24.087   1.447
70106W        W39921  30.008  36.969   1.231
70107W        W39922  39.529  44.394  13.527
70108W        W39923  33.966  14.792  12.384
70109W        W39924  36.014  24.230  14.452
70110W        W39925  31.925  30.146  14.946
70111W        W39926  30.485  39.357  14.997
70112W        W39927  43.975   6.784   1.866
70113W        W39928  30.088   0.779  13.876
70114W        W39929  14.676  38.841  10.967
70115W        W39930  24.553   8.291  14.462
70116W        W39931  24.591  43.403   0.842
70117W        W39932   7.414   3.322  11.446
70118W        W39933  40.993   5.319   3.777
70119W        W39934   4.417  24.998  12.537
70120W        W39935  12.619  39.836   1.744
70121W        W39936  37.055  10.852   4.317
70122W        W39937  14.329   4.292   1.282
70123W        W39938  13.636  33.098   0.837
70124W        W39939  43.934  12.203  12.903
70125W        W39940   5.689  14.171  14.977
70126W        W39941   3.763  28.521   1.264
70127W        W39942  25.013  41.429  14.890
70128W        W39943  35.458  17.716  13.345
70129W        W39944  18.164  33.013   4.239
70130W        W39945  25.557  15.769   1.800
70131W        W39946  42.994   9.309  12.020
70132W        W39947   3.819  39.379  14.372
70133W        W39948  35.943  37.395  10.545
70134W        W39949  27.579  39.901  12.549
70135W        W39950  26.044  29.035  12.953
70136W        W39951  31.541  42.319   0.467
70137W        W39952  12.716  28.112   4.613
70138W        W39953  17.252  28.146   5.091
70139W        W39954  37.407  34.513   1.701
70140W        W39955  30.429  44.340  14.973
70141W        W39956  34.886  35.920   2.314
70142W        W39957  25.006  20.241  10.546
70143W        W39958  37.055  25.120   2.666
70144W        W39959  10.321  34.052  10.537
70145W        W39960   2.903   4.791   2.754
70146W        W39961  20.237  33.592   3.856
70147W        W39962  33.412  34.113  12.574
70148W        W39963   7.731  22.206   1.212
70149W        W39964  24.675  28.515   3.674
70150W        W39965  23.077   4.383   3.304
70151W        W39966   5.865  31.489  13.889
70152W        W39967   2.462  35.013  14.786
70153W        W39968  31.598   2.743  12.434
70154W        W39969   2.293  30.503   4.139
70155W        W39970  30.546  31.598   2.809
70156W        W39971  14.692   7.858  11.869
70157W        W39972  37.877  25.086  12.462
70158W        W39973  44.310  17.561  11.439
70159W        W39974  32.119  32.028   0.832
70160W        W39975  43.929  36.491  14.886
70161W        W39976  42.786  27.514  12.830
70162W        W39977   3.281  24.629   1.747
70163W        W39978  44.863   7.707   4.708
70164W        W39979  30.456  30.040   1.782
70165W        W39980   6.314   8.208   2.220
70166W        W39981  35.404  34.374   2.192
70167W        W39982  42.394  15.255  13.057
70168W        W39983  24.650   2.827   3.697
70169W        W39984  42.494  30.052  11.601
70170W        W39985  30.427  40.536  10.964
70171W        W39986  41.456  42.397  14.019
70172W        W39987  21.654  34.447  14.363
70173W        W39988  26.122  42.413   0.947
70174W        W39989   5.729  40.343  11.544
70175W        W39990  15.247  17.123   3.786
70176W        W39991  38.370   0.395  12.860
70177W        W39992  41.404  26.951   4.766
70178W        W39993  31.470   8.834  11.882
70179W        W39994  39.017  18.578  11.487
70180W        W39995  42.994  16.138   4.685
70181W        W39996  25.994   6.193  10.951
70182W        W39997  30.627   1.764  13.822
70183W        W39998  11.197   9.676  11.570
70184W        W39999  23.685  22.646  11.027
70185W        W40000  11.622   4.715   2.735
70186W        W40001  30.990  24.077  12.917
70187W        W40002  14.273  44.871   0.749
70188W        W40003   2.427  15.149   2.753
70189W        W40004   3.884  42.496   0.421
70190W        W40005  13.266  10.277  12.015
70191W        W40006  43.300  37.857   0.867
70192W        W40007  13.736  33.458  10.460
70193W        W40008   6.735  21.587   0.429
70194W        W40009  41.437  26.611   5.164
70195W        W40010  42.339   7.206   0.771
70196W        W40011  29.952  36.401  14.833
70197W        W40012  36.867  29.001  11.564
70198W        W40013  33.440  44.265   1.872
70199W        W40014  32.996  27.521   2.289
70200W        W40015  28.653  35.548   4.672
70201W        W40016  21.655  43.906  11.543
70202W        W40017  36.576  24.041  12.566
70203W        W40018  44.423  19.676   3.760
70204W        W40019  28.635  23.662   3.338
70205W        W40020  11.676  12.263   4.226
70206W        W40021  43.516   8.241   3.797
70207W        W40022  10.202  21.619   1.411
70208W        W40023  36.918  30.430  12.564
70209W        W40024  36.042  14.169  12.478
70210W        W40025  31.920   1.455  11.101
70211W        W40026  44.844  40.935  10.515
70212W        W40027  40.464   0.956   1.777
70213W        W40028  15.596  18.269   3.296
70214W        W40029  28.597  29.052  12.970
70215W        W40030  31.150   5.417  14.765
70216W        W40031  39.338  33.416   0.876
70217W        W40032  37.420   5.286  13.814
70218W        W40033  27.497  23.535   1.351
70219W        W40034   7.853   9.176  11.520
70220W        W40035  26.622   6.229  11.986
70221W        W40036  25.098  13.274   3.769
70222W        W40037  22.568  21.035  14.906
70223W        W40038  29.174  16.138   2.314
70224W        W40039  38.401  41.353  11.574
70225W        W40040  10.290  16.171   4.766
70226W        W40041  14.094  36.364  10.624
70227W        W40042  28.972  12.813   0.830
70228W        W40043  19.124  25.993  11.525
70229W        W40044   2.727  23.123  12.505
70230W        W40045  40.944   2.275  13.866
70231W        W40046  41.835  19.169  11.115
70232W        W40047  18.281  39.425  10.538
70233W        W40048   2.372  36.044   2.752
70234W        W40049   4.313   3.219   0.855
70235W        W40050  26.144  41.404  14.303
70236W        W40051  13.299  18.066   3.706
70237W        W40052  39.384   6.412   4.296
70238W        W40053  30.128  39.347  11.931
70239W        W40054   1.888  29.663   2.766
70240W        W40055  32.929   4.727  14.791
70241W        W40056   2.229  37.840   1.260
70242W        W40057   8.390   5.194   3.167
70243W        W40058  19.699  29.136  11.416
70244W        W40059  16.695  14.217  13.388
70245W        W40060  25.590  28.559  13.888
70246W        W40061  25.642  42.476  11.074
70247W        W40062  40.409  19.723   0.892
70248W        W40063   7.242   9.177  12.944
70249W        W40064  34.387  10.734  13.898
70250W        W40065  37.988  12.786   0.319
70251W        W40066  30.500  14.765   1.846
70252W        W40067   0.754  10.327   2.397
70253W        W40068  24.996  41.002  13.997
70254W        W40069   4.909  14.215  12.344
70255W        W40070  13.662  23.222  10.494
70256W        W40071  34.998  37.016  10.981
70257W        W40072  38.421  29.133  13.912
70258W        W40073   6.699  16.592  13.048
70259W        W40074   7.411  11.314  14.953
70260W        W40075  12.611  43.340  13.929
70261W        W40076  19.622  39.993   0.306
70262W        W40077  35.458  22.186   1.750
70263W        W40078  21.233  27.092  13.509
70264W        W40079  22.641  11.867   1.920
70265W        W40080   1.375  26.609  10.639
70266W        W40081  37.468  37.072  13.315
70267W        W40082  18.686  37.489   0.965
70268W        W40083  41.913  10.200  10.502
70269W        W40084  17.065  18.254   0.741
70270W        W40085  25.667  28.627  12.423
70271W        W40086  25.690   2.366  12.397
70272W        W40087  23.602  39.902  13.482
70273W        W40088  39.867  14.111   3.755
70274W        W40089  12.255   1.867  11.505
70275W        W40090   1.477  17.296  13.454
70276W        W40091  23.677  33.398   4.756
70277W        W40092  40.033   7.366  13.377
70278W        W40093  33.962   6.387   3.190
70279W        W40094  32.582  43.864   3.371
70280W        W40095  35.042  20.697  14.010
70281W        W40096  39.327  16.083  13.918
70282W        W40097  35.499   9.307   2.261
70283W        W40098  39.493  32.133  10.965
70284W        W40099   7.727  38.534  11.921
70285W        W40100  33.533   5.418   1.412
70286W        W40101  40.317  35.464  13.907
70287W        W40102  28.582  19.702   3.205
70288W        W40103   1.359   9.341  12.035
70289W        W40104  10.368  34.018  11.078
70290W        W40105   4.759  23.676   3.636
70291W        W40106  15.584   1.309  11.899
70292W        W40107  13.148  23.039  13.477
70293W        W40108   7.785  13.173   3.728
70294W        W40109   8.851   1.805   1.821
70295W        W40110  39.036  11.827   1.812
70296W        W40111  23.595   8.779   1.324
70297W        W40112  29.486   1.465   1.375
70298W        W40113  38.892   9.382  14.802
70299W        W40114  25.203  15.699   3.705
70300W        W40115  23.174   1.815   2.686
70301W        W40116  32.616  15.811  12.553
70302W        W40117  18.698  33.927  11.988
70303W        W40118   0.485  32.456  13.468
70304W        W40119  21.662   1.780  14.311
70305W        W40120  33.099  19.218  14.855
70306W        W40121  27.173  39.962  12.040
70307W        W40122  16.205  39.984  12.058
70308W        W40123  40.454   4.764  11.072
70309W        W40124  40.914  24.632   1.356
70310W        W40125  42.428  23.535   4.154
70311W        W40126  25.018  31.014  13.042
70312W        W40127   1.870   6.708   4.145
70313W        W40128  30.658  41.906  13.454
70314W        W40129  42.979   9.880   4.249
70315W        W40130   4.419  24.538  11.555
70316W        W40131  43.999   3.387  13.838
70317W        W40132  24.031  27.956   1.446
70318W        W40133  18.134   4.303   1.247
70319W        W40134   7.734  37.918   2.837
70320W        W40135  19.631   9.681   1.408
70321W        W40136  28.613  26.682   3.795
70322W        W40137  30.996  25.532   2.690
70323W        W40138  36.371  32.434  10.103
70324W        W40139   8.314  12.239  10.620
70325W        W40140  34.109   7.744  11.478
70326W        W40141   5.828  39.940   3.188
70327W        W40142   9.206   3.955   3.719
70328W        W40143  29.452  43.373  14.446
70329W        W40144  10.804  30.080  13.792
70330W        W40145  17.666   1.733  13.383
70331W        W40146  25.105  11.775   1.392
70332W        W40147   4.332  37.907   3.183
70333W        W40148   9.646   5.837   3.666
70334W        W40149  38.839  19.754  10.439
70335W        W40150  26.581  19.077   1.386
70336W        W40151  42.801  15.231   4.223
70337W        W40152  33.459  23.673  10.894
70338W        W40153  16.767   4.280   4.246
70339W        W40154  39.057  34.373   3.709
70340W        W40155  21.030  12.841  12.410
70341W        W40156  41.903  26.035   2.740
70342W        W40157  25.628  26.064   1.760
70343W        W40158  29.612   9.694   4.758
70344W        W40159   3.802  17.610  14.917
70345W        W40160  30.438  20.556  14.803
70346W        W40161  27.464  38.408  11.029
70347W        W40162  38.336  38.878  13.330
70348W        W40163  26.651  18.051  12.362
70349W        W40164  17.154  18.786   2.318
70350W        W40165   3.804  12.229  12.422
70351W        W40166   6.877  25.495   2.677
70352W        W40167   5.712  44.358  10.546
70353W        W40168  38.515  25.200  13.492
70354W        W40169  12.222   7.250  13.320
70355W        W40170  30.413   0.795  13.523
70356W        W40171  34.485   8.713   0.894
70357W        W40172  23.238  22.537   1.250
70358W        W40173  10.744   1.304   2.752
70359W        W40174  31.022   1.433  14.767
70360W        W40175  28.475   8.352  14.950
70361W        W40176  23.031  13.106   4.621
70362W        W40177   8.843  37.503  10.422
70363W        W40178  31.934  38.852  10.891
70364W        W40179  32.407  10.207  13.356
70365W        W40180  43.792  31.920  14.868
70366W        W40181  16.260   7.738   0.284
70367W        W40182  32.072  32.448   1.810
70368W        W40183  25.099  11.288   2.728
70369W        W40184  27.631  14.825  13.351
70370W        W40185  44.337  44.269   9.985
70371W        W40186  31.062  35.879  10.084
70372W        W40187  14.713  41.297   0.869
70373W        W40188  15.233  33.614   0.452
70374W        W40189  39.061  11.753  14.396
70375W        W40190   4.933  38.536   2.226
70376W        W40191   5.302   7.184  14.947
70377W        W40192  42.451  39.556  14.907
70378W        W40193   7.412   4.291  13.435
70379W        W40194  27.136  12.347  12.406
70380W        W40195  30.490  40.324   1.273
70381W        W40196   5.774  13.713   2.360
70382W        W40197  34.885   5.407   3.162
70383W        W40198  11.184  37.373   0.341
70384W        W40199  26.565  29.624   0.375
70385W        W40200  24.215  22.638  10.437
70386W        W40201  19.754  16.688   1.349
70387W        W40202  40.504  12.748  14.392
70388W        W40203  34.996  17.786  13.800
70389W        W40204   6.195  41.964  14.910
70390W        W40205  39.998  41.318  14.826
70391W        W40206  15.725  40.024  13.529
70392W        W40207  39.386  31.066   3.744
70393W        W40208  34.607  26.539  13.918
70394W        W40209  21.154  43.478  11.389
70395W        W40210  38.856  43.373  12.440
70396W        W40211  29.103  43.450  13.497
70397W        W40212  43.803  13.813  11.070
70398W        W40213  21.746  40.877   2.245
70399W        W40214  38.522   1.832  14.939
70400W        W40215  14.130  13.272   3.698
70401W        W40216  18.060   3.271  12.043
70402W        W40217  16.298   4.698  11.095
70403W        W40218   3.378  44.465  11.055
70404W        W40219  36.366  26.510   0.377
70405W        W40220  16.165  41.852   2.386
70406W        W40221  28.491  26.027   0.425
70407W        W40222  28.963  34.572   2.333
70408W        W40223  16.720  41.989  13.012
70409W        W40224  44.313   9.888   5.316
70410W        W40225  18.163  27.690  14.437
70411W        W40226  11.351  43.960   4.770
70412W        W40227  27.943  23.611   4.249
70413W        W40228   3.717  34.046   4.640
70414W        W40229  27.109  22.587  10.639
70415W        W40230  31.569  12.238   1.254
70416W        W40231   2.827  13.211   4.115
70417W        W40232  29.499   1.774   3.185
70418W        W40233  41.792  31.009  14.878
70419W        W40234   8.885  38.546  11.441
70420W        W40235   8.840  16.702  13.997
70421W        W40236  23.690  39.533  11.511
70422W        W40237  28.563   3.333   4.297
70423W        W40238  30.108  12.231  10.640
70424W        W40239  15.272  29.533   2.682
70425W        W40240  39.368  21.536   1.243
70426W        W40241   4.412  12.274  10.581
70427W        W40242  33.448  17.655  11.471
70428W        W40243  10.673  33.542  12.933
70429W        W40244  43.987  43.286  11.531
70430W        W40245   1.480  17.565   0.926
70431W        W40246  18.241  24.535  12.926
70432W        W40247  36.539  14.111  13.536
70433W        W40248  31.439  25.983   0.874
70434W        W40249  36.965  17.755   3.276
70435W        W40250   6.413  39.506   0.392
70436W        W40251  27.979  37.529   1.451
70437W        W40252   5.202  17.581  12.468
70438W        W40253  29.123  30.154   4.352
70439W        W40254  32.007   6.397   0.769
70440W        W40255  32.926   7.397  11.036
70441W        W40256  21.730  23.091  12.402
70442W        W40257  30.600  11.271   3.691
70443W        W40258  18.723  36.905   0.382
70444W        W40259  19.226  14.325   2.803
70445W        W40260   1.826  26.166  10.513
70446W        W40261   3.787  21.625  10.641
70447W        W40262  40.334  14.817  14.398
70448W        W40263  23.664  44.795  10.517
70449W        W40264  21.702  15.113  12.377
70450W        W40265  32.074  44.409   4.819
70451W        W40266  38.827   8.374  14.815
70452W        W40267   3.382  41.822   3.813
70453W        W40268  29.038  33.471  13.532
70454W        W40269   7.349   5.823   1.337
70455W        W40270  23.577   7.193  11.089
70456W        W40271  19.268  14.608  12.384
70457W        W40272  34.443  43.294  14.789
70458W        W40273  26.554   5.835   1.244
70459W        W40274  12.627  23.585  12.471
70460W        W40275   3.232  35.918  13.318
70461W        W40276  37.453  18.287  13.952
70462W        W40277   2.393   0.846  12.434
70463W        W40278  16.640  20.086   0.876
70464W        W40279  18.284  26.050  13.373
70465W        W40280  31.972   3.924   2.206
70466W        W40281  39.521  44.984   4.296
70467W        W40282  38.961  41.862  11.037
70468W        W40283  33.573  12.786   0.417
70469W        W40284  32.423  14.164   1.374
70470W        W40285  18.188  14.141   1.448
70471W        W40286  24.151  17.735   0.455
70472W        W40287  36.473  21.070   3.642
70473W        W40288  38.356  19.645   1.394
70474W        W40289  22.734  42.021  14.930
70475W        W40290  11.801  22.708  12.502
70476W        W40291  18.588  23.553  12.402
70477W        W40292   2.925  31.094   1.795
70478W        W40293  30.023  11.677   2.268
70479W        W40294  18.080  24.480  11.499
70480W        W40295  11.866  33.127  13.539
70481W        W40296   7.844  36.526  11.538
70482W        W40297  15.787  23.984  14.310
70483W        W40298  31.594  11.166   2.203
70484W        W40299  43.844   9.877   3.797
70485W        W40300  22.014  25.531   4.828
70486W        W40301  23.158  23.651  14.301
70487W        W40302  38.894  35.861   1.214
70488W        W40303   1.842  29.044   4.671
70489W        W40304   9.720  18.553   1.782
70490W        W40305  29.067  40.044  10.406
70491W        W40306  39.010  38.509   9.960
70492W        W40307  34.467  34.603  11.563
70493W        W40308  18.775  12.355   3.833
70494W        W40309   5.900  10.310  12.836
70495W        W40310  43.406  43.277  10.612
70496W        W40311  12.330  27.525   0.747
70497W        W40312  10.323  18.553  12.894
70498W        W40313  19.574  28.959   2.729
70499W        W40314  29.498  22.229   0.437
70500W        W40315  37.516  36.024   4.121
70501W        W40316  15.678  24.206   3.344
70502W        W40317  14.634  14.128  10.411
70503W        W40318  31.044   3.454   1.348
70504W        W40319  12.800  25.979  11.087
70505W        W40320  29.957  19.099   3.691
70506W        W40321   1.313  43.460   2.318
70507W        W40322  24.045  18.140   3.796
70508W        W40323  28.443  29.015   4.353
70509W        W40324  29.543  42.885   3.770
70510W        W40325  41.913  17.211   4.352
70511W        W40326  21.081   8.682   3.240
70512W        W40327  12.813  37.512   0.918
70513W        W40328  35.863  23.548  11.123
70514W        W40329  32.121  33.535   0.264
70515W        W40330  44.763  16.622   4.251
70516W        W40331  11.782  13.691  11.483
70517W        W40332  16.168  30.946  13.436
70518W        W40333  15.819   2.362  10.590
70519W        W40334  29.042  35.079  10.473
70520W        W40335   2.739   7.904   4.675
70521W        W40336  15.757   7.776   1.897
70522W        W40337  17.173  40.434  13.932
70523W        W40338  30.525  15.273   1.896
70524W        W40339  40.983   0.349  12.354
70525W        W40340  33.379   5.194  13.015
70526W        W40341  41.953   8.667   4.312
70527W        W40342  11.866  38.940   0.793
70528W        W40343  27.486  22.559  14.006
70529W        W40344  39.327  41.474   4.119
70530W        W40345  22.089  34.384  14.775
70531W        W40346   0.894   3.216   2.358
70532W        W40347  20.048  16.282  11.018
70533W        W40348  38.475  27.197  13.796
70534W        W40349  12.190  16.687   4.133
70535W        W40350  28.670   5.809   1.934
70536W        W40351  21.133  23.689   0.310
70537W        W40352  17.798   8.218   1.761
70538W        W40353  39.364  29.530  12.028
70539W        W40354  20.062  42.817   1.434
70540W        W40355  28.080  15.821  10.969
70541W        W40356  38.900  38.443  12.350
70542W        W40357  11.719  25.514   3.736
70543W        W40358  41.398  24.567   2.753
70544W        W40359  43.432  28.540  10.953
70545W        W40360  14.288  41.317   3.368
70546W        W40361  12.323  43.481  11.450
70547W        W40362   7.408  35.035  14.944
70548W        W40363  37.453   2.353   3.720
70549W        W40364  17.733  44.996   2.260
70550W        W40365  15.324  20.764  12.533
70551W        W40366  16.566  28.031   2.211
70552W        W40367   1.350  11.155  13.416
70553W        W40368   0.355   4.741  11.109
70554W        W40369  35.422  40.438   0.773
70555W        W40370  27.197  23.571   0.481
70556W        W40371   7.173  17.786   2.360
70557W        W40372  37.863  26.606  14.406
70558W        W40373  38.010  23.231   3.762
70559W        W40374  18.267   4.886   0.293
70560W        W40375  44.842  29.974   0.438
70561W        W40376  13.112  39.924   4.250
70562W        W40377   0.345  26.635   3.372
70563W        W40378  33.542  31.972  12.958
70564W        W40379  41.939  11.146   1.926
70565W        W40380  19.043  36.447   0.414
70566W        W40381  31.588  23.734  12.014
70567W        W40382  25.671  35.063  14.857
70568W        W40383  30.539  23.537  11.863
70569W        W40384  40.920  25.584  14.373
70570W        W40385  28.578  44.454   1.903
70571W        W40386  31.536   9.190   2.717
70572W        W40387  17.126  22.525  14.964
70573W        W40388   9.386   7.257  12.038
70574W        W40389   9.166   5.236   0.947
70575W        W40390  30.001  29.938  10.493
70576W        W40391   7.286  26.684   4.271
70577W        W40392  29.636  44.762   2.419
70578W        W40393   1.440  17.580   2.895
70579W        W40394  13.833  32.439   2.876
70580W        W40395   2.794   8.295  10.956
70581W        W40396   0.286   4.386   2.806
70582W        W40397  39.479  18.756  10.905
70583W        W40398   0.443  34.097  14.986
70584W        W40399  28.577   8.269  11.907
70585W        W40400  41.515  11.248   2.328
70586W        W40401  10.140   0.759   4.784
70587W        W40402  35.448  16.625   3.852
70588W        W40403  40.017  42.508   3.367
70589W        W40404  13.332   6.320  12.880
70590W        W40405  27.667  12.312  14.284
70591W        W40406  25.705   0.881  10.148
70592W        W40407  36.516  16.588  12.558
70593W        W40408  42.291  16.104   0.775
70594W        W40409  36.923  27.063   0.477
70595W        W40410  26.584   8.834  12.406
70596W        W40411  20.058  33.594  12.018
70597W        W40412  23.169  21.523  10.942
70598W        W40413  44.408  28.093   3.642
70599W        W40414   6.743  17.736  12.532
70600W        W40415  31.145  15.091   3.814
70601W        W40416   6.848  23.113   1.914
70602W        W40417  26.622  44.880   3.301
70603W        W40418   6.296   3.231  13.454
70604W        W40419  13.814   6.273  11.902
70605W        W40420  16.109  33.070  12.453
70606W        W40421   9.885  10.207   4.783
70607W        W40422   6.212  24.488   0.792
70608W        W40423  26.094  41.844   0.440
70609W        W40424   4.291  23.494  12.565
70610W        W40425  19.188   6.362   1.715
70611W        W40426  43.879  27.983   1.887
70612W        W40427  31.966  42.848  13.342
70613W        W40428   0.801  21.196   3.386
70614W        W40429  23.083   2.263   1.764
70615W        W40430  42.413   4.206   4.205
70616W        W40431  43.466  15.117  14.950
70617W        W40432  34.928   7.745  11.079
70618W        W40433   3.817  18.712   1.408
70619W        W40434  29.084  38.427   3.248
70620W        W40435  35.893  37.857  14.439
70621W        W40436  19.760  39.885   3.191
70622W        W40437  13.209   7.217   0.787
70623W        W40438  25.570  31.444  14.837
70624W        W40439  44.460  19.126   1.397
70625W        W40440   1.432  15.104   4.354
70626W        W40441  14.242  26.545   2.707
70627W        W40442  30.638  26.984  12.491
70628W        W40443  39.846  22.717  10.923
70629W        W40444  37.938  18.731  14.278
70630W        W40445   3.740  12.290   2.786
70631W        W40446  18.119  15.182   1.735
70632W        W40447  11.780  16.140  10.062
70633W        W40448   3.259   0.756   4.765
70634W        W40449  13.822  13.214   1.777
70635W        W40450  22.179  20.120  13.444
70636W        W40451   2.865  10.733  11.412
70637W        W40452   6.693  24.573  12.053
70638W        W40453  28.944   0.938  11.060
70639W        W40454  19.140  37.363  13.412
70640W        W40455   1.895  20.616   3.273
70641W        W40456  32.465  41.800   3.264
70642W        W40457   8.335  16.808   2.209
70643W        W40458  13.289  25.055   2.836
70644W        W40459  34.604   0.954   4.654
70645W        W40460  16.138   7.240  14.758
70646W        W40461  26.699  37.836   2.227
70647W        W40462  43.937   7.390   4.730
70648W        W40463  15.610  35.895  14.407
70649W        W40464  28.465  11.333  11.908
70650W        W40465  33.977  36.442   1.307
70651W        W40466  22.175  11.317  13.922
70652W        W40467  22.043   3.895   2.288
70653W        W40468  18.622   6.407   0.315
70654W        W40469  12.276  44.834   2.720
70655W        W40470  21.640  29.036   0.446
70656W        W40471  23.525  29.641   2.752
70657W        W40472  21.548  40.905   3.270
70658W        W40473  42.797  10.268   1.308
70659W        W40474  33.055  31.945   4.286
70660W        W40475  23.234   9.193  12.087
70661W        W40476  25.613  43.427   1.870
70662W        W40477  33.957  29.565   3.230
70663W        W40478  44.871  11.346  13.470
70664W        W40479  15.180  13.709  14.909
70665W        W40480   1.483  37.545   3.822
70666W        W40481  28.059  16.228   1.818
70667W        W40482  30.508  13.636   3.340
70668W        W40483  22.637   0.334   3.720
70669W        W40484  31.942  37.907   0.909
70670W        W40485  36.979  16.303   3.870
70671W        W40486  15.591  28.481  14.469
70672W        W40487  41.470  13.693   2.797
70673W        W40488  18.209  38.855   4.291
70674W        W40489  18.269  26.058  14.291
70675W        W40490  22.026  11.173   3.233
70676W        W40491  43.842  31.533  14.001
70677W        W40492  23.579   7.855   4.724
70678W        W40493  18.227   0.912  10.477
70679W        W40494  16.710  37.838   1.243
70680W        W40495   5.237  15.278  11.518
70681W        W40496  13.318  43.013   1.816
70682W        W40497  25.639  40.826  10.554
70683W        W40498   0.417  31.042  14.486
70684W        W40499  35.484  37.906   1.330
70685W        W40500  20.705  16.598  14.941
70686W        W40501   8.360   2.753  10.927
70687W        W40502   7.822   3.725  11.598
70688W        W40503   9.786  39.939  10.407
70689W        W40504  40.449  18.086   4.161
70690W        W40505  25.026  16.275  12.397
70691W        W40506  34.878  43.346  14.002
70692W        W40507  19.264  12.658  13.028
70693W        W40508  21.608   6.362  12.021
70694W        W40509  11.677   1.282   4.349
70695W        W40510  41.833  39.879  13.841
70696W        W40511  43.423  41.459  13.367
70697W        W40512  40.469   1.826  14.326
70698W        W40513  14.833  25.624   3.830
70699W        W40514  14.599  20.233  11.463
70700W        W40515  20.646  22.510  14.461
70701W        W40516  42.983  41.508   0.908
70702W        W40517  14.672  23.616   4.154
70703W        W40518   0.447   3.390   5.189
70704W        W40519  38.973  19.192  14.393
70705W        W40520  34.578   7.676  10.525
70706W        W40521  39.418  37.404   0.312
70707W        W40522  24.153  39.989   4.662
70708W        W40523   4.863  18.547  12.358
70709W        W40524  22.533  26.554  14.431
70710W        W40525  12.746  11.716  12.940
70711W        W40526  18.658  15.679   2.247
70712W        W40527  40.385  28.122  11.089
70713W        W40528  30.475  26.134  13.922
70714W        W40529   5.423  39.020   4.741
70715W        W40530  29.995  31.032   0.379
70716W        W40531  20.163   9.730   0.766
70717W        W40532  22.182  18.624   3.300
70718W        W40533   1.247  13.792   2.359
70719W        W40534  22.695   6.874  13.049
70720W        W40535   0.809  13.165   3.844
70721W        W40536  23.107  40.377  11.937
70722W        W40537  21.146  12.253  12.028
70723W        W40538  32.067   9.182  10.633
70724W        W40539  44.456  15.648  12.851
70725W        W40540  37.475  43.394   3.639
70726W        W40541  17.748  12.789  12.407
70727W        W40542  33.062  41.437   2.376
70728W        W40543  43.437   2.786  14.500
70729W        W40544  17.573  15.770   1.865
70730W        W40545  31.542   0.279  11.986
70731W        W40546  20.095  15.681  10.585
70732W        W40547   3.919   9.732  10.561
70733W        W40548  26.540  17.652   1.235
70734W        W40549   8.373  12.737  10.553
70735W        W40550   9.293  11.132   3.176
70736W        W40551  25.184  34.385  10.981
70737W        W40552  21.133  14.741  13.927
70738W        W40553  32.900  26.163   2.335
70739W        W40554  35.531   7.268  12.412
70740W        W40555  34.453  24.104   2.751
70741W        W40556  29.054   3.947  11.562
70742W        W40557   5.296  38.548  13.825
70743W        W40558  11.839  33.981  10.082
70744W        W40559  26.192  13.738   0.454
70745W        W40560   6.872   5.384  12.025
70746W        W40561   9.152  20.061  10.424
70747W        W40562  29.111  43.978  14.882
70748W        W40563  17.568  33.119  11.468
70749W        W40564  11.794  19.194   4.255
70750W        W40565  10.312  18.733   9.928
70751W        W40566  33.500  14.290   2.817
70752W        W40567  37.397  29.653   2.850
70753W        W40568  10.697  28.989  10.488
70754W        W40569  40.025  43.481  11.442
70755W        W40570  15.658   4.719  14.284
70756W        W40571  29.152  21.036  12.397
70757W        W40572  33.023   6.234   3.747
70758W        W40573  30.499  30.153   0.746
70759W        W40574  12.678  31.064   1.771
70760W        W40575  17.129  25.653  13.061
70761W        W40576  23.736  27.668   4.615
70762W        W40577   3.275   5.224  10.988
70763W        W40578   6.875  19.613  13.999
70764W        W40579  18.176   6.357   4.114
70765W        W40580  34.472   4.850  14.373
70766W        W40581   1.744  44.934  13.470
70767W        W40582  25.661   6.391   0.405
70768W        W40583   0.934  17.140  10.080
70769W        W40584  24.221  43.438   1.336
70770W        W40585  26.654   4.838  13.797
70771W        W40586   5.816   8.329   2.804
70772W        W40587  21.633  17.100   1.858
70773W        W40588   0.942  36.876   4.353
70774W        W40589  23.179  35.977  14.894
70775W        W40590  37.403  19.096   3.679
70776W        W40591  23.147  34.451   0.433
70777W        W40592   1.754  33.088   4.169
70778W        W40593   9.161  23.006   1.317
70779W        W40594   5.694   0.472   0.768
70780W        W40595   5.306   0.455  10.617
70781W        W40596  36.052   4.936  11.946
70782W        W40597  27.616  18.202   4.695
70783W        W40598  41.896   8.859   4.660
70784W        W40599  20.170  37.365   2.867
70785W        W40600  18.721  34.427   1.331
70786W        W40601   6.879  29.974   2.213
70787W        W40602  42.462  31.460  12.374
70788W        W40603  37.556  17.668  12.983
70789W        W40604  42.873  23.680   1.394
70790W        W40605   7.783  42.331  14.414
70791W        W40606  31.044  21.617   2.394
70792W        W40607   2.458  37.903  11.922
70793W        W40608   6.684  30.573   0.265
70794W        W40609  24.978  20.033  14.909
70795W        W40610  26.136   8.288   4.337
70796W        W40611  19.085  33.997  12.427
70797W        W40612  34.438   6.397  12.446
70798W        W40613   1.278   6.888   1.391
70799W        W40614   8.367  24.535  11.441
70800W        W40615  31.906  42.878   4.622
70801W        W40616  27.536  13.619   2.899
70802W        W40617  43.378   5.879  11.428
70803W        W40618  39.328  17.294   3.683
70804W        W40619   9.761  23.540  13.851
70805W        W40620  11.660  38.993   0.314
70806W        W40621   1.428   3.422   3.370
70807W        W40622   5.249  10.289  11.426
70808W        W40623  30.557  39.930   1.333
70809W        W40624  17.611   5.861  14.975
70810W        W40625  21.061  17.703   1.310
70811W        W40626  15.727  44.793  11.880
70812W        W40627  17.062  38.059  13.337
70813W        W40628  12.795  26.520   4.162
70814W        W40629  20.766  25.968  14.801
70815W        W40630   5.195  40.537   0.901
70816W        W40631  12.792   0.389  12.846
70817W        W40632  17.694  22.097   4.634
70818W        W40633   1.836  30.649  12.406
70819W        W40634  39.508  41.453  11.605
70820W        W40635  30.502  43.965   1.897
70821W        W40636  27.086  16.659   4.332
70822W        W40637  13.811  36.386   0.951
70823W        W40638  23.022  12.192   2.349
70824W        W40639  23.052  11.355  13.886
70825W        W40640   2.873   0.486   0.932
70826W        W40641  34.463  36.517   0.940
70827W        W40642  42.365  24.036  11.950
70828W        W40643  32.929   0.480  10.552
70829W        W40644  44.434   4.708  12.060
70830W        W40645   5.904  13.303  14.334
70831W        W40646   4.440  32.063   1.375
70832W        W40647  14.313   0.370   1.747
70833W        W40648  29.473   0.317  14.353
70834W        W40649  32.596  15.624  13.806
70835W        W40650  22.702  43.503  10.903
70836W        W40651  26.596   1.404   3.228
70837W        W40652  39.025  42.956  11.863
70838W        W40653   7.871  21.607   2.675
70839W        W40654  24.603  29.617  13.496
70840W        W40655  19.750  42.945   2.727
70841W        W40656  42.878  21.521  12.936
70842W        W40657  20.268  14.652  14.903
70843W        W40658  23.173   5.813   2.712
70844W        W40659   8.875  25.598   0.811
70845W        W40660  41.962  25.200   2.189
70846W        W40661  20.207   3.938   2.722
70847W        W40662  26.558  24.156  11.901
70848W        W40663  37.486  41.317   2.367
70849W        W40664  23.091   3.715   4.681
70850W        W40665  17.698   4.413   2.857
70851W        W40666  10.262  14.155  14.305
70852W        W40667  19.098   4.343  11.557
70853W        W40668  19.187   1.826   2.253
70854W        W40669  20.067  42.979  13.847
70855W        W40670  34.963   0.264   0.370
70856W        W40671  24.677  41.799  11.003
70857W        W40672  43.930  15.677   3.712
70858W        W40673  33.054  22.596  13.442
70859W        W40674   0.758  35.372   4.769
70860W        W40675  25.535   9.283   3.716
70861W        W40676  16.785   6.834  11.385
70862W        W40677  36.932   2.792   2.327
70863W        W40678  14.276   0.748  14.494
70864W        W40679  13.770  42.333   2.312
70865W        W40680  43.430  21.750   0.388
70866W        W40681   7.885  36.073   3.716
70867W        W40682  16.714  20.647   4.606
70868W        W40683  19.125  30.113   0.436
70869W        W40684   0.838  42.313   4.604
70870W        W40685   7.783  25.967   0.837
70871W        W40686  41.989  10.334  12.485
70872W        W40687   7.699  36.068  12.464
70873W        W40688  28.020  40.870   4.655
70874W        W40689  17.284   3.897   4.715
70875W        W40690   1.280  23.638   4.819
70876W        W40691   5.342  22.708  14.022
70877W        W40692  22.585  28.144   1.215
70878W        W40693   8.875  19.651  14.991
70879W        W40694  42.369  39.835   1.393
70880W        W40695  11.268  38.883   1.387
70881W        W40696  15.213  44.828  12.892
70882W        W40697   5.720  37.434   0.739
70883W        W40698  42.478  44.936  12.363
70884W        W40699   3.789  19.154   3.755
70885W        W40700  25.161   4.764  13.972
70886W        W40701  44.871  24.981   1.431
70887W        W40702  18.668   0.754   2.273
70888W        W40703  32.066  42.860  14.816
70889W        W40704  40.304  15.151   1.785
70890W        W40705   2.471  33.383   2.769
70891W        W40706  37.930  42.400  14.292
70892W        W40707   4.933  11.299  14.340
70893W        W40708  24.131  25.006  11.514
70894W        W40709  37.395  36.386   1.398
70895W        W40710  18.156  20.638  10.608
70896W        W40711   6.243  31.548   3.848
70897W        W40712  33.515  33.049   5.273
70898W        W40713   0.249  34.434  14.842
70899W        W40714  41.794  20.272  14.852
70900W        W40715  33.969  40.956  14.509
70901W        W40716  16.786   1.244   1.381
70902W        W40717  23.139  23.720   0.942
70903W        W40718  35.997  28.664   3.249
70904W        W40719   0.966   2.240  10.556
70905W        W40720  23.076  38.981  10.153
70906W        W40721  42.503  31.646  11.906
70907W        W40722  30.432  18.288  12.868
70908W        W40723  36.069  41.535  13.368
70909W        W40724   0.790  40.919  10.939
70910W        W40725  29.956  15.262  12.427
70911W        W40726  26.467   4.764   1.323
70912W        W40727  13.675  31.125  12.512
70913W        W40728  13.652   8.231   0.465
70914W        W40729  43.290  24.111  14.822
70915W        W40730  11.672  17.079  13.793
70916W        W40731  25.608   6.701   1.225
70917W        W40732  38.477  20.740  14.870
70918W        W40733   0.854   5.222   2.823
70919W        W40734  16.145  34.580  10.962
70920W        W40735   7.281  24.517   1.832
70921W        W40736  41.308  44.388  13.528
70922W        W40737  22.134  32.071  12.355
70923W        W40738   9.179   7.392   4.758
70924W        W40739  41.794  30.602  13.959
70925W        W40740  37.963  21.124  12.486
70926W        W40741  25.671  40.337  14.283
70927W        W40742  15.315   3.377  13.315
70928W        W40743   6.725  15.696  10.603
70929W        W40744  28.647  19.222   1.246
70930W        W40745  37.064  16.192   2.894
70931W        W40746  29.463  12.147   0.927
70932W        W40747  10.286   2.446  10.452
70933W        W40748  20.108   6.791  12.052
70934W        W40749  44.314  43.895   4.644
70935W        W40750   9.160  17.202   2.377
70936W        W40751  17.282   8.721   0.920
70937W        W40752  43.932   5.416  13.955
70938W        W40753  34.008   5.887  12.360
70939W        W40754  32.975   3.345  11.052
70940W        W40755  23.655   7.353   0.478
70941W        W40756  20.171  19.100   3.697
70942W        W40757  29.130  21.631  13.459
70943W        W40758  10.800  43.934   0.746
70944W        W40759  31.479   4.295   4.243
70945W        W40760  34.431  23.595  13.828
70946W        W40761   8.207  40.549   0.907
70947W        W40762  41.834  24.202   4.804
70948W        W40763  39.521  41.938  10.444
70949W        W40764  40.821  22.604  13.414
70950W        W40765  22.560  33.504  14.306
70951W        W40766   5.303  15.806  10.936
70952W        W40767   4.871  40.369  12.898
70953W        W40768  15.789  26.988   4.199
70954W        W40769  13.603   0.456  11.384
70955W        W40770  42.858  20.080  12.983
70956W        W40771   8.336  24.997  11.536
70957W        W40772  16.609  28.959  14.318
70958W        W40773   9.359  39.840  10.077
70959W        W40774  38.392   3.880  11.467
70960W        W40775  18.767  25.185  10.894
70961W        W40776   0.963  15.210   3.369
70962W        W40777  11.302   8.667  13.528
70963W        W40778  40.921  33.128  12.371
70964W        W40779  22.735  27.657   2.716
70965W        W40780  19.258  29.544  11.544
70966W        W40781  35.998   5.704   3.362
70967W        W40782  14.232  43.965   1.911
70968W        W40783   4.710  15.650   0.331
70969W        W40784   0.258   5.760   1.419
70970W        W40785   0.911  31.046  11.394
70971W        W40786  37.369  41.892   0.887
70972W        W40787  26.672  40.474   3.191
70973W        W40788  18.691   3.402  10.072
70974W        W40789  22.067  43.926  14.387
70975W        W40790  32.998  41.975  14.007
70976W        W40791  26.953  15.245   3.823
70977W        W40792  33.086   8.862   0.930
70978W        W40793  28.573  38.065  13.896
70979W        W40794  42.831  11.234   1.696
70980W        W40795  30.122  23.063  11.430
70981W        W40796  17.305  37.420   4.714
70982W        W40797   3.377  43.829  11.019
70983W        W40798  14.131  36.407   0.379
70984W        W40799  12.713  37.413  12.036
70985W        W40800   0.758  21.591  11.539
70986W        W40801  36.004  16.210  12.551
70987W        W40802  23.509  13.198   0.868
70988W        W40803  10.694   7.395   2.822
70989W        W40804  13.686  26.621   4.745
70990W        W40805   7.260  20.151   2.665
70991W        W40806  21.714  28.071   4.794
70992W        W40807   9.319  44.464  13.955
70993W        W40808  39.334  14.144   4.689
70994W        W40809  19.753  13.314  14.880
70995W        W40810  29.628  15.789  10.074
70996W        W40811   8.893  44.853  10.445
70997W        W40812  39.550  35.453  13.487
70998W        W40813  29.549  29.547  12.957
70999W        W40814  34.885  28.511  12.418
71000W        W40815  15.117  44.414   4.151
71001W        W40816  43.391  22.630   2.315
71002W        W40817   7.395   6.340  12.858
71003W        W40818  26.114  36.098   4.290
71004W        W40819   5.896  44.464  13.313
71005W        W40820  12.635  20.668  14.453
71006W        W40821   4.814  10.780  11.093
71007W        W40822  24.066  13.261  12.078
71008W        W40823  42.433   4.865   0.965
71009W        W40824  11.154   7.182  12.981
71010W        W40825  20.160  34.966  14.315
71011W        W40826  40.500  15.661  11.985
71012W        W40827  45.000  28.993  10.414
71013W        W40828  13.267  32.619  11.569
71014W        W40829  16.613  13.180   1.262
71015W        W40830  15.274  29.601   3.780
71016W        W40831   6.855  35.085  13.907
71017W        W40832  10.210  25.103   4.644
71018W        W40833  21.518   3.747  10.627
71019W        W40834  17.111  33.000   2.788
71020W        W40835  29.094  16.272  10.504
71021W        W40836  28.599  31.465  14.946
71022W        W40837   4.702  41.895  10.952
71023W        W40838  28.941  32.962   3.835
71024W        W40839  25.584  25.156  12.848
71025W        W40840  31.468   7.199  10.472
71026W        W40841  24.986  44.960   3.330
71027W        W40842  13.174  19.583   3.378
71028W        W40843  44.446  37.510  14.350
71029W        W40844  39.544   1.464   5.173
71030W        W40845   4.351  16.316   4.832
71031W        W40846  12.161   7.283  12.826
71032W        W40847  43.809  30.443   1.812
71033W        W40848  35.423  30.148  12.570
71034W        W40849  12.634   9.813  12.571
71035W        W40850  37.949   4.445   4.126
71036W        W40851  39.873   3.886  10.572
71037W        W40852  40.434  34.004   2.303
71038W        W40853  39.016  41.380   4.134
71039W        W40854  11.731  29.620   0.309
71040W        W40855  12.772  33.498  10.508
71041W        W40856  20.069  18.579   1.768
71042W        W40857  20.149  22.561  14.939
71043W        W40858   0.315  14.610  13.049
71044W        W40859  42.800   6.192  14.330
71045W        W40860  41.004  17.100  12.884
71046W        W40861  12.321   7.289   2.773
71047W        W40862  27.991  12.124   4.299
71048W        W40863  10.199  39.042  10.539
71049W        W40864  14.187  10.756   0.884
71050W        W40865  19.240  12.639  13.411
71051W        W40866  42.025  28.146   0.289
71052W        W40867   1.827  10.875   1.423
71053W        W40868   2.355   1.921   4.651
71054W        W40869   1.759  15.673  11.534
71055W        W40870  40.318   4.909  12.568
71056W        W40871  29.124  29.549   4.181
71057W        W40872  43.479  36.440  14.777
71058W        W40873  12.843  30.077   3.642
71059W        W40874   9.277   5.251  13.480
71060W        W40875  26.457   1.360   0.474
71061W        W40876  16.208  21.207  12.057
71062W        W40877  31.136  41.438   1.826
71063W        W40878   7.342  26.700  14.306
71064W        W40879  24.681  32.106  12.095
71065W        W40880  14.786   9.336  14.330
71066W        W40881  38.990  32.426   2.302
71067W        W40882  16.746  30.528  12.386
71068W        W40883  36.002  17.692  13.816
71069W        W40884  29.169  12.799   4.231
71070W        W40885  15.578  43.299   1.333
71071W        W40886  28.978  24.667  13.476
71072W        W40887  17.214   0.809   4.747
71073W        W40888  36.867  18.575   0.269
71074W        W40889  11.809  39.419  14.457
71075W        W40890  37.498  24.086   4.765
71076W        W40891   1.400   4.700  12.379
71077W        W40892  44.447   9.311   3.216
71078W        W40893  34.919  15.657   1.729
71079W        W40894   8.258  33.578   0.866
71080W        W40895  32.426  12.159   0.841
71081W        W40896  21.752  41.388  13.058
71082W        W40897  27.673   6.698  12.091
71083W        W40898  29.556  12.757  10.000
71084W        W40899  34.505   6.688   1.808
71085W        W40900  16.674  23.626  13.831
71086W        W40901  23.147  29.145  12.882
71087W        W40902  44.853  28.088  12.471
71088W        W40903  43.289   0.366   1.341
71089W        W40904  25.508   3.945  10.986
71090W        W40905   6.786  34.548  12.031
71091W        W40906  22.651   7.238  12.398
71092W        W40907  23.234   2.291   0.296
71093W        W40908  13.329  27.452   4.169
71094W        W40909  30.524  15.132   3.691
71095W        W40910   2.897  14.725  10.526
71096W        W40911  40.816  24.510   2.284
71097W        W40912  30.914  26.477   4.671
71098W        W40913  16.206   2.406   1.332
71099W        W40914  40.800  13.796   0.311
71100W        W40915  15.301  11.367   2.294
71101W        W40916  21.620  37.856  11.982
71102W        W40917  43.343  33.596  12.823
71103W        W40918  33.552   7.286  13.390
71104W        W40919  38.402  25.680  11.117
71105W        W40920  18.123  33.559   0.320
71106W        W40921   4.293  21.694   3.742
71107W        W40922  40.918  41.415  12.848
71108W        W40923  29.482  13.823  14.432
71109W        W40924  41.025   0.941   0.294
71110W        W40925  35.371  22.119  11.011
71111W        W40926  29.565  16.782   0.324
71112W        W40927   0.849  30.470   3.744
71113W        W40928   7.276  19.272  11.128
71114W        W40929  24.589   4.238  11.469
71115W        W40930  11.831  16.184   3.375
71116W        W40931  35.091  25.609  13.969
71117W        W40932  22.143   1.800   0.377
71118W        W40933  21.245   9.853   9.989
71119W        W40934   5.372   5.248  13.494
71120W        W40935  27.128  19.587  11.526
71121W        W40936   1.382  21.030   4.297
71122W        W40937  22.539  17.717   0.929
71123W        W40938  35.486  43.393   2.852
71124W        W40939  40.456   5.767   3.374
71125W        W40940  31.128   3.794   4.156
71126W        W40941  33.446   2.236   4.652
71127W        W40942  39.063   7.258  11.945
71128W        W40943   8.219  16.574   0.243
71129W        W40944  34.993  30.624  12.371
71130W        W40945  27.080  42.030   3.780
71131W        W40946  32.450  25.096  13.794
71132W        W40947   1.849   8.235  10.465
71133W        W40948   5.750   1.478   2.256
71134W        W40949  22.590  24.653  14.279
71135W        W40950   7.215   8.782  11.904
71136W        W40951  20.196  23.735   3.386
71137W        W40952   6.262   0.411  10.458
71138W        W40953  15.702  29.147  10.064
71139W        W40954  40.819  15.117  14.388
71140W        W40955   6.792  12.722   0.803
71141W        W40956  28.119  30.626   0.415
71142W        W40957  31.563   9.673   0.401
71143W        W40958  40.392   6.300   1.347
71144W        W40959  39.033  25.654   4.606
71145W        W40960   6.191   5.240   1.265
71146W        W40961  38.503  25.038   3.297
71147W        W40962  19.769  11.148   4.665
71148W        W40963  36.996  41.478   3.650
71149W        W40964  42.811   8.354   2.863
71150W        W40965  26.688  22.501  11.983
71151W        W40966   1.749  28.094  12.020
71152W        W40967  12.715   3.851   1.338
71153W        W40968  23.547  18.114  12.397
71154W        W40969  42.019  37.556  10.519
71155W        W40970  40.528  18.292  14.936
71156W        W40971  16.637  44.489  13.928
71157W        W40972  40.041  19.184  11.056
71158W        W40973  14.334  12.249  13.455
71159W        W40974  11.731  34.513   4.770
71160W        W40975  24.497   5.335   0.362
71161W        W40976   1.737  27.632   4.629
71162W        W40977  19.197  41.436  11.404
71163W        W40978  32.439  25.542   1.377
71164W        W40979   7.841  37.887   3.315
71165W        W40980  12.253  42.944   3.630
71166W        W40981  31.499  35.564   2.262
71167W        W40982  42.340  40.969  12.435
71168W        W40983   2.891  24.041  13.018
71169W        W40984  28.152  19.597  10.915
71170W        W40985  38.045  12.249  10.999
71171W        W40986  26.168  25.087   2.881
71172W        W40987  19.750  26.563  11.426
71173W        W40988  40.016  28.463  11.612
71174W        W40989  26.188  37.400   1.444
71175W        W40990  27.191   3.258  12.945
71176W        W40991  40.802  34.888   3.823
71177W        W40992   4.907  24.126  10.997
71178W        W40993  12.328  20.529   1.854
71179W        W40994  32.588  29.044  11.498
71180W        W40995   3.909   4.242  12.446
71181W        W40996   6.340  11.148  13.501
71182W        W40997  30.013  24.618  12.487
71183W        W40998  33.610  23.549  10.478
71184W        W40999   6.740  36.990   3.238
71185W        W41000  19.744  20.201   4.738
71186W        W41001   3.951  13.710  14.971
71187W        W41002  40.847  26.688   3.190
71188W        W41003  15.628  38.009  14.433
71189W        W41004   7.781   6.693  11.057
71190W        W41005  40.356  39.946  12.873
71191W        W41006  15.094  38.840   2.301
71192W        W41007  37.421   8.810  13.004
71193W        W41008  42.873   7.224  11.935
71194W        W41009   1.926   0.866  13.397
71195W        W41010  20.046  11.625  11.554
71196W        W41011  22.169  44.865   1.450
71197W        W41012  34.508  14.157  10.642
71198W        W41013  32.076  25.125  10.480
71199W        W41014  26.703   2.312   3.293
71200W        W41015  37.988  23.011  13.406
71201W        W41016  37.349  21.527   1.254
71202W        W41017  18.157  28.140   4.290
71203W        W41018  11.631  29.059  10.462
71204W        W41019  37.447   8.832  10.115
71205W        W41020  34.011  20.745   2.667
71206W        W41021  18.789   0.781   0.274
71207W        W41022  37.847   6.408  14.012
71208W        W41023  31.925  25.216   1.416
71209W        W41024  19.196  27.998  11.091
71210W        W41025  33.989   0.792   0.839
71211W        W41026   8.169   8.295  14.839
71212W        W41027  33.613  30.634   4.784
71213W        W41028  11.160  31.640  13.825
71214W        W41029   9.830  18.726   2.237
71215W        W41030  41.514   0.418  14.846
71216W        W41031  19.691  25.206  11.921
71217W        W41032  40.041  31.956   1.339
71218W        W41033  33.999  17.230  13.873
71219W        W41034   7.370  44.303   1.217
71220W        W41035  35.953  32.502  13.501
71221W        W41036  11.824  18.051   4.792
71222W        W41037  12.778  15.633  13.897
71223W        W41038  10.735  29.575  10.596
71224W        W41039   9.245  28.584  11.595
71225W        W41040  38.423  39.965  13.316
71226W        W41041  21.721  29.011   2.259
71227W        W41042   4.207  28.460  10.416
71228W        W41043  25.582  19.599   4.144
71229W        W41044  30.130  43.848   1.435
71230W        W41045  21.528  13.241  13.030
71231W        W41046  25.628  22.150   4.718
71232W        W41047   4.808  33.589   4.218
71233W        W41048  11.266  37.045   3.688
71234W        W41049  33.063   7.203  12.459
71235W        W41050  12.294  26.086  13.818
71236W        W41051  33.995  17.801  14.873
71237W        W41052  20.257  31.644   0.414
71238W        W41053   9.726  33.124   4.739
71239W        W41054  18.659  12.135  10.600
71240W        W41055   1.237  11.632   3.799
71241W        W41056  40.807  42.022  14.867
71242W        W41057   0.356   0.277  12.430
71243W        W41058   3.426  39.908  10.421
71244W        W41059  14.607   8.664   0.731
71245W        W41060  34.609  28.003   4.318
71246W        W41061  42.791  31.069  14.828
71247W        W41062  44.417  33.013  10.562
71248W        W41063  21.533  41.400   3.656
71249W        W41064  38.855  17.105  11.091
71250W        W41065  42.974  22.097  13.909
71251W        W41066  14.713  10.644  14.792
71252W        W41067  10.219   3.863   3.221
71253W        W41068   0.955  28.572   4.215
71254W        W41069   5.873  30.115   2.895
71255W        W41070   4.265  18.230   4.276
71256W        W41071  21.564  38.561  12.846
71257W        W41072   7.264  29.491  13.359
71258W        W41073  29.638  37.013   3.758
71259W        W41074  27.026  36.911   0.955
71260W        W41075  14.338  21.565  12.849
71261W        W41076  10.741  17.617  13.044
71262W        W41077   9.221  19.238   2.737
71263W        W41078  21.221  18.598  12.561
71264W        W41079  19.604  34.083   3.693
71265W        W41080  21.731  14.821   0.249
71266W        W41081   6.217  32.991  12.522
71267W        W41082  37.490  42.304   1.764
71268W        W41083   0.915  28.067  13.315
71269W        W41084  40.466  42.431  10.538
71270W        W41085  14.300   0.978  10.557
71271W        W41086  39.987   2.471   5.267
71272W        W41087  20.706  36.909  10.552
71273W        W41088  18.558   9.320   3.162
71274W        W41089  38.072  31.447  13.533
71275W        W41090   5.245   8.378  11.078
71276W        W41091   4.348  24.201   0.334
71277W        W41092  10.782  25.529   2.215
71278W        W41093  29.004  17.195   2.897
71279W        W41094   4.775  39.967  11.917
71280W        W41095   0.752  27.648  11.066
71281W        W41096  12.791  25.004  14.776
71282W        W41097  31.534  33.092   4.810
71283W        W41098  19.205   1.333   3.342
71284W        W41099  41.499  26.109   0.735
71285W        W41100  40.456   1.472  14.964
71286W        W41101  21.240  41.969   3.178
71287W        W41102  43.961  12.654   1.400
71288W        W41103  37.045  21.520  10.487
71289W        W41104  43.841  44.261  12.033
71290W        W41105   9.344  32.001   4.160
71291W        W41106  30.520   8.256   2.405
71292W        W41107  14.770  40.826   2.834
71293W        W41108  21.118   0.806   2.887
71294W        W41109  10.295  27.604  10.450
71295W        W41110  32.550  24.479   3.638
71296W        W41111   7.291   3.429   4.810
71297W        W41112  17.125  26.494  13.316
71298W        W41113  43.506  20.198   4.322
71299W        W41114  26.610  17.183  11.461
71300W        W41115  15.083  31.465   3.814
71301W        W41116  39.988  12.623   0.328
71302W        W41117  13.323  38.479   3.254
71303W        W41118   4.860  27.515   4.827
71304W        W41119  33.950  33.918   2.778
71305W        W41120  39.334  22.010   1.797
71306W        W41121  19.583  21.248   4.154
71307W        W41122  22.657  17.101   2.797
71308W        W41123  19.181  17.607  13.814
71309W        W41124  12.118  13.798  14.809
71310W        W41125  21.706  36.864  11.404
71311W        W41126  22.502  32.398   4.711
71312W        W41127  42.982   9.376   3.169
71313W        W41128  20.674  18.615  13.855
71314W        W41129  10.307  23.734   4.609
71315W        W41130  40.943  29.660  11.043
71316W        W41131  26.185  12.336   5.239
71317W        W41132   2.764  25.978   3.704
71318W        W41133  39.843  42.292   4.233
71319W        W41134  25.610  17.081   4.311
71320W        W41135  10.211  21.597   0.251
71321W        W41136  19.212   8.207  14.899
71322W        W41137  29.924  18.141   1.828
71323W        W41138  14.310  28.597   0.831
71324W        W41139  34.547   2.744  12.533
71325W        W41140  16.695  32.441   2.349
71326W        W41141  44.334  26.105  10.438
71327W        W41142  30.497  24.543  11.904
71328W        W41143  37.459  23.226  14.779
71329W        W41144  39.514  15.781  12.410
71330W        W41145   2.808  39.551   3.636
71331W        W41146  28.036  27.162   2.672
71332W        W41147  27.128  32.577   2.873
71333W        W41148  37.901  27.999  14.004
71334W        W41149  17.647   8.706  14.870
71335W        W41150   8.265   8.816   1.358
71336W        W41151   5.905  24.012  14.796
71337W        W41152  24.721  12.611   3.298
71338W        W41153  16.136  37.370   2.770
71339W        W41154  19.157  40.900  12.034
71340W        W41155  40.519  18.279   1.293
71341W        W41156  36.577  16.646   1.344
71342W        W41157   5.835  20.069   2.765
71343W        W41158  43.021  21.671  10.512
71344W        W41159  42.889  30.612  10.893
71345W        W41160  18.597   7.304   1.808
71346W        W41161  25.674  34.456   4.704
71347W        W41162  33.953  18.262   4.793
71348W        W41163  33.943  21.083   1.369
71349W        W41164   4.816  42.411  10.503
71350W        W41165  17.641  27.191   0.847
71351W        W41166  37.928  32.990   3.729
71352W        W41167   8.397  19.655   1.252
71353W        W41168  34.562  23.613  14.290
71354W        W41169  32.415  18.708   3.245
71355W        W41170  13.327  18.194   9.441
71356W        W41171  30.003  42.860   1.265
71357W        W41172  19.599  22.147   3.191
71358W        W41173  35.046  19.201   1.269
71359W        W41174  35.433  12.321  13.388
71360W        W41175  19.655  39.472   4.124
71361W        W41176   6.875  31.422  14.300
71362W        W41177   0.946  38.450  12.422
71363W        W41178  26.054  36.379  14.784
71364W        W41179  11.148  30.010   2.812
71365W        W41180  23.032  36.547   2.675
71366W        W41181  33.874  44.875   0.756
71367W        W41182  27.081  20.584  11.467
71368W        W41183  23.146  26.139   0.399
71369W        W41184  19.283   6.293   3.341
71370W        W41185   4.329   7.877  14.469
71371W        W41186  33.025  37.394   3.203
71372W        W41187   7.199  18.676   4.734
71373W        W41188  32.548   6.396  13.354
71374W        W41189  33.554  32.459   1.840
71375W        W41190  17.778  26.571   4.763
71376W        W41191  21.728  43.014   0.942
71377W        W41192   0.256  10.865   0.358
71378W        W41193  35.500  14.174   3.752
71379W        W41194  22.190  24.522   0.955
71380W        W41195  29.567  15.609   5.136
71381W        W41196  13.748  11.299   2.805
71382W        W41197  37.493  41.428  10.522
71383W        W41198  37.403  30.007  13.986
71384W        W41199   0.972  16.782  11.878
71385W        W41200  36.025  16.675   1.726
71386W        W41201   4.867   4.404  14.898
71387W        W41202   0.338  41.803  11.860
71388W        W41203  10.688  36.585  13.060
71389W        W41204  21.071   2.390   0.478
71390W        W41205  34.459   6.393  14.899
71391W        W41206  26.164  27.058  12.943
71392W        W41207  25.125  37.052   1.365
71393W        W41208   0.299  22.208   0.882
71394W        W41209  32.991  31.574  14.367
71395W        W41210  34.532  30.973  13.939
71396W        W41211  11.164  18.053   2.278
71397W        W41212   9.702  38.885  13.536
71398W        W41213  20.700  23.502  12.381
71399W        W41214  37.580  39.389  13.449
71400W        W41215  13.107   8.769  14.921
71401W        W41216  37.944  15.753   2.755
71402W        W41217   8.738  42.972  10.520
71403W        W41218   4.336  27.178   2.254
71404W        W41219   0.340  30.089   0.968
71405W        W41220  16.578  12.644  13.480
71406W        W41221  35.011  22.504  13.961
71407W        W41222  42.822   5.715  12.963
71408W        W41223  25.643  43.928  12.559
71409W        W41224  11.164  18.140   4.667
71410W        W41225   4.294  44.911  11.536
71411W        W41226  39.873   5.892   3.358
71412W        W41227  18.147   2.453  10.927
71413W        W41228  31.143   9.717   2.260
71414W        W41229  28.473  39.980  11.122
71415W        W41230   1.751  19.749   0.771
71416W        W41231  29.170   2.945  12.969
71417W        W41232   7.289  24.190  11.379
71418W        W41233  43.445   6.682  11.031
71419W        W41234   5.873  18.286  14.027
71420W        W41235  39.841  31.497   2.351
71421W        W41236  32.528  35.874   5.229
71422W        W41237  21.181   2.269   4.773
71423W        W41238  23.167  40.404  14.492
71424W        W41239  28.956  30.931   2.846
71425W        W41240  40.462  25.076  12.047
71426W        W41241   3.363  33.004   3.701
71427W        W41242  42.011  12.279   0.845
71428W        W41243  14.805  22.019   2.236
71429W        W41244  13.841   3.295  14.481
71430W        W41245  18.163   5.875   2.712
71431W        W41246  44.891  33.126   1.328
71432W        W41247   7.863  38.990   5.122
71433W        W41248  12.177  19.569   4.116
71434W        W41249  44.297   3.259   4.660
71435W        W41250   5.808  22.564   3.240
71436W        W41251   0.468   4.384  14.447
71437W        W41252  37.862  12.756   3.237
71438W        W41253  43.365  17.681   1.245
71439W        W41254   1.963  26.614   4.804
71440W        W41255  30.578  15.164  10.549
71441W        W41256   8.390  26.632  14.492
71442W        W41257  17.659  33.085  13.929
71443W        W41258  35.915  32.119   3.817
71444W        W41259  15.693   0.482   3.340
71445W        W41260  12.748  25.974   4.258
71446W        W41261  13.797  23.687   4.265
71447W        W41262  44.857  22.598  13.900
71448W        W41263   0.954  24.191   0.948
71449W        W41264  30.564   0.370   4.718
71450W        W41265  20.670  33.130  10.558
71451W        W41266   7.187  44.459   0.435
71452W        W41267   6.721  33.503  12.095
71453W        W41268  43.003   8.234  13.875
71454W        W41269  37.837   5.843   2.299
71455W        W41270   2.440  18.174   0.475
71456W        W41271  27.987  19.205  13.488
71457W        W41272   9.664  18.127   3.644
71458W        W41273  12.219   7.229  12.538
71459W        W41274  17.257  27.516  14.465
71460W        W41275  44.848  41.309  11.061
71461W        W41276  19.546  43.867  12.471
71462W        W41277  32.069  15.681  12.541
71463W        W41278  10.214  38.854   0.374
71464W        W41279   9.174   2.792  14.817
71465W        W41280  13.231  27.678   1.324
71466W        W41281  32.111  19.767   1.872
71467W        W41282  19.237  19.106  12.029
71468W        W41283  22.096  22.190  10.637
71469W        W41284  41.502  10.751   4.211
71470W        W41285  22.641  10.238   5.146
71471W        W41286  24.549  17.097  10.109
71472W        W41287  31.119  40.035   0.954
71473W        W41288  23.239  44.292  11.437
71474W        W41289  34.596  10.269   2.700
71475W        W41290   6.328  24.146   4.133
71476W        W41291  16.137   7.371  12.849
71477W        W41292  40.513  19.214  13.813
71478W        W41293  18.586  30.636   0.950
71479W        W41294  41.027  30.645  12.459
71480W        W41295  18.544  11.676  14.761
71481W        W41296   0.930  21.226   1.933
71482W        W41297   0.465  32.432  14.294
71483W        W41298  20.681  15.125   1.837
71484W        W41299  23.165  21.694   0.860
71485W        W41300   8.370   5.819  14.451
71486W        W41301  33.381  30.105  11.551
71487W        W41302  32.047   6.843  11.585
71488W        W41303  23.235   4.770   2.830
71489W        W41304  15.789   0.877  11.406
71490W        W41305  10.371   4.305  14.426
71491W        W41306  40.924  32.119  14.807
71492W        W41307  16.166   5.688  14.357
71493W        W41308  12.847  44.446   1.329
71494W        W41309   1.356   0.438  13.460
71495W        W41310  26.534  18.275  13.917
71496W        W41311  33.114   3.724  10.538
71497W        W41312  43.459   5.366  13.517
71498W        W41313  32.100  26.185   9.956
71499W        W41314  43.287  34.040  13.543
71500W        W41315  28.528  25.607   1.733
71501W        W41316  35.528  29.100   2.183
71502W        W41317  38.004  39.952  10.573
71503W        W41318  10.164   1.896  12.911
71504W        W41319  39.922  40.874   0.477
71505W        W41320  29.005   6.355   2.230
71506W        W41321   5.832  39.872  10.903
71507W        W41322  36.891  11.843   0.805
71508W        W41323  18.293  33.624  12.958
71509W        W41324  34.053  20.225  14.903
71510W        W41325  31.922  20.231  10.490
71511W        W41326   0.947   8.840  11.927
71512W        W41327  19.189   7.244   0.370
71513W        W41328  21.098  11.725  11.488
71514W        W41329  37.867  25.179   3.666
71515W        W41330  41.925  32.594  13.355
71516W        W41331  41.832  34.083   2.346
71517W        W41332  33.586   8.670   0.450
71518W        W41333  19.633   0.767  11.061
71519W        W41334  31.078   5.283   0.282
71520W        W41335  33.520   9.365  10.963
71521W        W41336  28.663  39.010   4.183
71522W        W41337  26.510  14.601  12.936
71523W        W41338  25.201  42.024   0.816
71524W        W41339   9.354  14.649  12.430
71525W        W41340   1.830  30.513   2.178
71526W        W41341   6.409  36.924  11.523
71527W        W41342   2.435   1.441   0.481
71528W        W41343  30.126  24.163  11.462
71529W        W41344  44.320   8.720  14.340
71530W        W41345  17.124  11.309  14.341
71531W        W41346  10.815   7.236   1.398
71532W        W41347   5.865  28.171  13.425
71533W        W41348  17.306  42.380  13.880
71534W        W41349   3.322  35.881  12.448
71535W        W41350  17.748  22.529   1.284
71536W        W41351  29.094  17.725  14.947
71537W        W41352  15.276  32.421  11.981
71538W        W41353   6.839   9.167   3.767
71539W        W41354   0.744  15.661  13.856
71540W        W41355  21.224  35.359  12.880
71541W        W41356  13.166  32.561  12.451
71542W        W41357   4.313  22.043   1.415
71543W        W41358   0.480  14.131  10.897
71544W        W41359  18.743  13.139  13.007
71545W        W41360   9.800  15.708   0.266
71546W        W41361  33.055  30.597   2.348
71547W        W41362  20.215   1.837   5.151
71548W        W41363   3.399  29.600  12.483
71549W        W41364  39.482   7.790   9.959
71550W        W41365  20.619   0.359   0.927
71551W        W41366   0.806  10.170  14.982
71552W        W41367  17.179  38.962   1.726
71553W        W41368  37.440   6.751  13.516
71554W        W41369   6.728  23.521  12.341
71555W        W41370  23.995   4.827   1.828
71556W        W41371  43.968  30.106  11.551
71557W        W41372  29.495  17.098   0.338
71558W        W41373  29.017   0.337   1.418
71559W        W41374  14.284  27.941  13.013
71560W        W41375  35.099  12.799  13.379
71561W        W41376  19.717  23.683  12.969
71562W        W41377   7.758   2.871  12.499
71563W        W41378  40.988  18.050  10.996
71564W        W41379  38.328   4.306  14.007
71565W        W41380   3.902  26.152  12.541
71566W        W41381  44.324   3.713  11.602
71567W        W41382   1.925  19.711  12.881
71568W        W41383  24.510  32.538   0.317
71569W        W41384   6.265  22.714   4.711
71570W        W41385   7.404  29.029   2.417
71571W        W41386  32.071   9.760  11.894
71572W        W41387  44.820  28.119  10.103
71573W        W41388  26.649   2.802  10.442
71574W        W41389  43.415   0.970   3.859
71575W        W41390  20.110  23.188  14.445
71576W        W41391  20.738  27.960  12.502
71577W        W41392  22.560  14.306  11.448
71578W        W41393  28.948  40.890   1.223
71579W        W41394  29.475  36.990   0.867
71580W        W41395   5.829  20.529  14.891
71581W        W41396  12.211  10.292  10.532
71582W        W41397   4.239  39.859   1.252
71583W        W41398  25.526   2.229  10.497
71584W        W41399   5.308   6.826  14.449
71585W        W41400  11.245   9.879   4.247
71586W        W41401  21.535  30.636   0.760
71587W        W41402  24.015  34.602  11.406
71588W        W41403  40.341  39.496  11.443
71589W        W41404   9.213  16.102   4.618
71590W        W41405  25.073   3.766   3.228
71591W        W41406  36.534  10.766  11.568
71592W        W41407   6.234  12.310   0.788
71593W        W41408   0.856  18.125  13.540
71594W        W41409  19.626  19.750   4.257
71595W        W41410   4.323   5.882   4.120
71596W        W41411  26.136   7.698   4.238
71597W        W41412  13.755  11.208   2.377
71598W        W41413  16.672   0.489  13.542
71599W        W41414  34.470   5.701   1.896
71600W        W41415  10.249  12.638  14.457
71601W        W41416  32.104  39.336  10.984
71602W        W41417  18.626  22.135  11.023
71603W        W41418  37.489  35.448   0.778
71604W        W41419  24.485  11.307   4.643
71605W        W41420   9.215   6.239  14.879
71606W        W41421  27.121  21.106  13.446
71607W        W41422  41.454   8.173  11.857
71608W        W41423  30.127   3.811  12.440
71609W        W41424  29.977   6.333  10.637
71610W        W41425  24.657   0.859   0.851
71611W        W41426  40.378  26.482  13.975
71612W        W41427  17.573  15.650  13.817
71613W        W41428  41.375  19.116  10.925
71614W        W41429  44.382  22.997   0.774
71615W        W41430  20.162  14.695   0.877
71616W        W41431   7.779   0.267  12.486
71617W        W41432  40.931  19.596  13.945
71618W        W41433  12.833  23.586  11.404
71619W        W41434  26.990  14.225   2.685
71620W        W41435  10.662  15.247   2.374
71621W        W41436   8.864   3.310  10.495
71622W        W41437   3.724  37.050   3.855
71623W        W41438  40.819  30.483   4.327
71624W        W41439   3.843  33.564   1.837
71625W        W41440  26.673   0.790  12.033
71626W        W41441  11.368  12.322   4.655
71627W        W41442  20.758  14.136   2.868
71628W        W41443  38.878  16.095   3.780
71629W        W41444  24.658  40.517   2.831
71630W        W41445  38.916  25.140   1.397
71631W        W41446  33.046  16.716   2.332
71632W        W41447  33.918  20.205   1.215
71633W        W41448  19.562  42.825  14.436
71634W        W41449   4.335  19.538   1.292
71635W        W41450  11.134  31.978   2.410
71636W        W41451  23.574   9.341  13.873
71637W        W41452  11.266  33.083  12.851
71638W        W41453  28.654  40.900   4.128
71639W        W41454  19.284  12.124  14.816
71640W        W41455  18.735   6.268  11.028
71641W        W41456  31.516  18.142   2.232
71642W        W41457  15.745  10.177   0.423
71643W        W41458  24.046  33.959  14.865
71644W        W41459  11.638  42.912   3.707
71645W        W41460  12.326  35.948   4.773
71646W        W41461  29.661  41.331   4.132
71647W        W41462  41.428  33.982  13.027
71648W        W41463   7.342  43.366  14.991
71649W        W41464  25.962  42.855   4.818
71650W        W41465  43.494  24.206   1.734
71651W        W41466  25.499  13.183  11.979
71652W        W41467  30.635  10.783   3.699
71653W        W41468  42.475   9.700  14.391
71654W        W41469  33.921  22.145  12.090
71655W        W41470  26.534  31.611  11.611
71656W        W41471   1.439  36.549  11.080
71657W        W41472  14.124  42.786   0.270
71658W        W41473  13.267   7.366  14.350
71659W        W41474   2.860  28.517  11.117
71660W        W41475  42.988  30.010  13.960
71661W        W41476  41.523  23.672  12.384
71662W        W41477  29.508  36.941  11.944
71663W        W41478   5.326  21.546  12.549
71664W        W41479  24.015  30.084  13.349
71665W        W41480  20.629   4.333  12.979
71666W        W41481   3.296  32.425   3.310
71667W        W41482  22.104   8.163  14.381
71668W        W41483  32.398  14.829   0.377
71669W        W41484  26.042   3.911  14.476
71670W        W41485  19.750  39.988   1.874
71671W        W41486  38.462  41.379  10.910
71672W        W41487   1.934   7.793  14.875
71673W        W41488  30.452  10.640  11.914
71674W        W41489  20.608  26.546  11.902
71675W        W41490   6.240  20.709   4.683
71676W        W41491   2.449   9.813   0.735
71677W        W41492   2.964  20.063   4.599
71678W        W41493  16.271   9.707  14.315
71679W        W41494  18.597  42.380   2.257
71680W        W41495   0.266  15.325  14.288
71681W        W41496  15.310   1.786  10.982
71682W        W41497  38.385  20.668   0.243
71683W        W41498  22.576  25.965   3.146
71684W        W41499  31.144  37.568  12.826
71685W        W41500  41.980  30.976   0.934
71686W        W41501   6.749   9.188   2.771
71687W        W41502  32.972  13.722   0.429
71688W        W41503  27.658  23.154  14.978
71689W        W41504  29.499  34.997   5.151
71690W        W41505  38.883  11.180  10.457
71691W        W41506  36.471  44.359   2.690
71692W        W41507  25.175  25.623   4.243
71693W        W41508   6.268  26.160   0.868
71694W        W41509   8.837  41.322  14.477
71695W        W41510   6.313   9.387   1.330
71696W        W41511   7.760  39.361   1.741
71697W        W41512  30.641  29.012  11.972
71698W        W41513  37.837  19.595   4.774
71699W        W41514  44.372  24.570   1.385
71700W        W41515  40.484  41.302  10.568
71701W        W41516  13.151   0.743  10.413
71702W        W41517  29.446  20.663   4.808
71703W        W41518  24.200   6.399  13.362
71704W        W41519  11.365  41.524   4.351
71705W        W41520  18.633  42.354   3.668
71706W        W41521  33.979  38.464   3.311
71707W        W41522  26.633  16.102   0.919
71708W        W41523  25.632  39.961   5.600
71709W        W41524  14.257  18.784   5.162
71710W        W41525   7.740  41.513   3.362
71711W        W41526   7.187   3.772   1.894
71712W        W41527  10.205  41.504   2.668
71713W        W41528  28.046  14.804   2.249
71714W        W41529  40.489  38.451   4.743
71715W        W41530  29.938  43.845   3.741
71716W        W41531  18.633   6.284   1.269
71717W        W41532  40.962  42.522  13.388
71718W        W41533  23.573  26.195   0.844
71719W        W41534  33.547  37.084   1.778
71720W        W41535  15.150  36.428   4.240
71721W        W41536  27.153  17.250  13.531
71722W        W41537   0.775  16.640   1.394
71723W        W41538  26.463   6.891   1.797
71724W        W41539  14.193  27.078  11.041
71725W        W41540   4.247  35.018  11.435
71726W        W41541  29.457  26.037  14.298
71727W        W41542  21.245  35.908  11.860
71728W        W41543  21.721  34.931  14.483
71729W        W41544   8.665  35.987  12.986
71730W        W41545  33.487  12.311  10.893
71731W        W41546  38.827  14.734  12.546
71732W        W41547  21.526  11.868  13.882
71733W        W41548   6.355   9.196  12.547
71734W        W41549   4.937  28.067  13.904
71735W        W41550  44.271  17.250  10.896
71736W        W41551  19.149  10.658  10.586
71737W        W41552  29.117  15.769   1.335
71738W        W41553  39.900   5.818   5.197
71739W        W41554  38.976  44.411  12.970
71740W        W41555   9.210  11.181  14.404
71741W        W41556  33.435   0.968  13.320
71742W        W41557  18.719  41.321   2.860
71743W        W41558  30.976  30.469  13.025
71744W        W41559  23.733   2.902  10.474
71745W        W41560   0.821  38.397  14.507
71746W        W41561  43.825  24.095  13.986
71747W        W41562  20.119  22.155  11.440
71748W        W41563  37.883  43.962   1.258
71749W        W41564  40.846  18.722  12.084
71750W        W41565  15.670  20.729  13.404
71751W        W41566   3.852  16.762  12.840
71752W        W41567  18.545  24.069  10.418
71753W        W41568  18.184   2.840  12.449
71754W        W41569   1.798  10.140  14.879
71755W        W41570   4.331   8.246   0.344
71756W        W41571   5.930   1.804  14.464
71757W        W41572  11.744  44.985   1.407
71758W        W41573  13.807   9.197   3.192
71759W        W41574  44.007   1.295   0.901
71760W        W41575  11.718   9.394   2.395
71761W        W41576  19.566  30.475  11.952
71762W        W41577  40.925   7.352  12.856
71763W        W41578   3.229  38.380   0.837
71764W        W41579   9.284  20.192  12.866
71765W        W41580  24.120  39.504  11.570
71766W        W41581  25.690   0.743   2.397
71767W        W41582  32.455  10.656   2.271
71768W        W41583  42.322  10.788  13.939
71769W        W41584  27.094  43.466   2.901
71770W        W41585  37.379   8.211  12.825
71771W        W41586  34.421  11.354   1.283
71772W        W41587  34.581  35.874  14.762
71773W        W41588   7.345  21.037  14.972
71774W        W41589  30.942  17.759   0.879
71775W        W41590   2.306  11.833   1.695
71776W        W41591  18.642  10.277   0.873
71777W        W41592  16.286  21.608   1.224
71778W        W41593   9.768  35.367  13.465
71779W        W41594   7.370  18.725   3.310
71780W        W41595  14.813  44.997   0.764
71781W        W41596  36.425   6.358   3.703
71782W        W41597   2.878  29.467   0.470
71783W        W41598  30.073  13.310   4.627
71784W        W41599  14.737   8.236  12.456
71785W        W41600  21.658  40.854  10.564
71786W        W41601  10.168  33.586   3.770
71787W        W41602  23.022   7.803   1.903
71788W        W41603  23.518  28.592  14.895
71789W        W41604  35.999  12.155  13.536
71790W        W41605  32.564  43.908  12.396
71791W        W41606  28.162  39.516  11.100
71792W        W41607   6.193  25.635   4.187
71793W        W41608  35.944  41.004   2.182
71794W        W41609  41.494   4.792   3.766
71795W        W41610  24.057  20.212  10.059
71796W        W41611  25.697  44.446   1.321
71797W        W41612  23.593  18.182   0.381
71798W        W41613  32.560  12.844  10.583
71799W        W41614  15.817   5.775   3.847
71800W        W41615  28.041  36.963  14.929
71801W        W41616  18.206  38.993  13.015
71802W        W41617  30.040  19.181  14.932
71803W        W41618  14.749  12.641  10.563
71804W        W41619   2.428  38.570   0.747
71805W        W41620  14.649  38.866   1.695
71806W        W41621  10.856  17.153   3.164
71807W        W41622  23.060  18.264  13.896
71808W        W41623  39.394   4.932   1.748
71809W        W41624  21.673   8.810   1.814
71810W        W41625  12.193  16.679  12.907
71811W        W41626  44.477  26.077   4.787
71812W        W41627  43.488  14.289   0.963
71813W        W41628  16.712  20.243  14.309
71814W        W41629  29.656  15.673   1.210
71815W        W41630  13.807  41.869   0.396
71816W        W41631  25.623  21.660  12.851
71817W        W41632   9.290  32.137  11.378
71818W        W41633  29.044  41.300   1.773
71819W        W41634  20.697  25.570  12.535
71820W        W41635   9.845  39.413  12.898
71821W        W41636  31.561  26.696  11.459
71822W        W41637  38.981  34.889   4.750
71823W        W41638  33.948  44.431  10.442
71824W        W41639   0.939  32.966   2.415
71825W        W41640  14.105  16.662   2.404
71826W        W41641  44.003  19.215   0.290
71827W        W41642  37.412  34.116  14.393
71828W        W41643  24.981  40.899   2.269
71829W        W41644  23.187  17.723  12.443
71830W        W41645  42.918  17.744   1.921
71831W        W41646  36.542   0.898  11.894
71832W        W41647  42.868  26.143  11.104
71833W        W41648  16.293  14.633  14.515
71834W        W41649  15.747  19.565   5.262
71835W        W41650  30.020   7.830   3.732
71836W        W41651  34.603  44.819  11.558
71837W        W41652  40.843   3.333   1.729
71838W        W41653  41.039  22.213  13.038
71839W        W41654  34.448  33.091   2.182
71840W        W41655  17.776   8.769   1.307
71841W        W41656  18.669  17.778   4.251
71842W        W41657  15.746   0.943  12.901
71843W        W41658  15.775  37.537   4.621
71844W        W41659  17.190  23.510  14.982
71845W        W41660  16.254  35.896  14.906
71846W        W41661  25.505   7.668   1.411
71847W        W41662  14.109  39.345  14.378
71848W        W41663  32.629  34.910  11.392
71849W        W41664  13.806  24.217   4.239
71850W        W41665  13.618   5.335   1.825
71851W        W41666  36.046  16.155   4.698
71852W        W41667  12.723  22.711  12.527
71853W        W41668   3.375  30.920  11.454
71854W        W41669  33.585  39.852  11.395
71855W        W41670  13.108  23.502  14.923
71856W        W41671  17.220  12.214  11.937
71857W        W41672   3.286   6.737  12.540
71858W        W41673   6.886  12.119   3.684
71859W        W41674  23.613  28.514   4.643
71860W        W41675   8.733   4.313   4.237
71861W        W41676  24.978  26.532   2.695
71862W        W41677  36.550  38.827  11.413
71863W        W41678  14.247  41.373  12.964
71864W        W41679  36.962  34.543   4.664
71865W        W41680  20.033  11.761  14.845
71866W        W41681  35.538  15.307   4.618
71867W        W41682  12.817  12.717   2.414
71868W        W41683  34.447   9.802   2.818
71869W        W41684   3.924  28.173  12.526
71870W        W41685  14.639  41.359   4.138
71871W        W41686   9.155  22.503  13.332
71872W        W41687  26.164   6.347  13.919
71873W        W41688   0.763  32.484  14.998
71874W        W41689  42.363  40.874  10.940
71875W        W41690  37.878  28.138   3.771
71876W        W41691   9.290  14.802  14.891
71877W        W41692  31.633   1.893   0.914
71878W        W41693   6.374  40.814   4.712
71879W        W41694  39.029  26.996   0.288
71880W        W41695  41.018  21.559   4.292
71881W        W41696  17.618  34.050  12.970
71882W        W41697  43.328   3.750  13.843
71883W        W41698  42.403   1.824  13.470
71884W        W41699  14.323  37.069  13.530
71885W        W41700  14.672  43.272   3.216
71886W        W41701  23.013  16.650   2.738
71887W        W41702  18.574  27.678   0.898
71888W        W41703  12.810  31.542  14.489
71889W        W41704  28.640  28.515  11.422
71890W        W41705  40.921  34.564  14.831
71891W        W41706  26.510  19.661   3.242
71892W        W41707  21.053  44.337  11.583
71893W        W41708  33.000  31.999   3.212
71894W        W41709   9.253   4.741  13.473
71895W        W41710  16.654  43.430  12.530
71896W        W41711  25.034  38.492  13.458
71897W        W41712  23.542  24.125  14.468
71898W        W41713  26.199  26.023   4.173
71899W        W41714  36.993  37.025  10.534
71900W        W41715  11.637  19.057  13.456
71901W        W41716  33.005  28.155  13.428
71902W        W41717  29.942  10.321   3.174
71903W        W41718  36.938   1.363  12.498
71904W        W41719  24.705  39.471  10.012
71905W        W41720  14.802  22.166  14.782
71906W        W41721  18.654  11.808  14.354
71907W        W41722  33.384  32.459   0.871
71908W        W41723  33.478  40.440  11.980
71909W        W41724   8.328  43.435  13.310
71910W        W41725  13.160  36.458  14.768
71911W        W41726  43.377  38.472  12.481
71912W        W41727  36.522  20.594   3.153
71913W        W41728  17.231  22.613  14.320
71914W        W41729  22.114  27.575  10.490
71915W        W41730  16.769  26.617   4.221
71916W        W41731  28.459  32.958   2.342
71917W        W41732  42.396  26.634  14.796
71918W        W41733  37.544  11.345   4.164
71919W        W41734  36.844   5.827  12.537
71920W        W41735  38.912  28.484   4.641
71921W        W41736  19.720   9.859   3.644
71922W        W41737  36.385  13.134  14.500
71923W        W41738  42.957  28.473   2.378
71924W        W41739  33.045  44.907   3.355
71925W        W41740  33.990  29.586   1.347
71926W        W41741  30.412  25.576  14.940
71927W        W41742  31.537  22.735   0.797
71928W        W41743  20.232   9.335  11.948
71929W        W41744  34.564  35.000   1.290
71930W        W41745  41.408  30.963   2.782
71931W        W41746  17.732  33.978   4.672
71932W        W41747  35.433  12.655  12.913
71933W        W41748  14.627  37.353   2.675
71934W        W41749  42.335   1.784  14.484
71935W        W41750  21.582   8.282  11.552
71936W        W41751  28.675  10.170  12.838
71937W        W41752  29.668  33.974  10.568
71938W        W41753  33.880  44.994  13.006
71939W        W41754   6.413  41.368   5.266
71940W        W41755  23.583  21.738   3.755
71941W        W41756  30.487  42.953  13.803
71942W        W41757  14.123   8.326   1.254
71943W        W41758  35.052  40.881   1.312
71944W        W41759  29.149  27.602  13.992
71945W        W41760  19.599  14.309   0.882
71946W        W41761  42.822   7.770   1.921
71947W        W41762  35.033   7.405   2.320
71948W        W41763  27.015  25.004   1.907
71949W        W41764  21.531   2.286   1.719
71950W        W41765  19.570  32.111  13.307
71951W        W41766  37.382  10.706   2.771
71952W        W41767  14.619   3.934   3.630
71953W        W41768  19.209  11.132   1.777
71954W        W41769  12.635  24.521  12.054
71955W        W41770  24.078  11.630  12.487
71956W        W41771  21.195   2.808   1.711
71957W        W41772  12.201  43.448  11.013
71958W        W41773  26.124  23.102  13.845
71959W        W41774  41.438  10.796  13.002
71960W        W41775  11.319   8.749   0.271
71961W        W41776  43.489  21.237  10.488
71962W        W41777   1.847  21.258  13.443
71963W        W41778   9.165  44.447   4.696
71964W        W41779  34.888  40.371  14.790
71965W        W41780   7.877   2.869  11.875
71966W        W41781  37.379  39.857   9.931
71967W        W41782   0.900  14.739  13.515
71968W        W41783   1.367  28.457  13.422
71969W        W41784  28.480  13.153  11.106
71970W        W41785  37.920  37.991  12.952
71971W        W41786  28.527  36.518  14.939
71972W        W41787  44.271  12.855   4.282
71973W        W41788   1.875  31.624  10.550
71974W        W41789   4.405   8.707  11.462
71975W        W41790  43.898   5.335   2.764
71976W        W41791  13.105   6.301  10.139
71977W        W41792  34.404  22.607   3.667
71978W        W41793  30.944   1.304   3.157
71979W        W41794   1.312  12.326  14.794
71980W        W41795  12.718  40.002  10.504
71981W        W41796   1.958  33.382  13.920
71982W        W41797  39.824  19.660   4.236
71983W        W41798   6.748   6.835  13.019
71984W        W41799  27.963  25.136   3.708
71985W        W41800  37.465  40.517  12.863
71986W        W41801   2.446   9.872  12.397
71987W        W41802  30.124   8.210   2.383
71988W        W41803  37.478  32.921  12.912
71989W        W41804  41.415  39.536   1.236
71990W        W41805  25.578  40.888  14.030
71991W        W41806  23.993   5.414  12.505
71992W        W41807  40.034  20.581   2.757
71993W        W41808  15.165   3.243   2.697
71994W        W41809  30.122  20.067   0.352
71995W        W41810  39.041  22.188  14.782
71996W        W41811  29.648   3.816   2.755
71997W        W41812  35.048  19.706   2.207
71998W        W41813  36.436  37.069  14.457
71999W        W41814  26.650   0.264  13.888
72000W        W41815  12.292  16.639   1.236
72001W        W41816  43.438   6.783   4.354
72002W        W41817  19.064  36.541   0.916
72003W        W41818  21.524  25.618   3.188
72004W        W41819  29.486   6.335  11.611
72005W        W41820  11.732  43.967   1.877
72006W        W41821  27.554  11.192  13.500
72007W        W41822  43.468  26.526   3.635
72008W        W41823  15.238   4.334  13.539
72009W        W41824  28.073  12.723   3.202
72010W        W41825  13.127  17.651   4.278
72011W        W41826  25.155  25.052  14.358
72012W        W41827  18.288   9.352   1.375
72013W        W41828   3.426  40.042   1.264
72014W        W41829  32.039  12.832  14.786
72015W        W41830  14.291  12.125  12.841
72016W        W41831   9.387  30.453  13.949
72017W        W41832  18.150  27.185  13.918
72018W        W41833   2.919   8.389   2.380
72019W        W41834  42.915  16.621  13.467
72020W        W41835  42.868  21.645  13.839
72021W        W41836  24.551  36.533   3.760
72022W        W41837  34.077   3.905  13.882
72023W        W41838  12.615  43.015  10.563
72024W        W41839  40.028  17.755   3.714
72025W        W41840  11.663   7.797  10.612
72026W        W41841  15.140   7.858  12.941
72027W        W41842  23.547   4.419  13.819
72028W        W41843  22.602  17.099  13.526
72029W        W41844  43.351  42.515  10.415
72030W        W41845  16.126   3.922  12.518
72031W        W41846  28.581  15.674   1.269
72032W        W41847  21.093   6.831   5.308
72033W        W41848  32.520  21.043  12.370
72034W        W41849  28.119  17.603   3.784
72035W        W41850  35.966   7.350  12.424
72036W        W41851  35.951  37.903  14.908
72037W        W41852  33.015   3.426  12.964
72038W        W41853  18.262   1.753   3.189
72039W        W41854  24.506  14.170   4.338
72040W        W41855  22.006  42.489  10.516
72041W        W41856  26.505  17.066   1.820
72042W        W41857  37.409  18.050   1.355
72043W        W41858  38.552  41.477   4.169
72044W        W41859  15.751  15.773   2.781
72045W        W41860  39.344  42.398   4.690
72046W        W41861  26.089  24.513  14.378
72047W        W41862  15.696   1.758   1.315
72048W        W41863  21.755   8.782   0.430
72049W        W41864  16.639  31.467   0.370
72050W        W41865  30.042  41.852   0.783
72051W        W41866  42.777   2.889   0.774
72052W        W41867  41.526  15.221   3.860
72053W        W41868  26.700   9.657   0.412
72054W        W41869  34.959  44.371   0.288
72055W        W41870  41.955  28.564   3.333
72056W        W41871  10.276  31.527  14.311
72057W        W41872  31.962  36.062   2.752
72058W        W41873  13.766  27.030  12.997
72059W        W41874  17.700   2.726  11.009
72060W        W41875  39.489  11.712  11.969
72061W        W41876  13.252   5.754   4.285
72062W        W41877  25.967   2.301  11.103
72063W        W41878  25.064   6.334  14.853
72064W        W41879  22.093  20.192  12.863
72065W        W41880  14.674  11.298   3.325
72066W        W41881   0.921  25.141  11.593
72067W        W41882  36.989  22.735   3.850
72068W        W41883  34.529  41.011  14.447
72069W        W41884  37.552  25.502   1.383
72070W        W41885  28.984  15.089   4.663
72071W        W41886   2.763   6.854  14.997
72072W        W41887  31.045  24.647   0.788
72073W        W41888  35.977  33.964   0.314
72074W        W41889  25.026  44.353   3.859
72075W        W41890   3.337  11.633   5.317
72076W        W41891  24.493  24.487  14.512
72077W        W41892  37.902  17.636   1.818
72078W        W41893  37.918  25.659  13.048
72079W        W41894   6.695  20.728   3.254
72080W        W41895  17.096  33.002  14.793
72081W        W41896   5.411  10.281   0.951
72082W        W41897  26.562  41.502  11.018
72083W        W41898  34.433  13.631  12.973
72084W        W41899  14.308  25.111   1.395
72085W        W41900  12.760   2.402   2.305
72086W        W41901  23.212  26.624   0.477
72087W        W41902  31.555  18.136  14.910
72088W        W41903  33.523  32.125  14.400
72089W        W41904  16.079  18.189  13.961
72090W        W41905  43.416  29.551  14.467
72091W        W41906  26.004  17.103  10.499
72092W        W41907  30.974  42.005   0.455
72093W        W41908  41.497  17.073  14.443
72094W        W41909  22.114  37.377   3.154
72095W        W41910   4.806  10.357  10.545
72096W        W41911  34.553  20.195   0.817
72097W        W41912  32.937   3.729   2.802
72098W        W41913  30.996   9.644   4.597
72099W        W41914  40.967   5.750  11.867
72100W        W41915   0.837  42.868  12.523
72101W        W41916  43.865  14.212   0.923
72102W        W41917  23.579  30.643  11.485
72103W        W41918  27.112  38.950  11.485
72104W        W41919   1.825  15.117  12.411
72105W        W41920   6.775  35.450  14.969
72106W        W41921  15.700  35.531   4.816
72107W        W41922  39.876  30.534  14.823
72108W        W41923   9.699   2.332  11.480
72109W        W41924  16.270  39.387  12.861
72110W        W41925  37.983  22.251   1.368
72111W        W41926  41.902  40.887  13.835
72112W        W41927  23.591  22.642   0.760
72113W        W41928  41.364  36.537   2.332
72114W        W41929  31.146  36.881   0.906
72115W        W41930  41.946  25.060  10.999
72116W        W41931   4.914  14.303   2.805
72117W        W41932   8.298  14.770  13.406
72118W        W41933  18.282  10.858  11.044
72119W        W41934  18.117  39.022   3.361
72120W        W41935  14.783   0.896  14.499
72121W        W41936   9.210  41.926   3.287
72122W        W41937  21.185  32.548  12.557
72123W        W41938  10.836  31.968   1.771
72124W        W41939  38.912   7.402  12.989
72125W        W41940  43.947  25.991   0.837
72126W        W41941  41.312  24.180   0.342
72127W        W41942  29.062  15.595  14.366
72128W        W41943  20.614  13.624  14.395
72129W        W41944  42.885  19.586   4.214
72130W        W41945   0.286  25.154   3.291
72131W        W41946  40.534  35.939  14.420
72132W        W41947  13.718   9.182   0.741
72133W        W41948  43.445  42.518  12.518
72134W        W41949  34.928  20.675   2.385
72135W        W41950  13.828  41.885  14.880
72136W        W41951  15.703  36.008  11.043
72137W        W41952  33.573  40.347   1.408
72138W        W41953   6.831  35.904   2.843
72139W        W41954  37.942  36.566  10.919
72140W        W41955  39.871  25.610  12.855
72141W        W41956  18.757  19.748   4.179
72142W        W41957  29.086  39.015  14.407
72143W        W41958   9.856  22.587   4.210
72144W        W41959  32.412   3.225  14.850
72145W        W41960   1.405   6.411   0.298
72146W        W41961   2.407  15.759   1.767
72147W        W41962  24.556  41.000   4.664
72148W        W41963  15.749   9.746   4.721
72149W        W41964   1.458   1.472   4.229
72150W        W41965  13.695  14.701   3.242
72151W        W41966  41.456   3.301  10.437
72152W        W41967  15.096  28.982   0.339
72153W        W41968  12.673  16.133   3.720
72154W        W41969  36.497  18.215   2.728
72155W        W41970   2.449   8.352  12.428
72156W        W41971  33.416  21.070   2.784
72157W        W41972  35.024  41.490   1.772
72158W        W41973  21.060  40.923   0.794
72159W        W41974  27.151  36.390   3.323
72160W        W41975  13.332  12.774   0.878
72161W        W41976   8.235   4.791  14.803
72162W        W41977  16.710   4.904   1.742
72163W        W41978   8.874  25.202  12.021
72164W        W41979   1.399  29.110  10.903
72165W        W41980  20.265   9.883  13.404
72166W        W41981  17.217   0.767  11.413
72167W        W41982  24.082  42.029  12.514
72168W        W41983  37.918  39.485  12.423
72169W        W41984  41.470  18.135  14.342
72170W        W41985  31.045  40.400   2.714
72171W        W41986  36.548  26.103   4.691
72172W        W41987  31.139  13.244  13.386
72173W        W41988   8.171   2.386   1.328
72174W        W41989  43.007  10.297  10.569
72175W        W41990  12.735   6.404  14.427
72176W        W41991  42.940  10.321  14.450
72177W        W41992  33.966   3.249   3.230
72178W        W41993   9.650   8.198  12.910
72179W        W41994   6.217  41.402   0.768
72180W        W41995  22.519  38.539   4.134
72181W        W41996   9.816   5.906  11.885
72182W        W41997  26.979  20.080   1.211
72183W        W41998  37.907  40.370   1.364
72184W        W41999  28.055  40.947   0.884
72185W        W42000   6.872  39.839  13.356
72186W        W42001  34.499  29.120   0.365
72187W        W42002  26.005  39.499   4.341
72188W        W42003   6.410   5.222  10.619
72189W        W42004  18.155   5.326   3.155
72190W        W42005  37.997   3.429  13.913
72191W        W42006   5.359  20.113   0.306
72192W        W42007  37.991  31.959  11.913
72193W        W42008   7.788   5.862   3.325
72194W        W42009  31.589   4.760  11.033
72195W        W42010  22.101  10.841   0.355
72196W        W42011  16.166  15.315   3.283
72197W        W42012  39.393  29.068   2.315
72198W        W42013  26.479  18.584  13.386
72199W        W42014  38.963  31.562   3.254
72200W        W42015  20.564  38.885   2.752
72201W        W42016  15.817  20.166  13.353
72202W        W42017   7.253   7.268  11.025
72203W        W42018  40.993  39.928  12.349
72204W        W42019   5.360  21.104   1.792
72205W        W42020  13.181  38.993  12.007
72206W        W42021   1.926  40.838  13.886
72207W        W42022  14.122  13.644  13.828
72208W        W42023  41.352  18.587   1.871
72209W        W42024  33.889  39.908  14.944
72210W        W42025   1.735   5.284   2.664
72211W        W42026  13.273  23.071   2.393
72212W        W42027  30.126  14.748   2.360
72213W        W42028  21.161  12.665  11.461
72214W        W42029  36.866   0.271   0.353
72215W        W42030  38.963  10.680  14.957
72216W        W42031  23.638   7.204  13.521
72217W        W42032  44.988  27.666   0.362
72218W        W42033   0.440  13.716  11.412
72219W        W42034  27.187   1.367   2.372
72220W        W42035  11.726  31.483  12.075
72221W        W42036   7.214   1.806   0.347
72222W        W42037   3.429   9.792  10.024
72223W        W42038  22.652   1.945  10.079
72224W        W42039  24.592  22.696  11.995
72225W        W42040  31.949  38.006   4.351
72226W        W42041   4.839  28.596  13.942
72227W        W42042  33.481  23.223   1.441
72228W        W42043  43.918  39.450   0.367
72229W        W42044  18.154   9.771   0.472
72230W        W42045   1.244  43.785  11.381
72231W        W42046  20.189  22.574  10.953
72232W        W42047  26.201  17.681  10.445
72233W        W42048  26.507  38.982   0.922
72234W        W42049  18.098  36.426   4.183
72235W        W42050  34.091   2.739  13.892
72236W        W42051  26.627   0.817  14.298
72237W        W42052  31.420  16.256   3.688
72238W        W42053  10.668  17.741   1.405
72239W        W42054  29.572   6.908  12.457
72240W        W42055  15.321  22.692   3.188
72241W        W42056  36.912   7.907  12.979
72242W        W42057   6.837  32.948  13.373
72243W        W42058  42.997  20.195   1.914
72244W        W42059  29.532   2.849  13.043
72245W        W42060  24.687  40.041  10.523
72246W        W42061  37.459  25.139  14.358
72247W        W42062  31.405  42.338   0.920
72248W        W42063  20.192  15.143  11.504
72249W        W42064   0.900  22.206  10.561
72250W        W42065   9.177   8.822   3.635
72251W        W42066  15.296   9.267   3.277
72252W        W42067   5.766  30.996   1.913
72253W        W42068  41.957  14.607   2.388
72254W        W42069  28.085  34.959   1.353
72255W        W42070  21.696  20.744  13.060
72256W        W42071  37.039   9.812  10.408
72257W        W42072  22.692  24.708   3.794
72258W        W42073  23.073  20.094  10.974
72259W        W42074  22.552  42.417  12.381
72260W        W42075  41.888   0.884   5.234
72261W        W42076   4.423  44.789  11.103
72262W        W42077  44.357  31.130   4.678
72263W        W42078  30.613  20.588  11.567
72264W        W42079  24.058  25.660  12.873
72265W        W42080  21.034  31.467   3.814
72266W        W42081  34.387  27.614  11.865
72267W        W42082  22.671  33.397   0.292
72268W        W42083  39.913  31.103   3.745
72269W        W42084   3.356  44.899  12.503
72270W        W42085   6.183  15.288   1.276
72271W        W42086  21.653  41.484   0.318
72272W        W42087  40.835   1.937  13.345
72273W        W42088  18.636   7.238   0.960
72274W        W42089  28.616  16.807   2.242
72275W        W42090  16.627  31.597  14.859
72276W        W42091  30.572   2.404   4.739
72277W        W42092  21.660  29.108   1.332
72278W        W42093   3.390   4.423  11.426
72279W        W42094   7.775  26.118  12.377
72280W        W42095  33.952  33.592  11.049
72281W        W42096  11.729  38.548   1.331
72282W        W42097   8.757  40.870   2.751
72283W        W42098  24.200  15.172  10.601
72284W        W42099  41.464  34.411  12.382
72285W        W42100  34.555  14.616  13.918
72286W        W42101  32.568   1.787   4.619
72287W        W42102  25.162  36.887   0.815
72288W        W42103  42.344  12.170  11.471
72289W        W42104  33.058  27.474  14.763
72290W        W42105  34.899  43.332   2.259
72291W        W42106  38.541  21.639  14.837
72292W        W42107   5.242  18.179  10.893
72293W        W42108  32.619   3.779  12.410
72294W        W42109  32.560  23.151   3.311
72295W        W42110   8.834  28.680   4.780
72296W        W42111  24.195  31.487   1.440
72297W        W42112  29.151  34.433   3.299
72298W        W42113   9.293  12.702   2.198
72299W        W42114   5.348  32.898  14.894
72300W        W42115  12.728   0.900  13.973
72301W        W42116  32.617  19.632   1.451
72302W        W42117   1.963  42.396  11.411
72303W        W42118  20.221  43.924  14.937
72304W        W42119  17.760  14.596   4.758
72305W        W42120  25.012  34.466   3.649
72306W        W42121  25.083  10.349   0.348
72307W        W42122  35.887  43.880  14.844
72308W        W42123  33.438  44.837   4.678
72309W        W42124  25.620  15.766   5.200
72310W        W42125  30.565  34.926   4.193
72311W        W42126  28.000  44.328  13.432
72312W        W42127  40.935  12.297  10.616
72313W        W42128  32.636  44.472   2.239
72314W        W42129  40.393  43.007   1.790
72315W        W42130   9.838  17.698   4.333
72316W        W42131  30.907  17.290  14.444
72317W        W42132   8.212  44.957   3.769
72318W        W42133  31.018  28.155   2.235
72319W        W42134   2.394   6.258   1.731
72320W        W42135   5.237  23.680   4.701
72321W        W42136  22.141  34.372   2.742
72322W        W42137  32.394  11.373   4.806
72323W        W42138  17.150   8.323  13.485
72324W        W42139  19.144   1.392   4.634
72325W        W42140  29.164   8.899  10.496
72326W        W42141   9.646  34.405   4.698
72327W        W42142  28.076  20.087   4.292
72328W        W42143   8.879  43.317   4.338
72329W        W42144  19.200  19.686   0.935
72330W        W42145   3.864  10.375   1.707
72331W        W42146   6.190   9.168   0.740
72332W        W42147  26.504  34.378  13.537
72333W        W42148   2.460  11.835   4.802
72334W        W42149  16.678  30.553  13.347
72335W        W42150  19.724  43.361  11.470
72336W        W42151  33.573  16.739  14.396
72337W        W42152  22.664  40.463  11.873
72338W        W42153  21.126  30.927  12.488
72339W        W42154   4.706  32.931  11.000
72340W        W42155  35.933   1.392   2.377
72341W        W42156   9.313  24.190  11.443
72342W        W42157  14.126  42.974  12.373
72343W        W42158  18.201  42.355  12.476
72344W        W42159  35.544  13.772  10.471
72345W        W42160  38.519  39.030   4.803
72346W        W42161  24.558  15.819  14.771
72347W        W42162  34.476  15.659   2.787
72348W        W42163   9.718  17.789   0.926
72349W        W42164  10.188  18.232   3.777
72350W        W42165  42.823  15.181  13.361
72351W        W42166  42.350  16.318   2.276
72352W        W42167  33.942  39.341   1.905
72353W        W42168  40.988  29.006  14.297
72354W        W42169  15.804  18.569  13.385
72355W        W42170  42.946  39.441   4.280
72356W        W42171  10.751  14.168   1.271
72357W        W42172  26.178  11.263   4.340
72358W        W42173  22.040  20.561  12.457
72359W        W42174   5.418  13.139  13.039
72360W        W42175  23.635  39.064  13.847
72361W        W42176   7.893   4.791  10.989
72362W        W42177  24.127  35.507   0.950
72363W        W42178  32.919   5.742   4.279
72364W        W42179  26.953  40.411  13.957
72365W        W42180   9.279  37.855   0.944
72366W        W42181   7.295  31.151   1.728
72367W        W42182  28.583   8.727  10.998
72368W        W42183  19.549  42.385   3.747
72369W        W42184  33.539  27.445  13.825
72370W        W42185  35.039  29.165   0.761
72371W        W42186  32.446  42.455   4.201
72372W        W42187  29.081  43.455  11.871
72373W        W42188   2.277  18.699   2.201
72374W        W42189  12.724  43.905  10.981
72375W        W42190  16.578   0.753  13.432
72376W        W42191   2.335   8.166   2.315
72377W        W42192  16.268  40.852  12.978
72378W        W42193  21.623  21.745   1.392
72379W        W42194  25.480   3.287   5.308
72380W        W42195  38.362  27.489  10.591
72381W        W42196  28.028   0.920   4.188
72382W        W42197  13.306  27.037   1.446
72383W        W42198  17.705   5.427  13.815
72384W        W42199  15.796  41.918   0.391
72385W        W42200  15.641  10.172  11.870
72386W        W42201  10.271  37.548  14.772
72387W        W42202  16.721  37.033  14.941
72388W        W42203   0.796  26.516  13.487
72389W        W42204  41.386  31.444   0.435
72390W        W42205  34.093  15.160  13.531
72391W        W42206  39.029   7.748   4.829
72392W        W42207  27.973  28.453  12.436
72393W        W42208   3.814  12.137  11.889
72394W        W42209  42.477  39.487   4.323
72395W        W42210  23.635  16.262   9.984
72396W        W42211   4.738  21.082   3.165
72397W        W42212  43.455  42.324   4.822
72398W        W42213   2.434  17.105   0.428
72399W        W42214  37.963  29.007   3.162
72400W        W42215  15.669  18.722   1.875
72401W        W42216  44.466  43.834   3.275
72402W        W42217  19.187  24.134   3.723
72403W        W42218   1.404  44.960   2.829
72404W        W42219  23.656   3.298   1.797
72405W        W42220  23.699   6.305  11.472
72406W        W42221  31.566  14.229   2.808
72407W        W42222  25.191   7.193   1.346
72408W        W42223   6.419  13.739  12.933
72409W        W42224  35.429  28.483  11.102
72410W        W42225  22.558  42.846  13.038
72411W        W42226  21.163   9.216   3.793
72412W        W42227  27.455  11.836  13.327
72413W        W42228  42.801  18.724  11.398
72414W        W42229  38.466  15.133  10.917
72415W        W42230  31.959  36.486   2.884
72416W        W42231  10.170   1.936   2.370
72417W        W42232   9.672  14.602  10.584
72418W        W42233  44.345  42.354  14.482
72419W        W42234   1.476   0.342  12.911
72420W        W42235  25.707  19.051  12.418
72421W        W42236   2.896   8.195  14.809
72422W        W42237  16.073  14.727   2.770
72423W        W42238   3.458   3.927   3.149
72424W        W42239  32.039   0.458  12.522
72425W        W42240  16.203   7.744   1.376
72426W        W42241  44.806  12.611   4.187
72427W        W42242   9.394  20.109   4.246
72428W        W42243  35.969  44.349   4.620
72429W        W42244  21.636  21.742  14.338
72430W        W42245  30.017  35.469   2.325
72431W        W42246  20.568  34.074   1.247
72432W        W42247  16.702  13.710  12.970
72433W        W42248  31.445  18.188  14.006
72434W        W42249  35.078  36.965  14.801
72435W        W42250  32.482  12.358  11.592
72436W        W42251  39.933  30.959   3.271
72437W        W42252  28.127  36.883   1.712
72438W        W42253   4.315  44.370  14.379
72439W        W42254   7.691  32.114  10.470
72440W        W42255  10.794  14.801   0.256
72441W        W42256   4.853  38.993  13.914
72442W        W42257   1.787  38.965   3.156
72443W        W42258   3.409  33.005  12.877
72444W        W42259  41.453  17.617   2.221
72445W        W42260   3.411  22.576   0.743
72446W        W42261   2.466  24.065   3.249
72447W        W42262  26.668   6.377   4.688
72448W        W42263  26.573  11.225   4.725
72449W        W42264  17.206  33.045   4.172
72450W        W42265  11.281  13.318   1.933
72451W        W42266  10.842  40.492   1.797
72452W        W42267  14.734  23.205   3.152
72453W        W42268  41.372  20.227  13.962
72454W        W42269  31.151  39.959  12.828
72455W        W42270  26.621  18.243  14.409
72456W        W42271   2.389   9.786  14.450
72457W        W42272  24.174  24.008   5.289
72458W        W42273  21.523  13.238   0.297
72459W        W42274  18.561  37.060  13.525
72460W        W42275  35.499  18.663  13.982
72461W        W42276  43.963  22.214  10.574
72462W        W42277  33.056   7.301   3.204
72463W        W42278  35.022  20.194  12.999
72464W        W42279  12.179   1.384  12.002
72465W        W42280  26.578   7.730  11.479
72466W        W42281  16.683  26.521   4.654
72467W        W42282  24.508  27.118  14.323
72468W        W42283  43.500  40.932   4.747
72469W        W42284  32.084  19.683   3.658
72470W        W42285  32.517   3.920   2.797
72471W        W42286  12.775  27.073  12.442
72472W        W42287  24.567   9.211   1.360
72473W        W42288  28.066  17.097   2.894
72474W        W42289  33.933   7.776   4.809
72475W        W42290   7.743  10.297   4.205
72476W        W42291  15.105  33.914   4.777
72477W        W42292  38.373   7.207  14.000
72478W        W42293  43.883  36.444   1.235
72479W        W42294  24.721   7.740   4.774
72480W        W42295  42.282  14.312   1.833
72481W        W42296  32.398  18.640  10.997
72482W        W42297  35.891  43.411   2.308
72483W        W42298   4.383  10.302  14.514
72484W        W42299  27.114  37.047   1.303
72485W        W42300  28.472  41.802  13.961
72486W        W42301   4.923  36.947  12.958
72487W        W42302  27.005  39.510   1.929
72488W        W42303  23.616   7.175  12.027
72489W        W42304  23.153   4.838   2.181
72490W        W42305  36.971   5.265  12.442
72491W        W42306  17.712  23.060   2.676
72492W        W42307  28.153  29.647   4.813
72493W        W42308  32.979  19.240  13.376
72494W        W42309  30.934   7.813   0.253
72495W        W42310   9.836  19.167   9.506
72496W        W42311   8.253   9.298  13.926
72497W        W42312  28.601  34.113  13.807
72498W        W42313   5.751  23.151  11.079
72499W        W42314   7.315  22.606   0.809
72500W        W42315  20.675  29.001   3.819
72501W        W42316   5.350  26.648   2.328
72502W        W42317  23.681  31.495  11.502
72503W        W42318   2.883  13.282  11.527
72504W        W42319  32.622  20.047   3.268
72505W        W42320  12.287  27.582  13.809
72506W        W42321  41.947   2.752   4.599
72507W        W42322  26.675  31.576   1.230
72508W        W42323  42.927  32.607  10.521
72509W        W42324  34.552  15.632  11.451
72510W        W42325  10.190  43.355   1.450
72511W        W42326  11.134  29.112  10.451
72512W        W42327   9.651  17.273  12.868
72513W        W42328  21.524  10.238  10.422
72514W        W42329   9.812  14.798  12.966
72515W        W42330  10.659  12.298   4.254
72516W        W42331  30.027  13.715   1.734
72517W        W42332  21.164  36.392  14.282
72518W        W42333  16.275  40.967   4.632
72519W        W42334  17.216  15.730  14.367
72520W        W42335  15.220  40.410   3.825
72521W        W42336  13.250   9.654   1.866
72522W        W42337  39.509   0.982   0.445
72523W        W42338  16.677  23.526   0.367
72524W        W42339  18.213  26.556  10.510
72525W        W42340  28.450   9.710   3.820
72526W        W42341  29.475  17.611  14.500
72527W        W42342  10.675   4.717  11.879
72528W        W42343  14.687   7.224   1.734
72529W        W42344  23.619  20.217   1.296
72530W        W42345  38.982  11.722  13.413
72531W        W42346  13.188  42.368  11.024
72532W        W42347  31.500  44.920  14.886
72533W        W42348  41.490  37.579   1.803
72534W        W42349  10.373  26.153  11.423
72535W        W42350  40.444   1.809   1.333
72536W        W42351  12.692   6.890   3.719
72537W        W42352   1.786  29.951  11.376
72538W        W42353   7.910  29.591   0.267
72539W        W42354   6.218  42.439   1.213
72540W        W42355  31.990  23.552   0.474
72541W        W42356  22.701  39.894  11.603
72542W        W42357  41.808  23.535  11.586
72543W        W42358  17.664  12.791  11.123
72544W        W42359   9.747   5.198  12.427
72545W        W42360   1.299   8.846   2.232
72546W        W42361  44.919  10.786   4.711
72547W        W42362  43.875  27.151  11.417
72548W        W42363  35.407   8.684   1.757
72549W        W42364  37.509  13.137  14.334
72550W        W42365  33.002  40.338  11.887
72551W        W42366  12.618  25.138   1.306
72552W        W42367  34.535  42.918   4.759
72553W        W42368  30.002   5.299   3.304
72554W        W42369  23.229  23.678  13.342
72555W        W42370   4.751   6.401   3.827
72556W        W42371  10.794  32.507  14.502
72557W        W42372  31.997  13.232  11.557
72558W        W42373   8.384  37.862  12.974
72559W        W42374  43.372   9.658   0.921
72560W        W42375  37.930  13.224  11.127
72561W        W42376   5.900  24.634  12.355
72562W        W42377  34.964  31.105  10.891
72563W        W42378  26.550  21.254  10.064
72564W        W42379  17.778  44.358   4.242
72565W        W42380  41.415  29.581   3.868
72566W        W42381  31.473  43.010  13.370
72567W        W42382   5.231   4.706  12.864
72568W        W42383  23.622  28.619  11.491
72569W        W42384  32.038  35.063  13.391
72570W        W42385  21.724   1.257   5.097
72571W        W42386  23.596  30.573   3.670
72572W        W42387  12.128  28.030   1.714
72573W        W42388  17.260   8.214  11.382
72574W        W42389  43.964  10.182   2.812
72575W        W42390  30.435   0.296   1.701
72576W        W42391  26.018  38.460  14.463
72577W        W42392  41.858  29.964   0.882
72578W        W42393  32.128  38.996  10.131
72579W        W42394   5.744   6.313   4.133
72580W        W42395  29.575  30.034   3.784
72581W        W42396  40.473  15.635  13.823
72582W        W42397  15.791  36.518   4.299
72583W        W42398   7.389  35.367   4.837
72584W        W42399   0.782  15.631  11.099
72585W        W42400   1.808  44.772  12.486
72586W        W42401  30.454  17.636  11.600
72587W        W42402  40.417  18.205  13.037
72588W        W42403   1.815  35.863   4.644
72589W        W42404  41.437   5.927  12.430
72590W        W42405  25.599  26.470   2.790
72591W        W42406  36.576  29.157   1.866
72592W        W42407  33.910  22.116   1.921
72593W        W42408  19.618  12.227  13.471
72594W        W42409  40.528  24.574   4.174
72595W        W42410  34.409  34.397   4.722
72596W        W42411  25.689   6.354   1.728
72597W        W42412  39.537  19.592  12.441
72598W        W42413  12.803  15.784   3.232
72599W        W42414  29.002  22.631   2.317
72600W        W42415  13.653   6.815  14.876
72601W        W42416   0.888  43.858  12.423
72602W        W42417  11.734   9.289   0.288
72603W        W42418   1.901  43.895  12.478
72604W        W42419   8.835  34.612  11.582
72605W        W42420  40.907   5.732   1.898
72606W        W42421  25.149   4.753  11.025
72607W        W42422  32.566   3.444   3.362
72608W        W42423  26.986  17.135   1.924
72609W        W42424  26.070  38.922  11.536
72610W        W42425  35.469  25.990   0.470
72611W        W42426  10.217  33.513   1.909
72612W        W42427  10.773  29.576  10.980
72613W        W42428  21.020  34.422   1.730
72614W        W42429  35.449  39.372  10.621
72615W        W42430   6.890  17.068   4.199
72616W        W42431  30.067  25.147  14.842
72617W        W42432  44.814  36.376  12.029
72618W        W42433   2.948  44.358  12.093
72619W        W42434  16.571  28.930   0.376
72620W        W42435  44.877  40.414   4.757
72621W        W42436  21.108  44.388  10.484
72622W        W42437  27.518  30.922   1.334
72623W        W42438  34.050  31.465  13.826
72624W        W42439  18.642  34.924   4.343
72625W        W42440  31.470  35.418  12.031
72626W        W42441   0.962  43.886  14.414
72627W        W42442  17.585  20.273  13.402
72628W        W42443  27.572  15.116   1.907
72629W        W42444  39.482   4.309   0.458
72630W        W42445  35.534   6.353   2.724
72631W        W42446  27.485  40.380   0.477
72632W        W42447  34.515  30.108  14.798
72633W        W42448  20.721  37.008  14.017
72634W        W42449   8.268  43.966   1.319
72635W        W42450   5.702  14.241  10.954
72636W        W42451  32.479  39.997   4.651
72637W        W42452  11.191  24.517   2.697
72638W        W42453   7.264  34.089  14.804
72639W        W42454  23.191   3.945  13.433
72640W        W42455   3.433  33.012  14.281
72641W        W42456  27.451  44.928  13.319
72642W        W42457  31.031  13.733   4.706
72643W        W42458   2.889  28.531   2.203
72644W        W42459  23.018  43.907  14.870
72645W        W42460   8.724  17.667  10.591
72646W        W42461  28.445  21.556   4.289
72647W        W42462  12.180  41.336  11.040
72648W        W42463  28.673   2.821   1.813
72649W        W42464  30.562  25.970  12.882
72650W        W42465  21.038  23.089  13.014
72651W        W42466  22.080  20.703   4.767
72652W        W42467  31.992  41.870   3.762
72653W        W42468  29.049  11.694  12.030
72654W        W42469  15.277   3.436   2.213
72655W        W42470  37.067  15.728   0.780
72656W        W42471  39.887   9.704   0.297
72657W        W42472  38.387   9.235  14.900
72658W        W42473   2.258   6.379  10.637
72659W        W42474  19.585  34.462  14.343
72660W        W42475  28.632  23.055   3.841
72661W        W42476  30.553   2.373  12.408
72662W        W42477  15.108  22.561  13.034
72663W        W42478  44.370  35.562  13.499
72664W        W42479  30.958  24.133   1.331
72665W        W42480  39.978  37.570   3.633
72666W        W42481  39.341  36.859   3.261
72667W        W42482  40.366  37.968   1.748
72668W        W42483   6.786  30.522   3.790
72669W        W42484  39.995  15.599   0.295
72670W        W42485  39.555  14.815  13.975
72671W        W42486  42.290   7.329   0.345
72672W        W42487  38.928  33.105   0.770
72673W        W42488  10.158  22.579   4.670
72674W        W42489  27.174  32.499   4.269
72675W        W42490  20.132   2.440  11.097
72676W        W42491  41.923  42.811   2.737
72677W        W42492   2.250  25.029   1.729
72678W        W42493  16.125  36.363   4.837
72679W        W42494  43.289  17.161  13.480
72680W        W42495  33.567   2.280  12.461
72681W        W42496   0.901  33.588  12.891
72682W        W42497  37.930  23.599   3.373
72683W        W42498  42.860   5.321   2.880
72684W        W42499   8.396   1.413  10.637
72685W        W42500  21.197  38.482   0.837
72686W        W42501  25.617   5.415  10.524
72687W        W42502  38.567  41.820  14.515
72688W        W42503  14.122   8.353  10.627
72689W        W42504  12.749  40.923  13.400
72690W        W42505  40.910  31.918  10.936
72691W        W42506  13.239   2.338  13.503
72692W        W42507  26.201  19.151  14.332
72693W        W42508  41.462  18.097   1.745
72694W        W42509  10.194  43.456   4.749
72695W        W42510  19.169  31.463  13.366
72696W        W42511  29.582   8.693  11.398
72697W        W42512  19.154  13.349  10.494
72698W        W42513  41.514   0.452   5.787
72699W        W42514  26.658   5.193   0.855
72700W        W42515  34.487  17.572  10.532
72701W        W42516   6.834  36.886  13.881
72702W        W42517  15.103  24.215   0.278
72703W        W42518  11.763  19.057  12.016
72704W        W42519  39.815  39.995  13.948
72705W        W42520  34.537  13.781   1.769
72706W        W42521  30.139  23.075  13.848
72707W        W42522  36.999  17.255  11.033
72708W        W42523  13.190  13.771   1.401
72709W        W42524  23.124  21.024  12.076
72710W        W42525  42.322  17.167   1.703
72711W        W42526  39.439  39.063  13.028
72712W        W42527  37.502  39.345   0.738
72713W        W42528  34.902  28.180  10.426
72714W        W42529  27.664  37.367   2.686
72715W        W42530  30.026  24.603   0.329
72716W        W42531  41.473  16.761   0.465
72717W        W42532  21.150  33.917   3.320
72718W        W42533  12.287  41.843  12.411
72719W        W42534   5.329  33.889  11.862
72720W        W42535   6.747  15.266  14.314
72721W        W42536  31.543  15.219  11.507
72722W        W42537  41.042   8.677   4.219
72723W        W42538  27.146   9.294   3.332
72724W        W42539   5.932   5.691  11.061
72725W        W42540  25.609  32.625  10.432
72726W        W42541  22.042  18.731  12.560
72727W        W42542   8.215   8.242   3.720
72728W        W42543   3.742  32.595  12.552
72729W        W42544  31.440  21.585  13.330
72730W        W42545  25.536  17.070   4.691
72731W        W42546  36.473  14.607  12.381
72732W        W42547  32.957   5.874   3.734
72733W        W42548  38.915  44.809  14.962
72734W        W42549  13.154   4.797   0.277
72735W        W42550  35.574  44.449   1.287
72736W        W42551  28.930  42.853  13.357
72737W        W42552  14.250  18.669   3.162
72738W        W42553  31.509  29.586   3.379
72739W        W42554   6.784  33.932  12.469
72740W        W42555  39.833   3.727  11.439
72741W        W42556  12.186   0.277  11.021
72742W        W42557  28.124  44.286   1.716
72743W        W42558   9.213  30.591   3.734
72744W        W42559  43.483  10.671   0.387
72745W        W42560   8.725  36.564   2.694
72746W        W42561   6.754  13.284   0.438
72747W        W42562  37.532   6.855   5.081
72748W        W42563   5.311   5.839  14.965
72749W        W42564  33.030  19.189   4.353
72750W        W42565   3.847  26.532  12.924
72751W        W42566  19.103   8.860  13.040
72752W        W42567   9.779  43.836   1.279
72753W        W42568  38.971  29.138  13.465
72754W        W42569  28.650   5.239   0.477
72755W        W42570  31.641  43.396  10.945
72756W        W42571   1.254  18.285  14.332
72757W        W42572  25.190  39.001   4.309
72758W        W42573  33.103  29.666  11.548
72759W        W42574  17.086   7.780   3.356
72760W        W42575   5.381  30.129   1.724
72761W        W42576  14.778  17.747   2.269
72762W        W42577  15.631  29.513   3.686
72763W        W42578  39.953  26.490   0.367
72764W        W42579  44.919  10.743  11.495
72765W        W42580  26.022  17.070   3.257
72766W        W42581  20.710   2.748   0.892
72767W        W42582  18.757  40.048  11.002
72768W        W42583  26.150  38.896  10.480
72769W        W42584  15.312  21.535   4.312
72770W        W42585  13.129   9.822   0.853
72771W        W42586  31.906  11.139   1.699
72772W        W42587  11.351  13.319  14.986
72773W        W42588  16.203  32.617  10.930
72774W        W42589  33.882  42.364  10.627
72775W        W42590  32.979  40.353   2.816
72776W        W42591  14.787  39.974  11.946
72777W        W42592   4.383  30.575  11.027
72778W        W42593  18.545   4.361  14.805
72779W        W42594  16.763  38.444  12.890
72780W        W42595  44.902  28.089  14.887
72781W        W42596  19.676  32.470  13.820
72782W        W42597   3.345  30.946  14.400
72783W        W42598   4.246  17.144  12.992
72784W        W42599   5.688  39.475   0.931
72785W        W42600  33.946  19.699  14.491
72786W        W42601  17.563   9.194  10.494
72787W        W42602  13.262  19.244   3.294
72788W        W42603  30.570  21.110   3.161
72789W        W42604  21.075  36.437  12.535
72790W        W42605  39.915  16.671   2.870
72791W        W42606  27.603  41.341  11.517
72792W        W42607  37.077   8.371  12.831
72793W        W42608  39.816  43.394   3.164
72794W        W42609  17.116   6.400  13.997
72795W        W42610  38.997   6.902  14.816
72796W        W42611  37.902  44.281   2.294
72797W        W42612  22.631  34.090  13.000
72798W        W42613  37.877  30.582  11.610
72799W        W42614  23.726  13.779   0.381
72800W        W42615   7.751   2.234  11.595
72801W        W42616  38.478  34.954   4.809
72802W        W42617  37.346  38.824  12.364
72803W        W42618  16.166  16.094  14.926
72804W        W42619  35.945  19.593   3.162
72805W        W42620  36.018   6.313   1.422
72806W        W42621  13.816   0.746  13.528
72807W        W42622   6.856  41.369   1.355
72808W        W42623  40.037  17.661  11.856
72809W        W42624  11.315   0.321   4.291
72810W        W42625  23.597  37.544   0.810
72811W        W42626  14.164  38.537  11.905
72812W        W42627  40.036  26.207   2.840
72813W        W42628  12.253  23.715  11.558
72814W        W42629  21.723  34.009  14.396
72815W        W42630  17.734   0.467   2.705
72816W        W42631  19.138  33.935   4.817
72817W        W42632  32.536  36.086   1.292
72818W        W42633  18.715  19.584  10.062
72819W        W42634  20.262   6.812   4.303
72820W        W42635  38.832  15.771   2.259
72821W        W42636  33.984   6.827  12.874
72822W        W42637  19.257   3.435   3.839
72823W        W42638  21.218   4.804   1.712
72824W        W42639  11.253  12.843   1.349
72825W        W42640  26.491  10.334  10.158
72826W        W42641  42.829  34.394   0.894
72827W        W42642  42.300   7.266  13.445
72828W        W42643  15.697  41.316   2.675
72829W        W42644  24.981  22.529   4.167
72830W        W42645  39.525  40.813  11.544
72831W        W42646  39.440  34.466   1.904
72832W        W42647  12.330  39.991   4.654
72833W        W42648  17.716  27.508   1.265
72834W        W42649  27.616  12.786   3.365
72835W        W42650  35.990  26.124   0.726
72836W        W42651  43.958  22.724  13.422
72837W        W42652  25.580   9.879   4.705
72838W        W42653  16.245   3.348  12.373
72839W        W42654  13.636  40.487  14.903
72840W        W42655  37.458  42.461  12.430
72841W        W42656  34.031   6.286  10.082
72842W        W42657  37.964  19.709  10.634
72843W        W42658   7.171  33.938  13.813
72844W        W42659  21.262  11.309  14.402
72845W        W42660   1.869  19.715   3.782
72846W        W42661  12.185  39.816   2.272
72847W        W42662   7.748   4.449  11.018
72848W        W42663  35.533   6.329   0.908
72849W        W42664  30.516  27.656  13.543
72850W        W42665   1.382  25.047   0.728
72851W        W42666   5.300  15.808  11.524
72852W        W42667  25.657  14.645  11.115
72853W        W42668  41.791  11.680  11.943
72854W        W42669   3.870   1.741  14.279
72855W        W42670  30.914  26.121  11.552
72856W        W42671  25.994   1.345  10.895
72857W        W42672  11.818  31.956   3.196
72858W        W42673  35.445  14.753   0.748
72859W        W42674   1.796  10.775   0.345
72860W        W42675  35.081  18.781  14.843
72861W        W42676   2.733  11.700  13.002
72862W        W42677   8.234   3.843  13.384
72863W        W42678  12.770   9.190  12.068
72864W        W42679  11.795  28.464  10.942
72865W        W42680  27.975  22.662   1.281
72866W        W42681  38.966  28.971  13.045
72867W        W42682  26.457  43.422  12.013
72868W        W42683  26.661  15.165  12.076
72869W        W42684  34.874   6.767   1.935
72870W        W42685  13.235  20.684  10.943
72871W        W42686  12.212   3.274  12.037
72872W        W42687  13.123  11.793  12.429
72873W        W42688  18.544  30.448  13.334
72874W        W42689  32.457  26.584  11.027
72875W        W42690  38.398   1.450   4.623
72876W        W42691  42.388   5.729  13.874
72877W        W42692  38.072  16.571  13.841
72878W        W42693  29.633   6.239  10.007
72879W        W42694  41.374   5.299   2.406
72880W        W42695   2.331  14.156   1.421
72881W        W42696  18.621  29.588   3.686
72882W        W42697  18.261  11.279   3.777
72883W        W42698  39.969  42.331  12.018
72884W        W42699   2.333  23.669  14.861
72885W        W42700  28.959  38.931  12.557
72886W        W42701   5.827   9.821  11.610
72887W        W42702  37.885   2.941  11.502
72888W        W42703  32.005   5.716  10.500
72889W        W42704  19.663  23.702  13.878
72890W        W42705  22.216  39.492  10.961
72891W        W42706  15.146  41.357  12.866
72892W        W42707  39.452  10.237  13.981
72893W        W42708   0.947  33.889   0.743
72894W        W42709  19.208  43.379   0.477
72895W        W42710  39.954  19.226  11.599
72896W        W42711  14.641  44.458   0.842
72897W        W42712  20.616  13.252   2.792
72898W        W42713   7.233  31.486  11.886
72899W        W42714   7.180   9.309  10.449
72900W        W42715  28.552   6.884   1.379
72901W        W42716  24.174  33.125   2.213
72902W        W42717  18.727  42.435   3.332
72903W        W42718   3.717  39.976  12.075
72904W        W42719  28.437  28.593  12.488
72905W        W42720  31.043  29.456  14.335
72906W        W42721  24.198  22.608  13.856
72907W        W42722   0.373  31.551  10.545
72908W        W42723  39.345  21.144   1.719
72909W        W42724  10.187   7.908   0.958
72910W        W42725  42.894  30.007   1.744
72911W        W42726  13.250  30.631  14.457
72912W        W42727  33.967  44.951   1.925
72913W        W42728   3.935  34.411   4.121
72914W        W42729  33.897  27.052  11.902
72915W        W42730  15.712  41.810  11.971
72916W        W42731  41.841  44.781  14.810
72917W        W42732  17.205  35.006  10.567
72918W        W42733  26.674  32.020  11.587
72919W        W42734  26.628   0.394   2.762
72920W        W42735  34.023  42.332   2.353
72921W        W42736   0.846  21.631   3.751
72922W        W42737  30.650   8.872  14.499
72923W        W42738  41.374  29.149   4.696
72924W        W42739  28.595  25.169  11.568
72925W        W42740  29.496  18.690  12.087
72926W        W42741  28.517  14.809   4.351
72927W        W42742   0.931  17.786  11.111
72928W        W42743  24.159  29.032  12.497
72929W        W42744  21.663  42.438  12.399
72930W        W42745   2.408  27.665   0.367
72931W        W42746   2.922  43.932  12.915
72932W        W42747   2.229  21.671   2.368
72933W        W42748  17.144   7.344  10.412
72934W        W42749   6.910  23.223   3.800
72935W        W42750  30.538   3.457   3.813
72936W        W42751   3.414   4.241   4.802
72937W        W42752  26.564  25.641  13.049
72938W        W42753  18.602  38.997   4.648
72939W        W42754  10.739  34.984   0.865
72940W        W42755  42.504  22.159   3.740
72941W        W42756  31.411   6.784   0.924
72942W        W42757  35.388   5.713  12.515
72943W        W42758  10.829  11.250   3.188
72944W        W42759  33.610  16.764  11.110
72945W        W42760  14.710  19.572   4.175
72946W        W42761  26.464  44.427  12.437
72947W        W42762  31.407  42.485   2.353
72948W        W42763   1.933  25.084  13.998
72949W        W42764  16.133  38.070  10.504
72950W        W42765  15.733  41.036   2.742
72951W        W42766  37.913   7.670  14.471
72952W        W42767   5.771  14.150  11.569
72953W        W42768  37.019  25.570   1.224
72954W        W42769  33.603  27.085  11.373
72955W        W42770  36.085   8.822  12.899
72956W        W42771  42.894  32.496  13.019
72957W        W42772  12.613  34.468  13.953
72958W        W42773  35.390  41.418  13.363
72959W        W42774  13.145  12.640  13.312
72960W        W42775  12.177  25.213  11.393
72961W        W42776  36.861  38.377   2.732
72962W        W42777  26.096  29.129  14.854
72963W        W42778  25.168  40.051  10.010
72964W        W42779  36.894  17.801  14.498
72965W        W42780  13.827  33.907   4.322
72966W        W42781  43.281   9.333   3.725
72967W        W42782   3.818  12.264  14.886
72968W        W42783  26.953   0.924  10.407
72969W        W42784  32.045  25.613  11.934
72970W        W42785  44.802   4.355  10.430
72971W        W42786  18.562  23.611   2.686
72972W        W42787  23.522  24.082  14.775
72973W        W42788   1.454  43.779  10.406
72974W        W42789  28.651  38.997  13.001
72975W        W42790  18.650  36.471  13.825
72976W        W42791  25.571  30.473   9.989
72977W        W42792  25.560   7.712   0.808
72978W        W42793   0.272   6.823  13.974
72979W        W42794  26.044  30.954   3.813
72980W        W42795  40.415  28.971  10.149
72981W        W42796  40.849  28.441  12.505
72982W        W42797  14.225  22.104  12.462
72983W        W42798  14.760  41.474  11.516
72984W        W42799   9.827  33.024  11.052
72985W        W42800  41.385  11.709   0.875
72986W        W42801  13.286   8.286   2.411
72987W        W42802  34.970  41.345   5.172
72988W        W42803   0.923   7.317   5.123
72989W        W42804  15.781   1.303   2.753
72990W        W42805   6.221  20.655  11.395
72991W        W42806  19.216  18.712   2.177
72992W        W42807  41.987  30.524  12.426
72993W        W42808  20.606  27.074  12.479
72994W        W42809   1.911  35.426  13.972
72995W        W42810  24.497  23.128  14.864
72996W        W42811   0.919  19.688  12.011
72997W        W42812  19.623  13.213  10.891
72998W        W42813  41.980  32.592  11.988
72999W        W42814  30.111  22.047  12.016
73000W        W42815  33.092  32.107  12.409
73001W        W42816  24.046  25.614  13.515
73002W        W42817   5.691  27.981  10.436
73003W        W42818  15.671  39.877  11.932
73004W        W42819   6.720  44.405  12.954
73005W        W42820   2.360  43.500   2.302
73006W        W42821  38.928  29.022  14.382
73007W        W42822  28.634  31.058  11.029
73008W        W42823  36.391   5.833  13.528
73009W        W42824  11.127  40.004   1.765
73010W        W42825  27.683  21.535   3.669
73011W        W42826  32.952   2.813   2.344
73012W        W42827  16.756  19.571  13.943
73013W        W42828   2.364  12.344   1.845
73014W        W42829  32.446   5.853   0.393
73015W        W42830  14.161  39.040  13.010
73016W        W42831  36.860   4.913   3.315
73017W        W42832  15.810   9.242  13.504
73018W        W42833  15.178  40.833  13.904
73019W        W42834  37.066  35.557  14.387
73020W        W42835  12.239   0.829   4.157
73021W        W42836  27.180   6.708   1.820
73022W        W42837  13.788  12.314  13.966
73023W        W42838  29.642   8.264   2.820
73024W        W42839   5.242  27.477  11.026
73025W        W42840  41.434  25.210  13.503
73026W        W42841  25.476  23.641  10.412
73027W        W42842  39.499  24.163   3.251
73028W        W42843   7.357  29.656   1.296
73029W        W42844  40.443  21.215  11.432
73030W        W42845   1.838   9.378   4.741
73031W        W42846   2.944  36.494   2.731
73032W        W42847   3.387   3.895   4.250
73033W        W42848  18.295   2.340  10.502
73034W        W42849  24.720  38.846  13.384
73035W        W42850  26.522  31.416   3.863
73036W        W42851  26.062  18.771   0.287
73037W        W42852   0.282   4.233  11.959
73038W        W42853  25.529  10.642  13.904
73039W        W42854  11.828  39.904   1.341
73040W        W42855  22.508  12.695   3.193
73041W        W42856   8.305  12.250   1.700
73042W        W42857   6.881   8.350   1.235
73043W        W42858  42.397  21.189   3.155
73044W        W42859  13.249   4.264  11.585
73045W        W42860  39.867  19.555   1.769
73046W        W42861  40.309  31.142   3.824
73047W        W42862  42.408  20.530   0.449
73048W        W42863  12.639   3.344   2.241
73049W        W42864  23.514   4.426   4.200
73050W        W42865  30.554   5.823   1.252
73051W        W42866   5.770  38.040  14.278
73052W        W42867  40.840  36.024   2.807
73053W        W42868  13.641   1.411   3.678
73054W        W42869  22.650  23.641   0.906
73055W        W42870   9.875  22.093  13.399
73056W        W42871  16.687   8.197   0.346
73057W        W42872  29.106  24.032   1.369
73058W        W42873  21.734  43.461   4.283
73059W        W42874  29.932  17.270  13.354
73060W        W42875  39.823  16.732  13.398
73061W        W42876  18.644  38.878   0.407
73062W        W42877  43.953   0.355   1.753
73063W        W42878  14.752  44.871  12.052
73064W        W42879   7.884  23.163  12.555
73065W        W42880  13.328   9.370   1.895
73066W        W42881  17.225  34.886   2.209
73067W        W42882   8.291  40.464  13.006
73068W        W42883  38.395   3.394  13.430
73069W        W42884   6.703  26.678   3.862
73070W        W42885  35.873  11.814   3.246
73071W        W42886  19.689   0.370   1.372
73072W        W42887  30.455  42.991   2.842
73073W        W42888   6.407  24.988  10.998
73074W        W42889  44.267  15.271  10.123
73075W        W42890  29.017  22.175   2.897
73076W        W42891  26.155  16.199  13.817
73077W        W42892  19.700  15.638   0.451
73078W        W42893  41.826   7.847  14.002
73079W        W42894  38.344  15.235  14.483
73080W        W42895   7.366  20.649   0.945
73081W        W42896   9.688  25.985  11.951
73082W        W42897   9.152  27.680  12.442
73083W        W42898  28.180  43.447   3.760
73084W        W42899  15.225  24.028  14.324
73085W        W42900  17.269  44.298   4.625
73086W        W42901  32.580  24.170  14.916
73087W        W42902  33.562   0.778   3.803
73088W        W42903  12.684  32.498  14.482
73089W        W42904  25.134  41.804  13.459
73090W        W42905  36.005  41.948  11.015
73091W        W42906  15.801  13.660  10.941
73092W        W42907   5.722  24.662  14.852
73093W        W42908  28.177  15.199   4.818
73094W        W42909  26.201  12.175  12.409
73095W        W42910  21.205  12.826   1.730
73096W        W42911   2.922  13.716  11.112
73097W        W42912   9.702  34.594   2.902
73098W        W42913  18.653   4.346   3.646
73099W        W42914  15.219  23.579  13.973
73100W        W42915  37.452  18.264   3.368
73101W        W42916   7.250  36.434   3.231
73102W        W42917  22.139  42.931  11.973
73103W        W42918  23.169   6.370  10.419
73104W        W42919  20.588   4.257  13.886
73105W        W42920  18.676   6.361   2.699
73106W        W42921  36.584  39.516  12.436
73107W        W42922   3.438  26.998   1.758
73108W        W42923  19.595  19.067   2.675
73109W        W42924   8.778  18.661   2.211
73110W        W42925  24.564  15.755   0.404
73111W        W42926  42.905  31.435  11.914
73112W        W42927  20.242  33.974  10.603
73113W        W42928  44.958   0.340  11.963
73114W        W42929  38.911  14.211  12.887
73115W        W42930  33.910  10.833  14.767
73116W        W42931  17.113  23.060  11.571
73117W        W42932  30.571  35.395  10.900
73118W        W42933  38.487  10.704   3.855
73119W        W42934  25.522   9.335   4.176
73120W        W42935  26.065  14.805   3.307
73121W        W42936  14.640  39.430   2.830
73122W        W42937  29.986  24.103   3.270
73123W        W42938  14.630  36.936  14.001
73124W        W42939   7.735  22.156  12.834
73125W        W42940   0.866  43.461   4.777
73126W        W42941  16.806  22.648   1.370
73127W        W42942   6.227  31.420  14.009
73128W        W42943  19.279   5.267   2.884
73129W        W42944  36.020  29.631  11.516
73130W        W42945  30.015  14.206   2.799
73131W        W42946  28.507  28.565   1.841
73132W        W42947  21.631  13.132  11.587
73133W        W42948  25.047   5.321   0.818
73134W        W42949  25.132  31.939  14.303
73135W        W42950  26.674  32.614   4.675
73136W        W42951  37.952   5.863  10.603
73137W        W42952  14.176   0.271  11.431
73138W        W42953  17.786  22.067   0.798
73139W        W42954  12.233  15.661   2.366
73140W        W42955  41.518  17.665  13.499
73141W        W42956   4.413   7.769   2.306
73142W        W42957   3.361  33.489  12.995
73143W        W42958  28.970  34.494   1.425
73144W        W42959  21.650   2.408  12.487
73145W        W42960  41.406  21.022  14.303
73146W        W42961  36.421  12.274   3.261
73147W        W42962  20.614  25.063  11.866
73148W        W42963   1.789  39.029  11.908
73149W        W42964   2.923  12.249   3.659
73150W        W42965  27.187  12.147  14.888
73151W        W42966  37.511   0.464  14.809
73152W        W42967   8.656  16.707  10.961
73153W        W42968  14.772  28.501  10.413
73154W        W42969  41.935   9.291  13.994
73155W        W42970  32.501   7.755  11.959
73156W        W42971  25.050   2.771   4.627
73157W        W42972  34.045  25.000  13.038
73158W        W42973  20.255   1.256  14.437
73159W        W42974  29.438   6.770  13.957
73160W        W42975  41.983  37.413   2.848
73161W        W42976  14.238  44.814   1.844
73162W        W42977   1.763  40.440   0.480
73163W        W42978  18.184  28.947  13.828
73164W        W42979   8.752   7.280   0.351
73165W        W42980  20.715   4.361   1.325
73166W        W42981   8.655  39.366  12.026
73167W        W42982  35.854  39.886   0.844
73168W        W42983  12.327  38.531  11.990
73169W        W42984  34.502   0.250   1.743
73170W        W42985  30.056  37.053  14.822
73171W        W42986  29.042  37.890  10.633
73172W        W42987  40.933  33.983  11.464
73173W        W42988   6.732   8.348   0.259
73174W        W42989  34.461  16.770   3.791
73175W        W42990  44.307  27.519  13.063
73176W        W42991  23.109  16.177   1.284
73177W        W42992  43.872  30.054  14.433
73178W        W42993  26.189   7.856   2.702
73179W        W42994  41.508  16.646  14.318
73180W        W42995  18.771   8.856   2.686
73181W        W42996  25.138  24.630   2.385
73182W        W42997   5.389   7.888  12.041
73183W        W42998   8.329  27.683  12.075
73184W        W42999   4.766  11.833  14.393
73185W        W43000   1.392  25.028   4.354
73186W        W43001  11.710  14.105   2.843
73187W        W43002  19.619  12.786   2.724
73188W        W43003  28.929  23.723   1.247
73189W        W43004  21.249  29.951  10.591
73190W        W43005  44.769  29.625  11.506
73191W        W43006  43.428  44.011  12.089
73192W        W43007  35.085  31.568  13.414
73193W        W43008  27.595  41.936   0.787
73194W        W43009  37.936  34.555   0.768
73195W        W43010   9.719   4.917  11.064
73196W        W43011  19.175  28.154   2.779
73197W        W43012  25.116  40.454   2.775
73198W        W43013  35.033  24.660   4.138
73199W        W43014  31.417   8.857  12.456
73200W        W43015  34.024   9.731  14.031
73201W        W43016  13.730  11.257  11.889
73202W        W43017  32.921   7.785   2.683
73203W        W43018   6.294   8.793  11.601
73204W        W43019   9.339  38.436   2.191
73205W        W43020  14.153  25.681  14.779
73206W        W43021  29.518  15.600   0.765
73207W        W43022  44.890  26.702  14.354
73208W        W43023  29.920   1.377   4.137
73209W        W43024  38.353   7.308  14.884
73210W        W43025   6.869  14.310  11.036
73211W        W43026  15.591  12.756  12.078
73212W        W43027  21.526  16.569   0.849
73213W        W43028   7.379   6.892   3.796
73214W        W43029  32.970  33.900   2.351
73215W        W43030  17.096  19.616   3.201
73216W        W43031  21.115   4.320   2.402
73217W        W43032  42.864  13.257  13.006
73218W        W43033  22.020  39.551  14.758
73219W        W43034  34.452  12.689  14.763
73220W        W43035  18.706  38.401   4.251
73221W        W43036  15.815  36.906  12.843
73222W        W43037  43.006   7.366  11.125
73223W        W43038  27.624  23.569  14.398
73224W        W43039  22.625  29.082   4.602
73225W        W43040  26.670  12.342  13.925
73226W        W43041  42.922  38.943  10.486
73227W        W43042  17.698  24.092   2.781
73228W        W43043  22.018  10.854   4.705
73229W        W43044  29.439   9.643   2.712
73230W        W43045   6.810  14.600   3.689
73231W        W43046  17.288  25.045  14.781
73232W        W43047  44.427  10.354   0.830
73233W        W43048  28.519  41.962   2.671
73234W        W43049   1.382  19.132   2.687
73235W        W43050  19.585  16.313  12.052
73236W        W43051   2.251  23.676   9.923
73237W        W43052  10.329  14.761   4.235
73238W        W43053  39.405  33.387   4.332
73239W        W43054  43.294  43.830  10.442
73240W        W43055  32.395   9.395   1.892
73241W        W43056  31.950  37.902   1.709
73242W        W43057  44.777   9.787   0.463
73243W        W43058   6.410   4.852   1.889
73244W        W43059  18.559  21.552  12.970
73245W        W43060  12.326  17.210  14.488
73246W        W43061   8.766  33.570  10.976
73247W        W43062  10.140  34.476  11.896
73248W        W43063  16.162  41.952  11.912
73249W        W43064  24.719  15.107   4.792
73250W        W43065   8.865  30.549  13.915
73251W        W43066  26.978   9.220   4.312
73252W        W43067  20.549  13.195  11.107
73253W        W43068  14.158  29.523  11.878
73254W        W43069   8.237  44.494  10.428
73255W        W43070  35.073   6.212  11.471
73256W        W43071   8.675  21.517   2.718
73257W        W43072  29.985  41.350   2.309
73258W        W43073   2.313  32.044   4.265
73259W        W43074  18.097  21.116   2.355
73260W        W43075  36.389  25.096  14.762
73261W        W43076   8.273  20.641   2.857
73262W        W43077  10.324  23.045   2.366
73263W        W43078  37.392  26.684  14.024
73264W        W43079  23.998  33.930  12.942
73265W        W43080  38.072  33.023   5.302
73266W        W43081  37.037  22.115   0.814
73267W        W43082  28.532  18.289   3.226
73268W        W43083  29.041  33.998  12.092
73269W        W43084  15.705  29.470   5.170
73270W        W43085   2.408  26.016   0.294
73271W        W43086  38.924  40.496  10.929
73272W        W43087  35.400  15.328  11.509
73273W        W43088  20.766  25.970   0.303
73274W        W43089   0.350  14.217   1.712
73275W        W43090  38.428  36.580  13.845
73276W        W43091  27.174  39.005   1.301
73277W        W43092  29.541  18.630   2.851
73278W        W43093  16.205  16.248   3.692
73279W        W43094   7.746  26.476   4.633
73280W        W43095  23.027  21.718   4.718
73281W        W43096  34.557  27.544  11.384
73282W        W43097  23.663  42.826  11.467
73283W        W43098  36.362  25.009  10.890
73284W        W43099  36.081   2.926  12.398
73285W        W43100  10.162  23.141  13.453
73286W        W43101  29.602  42.861   3.325
73287W        W43102  31.942  34.433   1.824
73288W        W43103  17.630  25.642  10.940
73289W        W43104  27.020  22.218  12.084
73290W        W43105  28.616  29.966  11.600
73291W        W43106  29.529  35.554  14.011
73292W        W43107  14.257  33.901   4.141
73293W        W43108  14.623   8.214  13.901
73294W        W43109  17.602  33.001   4.716
73295W        W43110   7.265  10.633  13.799
73296W        W43111  37.901  16.798   1.441
73297W        W43112   4.705   1.856  10.492
73298W        W43113  34.493  23.700  12.875
73299W        W43114  44.366  24.164  10.622
73300W        W43115  35.485   0.353  11.488
73301W        W43116   0.264  35.437  11.568
73302W        W43117  36.366  16.191   3.854
73303W        W43118  31.519  40.845  11.970
73304W        W43119   8.669  16.781  12.959
73305W        W43120   5.796  44.271  14.841
73306W        W43121  14.710  40.033  10.439
73307W        W43122  35.395  16.574  14.315
73308W        W43123  40.943  21.150  12.835
73309W        W43124  37.419   7.313  14.018
73310W        W43125  20.644  44.873  14.488
73311W        W43126  19.608  28.608   3.779
73312W        W43127  16.279  15.161  13.992
73313W        W43128  14.635  17.216  12.962
73314W        W43129  35.977  18.198   1.212
73315W        W43130  22.707  23.108   4.708
73316W        W43131  15.768  11.316   4.827
73317W        W43132   6.355  20.711   1.250
73318W        W43133  13.181  16.692   1.219
73319W        W43134  28.677  20.559  12.979
73320W        W43135   8.360  18.664  13.539
73321W        W43136  33.496  12.360  14.417
73322W        W43137  38.462  13.120  12.492
73323W        W43138  31.133  33.076  13.513
73324W        W43139  12.160  24.022  12.425
73325W        W43140  39.508  26.489  14.511
73326W        W43141   0.439  42.811   1.226
73327W        W43142  30.923  31.999  14.473
73328W        W43143  10.194  15.150   3.831
73329W        W43144  40.973   1.776  11.943
73330W        W43145   5.315  16.249  10.466
73331W        W43146  35.065  36.551   2.762
73332W        W43147  12.816  16.279  11.074
73333W        W43148   7.691  22.200  11.557
73334W        W43149  32.026  37.405   2.375
73335W        W43150  15.188  19.534  14.018
73336W        W43151   1.392  36.904  13.501
73337W        W43152  28.142  37.582  13.863
73338W        W43153  34.567   7.700  10.936
73339W        W43154  32.592  40.926   2.372
73340W        W43155   3.353   6.349  10.507
73341W        W43156  16.589   0.469  14.992
73342W        W43157  42.411   0.917   2.746
73343W        W43158  30.506  24.993  11.553
73344W        W43159  32.935  29.509  10.607
73345W        W43160   2.461  31.012  14.840
73346W        W43161  41.801  10.867   0.322
73347W        W43162  20.158  21.230   0.273
73348W        W43163  37.032  16.652  13.417
73349W        W43164  22.720  34.536   3.833
73350W        W43165  43.937  11.788  12.366
73351W        W43166  24.086  33.004   4.824
73352W        W43167   7.180  35.060   0.263
73353W        W43168  17.649  41.786   2.406
73354W        W43169  34.916  11.341   3.186
73355W        W43170  34.912  28.114  14.817
73356W        W43171  21.746  12.140   4.176
73357W        W43172  29.078  28.003  14.479
73358W        W43173  34.397   0.255   0.863
73359W        W43174  35.384  38.384  14.816
73360W        W43175  18.589  20.198   2.202
73361W        W43176  32.999  39.948   1.935
73362W        W43177  28.154  30.047   1.399
73363W        W43178  36.957  38.006  12.935
73364W        W43179  18.717  38.488   3.811
73365W        W43180  28.124  24.552  14.880
73366W        W43181  38.355  38.497   2.216
73367W        W43182   4.235  40.975   3.738
73368W        W43183  13.794  18.688   1.794
73369W        W43184  31.522  33.531   3.159
73370W        W43185  18.103  42.488   0.757
73371W        W43186  21.217  20.724   0.854
73372W        W43187  21.039  32.138  12.511
73373W        W43188  26.491  30.558   1.219
73374W        W43189  40.363  27.070  14.457
73375W        W43190  23.711  20.215  13.488
73376W        W43191  22.070  31.425  10.430
73377W        W43192  16.603  30.111  14.782
73378W        W43193  27.448  11.867   3.669
73379W        W43194  43.821  21.198   3.312
73380W        W43195   7.348  14.711  12.576
73381W        W43196  21.188   9.880   1.284
73382W        W43197   1.961  17.223   0.434
73383W        W43198  28.031  12.140  11.451
73384W        W43199  10.707   7.782   1.397
73385W        W43200   6.372  11.144   1.392
73386W        W43201  26.013  30.918   4.184
73387W        W43202  33.551  12.340   1.311
73388W        W43203  17.745  20.742  14.883
73389W        W43204  22.113  16.147   0.309
73390W        W43205  24.690  32.403   1.401
73391W        W43206  43.954  10.740   2.391
73392W        W43207  16.739  19.257  11.068
73393W        W43208  32.599  15.284  14.323
73394W        W43209  41.403  42.849  13.453
73395W        W43210   3.920   6.711   3.736
73396W        W43211   1.975  12.258  12.442
73397W        W43212  33.560   7.260   1.256
73398W        W43213  37.996  31.047  14.312
73399W        W43214  37.072  42.338  12.065
73400W        W43215  20.627  19.588   1.267
73401W        W43216   1.950  13.143  12.544
73402W        W43217  22.688  27.076   1.813
73403W        W43218  18.777  23.209   4.659
73404W        W43219  30.490   2.879  10.949
73405W        W43220  36.067  42.280   1.218
73406W        W43221  27.545   6.743  11.596
73407W        W43222  41.892  26.198   0.275
73408W        W43223  15.811  20.145   0.780
73409W        W43224   0.838  39.979  12.361
73410W        W43225  31.051  38.479   1.695
73411W        W43226  29.965  21.190   3.846
73412W        W43227  43.498   7.380   4.211
73413W        W43228   6.844  29.953   3.716
73414W        W43229  39.970  40.848  10.901
73415W        W43230  31.898  24.101  12.974
73416W        W43231  22.210  30.424  12.983
73417W        W43232  38.000  15.155   2.178
73418W        W43233  40.353  30.521   2.204
73419W        W43234  18.740  31.091   4.316
73420W        W43235  14.262   2.405   3.849
73421W        W43236  25.099  29.096   2.370
73422W        W43237   2.298   0.370  11.434
73423W        W43238   7.868  17.275  13.317
73424W        W43239   9.657  20.174  11.423
73425W        W43240  33.403  30.438  10.547
73426W        W43241   8.794  22.121  14.848
73427W        W43242  44.858  31.404  11.526
73428W        W43243  20.748  42.840   4.216
73429W        W43244   1.341  36.532   1.884
73430W        W43245  37.041  27.188  13.461
73431W        W43246  11.798   8.655   4.306
73432W        W43247  20.680  34.522   3.659
73433W        W43248   8.818  11.316  13.995
73434W        W43249   6.309   5.814  13.503
73435W        W43250   8.793  29.561   0.474
73436W        W43251   3.855  13.707  10.914
73437W        W43252  35.058  22.026   1.373
73438W        W43253  31.474  20.615   2.823
73439W        W43254  21.642   3.876   2.822
73440W        W43255  42.377  16.309   5.616
73441W        W43256  32.497  29.973   4.248
73442W        W43257  41.527   6.881   0.305
73443W        W43258  19.546  18.098   2.241
73444W        W43259  36.030  23.681   0.764
73445W        W43260  31.977  20.553   1.800
73446W        W43261   7.771   6.210   0.876
73447W        W43262  34.434  38.499  13.422
73448W        W43263   8.809  27.949   0.859
73449W        W43264  43.950   0.404  12.432
73450W        W43265  30.120  31.952   4.346
73451W        W43266   4.870  44.369   1.286
73452W        W43267  23.728  32.063   1.430
73453W        W43268  32.624  27.493   1.381
73454W        W43269  22.634   9.243   1.275
73455W        W43270  40.406  37.433  10.005
73456W        W43271  35.478   8.875   3.300
73457W        W43272  15.220  37.410   3.303
73458W        W43273   2.471   5.216  12.380
73459W        W43274  21.734  33.080   1.348
73460W        W43275  16.774  31.630   1.269
73461W        W43276  33.099  12.852   0.314
73462W        W43277  39.032   3.912  13.989
73463W        W43278  13.162  29.106  14.278
73464W        W43279  39.847  26.483   1.857
73465W        W43280   2.297   7.900   4.201
73466W        W43281  32.609  40.371  10.938
73467W        W43282  39.900  37.529  11.609
73468W        W43283   8.828   0.452  11.542
73469W        W43284  25.165  37.565   1.907
73470W        W43285  20.531   3.880   3.665
73471W        W43286  27.120  40.470   0.475
73472W        W43287  42.431  41.338  11.900
73473W        W43288  29.948  41.479   2.762
73474W        W43289  20.120  10.246   3.829
73475W        W43290  20.169   2.444  14.498
73476W        W43291  22.635  29.552   1.920
73477W        W43292  18.580   3.749  13.969
73478W        W43293  26.460   9.776   5.763
73479W        W43294   2.388  12.129   2.285
73480W        W43295  19.254  23.716   3.277
73481W        W43296  30.573  28.092  14.826
73482W        W43297  15.234  26.666   3.166
73483W        W43298  35.036   4.882   1.923
73484W        W43299   0.905  41.898   0.929
73485W        W43300  15.323   6.408   0.254
73486W        W43301  27.547  19.055   4.149
73487W        W43302  25.591  14.103   2.797
73488W        W43303  34.516  36.924   3.183
73489W        W43304  13.672  22.563  11.066
73490W        W43305  44.807  12.224   0.429
73491W        W43306   7.408  44.284  11.463
73492W        W43307  40.805  12.788  11.949
73493W        W43308  36.434  28.480   1.866
73494W        W43309  39.541   0.492   2.244
73495W        W43310  23.170  30.972  10.590
73496W        W43311  21.201  29.641   2.402
73497W        W43312  31.550  22.677   0.253
73498W        W43313  31.151  36.081   2.788
73499W        W43314  28.099   8.372  11.038
73500W        W43315  31.989  16.268  13.979
73501W        W43316   9.182  30.953   3.848
73502W        W43317  25.713  22.619  10.505
73503W        W43318  32.031   6.276   4.291
73504W        W43319  25.148  19.579   4.637
73505W        W43320  37.920  30.651  14.374
73506W        W43321  10.732  35.447  10.466
73507W        W43322  16.623  24.697   4.797
73508W        W43323   7.312  43.786   3.748
73509W        W43324   0.851  21.052  11.482
73510W        W43325  32.937  32.533   2.799
73511W        W43326  34.867   5.391   0.929
73512W        W43327   0.263   4.392   3.858
73513W        W43328  41.300  31.451  11.601
73514W        W43329  15.282  43.934  14.437
73515W        W43330  26.986  39.853   4.619
73516W        W43331  21.553  42.994   1.256
73517W        W43332  13.312  36.363   3.776
73518W        W43333  38.370  18.693  10.935
73519W        W43334  39.340  44.957   3.289
73520W        W43335   1.399  29.096   1.838
73521W        W43336   4.710  42.815  14.983
73522W        W43337   8.368  21.141  10.946
73523W        W43338   0.313   9.390  11.042
73524W        W43339  40.982  19.691  11.532
73525W        W43340  44.822  37.574  11.081
73526W        W43341  17.195  41.814  14.356
73527W        W43342  11.282  20.076  10.028
73528W        W43343  24.530   9.187  11.590
73529W        W43344  22.535  14.829   1.391
73530W        W43345  19.054   5.210   1.359
73531W        W43346  14.820  37.904  13.497
73532W        W43347   3.932   3.765  13.041
73533W        W43348  44.901  24.162  12.897
73534W        W43349  44.919  16.654  11.470
73535W        W43350  40.979  33.456  13.813
73536W        W43351   9.218   4.414  13.330
73537W        W43352  44.444  36.415  13.815
73538W        W43353   3.715  28.156   3.150
73539W        W43354  34.509  18.163   0.763
73540W        W43355  26.155   8.287   1.852
73541W        W43356  14.233   3.411   5.201
73542W        W43357   2.450   4.346  12.890
73543W        W43358  24.489  44.838   0.898
73544W        W43359  23.064  41.011  13.429
73545W        W43360  33.965   9.728  13.535
73546W        W43361  44.840  12.336   4.665
73547W        W43362   0.917  38.360  11.451
73548W        W43363  24.189  19.061  10.134
73549W        W43364  18.192  14.206   3.782
73550W        W43365  22.205  44.793   5.095
73551W        W43366  19.571  37.009   3.349
73552W        W43367  15.184  32.984  13.443
73553W        W43368  25.210  22.741   3.711
73554W        W43369  16.251   3.709  13.831
73555W        W43370  19.151  36.397   2.313
73556W        W43371  17.208  10.758  12.461
73557W        W43372   0.319  13.317  11.888
73558W        W43373  32.478   8.729   0.329
73559W        W43374  39.543  33.995  11.040
73560W        W43375  16.660   8.188  11.093
73561W        W43376   8.894  38.056   1.262
73562W        W43377  23.623  37.513  12.912
73563W        W43378   4.393  42.506   3.145
73564W        W43379  21.137  35.430   2.357
73565W        W43380   7.269   0.393  10.406
73566W        W43381  40.893  29.134   0.930
73567W        W43382  34.414  32.096   3.737
73568W        W43383  16.635  44.457  11.408
73569W        W43384  15.163  40.358   0.747
73570W        W43385  12.706   8.747  12.406
73571W        W43386  37.946  21.206  11.887
73572W        W43387  40.443  32.131   2.700
73573W        W43388  31.987  36.025  11.982
73574W        W43389  44.271  23.570  14.470
73575W        W43390  25.650  19.540   2.189
73576W        W43391  27.610   2.920  13.050
73577W        W43392  38.551   6.760   5.297
73578W        W43393  12.298   4.864   2.868
73579W        W43394  31.629  33.983   1.916
73580W        W43395  33.443  40.015   9.930
73581W        W43396  10.868  10.256  13.875
73582W        W43397  20.628  23.121   4.341
73583W        W43398   4.777   2.817   2.773
73584W        W43399  41.879   5.805  12.497
73585W        W43400   3.872  40.379  10.636
73586W        W43401   4.933  13.226   3.260
73587W        W43402  44.504  30.579   1.366
73588W        W43403  44.316  39.541  10.472
73589W        W43404  44.898  23.588   0.904
73590W        W43405  24.647  28.984   2.861
73591W        W43406  43.280   9.645  11.882
73592W        W43407  40.325  36.902  13.871
73593W        W43408  29.577  33.421  12.531
73594W        W43409  39.990  42.461  13.048
73595W        W43410  18.163   1.769   4.600
73596W        W43411  23.025  44.303   3.225
73597W        W43412   2.363  37.929  14.448
73598W        W43413  28.945   4.261   2.342
73599W        W43414  40.978  25.995   3.296
73600W        W43415   6.913  44.278  13.400
73601W        W43416   9.826  10.251  13.819
73602W        W43417  33.021  15.240  13.013
73603W        W43418  40.877  28.580   1.870
73604W        W43419  37.564  41.451  14.814
73605W        W43420   1.833  28.592   3.274
73606W        W43421   8.218   5.206  13.901
73607W        W43422   3.353  23.049  12.903
73608W        W43423   0.954  11.164   1.848
73609W        W43424   2.378  16.207   0.787
73610W        W43425  27.158  28.949  13.366
73611W        W43426  31.512  17.660   1.228
73612W        W43427  42.909  40.049   3.763
73613W        W43428  32.540   7.870   2.305
73614W        W43429  15.150   4.871  11.465
73615W        W43430  30.962  32.542  14.397
73616W        W43431  34.900  11.660  10.981
73617W        W43432  21.541   7.806   3.312
73618W        W43433   0.265  15.756   1.726
73619W        W43434  44.769  32.632   3.212
73620W        W43435  27.657  25.101  12.945
73621W        W43436  34.551  33.561  14.292
73622W        W43437   2.397  30.439   5.266
73623W        W43438  29.640  25.619   1.443
73624W        W43439  20.265   0.426  14.371
73625W        W43440  25.679   3.815   4.616
73626W        W43441  37.867  24.606   3.288
73627W        W43442  26.516  28.503   0.929
73628W        W43443  38.994  35.877   4.810
73629W        W43444  15.089  10.857   2.850
73630W        W43445  27.454  40.010  11.970
73631W        W43446  16.303  22.044  10.427
73632W        W43447  31.545  40.015   4.696
73633W        W43448  44.884   5.392   2.362
73634W        W43449  17.113  31.074   2.677
73635W        W43450  17.596  32.533  13.362
73636W        W43451   6.863   4.900  10.428
73637W        W43452  23.540  29.989  10.527
73638W        W43453  39.495  17.126  13.496
73639W        W43454  14.603  18.100  13.045
73640W        W43455  13.642  10.771   2.263
73641W        W43456   0.360  31.043   3.177
73642W        W43457  31.458  14.314   4.334
73643W        W43458   1.737  43.949  12.003
73644W        W43459   1.838  20.214  12.034
73645W        W43460   8.404  39.533  11.387
73646W        W43461  18.202  33.550  14.292
73647W        W43462  44.906  29.941  12.021
73648W        W43463  20.589  25.527   4.230
73649W        W43464  33.424  19.103  11.441
73650W        W43465  23.080  21.067   5.163
73651W        W43466  28.104  28.155  11.883
73652W        W43467   0.483  24.984  11.867
73653W        W43468  29.488  38.994   0.360
73654W        W43469  23.208  44.975   4.799
73655W        W43470   6.915  19.135   2.703
73656W        W43471  20.639   4.329  10.442
73657W        W43472  26.527  22.090   2.312
73658W        W43473  40.859  23.059  11.049
73659W        W43474  14.633  16.721   1.805
73660W        W43475   1.788  11.240   2.246
73661W        W43476   8.375   2.924  11.867
73662W        W43477  15.094  18.740   3.737
73663W        W43478   4.874  28.659  11.585
73664W        W43479  10.160   0.348   0.302
73665W        W43480   2.733  38.430  14.981
73666W        W43481  23.023  37.573  10.116
73667W        W43482  35.508  27.056   1.449
73668W        W43483   8.261  29.585  13.344
73669W        W43484   9.238  43.788  13.893
73670W        W43485   5.261  28.503   3.149
73671W        W43486   2.904  14.274   1.704
73672W        W43487   6.341  25.646  12.347
73673W        W43488  37.874  34.371   2.688
73674W        W43489   2.360   5.877  10.149
73675W        W43490  21.056  22.245   2.807
73676W        W43491   4.770  24.551  14.936
73677W        W43492  28.533  35.927  10.893
73678W        W43493   6.900  34.519   4.609
73679W        W43494  25.547  25.029   1.740
73680W        W43495  39.924  35.058   1.340
73681W        W43496  36.454  30.584   2.817
73682W        W43497  38.894  32.133  13.837
73683W        W43498  35.998   2.261   0.915
73684W        W43499  26.031  29.617   0.773
73685W        W43500  28.116  37.997   0.829
73686W        W43501  35.872   5.430  13.006
73687W        W43502  26.628  20.705  11.081
73688W        W43503  16.142  22.996   1.229
73689W        W43504  19.608   8.775   2.411
73690W        W43505  20.612  17.662   4.196
73691W        W43506  23.107  16.095   0.871
73692W        W43507  29.947  18.741  13.982
73693W        W43508  20.030  26.208  11.502
73694W        W43509  40.357  23.111   2.711
73695W        W43510  39.890   5.792   0.471
73696W        W43511  34.926  41.947  14.020
73697W        W43512   1.355  15.596   3.218
73698W        W43513  11.626  33.085  14.871
73699W        W43514  23.036   2.457   3.267
73700W        W43515  18.123  41.343   1.910
73701W        W43516   0.830  32.904  10.995
73702W        W43517  37.474  28.646  12.526
73703W        W43518  13.733  18.778   2.710
73704W        W43519   3.842  42.956  10.044
73705W        W43520  15.664  24.076   0.854
73706W        W43521  29.570  22.221  13.983
73707W        W43522  14.320   3.951   2.247
73708W        W43523   3.726  44.770  14.393
73709W        W43524  24.101  43.779   3.229
73710W        W43525   2.388  18.707   2.808
73711W        W43526  35.459  31.608   4.145
73712W        W43527  23.210  23.728   1.315
73713W        W43528  44.287  38.837   1.249
73714W        W43529  43.891   4.311   1.258
73715W        W43530  35.490   9.354   0.861
73716W        W43531   8.247  38.411   9.516
73717W        W43532  44.357   8.725   0.864
73718W        W43533  30.091  41.509  12.906
73719W        W43534  34.538   7.690  14.507
73720W        W43535  26.602  39.369  11.503
73721W        W43536   6.219  36.011  14.767
73722W        W43537  36.047  33.022   5.319
73723W        W43538  40.500  40.798  13.991
73724W        W43539  18.640  38.028  13.875
73725W        W43540  16.804  31.581   1.717
73726W        W43541   1.749  25.044   1.920
73727W        W43542  19.056  37.995  10.481
73728W        W43543  30.517   5.772   3.190
73729W        W43544  40.549  14.736   2.238
73730W        W43545  19.583  41.998   4.302
73731W        W43546  28.145  16.709   0.733
73732W        W43547  27.104   3.905  12.580
73733W        W43548  14.664  40.935  11.463
73734W        W43549  41.399  23.496  12.929
73735W        W43550  10.254  41.468  10.916
73736W        W43551  36.363  39.955  11.582
73737W        W43552  24.179  11.647   4.142
73738W        W43553  43.799  40.050   3.221
73739W        W43554  27.950  40.002  12.552
73740W        W43555  36.046  34.587  11.408
73741W        W43556  17.282   6.342  10.567
73742W        W43557  21.700  15.663  11.110
73743W        W43558   5.340  35.410  13.320
73744W        W43559  22.545   4.340   1.743
73745W        W43560   7.889  28.116   9.950
73746W        W43561   8.759  31.989  10.610
73747W        W43562  10.298  14.132   3.357
73748W        W43563   1.442  21.127   2.720
73749W        W43564  36.558  28.578  14.766
73750W        W43565  21.735  43.947  12.980
73751W        W43566  39.552  37.977   0.869
73752W        W43567  14.335  37.896  13.845
73753W        W43568  38.369   7.710  10.953
73754W        W43569  31.905   0.844   1.301
73755W        W43570  16.714  42.960  13.897
73756W        W43571  15.237  37.459   0.863
73757W        W43572   3.314   0.863  10.630
73758W        W43573   6.364  42.945   1.381
73759W        W43574   8.690  13.125  11.530
73760W        W43575  13.193  22.115   2.340
73761W        W43576   3.741  43.860  13.518
73762W        W43577  15.157  39.817   3.250
73763W        W43578  21.257  38.877   0.766
73764W        W43579  28.624  21.535  10.578
73765W        W43580   0.916  33.121  10.643
73766W        W43581  16.583  15.641  14.296
73767W        W43582  39.336  23.166   4.776
73768W        W43583  18.079  31.149   1.743
73769W        W43584  28.090  28.108  10.518
73770W        W43585  41.949  19.689  12.365
73771W        W43586  29.976  18.706   2.706
73772W        W43587  44.372  29.125   5.226
73773W        W43588   5.341  12.258  10.608
73774W        W43589  30.495   4.307   3.661
73775W        W43590  25.699   9.665  14.992
73776W        W43591  29.965  20.729  14.939
73777W        W43592  41.382  30.963   1.720
73778W        W43593  19.775  26.002  13.890
73779W        W43594  12.350   6.864  13.462
73780W        W43595  44.935  36.362  11.520
73781W        W43596   4.752   5.199  10.533
73782W        W43597  26.034  36.855  10.983
73783W        W43598  27.057  43.386  14.854
73784W        W43599  22.610  22.541  11.035
73785W        W43600  41.971   7.840   0.435
73786W        W43601  24.120  23.622  13.371
73787W        W43602   5.792  28.989   3.669
73788W        W43603   5.858  15.315   0.295
73789W        W43604  33.397  13.685  13.801
73790W        W43605  30.636  37.080  12.898
73791W        W43606  32.630  20.623  14.317
73792W        W43607   4.728  43.782  10.586
73793W        W43608  25.048   2.342   2.894
73794W        W43609  38.349   1.449  11.044
73795W        W43610  19.606  33.131   2.370
73796W        W43611   1.377  29.972  12.397
73797W        W43612  31.920  24.030   0.403
73798W        W43613  25.629   0.965  13.013
73799W        W43614   9.869  35.947  13.511
73800W        W43615   2.352  14.277  13.351
73801W        W43616   7.210  22.590   4.735
73802W        W43617  43.004  29.032   3.794
73803W        W43618  41.364  31.135  13.027
73804W        W43619   7.849  39.875   3.681
73805W        W43620  11.207  29.115   4.617
73806W        W43621   4.377  22.065   2.888
73807W        W43622   3.927  30.492   5.083
73808W        W43623   0.756  24.580   0.727
73809W        W43624  44.982  14.730   1.283
73810W        W43625  35.444  10.299  14.451
73811W        W43626  18.090  42.819   0.290
73812W        W43627  43.454  26.005   4.177
73813W        W43628  36.903  24.573   2.899
73814W        W43629  14.761  16.660   0.864
73815W        W43630   5.847  13.260   1.875
73816W        W43631  39.321  30.462   1.833
73817W        W43632  40.851   6.894  13.393
73818W        W43633  30.553  17.084   2.237
73819W        W43634   1.958  26.630   3.684
73820W        W43635   2.895  18.251   0.405
73821W        W43636  37.037  19.725   2.392
73822W        W43637  35.081  38.556   3.652
73823W        W43638  24.082   7.205  14.838
73824W        W43639  12.629  42.008   1.739
73825W        W43640  32.101   9.769   2.894
73826W        W43641  10.783   7.705  13.511
73827W        W43642  39.542  25.002  12.011
73828W        W43643   5.328   4.936  10.621
73829W        W43644  27.197  40.887  14.461
73830W        W43645   0.363   6.778  12.493
73831W        W43646  31.478  15.714  11.605
73832W        W43647  19.232  29.593   4.241
73833W        W43648   7.181  24.009   3.306
73834W        W43649  11.724  39.001   5.236
73835W        W43650  11.188  24.082  11.455
73836W        W43651  42.339  18.709   0.864
73837W        W43652  33.605  22.688  14.924
73838W        W43653  27.559   3.914   2.236
73839W        W43654  18.101  17.084   1.337
73840W        W43655  33.453  43.469   0.414
73841W        W43656  30.111  29.169  13.478
73842W        W43657   1.835  43.442   0.832
73843W        W43658  11.829  28.007  13.816
73844W        W43659  34.419  30.494  12.390
73845W        W43660  41.935  41.907   3.712
73846W        W43661  41.992  33.044  14.895
73847W        W43662  43.895  37.479   1.712
73848W        W43663  18.596   3.321  14.452
73849W        W43664  36.417   3.334   2.368
73850W        W43665  36.008  10.283   1.853
73851W        W43666  24.201   8.360  13.437
73852W        W43667  40.505  10.774  13.363
73853W        W43668  42.311   0.956  14.775
73854W        W43669   5.409  11.695   4.633
73855W        W43670  21.713  43.794  10.104
73856W        W43671  24.101  21.648  12.008
73857W        W43672  25.036  41.345   2.261
73858W        W43673  36.545  15.779  10.916
73859W        W43674   9.669  10.326   2.679
73860W        W43675  43.947  33.420  12.463
73861W        W43676  29.467  43.825  13.873
73862W        W43677   3.764   8.731   4.618
73863W        W43678  29.100   4.280  14.976
73864W        W43679   2.812  13.129  12.836
73865W        W43680  32.894  19.593  14.459
73866W        W43681  17.794  39.962   3.338
73867W        W43682  13.753   6.853  12.034
73868W        W43683   3.341  32.118   0.937
73869W        W43684  19.738  18.668  13.547
73870W        W43685   6.714  27.461  12.056
73871W        W43686  37.390  34.889   1.259
73872W        W43687  30.015  21.210   0.321
73873W        W43688  31.026  38.843   0.393
73874W        W43689  33.623  39.461  12.392
73875W        W43690   7.213  21.225   3.851
73876W        W43691  43.905  42.522  14.382
73877W        W43692  20.249  12.696  14.872
73878W        W43693   1.267  16.667  14.891
73879W        W43694  37.361   9.760   4.122
73880W        W43695  13.641  39.039   1.249
73881W        W43696  38.336  33.980   0.782
73882W        W43697   3.768  26.196   4.710
73883W        W43698  13.241  42.458   1.884
73884W        W43699  38.840  19.712   2.218
73885W        W43700  27.981  16.216  14.482
73886W        W43701  31.012  36.923   2.325
73887W        W43702  42.496  15.585  11.071
73888W        W43703  28.025  24.524  11.544
73889W        W43704  38.846  17.760   0.952
73890W        W43705  22.554  33.927  13.833
73891W        W43706  31.118   0.931   4.350
73892W        W43707  10.235   6.802   0.301
73893W        W43708  18.277  38.892   4.668
73894W        W43709  10.730  24.027   0.301
73895W        W43710  41.827  40.429   4.631
73896W        W43711  34.372  12.122  11.422
73897W        W43712  33.433  20.187  12.555
73898W        W43713  29.630  21.038   4.767
73899W        W43714   5.708  41.387  14.782
73900W        W43715  24.051   6.234  11.400
73901W        W43716  13.215  24.202  12.568
73902W        W43717  36.439  34.092   5.790
73903W        W43718   9.737   0.938   3.249
73904W        W43719  44.489  19.130   1.882
73905W        W43720  17.629  41.349  13.923
73906W        W43721  19.136  38.887   3.363
73907W        W43722  17.669   9.680   4.146
73908W        W43723  31.123   1.849   0.390
73909W        W43724  23.138   9.806  13.838
73910W        W43725   9.368  33.429   0.886
73911W        W43726  16.757  26.047  14.309
73912W        W43727  39.990  36.586  14.004
73913W        W43728   7.695  42.016   2.704
73914W        W43729  13.772  22.532  14.966
73915W        W43730   4.825  10.214  14.829
73916W        W43731  33.407  12.192  13.459
73917W        W43732  34.462   4.857  12.558
73918W        W43733  17.253  38.438  11.870
73919W        W43734  32.529  43.977   1.838
73920W        W43735  19.059  33.498   4.197
73921W        W43736  34.534   9.880   1.790
73922W        W43737   3.282  14.622   2.292
73923W        W43738  35.518  30.111  14.866
73924W        W43739  27.620  21.517   2.308
73925W        W43740  34.887  19.569  12.390
73926W        W43741  41.489  17.105   3.337
73927W        W43742  14.711  43.922   4.164
73928W        W43743  39.527  10.368   2.353
73929W        W43744  32.554  26.622   2.730
73930W        W43745   5.290   4.908  14.977
73931W        W43746  11.296  13.715   2.256
73932W        W43747   2.873  13.802  10.472
73933W        W43748  36.930  29.626  10.896
73934W        W43749   1.472  34.009  14.418
73935W        W43750  21.053   8.404   1.873
73936W        W43751   1.435  33.543  14.285
73937W        W43752  19.086  20.039  10.512
73938W        W43753   4.349  24.005  11.093
73939W        W43754   0.807   2.896   2.725
73940W        W43755   1.403  39.955  13.904
73941W        W43756  36.538   5.880   1.430
73942W        W43757  29.617  25.056   2.778
73943W        W43758  21.143   4.228   1.212
73944W        W43759  10.839  38.435  14.814
73945W        W43760  28.665   4.215  13.846
73946W        W43761  19.727  31.970  14.509
73947W        W43762  40.039  43.494   0.946
73948W        W43763  20.053  23.143   0.951
73949W        W43764  32.122  32.993  12.095
73950W        W43765  36.575  35.975  14.921
73951W        W43766  36.909  24.595  14.933
73952W        W43767  26.082   5.880  12.840
73953W        W43768   9.784  35.389   0.334
73954W        W43769  29.163  40.871  12.015
73955W        W43770  19.257  43.505  12.988
73956W        W43771  38.049  41.004   1.211
73957W        W43772  30.924   1.897   3.861
73958W        W43773  12.660   8.344   1.845
73959W        W43774  39.813  32.134   3.214
73960W        W43775  24.034  17.089   4.271
73961W        W43776  30.487   4.256  10.632
73962W        W43777  11.331   6.413   2.738
73963W        W43778   4.297  42.023   3.741
73964W        W43779  26.478  27.952  11.539
73965W        W43780  33.926  23.569   4.159
73966W        W43781  43.814  11.810   4.628
73967W        W43782  43.846  11.132   4.177
73968W        W43783  18.749   8.395   4.688
73969W        W43784  16.796  33.534  10.933
73970W        W43785  44.502  38.930  12.832
73971W        W43786  31.078   9.658   3.797
73972W        W43787  34.870  33.488   3.689
73973W        W43788  35.906  41.976   4.767
73974W        W43789  18.733   9.871  10.933
73975W        W43790  10.711   5.250   1.375
73976W        W43791  10.313  24.552   2.362
73977W        W43792  26.090  36.424  13.534
73978W        W43793  12.660  32.430  11.947
73979W        W43794   6.298  40.863   2.315
73980W        W43795  24.601  38.357  12.483
73981W        W43796  42.429  33.051   0.329
73982W        W43797   4.862   2.846  12.579
73983W        W43798  17.086  36.962   4.615
73984W        W43799   0.282  38.864   4.676
73985W        W43800   3.883   3.827  11.584
73986W        W43801   0.902  13.721   2.284
73987W        W43802  44.381  33.895  10.408
73988W        W43803  24.653   3.773  13.539
73989W        W43804  39.404  30.560   4.277
73990W        W43805  16.661  39.365   0.881
73991W        W43806  18.781  26.545  14.405
73992W        W43807  36.538  22.995  10.989
73993W        W43808   4.375  12.826   1.289
73994W        W43809   1.471   0.823   3.693
73995W        W43810  40.515  29.549  13.547
73996W        W43811  37.975  42.452   2.261
73997W        W43812  21.702  13.329   3.768
73998W        W43813  34.916  16.752  14.827
73999W        W43814  17.766  25.551   1.341
74000W        W43815  41.844  25.060   3.291
74001W        W43816  22.686  14.095  12.068
74002W        W43817  18.745  32.041   4.215
74003W        W43818   5.863  42.987  11.090
74004W        W43819  44.856  35.536   4.354
74005W        W43820  23.610  18.285  12.860
74006W        W43821   4.341  24.606  10.956
74007W        W43822  10.145  40.390   4.200
74008W        W43823  24.216  44.433  10.004
74009W        W43824  11.294  19.260   2.394
74010W        W43825  43.369  39.507   0.865
74011W        W43826  32.972  20.114  11.544
74012W        W43827  16.606  15.733   2.664
74013W        W43828  24.011  21.674   4.614
74014W        W43829   1.883  20.742   2.807
74015W        W43830  38.950  38.546  11.604
74016W        W43831  19.087   5.775  12.439
74017W        W43832  29.582  39.371  11.868
74018W        W43833  44.955  30.554   4.761
74019W        W43834  41.371  12.354   2.748
74020W        W43835  41.864  40.918  12.450
74021W        W43836  28.553  30.113   0.355
74022W        W43837   2.460  23.167   2.295
74023W        W43838  13.651   4.379   1.442
74024W        W43839  35.000  37.002  12.559
74025W        W43840  20.766  13.837   3.750
74026W        W43841   6.210  32.457  14.013
74027W        W43842   5.312  12.778  14.291
74028W        W43843  20.749  12.220  13.417
74029W        W43844   3.368   0.866   0.342
74030W        W43845  36.999  27.569   0.418
74031W        W43846  41.796  19.544  11.121
74032W        W43847  18.223   3.403   4.736
74033W        W43848   1.902  11.212   3.347
74034W        W43849  30.420  27.164   4.629
74035W        W43850   9.288  26.544   2.673
74036W        W43851  12.726  43.382  13.527
74037W        W43852  26.048  18.181   2.857
74038W        W43853  18.176   8.687  12.843
74039W        W43854  15.795  10.877  11.024
74040W        W43855  15.301  36.011   4.194
74041W        W43856  14.683  14.216  14.464
74042W        W43857  19.130  24.022   4.216
74043W        W43858   0.282  17.620  12.550
74044W        W43859   3.816   4.815  11.902
74045W        W43860  39.415  16.093  14.318
74046W        W43861  34.006  43.956   0.437
74047W        W43862  39.953  26.621   2.769
74048W        W43863  30.081  34.980  10.980
74049W        W43864  23.639  41.906  13.976
74050W        W43865  18.656   4.906  12.889
74051W        W43866   6.897  23.648   4.197
74052W        W43867   9.365  33.379  13.930
74053W        W43868  18.715   4.288  13.340
74054W        W43869  17.068  21.219   3.179
74055W        W43870  40.926  29.967  10.507
74056W        W43871  27.943   4.756  12.999
74057W        W43872   5.230  17.087   2.884
74058W        W43873   5.804  24.199  10.513
74059W        W43874  41.355  31.532   0.925
74060W        W43875  23.163   9.233  12.970
74061W        W43876  31.441  21.122  10.160
74062W        W43877  23.077  36.364  11.513
74063W        W43878  12.149  23.594   2.750
74064W        W43879  31.931  33.390   5.321
74065W        W43880  23.217   2.760   4.721
74066W        W43881  16.696  37.558  12.375
74067W        W43882  16.740  17.581   1.262
74068W        W43883  24.192  27.546  13.379
74069W        W43884   8.802  27.537   3.337
74070W        W43885  22.543  22.096  14.908
74071W        W43886  32.608  16.291   1.312
74072W        W43887   8.401  43.335  14.337
74073W        W43888  29.578  36.033   3.282
74074W        W43889  43.943  37.396   3.852
74075W        W43890  15.097   2.233  10.975
74076W        W43891  34.444  38.853  10.516
74077W        W43892  31.137   0.343  11.064
74078W        W43893  37.506  10.145   5.298
74079W        W43894  43.963  11.132  14.024
74080W        W43895  25.705   5.837  14.995
74081W        W43896  10.287   6.283  13.813
74082W        W43897  23.706  21.595   4.774
74083W        W43898  32.107  12.773  11.413
74084W        W43899  10.253  18.581   3.297
74085W        W43900  37.396  32.397  13.403
74086W        W43901  25.608   7.668  14.958
74087W        W43902  37.835  43.444   2.409
74088W        W43903   3.892  10.372   0.820
74089W        W43904  19.679  37.419  12.399
74090W        W43905   4.701   3.720  11.106
74091W        W43906  39.388  18.177   4.800
74092W        W43907  42.004   1.907   4.133
74093W        W43908  29.652  10.242   2.392
74094W        W43909  15.266  26.021  13.443
74095W        W43910  10.774   9.161  12.982
74096W        W43911  28.455  24.698   2.686
74097W        W43912  15.684  27.175  11.971
74098W        W43913  11.785   1.406  11.559
74099W        W43914  30.431  33.622  14.025
74100W        W43915  22.032   4.785   0.313
74101W        W43916   9.721  25.022  13.384
74102W        W43917  42.312   4.827  11.875
74103W        W43918  36.426   3.339   0.437
74104W        W43919   3.275  40.481  10.966
74105W        W43920  23.658   0.256  13.862
74106W        W43921   2.296   2.269  13.381
74107W        W43922  33.017   7.748   4.820
74108W        W43923  23.718   4.815  12.058
74109W        W43924  31.453  30.066   2.725
74110W        W43925  23.185  21.567  11.464
74111W        W43926  38.455  20.236  12.966
74112W        W43927   3.334  15.189   4.696
74113W        W43928  35.598  33.488   4.218
74114W        W43929  31.439  33.524   3.794
74115W        W43930   4.818   3.734  12.489
74116W        W43931  27.017  14.154   1.698
74117W        W43932   2.463   0.891  14.838
74118W        W43933  37.501  25.190  11.451
74119W        W43934  35.417   9.392   3.363
74120W        W43935   1.823  33.925   3.842
74121W        W43936  11.229   2.427   0.258
74122W        W43937   6.838  10.844  14.880
74123W        W43938  18.134  42.521  14.961
74124W        W43939  38.453   8.255   5.686
74125W        W43940   1.389  33.516   1.798
74126W        W43941   6.752  37.567   3.642
74127W        W43942  18.141   2.777   3.870
74128W        W43943  42.899  43.781   3.815
74129W        W43944  30.991  10.796   4.619
74130W        W43945   6.302  13.750  10.511
74131W        W43946   1.834  15.118  13.348
74132W        W43947  24.075  40.327   0.784
74133W        W43948   8.793  44.290   5.189
74134W        W43949   0.872  29.000   4.280
74135W        W43950   6.423  35.455   1.371
74136W        W43951  20.724  41.809   3.297
74137W        W43952  44.297   0.432   3.240
74138W        W43953  42.356  10.849  12.556
74139W        W43954  41.814  32.017  11.603
74140W        W43955   9.691  29.095  10.418
74141W        W43956  28.133  11.654   0.750
74142W        W43957  11.268  19.160  14.299
74143W        W43958   6.409   1.402  12.829
74144W        W43959  29.624  19.263   4.667
74145W        W43960   0.957  26.542   1.726
74146W        W43961  23.138  37.581   2.201
74147W        W43962  41.028  16.779   3.383
74148W        W43963   3.872  44.960   3.218
74149W        W43964   9.160  29.427  13.975
74150W        W43965   0.877  28.994  14.497
74151W        W43966  40.329  36.464   0.890
74152W        W43967  39.425  37.009   1.863
74153W        W43968   9.309  29.128   0.843
74154W        W43969  31.583  32.616  12.856
74155W        W43970  31.957  17.596   4.804
74156W        W43971   4.708   0.286  14.494
74157W        W43972  23.670  38.367   4.663
74158W        W43973  26.616  19.710  14.358
74159W        W43974   2.275   5.887   1.283
74160W        W43975  28.448  16.262   1.230
74161W        W43976  23.173   6.394   2.242
74162W        W43977  43.382  10.196  13.424
74163W        W43978  21.585  12.824  10.482
74164W        W43979  18.728  17.293   1.246
74165W        W43980  11.834  29.941  10.405
74166W        W43981  27.629  18.577   1.925
74167W        W43982  27.976  17.180  14.786
74168W        W43983  26.189  20.156  11.562
74169W        W43984  10.183   3.917   2.386
74170W        W43985  25.029  16.806   0.245
74171W        W43986  13.802  33.045   1.431
74172W        W43987  40.937  34.438  13.526
74173W        W43988   8.767  21.220   1.762
74174W        W43989   4.244  32.493  11.592
74175W        W43990  34.431   8.166  14.881
74176W        W43991  41.924  18.751   3.709
74177W        W43992  31.524  12.271   3.154
74178W        W43993  30.990  24.143  14.381
74179W        W43994   3.844  15.695   5.138
74180W        W43995   6.301  16.208  14.790
74181W        W43996  22.742  10.256  14.982
74182W        W43997  29.059  20.650   4.340
74183W        W43998  30.018   6.721  13.437
74184W        W43999  25.692   9.851   4.182
74185W        W44000   0.889  38.941  10.980
74186W        W44001   6.291  25.216   0.870
74187W        W44002  22.555  19.612   2.360
74188W        W44003  10.689  42.998   5.224
74189W        W44004  38.370   4.267   3.373
74190W        W44005  43.864  42.986  14.021
74191W        W44006  25.666  35.883   5.299
74192W        W44007   0.823  29.140  13.338
74193W        W44008   5.814  40.863   2.668
74194W        W44009   1.419  22.546   3.734
74195W        W44010  34.072  43.860   3.234
74196W        W44011  11.823  25.602  11.049
74197W        W44012  40.807  38.014  11.945
74198W        W44013  41.328  26.155   0.331
74199W        W44014  35.480  14.617  14.280
74200W        W44015  27.589  12.304  10.417
74201W        W44016  12.182   4.716   0.877
74202W        W44017  33.380  17.289  11.406
74203W        W44018   9.866  32.089   5.166
74204W        W44019  38.989  26.543   4.265
74205W        W44020  10.302  17.747  11.493
74206W        W44021  32.054  41.900   0.928
74207W        W44022  35.855  35.486   2.751
74208W        W44023  14.766  16.744  14.281
74209W        W44024   3.886   7.194  13.045
74210W        W44025  40.426  11.307  14.811
74211W        W44026  38.523   9.820   0.857
74212W        W44027  20.172  26.503   4.260
74213W        W44028  20.636  38.821  12.539
74214W        W44029   0.265   8.889  11.388
74215W        W44030   3.911   1.469   4.252
74216W        W44031  35.436  17.084  11.952
74217W        W44032  25.083  39.509  13.382
74218W        W44033  21.713  32.435   0.251
74219W        W44034  37.383   7.707  14.427
74220W        W44035  12.359   3.849  13.922
74221W        W44036   5.366   1.792   3.645
74222W        W44037   7.821  34.090   0.325
74223W        W44038  21.757   4.772   0.883
74224W        W44039   7.400  23.049   4.828
74225W        W44040   0.818  24.017   4.677
74226W        W44041   8.661  33.400   0.749
74227W        W44042  19.566   6.762   0.937
74228W        W44043  36.043  21.606  14.387
74229W        W44044  33.483  19.140  10.622
74230W        W44045   0.782  20.589  14.939
74231W        W44046  16.619   4.383   2.211
74232W        W44047  23.600  12.656  14.506
74233W        W44048   2.397  26.149   3.787
74234W        W44049   7.824  29.980   0.455
74235W        W44050   7.172   5.215   1.704
74236W        W44051  17.764  36.925  11.107
74237W        W44052  18.072  32.595  14.312
74238W        W44053   2.359  21.075  10.453
74239W        W44054  35.447   4.727  12.903
74240W        W44055  38.335  15.249  14.863
74241W        W44056  41.921  10.269   3.767
74242W        W44057  24.688   9.863  13.490
74243W        W44058  12.260   1.868  14.361
74244W        W44059  29.602  20.535  12.066
74245W        W44060   0.297  30.147   3.781
74246W        W44061  14.256  37.468  11.013
74247W        W44062  10.655   9.745  14.774
74248W        W44063  41.895  10.681   3.787
74249W        W44064  39.403  43.829  10.975
74250W        W44065  24.037  27.946  14.889
74251W        W44066  40.830   0.852   2.288
74252W        W44067  41.007   2.360   2.387
74253W        W44068   6.194  13.174  14.788
74254W        W44069  19.543  29.620   3.197
74255W        W44070   6.783   4.445   1.747
74256W        W44071  28.954  32.515   0.841
74257W        W44072  22.106  36.503  14.780
74258W        W44073  44.753  24.591  14.319
74259W        W44074  37.938  41.519   1.273
74260W        W44075  35.554   9.852   0.336
74261W        W44076   5.924  32.892  11.389
74262W        W44077  23.603  43.286   2.667
74263W        W44078  39.878  33.516  12.854
74264W        W44079   8.386   4.877  11.877
74265W        W44080  25.191  16.715   4.741
74266W        W44081  38.493  24.122   1.922
74267W        W44082   3.893  41.873  11.516
74268W        W44083   2.910   1.427   0.331
74269W        W44084  32.938  13.321   3.855
74270W        W44085  13.230  21.119   0.958
74271W        W44086  25.671  33.452   3.179
74272W        W44087  41.869  38.887  13.971
74273W        W44088  26.083  40.023  14.931
74274W        W44089  36.085  41.906  14.357
74275W        W44090  10.138   6.422   1.903
74276W        W44091  31.435  13.685  11.949
74277W        W44092  42.282  29.108   0.864
74278W        W44093  37.533  18.208   2.377
74279W        W44094   6.686  36.412   2.854
74280W        W44095  31.486   9.867  14.012
74281W        W44096  28.978   9.861   1.444
74282W        W44097  24.975  25.556   2.367
74283W        W44098  43.422  38.968   3.146
74284W        W44099  34.096  31.537   4.148
74285W        W44100   3.404  13.162  10.904
74286W        W44101  10.231   5.880  10.029
74287W        W44102  40.840   1.343  14.483
74288W        W44103  36.389  34.016   2.714
74289W        W44104  26.518  36.054   0.259
74290W        W44105  22.547  44.446   0.820
74291W        W44106  16.209  44.447   3.387
74292W        W44107  28.648  43.010  10.420
74293W        W44108  37.965  44.343   4.293
74294W        W44109  44.830  13.745   1.279
74295W        W44110   6.725  22.120   4.612
74296W        W44111  19.624   2.368   3.823
74297W        W44112   0.960   5.925  13.492
74298W        W44113  16.799  41.847  11.954
74299W        W44114  18.664  24.620  11.503
74300W        W44115   2.950  35.386   1.237
74301W        W44116   4.235  12.712  10.486
74302W        W44117  29.551  38.412  12.562
74303W        W44118  21.606  32.072   2.389
74304W        W44119   3.895   5.715   3.337
74305W        W44120  25.713  28.981   4.176
74306W        W44121  22.641   7.793   1.725
74307W        W44122  21.664  35.400  13.546
74308W        W44123  19.115  22.136   2.357
74309W        W44124  32.583  33.506  12.991
74310W        W44125  37.533   2.457  14.381
74311W        W44126  39.441  22.735  10.972
74312W        W44127  15.194  44.388  10.590
74313W        W44128   6.820   2.898  12.344
74314W        W44129  41.342   4.304   4.641
74315W        W44130   6.720  14.620   4.320
74316W        W44131   5.773  12.128   2.262
74317W        W44132  14.285  25.476  11.431
74318W        W44133   3.452  26.545   0.916
74319W        W44134  34.928   3.764   2.718
74320W        W44135  15.289  38.543  10.410
74321W        W44136   1.336  23.198   0.355
74322W        W44137  41.314   7.717   3.334
74323W        W44138   4.388   1.322   3.640
74324W        W44139   5.262  26.671  14.359
74325W        W44140  22.106   4.741  13.973
74326W        W44141  22.694  44.319  11.442
74327W        W44142  10.284  30.125  13.366
74328W        W44143  38.467   2.398  11.933
74329W        W44144  10.849  37.378   1.707
74330W        W44145  38.864  41.342  10.551
74331W        W44146  32.130  26.153  11.511
74332W        W44147  31.901  21.548  13.423
74333W        W44148  26.030  20.143  14.853
74334W        W44149  30.926   2.329   3.864
74335W        W44150   0.935  11.863   0.742
74336W        W44151  30.571  44.371   4.742
74337W        W44152  41.387  40.957  13.376
74338W        W44153  30.932  12.685   5.317
74339W        W44154   4.398  22.164  12.941
74340W        W44155  33.959  16.270   2.315
74341W        W44156   1.853  28.574  11.034
74342W        W44157  19.096  20.246  11.415
74343W        W44158  40.317  37.485  12.344
74344W        W44159  37.865  20.734  14.785
74345W        W44160  40.821  19.207  13.313
74346W        W44161  24.665  33.043   4.600
74347W        W44162  12.778  33.021  10.575
74348W        W44163  39.928  12.689  12.048
74349W        W44164  41.043  17.255  11.411
74350W        W44165  24.511   3.320   0.943
74351W        W44166  44.766  36.976  11.924
74352W        W44167  20.549   2.315   1.376
74353W        W44168  11.725  37.510   0.807
74354W        W44169  24.699   0.876  13.482
74355W        W44170  34.564  24.589   4.121
74356W        W44171   3.939  13.321  10.980
74357W        W44172  43.019  39.320  12.367
74358W        W44173  39.901  36.526   1.219
74359W        W44174   8.759  38.874   2.205
74360W        W44175  19.211  13.643  13.948
74361W        W44176   5.831   4.936  13.347
74362W        W44177   6.206  30.087   2.281
74363W        W44178  33.581  17.743  12.345
74364W        W44179   1.331  29.474   0.775
74365W        W44180  15.096   0.442  12.495
74366W        W44181  14.294  29.483  12.832
74367W        W44182  25.965   3.321   1.372
74368W        W44183   9.664  13.842   2.369
74369W        W44184  22.215  26.197  12.411
74370W        W44185  22.098  22.545   1.734
74371W        W44186   6.298   6.869  10.600
74372W        W44187   2.956  32.481   1.339
74373W        W44188  18.782  41.964  13.327
74374W        W44189  20.088  37.433  11.590
74375W        W44190  33.460  11.775  13.946
74376W        W44191  36.878  44.286   0.341
74377W        W44192  33.551  16.676  14.853
74378W        W44193  30.545  32.574  11.082
74379W        W44194   1.952  37.925   0.792
74380W        W44195  27.015  33.099   4.615
74381W        W44196  26.560  42.427   3.643
74382W        W44197  27.002  13.227  11.373
74383W        W44198   0.856  14.824   3.177
74384W        W44199  37.867  23.015   0.368
74385W        W44200  40.029  13.298   1.234
74386W        W44201   0.776   4.827  10.128
74387W        W44202  29.119  16.310  10.984
74388W        W44203  41.840  41.355   1.289
74389W        W44204  33.602   2.315  13.009
74390W        W44205   4.859  21.144   1.307
74391W        W44206  23.585  18.182   4.646
74392W        W44207   3.315  23.665  10.622
74393W        W44208  12.183  19.563   1.736
74394W        W44209  42.497  41.301  12.551
74395W        W44210   1.731   6.190   5.091
74396W        W44211   7.300   5.408   3.831
74397W        W44212  22.015  27.513  11.032
74398W        W44213  35.565   2.337  11.448
74399W        W44214  11.659  26.518  11.017
74400W        W44215  15.200  18.109   1.764
74401W        W44216   4.339  36.923  13.061
74402W        W44217  23.044   6.377  13.388
74403W        W44218   5.237   9.187   3.210
74404W        W44219  24.072  38.556   1.935
74405W        W44220  26.691  19.675   0.780
74406W        W44221  16.079  15.195   3.693
74407W        W44222  15.232  31.538   3.286
74408W        W44223  14.780  41.377  14.296
74409W        W44224  37.471  30.089   2.682
74410W        W44225   5.246  13.233   2.280
74411W        W44226   1.897  33.589   4.211
74412W        W44227  18.715  15.680   3.315
74413W        W44228  33.935  33.405   4.242
74414W        W44229  26.650   2.269   1.333
74415W        W44230   0.413   5.326   2.260
74416W        W44231   3.374  40.467  14.815
74417W        W44232  41.366  28.166  14.371
74418W        W44233  40.305  32.608   2.360
74419W        W44234  42.994  42.424  11.883
74420W        W44235   5.933  34.446   4.610
74421W        W44236  38.843   1.393   5.318
74422W        W44237   8.777  35.932  11.454
74423W        W44238   6.858  21.149   2.314
74424W        W44239   3.747   8.674  12.404
74425W        W44240  14.096  25.528  10.905
74426W        W44241  33.090  17.181  14.407
74427W        W44242   4.397  41.408  12.574
74428W        W44243   4.335  23.490   0.403
74429W        W44244  27.581   5.233  14.815
74430W        W44245   5.373  16.146   0.808
74431W        W44246  25.134  26.491   3.737
74432W        W44247  21.683  23.013   1.866
74433W        W44248  27.468  39.494   0.842
74434W        W44249  35.396  35.854   4.336
74435W        W44250  34.905  17.177  11.961
74436W        W44251  39.821  29.141  11.881
74437W        W44252  32.549  27.561  10.509
74438W        W44253  38.524  25.657   4.719
74439W        W44254  33.060   2.958  13.501
74440W        W44255  29.431  42.890  13.535
74441W        W44256   2.847  14.819  13.420
74442W        W44257  15.648  37.936   3.346
74443W        W44258  21.695  39.825  12.357
74444W        W44259  28.016  23.203  13.384
74445W        W44260  37.944  31.584  10.961
74446W        W44261  22.091  32.585  11.422
74447W        W44262  10.753  31.596  14.875
74448W        W44263  31.540   3.900   4.619
74449W        W44264  28.044  44.281  10.604
74450W        W44265  41.514  35.946   0.343
74451W        W44266  31.927  15.167   1.776
74452W        W44267   7.872  27.101   0.882
74453W        W44268  44.983   4.801   4.197
74454W        W44269   4.802  12.623   3.784
74455W        W44270  20.046  17.209  10.957
74456W        W44271  22.512  36.921   2.350
74457W        W44272  42.412  23.663  11.442
74458W        W44273  42.510  42.032   3.688
74459W        W44274  44.453  33.443  13.954
74460W        W44275  26.610  28.143  13.347
74461W        W44276   3.754  33.109   3.842
74462W        W44277  34.609  16.095  12.364
74463W        W44278  16.079  42.289  11.126
74464W        W44279   6.787  43.823  13.341
74465W        W44280  29.109  28.163  13.002
74466W        W44281  42.436  27.661   4.148
74467W        W44282   1.307   4.214   3.318
74468W        W44283  12.824   7.730   0.765
74469W        W44284   4.809   5.309   3.692
74470W        W44285  38.885  34.406   1.354
74471W        W44286  24.999  30.641   3.670
74472W        W44287  32.097  16.579   0.938
74473W        W44288  23.239  14.614  11.932
74474W        W44289  11.244   0.364   1.431
74475W        W44290  15.603   2.916  10.493
74476W        W44291  42.846  19.125   0.396
74477W        W44292  44.454  23.028   1.718
74478W        W44293  31.041   6.288  13.922
74479W        W44294  35.923  18.152   0.753
74480W        W44295  32.424  17.204  14.410
74481W        W44296  40.379  23.023  11.924
74482W        W44297  33.384  37.846  12.998
74483W        W44298   6.825   7.272  12.074
74484W        W44299  23.017  33.557   4.722
74485W        W44300  37.833  16.315  13.853
74486W        W44301   7.907  43.019   2.391
74487W        W44302  12.142  17.077  10.023
74488W        W44303  38.971   8.187   0.757
74489W        W44304  41.000  14.223   2.689
74490W        W44305  37.412  36.364  10.930
74491W        W44306  11.372  16.156  12.995
74492W        W44307   4.846  29.007  13.992
74493W        W44308   1.396  42.947   0.381
74494W        W44309  10.689   0.385  11.124
74495W        W44310  11.824  35.892   0.948
74496W        W44311  18.266  33.515  12.568
74497W        W44312  25.500  18.049   4.823
74498W        W44313  27.553  42.777  12.568
74499W        W44314  31.031  26.512  13.385
74500W        W44315  41.330  13.651   4.695
74501W        W44316  15.751  25.477   3.330
74502W        W44317  10.779   9.207  13.357
74503W        W44318   3.230  29.540  14.335
74504W        W44319   9.149  41.529  13.963
74505W        W44320  22.198   8.391   3.845
74506W        W44321  33.495  16.737  13.826
74507W        W44322   9.154  13.685   2.790
74508W        W44323   5.194  10.373  12.540
74509W        W44324  36.097  11.668   2.223
74510W        W44325  42.389  44.422  13.453
74511W        W44326  39.008  35.479  14.995
74512W        W44327  21.194   6.755   2.305
74513W        W44328  29.112  26.095   2.290
74514W        W44329  42.341  24.204  12.898
74515W        W44330   4.422  28.062   4.319
74516W        W44331  27.958   0.933   0.883
74517W        W44332  12.696  13.164  13.405
74518W        W44333  19.611  19.193   1.294
74519W        W44334  36.591   5.809   0.774
74520W        W44335  28.619  19.566   4.152
74521W        W44336   9.265  31.429  13.027
74522W        W44337  27.582  17.791  10.452
74523W        W44338  33.970  34.062   3.232
74524W        W44339  36.871   7.776  10.597
74525W        W44340   4.903   7.747   3.674
74526W        W44341  22.688  26.063   0.792
74527W        W44342  33.613  42.326   3.186
74528W        W44343  35.392  39.897  12.884
74529W        W44344  33.935  15.763  13.001
74530W        W44345  31.465   3.811  12.530
74531W        W44346  37.966   5.329   4.820
74532W        W44347  11.164   3.279  11.889
74533W        W44348  14.769  39.065   0.252
74534W        W44349  37.525   7.394  12.880
74535W        W44350  37.490  15.708   3.220
74536W        W44351  28.092  12.235  13.807
74537W        W44352  40.469  33.458   2.821
74538W        W44353   2.805  44.430   0.792
74539W        W44354  16.183  43.867  11.582
74540W        W44355  13.297  36.485   3.342
74541W        W44356  15.668  37.982  10.565
74542W        W44357   7.274  39.826   5.095
74543W        W44358  41.874   1.473  10.619
74544W        W44359  36.560  12.250  10.980
74545W        W44360  34.434  14.263  14.448
74546W        W44361  27.642  30.470  11.075
74547W        W44362  21.709   3.348  13.007
74548W        W44363  41.420   8.887  13.012
74549W        W44364  37.927  10.307   4.120
74550W        W44365   9.308  31.485  14.400
74551W        W44366   1.244  12.706  10.410
74552W        W44367  31.145  11.830  10.596
74553W        W44368  16.645  20.207   3.646
74554W        W44369   3.310  15.621   5.082
74555W        W44370  42.838  41.911   1.804
74556W        W44371  37.390  26.674   4.822
74557W        W44372  18.639  25.654   2.196
74558W        W44373  32.536  19.617  10.999
74559W        W44374  25.648  30.557   2.869
74560W        W44375  28.648   8.372   1.251
74561W        W44376  43.815  33.121  10.429
74562W        W44377   4.280  30.163   4.189
74563W        W44378  22.697  40.950  12.000
74564W        W44379   3.289   8.835   2.755
74565W        W44380  16.097  28.088  12.030
74566W        W44381  39.314  34.046   4.334
74567W        W44382  13.302  35.092  12.823
74568W        W44383  30.473  27.983   1.887
74569W        W44384  35.930  31.050  12.079
74570W        W44385  16.116  21.537   1.764
74571W        W44386  29.453  40.374   3.161
74572W        W44387  17.306   8.789  10.986
74573W        W44388  38.551  11.778  12.439
74574W        W44389  28.026  43.461  11.398
74575W        W44390  44.792  42.356   2.196
74576W        W44391  37.397  19.116   2.368
74577W        W44392  27.058  28.095  12.890
74578W        W44393  17.190  40.546   3.777
74579W        W44394  17.590   5.705  11.528
74580W        W44395  43.338  32.570   4.250
74581W        W44396  37.044  31.910   2.772
74582W        W44397  44.930  15.721   4.340
74583W        W44398  30.065  29.590  13.423
74584W        W44399  37.023  16.624   0.282
74585W        W44400   5.826  36.878  14.828
74586W        W44401  28.016   1.843  12.886
74587W        W44402  30.467  18.758  12.885
74588W        W44403  32.579  32.932  12.029
74589W        W44404  19.725  37.495  14.857
74590W        W44405  13.817  24.139  13.315
74591W        W44406  23.629  15.578   1.347
74592W        W44407  37.886  37.924  11.604
74593W        W44408  36.878  22.238   3.705
74594W        W44409  17.280  11.822   3.708
74595W        W44410  15.325  15.264  13.316
74596W        W44411  26.521  18.762   5.115
74597W        W44412   0.898  12.750   4.809
74598W        W44413  17.781   9.687  10.923
74599W        W44414  20.682  10.273  11.937
74600W        W44415  36.576  14.746   2.879
74601W        W44416  27.450  12.271   9.947
74602W        W44417  36.926  24.107   2.827
74603W        W44418  35.372  22.193   3.188
74604W        W44419  13.191  10.696  10.640
74605W        W44420  40.026  38.035  14.812
74606W        W44421  28.004  26.188  12.444
74607W        W44422  13.788   4.849  13.868
74608W        W44423  21.017  24.679  11.430
74609W        W44424  20.556   0.363   4.213
74610W        W44425  19.132  14.746   3.384
74611W        W44426  22.660   6.757   2.396
74612W        W44427  20.076  27.132   3.663
74613W        W44428  18.555  42.024   3.723
74614W        W44429  31.057  22.163   0.753
74615W        W44430  40.928  34.558   2.708
74616W        W44431  15.813   9.285  11.529
74617W        W44432   2.892  34.946  13.499
74618W        W44433  35.868  26.560   4.766
74619W        W44434  41.396  12.719  11.589
74620W        W44435  32.065  12.214  12.515
74621W        W44436   8.253  32.065  11.390
74622W        W44437  23.235   3.417  10.924
74623W        W44438  33.623  40.366   3.762
74624W        W44439   6.842   1.940  13.901
74625W        W44440   6.225  10.634  11.092
74626W        W44441  41.927  23.085   4.669
74627W        W44442  29.549  20.257  12.913
74628W        W44443  33.981  33.104  13.986
74629W        W44444  41.851   7.380  13.804
74630W        W44445   9.769  34.399  10.499
74631W        W44446  14.248  36.385  12.485
74632W        W44447  36.093  15.198  11.501
74633W        W44448  10.780  21.040  12.928
74634W        W44449  36.916  18.636   0.774
74635W        W44450  41.531  12.842   2.223
74636W        W44451  14.325  24.045   3.293
74637W        W44452  23.536  15.251  10.464
74638W        W44453   7.358  16.248   1.843
74639W        W44454  16.767  24.052  14.454
74640W        W44455  18.064  20.233  13.015
74641W        W44456  24.608  12.276   3.683
74642W        W44457  25.216  33.458   2.818
74643W        W44458  19.756  42.843  12.877
74644W        W44459   3.270  26.176   3.195
74645W        W44460  12.826   3.435  14.505
74646W        W44461  35.061  21.105   4.267
74647W        W44462   6.725   7.243  14.013
74648W        W44463   3.325  33.572   0.777
74649W        W44464  19.077  17.300  10.560
74650W        W44465  16.709   9.300  13.418
74651W        W44466   7.192  32.473  11.553
74652W        W44467  37.568  22.178  12.554
74653W        W44468   8.751  21.111   1.251
74654W        W44469  24.588  33.067   2.834
74655W        W44470  44.505   7.886   4.142
74656W        W44471  23.654  25.700   4.346
74657W        W44472   3.826  26.614  12.547
74658W        W44473  15.729   3.374   0.806
74659W        W44474   6.792  26.518  10.608
74660W        W44475  44.277  17.208  11.980
74661W        W44476   3.456   5.794   1.403
74662W        W44477  42.840   1.345   0.790
74663W        W44478  30.600  30.106   4.642
74664W        W44479  40.523   9.220  11.966
74665W        W44480   8.233   2.319   4.307
74666W        W44481  14.144   1.866   3.364
74667W        W44482   2.747  29.604   2.853
74668W        W44483  30.570  34.942  12.423
74669W        W44484  27.166  34.067  12.993
74670W        W44485  28.533  37.033  12.485
74671W        W44486  34.556   8.894   2.787
74672W        W44487  34.948  18.712  13.453
74673W        W44488  24.022  19.691  14.965
74674W        W44489  34.064  34.509  10.431
74675W        W44490  22.198   5.766  12.897
74676W        W44491  26.147  15.693  14.836
74677W        W44492  38.487  33.491   2.677
74678W        W44493   0.404  37.899   4.631
74679W        W44494  34.419   1.371  14.472
74680W        W44495  30.099  35.432   2.753
74681W        W44496  35.456  27.003  14.842
74682W        W44497  44.498  30.565  13.322
74683W        W44498  13.184  23.993   2.682
74684W        W44499  39.844  33.404   1.270
74685W        W44500  32.978  10.366  14.335
74686W        W44501  25.566   6.362  14.865
74687W        W44502  28.634  39.873  13.362
74688W        W44503  15.254  28.496  12.423
74689W        W44504  10.359  15.677  10.056
74690W        W44505  10.786  38.391  10.534
74691W        W44506  28.984  36.555   1.406
74692W        W44507  32.012  40.046  13.991
74693W        W44508  18.593   1.476   3.748
74694W        W44509  42.968   4.209   4.635
74695W        W44510   4.340   7.733   1.252
74696W        W44511  21.237  37.411  12.943
74697W        W44512  44.982  38.400  13.459
74698W        W44513  39.887  20.643  12.569
74699W        W44514  25.069  12.161   1.703
74700W        W44515  27.158   9.825   5.217
74701W        W44516  12.758  29.644  10.458
74702W        W44517  42.305   5.268  13.498
74703W        W44518  10.175  14.683   0.483
74704W        W44519  25.681  15.633  13.859
74705W        W44520   8.693  39.439   0.242
74706W        W44521  20.062   7.305   1.385
74707W        W44522   0.760  27.180   4.331
74708W        W44523  10.648  15.659  11.527
74709W        W44524  15.616  23.996  13.041
74710W        W44525  26.037  11.845  13.804
74711W        W44526  12.807  32.965   2.806
74712W        W44527   5.384  32.618  13.512
74713W        W44528  18.738  17.619  12.029
74714W        W44529  11.839  39.849  11.504
74715W        W44530  27.680  25.562   3.332
74716W        W44531  20.092  17.600   3.689
74717W        W44532  37.951  30.917   2.328
74718W        W44533  35.036  13.141  10.986
74719W        W44534  39.890   9.185   4.753
74720W        W44535   6.222  20.248  11.085
74721W        W44536  40.045   0.274   3.246
74722W        W44537  13.347  40.408  14.306
74723W        W44538  39.024  33.897  10.534
74724W        W44539  33.910   4.737  10.019
74725W        W44540  37.459  44.341   4.177
74726W        W44541  18.271  39.870  14.333
74727W        W44542  38.409  29.030   1.353
74728W        W44543   1.250  10.297  12.388
74729W        W44544  42.372  14.167  11.536
74730W        W44545  11.663  23.078   2.270
74731W        W44546  10.298  24.082   1.855
74732W        W44547  27.620   1.457   4.749
74733W        W44548   0.256  32.632  11.556
74734W        W44549  23.023  37.990  12.001
74735W        W44550   3.788  17.112  11.466
74736W        W44551  36.574  16.271   4.341
74737W        W44552  41.395  30.061   3.746
74738W        W44553  36.929  19.194  14.422
74739W        W44554   3.837  23.031   4.347
74740W        W44555  14.181   0.484  12.068
74741W        W44556  13.161  26.494  13.000
74742W        W44557   1.350  33.071  12.526
74743W        W44558  12.778  13.284  12.341
74744W        W44559   6.397  12.807   2.809
74745W        W44560   2.233   8.804   3.180
74746W        W44561  37.008  13.222  10.435
74747W        W44562   0.302  43.331   4.265
74748W        W44563   4.356  37.581   4.275
74749W        W44564  33.617   5.200  10.060
74750W        W44565  31.471  26.976   1.292
74751W        W44566  32.994  35.030   2.709
74752W        W44567  35.535  43.810   0.881
74753W        W44568  38.345  12.285   3.311
74754W        W44569  23.717  29.423   3.264
74755W        W44570  38.923  10.877   0.889
74756W        W44571  38.362  34.424  14.900
74757W        W44572  41.823  44.413  10.101
74758W        W44573  35.474  16.631   4.706
74759W        W44574  37.461  41.002   2.392
74760W        W44575  17.126  27.517  12.976
74761W        W44576   6.353  34.404  11.486
74762W        W44577  34.515  13.308  12.383
74763W        W44578  14.193  25.105  11.997
74764W        W44579  16.640  27.093   1.295
74765W        W44580  24.554  18.094  12.063
74766W        W44581  33.542  14.338  11.583
74767W        W44582   5.733  38.364   1.742
74768W        W44583   7.677  38.013  13.370
74769W        W44584   5.372   0.408  11.035
74770W        W44585  28.026  24.574   4.210
74771W        W44586   3.809   4.305   2.237
74772W        W44587  40.943  39.478   4.116
74773W        W44588  38.835  41.828   3.650
74774W        W44589   8.320  38.491  12.930
74775W        W44590  10.297  20.104   2.355
74776W        W44591  43.902   1.798   2.258
74777W        W44592  17.636  17.302  13.859
74778W        W44593  41.031   0.344  11.536
74779W        W44594  30.445  23.136   0.406
74780W        W44595  43.276  22.509  14.894
74781W        W44596  13.682  10.338   4.664
74782W        W44597  15.156  15.702  13.843
74783W        W44598  40.498  13.105  12.915
74784W        W44599  33.479  19.117   1.809
74785W        W44600  40.011  18.551  13.806
74786W        W44601  27.115   1.333   1.400
74787W        W44602  34.927  35.953   1.373
74788W        W44603  37.385  16.259  11.415
74789W        W44604  32.027  41.435   4.155
74790W        W44605  27.116   7.719  10.961
74791W        W44606  17.125  16.109  10.449
74792W        W44607   3.334  25.191   1.438
74793W        W44608  39.375  42.381   0.335
74794W        W44609  26.186  26.512   5.248
74795W        W44610  40.890  18.663  14.329
74796W        W44611  21.053  12.841   0.449
74797W        W44612   4.417  41.293   2.698
74798W        W44613   8.814  21.681  13.394
74799W        W44614  24.059   1.881   5.207
74800W        W44615  32.075  32.984   0.469
74801W        W44616   5.363  11.669  12.974
74802W        W44617  37.354   8.755  13.888
74803W        W44618  10.192   7.295  11.399
74804W        W44619  24.047  31.031  13.448
74805W        W44620  14.625   0.794   9.940
74806W        W44621  31.574   1.806   4.221
74807W        W44622  13.201   6.244   1.872
74808W        W44623  39.314  26.174   2.366
74809W        W44624  31.646  19.133  13.852
74810W        W44625   1.963  23.722  12.832
74811W        W44626  28.635  29.590   1.403
74812W        W44627  38.479  25.641   1.364
74813W        W44628  38.967  43.767   0.750
74814W        W44629  28.633   5.772  11.500
74815W        W44630  35.917  30.028   3.800
74816W        W44631  14.600  15.244  14.331
74817W        W44632  44.789  24.050   3.836
74818W        W44633  36.549  33.411  14.409
74819W        W44634  20.079  29.964   3.754
74820W        W44635  42.850  20.094   2.337
74821W        W44636   5.407   1.247   2.234
74822W        W44637  38.826   8.218   4.676
74823W        W44638  17.625  24.979   4.785
74824W        W44639  37.472  32.038   5.587
74825W        W44640  36.870  24.200   4.243
74826W        W44641  42.336  31.434  10.415
74827W        W44642  34.547  24.706   1.295
74828W        W44643  32.569  14.126   4.150
74829W        W44644  33.955  24.607  14.380
74830W        W44645  36.077  27.050  14.281
74831W        W44646  31.111  35.592  10.933
74832W        W44647  26.989  26.204  13.919
74833W        W44648  37.972  30.022   0.879
74834W        W44649  41.515   2.908  10.903
74835W        W44650  23.994  30.478   3.374
74836W        W44651   7.821  42.301  11.577
74837W        W44652  16.613  23.007   4.268
74838W        W44653  16.662  14.759   4.213
74839W        W44654   9.295  36.913   4.756
74840W        W44655  11.163   1.482  12.847
74841W        W44656   4.370  35.038   0.967
74842W        W44657   0.887  33.075   0.462
74843W        W44658  30.529   1.248   0.854
74844W        W44659   7.218  39.991   0.839
74845W        W44660  19.543  36.530  10.410
74846W        W44661   2.254  16.600  14.319
74847W        W44662  12.187  40.891   0.461
74848W        W44663  44.282  22.054  12.557
74849W        W44664  24.689   8.379  14.912
74850W        W44665   2.852   1.843   0.961
74851W        W44666  38.913  44.833   2.323
74852W        W44667  11.203  39.959   0.397
74853W        W44668  44.945   1.948   2.802
74854W        W44669  15.636  26.641   3.677
74855W        W44670  17.632  42.464   1.836
74856W        W44671  34.058   9.709  10.548
74857W        W44672  19.199  24.617   0.879
74858W        W44673   9.219  26.090  11.048
74859W        W44674  39.334  31.056   4.659
74860W        W44675  22.692  40.959  10.522
74861W        W44676  24.196  38.949  11.049
74862W        W44677  38.368  40.857   3.775
74863W        W44678  18.760   2.936  10.935
74864W        W44679  15.757  40.855  14.861
74865W        W44680  20.035  25.050  11.991
74866W        W44681  28.124   7.212   2.303
74867W        W44682  42.991  39.055  11.002
74868W        W44683  40.503  17.145   3.690
74869W        W44684   0.477   2.964   0.394
74870W        W44685  27.018  42.379   4.146
74871W        W44686  43.020  38.552  14.783
74872W        W44687  34.613   5.826  14.467
74873W        W44688  38.505  43.881   4.678
74874W        W44689   4.388  21.259  13.458
74875W        W44690   9.248  10.152   9.963
74876W        W44691  34.499  38.485   0.405
74877W        W44692  16.685  36.915  13.426
74878W        W44693  12.825  35.482   0.903
74879W        W44694  12.658   4.911   4.691
74880W        W44695  17.597  33.574  14.345
74881W        W44696  34.379  10.641  11.895
74882W        W44697   5.773  23.528  13.857
74883W        W44698   7.908  18.064   1.908
74884W        W44699  29.083  11.773   4.190
74885W        W44700  34.567  38.515  12.454
74886W        W44701   9.800  24.054   2.362
74887W        W44702   4.754  36.497  10.142
74888W        W44703   1.394  41.992   4.822
74889W        W44704  33.023  25.135  10.530
74890W        W44705   1.806  42.418   3.779
74891W        W44706  19.627  23.206   0.352
74892W        W44707  33.122  11.262  11.909
74893W        W44708  26.484  43.830   0.764
74894W        W44709  26.607  34.413   0.448
74895W        W44710  40.824   0.338   4.197
74896W        W44711  37.576   3.839  10.417
74897W        W44712  35.057  37.353   4.196
74898W        W44713   7.254  30.420  11.928
74899W        W44714  41.399  14.193   0.246
74900W        W44715   3.352  19.713  11.011
74901W        W44716  22.250  42.373  14.331
74902W        W44717  37.960  42.383   3.843
74903W        W44718  39.836   1.242  12.388
74904W        W44719  43.904  39.866  12.412
74905W        W44720   8.810   1.315   1.444
74906W        W44721  18.249   5.260   4.637
74907W        W44722  27.562   3.265  11.400
74908W        W44723  10.658  31.118  12.404
74909W        W44724  11.676  42.423   2.711
74910W        W44725   7.256  17.210   0.417
74911W        W44726   7.674  42.877   4.837
74912W        W44727   4.410   3.296  14.963
74913W        W44728  13.683  21.546  12.937
74914W        W44729  43.329  18.581   2.717
74915W        W44730  21.178  11.653   4.638
74916W        W44731  29.532   0.823   1.388
74917W        W44732   3.350  25.641   1.247
74918W        W44733  40.339  26.198  10.466
74919W        W44734  32.047  26.492  12.948
74920W        W44735  17.256  43.788   1.783
74921W        W44736  38.461  24.085   1.237
74922W        W44737  24.127  26.163  10.491
74923W        W44738   9.726  37.526  12.097
74924W        W44739  19.758  24.176   0.248
74925W        W44740  25.477  35.372   4.754
74926W        W44741   4.727  12.630  13.807
74927W        W44742  23.235  36.571   0.458
74928W        W44743  18.582   8.325   2.387
74929W        W44744  14.140  23.114   1.707
74930W        W44745  14.322  21.230   2.814
74931W        W44746   3.758  29.581   3.736
74932W        W44747   0.328  41.971   0.319
74933W        W44748  41.395  39.453  14.473
74934W        W44749  29.483  10.192   0.927
74935W        W44750  25.170  36.466  14.295
74936W        W44751   4.861  35.858   2.234
74937W        W44752  16.639  43.888   3.211
74938W        W44753   4.212   5.431  11.544
74939W        W44754  20.528  15.604  13.008
74940W        W44755  39.866  17.143   2.205
74941W        W44756  25.486  15.721   0.301
74942W        W44757  24.121  23.524  12.426
74943W        W44758  42.941  29.108  11.375
74944W        W44759  29.020  16.097  13.433
74945W        W44760  22.128   7.714  13.911
74946W        W44761  14.198  42.402   4.348
74947W        W44762  10.706   5.391  14.433
74948W        W44763  43.434   0.457  12.386
74949W        W44764  24.603  40.964  14.282
74950W        W44765  30.474   5.245   1.899
74951W        W44766  37.872  16.299   1.296
74952W        W44767  40.843  25.683   3.182
74953W        W44768  36.519  42.373   0.802
74954W        W44769   7.332  36.044  13.017
74955W        W44770  27.167   0.412   4.834
74956W        W44771  44.485  13.624   3.182
74957W        W44772  44.287   9.273   1.749
74958W        W44773  35.891  30.615  13.510
74959W        W44774   1.877  10.722   3.756
74960W        W44775  10.665   3.416   1.776
74961W        W44776  26.653   1.245   3.816
74962W        W44777  26.063   5.702  11.608
74963W        W44778  18.741  25.129  13.053
74964W        W44779  12.739  30.033  14.941
74965W        W44780  31.003  40.013  14.803
74966W        W44781  16.697  25.540  14.336
74967W        W44782   9.688  26.575  11.385
74968W        W44783  22.525  36.062   1.802
74969W        W44784  43.475  27.172  12.080
74970W        W44785   3.337  43.428  13.870
74971W        W44786   8.163  21.574  14.381
74972W        W44787  30.486  31.912   0.927
74973W        W44788  27.478  12.756   3.651
74974W        W44789  27.037  38.471   1.781
74975W        W44790  21.029   9.665   1.877
74976W        W44791   6.855  33.562   0.437
74977W        W44792   0.855  15.754  13.517
74978W        W44793  34.607  33.519  13.856
74979W        W44794  31.624  16.733  14.495
74980W        W44795  21.693  33.545   2.413
74981W        W44796  41.337  24.218   0.880
74982W        W44797  44.383  28.072   3.189
74983W        W44798   3.361   2.437   3.368
74984W        W44799  10.682  19.132  11.105
74985W        W44800  14.788  43.007   4.169
74986W        W44801  33.117  22.624   3.796
74987W        W44802  22.143  20.078   2.822
74988W        W44803  42.810  35.057  14.949
74989W        W44804  31.551  20.121  14.802
74990W        W44805  37.968  12.676   1.829
74991W        W44806  30.421  28.167  14.467
74992W        W44807  11.682  28.079   0.263
74993W        W44808  13.335  27.046   2.223
74994W        W44809  44.414  23.718   4.817
74995W        W44810   5.423  43.927  13.043
74996W        W44811  11.853   5.367  11.112
74997W        W44812  10.245  22.562   1.352
74998W        W44813  20.079  44.793   4.196
74999W        W44814  44.401  10.654   0.795
75000W        W44815  17.097  19.268   0.292
75001W        W44816  31.550  36.000   1.354
75002W        W44817  39.982  35.572   3.859
75003W        W44818   8.191   0.937  10.901
75004W        W44819  23.134  39.988  14.413
75005W        W44820  14.610  10.315   3.285
75006W        W44821  16.143  37.341  14.342
75007W        W44822  29.659  21.561   4.735
75008W        W44823  38.526   9.182  13.914
75009W        W44824  41.499  19.145   1.808
75010W        W44825  37.536   8.670  10.517
75011W        W44826  39.487  33.590  10.890
75012W        W44827  11.787   9.748   2.373
75013W        W44828  12.212  34.407   0.757
75014W        W44829  25.104  15.187   0.789
75015W        W44830  13.162  36.079  14.405
75016W        W44831   8.724  10.241  13.366
75017W        W44832  23.182  39.940   1.423
75018W        W44833  21.061  13.677   4.650
75019W        W44834  37.070  32.490  13.939
75020W        W44835   6.317  20.160   4.676
75021W        W44836  23.718   9.327  14.459
75022W        W44837  32.425   7.830   2.838
75023W        W44838  18.709  25.522  11.498
75024W        W44839  20.145   6.894  11.553
75025W        W44840  23.568  12.835  11.389
75026W        W44841  39.413  28.036  11.975
75027W        W44842  36.051  17.079  11.896
75028W        W44843  39.940   2.409   3.836
75029W        W44844  39.405  15.643   4.760
75030W        W44845  14.147  15.778  14.315
75031W        W44846  40.044  18.211   3.855
75032W        W44847  13.244  44.787   0.917
75033W        W44848  34.594  15.718   0.406
75034W        W44849  22.212  42.464  13.417
75035W        W44850  25.968  32.622  14.374
75036W        W44851  40.409  23.091  13.428
75037W        W44852  21.567  21.567  12.454
75038W        W44853  16.714  21.552  13.047
75039W        W44854   2.779  13.243   0.382
75040W        W44855  22.037   0.436   1.907
75041W        W44856  32.915  41.985   3.838
75042W        W44857   7.871  29.085   0.741
75043W        W44858  15.124  31.934  12.498
75044W        W44859  34.602  30.415   2.860
75045W        W44860   8.880  11.322  12.469
75046W        W44861  39.024   1.858   2.882
75047W        W44862  10.637  11.339  11.485
75048W        W44863  10.366  35.413  12.402
75049W        W44864  41.390   1.364  12.526
75050W        W44865  36.372   2.944  14.841
75051W        W44866  28.645  40.368  11.094
75052W        W44867  35.006  33.043  10.150
75053W        W44868  26.640  26.603  12.018
75054W        W44869  29.102  26.030   1.300
75055W        W44870  14.739  36.398   1.719
75056W        W44871   8.247   9.680   3.187
75057W        W44872  37.573  11.692  11.034
75058W        W44873  25.618  19.245  13.322
75059W        W44874  37.886   8.220   3.196
75060W        W44875  39.023  11.186   3.367
75061W        W44876  25.034  11.794  13.524
75062W        W44877   1.477  24.513  10.512
75063W        W44878  43.978  38.531   4.268
75064W        W44879  28.654   0.348   1.344
75065W        W44880  42.379  14.815   0.874
75066W        W44881  10.149   3.813   0.860
75067W        W44882   8.389   8.858   2.235
75068W        W44883  34.552  19.219   3.822
75069W        W44884  12.682  11.725  10.416
75070W        W44885  24.037  25.606  14.451
75071W        W44886   1.962   0.312   4.227
75072W        W44887  17.249  31.023   4.150
75073W        W44888  38.998  37.488  11.087
75074W        W44889  44.767  10.809   3.731
75075W        W44890  44.460  24.698  14.481
75076W        W44891  15.721  43.935   4.134
75077W        W44892  26.528  30.490   3.168
75078W        W44893  25.021  28.024  14.950
75079W        W44894  43.376  16.130   4.274
75080W        W44895  11.663  23.518   1.399
75081W        W44896   8.760  29.578   1.387
75082W        W44897  13.638  27.150   4.284
75083W        W44898  13.331  37.501  11.495
75084W        W44899  16.313  24.194   0.820
75085W        W44900  25.035   1.461  13.049
75086W        W44901  22.151  27.184  14.866
75087W        W44902   4.765   1.826  11.898
75088W        W44903  40.433  40.945   2.218
75089W        W44904  13.801  31.989   2.890
75090W        W44905  43.300  42.393   2.685
75091W        W44906  40.480  10.798   1.935
75092W        W44907  11.835  35.426   0.733
75093W        W44908   7.888  17.145   0.889
75094W        W44909  30.649  17.212  14.813
75095W        W44910  18.139   5.815   1.289
75096W        W44911  35.001  29.922  12.894
75097W        W44912  19.257  12.160  14.327
75098W        W44913  21.682  12.727  13.507
75099W        W44914  29.023  15.617  10.496
75100W        W44915  36.456  29.175  13.982
75101W        W44916  12.837  29.617  13.958
75102W        W44917  34.482  34.594  13.411
75103W        W44918   0.457  31.049   3.791
75104W        W44919  42.422  32.063  13.802
75105W        W44920  38.331  11.730   1.771
75106W        W44921  32.077  15.184  10.938
75107W        W44922  38.403   5.199   0.462
75108W        W44923  21.655  36.975   0.409
75109W        W44924  32.413   4.809  10.446
75110W        W44925  11.795  17.581   0.887
75111W        W44926   5.388  17.592   3.295
75112W        W44927   8.832  17.604  13.342
75113W        W44928  37.445  13.801   2.729
75114W        W44929  43.990  23.988   3.213
75115W        W44930  41.313  21.670   3.219
75116W        W44931  15.300  25.579   0.247
75117W        W44932  12.849  42.820  11.413
75118W        W44933   5.243  41.025  12.467
75119W        W44934  35.914  44.360   0.911
75120W        W44935  27.158  14.156   5.288
75121W        W44936   2.366   6.340   1.427
75122W        W44937  15.194   2.374   0.945
75123W        W44938  34.938  25.584   3.794
75124W        W44939  42.515  13.334  14.386
75125W        W44940  34.415  30.626  13.323
75126W        W44941  43.486  15.659   2.821
75127W        W44942  43.814  13.643  11.592
75128W        W44943  23.642   3.941  11.521
75129W        W44944   9.748  28.528   3.262
75130W        W44945  19.661   8.835   3.782
75131W        W44946   3.811   2.755  14.321
75132W        W44947  31.897  27.684   3.693
75133W        W44948  36.887   4.819  11.461
75134W        W44949  43.015  21.703   1.369
75135W        W44950  14.164  29.097  11.611
75136W        W44951  11.630  31.418   1.376
75137W        W44952  30.601   0.935  11.975
75138W        W44953  17.093  28.649  14.989
75139W        W44954  24.019   4.328  10.909
75140W        W44955  12.812  24.111  13.366
75141W        W44956  25.656   0.311  13.798
75142W        W44957   0.468  19.064   2.691
75143W        W44958  15.619  13.265  11.109
75144W        W44959  21.551   4.380   0.288
75145W        W44960  34.458   5.381  13.439
75146W        W44961  44.392  35.517  13.909
75147W        W44962  18.085  36.582   0.776
75148W        W44963   6.244  37.034   4.301
75149W        W44964  30.004  11.694  12.876
75150W        W44965  37.037  12.174   4.216
75151W        W44966  20.766  39.519   0.926
75152W        W44967  11.773  10.711  12.858
75153W        W44968  21.567  40.402   2.334
75154W        W44969  29.929  31.138  13.817
75155W        W44970  30.422  12.346  13.820
75156W        W44971  13.714  11.213   3.370
75157W        W44972   0.804  13.111   4.290
75158W        W44973   9.393  37.530  13.929
75159W        W44974  20.601  42.781   2.778
75160W        W44975  21.158  27.625  12.517
75161W        W44976  29.647   3.361  10.004
75162W        W44977  42.514   3.797  12.032
75163W        W44978  16.173  36.844  13.360
75164W        W44979  39.877   4.420  11.112
75165W        W44980  40.357  32.085   4.701
75166W        W44981   1.856   4.714  14.400
75167W        W44982  36.849  34.387  11.059
75168W        W44983  20.260  13.805   0.438
75169W        W44984  44.811  32.141   2.816
75170W        W44985  41.532  24.692   1.322
75171W        W44986  18.067  43.873   4.131
75172W        W44987  24.694   1.281  11.460
75173W        W44988  42.348   5.850  11.010
75174W        W44989  26.478  36.864   3.839
75175W        W44990  41.424  17.087  11.101
75176W        W44991  30.605  32.968  12.405
75177W        W44992  32.609  16.631  14.770
75178W        W44993  18.175  37.419  10.948
75179W        W44994  43.942  40.443  14.976
75180W        W44995   8.891  27.090  10.602
75181W        W44996  11.799   6.887  12.571
75182W        W44997  10.786  21.723   3.268
75183W        W44998  43.885   8.184   1.338
75184W        W44999  44.772  11.290   3.146
75185W        W45000   7.905   9.330  13.806
75186W        W45001   7.394  23.237   2.370
75187W        W45002  30.535  11.359  10.601
75188W        W45003  31.457  17.556   1.933
75189W        W45004  33.552  14.669   3.374
75190W        W45005  29.638   8.193   4.727
75191W        W45006  27.157   3.866   1.355
75192W        W45007  12.124  37.994  12.539
75193W        W45008   8.327  16.287   3.179
75194W        W45009  13.603   9.297  10.409
75195W        W45010   7.854  24.697   3.631
75196W        W45011   4.931  30.091   2.845
75197W        W45012  39.877  13.655   0.881
75198W        W45013  17.574  43.269   4.717
75199W        W45014   1.372   9.781   3.843
75200W        W45015  32.088  41.451  12.352
75201W        W45016  33.896  43.843   1.332
75202W        W45017   7.314  21.185  10.506
75203W        W45018  17.719  21.728  14.765
75204W        W45019  35.885   0.935  12.088
75205W        W45020  40.418   2.945  10.411
75206W        W45021  39.347  12.744   0.399
75207W        W45022   4.739  27.625  11.947
75208W        W45023   4.744  38.943   1.246
75209W        W45024  14.239  18.566   2.322
75210W        W45025   8.725  33.998   2.897
75211W        W45026   0.814  29.954   3.816
75212W        W45027  42.928  26.607  13.359
75213W        W45028  20.101  37.062  10.574
75214W        W45029  22.021  41.317  12.096
75215W        W45030   2.761  10.368   4.234
75216W        W45031  30.531  28.026  10.551
75217W        W45032  30.138  26.045   0.954
75218W        W45033   9.182  22.614  11.391
75219W        W45034  10.645  11.645  13.533
75220W        W45035  16.623   7.364  12.900
75221W        W45036  14.829  33.384   3.707
75222W        W45037   8.271  19.565  12.512
75223W        W45038   3.314  41.798   2.281
75224W        W45039  41.901  27.020   2.185
75225W        W45040  21.140  34.562  12.553
75226W        W45041  36.008  42.868  13.477
75227W        W45042  40.536  14.756  14.814
75228W        W45043  40.817  35.550  11.997
75229W        W45044  22.731  39.481   4.130
75230W        W45045  14.243   4.701   0.443
75231W        W45046   3.453  43.357   3.787
75232W        W45047   8.165  13.201   0.747
75233W        W45048   4.874  30.491  11.471
75234W        W45049  18.677  14.675   2.352
75235W        W45050  14.130  12.682   3.785
75236W        W45051   0.408  14.787   0.251
75237W        W45052   1.353   2.462  12.522
75238W        W45053  41.538  44.453   3.152
75239W        W45054  28.944  21.541  14.501
75240W        W45055   9.841   8.286  14.013
75241W        W45056   5.689  34.404   2.278
75242W        W45057  16.247  20.708  11.514
75243W        W45058  23.232  18.550  14.027
75244W        W45059  22.141  27.171   2.902
75245W        W45060  11.301  16.751   0.335
75246W        W45061  19.175  42.524  10.612
75247W        W45062  38.544  40.393  14.989
75248W        W45063  11.809   2.226   2.879
75249W        W45064  26.166   6.724   3.321
75250W        W45065  15.297   4.444   1.328
75251W        W45066  43.871  16.689   4.341
75252W        W45067  37.340   9.845  10.936
75253W        W45068   8.887  10.838  13.332
75254W        W45069  17.248  10.227  12.452
75255W        W45070  18.111  23.172   4.757
75256W        W45071  14.782   0.974   3.253
75257W        W45072  31.522   9.310  13.402
75258W        W45073  18.744   3.829   2.198
75259W        W45074   6.206   9.727  12.374
75260W        W45075   1.305  26.049   1.434
75261W        W45076  26.024  41.861  11.128
75262W        W45077  24.520  21.523   4.226
75263W        W45078   1.857   3.409  11.868
75264W        W45079  23.013  33.585  12.495
75265W        W45080  28.048  41.946  13.933
75266W        W45081  31.142  33.030   4.289
75267W        W45082  25.131  30.595  12.875
75268W        W45083  26.498   3.782   1.712
75269W        W45084  30.593  32.890   4.231
75270W        W45085   3.301  39.008   3.860
75271W        W45086  10.237  38.418  12.467
75272W        W45087  29.077  38.526  13.006
75273W        W45088  21.687  12.779   3.690
75274W        W45089  24.166  22.656  14.856
75275W        W45090   1.977   4.351  13.398
75276W        W45091   3.261  22.023  11.435
75277W        W45092   4.766  11.272   1.395
75278W        W45093  34.905  44.903  13.805
75279W        W45094  15.264  27.112  13.940
75280W        W45095  24.683  44.830  13.473
75281W        W45096  15.641  16.767   1.277
75282W        W45097  33.444   9.831  14.970
75283W        W45098  36.981   7.724  14.853
75284W        W45099  14.164  39.888  14.489
75285W        W45100  37.557  18.717  14.325
75286W        W45101  31.496   8.768  12.867
75287W        W45102  27.521  15.797  12.433
75288W        W45103  39.378  31.524  14.901
75289W        W45104  27.074  29.498   0.884
75290W        W45105   5.332  44.269   4.118
75291W        W45106   1.933  28.651   4.645
75292W        W45107   4.214  32.483   1.854
75293W        W45108  20.128  19.246   2.347
75294W        W45109  43.794  32.922  13.477
75295W        W45110  20.090  20.764  14.497
75296W        W45111  34.431  23.155  11.569
75297W        W45112  30.134  13.204  13.796
75298W        W45113  16.637  29.066  11.410
75299W        W45114  34.417  21.191  14.018
75300W        W45115  26.030  22.219  12.865
75301W        W45116  14.190  14.144   2.836
75302W        W45117  38.502  22.719  10.505
75303W        W45118  39.432  38.998  12.004
75304W        W45119  38.391  16.733   2.305
75305W        W45120  21.647  44.476  12.547
75306W        W45121  28.619  27.549  12.883
75307W        W45122  16.573   8.169   0.896
75308W        W45123   5.871  34.017  10.425
75309W        W45124  36.387  18.782  14.308
75310W        W45125  14.669   5.910  13.383
75311W        W45126   8.386  23.720  13.004
75312W        W45127  41.534  40.869  14.971
75313W        W45128  13.314   0.348  12.934
75314W        W45129  22.177  36.008  12.985
75315W        W45130  36.939  25.148  12.000
75316W        W45131   1.280  35.475   2.195
75317W        W45132  16.602   5.282  12.065
75318W        W45133  21.080   2.922   3.323
75319W        W45134  13.760  40.315  13.879
75320W        W45135  22.621   3.403  13.327
75321W        W45136   2.369  34.406  13.415
75322W        W45137   2.233  12.650  11.044
75323W        W45138  40.821   6.765  13.808
75324W        W45139   9.353  21.253   1.436
75325W        W45140  13.237   4.316   2.213
75326W        W45141   6.268   8.274  10.563
75327W        W45142   8.894  17.795  11.613
75328W        W45143  32.885  14.251   0.768
75329W        W45144   8.864   6.770  13.960
75330W        W45145   8.300  44.985   4.268
75331W        W45146  15.105   8.885  14.289
75332W        W45147  34.434   0.478  13.013
75333W        W45148  25.541  35.074   2.336
75334W        W45149  13.785   4.778   1.294
75335W        W45150  21.094  29.545   3.264
75336W        W45151  13.335  23.664   4.702
75337W        W45152  42.520   8.225   4.773
75338W        W45153   1.276  20.657  12.400
75339W        W45154  19.212   0.846  12.066
75340W        W45155  33.599  43.351   4.235
75341W        W45156  37.053   3.303  14.401
75342W        W45157  37.456   7.337   4.170
75343W        W45158   6.303  12.838   9.959
75344W        W45159   5.401  32.080  13.962
75345W        W45160  30.591  39.926   4.728
75346W        W45161  26.465   1.791  14.354
75347W        W45162  28.093   7.861  10.605
75348W        W45163   2.306   7.774   0.917
75349W        W45164   5.230  43.832   0.459
75350W        W45165   4.374  32.631   4.749
75351W        W45166  20.161  27.112  10.482
75352W        W45167  15.161  31.413  14.293
75353W        W45168  40.500   6.327   2.366
75354W        W45169  11.326  39.343   3.234
75355W        W45170  42.487  20.064  12.840
75356W        W45171  28.664  44.894  11.413
75357W        W45172  18.757  13.177  14.939
75358W        W45173   9.380  43.361  13.517
75359W        W45174  29.499  16.649  11.550
75360W        W45175  26.636   3.378  12.501
75361W        W45176  27.001  27.567   2.737
75362W        W45177  16.721  14.319   5.276
75363W        W45178  23.731  27.682  11.068
75364W        W45179  15.237  31.528   2.398
75365W        W45180  27.589   5.857  11.860
75366W        W45181   9.269  32.628  10.594
75367W        W45182   1.392  35.866  13.352
75368W        W45183  37.867  16.761   1.878
75369W        W45184  36.943  25.114   4.294
75370W        W45185   1.320  17.614   4.694
75371W        W45186  21.527  10.703   1.297
75372W        W45187  39.837  41.487  12.458
75373W        W45188   0.352  26.536   2.732
75374W        W45189  15.204  31.964   4.267
75375W        W45190  18.199  11.679  12.352
75376W        W45191   3.777  27.507   0.930
75377W        W45192  17.642  36.483  14.514
75378W        W45193  25.151  23.074   2.203
75379W        W45194  28.639  14.218  11.959
75380W        W45195  22.729   2.470  11.007
75381W        W45196  39.352  10.634  11.859
75382W        W45197  25.619  31.566  11.393
75383W        W45198  32.464  43.436   0.355
75384W        W45199   3.819  39.530   4.297
75385W        W45200   1.774   7.666   0.939
75386W        W45201   9.744  25.684  14.311
75387W        W45202   3.887  18.727   2.887
75388W        W45203  21.625   3.778  13.500
75389W        W45204  44.493  22.222   1.842
75390W        W45205  31.065  37.549   1.742
75391W        W45206  44.459  29.610  12.070
75392W        W45207  14.776  32.623  11.538
75393W        W45208  22.688  20.583  11.897
75394W        W45209  20.528  23.574   1.728
75395W        W45210   7.242  40.439   2.338
75396W        W45211  26.547  10.310   3.753
75397W        W45212  11.187  32.905   2.287
75398W        W45213  17.700   1.447  14.493
75399W        W45214  34.969  22.554   0.363
75400W        W45215  29.165  28.992   0.933
75401W        W45216  37.458  12.301   0.773
75402W        W45217   4.417  22.681  11.063
75403W        W45218  33.549  42.485  14.455
75404W        W45219  12.715  24.605  12.518
75405W        W45220  18.731  18.780   2.772
75406W        W45221  23.030  26.190  14.371
75407W        W45222  34.440   2.857   3.693
75408W        W45223   3.434  13.609  14.821
75409W        W45224  34.548  17.282   4.838
75410W        W45225  11.713  32.017   0.249
75411W        W45226  23.628  30.652  13.380
75412W        W45227  13.836  15.162   0.428
75413W        W45228   9.679  17.247   4.268
75414W        W45229   3.233  17.116   1.328
75415W        W45230  33.057  44.482  13.999
75416W        W45231  43.444  42.963   4.265
75417W        W45232  37.835  14.212  11.997
75418W        W45233   4.353  12.195   2.350
75419W        W45234  37.028  20.059  14.893
75420W        W45235  32.516  21.022  10.945
75421W        W45236  39.900   0.281  14.469
75422W        W45237  31.484   3.250   5.195
75423W        W45238  41.293  35.888   1.226
75424W        W45239  10.231  34.379  14.329
75425W        W45240  15.782  41.527   4.318
75426W        W45241  16.659  32.029  12.043
75427W        W45242  36.847  42.981   5.229
75428W        W45243  11.757  25.626   0.908
75429W        W45244  24.681  33.125   3.382
75430W        W45245  36.586   7.344  14.816
75431W        W45246  26.177  26.055  11.070
75432W        W45247   4.389   9.276   4.164
75433W        W45248  19.081  10.173  12.941
75434W        W45249  11.633  33.113   3.637
75435W        W45250  34.063   5.880   1.282
75436W        W45251  24.229  16.075   1.299
75437W        W45252  25.529  30.055  14.416
75438W        W45253  13.778  24.996   2.382
75439W        W45254  26.482  31.984   2.309
75440W        W45255   3.453  23.555   4.822
75441W        W45256  12.714  33.046   0.349
75442W        W45257  15.689  29.975  12.830
75443W        W45258   1.947  22.220  12.412
75444W        W45259  33.959   2.271  13.019
75445W        W45260  17.741  22.728  13.917
75446W        W45261  19.138  32.946  11.575
75447W        W45262  13.111  37.877   0.474
75448W        W45263  16.684  15.126   3.709
75449W        W45264  30.521  15.651  10.963
75450W        W45265  27.579  21.024   3.824
75451W        W45266  24.526  43.320  12.532
75452W        W45267   9.890  22.172  12.972
75453W        W45268  40.902  23.182  12.958
75454W        W45269  29.604   6.803   1.391
75455W        W45270  13.284  22.009   0.931
75456W        W45271   2.855  26.194  13.019
75457W        W45272  34.533  33.937  11.385
75458W        W45273  14.168   9.802  14.984
75459W        W45274   4.364  12.712   3.870
75460W        W45275  22.232   1.352  12.546
75461W        W45276  28.997  43.479  14.780
75462W        W45277  19.551  39.032  10.462
75463W        W45278  15.692  43.806  13.311
75464W        W45279  41.951   7.291   4.333
75465W        W45280   8.814  35.537   2.279
75466W        W45281  35.041   5.253   2.209
75467W        W45282  28.641  40.497  12.974
75468W        W45283  16.308  31.036   4.286
75469W        W45284  29.538  21.558   0.892
75470W        W45285  34.984  15.783   4.704
75471W        W45286  22.662  21.041  11.900
75472W        W45287  43.895   6.677   4.150
75473W        W45288  13.839   5.886  10.898
75474W        W45289  44.837   0.929  10.448
75475W        W45290  31.449   9.687   0.865
75476W        W45291  12.778  20.221  13.816
75477W        W45292  16.217  13.694  12.543
75478W        W45293  13.677   5.751  13.379
75479W        W45294  38.963  42.811  13.860
75480W        W45295  21.063  41.451   4.326
75481W        W45296  44.299  19.159  13.535
75482W        W45297  40.025  42.007  11.116
75483W        W45298  31.916  18.205  12.394
75484W        W45299  12.330  13.217  14.919
75485W        W45300  26.467  15.647  12.435
75486W        W45301  26.961  38.830   4.147
75487W        W45302  25.577   0.259   1.433
75488W        W45303  43.789   2.959   4.339
75489W        W45304  15.275  30.567   0.277
75490W        W45305  30.590  31.580  11.077
75491W        W45306  24.547  14.209  10.920
75492W        W45307  24.219  44.930   2.200
75493W        W45308  30.583  35.863  11.050
75494W        W45309  44.965   2.263   2.711
75495W        W45310   6.770   8.236  12.961
75496W        W45311   9.881  11.693   1.314
75497W        W45312  36.869  15.686   1.729
75498W        W45313  26.089  38.501   0.770
75499W        W45314  19.591  11.765   4.309
75500W        W45315   1.357  23.626  13.346
75501W        W45316  20.567  10.315   4.612
75502W        W45317   4.823   2.833   3.264
75503W        W45318  32.596  44.309  12.480
75504W        W45319  22.217  25.191  10.937
75505W        W45320  15.652  44.454  14.843
75506W        W45321  40.925   9.853   4.725
75507W        W45322  39.063  26.181   2.708
75508W        W45323  17.559  28.117   1.929
75509W        W45324  38.861  43.514  14.461
75510W        W45325  28.037  13.217   3.156
75511W        W45326  27.624  35.993  14.978
75512W        W45327  41.407  13.622   1.284
75513W        W45328  41.511  35.433   2.833
75514W        W45329  35.979  33.962   9.974
75515W        W45330  39.527  18.607   0.398
75516W        W45331  28.477  34.403   0.958
75517W        W45332  11.341  44.408   4.228
75518W        W45333  37.897  12.673   4.611
75519W        W45334  19.196   9.880   4.617
75520W        W45335  11.299   1.248  14.003
75521W        W45336  43.359   7.210   1.256
75522W        W45337  27.114  10.370  13.528
75523W        W45338  22.569  34.517  11.610
75524W        W45339  14.247   3.307   1.256
75525W        W45340  29.641  32.992   0.260
75526W        W45341   6.789  40.315   1.772
75527W        W45342  42.461  22.670  14.985
75528W        W45343  28.978  22.737  13.957
75529W        W45344  28.519  28.127   0.367
75530W        W45345  44.479  26.156   0.815
75531W        W45346  29.003   5.790  14.776
75532W        W45347  39.512  40.494  14.489
75533W        W45348   3.417  32.966   3.353
75534W        W45349   6.897   6.424   2.903
75535W        W45350   3.789  14.309  11.066
75536W        W45351   3.871  31.985   2.348
75537W        W45352   0.302  21.517  13.310
75538W        W45353  41.483  16.718  12.970
75539W        W45354  44.831  11.289   4.288
75540W        W45355  14.666  43.319  10.578
75541W        W45356  12.117   4.788  12.837
75542W        W45357  40.846  22.575   0.826
75543W        W45358   0.255  43.857  13.003
75544W        W45359  37.841  37.955   0.249
75545W        W45360   2.245  16.698  13.931
75546W        W45361   7.290  26.063   4.313
75547W        W45362  20.157  12.275   4.764
75548W        W45363  24.065  33.914   0.875
75549W        W45364  13.764   5.332   3.337
75550W        W45365  15.673  44.267   1.445
75551W        W45366   2.845  29.137   2.403
75552W        W45367  23.199  24.021   0.337
75553W        W45368  39.957  43.875  11.016
75554W        W45369  44.847  24.074   2.312
75555W        W45370  14.222  37.574   2.876
75556W        W45371  42.332  15.256   1.737
75557W        W45372  29.001   2.472  11.532
75558W        W45373  11.209  32.578   3.634
75559W        W45374  27.523  41.827   4.277
75560W        W45375   7.228  36.971   4.209
75561W        W45376  12.326  34.115  10.545
75562NA+    NA+45377  18.260   6.293  10.998
75563NA+    NA+45378  11.356   4.227  14.320
75564NA+    NA+45379  10.665  39.845   2.327
75565NA+    NA+45380  44.264   6.859   4.807
75566NA+    NA+45381   6.355   3.928  12.080
75567NA+    NA+45382  41.338  43.293  14.007
75568NA+    NA+45383  36.072  18.060  13.437
75569NA+    NA+45384  14.141  39.480   2.743
75570NA+    NA+45385   6.906  33.526   4.615
75571NA+    NA+45386  44.923  15.812  14.946
75572NA+    NA+45387  43.785  17.066  14.304
75573NA+    NA+45388  33.118   6.770  14.363
75574NA+    NA+45389  42.857   6.713  12.839
75575NA+    NA+45390  33.443  43.312  14.996
75576NA+    NA+45391  25.543  26.521   3.726
75577NA+    NA+45392  37.899  36.872   1.418
75578NA+    NA+45393   8.350  17.273  10.557
75579NA+    NA+45394  34.030  22.603   0.867
75580NA+    NA+45395  14.633  41.899   1.741
75581NA+    NA+45396  17.068  17.680   3.184
75582NA+    NA+45397   4.744  19.120   2.387
75583NA+    NA+45398  36.483  42.338   0.421
75584NA+    NA+45399  36.575   9.799  11.044
75585NA+    NA+45400   8.386  16.168   0.731
75586NA+    NA+45401   7.338  27.146   4.309
75587NA+    NA+45402   7.207  24.217   2.315
75588NA+    NA+45403   5.407  44.987   3.355
75589NA+    NA+45404  43.792   3.232   2.666
75590NA+    NA+45405  39.443  12.795  13.375
75591NA+    NA+45406  25.502  35.005  10.519
75592NA+    NA+45407  43.301  10.284  11.012
75593NA+    NA+45408  22.110  34.369  11.959
75594NA+    NA+45409  36.439  36.443  12.426
75595NA+    NA+45410  13.121  36.922  10.545
75596NA+    NA+45411  39.406  37.419  11.389
75597NA+    NA+45412   4.817  35.509  13.330
75598NA+    NA+45413  27.159   9.230   5.747
75599NA+    NA+45414  40.422  36.027  11.549
75600NA+    NA+45415  43.502  12.776  11.611
75601NA+    NA+45416  44.391  30.490   0.778
75602NA+    NA+45417  17.168  29.033  12.078
75603NA+    NA+45418  36.045   3.852  10.459
75604NA+    NA+45419   7.865   0.755  13.540
75605NA+    NA+45420  34.946  26.640  13.815
75606NA+    NA+45421  33.459  41.988   2.727
75607NA+    NA+45422  24.142   4.356   0.961
75608NA+    NA+45423  37.979  30.063   4.675
75609NA+    NA+45424  35.586  38.976   4.706
75610NA+    NA+45425  44.313  14.160  12.934
75611NA+    NA+45426  25.181  13.632   2.363
75612NA+    NA+45427  26.616   2.315   2.762
75613NA+    NA+45428  26.116  19.059   2.179
75614NA+    NA+45429  34.509  15.607   1.220
75615NA+    NA+45430  20.715   2.893   3.203
75616NA+    NA+45431  42.780  26.988   2.841
75617NA+    NA+45432   9.673  31.048  11.899
75618NA+    NA+45433  25.103  43.803   4.647
75619NA+    NA+45434  12.790  36.054   3.788
75620NA+    NA+45435  13.173   0.851   5.242
75621NA+    NA+45436  21.553  35.568  12.387
75622NA+    NA+45437   3.940  31.487  12.898
75623NA+    NA+45438  27.465  26.580   5.257
75624NA+    NA+45439  29.487  10.705  11.428
75625NA+    NA+45440  24.697  11.746  12.446
75626NA+    NA+45441  16.607  12.825   4.624
75627NA+    NA+45442  24.040  41.959  11.890
75628NA+    NA+45443  42.458  35.372   3.360
75629NA+    NA+45444  18.239  12.666   2.228
75630NA+    NA+45445  31.473  29.155   3.842
75631NA+    NA+45446  17.697  13.325  11.061
75632NA+    NA+45447   9.797  29.090  14.955
75633NA+    NA+45448   4.887  22.036  13.915
75634NA+    NA+45449  32.930  36.466  11.857
75635NA+    NA+45450  35.366  30.619  13.542
75636NA+    NA+45451  11.179  15.579  11.912
75637NA+    NA+45452  13.269  10.256  12.434
75638NA+    NA+45453  38.423  31.551  13.542
75639NA+    NA+45454  11.681  14.208  14.866
75640NA+    NA+45455  39.340  39.014  13.931
75641NA+    NA+45456   6.852   3.786   0.435
75642NA+    NA+45457  33.965  32.411  11.016
75643NA+    NA+45458  15.156  44.348   1.240
75644NA+    NA+45459  10.334   7.809   4.139
75645NA+    NA+45460  24.529  35.951   3.238
75646NA+    NA+45461  25.218  25.059   1.833
75647NA+    NA+45462  13.675  40.308  13.343
75648NA+    NA+45463  30.080  15.796  11.865
75649NA+    NA+45464  30.491  14.143   3.857
75650NA+    NA+45465  11.743  19.137   1.221
75651NA+    NA+45466  43.896  10.149  13.008
75652NA+    NA+45467  23.007  12.811  13.548
75653NA+    NA+45468  30.657  44.326   1.820
75654NA+    NA+45469  20.103  33.076  11.855
75655NA+    NA+45470  34.014  12.717   1.766
75656NA+    NA+45471   0.962  20.602  12.077
75657NA+    NA+45472  39.921  30.591   3.822
75658NA+    NA+45473  30.452   9.266  12.929
75659NA+    NA+45474  43.960  43.294   4.322
75660NA+    NA+45475  31.472  33.912   2.374
75661NA+    NA+45476  39.917   8.657   4.629
75662NA+    NA+45477  34.929  25.515  13.400
75663NA+    NA+45478  26.463  20.107  11.984
75664NA+    NA+45479  27.039  34.395  14.838
75665NA+    NA+45480  12.156  18.719   1.765
75666NA+    NA+45481  34.569   0.832  14.991
75667NA+    NA+45482   5.432  23.631  13.856
75668NA+    NA+45483  22.605  20.273  11.984
75669NA+    NA+45484   0.444  36.881   3.676
75670NA+    NA+45485   3.447  16.126  11.488
75671NA+    NA+45486   0.794  39.013  11.870
75672NA+    NA+45487  18.259   0.415   0.733
75673NA+    NA+45488  29.567  24.072   4.638
75674NA+    NA+45489  31.622  15.672  10.004
75675NA+    NA+45490  43.920  40.511   0.895
75676NA+    NA+45491  16.686  32.096  13.807
75677NA+    NA+45492  44.298  10.383   4.800
75678NA+    NA+45493  36.586  37.436  13.329
75679NA+    NA+45494  25.630  14.341   1.372
75680NA+    NA+45495  17.712   0.941   1.238
75681NA+    NA+45496  13.844   4.260  11.037
75682NA+    NA+45497  10.173  41.033  13.895
75683NA+    NA+45498  26.039   4.440  14.903
75684NA+    NA+45499  18.733   9.810   0.890
75685NA+    NA+45500   7.204  36.922  11.925
75686NA+    NA+45501  36.508  23.540  12.943
75687NA+    NA+45502  10.367  43.827  10.061
75688NA+    NA+45503  38.049  19.673  11.454
75689NA+    NA+45504  16.102  23.577   3.785
75690NA+    NA+45505  10.192  10.211  12.879
75691NA+    NA+45506  25.533  26.480   9.989
75692NA+    NA+45507   0.351  27.018   4.179
75693NA+    NA+45508   4.844  26.472  12.347
75694NA+    NA+45509   5.925  26.047   0.317
75695NA+    NA+45510  42.506   0.392   3.790
75696NA+    NA+45511  43.396  14.730   2.873
75697NA+    NA+45512  32.447  17.717  11.594
75698NA+    NA+45513  19.732  28.025  14.510
75699NA+    NA+45514  43.442  14.746  13.802
75700NA+    NA+45515  43.435   4.798  14.941
75701NA+    NA+45516  28.640  22.535  14.930
75702NA+    NA+45517  28.945  26.461   0.310
75703NA+    NA+45518  27.053  16.269   1.900
75704NA+    NA+45519  33.000   3.400  12.349
75705NA+    NA+45520  17.158  36.862  14.418
75706NA+    NA+45521  15.642  32.479   4.734
75707NA+    NA+45522  36.867  33.419  14.343
75708NA+    NA+45523  38.046  41.962  13.984
75709NA+    NA+45524   8.264  39.953  10.578
75710NA+    NA+45525  35.955   7.181   0.756
75711NA+    NA+45526   7.825  33.055  10.440
75712NA+    NA+45527   5.384   2.769   3.350
75713NA+    NA+45528   1.775  39.977   0.798
75714NA+    NA+45529   6.779  30.038   4.696
75715NA+    NA+45530  18.264  26.458  11.087
75716NA+    NA+45531  11.229  15.740   3.181
75717NA+    NA+45532  35.906   1.251   2.877
75718NA+    NA+45533  37.981  44.314   3.257
75719NA+    NA+45534  14.240   7.216   3.665
75720NA+    NA+45535   2.927  15.782   1.409
75721NA+    NA+45536   6.896  16.243  14.504
75722NA+    NA+45537  13.636  29.574   2.792
75723NA+    NA+45538  17.785  34.370   0.733
75724NA+    NA+45539  21.023  13.744   1.362
75725NA+    NA+45540  22.697  37.909   0.339
75726NA+    NA+45541   6.228  26.573  10.567
75727NA+    NA+45542   6.845   4.944  11.028
75728NA+    NA+45543  44.450  16.181  11.935
75729NA+    NA+45544  27.491  27.538  14.877
75730NA+    NA+45545  38.025   0.785  14.788
75731NA+    NA+45546  44.833  26.492   0.256
75732NA+    NA+45547  41.911   7.263  11.589
75733NA+    NA+45548  12.220  11.306  14.965
75734NA+    NA+45549  40.523  33.973  11.966
75735NA+    NA+45550  35.373   4.852  14.331
75736NA+    NA+45551   1.740   2.814  13.373
75737NA+    NA+45552   0.913  34.510   2.262
75738NA+    NA+45553  19.541  23.120  12.402
75739NA+    NA+45554  15.791  32.946   3.348
75740NA+    NA+45555   3.367   4.925  14.769
75741NA+    NA+45556  15.621  21.605  13.842
75742NA+    NA+45557  41.001   8.321   1.393
75743NA+    NA+45558   5.781  29.113  12.410
75744NA+    NA+45559  36.525  12.221  12.883
75745NA+    NA+45560  33.448  44.425   1.341
75746NA+    NA+45561  30.000   1.465   2.406
75747NA+    NA+45562  41.345  36.566   3.677
75748NA+    NA+45563  25.483  18.775   0.255
75749NA+    NA+45564  10.757  25.082  12.973
75750NA+    NA+45565  37.427   7.733  13.860
75751NA+    NA+45566  11.641  27.530  10.098
75752NA+    NA+45567  21.250  28.553  13.857
75753NA+    NA+45568  24.020  35.050   1.445
75754NA+    NA+45569  17.141  22.695  11.069
75755NA+    NA+45570  27.586  16.166   2.238
75756NA+    NA+45571  14.607  41.360   3.726
75757NA+    NA+45572  13.161  42.444  12.494
75758NA+    NA+45573  16.313  39.448   1.794
75759NA+    NA+45574  41.800  23.587   0.726
75760NA+    NA+45575   3.908  36.447   3.801
75761NA+    NA+45576   9.643  28.003  10.932
75762NA+    NA+45577  38.434  32.457  13.536
75763NA+    NA+45578  18.600  18.632   3.233
75764NA+    NA+45579  41.340  24.203  10.545
75765NA+    NA+45580   5.310  18.683  13.504
75766NA+    NA+45581  35.446  16.806  13.021
75767NA+    NA+45582  18.141   9.382   3.656
75768NA+    NA+45583  44.349  20.648   3.180
75769NA+    NA+45584  25.564   7.821  12.550
75770NA+    NA+45585  22.114  12.652   3.800
75771NA+    NA+45586  37.009  16.723  14.893
75772NA+    NA+45587  38.855  37.025   1.436
75773NA+    NA+45588  20.096  37.532  13.495
75774NA+    NA+45589  42.462  38.330   1.240
75775NA+    NA+45590  21.589  37.866  12.960
75776NA+    NA+45591  14.731  40.370   2.221
75777NA+    NA+45592  11.642   9.321   2.752
75778NA+    NA+45593   6.197   3.852   1.418
75779NA+    NA+45594  41.811   8.689  14.971
75780NA+    NA+45595  26.631   5.785  14.862
75781NA+    NA+45596  14.327  25.055  14.030
75782NA+    NA+45597   7.855   7.403   2.743
75783NA+    NA+45598  42.413   4.710  11.573
75784NA+    NA+45599  30.936  37.064  10.475
75785NA+    NA+45600   2.890  33.884   3.319
75786NA+    NA+45601   7.356  25.074   2.401
75787NA+    NA+45602   9.217  33.399  14.338
75788NA+    NA+45603  21.650  13.173   2.700
75789NA+    NA+45604  27.521  32.908   1.408
75790NA+    NA+45605  31.646   9.360   4.699
75791NA+    NA+45606  27.653   3.296   1.374
75792NA+    NA+45607   9.385   9.755   3.705
75793NA+    NA+45608   2.455  20.053   4.684
75794NA+    NA+45609  37.968  31.575  10.543
75795NA+    NA+45610   2.905  32.444  13.983
75796NA+    NA+45611  24.123  15.148   3.773
75797NA+    NA+45612  42.480   3.343  13.809
75798NA+    NA+45613  14.329   1.458  11.477
75799NA+    NA+45614  22.192  13.190   1.242
75800NA+    NA+45615  27.027  37.902  10.644
75801NA+    NA+45616  19.660  13.668   1.423
75802NA+    NA+45617  15.156   9.788  11.865
75803NA+    NA+45618  44.370  23.214   9.968
75804NA+    NA+45619  12.816  35.415  11.587
75805NA+    NA+45620  12.285  21.719  11.427
75806NA+    NA+45621  14.615  34.562   1.422
75807NA+    NA+45622  21.212   2.249  11.875
75808NA+    NA+45623  38.827   2.468   1.285
75809NA+    NA+45624   2.797  30.562  11.880
75810NA+    NA+45625  24.207   2.789  12.475
75811NA+    NA+45626   0.935  32.477  13.025
75812NA+    NA+45627   4.265  37.933  12.092
75813NA+    NA+45628   4.258  26.075   2.325
75814NA+    NA+45629  35.937  38.928  10.975
75815NA+    NA+45630  41.994  22.236  11.522
75816NA+    NA+45631  26.049  10.797  14.389
75817NA+    NA+45632   9.678  28.140   0.441
75818NA+    NA+45633  14.664  28.930   2.183
75819NA+    NA+45634  43.320  10.279   1.711
75820NA+    NA+45635  14.096  32.911  13.382
75821NA+    NA+45636  13.189   5.337  11.873
75822NA+    NA+45637  39.032  23.079  11.082
75823NA+    NA+45638   6.756  26.993   1.884
75824NA+    NA+45639  24.721  18.669   0.472
75825NA+    NA+45640   8.798   4.918   1.447
75826NA+    NA+45641  15.691  36.563  13.899
75827NA+    NA+45642  11.277  21.567   2.848
75828NA+    NA+45643  44.008  28.676   0.284
75829NA+    NA+45644  23.558  19.630  10.028
75830NA+    NA+45645  16.718  12.218   2.235
75831NA+    NA+45646   1.962  12.723  11.471
75832NA+    NA+45647  36.923  21.061   4.166
75833NA+    NA+45648  27.594   9.335   2.702
75834NA+    NA+45649  10.301  19.651   0.254
75835NA+    NA+45650  36.554   4.205   2.878
75836NA+    NA+45651  38.343  39.483   3.381
75837NA+    NA+45652  36.997  38.425   4.794
75838NA+    NA+45653  39.978  33.011   2.312
75839NA+    NA+45654  43.010  28.095   2.304
75840NA+    NA+45655  27.197   4.422   3.339
75841NA+    NA+45656  40.024  28.003   1.290
75842NA+    NA+45657  22.085   7.205   4.186
75843NA+    NA+45658  33.936  21.142   2.404
75844NA+    NA+45659  32.928   1.438  13.948
75845NA+    NA+45660  11.787  24.679   2.890
75846NA+    NA+45661   4.780  39.949   4.837
75847NA+    NA+45662  16.084  43.869   4.268
75848NA+    NA+45663  39.866   1.912  12.386
75849NA+    NA+45664  38.393  33.010  12.911
75850NA+    NA+45665  35.486  42.494  11.402
75851NA+    NA+45666  38.497   1.893   1.346
75852NA+    NA+45667   4.781  15.657   2.283
75853NA+    NA+45668   7.793   6.373   2.732
75854NA+    NA+45669  12.771   3.846   2.715
75855NA+    NA+45670  14.287   7.724   5.292
75856NA+    NA+45671   6.854  11.739   2.843
75857NA+    NA+45672  41.941   6.722   0.303
75858NA+    NA+45673   1.331   8.748   3.210
75859NA+    NA+45674  23.231   8.716   4.237
75860NA+    NA+45675  29.093  28.994  10.408
75861NA+    NA+45676  15.158   0.839  13.307
75862NA+    NA+45677  39.515  37.880   0.284
75863NA+    NA+45678  43.915   7.358   2.190
75864NA+    NA+45679  44.819  24.205  13.803
75865NA+    NA+45680  12.709  36.937   0.432
75866NA+    NA+45681  16.247  34.990  14.926
75867NA+    NA+45682  44.935  27.019   0.809
75868NA+    NA+45683  24.697  36.841   0.867
75869NA+    NA+45684  29.590  33.110   2.374
75870NA+    NA+45685  37.957   8.730   2.732
75871NA+    NA+45686  10.152  35.101   1.926
75872NA+    NA+45687  15.583   6.746   2.815
75873NA+    NA+45688  27.007  16.640  12.398
75874NA+    NA+45689  29.098  37.884   4.304
75875NA+    NA+45690  40.894  32.026   4.678
75876NA+    NA+45691  38.450  37.078   3.656
75877NA+    NA+45692  42.891  17.086  12.055
75878NA+    NA+45693   9.793  21.512  12.569
75879NA+    NA+45694  24.675  15.778  14.327
75880NA+    NA+45695  18.596   6.240   2.190
75881NA+    NA+45696  27.679  30.413  12.075
75882NA+    NA+45697  12.257  19.684  12.462
75883NA+    NA+45698  26.998  11.701  14.866
75884NA+    NA+45699  44.271   1.798   3.788
75885NA+    NA+45700  22.033  21.637   2.672
75886NA+    NA+45701  13.226  31.146   0.443
75887NA+    NA+45702  19.226  43.829  14.295
75888NA+    NA+45703  22.158  15.251  12.906
75889NA+    NA+45704  28.559  14.713   2.312
75890NA+    NA+45705  11.311   5.814   2.689
75891NA+    NA+45706  11.756  24.998  11.510
75892NA+    NA+45707  21.604   5.221  12.967
75893NA+    NA+45708  22.665   0.976  12.921
75894NA+    NA+45709   6.916  38.474   3.242
75895NA+    NA+45710  26.161  28.940   3.261
75896NA+    NA+45711  23.563  16.699   5.771
75897NA+    NA+45712  23.195  26.461   2.348
75898NA+    NA+45713  18.233  23.591   4.676
75899NA+    NA+45714  28.111  34.995   1.784
75900NA+    NA+45715   2.448  21.561   1.235
75901NA+    NA+45716  28.442  26.159  10.579
75902NA+    NA+45717   9.357  21.601   4.310
75903NA+    NA+45718  24.519  41.885   1.352
75904NA+    NA+45719  23.578  38.535   1.277
75905NA+    NA+45720  14.622  23.574  11.969
75906NA+    NA+45721  16.177  24.118  10.644
75907NA+    NA+45722  31.935  14.638  12.038
75908NA+    NA+45723  29.169  19.217   1.309
75909NA+    NA+45724  19.144   7.770  11.383
75910NA+    NA+45725  17.628  22.010  12.033
75911NA+    NA+45726  21.618  15.094   1.446
75912NA+    NA+45727   7.335  42.794   4.300
75913NA+    NA+45728  21.129  28.464  12.870
75914NA+    NA+45729  30.599  19.660   2.748
75915NA+    NA+45730  25.005  19.600   0.347
75916NA+    NA+45731   0.276  36.852   0.850
75917NA+    NA+45732  26.462  40.985  11.114
75918NA+    NA+45733  32.472  30.976  13.974
75919NA+    NA+45734   0.969   6.824  11.963
75920NA+    NA+45735  35.550  11.734  14.296
75921NA+    NA+45736  19.249   7.186  14.774
75922NA+    NA+45737  19.759  26.557   2.889
75923NA+    NA+45738  28.640  15.190  10.410
75924NA+    NA+45739  35.064  35.027   2.871
75925NA+    NA+45740  34.458  32.565  12.994
75926NA+    NA+45741   2.831  28.024   2.682
75927NA+    NA+45742  12.124  34.002   3.630
75928NA+    NA+45743  25.127  40.448   3.272
75929NA+    NA+45744  17.630  39.846  12.351
75930NA+    NA+45745  30.469  20.120   1.262
75931NA+    NA+45746  14.780  38.951  13.951
75932NA+    NA+45747  30.063  32.566  11.024
75933NA+    NA+45748  34.083  30.424   3.273
75934NA+    NA+45749  32.631  44.351   1.885
75935NA+    NA+45750  34.002   0.881  13.802
75936NA+    NA+45751   4.714  19.077   3.665
75937NA+    NA+45752  28.493  34.580   2.802
75938NA+    NA+45753  15.140  10.779   1.379
75939NA+    NA+45754  43.334  42.840  12.091
75940NA+    NA+45755  16.268   5.431  11.555
75941NA+    NA+45756  40.940   0.814  13.900
75942NA+    NA+45757  19.128  36.904  13.414
75943NA+    NA+45758  29.985  24.487   4.647
75944NA+    NA+45759  23.088  41.526   4.605
75945NA+    NA+45760   0.257  10.804   4.231
75946NA+    NA+45761  42.940  12.789   4.681
75947NA+    NA+45762   6.868  38.493   1.224
75948NA+    NA+45763   7.836   8.317   4.309
75949NA+    NA+45764   9.648  27.971   1.292
75950NA+    NA+45765  40.455   0.947  10.450
75951NA+    NA+45766  20.172   5.398  13.519
75952NA+    NA+45767  20.034  27.450  12.488
75953NA+    NA+45768  11.287  23.214  14.293
75954NA+    NA+45769  18.742  12.255  11.504
75955NA+    NA+45770  21.566   4.734  11.026
75956NA+    NA+45771  16.153  34.061   0.449
75957NA+    NA+45772  21.570  13.255  10.472
75958NA+    NA+45773   8.190  39.809   2.293
75959NA+    NA+45774  16.146  33.002  13.340
75960NA+    NA+45775  24.688  20.113  12.476
75961NA+    NA+45776   6.812  38.915  12.450
75962NA+    NA+45777  38.061  34.578  10.441
75963NA+    NA+45778  42.495   2.442   4.228
75964NA+    NA+45779  31.042  17.120   0.448
75965NA+    NA+45780   2.268   8.845  11.869
75966NA+    NA+45781  40.369   5.767  12.435
75967NA+    NA+45782   1.976  17.220  13.933
75968NA+    NA+45783  12.809   2.822   3.330
75969NA+    NA+45784  42.446  35.929   0.873
75970NA+    NA+45785  43.790  25.608  10.913
75971NA+    NA+45786  41.873   4.440  12.090
75972NA+    NA+45787   4.421  21.178  11.413
75973NA+    NA+45788   6.720  23.660   4.607
75974NA+    NA+45789  25.977  25.126   0.250
75975NA+    NA+45790  12.294  41.393  12.478
75976NA+    NA+45791  27.083  38.949   1.933
75977NA+    NA+45792   8.854  33.017   3.772
75978NA+    NA+45793  12.276  29.622   4.825
75979NA+    NA+45794  37.872  36.920   1.731
75980NA+    NA+45795  33.430  25.202   4.729
75981NA+    NA+45796  38.894  37.019  12.465
75982NA+    NA+45797  28.136  39.470  13.907
75983NA+    NA+45798   1.403  11.240  10.490
75984NA+    NA+45799  34.100   7.326   1.212
75985NA+    NA+45800   5.419  26.097   2.385
75986NA+    NA+45801  18.702  17.655  10.607
75987NA+    NA+45802  17.754   5.915  11.877
75988NA+    NA+45803   7.396  12.231  12.880
75989NA+    NA+45804  36.540  30.931  12.989
75990NA+    NA+45805  33.104  16.798   4.675
75991NA+    NA+45806  38.414  33.620  10.622
75992NA+    NA+45807  39.009  11.817   4.607
75993NA+    NA+45808  41.960   5.290   1.281
75994NA+    NA+45809  30.968  16.190   1.359
75995NA+    NA+45810  20.729  31.408  13.829
75996NA+    NA+45811  39.849  11.318  13.313
75997NA+    NA+45812  11.280  15.089  11.562
75998NA+    NA+45813   9.282  15.745   0.931
75999NA+    NA+45814  27.690   6.877   3.268
76000NA+    NA+45815   0.885   1.910   4.168
76001NA+    NA+45816   7.404   5.277  13.794
76002NA+    NA+45817  28.484  43.837  12.471
76003NA+    NA+45818   4.770  42.885   4.207
76004NA+    NA+45819  39.814  16.792  13.056
76005NA+    NA+45820   8.894  25.000  14.465
76006NA+    NA+45821   1.917   5.325  13.340
76007NA+    NA+45822  37.357  27.958  12.456
76008NA+    NA+45823  39.036   6.913   1.817
76009NA+    NA+45824   2.452  29.662  10.626
76010NA+    NA+45825  19.076   5.737  14.020
76011NA+    NA+45826  37.982   5.336   1.889
76012NA+    NA+45827  17.085  33.505  13.037
76013NA+    NA+45828  15.166  44.765   0.844
76014NA+    NA+45829  14.139  10.865   2.298
76015NA+    NA+45830  39.394  15.321   0.424
76016NA+    NA+45831  15.587  26.033  12.579
76017NA+    NA+45832  33.032  17.567   1.360
76018NA+    NA+45833  37.917  35.063   2.250
76019NA+    NA+45834  44.431  13.262   3.656
76020NA+    NA+45835  15.706  26.524   0.461
76021NA+    NA+45836  19.236  22.172  11.004
76022NA+    NA+45837  14.333  31.020  11.447
76023NA+    NA+45838   3.302   6.814  13.309
76024NA+    NA+45839  40.984  29.447   3.183
76025NA+    NA+45840  36.918  21.583  14.413
76026NA+    NA+45841  18.739  15.666  12.480
76027NA+    NA+45842  32.483  32.905  10.953
76028NA+    NA+45843  13.155  13.345   0.383
76029NA+    NA+45844   8.183  28.620   4.621
76030NA+    NA+45845  14.624  19.123   2.335
76031NA+    NA+45846  23.059   5.765  12.007
76032NA+    NA+45847  10.709  21.676   2.233
76033NA+    NA+45848  11.192   4.702  12.986
76034NA+    NA+45849   2.843   6.329  14.786
76035NA+    NA+45850   7.899  35.105   0.302
76036NA+    NA+45851  22.689  41.467   4.175
76037NA+    NA+45852  32.929  15.166   4.254
76038NA+    NA+45853  16.687  22.219  14.933
76039NA+    NA+45854  42.304  43.974  10.977
76040NA+    NA+45855  27.154  19.728   1.862
76041NA+    NA+45856   3.802  11.823   2.712
76042NA+    NA+45857   2.432  36.378  13.392
76043NA+    NA+45858  40.932  29.046   1.695
76044NA+    NA+45859   8.394   4.334  13.837
76045NA+    NA+45860  24.067  39.855  14.855
76046NA+    NA+45861  15.819  17.224   2.366
76047NA+    NA+45862  29.097  37.843  11.087
76048NA+    NA+45863   8.215  29.625   1.798
76049NA+    NA+45864  33.027  24.494  14.284
76050NA+    NA+45865  16.743   3.715   4.307
76051NA+    NA+45866  18.203   6.347  12.436
76052NA+    NA+45867  22.675  16.195   2.849
76053NA+    NA+45868   3.783  35.504  12.541
76054NA+    NA+45869  11.709   6.287   2.340
76055NA+    NA+45870   0.980  40.322   2.350
76056NA+    NA+45871  21.583  14.098   2.766
76057NA+    NA+45872   1.924   0.807  14.989
76058NA+    NA+45873  10.646   7.763  12.902
76059NA+    NA+45874  38.448   8.277   0.278
76060NA+    NA+45875  42.497   8.872   2.733
76061NA+    NA+45876  34.009  35.466  13.319
76062NA+    NA+45877  19.238  36.517  10.569
76063NA+    NA+45878   0.464  10.199   4.261
76064NA+    NA+45879  40.830  24.592  11.476
76065NA+    NA+45880  31.425  44.933  11.115
76066NA+    NA+45881  11.787  24.077   2.345
76067NA+    NA+45882  43.016  42.949   3.234
76068NA+    NA+45883  18.547  25.089   1.844
76069NA+    NA+45884  18.628   2.233   3.372
76070NA+    NA+45885  35.106  21.677   4.252
76071NA+    NA+45886  28.997  34.551  10.486
76072NA+    NA+45887  31.529  37.006   2.902
76073NA+    NA+45888  27.000   8.866  10.117
76074NA+    NA+45889  28.953   6.307   3.320
76075NA+    NA+45890  41.908  23.723  14.781
76076NA+    NA+45891  12.611  18.659  11.518
76077NA+    NA+45892  44.323  40.311   4.222
76078NA+    NA+45893  29.056  35.894   4.760
76079NA+    NA+45894  44.896  34.475  13.459
76080NA+    NA+45895  16.316  19.208   3.238
76081NA+    NA+45896  32.525  25.137   4.319
76082NA+    NA+45897   0.853  29.477  13.471
76083NA+    NA+45898  27.572  34.937  11.899
76084NA+    NA+45899  36.887  16.655   2.748
76085NA+    NA+45900   3.282  36.958   1.437
76086NA+    NA+45901  15.670  18.693   3.689
76087NA+    NA+45902  11.191  34.033   2.703
76088NA+    NA+45903  17.590   5.735  10.528
76089NA+    NA+45904  32.501  41.027  12.951
76090NA+    NA+45905  10.848   7.799  11.128
76091NA+    NA+45906  20.646  22.618   0.340
76092NA+    NA+45907   3.793  28.067   2.899
76093NA+    NA+45908  41.356   6.707  14.897
76094NA+    NA+45909  37.891  11.182   1.212
76095NA+    NA+45910  23.139  30.586   1.931
76096NA+    NA+45911  39.031  16.711  12.465
76097NA+    NA+45912  24.016  37.580   4.348
76098NA+    NA+45913  21.198  20.135   1.376
76099NA+    NA+45914  42.520   6.802  11.058
76100NA+    NA+45915  40.005  16.233  12.389
76101NA+    NA+45916  29.924  39.479   2.686
76102NA+    NA+45917  20.712  10.260   1.896
76103NA+    NA+45918  24.668  36.035  14.501
76104NA+    NA+45919  16.717   0.901  13.028
76105NA+    NA+45920  17.623  18.690  14.986
76106NA+    NA+45921  44.371  31.977   4.729
76107NA+    NA+45922  36.439  39.919  11.121
76108NA+    NA+45923   4.324  27.547  13.340
76109NA+    NA+45924   1.323  13.781   3.827
76110NA+    NA+45925  38.040  14.633   2.826
76111NA+    NA+45926  35.411  36.446   1.708
76112NA+    NA+45927  21.132   4.766  14.494
76113NA+    NA+45928   0.898  22.207  10.909
76114NA+    NA+45929  26.113  36.951  14.006
76115NA+    NA+45930   8.866  32.460   4.284
76116NA+    NA+45931   8.377  11.728  13.900
76117NA+    NA+45932  28.593  41.347  11.978
76118NA+    NA+45933   4.230  41.000   1.843
76119NA+    NA+45934  24.205  34.897   4.688
76120NA+    NA+45935  13.774  37.044   1.922
76121NA+    NA+45936   3.859  17.727   4.649
76122NA+    NA+45937  16.117   9.696  12.482
76123NA+    NA+45938  22.085  23.521  11.376
76124NA+    NA+45939   2.433  27.574  14.920
76125NA+    NA+45940  33.974  29.954  12.349
76126NA+    NA+45941   1.915  16.308  14.510
76127NA+    NA+45942  27.465  19.592  10.609
76128NA+    NA+45943  12.805   8.884  13.908
76129NA+    NA+45944   4.886  33.013  11.449
76130NA+    NA+45945  15.643  30.578  13.051
76131NA+    NA+45946  30.960  35.464   0.319
76132NA+    NA+45947  14.172   5.439  11.561
76133NA+    NA+45948  42.351  32.010   3.170
76134NA+    NA+45949  31.436   6.771   4.234
76135NA+    NA+45950   5.412  20.245  14.976
76136NA+    NA+45951  25.632  43.457  13.368
76137NA+    NA+45952   2.926  37.952  12.513
76138NA+    NA+45953   5.933  30.619  13.868
76139NA+    NA+45954  28.537   1.858   0.391
76140NA+    NA+45955  14.102  18.669   2.781
76141NA+    NA+45956   6.781  29.541  12.837
76142NA+    NA+45957  35.557  29.551  13.535
76143NA+    NA+45958  19.769  32.464   3.173
76144NA+    NA+45959  30.593  44.480   3.639
76145NA+    NA+45960  15.758  16.793   0.338
76146NA+    NA+45961  12.241  34.876  13.352
76147NA+    NA+45962  25.707   4.317   2.893
76148NA+    NA+45963   3.397  41.925   1.388
76149NA+    NA+45964  18.059  20.198  14.510
76150NA+    NA+45965  15.784   4.705  10.457
76151NA+    NA+45966  25.586   5.919   3.301
76152NA+    NA+45967  27.603  40.972  14.815
76153NA+    NA+45968  26.078  25.507  14.319
76154NA+    NA+45969   4.444   9.203  12.904
76155NA+    NA+45970  34.451  13.679  10.887
76156NA+    NA+45971   5.911   4.353   4.311
76157NA+    NA+45972  35.574   0.770   3.659
76158NA+    NA+45973   8.278  35.507   0.471
76159NA+    NA+45974   1.320  33.503   1.391
76160NA+    NA+45975   8.853  32.985   1.296
76161NA+    NA+45976  39.538  43.341   2.306
76162NA+    NA+45977  29.129   4.856   1.924
76163NA+    NA+45978  26.484  14.141  10.937
76164NA+    NA+45979  39.528  26.103  12.879
76165NA+    NA+45980  28.543  14.326  10.497
76166NA+    NA+45981  24.530  22.707   2.295
76167NA+    NA+45982  31.013   6.388   1.320
76168NA+    NA+45983   3.357  28.487  14.823
76169NA+    NA+45984  29.544   1.267   3.246
76170NA+    NA+45985  18.547   1.883  11.602
76171NA+    NA+45986  17.256   9.835   2.766
76172NA+    NA+45987  16.077  26.605   4.810
76173NA+    NA+45988  18.708   3.891  10.909
76174NA+    NA+45989  27.597  12.333   1.739
76175NA+    NA+45990  23.179  34.406  11.013
76176NA+    NA+45991  29.610  21.181  13.889
76177NA+    NA+45992  19.128  39.434   0.895
76178NA+    NA+45993  10.340  28.934   4.665
76179NA+    NA+45994   6.716   4.905   4.169
76180NA+    NA+45995   4.412  40.433   1.271
76181NA+    NA+45996  12.853  19.552  11.986
76182NA+    NA+45997  36.383  31.633   4.304
76183NA+    NA+45998  12.660  19.098  12.041
76184NA+    NA+45999  40.826  41.979   0.883
76185NA+    NA+46000  32.590  16.140  13.389
76186NA+    NA+46001  32.978  10.154  11.020
76187NA+    NA+46002   4.837   0.355   9.940
76188NA+    NA+46003  40.981  14.190  11.455
76189NA+    NA+46004  12.149  35.090   4.719
76190NA+    NA+46005   8.680  33.563   3.259
76191NA+    NA+46006  29.030   0.402  10.934
76192NA+    NA+46007  36.870   7.686   0.460
76193NA+    NA+46008  32.905   5.208  14.966
76194NA+    NA+46009  18.150  18.704  12.574
76195NA+    NA+46010  12.796  41.359  10.499
76196NA+    NA+46011  20.539   0.309   3.809
76197NA+    NA+46012  25.663  15.653  11.533
76198NA+    NA+46013   6.405  38.049   1.786
76199NA+    NA+46014  18.692  26.012  10.534
76200NA+    NA+46015  10.323   1.924   3.231
76201NA+    NA+46016   8.365  14.228   4.249
76202NA+    NA+46017  18.172   5.796   3.715
76203NA+    NA+46018  33.532  35.422  13.895
76204NA+    NA+46019   7.708   4.315   2.381
76205NA+    NA+46020   2.451  22.056   0.912
76206NA+    NA+46021  17.220   0.471   4.234
76207NA+    NA+46022  30.909  43.942   2.846
76208NA+    NA+46023  13.616  43.352   0.318
76209NA+    NA+46024  36.901   7.815  12.569
76210NA+    NA+46025  11.825  42.002  10.575
76211NA+    NA+46026  13.626  34.568   4.796
76212NA+    NA+46027   7.898   6.210   0.271
76213NA+    NA+46028   0.326   1.459  10.636
76214NA+    NA+46029  18.180  12.809  14.289
76215NA+    NA+46030  33.113  36.904   3.282
76216NA+    NA+46031  40.460  37.561   2.358
76217NA+    NA+46032  13.747  15.769  14.309
76218NA+    NA+46033  38.940   5.859  10.616
76219NA+    NA+46034  17.145   3.748   0.936
76220NA+    NA+46035  31.515  29.058   3.363
76221NA+    NA+46036  12.323  24.657   3.674
76222NA+    NA+46037  22.115  43.907  13.985
76223NA+    NA+46038   2.372  22.184   3.341
76224NA+    NA+46039   5.402  13.333  14.944
76225NA+    NA+46040  15.323   5.910  10.553
76226NA+    NA+46041  23.490   4.933  12.569
76227NA+    NA+46042  42.389  22.635  14.405
76228NA+    NA+46043  13.757   0.400  12.525
76229NA+    NA+46044  29.528  42.437  11.445
76230NA+    NA+46045  24.057  16.309  14.426
76231NA+    NA+46046  38.433   1.793   4.733
76232NA+    NA+46047  18.650  15.314   1.875
76233NA+    NA+46048  29.158  23.206   0.930
76234NA+    NA+46049  27.115  10.307   0.436
76235NA+    NA+46050   7.260  31.495   4.616
76236NA+    NA+46051  41.858  15.648  12.890
76237NA+    NA+46052  35.041  33.091  13.993
76238NA+    NA+46053  20.206  43.878  10.001
76239NA+    NA+46054   7.384  40.332   4.829
76240NA+    NA+46055  33.970  19.679  12.527
76241NA+    NA+46056  16.712  24.697   2.380
76242NA+    NA+46057  32.059   3.837  11.070
76243NA+    NA+46058  17.689  21.033   1.727
76244NA+    NA+46059  29.651  27.153   0.789
76245NA+    NA+46060  24.722  35.875   4.119
76246NA+    NA+46061  39.435  17.301   4.783
76247NA+    NA+46062  12.268  16.668  10.088
76248NA+    NA+46063   2.878  39.827   3.826
76249NA+    NA+46064  34.410  20.718   3.347
76250NA+    NA+46065  22.540  36.412   1.278
76251NA+    NA+46066  13.124   6.791  11.497
76252NA+    NA+46067   5.742  14.612  14.942
76253NA+    NA+46068  40.804  28.607  12.956
76254NA+    NA+46069  13.706  16.685  13.866
76255NA+    NA+46070   3.274  10.311   5.096
76256NA+    NA+46071  16.654  11.799  11.933
76257NA+    NA+46072  43.277  31.101  14.386
76258NA+    NA+46073  34.088  39.968   0.889
76259NA+    NA+46074  27.576  44.825   3.712
76260NA+    NA+46075  23.625  35.555   2.199
76261NA+    NA+46076  25.510   4.405   4.152
76262NA+    NA+46077  23.632  10.352   2.810
76263NA+    NA+46078  14.124  40.362  10.616
76264NA+    NA+46079  31.902  41.807   3.217
76265NA+    NA+46080  41.299  13.172  13.404
76266NA+    NA+46081   2.256  21.095   1.898
76267NA+    NA+46082  36.404  24.101  14.790
76268NA+    NA+46083   3.458  33.993  13.044
76269NA+    NA+46084  37.413  34.062  13.405
76270NA+    NA+46085  30.564   5.260  11.038
76271NA+    NA+46086   5.354   8.858  13.804
76272NA+    NA+46087  16.592   5.431   4.214
76273NA+    NA+46088  13.277  14.599  13.397
76274NA+    NA+46089  13.242  14.663   3.315
76275NA+    NA+46090  29.534  29.097  11.606
76276NA+    NA+46091  40.031  41.017   1.396
76277NA+    NA+46092   0.769  25.044   2.200
76278NA+    NA+46093  30.071  36.521  13.428
76279NA+    NA+46094  16.305  36.932   1.429
76280NA+    NA+46095  33.578  33.890  14.763
76281NA+    NA+46096   8.393  32.560  14.909
76282NA+    NA+46097  30.529   2.256   5.213
76283NA+    NA+46098  15.622  37.436  14.981
76284NA+    NA+46099  23.672  35.050  14.437
76285NA+    NA+46100   0.743  38.555   4.723
76286NA+    NA+46101  24.601  33.624  14.483
76287NA+    NA+46102  29.038  18.168   3.372
76288NA+    NA+46103  32.055  27.603   2.759
76289NA+    NA+46104  17.560  23.235  13.881
76290NA+    NA+46105  37.880  25.203   1.447
76291NA+    NA+46106  27.524  42.833   1.391
76292NA+    NA+46107  22.999   9.878  14.455
76293NA+    NA+46108  22.189   3.919   3.150
76294NA+    NA+46109  10.753  35.533   1.888
76295NA+    NA+46110  36.999  16.661   4.212
76296NA+    NA+46111  41.003   1.960  11.560
76297NA+    NA+46112   3.363  26.150   0.867
76298NA+    NA+46113   4.732  29.624   4.728
76299NA+    NA+46114  20.525  24.050  10.996
76300NA+    NA+46115  13.340  30.603   9.921
76301NA+    NA+46116   5.826   9.874   2.872
76302NA+    NA+46117   9.832  35.873   1.825
76303NA+    NA+46118   5.721  33.047  14.394
76304NA+    NA+46119  33.593   1.449  13.829
76305NA+    NA+46120  40.930   0.372  14.880
76306NA+    NA+46121  30.966  41.923  12.941
76307NA+    NA+46122  11.793  30.152   3.801
76308NA+    NA+46123  42.864  11.696  13.868
76309NA+    NA+46124  41.888  44.999  13.847
76310NA+    NA+46125  24.653  36.039   3.811
76311NA+    NA+46126  29.148  15.728  13.467
76312NA+    NA+46127  18.078  21.258  14.348
76313NA+    NA+46128   6.300  21.541   3.276
76314NA+    NA+46129  26.620   6.703   2.846
76315NA+    NA+46130  28.460  40.887  14.277
76316NA+    NA+46131   0.807  38.020  11.989
76317NA+    NA+46132  37.087  18.544   1.777
76318NA+    NA+46133   6.384   7.800   1.808
76319NA+    NA+46134   3.912  21.076  12.575
76320NA+    NA+46135  43.496  25.586  14.920
76321NA+    NA+46136  28.613  24.034   0.785
76322NA+    NA+46137   4.233  29.513   2.697
76323NA+    NA+46138  18.175  41.999   1.935
76324NA+    NA+46139  27.455  19.637  14.930
76325NA+    NA+46140  35.859  31.521  13.532
76326NA+    NA+46141  44.363   0.440   1.885
76327NA+    NA+46142  19.574   4.944   1.364
76328NA+    NA+46143  30.477  19.624  14.424
76329NA+    NA+46144  34.937  36.569  12.039
76330NA+    NA+46145   2.368   2.739  10.483
76331NA+    NA+46146  20.670  19.538  12.357
76332NA+    NA+46147  15.236  25.967   3.301
76333NA+    NA+46148  24.695   7.707   3.258
76334NA+    NA+46149  19.061  30.127   2.196
76335NA+    NA+46150   4.780  29.146  13.045
76336NA+    NA+46151  14.290  14.218  12.398
76337NA+    NA+46152  10.305   2.891   0.835
76338NA+    NA+46153  11.660  31.537  13.877
76339NA+    NA+46154  22.614  15.313   4.335
76340NA+    NA+46155  29.048  38.028   3.659
76341NA+    NA+46156   3.337   7.905  12.859
76342NA+    NA+46157  29.986  41.339  10.432
76343NA+    NA+46158  14.339  19.716   3.717
76344NA+    NA+46159  27.134  21.635   3.148
76345NA+    NA+46160  11.640  12.672   2.862
76346NA+    NA+46161   5.335  20.178   3.229
76347NA+    NA+46162   4.932   5.266   0.899
76348NA+    NA+46163  38.016  16.695  14.835
76349NA+    NA+46164  41.422  43.271  10.621
76350NA+    NA+46165  15.705  17.671  13.375
76351NA+    NA+46166   1.783  32.440   3.858
76352NA+    NA+46167  29.459  44.789   0.846
76353NA+    NA+46168   6.886   5.384  12.896
76354NA+    NA+46169  37.987  22.558  14.394
76355NA+    NA+46170  39.877   3.876   1.269
76356NA+    NA+46171   0.807   5.850  13.995
76357NA+    NA+46172  24.710  41.364   0.879
76358NA+    NA+46173   1.804   1.400  12.353
76359NA+    NA+46174  16.756  16.159   2.244
76360NA+    NA+46175  40.494  38.887   3.287
76361NA+    NA+46176  30.912  14.278   4.337
76362NA+    NA+46177   7.752   3.444  13.993
76363NA+    NA+46178   5.931  12.730  14.450
76364NA+    NA+46179  40.456   2.776  12.967
76365NA+    NA+46180  40.963  36.582   1.814
76366NA+    NA+46181  20.219   0.974   5.253
76367NA+    NA+46182   9.296   9.160  10.638
76368NA+    NA+46183   4.812   9.214  12.460
76369NA+    NA+46184  35.571  18.767  13.345
76370NA+    NA+46185  38.325  37.467   4.830
76371NA+    NA+46186  13.756  34.891  10.567
76372NA+    NA+46187  35.027  17.248   9.993
76373NA+    NA+46188  30.125  20.747   3.168
76374NA+    NA+46189  39.408  34.995   2.367
76375NA+    NA+46190  11.849  16.099  13.969
76376NA+    NA+46191   8.759  14.111   0.251
76377NA+    NA+46192  37.517  26.181  12.909
76378NA+    NA+46193  11.233  36.967  12.861
76379NA+    NA+46194  35.392  24.599  13.925
76380NA+    NA+46195  40.034   5.784   5.767
76381NA+    NA+46196  30.577  26.076   3.241
76382NA+    NA+46197  18.745  14.814   2.735
76383NA+    NA+46198  36.549  40.538  12.419
76384NA+    NA+46199   7.235  32.402  12.546
76385NA+    NA+46200  33.596   9.798   4.739
76386NA+    NA+46201  18.290  38.035  13.796
76387NA+    NA+46202  42.002  33.496   2.683
76388NA+    NA+46203  29.969  24.539  11.526
76389NA+    NA+46204   4.920  25.062  13.818
76390NA+    NA+46205  35.429  34.581   4.738
76391NA+    NA+46206  23.005  12.199   4.762
76392NA+    NA+46207  41.311  38.488  12.398
76393NA+    NA+46208  14.140   8.304   2.338
76394NA+    NA+46209  30.461  11.279   3.146
76395NA+    NA+46210  30.009  28.560   3.708
76396NA+    NA+46211  10.169  10.698  10.432
76397NA+    NA+46212  42.872  13.122  11.427
76398NA+    NA+46213  37.458  16.155  14.839
76399NA+    NA+46214  17.286  12.642  10.965
76400NA+    NA+46215   2.338   7.720  14.438
76401NA+    NA+46216   9.360  28.087  10.927
76402NA+    NA+46217  12.273  22.215  11.537
76403NA+    NA+46218  30.026  20.750  13.947
76404NA+    NA+46219  14.809   6.373   1.927
76405NA+    NA+46220  13.802  40.331  11.503
76406NA+    NA+46221  36.496   9.869  14.283
76407NA+    NA+46222  18.773   3.755  13.515
76408NA+    NA+46223  44.306   2.850   4.338
76409NA+    NA+46224  30.026   2.835  11.502
76410NA+    NA+46225  43.999  11.636  13.026
76411NA+    NA+46226   7.200  24.517   3.683
76412NA+    NA+46227   5.397  39.895  10.444
76413NA+    NA+46228  31.114   6.900  14.818
76414NA+    NA+46229   7.372  14.238  11.385
76415NA+    NA+46230  12.263  35.946   2.820
76416NA+    NA+46231   4.437  12.741   0.386
76417NA+    NA+46232  17.613   5.432   0.259
76418NA+    NA+46233  36.952  18.141   0.274
76419NA+    NA+46234   9.255  34.494   1.338
76420NA+    NA+46235  34.493  35.592  13.399
76421NA+    NA+46236  18.186  24.556  12.467
76422NA+    NA+46237  25.705  44.334  12.538
76423NA+    NA+46238  11.237  31.512   3.818
76424NA+    NA+46239  30.116  32.932  12.058
76425NA+    NA+46240  38.033  40.545   0.891
76426NA+    NA+46241  16.127  17.239  12.525
76427NA+    NA+46242  10.785  11.684   0.381
76428NA+    NA+46243  42.022  19.777  11.856
76429NA+    NA+46244  41.452   7.336   1.729
76430NA+    NA+46245  30.111   1.801  14.824
76431NA+    NA+46246   5.196  35.408  12.546
76432NA+    NA+46247  14.657  41.493   3.351
76433NA+    NA+46248  12.356  27.551   4.701
76434NA+    NA+46249   8.377  36.850   2.288
76435NA+    NA+46250  25.098  39.324   5.096
76436NA+    NA+46251   5.373  19.203  10.907
76437NA+    NA+46252  20.530   6.248  10.939
76438NA+    NA+46253  19.712   7.792  10.508
76439NA+    NA+46254  24.540   4.381  13.418
76440NA+    NA+46255  31.585  26.129  12.345
76441NA+    NA+46256  30.998  42.800  10.415
76442NA+    NA+46257   6.802  30.924  10.515
76443NA+    NA+46258  11.710  30.945  14.428
76444NA+    NA+46259  27.671   4.294   0.402
76445NA+    NA+46260  25.525  18.667   3.251
76446NA+    NA+46261  37.020  41.364  13.319
76447NA+    NA+46262  16.146  19.169   2.192
76448NA+    NA+46263  33.920   4.872   0.242
76449NA+    NA+46264  31.529  35.494  11.489
76450NA+    NA+46265  38.924  42.292  14.925
76451NA+    NA+46266  15.624  34.410   3.320
76452NA+    NA+46267  26.176  33.953  13.817
76453NA+    NA+46268  15.691   3.897  13.877
76454NA+    NA+46269   1.770  15.222   2.893
76455NA+    NA+46270   1.918  22.649   2.662
76456NA+    NA+46271  29.135  32.001   2.807
76457NA+    NA+46272  36.021  20.160   3.296
76458NA+    NA+46273  10.361  30.991  10.514
76459NA+    NA+46274   1.300  24.207   1.433
76460NA+    NA+46275   8.870  22.132  11.006
76461NA+    NA+46276  43.871  40.984   3.819
76462NA+    NA+46277  14.829  15.260   2.242
76463NA+    NA+46278  19.654  26.171  12.862
76464NA+    NA+46279   9.347  13.342  11.047
76465NA+    NA+46280   1.915   6.264  14.507
76466NA+    NA+46281  40.404  43.898  14.951
76467NA+    NA+46282  13.676  11.292   4.265
76468NA+    NA+46283  20.260   8.384  10.562
76469NA+    NA+46284  22.523   0.754   0.400
76470NA+    NA+46285  20.589  32.564   0.761
76471NA+    NA+46286   7.779   7.407  14.491
76472NA+    NA+46287  32.890   5.282  12.018
76473NA+    NA+46288   6.681   0.972  13.906
76474NA+    NA+46289  37.345  14.703   4.298
76475NA+    NA+46290   4.228  37.086  12.401
76476NA+    NA+46291   3.725  35.998   0.249
76477NA+    NA+46292  32.905  36.883   1.298
76478NA+    NA+46293  25.710  22.097  13.887
76479NA+    NA+46294  28.487   2.934  14.030
76480NA+    NA+46295  38.009  33.541  14.478
76481NA+    NA+46296  12.293  13.815   3.719
76482NA+    NA+46297  31.047   3.316   3.355
76483NA+    NA+46298  22.054   1.265  13.898
76484NA+    NA+46299  15.698  25.675  14.901
76485NA+    NA+46300   9.393  11.667  11.901
76486NA+    NA+46301  41.477   6.273  14.765
76487NA+    NA+46302  43.312   0.464   0.844
76488NA+    NA+46303   9.312  20.115   0.373
76489NA+    NA+46304  40.451   8.698  11.514
76490NA+    NA+46305  43.982   7.396  14.375
76491NA+    NA+46306  29.157  32.629   3.303
76492NA+    NA+46307  13.124   3.406  11.563
76493NA+    NA+46308  24.105  34.121   3.271
76494NA+    NA+46309  22.689  32.554  14.788
76495NA+    NA+46310   8.278  38.524  11.574
76496NA+    NA+46311  20.167   0.770   4.202
76497NA+    NA+46312  37.506  18.056   3.777
76498NA+    NA+46313   7.402  29.556   3.182
76499NA+    NA+46314  44.806  27.636  13.496
76500NA+    NA+46315  44.001  20.720  11.074
76501NA+    NA+46316  43.298  35.560  11.469
76502NA+    NA+46317  39.540   0.742   2.879
76503NA+    NA+46318  18.287  13.678  11.057
76504NA+    NA+46319  31.020  25.170   3.771
76505NA+    NA+46320   1.834  36.031   1.818
76506NA+    NA+46321  11.807   2.892   4.644
76507NA+    NA+46322   7.200   3.391   1.438
76508NA+    NA+46323  20.557   1.795   1.320
76509NA+    NA+46324  32.084  14.322  13.448
76510NA+    NA+46325  37.353  24.716   3.339
76511NA+    NA+46326   5.812  41.026  12.068
76512NA+    NA+46327  25.972  11.682   0.908
76513NA+    NA+46328  29.532  14.261   3.199
76514NA+    NA+46329  17.152  14.116   3.664
76515NA+    NA+46330  41.957   8.769  11.497
76516NA+    NA+46331  40.536  35.978  12.493
76517NA+    NA+46332   9.343   1.387   1.862
76518NA+    NA+46333   8.257  44.996   2.736
76519NA+    NA+46334  22.231   1.764   4.729
76520NA+    NA+46335   1.417  24.673   3.168
76521NA+    NA+46336  41.875  16.795   5.668
76522NA+    NA+46337  37.860  32.558   1.811
76523NA+    NA+46338  40.400  43.841   1.887
76524NA+    NA+46339   8.760   3.359   1.348
76525NA+    NA+46340  23.159  19.705   3.188
76526NA+    NA+46341  33.888  28.499  14.493
76527NA+    NA+46342  38.848  28.623   3.839
76528NA+    NA+46343  36.861   9.647  11.095
76529NA+    NA+46344  35.052  43.773  14.879
76530NA+    NA+46345  19.180  10.319  11.507
76531NA+    NA+46346  43.396  10.841   0.853
76532NA+    NA+46347  44.357   7.792   3.824
76533NA+    NA+46348  31.102  36.972   4.763
76534NA+    NA+46349  14.827  39.013  11.892
76535NA+    NA+46350  26.170  35.583  13.434
76536NA+    NA+46351  32.104  30.911   1.219
76537NA+    NA+46352  21.537   5.910  13.855
76538NA+    NA+46353   1.734   7.827   1.827
76539NA+    NA+46354  14.146  15.240   0.440
76540NA+    NA+46355  40.852  37.348  14.824
76541NA+    NA+46356  30.419  15.592  14.809
76542NA+    NA+46357  40.320   1.734   4.192
76543NA+    NA+46358  18.581  20.130   4.797
76544NA+    NA+46359  18.070  10.215   4.177
76545NA+    NA+46360  12.764   2.403   1.313
76546NA+    NA+46361   5.929  12.121   0.415
76547NA+    NA+46362  40.025   1.870   5.769
76548NA+    NA+46363  21.656  44.342  13.844
76549NA+    NA+46364  30.036  35.562  12.884
76550NA+    NA+46365  10.299   0.862  12.441
76551NA+    NA+46366  23.105  11.641   3.228
76552NA+    NA+46367  34.610  32.890   4.341
76553NA+    NA+46368  42.933  29.590  10.593
76554NA+    NA+46369   4.841  31.408   2.690
76555NA+    NA+46370  32.628  35.051   2.839
76556NA+    NA+46371  22.690  11.835   4.771
76557NA+    NA+46372  31.979  34.029   0.276
76558NA+    NA+46373  39.503   3.242   0.410
76559NA+    NA+46374  38.530  22.596   1.827
76560NA+    NA+46375  41.835   7.349   1.837
76561NA+    NA+46376   1.804   2.805   1.786
76562NA+    NA+46377   6.415  26.014  12.900
76563NA+    NA+46378   2.958  21.167  11.888
76564NA+    NA+46379  14.167  36.372   1.874
76565NA+    NA+46380  16.208  38.057  13.002
76566NA+    NA+46381  13.320  42.491  14.013
76567NA+    NA+46382  37.546  32.929  14.353
76568NA+    NA+46383   7.752   0.255  13.461
76569NA+    NA+46384  32.392  25.179   1.829
76570NA+    NA+46385  34.948  23.632  13.453
76571NA+    NA+46386  25.994  16.691   0.283
76572NA+    NA+46387  35.031  28.556   2.788
76573NA+    NA+46388  20.642  34.502  12.981
76574NA+    NA+46389   5.345  43.917   2.189
76575NA+    NA+46390  15.119  19.085  11.986
76576NA+    NA+46391  12.301  34.523   4.828
76577NA+    NA+46392  17.601  36.349  13.407
76578NA+    NA+46393  35.854  43.851  12.041
76579NA+    NA+46394  20.043  40.366  13.008
76580NA+    NA+46395  29.118   3.255   1.901
76581NA+    NA+46396  44.837  31.040  12.023
76582NA+    NA+46397   0.479  18.145  13.932
76583NA+    NA+46398  34.104   9.170   0.482
76584NA+    NA+46399   6.426  23.064   3.315
76585NA+    NA+46400   2.811  20.610   2.732
76586NA+    NA+46401  15.586   0.479  11.510
76587NA+    NA+46402   8.850  27.584   0.885
76588NA+    NA+46403  43.369  43.276  13.994
76589NA+    NA+46404  43.386  18.070   2.878
76590NA+    NA+46405  22.006   9.681   4.150
76591NA+    NA+46406  25.984  10.172  11.925
76592NA+    NA+46407  34.501  27.645  12.410
76593NA+    NA+46408   5.762  37.412   3.825
76594NA+    NA+46409  41.381  25.497  13.826
76595NA+    NA+46410  23.524  35.971  10.898
76596NA+    NA+46411  24.976  11.644   4.807
76597NA+    NA+46412  21.148  22.722  13.337
76598NA+    NA+46413  20.065  13.322  11.108
76599NA+    NA+46414   4.710   2.956  10.590
76600NA+    NA+46415  18.171   6.201   2.676
76601NA+    NA+46416   8.805  34.100   3.171
76602NA+    NA+46417   3.951  17.261  10.617
76603NA+    NA+46418  38.548  39.367  13.462
76604NA+    NA+46419   4.928  27.605  14.468
76605NA+    NA+46420   9.294  43.457  11.391
76606NA+    NA+46421  31.421  33.615  14.345
76607NA+    NA+46422  41.997  13.704   4.750
76608NA+    NA+46423  23.685  16.146  11.523
76609NA+    NA+46424  15.607   0.416   1.831
76610NA+    NA+46425  18.667   6.682  13.407
76611NA+    NA+46426  34.497  26.961   1.414
76612NA+    NA+46427  35.435  37.933   1.788
76613NA+    NA+46428  16.571  31.034  11.498
76614NA+    NA+46429   1.970  37.016   2.270
76615NA+    NA+46430  20.121  10.762  10.554
76616NA+    NA+46431  37.962  33.948  10.538
76617NA+    NA+46432  21.255  33.474   1.384
76618NA+    NA+46433  44.756  40.017   1.429
76619NA+    NA+46434  20.689  44.006  10.407
76620NA+    NA+46435   8.785  39.867   4.206
76621NA+    NA+46436   0.387  15.135  13.350
76622NA+    NA+46437  14.782  25.669  13.989
76623NA+    NA+46438  26.960   3.325   3.710
76624NA+    NA+46439  33.483   9.294   3.154
76625NA+    NA+46440  37.538   3.433  14.463
76626NA+    NA+46441  15.714  29.587  12.031
76627NA+    NA+46442  44.791  19.715   3.348
76628NA+    NA+46443  43.866  41.457   4.620
76629NA+    NA+46444   5.315  37.536   0.246
76630NA+    NA+46445  38.917  18.295  13.480
76631NA+    NA+46446  26.632  34.971  14.926
76632NA+    NA+46447   6.203  19.059  12.383
76633NA+    NA+46448   7.174  19.737   2.389
76634NA+    NA+46449   7.342  36.399  14.787
76635NA+    NA+46450   0.254   5.864  13.063
76636NA+    NA+46451  26.515  36.881   2.197
76637NA+    NA+46452  34.588  37.429   0.733
76638NA+    NA+46453  37.517  37.437  14.821
76639NA+    NA+46454  40.864  26.696   2.672
76640NA+    NA+46455   7.802  15.254   2.387
76641NA+    NA+46456  27.076  15.597   9.954
76642NA+    NA+46457   2.834  34.865  14.959
76643NA+    NA+46458  39.838   7.303  10.606
76644NA+    NA+46459   8.239  33.001  14.380
76645NA+    NA+46460  23.048  23.548   0.286
76646NA+    NA+46461  13.200   0.485   0.350
76647NA+    NA+46462  24.141   5.737  14.351
76648NA+    NA+46463  29.079   2.782   2.378
76649NA+    NA+46464  40.956  34.444   0.362
76650NA+    NA+46465  27.482  35.558  11.579
76651NA+    NA+46466  39.468   0.971   0.749
76652NA+    NA+46467  42.436  27.602   2.768
76653NA+    NA+46468  23.131  19.085   0.270
76654NA+    NA+46469  34.969  19.753   1.265
76655NA+    NA+46470  10.724  35.377   4.678
76656NA+    NA+46471  43.342  18.567   3.835
76657NA+    NA+46472  13.759  16.576   1.351
76658NA+    NA+46473  13.728  37.510   3.387
76659NA+    NA+46474   3.382   4.420  10.013
76660NA+    NA+46475  33.469  18.106   4.349
76661NA+    NA+46476  39.832  42.806  14.961
76662NA+    NA+46477  14.755  16.734  11.884
76663NA+    NA+46478  36.018  10.714   2.806
76664NA+    NA+46479  10.729  21.620  12.562
76665NA+    NA+46480  16.140  12.333  14.018
76666NA+    NA+46481  44.300  16.197   0.246
76667NA+    NA+46482  33.387   2.413  11.024
76668NA+    NA+46483   9.287  17.227   0.742
76669NA+    NA+46484  33.470  38.050  13.363
76670NA+    NA+46485  31.930  33.406   3.312
76671NA+    NA+46486  39.045  10.203   1.231
76672NA+    NA+46487  34.514   5.207  14.355
76673NA+    NA+46488  10.373  27.992   4.290
76674NA+    NA+46489  24.229  41.810   0.383
76675NA+    NA+46490  19.763  14.309  11.399
76676NA+    NA+46491  17.724  37.076  12.396
76677NA+    NA+46492  31.079  39.510   2.776
76678NA+    NA+46493   1.291  19.671  11.118
76679NA+    NA+46494   6.918   3.310  12.562
76680NA+    NA+46495   3.385  12.698  11.089
76681NA+    NA+46496  34.556  42.967  12.957
76682NA+    NA+46497  20.262  37.028   3.724
76683NA+    NA+46498   9.793  14.631  10.903
76684NA+    NA+46499  41.899  28.594  11.473
76685NA+    NA+46500  24.065  35.094   0.336
76686NA+    NA+46501  29.441  38.895   1.353
76687NA+    NA+46502  17.121   3.854  13.023
76688NA+    NA+46503  44.852  12.160  14.321
76689NA+    NA+46504  20.739  34.874   3.200
76690NA+    NA+46505  34.054  17.696  12.835
76691NA+    NA+46506  17.294  28.523  13.456
76692NA+    NA+46507  16.674  23.226   4.652
76693NA+    NA+46508  30.413  12.116   3.219
76694NA+    NA+46509  19.545  29.134   3.240
76695NA+    NA+46510  29.969  10.689  12.403
76696NA+    NA+46511   1.368  33.984  14.912
76697NA+    NA+46512  32.436  40.992  14.325
76698NA+    NA+46513  19.221  15.654   2.835
76699NA+    NA+46514  19.171  44.368   3.236
76700NA+    NA+46515   7.854   6.369  14.449
76701NA+    NA+46516   4.233  29.534   0.943
76702NA+    NA+46517  12.182  28.053  14.774
76703NA+    NA+46518   7.172  17.653   2.662
76704NA+    NA+46519  32.069  14.193  11.553
76705NA+    NA+46520  27.069   5.770   2.725
76706NA+    NA+46521  18.200   0.920  12.864
76707NA+    NA+46522  33.084  44.760   2.281
76708NA+    NA+46523  12.616  40.861  13.049
76709NA+    NA+46524  24.208  20.105  14.905
76710NA+    NA+46525  42.780  41.882   0.262
76711NA+    NA+46526  32.503   2.754   0.337
76712NA+    NA+46527  28.125  27.081  10.411
76713NA+    NA+46528  16.656  21.516  11.432
76714NA+    NA+46529  21.147  31.489  10.419
76715NA+    NA+46530   9.291  25.097  11.059
76716NA+    NA+46531   1.373  38.466   0.729
76717NA+    NA+46532  21.734  40.516   3.236
76718NA+    NA+46533   4.739   7.873  13.886
76719NA+    NA+46534  34.953  24.176   0.334
76720NA+    NA+46535  18.631  33.430  13.851
76721NA+    NA+46536  29.424  11.358  10.527
76722NA+    NA+46537   6.183   1.909   4.127
76723NA+    NA+46538   3.843   7.756  12.848
76724NA+    NA+46539  20.111  28.043  13.913
76725NA+    NA+46540  37.563  25.701   2.879
76726NA+    NA+46541  39.870  25.055   3.869
76727NA+    NA+46542  29.120  24.705  12.920
76728NA+    NA+46543  36.441  26.957  14.374
76729NA+    NA+46544  40.479  29.159   1.880
76730NA+    NA+46545   1.942  42.466  14.957
76731NA+    NA+46546  18.612  35.894   5.322
76732NA+    NA+46547  26.538  36.091   1.795
76733NA+    NA+46548  16.231  35.025  14.001
76734NA+    NA+46549  18.674  11.231  14.903
76735NA+    NA+46550  13.267  16.233  11.061
76736NA+    NA+46551   2.773  34.973   3.748
76737NA+    NA+46552  18.707  21.714   1.245
76738NA+    NA+46553  15.183   5.364  11.865
76739NA+    NA+46554   0.394  37.908   1.343
76740NA+    NA+46555   6.879  35.455   3.819
76741NA+    NA+46556  10.138  29.064   2.704
76742NA+    NA+46557  21.240  33.056  10.095
76743NA+    NA+46558   4.387  23.205  11.603
76744NA+    NA+46559   8.804  16.605   3.386
76745NA+    NA+46560  26.580  20.271   2.836
76746NA+    NA+46561  18.643   5.809   4.716
76747NA+    NA+46562  27.168  29.635   4.599
76748NA+    NA+46563  19.706  11.149  10.485
76749NA+    NA+46564  22.010  44.968  14.825
76750NA+    NA+46565  13.246   9.812  14.026
76751NA+    NA+46566  41.489  40.452  14.279
76752NA+    NA+46567  12.717  43.776  11.379
76753NA+    NA+46568  23.611  27.659  14.845
76754NA+    NA+46569   9.708  22.675   1.763
76755NA+    NA+46570  39.377  30.088   0.736
76756NA+    NA+46571  23.622  32.599  11.508
76757NA+    NA+46572  14.237  19.095   0.458
76758NA+    NA+46573  35.034  44.284  11.885
76759NA+    NA+46574  31.105   5.884  11.483
76760NA+    NA+46575  11.203  21.225   2.677
76761NA+    NA+46576   0.391  37.438   4.212
76762NA+    NA+46577  27.152  11.658   0.335
76763NA+    NA+46578  44.396  18.058   1.924
76764NA+    NA+46579  22.586  35.589   2.667
76765NA+    NA+46580  30.644   6.288   0.797
76766NA+    NA+46581  11.761  15.205   0.908
76767NA+    NA+46582  35.505  38.021   4.717
76768NA+    NA+46583   2.306   6.816  13.478
76769NA+    NA+46584  20.168  32.515  14.311
76770NA+    NA+46585   1.306  36.952  10.546
76771NA+    NA+46586  36.088  34.490   4.749
76772NA+    NA+46587  31.467  15.640   4.242
76773NA+    NA+46588  18.578  41.805  14.899
76774NA+    NA+46589  29.150   2.942   0.868
76775NA+    NA+46590   8.168   3.224  13.968
76776NA+    NA+46591   5.432  36.064   4.303
76777NA+    NA+46592  30.051   9.341  11.044
76778NA+    NA+46593  37.835  30.161  12.859
76779NA+    NA+46594  30.145  22.029   0.852
76780NA+    NA+46595   3.248  12.737   2.317
76781NA+    NA+46596  25.695  38.543   4.122
76782NA+    NA+46597   9.814  11.372   3.815
76783NA+    NA+46598   3.319  12.784  13.001
76784NA+    NA+46599  41.537   4.911  11.927
76785NA+    NA+46600  24.592   1.811  11.541
76786NA+    NA+46601  19.739  29.965   1.395
76787NA+    NA+46602  40.026  22.190  11.598
76788NA+    NA+46603   2.425  35.496   0.741
76789NA+    NA+46604   9.197   2.337   3.864
76790NA+    NA+46605  20.243  14.252   4.324
76791NA+    NA+46606  28.093  37.436  10.159
76792NA+    NA+46607  36.992  32.468  14.511
76793NA+    NA+46608  31.542  10.645   4.319
76794NA+    NA+46609  18.232   8.875   1.300
76795NA+    NA+46610  10.292  32.083  14.903
76796NA+    NA+46611  41.991  34.469  12.561
76797NA+    NA+46612  41.836  26.650   0.789
76798NA+    NA+46613  11.341   3.839   1.916
76799NA+    NA+46614  12.776  20.559  10.608
76800NA+    NA+46615  17.725   2.859   1.436
76801NA+    NA+46616  29.919  15.090  10.588
76802NA+    NA+46617  36.433  40.420  11.435
76803NA+    NA+46618  19.565  25.618  10.640
76804NA+    NA+46619  40.905  22.083   4.674
76805NA+    NA+46620   2.948   3.364   3.677
76806NA+    NA+46621   4.419   2.755   3.386
76807NA+    NA+46622  15.599  28.489   2.881
76808NA+    NA+46623  30.421  15.685   5.296
76809NA+    NA+46624  39.965  42.010   2.253
76810NA+    NA+46625   4.870  21.084  11.128
76811NA+    NA+46626  27.673   9.773   3.774
76812NA+    NA+46627  35.598  26.518  14.452
76813NA+    NA+46628  17.286  12.818  10.548
76814NA+    NA+46629  35.418   8.786  11.512
76815NA+    NA+46630  31.998  35.478   3.204
76816NA+    NA+46631   3.347  18.550   1.348
76817NA+    NA+46632  31.043  43.974   4.165
76818NA+    NA+46633  27.979  24.205  14.397
76819NA+    NA+46634  13.344  44.318  10.424
76820NA+    NA+46635  42.990  23.589   3.304
76821NA+    NA+46636  28.556  28.929   1.243
76822NA+    NA+46637  37.984   2.414  11.478
76823NA+    NA+46638  42.314  42.475   1.780
76824NA+    NA+46639  25.606  21.712   4.123
76825NA+    NA+46640  35.860  13.771   3.698
76826NA+    NA+46641  44.332  10.819   5.299
76827NA+    NA+46642  33.587  11.864  10.559
76828NA+    NA+46643  11.865  22.668  11.399
76829NA+    NA+46644  24.041  22.502   2.389
76830NA+    NA+46645  19.618  11.693  14.333
76831NA+    NA+46646   8.715  29.175  12.434
76832NA+    NA+46647  24.136  15.099  12.486
76833NA+    NA+46648  36.434  42.431  12.416
76834NA+    NA+46649  21.613  26.046  14.354
76835NA+    NA+46650  43.783  26.641  12.990
76836NA+    NA+46651  21.709  38.452   0.802
76837NA+    NA+46652  34.556  13.114  11.115
76838NA+    NA+46653  33.507  25.590   2.796
76839NA+    NA+46654   8.369  25.475   0.795
76840NA+    NA+46655  31.640   7.378   2.894
76841NA+    NA+46656  16.125   2.862   4.646
76842NA+    NA+46657   1.444  37.495   3.317
76843NA+    NA+46658  43.820  41.862  11.967
76844NA+    NA+46659  21.043  14.685  12.356
76845NA+    NA+46660   8.259  34.910  13.426
76846NA+    NA+46661  14.669  11.798   9.927
76847NA+    NA+46662   1.951  24.643  14.818
76848NA+    NA+46663  14.627  38.075   2.702
76849NA+    NA+46664  24.980   7.322  14.995
76850NA+    NA+46665  20.242   7.731   4.642
76851NA+    NA+46666  22.052  24.044   4.641
76852NA+    NA+46667  14.730  14.688   3.233
76853NA+    NA+46668  16.587   8.384  11.537
76854NA+    NA+46669  18.108  38.062  12.368
76855NA+    NA+46670  35.976   3.278  11.013
76856NA+    NA+46671  10.666  44.896   2.757
76857NA+    NA+46672  35.389   1.382   1.326
76858NA+    NA+46673  34.009  24.600  11.938
76859NA+    NA+46674  42.831   5.245  11.597
76860NA+    NA+46675  43.950   0.864  12.908
76861NA+    NA+46676  13.828  33.462   2.843
76862NA+    NA+46677  28.496   9.351   0.868
76863NA+    NA+46678   2.733  12.182  13.933
76864NA+    NA+46679  44.917  20.559  12.573
76865NA+    NA+46680  16.106  19.544   2.669
76866NA+    NA+46681   3.273  35.577   4.775
76867NA+    NA+46682  27.010  12.806  12.046
76868NA+    NA+46683  23.993  28.675  14.490
76869NA+    NA+46684  39.346  39.489  12.523
76870NA+    NA+46685  39.433  17.068  14.797
76871NA+    NA+46686  12.641  10.179  14.978
76872NA+    NA+46687  28.127   2.918  11.018
76873NA+    NA+46688  30.915  27.184   3.846
76874NA+    NA+46689  17.112  13.210  12.955
76875NA+    NA+46690  25.630  37.347  11.570
76876NA+    NA+46691  10.223   1.768   3.649
76877NA+    NA+46692  26.079  19.706   2.792
76878NA+    NA+46693  44.963  14.237  12.545
76879NA+    NA+46694   7.839  19.665   0.757
76880NA+    NA+46695  31.401   1.444   1.900
76881NA+    NA+46696   7.872  19.130  13.900
76882NA+    NA+46697  16.729  41.451  13.054
76883NA+    NA+46698  19.546  22.539   0.319
76884NA+    NA+46699  27.954  22.529  11.458
76885NA+    NA+46700  36.847  29.092  13.366
76886NA+    NA+46701  26.955  41.346   2.744
76887NA+    NA+46702  11.154  23.190  12.430
76888NA+    NA+46703  25.475  15.315  13.047
76889NA+    NA+46704   5.282  34.105   3.189
76890NA+    NA+46705  22.650  43.367   1.873
76891NA+    NA+46706  15.824  24.506  13.372
76892NA+    NA+46707   2.355  29.607  12.068
76893NA+    NA+46708  39.846  28.438  12.985
76894NA+    NA+46709   7.236  38.856   2.241
76895NA+    NA+46710  32.009  21.740  14.453
76896NA+    NA+46711  34.456  19.105  14.433
76897NA+    NA+46712  24.046  19.214  13.541
76898NA+    NA+46713   6.275  15.102   2.853
76899NA+    NA+46714   0.364  21.172   2.786
76900NA+    NA+46715  28.605   5.895   0.325
76901NA+    NA+46716  26.130  38.856   1.886
76902NA+    NA+46717  35.381  11.828  12.840
76903NA+    NA+46718  14.216  14.815  11.043
76904NA+    NA+46719  37.945  14.802   3.786
76905NA+    NA+46720  22.129  23.496   1.416
76906NA+    NA+46721  35.047  15.201  14.515
76907NA+    NA+46722   6.888  39.511   3.299
76908NA+    NA+46723  19.757  24.717  14.860
76909NA+    NA+46724   5.782   5.876  14.801
76910NA+    NA+46725  12.154   1.451  13.487
76911NA+    NA+46726  33.956  35.097   1.433
76912NA+    NA+46727  43.407  19.716  11.482
76913NA+    NA+46728  29.970  19.200   4.338
76914NA+    NA+46729  18.197  21.695   3.823
76915NA+    NA+46730  42.797  16.799  14.989
76916NA+    NA+46731  13.807   8.183  12.551
76917NA+    NA+46732   5.309  15.581   2.335
76918NA+    NA+46733  35.521  40.427   2.414
76919NA+    NA+46734  39.358   2.290  12.011
76920NA+    NA+46735   7.694  17.658  14.330
76921NA+    NA+46736  43.513  18.736   1.319
76922NA+    NA+46737   1.931  32.511  11.026
76923NA+    NA+46738  39.426  12.718   2.743
76924NA+    NA+46739  44.354  29.143   0.350
76925NA+    NA+46740  27.669  22.020   1.748
76926NA+    NA+46741  19.092  10.220   1.449
76927NA+    NA+46742  44.451  41.523  13.411
76928NA+    NA+46743  34.931  23.999   4.222
76929NA+    NA+46744  26.151  35.900   0.823
76930NA+    NA+46745  25.659  34.076   4.781
76931NA+    NA+46746  29.002  36.526  11.570
76932NA+    NA+46747  16.694  14.112   2.768
76933NA+    NA+46748  23.191   8.297   2.189
76934NA+    NA+46749  17.599  13.164  13.337
76935NA+    NA+46750  11.788  41.519  12.088
76936NA+    NA+46751  38.039  29.003   4.142
76937NA+    NA+46752  36.003  30.947   1.809
76938NA+    NA+46753  39.362  12.214   4.270
76939NA+    NA+46754  28.616  22.740   0.315
76940NA+    NA+46755  17.743  21.190   0.833
76941NA+    NA+46756  18.551  13.299   3.205
76942NA+    NA+46757   6.773  21.627  12.559
76943NA+    NA+46758  24.554  26.121   3.749
76944NA+    NA+46759  35.875  20.677  13.052
76945NA+    NA+46760  16.232  41.499   5.302
76946NA+    NA+46761  11.640  18.292  12.405
76947NA+    NA+46762  25.992  16.177   1.372
76948NA+    NA+46763  17.695  21.207   3.176
76949NA+    NA+46764  11.251  43.428   4.783
76950NA+    NA+46765  27.941  42.999   1.855
76951NA+    NA+46766  34.001  25.106  10.584
76952NA+    NA+46767  34.602  22.149  12.093
76953NA+    NA+46768  39.939  17.280  12.994
76954NA+    NA+46769  38.487  41.033  11.478
76955NA+    NA+46770  20.558   6.384  13.512
76956NA+    NA+46771  16.794  11.838   4.113
76957NA+    NA+46772  40.800   7.837  10.644
76958NA+    NA+46773  38.447  33.027  13.846
76959NA+    NA+46774   0.785   7.382   3.225
76960NA+    NA+46775  34.420   9.219  13.890
76961NA+    NA+46776  33.588  22.607   0.272
76962NA+    NA+46777   0.351  18.790  14.858
76963NA+    NA+46778  26.579  42.974  14.376
76964NA+    NA+46779  38.979  30.639  10.495
76965NA+    NA+46780  40.963  23.586  13.399
76966NA+    NA+46781   8.842  12.856   4.144
76967NA+    NA+46782  10.231  11.859  11.956
76968NA+    NA+46783  16.686  19.719  11.465
76969NA+    NA+46784  26.093  32.021  12.988
76970NA+    NA+46785  28.986  28.966  11.073
76971NA+    NA+46786  19.719  42.486   2.355
76972NA+    NA+46787  41.957   7.905  11.997
76973NA+    NA+46788   2.841  31.018  12.345
76974NA+    NA+46789  20.702  19.151   1.221
76975NA+    NA+46790  17.644   9.222  12.509
76976NA+    NA+46791   6.757   8.890  13.353
76977NA+    NA+46792  41.953   4.764  13.428
76978NA+    NA+46793  37.513  24.083   2.293
76979NA+    NA+46794   5.300  25.176  11.910
76980NA+    NA+46795  37.834  18.291   0.729
76981NA+    NA+46796  11.666   3.375   3.259
76982NA+    NA+46797  42.300  31.149  14.300
76983NA+    NA+46798  28.171  24.034  14.902
76984NA+    NA+46799  19.676  41.826   2.669
76985NA+    NA+46800  43.276  20.524   2.767
76986NA+    NA+46801  37.379  23.534   3.213
76987NA+    NA+46802  12.785  38.550  13.312
76988NA+    NA+46803   6.682  23.734  14.885
76989NA+    NA+46804  33.402  17.203   3.826
76990NA+    NA+46805  12.211  19.641  14.360
76991NA+    NA+46806  44.405  40.483   1.438
76992NA+    NA+46807  41.360   3.735  13.970
76993NA+    NA+46808  30.148  11.210  11.483
76994NA+    NA+46809  28.512  36.953   2.319
76995NA+    NA+46810   0.911  27.529  10.462
76996NA+    NA+46811   9.314  17.749   3.186
76997NA+    NA+46812  17.595  19.275   2.328
76998NA+    NA+46813  19.578   7.227  13.500
76999NA+    NA+46814  33.456  29.942   2.194
77000NA+    NA+46815  43.937  32.448   1.935
77001NA+    NA+46816  12.783  24.506  13.392
77002NA+    NA+46817  36.517  44.505   5.173
77003NA+    NA+46818   1.366  17.634   0.304
77004NA+    NA+46819  27.564  30.648  10.544
77005NA+    NA+46820  39.003  14.228   1.236
77006NA+    NA+46821  42.411   8.698   0.384
77007NA+    NA+46822  31.486  32.403  14.299
77008NA+    NA+46823  13.773  13.251  10.584
77009NA+    NA+46824  33.927  14.762   4.171
77010NA+    NA+46825  41.899  24.720   3.232
77011NA+    NA+46826   1.472  36.878  10.908
77012NA+    NA+46827  29.540   4.943   1.775
77013NA+    NA+46828  42.928   4.857  10.616
77014NA+    NA+46829   7.792  40.821  13.516
77015NA+    NA+46830  42.031  43.909  10.589
77016NA+    NA+46831  27.062  15.706  14.467
77017NA+    NA+46832  30.590   3.852   2.756
77018NA+    NA+46833  18.198   8.679  10.528
77019NA+    NA+46834  20.602  13.135  12.460
77020NA+    NA+46835   3.221  31.500  10.480
77021NA+    NA+46836  16.738  34.551  14.386
77022NA+    NA+46837   3.420   2.884  14.344
77023NA+    NA+46838   9.163   4.850  11.583
77024NA+    NA+46839   5.358  22.214  13.000
77025NA+    NA+46840  37.079   9.376  11.540
77026NA+    NA+46841  44.868   0.254  10.595
77027NA+    NA+46842  34.007   0.257   0.726
77028NA+    NA+46843   6.340  25.114  12.424
77029NA+    NA+46844  26.561  35.998  12.507
77030NA+    NA+46845   7.172  15.314  14.348
77031NA+    NA+46846  34.463   8.842  10.608
77032NA+    NA+46847  19.205  43.466   2.680
77033NA+    NA+46848  12.124  32.393  14.928
77034NA+    NA+46849  39.443  18.176   2.706
77035NA+    NA+46850   9.333  12.320  10.983
77036NA+    NA+46851  13.177  28.992  10.602
77037NA+    NA+46852   6.358   8.678   3.870
77038NA+    NA+46853  28.985  32.078   4.752
77039NA+    NA+46854  23.046  20.244  10.604
77040NA+    NA+46855   0.344  15.126   2.396
77041NA+    NA+46856  19.678  12.360  11.075
77042NA+    NA+46857  35.951  33.898  14.428
77043NA+    NA+46858  13.239  30.049  12.856
77044NA+    NA+46859  30.465  20.682  13.427
77045NA+    NA+46860   9.293  20.692  10.511
77046NA+    NA+46861  13.732  33.120   2.204
77047NA+    NA+46862  36.586  43.488   0.814
77048NA+    NA+46863  34.564   0.327  11.085
77049NA+    NA+46864  19.220   6.714  11.592
77050NA+    NA+46865  32.978  44.301   0.459
77051NA+    NA+46866   4.393  10.853   0.272
77052NA+    NA+46867   4.387  35.463  13.031
77053NA+    NA+46868  13.799   1.786   0.929
77054NA+    NA+46869  27.988  18.637   3.775
77055NA+    NA+46870  30.157  18.596  11.986
77056NA+    NA+46871   7.249   3.734   0.925
77057NA+    NA+46872   7.377  11.209  14.293
77058NA+    NA+46873  18.553   6.201  14.313
77059NA+    NA+46874  14.177  44.995  11.432
77060NA+    NA+46875  44.881  40.997   0.876
77061NA+    NA+46876  24.683  22.546   4.817
77062NA+    NA+46877  14.276   3.897  14.767
77063NA+    NA+46878  33.879  23.044   1.443
77064NA+    NA+46879  39.358  29.931  14.825
77065NA+    NA+46880  17.650  25.157   5.113
77066NA+    NA+46881  32.925  20.621  11.373
77067NA+    NA+46882  44.330  40.535   0.764
77068NA+    NA+46883  43.807  25.038   0.431
77069NA+    NA+46884   9.199   1.246   2.363
77070NA+    NA+46885   0.839  14.272   0.922
77071NA+    NA+46886  25.210  43.990   2.852
77072NA+    NA+46887  14.243  31.015  12.828
77073NA+    NA+46888  44.846   1.798   4.669
77074NA+    NA+46889  36.874  13.686   0.327
77075NA+    NA+46890  39.912   9.673  14.499
77076NA+    NA+46891  24.533  21.260  12.412
77077NA+    NA+46892  44.979  44.362  12.930
77078NA+    NA+46893   6.756  37.873  14.006
77079NA+    NA+46894   8.805   2.304   0.445
77080NA+    NA+46895  21.544   2.946   3.787
77081NA+    NA+46896  22.124  37.383   1.862
77082NA+    NA+46897  43.920   4.824   1.389
77083NA+    NA+46898  34.089  15.746  14.514
77084NA+    NA+46899  11.660  32.936   4.289
77085NA+    NA+46900  34.898  18.175  13.962
77086NA+    NA+46901  27.015  20.187   4.812
77087NA+    NA+46902  15.235  16.278   3.784
77088NA+    NA+46903  33.537  23.162   4.716
77089NA+    NA+46904  22.567   3.861   4.299
77090NA+    NA+46905   4.719   0.876   3.269
77091NA+    NA+46906  19.250  38.964  14.002
77092NA+    NA+46907  31.639  40.899   1.768
77093NA+    NA+46908  36.364  33.125  11.401
77094NA+    NA+46909  24.717  12.303   1.867
77095NA+    NA+46910  10.276  30.538  12.524
77096NA+    NA+46911  17.087  11.634  13.799
77097NA+    NA+46912  11.184  22.725   4.214
77098NA+    NA+46913  35.414  22.671  14.513
77099NA+    NA+46914   5.345  22.537  14.393
77100NA+    NA+46915  44.814  44.347  10.953
77101NA+    NA+46916  12.745   4.879   4.237
77102NA+    NA+46917  32.599  15.657  11.042
77103NA+    NA+46918  27.556  41.360   2.847
77104NA+    NA+46919   8.759  31.063   4.262
77105NA+    NA+46920   9.242   5.800   1.920
77106NA+    NA+46921  17.203   0.424   1.726
77107NA+    NA+46922  21.601   4.307  13.537
77108NA+    NA+46923  41.523  19.768   2.810
77109NA+    NA+46924  17.097   8.167   1.794
77110NA+    NA+46925  17.716  39.363  14.281
77111NA+    NA+46926  34.112  35.429   1.727
77112NA+    NA+46927  16.623  39.544  12.080
77113NA+    NA+46928  29.956  29.620  10.524
77114NA+    NA+46929  43.326  41.359   2.841
77115NA+    NA+46930  11.726  27.514   4.673
77116NA+    NA+46931  26.084  14.211  14.853
77117NA+    NA+46932  32.020  39.029  11.413
77118NA+    NA+46933  28.141  32.141  12.988
77119NA+    NA+46934  10.335  37.489   4.756
77120NA+    NA+46935   8.894   5.302  10.462
77121NA+    NA+46936  27.022  11.673   0.963
77122NA+    NA+46937  36.084  20.051  12.938
77123NA+    NA+46938  23.580  12.612  12.401
77124NA+    NA+46939  21.082  38.048   2.808
77125NA+    NA+46940  22.564  29.938   9.946
77126NA+    NA+46941  40.895  30.546  13.349
77127NA+    NA+46942  18.240  42.901  14.983
77128NA+    NA+46943  38.961   7.714   3.652
77129NA+    NA+46944   7.767   0.411  12.967
77130NA+    NA+46945  41.912  17.614   4.726
77131NA+    NA+46946  12.720   0.452  10.529
77132NA+    NA+46947  22.082  22.587   0.328
77133NA+    NA+46948  35.971  34.928   1.343
77134NA+    NA+46949  27.116   6.289   3.834
77135NA+    NA+46950   5.703   5.419   4.261
77136NA+    NA+46951  14.125  22.138   1.698
77137NA+    NA+46952  43.007  36.855  10.922
77138NA+    NA+46953  38.021  36.035   0.843
77139NA+    NA+46954  10.681   2.890   1.232
77140NA+    NA+46955   4.239  43.922   0.312
77141NA+    NA+46956  16.306  26.649  10.449
77142NA+    NA+46957  20.629   4.780  11.901
77143NA+    NA+46958  22.229  12.247  14.377
77144NA+    NA+46959  41.390  13.760   5.637
77145NA+    NA+46960  16.778  42.931  11.399
77146NA+    NA+46961  32.989  34.373   4.686
77147NA+    NA+46962  12.266   9.349  13.810
77148NA+    NA+46963  34.492  15.589   3.286
77149NA+    NA+46964   7.305  16.781   0.278
77150NA+    NA+46965  29.050  13.267   3.252
77151NA+    NA+46966   1.313  27.590   0.951
77152NA+    NA+46967  33.570  36.542  11.382
77153NA+    NA+46968  33.442   9.736  11.067
77154NA+    NA+46969  27.941  23.524  10.467
77155NA+    NA+46970  28.014  44.286  14.975
77156NA+    NA+46971  17.736  10.316  13.941
77157NA+    NA+46972   5.249   7.892  13.894
77158NA+    NA+46973  29.481  17.169   3.178
77159NA+    NA+46974  18.150  37.848   0.762
77160NA+    NA+46975   9.708  10.287   1.695
77161NA+    NA+46976  24.188  16.191  10.634
77162NA+    NA+46977  10.831  44.906   4.785
77163NA+    NA+46978  27.569  28.181  14.994
77164NA+    NA+46979  26.000  43.305   3.806
77165NA+    NA+46980   6.214  34.085   4.649
77166NA+    NA+46981  22.719  28.098   4.280
77167NA+    NA+46982   3.337  41.536   0.835
77168NA+    NA+46983  38.571  13.173  14.852
77169NA+    NA+46984  40.002  37.002  14.809
77170NA+    NA+46985  38.371  25.556   1.881
77171NA+    NA+46986   5.430  30.633   3.789
77172NA+    NA+46987  31.008  32.997  14.274
77173NA+    NA+46988  38.845  19.055  11.874
77174NA+    NA+46989  24.573  39.853  12.050
77175NA+    NA+46990  31.492  25.651   2.876
77176NA+    NA+46991   2.933   4.312  11.579
77177NA+    NA+46992  12.317  16.265   4.288
77178NA+    NA+46993  32.985  38.883   2.242
77179NA+    NA+46994   4.438  16.794   3.195
77180NA+    NA+46995   0.895  31.493  13.413
77181NA+    NA+46996  37.894   6.683   1.734
77182NA+    NA+46997  37.336  20.083   0.742
77183NA+    NA+46998   5.709   4.717   2.850
77184NA+    NA+46999  10.676  40.360   0.427
77185NA+    NA+47000  12.277  41.808  11.937
77186NA+    NA+47001  29.113   1.901   0.933
77187NA+    NA+47002  33.601  26.028  13.391
77188NA+    NA+47003  36.043  39.030  13.895
77189NA+    NA+47004   4.774  33.435  14.845
77190NA+    NA+47005  32.128  10.286  13.895
77191NA+    NA+47006  17.210  42.434  10.413
77192NA+    NA+47007   2.918  24.054   2.297
77193NA+    NA+47008  17.708  31.004  11.026
77194NA+    NA+47009  39.445  31.107  10.422
77195NA+    NA+47010  17.109  31.079  11.955
77196NA+    NA+47011  35.925  43.457   1.711
77197NA+    NA+47012  27.996  38.881  13.804
77198NA+    NA+47013   7.722   9.859   0.823
77199NA+    NA+47014  13.235   1.476   4.688
77200NA+    NA+47015  37.508   3.403  13.502
77201NA+    NA+47016  23.984  21.056  11.882
77202NA+    NA+47017  17.708  30.473  12.548
77203NA+    NA+47018   0.375  40.938   4.221
77204NA+    NA+47019  37.531  43.887   3.716
77205NA+    NA+47020  24.587  26.489   0.770
77206NA+    NA+47021   6.835  39.978   2.308
77207NA+    NA+47022  29.159  21.139  14.311
77208NA+    NA+47023  40.396  17.628   3.657
77209NA+    NA+47024  29.153  20.074   3.680
77210NA+    NA+47025   9.258  18.657   0.959
77211NA+    NA+47026  38.034  37.926  13.806
77212NA+    NA+47027   0.888   4.242  14.919
77213NA+    NA+47028  33.463  37.011  12.995
77214NA+    NA+47029  37.400  17.241   0.327
77215NA+    NA+47030  33.440   5.308   0.915
77216NA+    NA+47031  33.098   1.796  13.472
77217NA+    NA+47032  31.460  34.471   1.767
77218NA+    NA+47033   4.789  32.112   3.302
77219NA+    NA+47034   6.753  12.831  11.113
77220NA+    NA+47035   7.280  12.287   0.760
77221NA+    NA+47036  18.738   4.819   2.785
77222NA+    NA+47037  28.617  11.137  11.391
77223NA+    NA+47038  15.665  25.671  11.397
77224NA+    NA+47039  35.961  19.153   2.752
77225NA+    NA+47040  12.143  43.475  13.335
77226NA+    NA+47041  20.626  17.657   3.693
77227NA+    NA+47042   2.867  42.906  12.834
77228NA+    NA+47043  40.486  25.214  13.435
77229NA+    NA+47044   2.377   1.331   4.781
77230NA+    NA+47045  35.036  13.316  10.643
77231NA+    NA+47046  10.694  27.033  12.874
77232NA+    NA+47047  25.551  18.139   2.880
77233NA+    NA+47048  26.605  11.855  14.924
77234NA+    NA+47049   5.358  31.635   3.736
77235NA+    NA+47050  30.512  26.542   5.306
77236NA+    NA+47051  40.533   5.215   4.721
77237NA+    NA+47052  39.417  11.724   0.309
77238NA+    NA+47053  19.567  32.460  11.497
77239NA+    NA+47054  22.014  43.866  12.555
77240NA+    NA+47055  43.481  18.664   3.150
77241NA+    NA+47056  38.830   7.308  11.505
77242NA+    NA+47057  22.060  21.143  14.345
77243NA+    NA+47058  23.635  36.390   0.450
77244NA+    NA+47059  40.917  10.363   3.360
77245NA+    NA+47060  32.481  17.649   2.902
77246NA+    NA+47061  36.941  29.479  12.004
77247NA+    NA+47062  33.977   9.326   4.611
77248NA+    NA+47063  24.616  10.666  13.901
77249NA+    NA+47064  26.570   0.960   5.201
77250NA+    NA+47065  41.967  15.294   0.361
77251NA+    NA+47066  29.489  34.556  14.377
77252NA+    NA+47067  16.307   6.247  13.437
77253NA+    NA+47068  43.361  22.586  10.962
77254NA+    NA+47069   6.250  18.787  13.879
77255NA+    NA+47070  12.653  14.196   3.701
77256NA+    NA+47071  18.263   9.661  13.024
77257NA+    NA+47072   2.899  27.623   3.865
77258NA+    NA+47073   6.212   1.405  14.938
77259NA+    NA+47074  37.875   0.460  10.022
77260NA+    NA+47075  12.212  44.829  14.322
77261NA+    NA+47076  29.461  41.471   2.231
77262NA+    NA+47077  15.655  29.518  14.804
77263NA+    NA+47078  16.614  12.287  13.990
77264NA+    NA+47079  19.742  42.283   0.826
77265NA+    NA+47080   2.832  24.660  12.474
77266NA+    NA+47081   1.243  44.344   3.641
77267NA+    NA+47082   8.711   6.750   0.889
77268NA+    NA+47083  24.592  14.278   0.407
77269NA+    NA+47084  34.382  26.562   0.419
77270NA+    NA+47085  18.556  29.964   4.334
77271NA+    NA+47086   2.233   1.343   1.281
77272NA+    NA+47087  16.232  26.188   3.178
77273NA+    NA+47088  44.914  41.964   1.726
77274NA+    NA+47089  37.501  16.597   1.311
77275NA+    NA+47090   3.737  20.715  14.960
77276NA+    NA+47091  35.869  39.364  13.915
77277NA+    NA+47092   2.382  34.875   3.840
77278NA+    NA+47093  19.721  17.657   4.626
77279NA+    NA+47094  11.674   6.847   2.833
77280NA+    NA+47095  43.022  35.039  14.322
77281NA+    NA+47096  15.248  15.125  10.643
77282NA+    NA+47097  20.665  40.954   2.416
77283NA+    NA+47098  33.488  21.123  14.759
77284NA+    NA+47099  41.416  12.161   3.629
77285NA+    NA+47100   6.214   4.284   1.886
77286NA+    NA+47101  43.492  32.926  12.503
77287NA+    NA+47102  27.139   0.923  13.991
77288NA+    NA+47103  12.767  42.012  14.413
77289NA+    NA+47104  34.572  34.504  12.851
77290NA+    NA+47105  23.596  18.233   2.312
77291NA+    NA+47106  17.291   3.798  13.952
77292NA+    NA+47107   6.835   0.919   2.768
77293NA+    NA+47108  33.886   2.325   4.788
77294NA+    NA+47109  41.437  37.854   0.872
77295NA+    NA+47110  10.825  15.645  13.370
77296NA+    NA+47111  18.721  42.330  12.946
77297NA+    NA+47112  11.673  14.798  11.887
77298NA+    NA+47113  40.460  29.167   3.727
77299NA+    NA+47114  29.536  31.154   1.697
77300NA+    NA+47115  44.923   4.725   2.712
77301NA+    NA+47116  30.437  44.795  12.367
77302NA+    NA+47117   9.841  10.373   0.374
77303NA+    NA+47118   6.802  43.372  14.983
77304NA+    NA+47119   4.735  33.044   2.729
77305NA+    NA+47120  28.522  39.546   3.703
77306NA+    NA+47121  31.412   4.699  13.936
77307NA+    NA+47122  23.567  37.558   5.244
77308NA+    NA+47123  23.211  44.840  11.463
77309NA+    NA+47124  22.588  20.525  14.477
77310NA+    NA+47125  16.658  35.557  12.037
77311NA+    NA+47126  27.046  12.736  10.419
77312NA+    NA+47127  29.668  18.136  14.775
77313NA+    NA+47128  30.575  41.422  11.901
77314NA+    NA+47129  20.193  30.430  12.027
77315NA+    NA+47130  27.615  34.038  14.976
77316NA+    NA+47131  24.035  26.123  13.455
77317NA+    NA+47132  37.913  27.550   0.366
77318NA+    NA+47133  39.481  14.621   3.223
77319NA+    NA+47134  15.772  36.439  11.085
77320NA+    NA+47135  30.005  30.628  10.516
77321NA+    NA+47136  43.460  20.749  10.635
77322NA+    NA+47137  35.064  11.677   2.418
77323NA+    NA+47138   7.691   2.896   2.866
77324NA+    NA+47139  38.961  29.460   1.821
77325NA+    NA+47140   2.923  21.624   3.384
77326NA+    NA+47141   7.710  30.566   2.688
77327NA+    NA+47142  35.028   8.769   1.279
77328NA+    NA+47143  14.611  22.741  11.056
77329NA+    NA+47144  30.503   2.744  11.882
77330NA+    NA+47145  37.966   1.797   3.774
77331NA+    NA+47146  28.955  20.245  11.433
77332NA+    NA+47147   6.752  18.162  11.595
77333NA+    NA+47148  26.530   7.757   1.347
77334NA+    NA+47149  43.795   1.949  11.889
77335NA+    NA+47150  13.798  21.056  12.920
77336NA+    NA+47151   2.378   4.204  10.486
77337NA+    NA+47152   0.263  38.049   3.283
77338NA+    NA+47153  36.032  24.127  11.561
77339NA+    NA+47154  41.926  44.429  10.478
77340NA+    NA+47155  22.701   9.383   4.708
77341NA+    NA+47156  40.908  41.370   3.693
77342NA+    NA+47157   1.465  38.907  14.024
77343NA+    NA+47158  22.152   2.799  11.417
77344NA+    NA+47159   3.777   0.357   2.674
77345NA+    NA+47160  39.838  18.237   3.185
77346NA+    NA+47161  15.308   0.438   3.370
77347NA+    NA+47162   4.205  44.852   1.874
77348NA+    NA+47163  15.578  41.355  11.939
77349NA+    NA+47164  16.571  26.075   4.814
77350NA+    NA+47165   4.406  28.956   3.772
77351NA+    NA+47166  10.191  24.479  13.530
77352NA+    NA+47167  32.090   8.345   2.665
77353NA+    NA+47168  31.921  42.324   3.384
77354NA+    NA+47169  23.687  11.839  14.392
77355NA+    NA+47170   5.390  23.554   0.305
77356NA+    NA+47171  40.529   5.813   2.821
77357NA+    NA+47172  30.009  30.144  11.882
77358NA+    NA+47173  24.553  15.610  12.429
77359NA+    NA+47174  22.013  28.985  11.019
77360NA+    NA+47175  10.266  38.442  10.527
77361NA+    NA+47176  36.367  44.450  14.818
77362NA+    NA+47177  26.571  41.464  13.517
77363NA+    NA+47178  32.039  22.090  14.353
77364NA+    NA+47179   7.725  21.567  13.333
77365NA+    NA+47180   6.266  36.523   4.333
77366NA+    NA+47181  23.736  20.728  10.507
77367NA+    NA+47182   6.731  33.015  10.506
77368NA+    NA+47183  20.615  30.935  12.562
77369NA+    NA+47184  36.497  44.005  10.577
77370NA+    NA+47185  42.326  12.193   0.375
77371NA+    NA+47186   1.256  37.908   1.857
77372NA+    NA+47187  15.093   1.406   4.615
77373NA+    NA+47188   0.350  23.131   4.699
77374NA+    NA+47189  33.958   0.469  14.292
77375NA+    NA+47190   1.313  34.564  12.920
77376NA+    NA+47191  22.580  25.162  14.469
77377NA+    NA+47192   1.943  22.194   0.768
77378NA+    NA+47193  38.480  18.620  14.380
77379NA+    NA+47194   0.452  42.843  11.095
77380NA+    NA+47195   0.745  18.597   3.151
77381NA+    NA+47196  29.027  44.467  14.511
77382NA+    NA+47197  21.582  23.063   0.418
77383NA+    NA+47198   9.293  41.883   1.917
77384NA+    NA+47199  18.544  11.746  10.013
77385NA+    NA+47200  26.586  11.130   2.283
77386NA+    NA+47201  36.446  18.779   2.222
77387NA+    NA+47202  30.164  12.734  11.956
77388NA+    NA+47203  30.484  10.678  10.988
77389CL-    CL-47204  33.020  41.892   4.120
77390CL-    CL-47205  13.668  36.910   3.716
77391CL-    CL-47206  42.344  20.682  14.781
77392CL-    CL-47207  43.913  23.720   0.391
77393CL-    CL-47208  38.888  18.073  14.373
77394CL-    CL-47209  28.533  10.145  10.983
77395CL-    CL-47210  36.413  26.555   2.789
77396CL-    CL-47211  14.199  21.240  11.080
77397CL-    CL-47212  18.545  27.643   3.305
77398CL-    CL-47213  28.560  44.952  13.525
77399CL-    CL-47214  32.477   0.988  11.908
77400CL-    CL-47215  24.219  36.361  14.298
77401CL-    CL-47216   6.761  15.655  13.454
77402CL-    CL-47217  15.684  26.475   5.305
77403CL-    CL-47218  32.138  11.349  13.891
77404CL-    CL-47219  44.929  11.688  10.602
77405CL-    CL-47220  41.875  11.835   1.322
77406CL-    CL-47221  43.392  24.117  13.848
77407CL-    CL-47222  35.945   6.843   2.398
77408CL-    CL-47223   1.953  23.055  11.874
77409CL-    CL-47224   5.317  29.923   0.358
77410CL-    CL-47225  13.645  22.512   1.866
77411CL-    CL-47226  26.479   6.878   0.730
77412CL-    CL-47227  40.951  39.054  12.474
77413CL-    CL-47228  17.246  37.382  12.433
77414CL-    CL-47229  35.020  25.021   0.465
77415CL-    CL-47230   1.359   6.414   4.321
77416CL-    CL-47231  15.579   6.832  12.515
77417CL-    CL-47232   6.847  39.376   5.788
77418CL-    CL-47233  24.599  36.926  14.408
77419CL-    CL-47234   5.423  32.900   1.815
77420CL-    CL-47235  23.995  21.088  14.917
77421CL-    CL-47236   3.461  24.139  10.946
77422CL-    CL-47237   5.905   6.199  13.864
77423CL-    CL-47238  17.670  39.848   1.809
77424CL-    CL-47239  41.343  15.742   9.462
77425CL-    CL-47240   1.426  23.993   0.926
77426CL-    CL-47241  28.940  14.596  14.781
77427CL-    CL-47242   4.937  38.559  13.813
77428CL-    CL-47243  39.461  31.413  11.507
77429CL-    CL-47244  25.643  22.247   1.229
77430CL-    CL-47245  41.039   5.316   4.290
77431CL-    CL-47246   7.911  39.939   0.377
77432CL-    CL-47247  40.889  33.982  10.973
77433CL-    CL-47248  14.246  40.041   3.286
77434CL-    CL-47249  29.585  20.050  10.978
77435CL-    CL-47250  24.222  42.999   3.181
77436CL-    CL-47251  39.823  33.491   3.160
77437CL-    CL-47252  40.972   0.276  10.425
77438CL-    CL-47253  39.548  35.073  10.503
77439CL-    CL-47254  19.640   2.383  13.921
77440CL-    CL-47255  41.884  38.879  12.990
77441CL-    CL-47256   5.802  44.981  13.062
77442CL-    CL-47257   6.770  44.758  13.064
77443CL-    CL-47258  33.480   7.238  10.471
77444CL-    CL-47259  29.446  41.980   1.740
77445CL-    CL-47260  15.095  12.711  12.039
77446CL-    CL-47261   2.943   4.314   1.400
77447CL-    CL-47262  27.960  13.251   0.727
77448CL-    CL-47263  30.059  36.964   4.777
77449CL-    CL-47264  20.071  15.693   0.417
77450CL-    CL-47265  23.079  35.503   0.853
77451CL-    CL-47266   5.273  40.826   2.827
77452CL-    CL-47267  19.147  19.049   0.797
77453CL-    CL-47268  44.329  24.976  14.965
77454CL-    CL-47269  19.617  44.426   0.953
77455CL-    CL-47270   0.772  26.614   1.320
77456CL-    CL-47271  42.422  15.239   3.716
77457CL-    CL-47272   1.739  31.997  12.403
77458CL-    CL-47273  15.156  25.620  11.458
77459CL-    CL-47274   0.447  12.172  13.314
77460CL-    CL-47275  39.989   5.874   4.200
77461CL-    CL-47276  41.949  42.469  11.862
77462CL-    CL-47277  43.482  28.062  14.960
77463CL-    CL-47278  18.619  13.197  11.983
77464CL-    CL-47279  13.763  38.059  12.937
77465CL-    CL-47280  36.425  44.327   0.325
77466CL-    CL-47281  10.860   5.305   2.747
77467CL-    CL-47282  30.588  44.933   1.432
77468CL-    CL-47283  31.140  29.585   3.644
77469CL-    CL-47284  30.609   1.768  11.456
77470CL-    CL-47285  22.582  26.670   5.084
77471CL-    CL-47286  19.599  39.065  13.946
77472CL-    CL-47287  16.190  39.053  10.525
77473CL-    CL-47288   1.368  14.765   0.384
77474CL-    CL-47289  18.579  12.817   4.728
77475CL-    CL-47290   5.703  39.869  11.500
77476CL-    CL-47291  34.003  21.246  13.856
77477CL-    CL-47292  14.733   4.740  11.877
77478CL-    CL-47293  10.835  14.753   1.370
77479CL-    CL-47294   5.790  14.189  12.900
77480CL-    CL-47295   8.750   4.798  11.118
77481CL-    CL-47296   6.818  38.445   4.818
77482CL-    CL-47297   9.382  15.093   0.384
77483CL-    CL-47298  30.072  17.221   2.391
77484CL-    CL-47299  42.838  44.872  12.382
77485CL-    CL-47300  20.043  32.500   2.672
77486CL-    CL-47301  10.863  33.073   0.392
77487CL-    CL-47302  36.349  18.710   0.341
77488CL-    CL-47303  38.419  15.206   0.812
77489CL-    CL-47304  33.429  25.115  13.370
77490CL-    CL-47305  38.017  13.202   1.736
77491CL-    CL-47306  37.444  38.332   4.216
77492CL-    CL-47307  31.586  42.004   4.728
77493CL-    CL-47308  42.825  12.199   0.336
77494CL-    CL-47309  11.821  25.543   2.875
77495CL-    CL-47310  37.022  20.107  13.836
77496CL-    CL-47311   7.854  44.813   4.764
77497CL-    CL-47312  19.109  31.071  10.443
77498CL-    CL-47313  40.811  41.334   1.259
77499CL-    CL-47314  40.345  29.118  11.524
77500CL-    CL-47315  25.633  43.951   0.243
77501CL-    CL-47316  30.593  26.059   4.749
77502CL-    CL-47317  40.937  37.525  14.366
77503CL-    CL-47318   1.818   0.376  14.365
77504CL-    CL-47319  13.259   4.823   2.886
77505CL-    CL-47320  39.969  24.993  13.321
77506CL-    CL-47321  36.883  12.791   0.883
77507CL-    CL-47322  16.174  37.928  12.006
77508CL-    CL-47323  28.983  44.826  12.565
77509CL-    CL-47324  11.728  16.150   4.207
77510CL-    CL-47325  38.899   4.785   0.475
77511CL-    CL-47326  19.738  22.702  13.897
77512CL-    CL-47327  37.361  14.612  10.982
77513CL-    CL-47328  39.055  30.466   5.234
77514CL-    CL-47329  14.136  35.021  10.422
77515CL-    CL-47330  35.915   6.301   4.769
77516CL-    CL-47331  14.241  25.964  12.959
77517CL-    CL-47332   9.375  10.211   1.884
77518CL-    CL-47333  26.048  37.860  10.960
77519CL-    CL-47334  37.485  40.036  12.069
77520CL-    CL-47335  20.044  17.766  11.556
77521CL-    CL-47336  28.490  40.382   1.899
77522CL-    CL-47337   6.254  40.422  13.970
77523CL-    CL-47338   8.172  10.246   1.270
77524CL-    CL-47339  38.836  26.460   3.246
77525CL-    CL-47340  27.659  37.952  13.011
77526CL-    CL-47341   6.740  19.598   1.266
77527CL-    CL-47342  32.455  32.513   1.852
77528CL-    CL-47343  26.698  11.224  11.100
77529CL-    CL-47344   4.787  33.421  10.971
77530CL-    CL-47345  14.233  20.664  10.418
77531CL-    CL-47346   6.754  19.626  14.401
77532CL-    CL-47347  27.588  30.916   0.773
77533CL-    CL-47348   3.862  36.964   2.258
77534CL-    CL-47349   6.383  25.975  14.437
77535CL-    CL-47350  13.839   7.878  14.926
77536CL-    CL-47351  39.845  20.596   2.265
77537CL-    CL-47352  31.579  31.491  10.426
77538CL-    CL-47353  33.933  14.267  14.487
77539CL-    CL-47354  40.497  24.511   3.294
77540CL-    CL-47355  20.760   5.429   0.367
77541CL-    CL-47356  29.026  30.916   0.740
77542CL-    CL-47357  25.077   9.889  11.593
77543CL-    CL-47358  20.149  13.164   2.750
77544CL-    CL-47359  26.647  22.214   3.258
77545CL-    CL-47360  33.436  13.609  13.472
77546CL-    CL-47361  19.630  26.135   1.860
77547CL-    CL-47362  29.049  30.425  11.587
77548CL-    CL-47363   8.233  37.465   2.753
77549CL-    CL-47364  24.666   9.826   2.412
77550CL-    CL-47365  15.817  27.671  10.610
77551CL-    CL-47366  22.007   0.414   4.831
77552CL-    CL-47367  42.290  11.626  11.492
77553CL-    CL-47368  29.969  16.675   0.935
77554CL-    CL-47369   1.735   8.680  12.408
77555CL-    CL-47370  28.099  22.101  14.808
77556CL-    CL-47371   8.171  24.029   4.705
77557CL-    CL-47372   7.364  16.746  14.843
77558CL-    CL-47373   9.388  13.625  14.770
77559CL-    CL-47374  19.598  33.617   0.740
77560CL-    CL-47375  21.197  25.509  13.436
77561CL-    CL-47376  35.101  38.550  12.411
77562CL-    CL-47377  29.617  22.615  12.541
77563CL-    CL-47378   5.248  31.952  11.128
77564CL-    CL-47379  41.434   8.738  11.608
77565CL-    CL-47380  34.493  18.724   2.215
77566CL-    CL-47381  14.695  17.117  11.069
77567CL-    CL-47382  39.978  12.137   1.919
77568CL-    CL-47383   1.319   2.307   2.845
77569CL-    CL-47384  27.094  23.155  11.878
77570CL-    CL-47385  23.197  43.019   4.288
77571CL-    CL-47386  17.706  14.340   1.278
77572CL-    CL-47387  31.435   8.846  11.569
77573CL-    CL-47388  29.623  20.740  14.332
77574CL-    CL-47389  34.104   1.765  12.849
77575CL-    CL-47390  42.905  23.607  13.974
77576CL-    CL-47391  42.365   8.843  13.020
77577CL-    CL-47392  17.183  15.253  14.805
77578CL-    CL-47393  27.997  10.218  10.432
77579CL-    CL-47394  12.843  17.085  12.518
77580CL-    CL-47395   2.769  20.104   0.776
77581CL-    CL-47396  20.566  11.327  13.971
77582CL-    CL-47397  25.658  38.976  13.371
77583CL-    CL-47398  24.717  42.011   0.735
77584CL-    CL-47399  30.039  40.968   4.747
77585CL-    CL-47400  28.178  14.645  13.391
77586CL-    CL-47401   8.393   5.849  13.473
77587CL-    CL-47402   5.689  32.637   2.662
77588CL-    CL-47403  41.885  37.022   1.310
77589CL-    CL-47404  13.234  17.227   0.430
77590CL-    CL-47405  37.344   7.250  11.603
77591CL-    CL-47406  13.622   4.922  11.882
77592CL-    CL-47407   3.354  31.101  13.981
77593CL-    CL-47408  32.575  23.645  14.478
77594CL-    CL-47409  43.809  15.203  13.506
77595CL-    CL-47410  15.251   0.844   3.788
77596CL-    CL-47411  10.334  14.717   0.900
77597CL-    CL-47412  19.269  10.752   3.281
77598CL-    CL-47413  36.432  12.610   0.960
77599CL-    CL-47414  33.010  29.028   4.302
77600CL-    CL-47415   8.881   8.168   2.279
77601CL-    CL-47416  18.107   5.898  12.868
77602CL-    CL-47417  42.946  19.068  14.455
77603CL-    CL-47418  10.767   1.767   1.347
77604CL-    CL-47419  15.603   4.449   3.184
77605CL-    CL-47420  39.462   5.331  14.848
77606CL-    CL-47421  42.425  43.013   1.333
77607CL-    CL-47422  38.905  28.434   2.358
77608CL-    CL-47423  43.282  39.519  11.971
77609CL-    CL-47424  39.058  26.484   5.295
77610CL-    CL-47425  36.570  24.085   3.241
77611CL-    CL-47426  27.668  24.662   1.234
77612CL-    CL-47427   9.378   7.324  13.495
77613CL-    CL-47428  29.467   5.752  11.464
77614CL-    CL-47429  30.084  43.987   4.815
77615CL-    CL-47430   8.734  35.104  12.412
77616CL-    CL-47431   8.333   3.402  12.468
77617CL-    CL-47432   8.804  31.980   4.678
77618CL-    CL-47433   1.343  44.959  12.913
77619CL-    CL-47434  14.259  10.228  12.824
77620CL-    CL-47435   4.830  24.156   0.768
77621CL-    CL-47436  13.713  34.579   0.964
77622CL-    CL-47437  15.209   6.806   4.313
77623CL-    CL-47438  23.519  36.978   1.903
77624CL-    CL-47439  39.317  38.473   1.866
77625CL-    CL-47440  36.075  21.559  12.497
77626CL-    CL-47441  44.306  36.072  13.918
77627CL-    CL-47442  23.156   8.191  13.860
77628CL-    CL-47443  30.139  38.363   0.920
77629CL-    CL-47444  25.068  24.013   4.268
77630CL-    CL-47445  24.981  30.070   0.865
77631CL-    CL-47446   6.882  27.184   3.322
77632CL-    CL-47447  28.555  25.216   1.411
77633CL-    CL-47448  28.531  26.976  14.896
77634CL-    CL-47449   8.797  12.240  14.417
77635CL-    CL-47450  31.972  42.463  11.557
77636CL-    CL-47451  29.430  24.561  13.870
77637CL-    CL-47452  16.216   6.337  14.793
77638CL-    CL-47453  38.959   0.961   3.746
77639CL-    CL-47454  11.370   3.255  14.405
77640CL-    CL-47455  36.868  26.682  11.103
77641CL-    CL-47456  14.657   7.778   3.679
77642CL-    CL-47457  38.965  18.293   3.170
77643CL-    CL-47458  10.845   1.364  13.320
77644CL-    CL-47459  33.044  43.894   0.930
77645CL-    CL-47460  22.622   9.697   3.274
77646CL-    CL-47461  44.377  27.152  13.841
77647CL-    CL-47462  16.074   9.252  10.413
77648CL-    CL-47463   0.445  31.462   3.770
77649CL-    CL-47464   9.768  14.663  11.558
77650CL-    CL-47465  11.280  30.121   4.809
77651CL-    CL-47466  27.526  42.841   2.184
77652CL-    CL-47467  17.200  12.650  10.020
77653CL-    CL-47468  12.762  27.142   2.795
77654CL-    CL-47469   0.917  36.442   1.433
77655CL-    CL-47470  24.231  13.275   1.746
77656CL-    CL-47471  22.572   2.262   3.676
77657CL-    CL-47472  41.337  40.434   2.186
77658CL-    CL-47473  30.506   5.772   2.704
77659CL-    CL-47474  16.317  41.481  11.586
77660CL-    CL-47475  28.567  15.808   2.817
77661CL-    CL-47476  42.435  16.150  10.010
77662CL-    CL-47477   1.847  18.157  11.001
77663CL-    CL-47478   8.798  26.096   4.656
77664CL-    CL-47479   1.319  19.537  11.948
77665CL-    CL-47480  43.311  44.768   2.310
77666CL-    CL-47481  43.887  43.457   2.236
77667CL-    CL-47482  19.691  42.430  12.446
77668CL-    CL-47483  14.824  20.628   1.449
77669CL-    CL-47484  13.717   6.229  14.765
77670CL-    CL-47485  36.882  19.162   2.861
77671CL-    CL-47486  40.464  20.063  11.601
77672CL-    CL-47487   6.877  19.762  10.539
77673CL-    CL-47488   1.361  34.078   1.219
77674CL-    CL-47489  31.981  39.521  10.627
77675CL-    CL-47490   6.273  37.573   5.168
77676CL-    CL-47491  23.670  37.931   2.366
77677CL-    CL-47492   5.239   1.957   5.150
77678CL-    CL-47493  28.674  41.470  14.458
77679CL-    CL-47494  20.547   8.799   3.360
77680CL-    CL-47495  14.726  12.685  12.496
77681CL-    CL-47496  36.593  31.508  14.764
77682CL-    CL-47497  12.750  24.170   2.321
77683CL-    CL-47498  44.459  24.156   2.241
77684CL-    CL-47499  22.743  41.511  14.927
77685CL-    CL-47500  27.630  37.368  12.066
77686CL-    CL-47501   9.830  29.161  14.377
77687CL-    CL-47502   7.808  12.747  12.488
77688CL-    CL-47503  32.922  10.375  13.899
77689CL-    CL-47504  19.641   1.406  10.913
77690CL-    CL-47505  35.557  41.338  10.540
77691CL-    CL-47506  13.630  14.781  12.428
77692CL-    CL-47507  14.104   9.824  12.485
77693CL-    CL-47508  26.477  44.863   2.305
77694CL-    CL-47509  29.156   6.853  11.990
77695CL-    CL-47510  27.033  11.820  10.068
77696CL-    CL-47511  27.607   0.886   1.843
77697CL-    CL-47512  28.978  19.104   2.223
77698CL-    CL-47513  18.285  11.268  10.938
77699CL-    CL-47514   6.727   4.931   3.157
77700CL-    CL-47515  30.563   8.180  12.409
77701CL-    CL-47516  39.523  18.286  14.402
77702CL-    CL-47517  20.194  38.952   3.365
77703CL-    CL-47518  31.937   2.427  11.070
77704CL-    CL-47519  14.154  24.708   3.171
77705CL-    CL-47520  20.029  24.175  14.344
77706CL-    CL-47521   2.453  40.816   0.880
77707CL-    CL-47522  17.602  42.950   4.268
77708CL-    CL-47523  16.234  21.637  12.050
77709CL-    CL-47524   6.893  40.952   0.858
77710CL-    CL-47525  19.188  43.465  10.912
77711CL-    CL-47526  15.278   8.389   1.295
77712CL-    CL-47527  33.918  16.155   4.751
77713CL-    CL-47528  29.475  28.987   3.343
77714CL-    CL-47529  24.539  17.670  10.982
77715CL-    CL-47530  18.686   0.869   1.254
77716CL-    CL-47531  33.912  26.058   3.719
77717CL-    CL-47532  31.635   1.321   3.372
77718CL-    CL-47533  15.151  22.202   3.698
77719CL-    CL-47534  19.694  41.337   3.296
77720CL-    CL-47535  41.414  15.641   5.321
77721CL-    CL-47536  12.773  29.545  12.997
77722CL-    CL-47537  37.553  21.596  11.427
77723CL-    CL-47538   1.317  21.589  14.339
77724CL-    CL-47539  10.858  34.057  10.611
77725CL-    CL-47540  19.212  11.700   4.160
77726CL-    CL-47541   1.473  25.681  13.490
77727CL-    CL-47542   8.856  29.555   4.785
77728CL-    CL-47543  22.623  21.644  11.890
77729CL-    CL-47544  34.471  23.210  10.581
77730CL-    CL-47545  36.015  18.572  12.841
77731CL-    CL-47546  17.561  26.121   4.340
77732CL-    CL-47547  18.721  39.062   1.900
77733CL-    CL-47548  26.086  32.992   3.857
77734CL-    CL-47549  12.637  31.098  14.509
77735CL-    CL-47550  21.530  11.790   4.628
77736CL-    CL-47551  33.972  11.323   0.810
77737CL-    CL-47552   0.484   7.202  14.987
77738CL-    CL-47553   6.820  26.992  14.810
77739CL-    CL-47554  35.982   9.345  14.389
77740CL-    CL-47555  31.435  19.273  11.067
77741CL-    CL-47556  12.663  12.153  14.487
77742CL-    CL-47557  37.941   3.856   2.807
77743CL-    CL-47558  21.184  15.780   1.772
77744CL-    CL-47559  22.700   7.232   4.177
77745CL-    CL-47560  14.198  21.092   0.309
77746CL-    CL-47561  28.003  37.468   3.242
77747CL-    CL-47562   3.425  30.921  12.569
77748CL-    CL-47563   8.700  35.580   3.647
77749CL-    CL-47564  18.237  28.665   3.357
77750CL-    CL-47565  15.249  37.929  11.082
77751CL-    CL-47566  23.209  44.342   0.770
77752CL-    CL-47567   5.369  30.435   1.283
77753CL-    CL-47568  36.955  15.787  10.928
77754CL-    CL-47569   9.285  15.227  10.410
77755CL-    CL-47570  13.290  11.145  14.935
77756CL-    CL-47571  12.339  10.729   0.412
77757CL-    CL-47572  22.613  18.159  10.623
77758CL-    CL-47573  32.114  26.066  10.484
77759CL-    CL-47574  34.090   5.781  14.957
77760CL-    CL-47575   9.755  24.714  13.393
77761CL-    CL-47576   4.376  27.513   2.754
77762CL-    CL-47577  20.053  18.250   0.960
77763CL-    CL-47578  14.251   5.733  13.517
77764CL-    CL-47579  32.608  16.630  13.522
77765CL-    CL-47580  18.246  16.157  13.045
77766CL-    CL-47581  40.452  19.649  12.982
77767CL-    CL-47582  25.139  27.953  13.491
77768CL-    CL-47583  14.801  33.606  12.514
77769CL-    CL-47584  37.500  22.607  10.566
77770CL-    CL-47585  29.654  41.041   1.310
77771CL-    CL-47586  23.660  26.991  14.857
77772CL-    CL-47587  12.821  35.498   2.727
77773CL-    CL-47588  24.650   9.802  12.561
77774CL-    CL-47589  40.316  43.927  13.976
77775CL-    CL-47590  14.120  42.948   4.142
77776CL-    CL-47591  32.107  16.670   2.681
77777CL-    CL-47592  36.968  21.125   3.165
77778CL-    CL-47593  26.563   7.686   2.664
77779CL-    CL-47594  12.276  33.074  14.467
77780CL-    CL-47595  44.993  36.431   1.711
77781CL-    CL-47596  39.387  10.325   1.441
77782CL-    CL-47597  39.007  25.983   4.293
77783CL-    CL-47598  14.286  29.536  12.503
77784CL-    CL-47599  24.504   4.313  10.477
77785CL-    CL-47600   1.333  36.545  14.775
77786CL-    CL-47601  11.695  44.267   3.160
77787CL-    CL-47602  44.759  43.898  14.902
77788CL-    CL-47603  36.482  33.046   2.306
77789CL-    CL-47604  33.536  21.673   4.352
77790CL-    CL-47605  27.955  22.190   2.317
77791CL-    CL-47606  12.262  23.592  14.994
77792CL-    CL-47607  39.034   1.422   4.299
77793CL-    CL-47608  18.683  33.531   0.783
77794CL-    CL-47609  23.227   6.293   3.167
77795CL-    CL-47610   1.940  38.502  13.794
77796CL-    CL-47611  43.405  36.986   0.961
77797CL-    CL-47612   1.304  24.539  12.899
77798CL-    CL-47613  14.201  26.542   3.829
77799CL-    CL-47614  22.693  29.138   1.782
77800CL-    CL-47615  26.508  27.072  11.496
77801CL-    CL-47616  39.023  41.000  13.504
77802CL-    CL-47617  18.702  17.636   2.681
77803CL-    CL-47618  39.534  18.776  14.451
77804CL-    CL-47619  16.233  22.247   2.841
77805CL-    CL-47620   1.273  20.145  10.998
77806CL-    CL-47621  34.559  15.166  14.471
77807CL-    CL-47622  14.745  21.071  10.978
77808CL-    CL-47623  35.088  22.116  14.509
77809CL-    CL-47624  29.507  41.814  14.937
77810CL-    CL-47625  35.968  27.636  14.828
77811CL-    CL-47626   2.287  27.119  12.490
77812CL-    CL-47627  43.458  10.167  14.275
77813CL-    CL-47628  24.499  16.243  10.948
77814CL-    CL-47629   9.337   4.934   2.903
77815CL-    CL-47630   9.340  17.282  11.014
77816CL-    CL-47631  17.576   6.214  12.919
77817CL-    CL-47632  12.312  13.688   2.866
77818CL-    CL-47633  36.539  22.559  10.466
77819CL-    CL-47634  43.501   3.246   0.308
77820CL-    CL-47635  38.429  18.584  12.032
77821CL-    CL-47636  13.350  17.687   3.753
77822CL-    CL-47637  43.891  26.700   3.349
77823CL-    CL-47638   1.446  30.533   4.142
77824CL-    CL-47639  26.968   8.725  10.417
77825CL-    CL-47640  38.528   2.886  14.491
77826CL-    CL-47641  39.049   9.220  12.000
77827CL-    CL-47642   3.437  37.971  11.601
77828CL-    CL-47643  22.244  31.624   2.338
77829CL-    CL-47644  18.600   0.929   4.213
77830CL-    CL-47645  21.217   0.943  11.957
77831CL-    CL-47646  40.379  28.652  12.998
77832CL-    CL-47647  35.493  43.496  10.965
77833CL-    CL-47648  25.524  19.250   1.407
77834CL-    CL-47649  10.658  11.247  10.521
77835CL-    CL-47650  18.208  32.453   1.842
77836CL-    CL-47651  41.532  27.063   1.861
77837CL-    CL-47652  17.791  43.408   3.314
77838CL-    CL-47653  39.556   3.413   2.334
77839CL-    CL-47654  29.110  33.510  13.797
77840CL-    CL-47655   5.338  29.508   2.825
77841CL-    CL-47656  41.312  39.852   2.686
77842CL-    CL-47657   9.741  42.934   4.348
77843CL-    CL-47658  35.558  40.388  13.392
77844CL-    CL-47659  26.481  22.534   4.759
77845CL-    CL-47660   1.775  15.150  12.859
77846CL-    CL-47661  35.435  10.645   0.389
77847CL-    CL-47662   0.463  21.746   4.803
77848CL-    CL-47663  42.460   8.362  13.513
77849CL-    CL-47664  44.297  35.884   2.772
77850CL-    CL-47665  31.584  15.725  13.864
77851CL-    CL-47666   0.315  13.609   1.442
77852CL-    CL-47667  25.713  16.681  10.613
77853CL-    CL-47668   2.431  31.127  10.969
77854CL-    CL-47669   1.377  21.621  13.520
77855CL-    CL-47670  40.320  36.580   3.747
77856CL-    CL-47671  28.064  21.127  11.561
77857CL-    CL-47672  38.364  12.855   0.735
77858CL-    CL-47673  43.802   7.738   3.275
77859CL-    CL-47674  37.903   5.196   2.804
77860CL-    CL-47675  28.992  36.066  14.948
77861CL-    CL-47676  25.064  18.258  14.936
77862CL-    CL-47677  30.987   0.477  13.343
77863CL-    CL-47678   3.224  28.089   3.330
77864CL-    CL-47679  19.062   0.892   0.894
77865CL-    CL-47680  36.918  11.688  12.407
77866CL-    CL-47681  29.643  13.205   2.381
77867CL-    CL-47682  33.032  19.133   0.955
77868CL-    CL-47683  41.373   8.893  12.559
77869CL-    CL-47684  26.048  31.622   1.932
77870CL-    CL-47685  27.008  10.721  14.010
77871CL-    CL-47686  12.628  21.752   2.195
77872CL-    CL-47687  42.441   8.820   3.825
77873CL-    CL-47688   9.672   0.403  14.276
77874CL-    CL-47689  41.317   8.777   4.675
77875CL-    CL-47690   7.899  26.614   0.839
77876CL-    CL-47691   3.450   3.235   4.653
77877CL-    CL-47692  40.315  24.119   0.816
77878CL-    CL-47693  18.206  30.609  12.375
77879CL-    CL-47694  44.400   8.698  12.439
77880CL-    CL-47695  37.887  37.426  11.603
77881CL-    CL-47696   1.246  43.774  13.815
77882CL-    CL-47697  40.505  11.137  12.465
77883CL-    CL-47698  14.595   8.817  14.917
77884CL-    CL-47699   0.485  35.444   0.364
77885CL-    CL-47700  40.979  16.226  13.037
77886CL-    CL-47701  13.242  18.231  12.838
77887CL-    CL-47702  35.954  36.034  13.981
77888CL-    CL-47703  33.066  28.048  14.998
77889CL-    CL-47704  38.498  14.110   2.274
77890CL-    CL-47705  18.056  10.797  10.465
77891CL-    CL-47706  28.595  41.919  11.896
77892CL-    CL-47707  12.822  22.096   2.321
77893CL-    CL-47708   3.801  32.058  13.343
77894CL-    CL-47709  18.219  35.582  13.384
77895CL-    CL-47710  21.219  36.007   0.463
77896CL-    CL-47711  34.964  10.726   3.172
77897CL-    CL-47712   3.444   3.840   4.677
77898CL-    CL-47713   7.825   0.455   4.786
77899CL-    CL-47714  23.172  22.158  14.863
77900CL-    CL-47715  10.242  13.689  12.434
77901CL-    CL-47716  35.040  14.668   1.707
77902CL-    CL-47717   4.243  44.359   2.263
77903CL-    CL-47718  31.124  37.507   0.909
77904CL-    CL-47719  16.155  28.551   1.391
77905CL-    CL-47720  10.234  44.954  13.979
77906CL-    CL-47721   4.755  23.221   0.859
77907CL-    CL-47722  30.942  12.267   3.350
77908CL-    CL-47723  42.492  44.962   0.259
77909CL-    CL-47724  14.155  19.740  12.485
77910CL-    CL-47725  20.219  12.279  12.041
77911CL-    CL-47726  31.626  12.804  12.027
77912CL-    CL-47727  35.560   2.742   0.948
77913CL-    CL-47728  15.112   2.261  12.341
77914CL-    CL-47729  18.051  39.064  11.864
77915CL-    CL-47730  40.484  32.452   4.698
77916CL-    CL-47731  39.935   8.871  10.492
77917CL-    CL-47732  26.569  12.821  10.053
77918CL-    CL-47733  18.295  37.548  11.970
77919CL-    CL-47734  36.056  11.351   0.252
77920CL-    CL-47735   7.199  44.009  11.001
77921CL-    CL-47736  24.167   4.267   2.898
77922CL-    CL-47737  36.471  15.223  12.853
77923CL-    CL-47738   3.247  32.056  12.369
77924CL-    CL-47739   5.255  22.248   3.777
77925CL-    CL-47740  21.617  28.437   0.736
77926CL-    CL-47741  34.952  25.608  11.910
77927CL-    CL-47742  39.359  33.048  11.125
77928CL-    CL-47743  30.995  32.990  12.512
77929CL-    CL-47744  35.856  38.072  10.598
77930CL-    CL-47745   0.744  16.667   2.804
77931CL-    CL-47746   7.309   8.742  14.766
77932CL-    CL-47747   7.350   8.784  10.405
77933CL-    CL-47748  31.919  19.092   3.165
77934CL-    CL-47749  29.936  13.204   2.843
77935CL-    CL-47750  33.122   9.728  13.929
77936CL-    CL-47751  15.221  28.177  11.525
77937CL-    CL-47752   6.269  31.405   2.724
77938CL-    CL-47753  42.381  21.214   4.694
77939CL-    CL-47754  36.028  39.386   4.764
77940CL-    CL-47755  35.009   7.765  13.535
77941CL-    CL-47756  24.996   9.832  14.275
77942CL-    CL-47757  16.675  26.490  12.885
77943CL-    CL-47758  44.896  41.989   0.873
77944CL-    CL-47759  41.876  17.768  12.897
77945CL-    CL-47760  21.058  15.166   9.966
77946CL-    CL-47761  14.152  38.452  12.868
77947CL-    CL-47762  14.105  15.204   1.790
77948CL-    CL-47763  13.706  25.485  10.447
77949CL-    CL-47764  14.095  12.614   1.763
77950CL-    CL-47765  31.472   0.442  10.469
77951CL-    CL-47766  23.515  23.151   1.924
77952CL-    CL-47767   4.382  19.251  12.824
77953CL-    CL-47768   0.793  16.577  14.768
77954CL-    CL-47769  39.908  42.365  14.814
77955CL-    CL-47770  37.444  11.758   2.274
77956CL-    CL-47771  19.053  26.667  13.974
77957CL-    CL-47772  13.187  30.626  13.353
77958CL-    CL-47773  36.378  22.050  12.974
77959CL-    CL-47774  25.686   0.462   3.693
77960CL-    CL-47775  43.002  21.025  14.361
77961CL-    CL-47776   8.239  14.178  12.953
77962CL-    CL-47777   4.281  25.651  11.986
77963CL-    CL-47778   2.243   9.346   3.253
77964CL-    CL-47779   7.283  31.959   3.220
77965CL-    CL-47780   8.687   9.310  12.449
77966CL-    CL-47781   4.813  22.195  11.072
77967CL-    CL-47782  13.711  24.989  13.798
77968CL-    CL-47783   5.236  42.337   0.850
77969CL-    CL-47784  14.245   6.898  14.311
77970CL-    CL-47785  20.663  28.542   4.628
77971CL-    CL-47786  18.747  14.742  10.564
77972CL-    CL-47787  12.615  22.240   4.287
77973CL-    CL-47788   9.365  31.105   0.476
77974CL-    CL-47789  38.363  39.453  14.786
77975CL-    CL-47790  44.461  35.967   1.357
77976CL-    CL-47791  44.451  41.007  12.071
77977CL-    CL-47792  34.434  17.559   3.713
77978CL-    CL-47793   9.280  44.431  11.530
77979CL-    CL-47794  24.999  14.764  14.931
77980CL-    CL-47795   9.790   2.302   4.346
77981CL-    CL-47796   1.828   2.789  11.097
77982CL-    CL-47797  37.367  29.057  14.290
77983CL-    CL-47798  34.907  42.914   2.895
77984CL-    CL-47799  32.023   3.219  10.161
77985CL-    CL-47800   0.855  20.249   1.309
77986CL-    CL-47801  31.994  21.604  11.376
77987CL-    CL-47802  23.548  27.023   2.696
77988CL-    CL-47803  22.197  16.264  13.848
77989CL-    CL-47804  37.445  42.294   4.758
77990CL-    CL-47805  35.036  14.287  12.347
77991CL-    CL-47806   0.921  36.559   3.292
77992CL-    CL-47807  22.658   9.352  12.493
77993CL-    CL-47808   0.493  18.243  13.433
77994CL-    CL-47809  12.821  16.573   5.191
77995CL-    CL-47810  29.158  24.127  12.073
77996CL-    CL-47811  36.538  39.945   2.336
77997CL-    CL-47812  36.897  28.585   2.730
77998CL-    CL-47813  12.849  43.814  11.900
77999CL-    CL-47814   6.760  36.395  14.407
78000CL-    CL-47815   1.788  12.254   3.150
78001CL-    CL-47816   7.205  24.535   2.392
78002CL-    CL-47817   2.951  33.092  12.964
78003CL-    CL-47818  22.095  37.475   0.253
78004CL-    CL-47819  35.481   1.863   3.652
78005CL-    CL-47820  29.569  22.531   4.599
78006CL-    CL-47821  12.795  30.567  11.972
78007CL-    CL-47822  11.189  32.520  14.867
78008CL-    CL-47823  12.681  32.458  11.030
78009CL-    CL-47824  37.075  23.024   1.694
78010CL-    CL-47825  26.015  36.039  10.479
78011CL-    CL-47826   8.229  42.366  10.454
78012CL-    CL-47827  27.146  25.596  11.114
78013CL-    CL-47828  33.108  10.754   1.222
78014CL-    CL-47829  41.324  24.031   4.794
78015CL-    CL-47830  44.425  25.214   4.131
78016CL-    CL-47831  18.724  16.591  11.018
78017CL-    CL-47832  38.007  16.692   4.350
78018CL-    CL-47833  43.427  42.371   0.840
78019CL-    CL-47834  38.433   0.269   4.229
78020CL-    CL-47835  36.926  14.721   2.825
78021CL-    CL-47836  36.913  41.030   1.438
78022CL-    CL-47837  10.783  20.076   1.761
78023CL-    CL-47838  20.164  33.060  10.508
78024CL-    CL-47839  36.574   7.775  11.128
78025CL-    CL-47840  15.627  19.140   3.825
78026CL-    CL-47841   6.354  33.030   2.365
78027CL-    CL-47842  36.482   7.769   0.257
78028CL-    CL-47843  12.321  12.352  12.828
78029CL-    CL-47844  16.299  39.435   2.226
78030CL-    CL-47845   3.897  29.620  11.112
78031CL-    CL-47846  12.169  11.649   1.830
78032CL-    CL-47847  18.739  21.628  14.974
78033CL-    CL-47848  41.303  27.560   0.362
78034CL-    CL-47849  38.883  16.602   1.446
78035CL-    CL-47850  10.288  27.952  12.902
78036CL-    CL-47851  14.108  29.605  10.497
78037CL-    CL-47852  35.091  17.244   1.928
78038CL-    CL-47853  38.556   9.643   3.710
78039CL-    CL-47854  33.990  27.499   1.868
78040CL-    CL-47855  25.600   1.387   3.329
78041CL-    CL-47856  38.999  34.449  11.873
78042CL-    CL-47857  19.771  28.558   2.205
78043CL-    CL-47858  44.895  12.791   1.745
78044CL-    CL-47859  13.646  20.049  11.020
78045CL-    CL-47860   3.892   1.739   4.200
78046CL-    CL-47861   4.852  20.229  13.903
78047CL-    CL-47862  32.953  37.343   3.664
78048CL-    CL-47863  36.408  31.056  14.852
78049CL-    CL-47864  42.925   7.902   5.168
78050CL-    CL-47865   5.822  11.771  14.371
78051CL-    CL-47866  38.457  20.076   0.843
78052CL-    CL-47867  13.217  27.686  12.460
78053CL-    CL-47868  27.983  25.047  14.493
78054CL-    CL-47869  42.803  23.703  12.973
78055CL-    CL-47870  22.206  42.507   2.786
78056CL-    CL-47871  36.388  42.013  12.077
78057CL-    CL-47872  39.317  21.194  14.837
78058CL-    CL-47873   4.889  22.735  14.354
78059CL-    CL-47874  35.431  21.129   0.870
78060CL-    CL-47875   0.482  29.512   2.195
78061CL-    CL-47876  32.576  35.983   0.382
78062CL-    CL-47877  25.042  34.526   2.281
78063CL-    CL-47878  38.486   7.710  10.475
78064CL-    CL-47879  27.146   7.895   2.704
78065CL-    CL-47880  40.976   3.392  14.839
78066CL-    CL-47881  16.135   3.904   4.184
78067CL-    CL-47882  17.609  25.106  14.422
78068CL-    CL-47883  32.081   6.828  13.420
78069CL-    CL-47884  31.949  34.456   2.223
78070CL-    CL-47885  32.139  16.766  11.455
78071CL-    CL-47886  21.735  28.569  11.094
78072CL-    CL-47887  40.462  31.588   0.427
78073CL-    CL-47888  38.900  42.947   2.798
78074CL-    CL-47889  28.575  25.697   2.767
78075CL-    CL-47890  27.058  35.516  11.109
78076CL-    CL-47891   6.910   5.332   1.860
78077CL-    CL-47892   2.951  11.296   3.321
78078CL-    CL-47893   4.922  38.443   0.961
78079CL-    CL-47894  25.630  29.456  13.513
78080CL-    CL-47895  42.804  25.026   1.706
78081CL-    CL-47896  33.064  42.862  14.982
78082CL-    CL-47897  32.971  34.059   3.853
78083CL-    CL-47898  30.135  17.282  12.506
78084CL-    CL-47899  32.522  19.088  10.583
78085CL-    CL-47900  32.050  37.572   2.811
78086CL-    CL-47901   5.245  28.601  13.507
78087CL-    CL-47902   3.775  14.313   4.316
78088CL-    CL-47903   2.291  21.755  13.843
78089CL-    CL-47904   1.785   9.741  13.921
78090CL-    CL-47905  26.169  38.481  13.497
78091CL-    CL-47906   0.430  41.468  12.984
78092CL-    CL-47907   7.719  13.331  14.462
78093CL-    CL-47908  36.008  23.681   3.196
78094CL-    CL-47909  23.731   5.229   4.178
78095CL-    CL-47910   6.220  42.008  13.901
78096CL-    CL-47911  44.755  38.354   0.757
78097CL-    CL-47912  32.104   4.434  10.979
78098CL-    CL-47913  16.652  23.013   2.832
78099CL-    CL-47914  16.153   1.944  14.027
78100CL-    CL-47915  44.412   7.334  11.445
78101CL-    CL-47916  24.608   5.848  13.989
78102CL-    CL-47917   0.825   2.264  13.368
78103CL-    CL-47918  27.156   8.802  13.948
78104CL-    CL-47919  44.979  33.922   2.379
78105CL-    CL-47920  32.890  25.516   4.699
78106CL-    CL-47921  11.296  33.599  12.841
78107CL-    CL-47922  30.008  31.048   4.234
78108CL-    CL-47923  11.323  12.219  11.498
78109CL-    CL-47924  25.641  31.585   4.211
78110CL-    CL-47925  42.377   9.710   4.133
78111CL-    CL-47926  27.466  38.965   4.303
78112CL-    CL-47927  31.427   8.867  10.502
78113CL-    CL-47928  26.525  15.804   2.251
78114CL-    CL-47929   5.328  32.576   2.409
78115CL-    CL-47930  27.494  20.164   1.746
78116CL-    CL-47931   1.403  38.345   3.283
78117CL-    CL-47932  37.466  30.125   1.298
78118CL-    CL-47933  20.711  43.923  13.496
78119CL-    CL-47934  37.903   1.956   1.705
78120CL-    CL-47935  30.576  12.692  11.592
78121CL-    CL-47936  14.670  18.096   1.253
78122CL-    CL-47937  29.130  15.680   4.233
78123CL-    CL-47938   4.242  21.235  12.017
78124CL-    CL-47939  19.552   0.284   0.845
78125CL-    CL-47940  12.758  30.068   2.214
78126CL-    CL-47941  14.248   2.896   0.943
78127CL-    CL-47942  16.763   0.907   2.726
78128CL-    CL-47943  37.029  26.187   0.276
78129CL-    CL-47944   5.344   9.647  14.014
78130CL-    CL-47945  11.859  42.324   4.321
78131CL-    CL-47946  31.413  34.609   2.702
78132CL-    CL-47947   8.710  29.170   1.367
78133CL-    CL-47948  19.056  14.816   0.849
78134CL-    CL-47949  12.355  17.734  12.466
78135CL-    CL-47950  29.598   1.385  10.524
78136CL-    CL-47951  21.722   7.778  11.003
78137CL-    CL-47952  28.942  10.645   1.739
78138CL-    CL-47953  19.586  20.220  12.963
78139CL-    CL-47954  15.756  23.147  11.437
78140CL-    CL-47955  33.525  31.575  13.312
78141CL-    CL-47956   2.850  36.458  11.604
78142CL-    CL-47957  32.048  43.861  13.515
78143CL-    CL-47958  44.907  40.391   3.695
78144CL-    CL-47959  12.753  27.690   1.353
78145CL-    CL-47960   5.389  35.969  11.524
78146CL-    CL-47961  13.231  21.188  13.820
78147CL-    CL-47962   1.349   2.389  14.336
78148CL-    CL-47963  15.309  10.249   3.781
78149CL-    CL-47964  13.320   3.855   2.767
78150CL-    CL-47965   2.903  36.578   2.374
78151CL-    CL-47966   3.278  35.522  12.009
78152CL-    CL-47967  32.558  37.566  11.900
78153CL-    CL-47968   8.682  14.172   0.941
78154CL-    CL-47969  43.853  21.528   0.807
78155CL-    CL-47970  13.642  27.597   4.618
78156CL-    CL-47971  34.073  37.520   2.662
78157CL-    CL-47972  26.093  20.696   2.794
78158CL-    CL-47973   9.778  15.627   2.216
78159CL-    CL-47974  11.320  16.200   3.293
78160CL-    CL-47975  35.044  10.349  14.858
78161CL-    CL-47976  25.042   0.422   1.911
78162CL-    CL-47977  11.776  43.353   2.880
78163CL-    CL-47978  33.386  19.773  12.976
78164CL-    CL-47979  17.686  10.781  12.341
78165CL-    CL-47980  41.032  11.127   0.739
78166CL-    CL-47981  38.569  14.664  11.970
78167CL-    CL-47982  25.214  28.665   3.317
78168CL-    CL-47983  17.566  24.544   4.174
78169CL-    CL-47984  28.975  17.222   2.363
78170CL-    CL-47985   8.170  43.809  13.881
78171CL-    CL-47986  19.241  29.664   3.157
78172CL-    CL-47987  33.076   4.889   0.408
78173CL-    CL-47988  27.115   2.452  13.918
78174CL-    CL-47989   1.738  29.017  14.808
78175CL-    CL-47990  29.507   5.904   2.347
78176CL-    CL-47991  19.185  23.636  11.106
78177CL-    CL-47992  23.151   6.246   1.294
78178CL-    CL-47993   0.752  25.677  14.028
78179CL-    CL-47994   0.465   2.933   2.189
78180CL-    CL-47995  20.755  34.976   3.649
78181CL-    CL-47996  36.448  28.499  11.926
78182CL-    CL-47997  24.034  33.622  13.337
78183CL-    CL-47998  42.473   8.770  11.061
78184CL-    CL-47999  13.703  29.591  11.945
78185CL-    CL-48000  10.335  35.945   2.866
78186CL-    CL-48001  36.853  32.096   5.126
78187CL-    CL-48002  35.586  41.947  12.391
78188CL-    CL-48003  10.656  18.661   2.851
78189CL-    CL-48004  20.769   5.733  14.830
78190CL-    CL-48005  36.879  38.055  11.958
78191CL-    CL-48006   9.361  21.234  13.514
78192CL-    CL-48007  38.957  36.080   2.757
78193CL-    CL-48008  32.480  21.174   0.322
78194CL-    CL-48009  38.490   6.726  12.921
78195CL-    CL-48010   4.881  18.676   3.677
78196CL-    CL-48011  36.864   8.252   1.363
78197CL-    CL-48012  40.907  38.383  14.997
78198CL-    CL-48013  25.683  44.849   2.744
78199CL-    CL-48014  19.554  43.497   2.786
78200CL-    CL-48015   4.883   8.794  13.319
78201CL-    CL-48016  30.472   7.728  12.354
78202CL-    CL-48017  33.057   9.221   3.251
78203CL-    CL-48018   6.415  35.973   4.229
78204CL-    CL-48019  44.386  32.943   4.153
78205CL-    CL-48020  26.567  12.693  13.982
78206CL-    CL-48021  21.181  33.619  13.012
78207CL-    CL-48022  19.555  16.212   0.886
78208CL-    CL-48023   2.362  32.631   4.241
78209CL-    CL-48024  32.017   0.480   4.817
78210CL-    CL-48025  29.919  23.638   2.203
78211CL-    CL-48026  41.929  39.431  14.887
78212CL-    CL-48027  31.512   6.332  13.924
78213CL-    CL-48028   0.795  30.923  12.840
78214CL-    CL-48029   6.869  44.379  14.823
78215CL-    CL-48030  32.125  35.452   1.415
78216CL-    CL-48031  40.981  14.599   3.853
78217CL-    CL-48032   6.797  22.095  10.896
78218CL-    CL-48033  34.960  24.996   1.406
78219CL-    CL-48034  34.915   6.265  12.387
78220CL-    CL-48035  37.444  32.898   0.737
78221CL-    CL-48036  20.664  43.952  10.056
78222CL-    CL-48037  43.507  34.081   2.262
78223CL-    CL-48038  13.300  37.032   2.798
78224CL-    CL-48039  26.059  29.586   0.476
78225CL-    CL-48040  21.215   7.886  14.805
78226CL-    CL-48041  39.891  14.800   1.343
78227CL-    CL-48042  11.789  33.993   4.767
78228CL-    CL-48043  34.876  24.014   5.138
78229CL-    CL-48044   9.819  20.743   0.325
78230CL-    CL-48045   5.283  23.021   4.206
78231CL-    CL-48046  35.414  11.736   2.311
78232CL-    CL-48047  13.618  33.531  13.539
78233CL-    CL-48048   6.736  42.948  10.645
78234CL-    CL-48049  41.898  44.795  12.490
78235CL-    CL-48050  21.247  21.161  11.900
78236CL-    CL-48051   2.405  26.057   0.734
78237CL-    CL-48052  16.156  32.009   0.423
78238CL-    CL-48053  24.180  39.463  12.361
78239CL-    CL-48054  19.280  14.271  14.900
78240CL-    CL-48055  19.688  31.407   1.323
78241CL-    CL-48056  15.613  25.214  13.456
78242CL-    CL-48057  21.054   0.364   3.710
78243CL-    CL-48058  44.285  27.951   4.625
78244CL-    CL-48059  16.799   0.441  12.870
78245CL-    CL-48060  10.216  28.512   4.304
78246CL-    CL-48061  39.388  34.982   4.722
78247CL-    CL-48062  16.189  31.969   1.799
78248CL-    CL-48063   5.426  31.960  14.317
78249CL-    CL-48064  34.456  34.559   4.131
78250CL-    CL-48065  39.362   4.394   0.790
78251CL-    CL-48066   0.939  27.999   0.267
78252CL-    CL-48067  20.222  19.750   0.312
78253CL-    CL-48068  37.086  15.210   1.802
78254CL-    CL-48069   7.375  44.777   3.217
78255CL-    CL-48070  14.142  38.452  10.512
78256CL-    CL-48071  37.441   4.303  11.931
78257CL-    CL-48072  29.108  11.848  11.589
78258CL-    CL-48073  42.306   7.708  14.856
78259CL-    CL-48074  27.139  28.498   0.778
78260CL-    CL-48075  41.971  40.542  11.486
78261CL-    CL-48076  44.941  14.702  11.870
78262CL-    CL-48077  20.686  40.324   4.779
78263CL-    CL-48078  24.678   5.713   4.639
78264CL-    CL-48079  31.137  31.487   1.254
78265CL-    CL-48080  10.758  18.195   4.812
78266CL-    CL-48081   6.806   6.787   0.956
78267CL-    CL-48082   9.360  23.139   3.722
78268CL-    CL-48083  19.688   3.419   0.308
78269CL-    CL-48084   3.906  10.375   1.392
78270CL-    CL-48085  19.725  19.058   3.383
78271CL-    CL-48086  41.010   4.721   1.930
78272CL-    CL-48087  34.117  34.892   0.308
78273CL-    CL-48088  39.553   6.260   3.774
78274CL-    CL-48089  28.469  10.833   2.188
78275CL-    CL-48090   4.438   3.806  13.325
78276CL-    CL-48091   3.428  15.093   2.231
78277CL-    CL-48092  31.040  14.776  10.413
78278CL-    CL-48093  30.651  38.427  12.839
78279CL-    CL-48094  44.390   2.443  12.465
78280CL-    CL-48095  12.347  10.773  10.592
78281CL-    CL-48096  16.072  34.475  14.777
78282CL-    CL-48097  21.714  28.530   4.149
78283CL-    CL-48098  20.565  37.516   1.738
78284CL-    CL-48099  21.176  13.348   4.323
78285CL-    CL-48100  13.657   7.708  11.954
78286CL-    CL-48101  32.920   0.792  12.062
78287CL-    CL-48102  35.573  16.675   4.234
78288CL-    CL-48103  23.010  44.839   0.368
78289CL-    CL-48104  24.184   1.817   3.725
78290CL-    CL-48105  32.082  43.873   3.191
78291CL-    CL-48106   2.405  11.666   0.803
78292CL-    CL-48107  40.449  12.734  14.998
78293CL-    CL-48108  13.208  31.573  12.504
78294CL-    CL-48109  16.601  13.801   1.821
78295CL-    CL-48110  21.255  33.112  12.491
78296CL-    CL-48111  34.865  27.154   2.800
78297CL-    CL-48112  23.705  28.003   1.884
78298CL-    CL-48113   6.220  12.813  12.456
78299CL-    CL-48114  13.115   4.855  10.966
78300CL-    CL-48115  19.624   3.759   2.770
78301CL-    CL-48116  17.729  44.413  12.057
78302CL-    CL-48117  28.131   6.206   4.186
78303CL-    CL-48118  17.745  13.655   0.431
78304CL-    CL-48119  42.006  15.644  14.847
78305CL-    CL-48120  31.485  38.031   4.333
78306CL-    CL-48121  29.087  40.455  14.312
78307CL-    CL-48122  40.446  27.191   4.639
78308CL-    CL-48123  41.295   7.224  13.809
78309CL-    CL-48124  10.223  20.142  13.348
78310CL-    CL-48125  23.025  32.104   3.203
78311CL-    CL-48126  12.735  40.355   1.724
78312CL-    CL-48127   5.730  39.844  12.971
78313CL-    CL-48128  39.472  10.384   3.292
78314CL-    CL-48129  17.572   6.806  11.885
78315CL-    CL-48130  44.307   8.866  14.806
78316CL-    CL-48131  14.320   4.416   1.910
78317CL-    CL-48132  40.960  21.227   2.261
78318CL-    CL-48133  34.022  13.325   4.802
78319CL-    CL-48134  10.235  11.765   0.771
78320CL-    CL-48135   6.279   8.171  11.978
78321CL-    CL-48136  28.679  27.494  12.566
78322CL-    CL-48137   8.832  19.644   3.720
78323CL-    CL-48138  25.687   5.358   1.757
78324CL-    CL-48139  30.448  39.950  12.832
78325CL-    CL-48140   3.367  22.012   2.391
78326CL-    CL-48141   8.832  22.026   1.402
78327CL-    CL-48142   4.801  35.059   0.455
78328CL-    CL-48143  11.136  13.830  10.603
78329CL-    CL-48144  13.116  38.347  13.060
78330CL-    CL-48145  38.964  33.614   1.893
78331CL-    CL-48146  14.660  36.394  11.040
78332CL-    CL-48147   7.731  35.509  13.454
78333CL-    CL-48148  43.444   8.761   3.334
78334CL-    CL-48149  13.317  16.647   4.183
78335CL-    CL-48150   0.396  29.163   4.677
78336CL-    CL-48151   3.426  29.441  11.537
78337CL-    CL-48152  44.318  40.891  14.004
78338CL-    CL-48153  23.176  22.074   3.630
78339CL-    CL-48154   9.799  30.006  10.960
78340CL-    CL-48155  10.727  44.825  13.501
78341CL-    CL-48156  14.667  30.587   0.795
78342CL-    CL-48157  20.171  38.985  10.486
78343CL-    CL-48158  42.390   2.885  14.465
78344CL-    CL-48159  32.079  42.521   1.313
78345CL-    CL-48160  44.302  43.331  13.533
78346CL-    CL-48161  23.104   7.233  13.900
78347CL-    CL-48162  37.902  15.125   3.284
78348CL-    CL-48163  30.016  12.611  10.556
78349CL-    CL-48164  23.222  43.274  10.404
78350CL-    CL-48165  36.971  19.120   3.774
78351CL-    CL-48166  21.533  38.463   4.289
78352CL-    CL-48167  31.040  18.080   4.124
78353CL-    CL-48168   7.834  44.810  13.398
78354CL-    CL-48169  39.947   0.356   4.826
78355CL-    CL-48170  38.520   8.654   1.701
78356CL-    CL-48171  29.565  32.056   5.283
78357CL-    CL-48172  17.695   0.791  13.537
78358CL-    CL-48173  29.504  36.406   4.255
78359CL-    CL-48174  27.124  40.527   1.844
78360CL-    CL-48175  20.076  28.544   1.723
78361CL-    CL-48176  16.682  35.103  14.470
78362CL-    CL-48177  40.449  35.886   4.756
78363CL-    CL-48178   6.833  10.250   3.726
78364CL-    CL-48179  16.782  18.160  11.067
78365CL-    CL-48180  26.984  33.594   4.315
78366CL-    CL-48181   1.935  24.069  14.445
78367CL-    CL-48182  14.589  21.718  14.758
78368CL-    CL-48183  38.905  11.262   2.685
78369CL-    CL-48184  33.993  43.891   4.311
78370CL-    CL-48185   8.666  12.619  12.993
78371CL-    CL-48186  12.638  14.637   4.340
78372CL-    CL-48187  31.434  41.451   4.267
78373CL-    CL-48188  38.439  14.781   4.622
78374CL-    CL-48189  24.055  39.358  10.930
78375CL-    CL-48190   8.289  11.705   4.115
78376CL-    CL-48191   8.661   9.879   2.412
78377CL-    CL-48192   8.202  11.172  11.595
78378CL-    CL-48193  16.138  15.201  13.378
78379CL-    CL-48194   5.764  32.428  12.505
78380CL-    CL-48195   5.229  21.082  14.374
78381CL-    CL-48196  27.123  27.947   4.162
78382CL-    CL-48197  23.088  10.203   0.831
78383CL-    CL-48198  36.397  39.349  13.308
78384CL-    CL-48199  42.479   1.460  14.316
78385CL-    CL-48200  37.855  35.866  14.953
78386CL-    CL-48201  10.833  20.100  10.956
78387CL-    CL-48202  23.630  37.889   3.178
78388CL-    CL-48203   6.312  40.513  14.939
78389CL-    CL-48204   1.279  41.410  11.612
78390CL-    CL-48205  22.507  24.662  12.398
78391CL-    CL-48206   8.780  22.588   0.308
78392CL-    CL-48207  20.223  31.924   0.449
78393CL-    CL-48208  37.578  31.520   0.310
78394CL-    CL-48209  16.589  18.776  14.999
78395CL-    CL-48210  30.640  37.468  12.361
78396CL-    CL-48211  13.793   4.808  10.624
78397CL-    CL-48212  33.444   3.874   3.780
78398CL-    CL-48213  10.826  22.538  14.395
78399CL-    CL-48214  40.311  24.083   1.701
78400CL-    CL-48215  38.368  15.779   0.326
78401CL-    CL-48216  27.097  26.109  14.475
78402CL-    CL-48217  19.747  18.100  13.798
78403CL-    CL-48218  11.267  39.461   2.871
78404CL-    CL-48219  39.489   2.922   4.271
78405CL-    CL-48220  36.901  44.872   4.710
78406CL-    CL-48221  41.994  41.427  13.460
78407CL-    CL-48222  20.549  34.120   1.715
78408CL-    CL-48223  41.452  27.015  13.487
78409CL-    CL-48224  16.588  11.852   3.150
78410CL-    CL-48225  38.870  41.443   3.696
78411CL-    CL-48226  13.768  22.535  13.433
78412CL-    CL-48227   5.346  31.904   2.771
78413CL-    CL-48228   5.244  11.188   2.341
78414CL-    CL-48229  25.977   2.322   2.813
78415CL-    CL-48230   1.280  26.667   4.193
78416CL-    CL-48231  37.850  36.388  11.591
78417CL-    CL-48232  14.253  42.976   2.217
78418CL-    CL-48233  36.058  42.008  12.949
78419CL-    CL-48234   3.346  17.573   0.762
78420CL-    CL-48235  15.138  27.090  14.976
78421CL-    CL-48236  16.678  18.742   4.319
78422CL-    CL-48237  12.183  24.157  11.903
78423CL-    CL-48238  11.785  11.640   3.331
78424CL-    CL-48239   5.745  22.670   1.730
78425CL-    CL-48240   1.286  25.107   2.302
78426CL-    CL-48241  42.861  11.637  12.961
78427CL-    CL-48242  11.727  35.422   4.220
78428CL-    CL-48243  19.642   1.350   3.329
78429CL-    CL-48244   3.449  19.703   3.170
78430CL-    CL-48245  18.270   5.804  11.113
78431CL-    CL-48246  34.045  15.186  10.997
78432CL-    CL-48247  38.058  12.299  12.052
78433CL-    CL-48248  27.594  43.899  13.816
78434CL-    CL-48249  14.819  37.413   3.187
78435CL-    CL-48250  20.567   5.415  12.837
78436CL-    CL-48251  27.605  14.608   1.912
78437CL-    CL-48252  26.462  18.292  10.062
78438CL-    CL-48253   0.438   3.891  14.799
78439CL-    CL-48254   6.238  10.315   3.149
78440CL-    CL-48255  43.418  35.052  14.332
78441CL-    CL-48256  39.449  34.874   1.332
78442CL-    CL-48257  44.889  32.528  11.454
78443CL-    CL-48258  28.001  24.045  11.585
78444CL-    CL-48259  20.769  34.907   0.292
78445CL-    CL-48260  27.602  16.587  12.533
78446CL-    CL-48261  35.979  34.897   0.300
78447CL-    CL-48262   1.433  25.036   4.830
78448CL-    CL-48263  38.012   7.790  13.384
78449CL-    CL-48264  32.462   3.418   2.745
78450CL-    CL-48265  24.634  17.205   2.288
78451CL-    CL-48266  15.254   1.799   2.761
78452CL-    CL-48267  24.686   0.309   3.245
78453CL-    CL-48268  38.073  32.396  12.852
78454CL-    CL-48269  23.105  13.723   1.831
78455CL-    CL-48270  37.567  25.474  10.446
78456CL-    CL-48271  26.168  35.443  11.538
78457CL-    CL-48272  27.022   6.868  13.944
78458CL-    CL-48273   1.327  33.971  12.406
78459CL-    CL-48274   9.366  31.437   4.178
78460CL-    CL-48275  12.663  20.118   0.741
78461CL-    CL-48276   0.833  21.611   2.894
78462CL-    CL-48277  30.496  11.258   2.833
78463CL-    CL-48278   5.338   5.783   1.432
78464CL-    CL-48279  27.043  38.554   0.426
78465CL-    CL-48280   8.720  43.005   0.825
78466CL-    CL-48281  22.129  39.340   4.253
78467CL-    CL-48282  38.456  17.205   1.770
78468CL-    CL-48283  29.963  36.363   3.185
78469CL-    CL-48284   6.859   7.172   0.740
78470CL-    CL-48285  41.997  44.433   3.201
78471CL-    CL-48286  33.477  27.572  11.494
78472CL-    CL-48287  43.941   0.346   4.246
78473CL-    CL-48288  24.067  10.648  13.816
78474CL-    CL-48289  41.960  43.013  13.466
78475CL-    CL-48290  24.151  14.153  10.058
78476CL-    CL-48291   8.750  32.472  11.121
78477CL-    CL-48292  13.617  21.536   1.437
78478CL-    CL-48293  25.668  17.061  10.069
78479CL-    CL-48294  42.010   3.738  11.101
78480CL-    CL-48295  36.408  20.756   1.400
78481CL-    CL-48296   5.434  11.362   4.309
78482CL-    CL-48297  15.593  20.757  10.925
78483CL-    CL-48298  38.506  39.809   0.355
78484CL-    CL-48299  28.051   9.319   3.370
78485CL-    CL-48300  24.680  17.762   1.781
78486CL-    CL-48301  31.032  31.903   0.827
78487CL-    CL-48302  24.973  20.229  12.460
78488CL-    CL-48303  42.931  41.811  10.500
78489CL-    CL-48304   1.932  23.096  11.451
78490CL-    CL-48305  40.535  16.156   5.124
78491CL-    CL-48306   0.785  26.599   5.162
78492CL-    CL-48307  21.726  11.354  10.904
78493CL-    CL-48308  26.011  15.276  13.463
78494CL-    CL-48309   7.811  24.995   4.318
78495CL-    CL-48310  26.630  40.407   0.806
78496CL-    CL-48311  15.254  33.997   2.403
78497CL-    CL-48312  26.967  24.030   0.922
78498CL-    CL-48313  31.069  12.760  10.121
78499CL-    CL-48314  40.412  20.144  12.399
78500CL-    CL-48315   0.762  21.659  14.363
78501CL-    CL-48316   9.186  44.889   3.209
78502CL-    CL-48317  25.034  31.917  14.764
78503CL-    CL-48318   4.821  21.093  14.798
78504CL-    CL-48319  39.993  24.609  10.463
78505CL-    CL-48320  10.839  28.462  12.915
78506CL-    CL-48321  31.509  18.130  11.112
78507CL-    CL-48322  40.891  36.577   2.871
78508CL-    CL-48323  42.914   4.380   2.278
78509CL-    CL-48324  27.582   0.801   4.827
78510CL-    CL-48325   1.819  37.891   4.304
78511CL-    CL-48326  17.278  25.534   3.174
78512CL-    CL-48327  36.067  40.965   0.343
78513CL-    CL-48328  40.449   2.770  13.419
78514CL-    CL-48329   8.784   7.355  13.862
78515CL-    CL-48330  37.508  34.466  13.923
78516CL-    CL-48331  14.175  28.113  14.854
78517CL-    CL-48332   4.446  25.560   4.700
78518CL-    CL-48333  14.764   3.305  11.378
78519CL-    CL-48334  44.986  36.412  13.920
78520CL-    CL-48335   9.885  31.907  12.955
78521CL-    CL-48336  26.051   6.747  14.839
78522CL-    CL-48337  44.300  24.527  14.829
78523CL-    CL-48338   7.316   0.340   2.765
78524CL-    CL-48339  32.084  13.237  13.817
78525CL-    CL-48340  30.502  36.041  13.792
78526CL-    CL-48341  32.466  41.504   0.926
78527CL-    CL-48342  30.506   0.753   2.389
78528CL-    CL-48343   8.657  33.043  14.364
78529CL-    CL-48344  40.922  18.766   0.410
78530CL-    CL-48345  28.477  15.665  14.029
78531CL-    CL-48346  10.177  16.205  10.446
78532CL-    CL-48347  14.634  39.372  12.345
78533CL-    CL-48348   2.409  35.594  14.937
78534CL-    CL-48349  15.248  25.516   3.865
78535CL-    CL-48350  25.167   4.357   3.652
78536CL-    CL-48351  37.020  27.643  10.419
78537CL-    CL-48352  19.140  20.685   2.682
78538CL-    CL-48353  10.747   0.824   4.178
78539CL-    CL-48354  17.231  12.615  13.851
78540CL-    CL-48355  10.317   4.394   0.308
78541CL-    CL-48356  23.575  29.567   1.425
78542CL-    CL-48357  26.494   0.336   3.771
78543CL-    CL-48358   5.839  23.093   3.818
78544CL-    CL-48359  40.030  40.377  13.796
78545CL-    CL-48360   2.328  14.663   3.810
78546CL-    CL-48361  31.903  14.689   1.706
78547CL-    CL-48362  21.255   3.358  13.514
78548CL-    CL-48363  26.632  14.806  13.450
78549CL-    CL-48364   5.703  19.271  14.841
78550CL-    CL-48365  21.100   5.425   4.263
78551CL-    CL-48366  26.089  10.210  14.922
78552CL-    CL-48367  10.332   8.787  12.870
78553CL-    CL-48368  30.645  30.065  12.967
78554CL-    CL-48369  33.115  10.219  11.900
78555CL-    CL-48370  26.520   8.868   9.979
78556CL-    CL-48371   0.406   5.295   3.353
78557CL-    CL-48372  44.424   9.796  14.971
78558CL-    CL-48373  22.685   8.858  11.009
78559CL-    CL-48374  38.021  44.767   1.900
78560CL-    CL-48375   9.241  23.144  14.308
78561CL-    CL-48376  20.672   2.812   3.687
78562CL-    CL-48377  14.750   4.724  10.992
78563CL-    CL-48378  36.923  24.605   4.209
78564CL-    CL-48379   1.251  36.962  11.909
78565CL-    CL-48380   4.224   7.232   1.227
78566CL-    CL-48381  38.926  13.675   0.792
78567CL-    CL-48382   4.777  34.499  11.052
78568CL-    CL-48383  42.927  10.311  11.127
78569CL-    CL-48384  30.597   2.930  13.803
78570CL-    CL-48385  36.500  25.203  10.016
78571CL-    CL-48386  37.883  22.566  11.530
78572CL-    CL-48387  25.992  19.569   3.751
78573CL-    CL-48388  27.641  42.801  13.387
78574CL-    CL-48389  25.514  12.809   9.953
78575CL-    CL-48390   6.918  25.158   5.102
78576CL-    CL-48391   9.254  37.461  10.639
78577CL-    CL-48392  26.067  10.762   2.781
78578CL-    CL-48393  20.622  35.569  13.307
78579CL-    CL-48394  13.166  26.156  13.851
78580CL-    CL-48395  16.205  19.748  12.959
78581CL-    CL-48396  38.382  35.368   1.413
78582CL-    CL-48397  37.370   2.743   1.239
78583CL-    CL-48398  31.945  41.436   0.316
78584CL-    CL-48399  40.903   4.213   4.614
78585CL-    CL-48400   4.391  20.750   4.783
78586CL-    CL-48401  38.396  33.021   1.713
78587CL-    CL-48402   4.259  11.813   1.852
78588CL-    CL-48403  21.054  18.292   2.787
78589CL-    CL-48404  37.489   1.385   2.307
78590CL-    CL-48405  16.681  43.812   0.847
78591CL-    CL-48406  24.723  25.176  12.906
78592CL-    CL-48407   3.748  26.501   0.413
78593CL-    CL-48408  16.316  21.598   4.312
78594CL-    CL-48409  33.000  10.808   0.256
78595CL-    CL-48410  35.574  26.541  12.514
78596CL-    CL-48411  25.702  19.239  10.603
78597CL-    CL-48412  38.908  30.118   1.883
78598CL-    CL-48413  21.556  24.588  12.409
78599CL-    CL-48414  21.548   6.846  11.604
78600CL-    CL-48415  13.788  23.666   3.744
78601CL-    CL-48416  35.399  29.081  14.830
78602CL-    CL-48417  12.761  17.109  13.949
78603CL-    CL-48418  43.429  19.587  12.943
78604CL-    CL-48419   6.862  40.012   9.519
78605CL-    CL-48420   3.325   9.725  11.916
78606CL-    CL-48421  38.325   1.789   3.857
78607CL-    CL-48422   2.955  20.268  10.568
78608CL-    CL-48423  28.101  36.533  13.917
78609CL-    CL-48424  21.078  15.594  11.040
78610CL-    CL-48425  40.514  40.835  12.914
78611CL-    CL-48426  21.070  43.494  11.069
78612CL-    CL-48427  36.414  22.024   3.695
78613CL-    CL-48428   8.323  34.113  13.421
78614CL-    CL-48429  28.543   0.954   4.305
78615CL-    CL-48430  31.500  39.545  11.985
78616CL-    CL-48431  36.413  17.158   4.139
78617CL-    CL-48432  36.040  35.432  10.893
78618CL-    CL-48433  40.875  19.777   1.338
78619CL-    CL-48434  32.452  12.184  12.919
78620CL-    CL-48435  21.583  33.957   4.248
78621CL-    CL-48436  43.998  39.854  14.444
78622CL-    CL-48437  21.045  30.139  12.492
78623CL-    CL-48438  44.996  37.012   0.834
78624CL-    CL-48439   8.767  13.830  12.050
78625CL-    CL-48440  29.090  42.459  11.496
78626CL-    CL-48441  43.010  22.098  13.360
78627CL-    CL-48442  40.416  24.638   1.834
78628CL-    CL-48443   5.392   8.215   2.385
78629CL-    CL-48444   3.415   9.813  13.060
78630CL-    CL-48445   7.735   8.209  10.437
78631CL-    CL-48446  26.146   7.767   1.898
78632CL-    CL-48447  24.111  24.711   4.626
78633CL-    CL-48448  37.447  11.696   3.657
78634CL-    CL-48449  43.324  22.072  12.836
78635CL-    CL-48450  23.544   5.730   2.766
78636CL-    CL-48451  14.193  24.142   5.144
78637CL-    CL-48452  34.585  39.427   4.149
78638CL-    CL-48453  15.220   3.303  12.366
78639CL-    CL-48454  30.466  20.051  13.844
78640CL-    CL-48455  39.942   8.676   0.282
78641CL-    CL-48456  12.735   5.353   1.924
78642CL-    CL-48457  28.025  28.132  12.942
78643CL-    CL-48458   3.789  22.634  14.913
78644CL-    CL-48459  13.340  22.032   4.150
78645CL-    CL-48460  38.550  30.991  13.420
78646CL-    CL-48461  34.519  23.069  11.928
78647CL-    CL-48462  43.290   9.737  14.984
78648CL-    CL-48463  36.912   3.452  10.072
78649CL-    CL-48464  28.139  41.982  14.448
78650CL-    CL-48465   9.841  20.226  13.928
78651CL-    CL-48466  31.034  42.399   2.812
78652CL-    CL-48467  44.867   3.949   0.409
78653CL-    CL-48468  35.474  14.239   3.359
78654CL-    CL-48469   5.423   3.259  14.974
78655CL-    CL-48470   1.942  25.067  13.394
78656CL-    CL-48471   5.377   8.215   1.351
78657CL-    CL-48472  20.235  22.168   1.451
78658CL-    CL-48473   3.325   2.339   1.845
78659CL-    CL-48474  29.498  33.427  11.567
78660CL-    CL-48475  15.760  26.951   4.801
78661CL-    CL-48476  40.890  42.803  13.482
78662CL-    CL-48477  31.605  38.925  12.924
78663CL-    CL-48478  12.748  26.554   3.348
78664CL-    CL-48479  33.408  26.558   3.674
78665CL-    CL-48480  37.963  11.272   2.198
78666CL-    CL-48481  31.918  34.530  14.398
78667CL-    CL-48482  39.008   5.690   1.421
78668CL-    CL-48483   6.789   1.909   0.828
78669CL-    CL-48484   9.815  14.331   4.160
78670CL-    CL-48485  37.498  14.651  10.478
78671CL-    CL-48486  36.844  20.701  12.416
78672CL-    CL-48487  17.170   8.385   1.216
78673CL-    CL-48488   1.901  35.523  10.909
78674CL-    CL-48489  41.986   2.400  13.346
78675CL-    CL-48490   2.373   3.419  10.971
78676CL-    CL-48491   6.216   1.850  10.080
78677CL-    CL-48492  10.139  34.568  13.446
78678CL-    CL-48493  43.289  28.997   0.458
78679CL-    CL-48494  21.183  11.360  11.556
78680CL-    CL-48495  30.020   1.895  12.975
78681CL-    CL-48496  18.137  41.357   2.885
78682CL-    CL-48497  38.918  26.069  11.007
78683CL-    CL-48498  11.295  43.020   4.337
78684CL-    CL-48499   1.931  33.560  11.440
78685CL-    CL-48500  10.153  25.137   5.121
78686CL-    CL-48501  16.318  21.606  13.527
78687CL-    CL-48502  44.792  28.490  13.313
78688CL-    CL-48503  22.119  38.479   4.123
78689CL-    CL-48504  17.580  30.588  10.457
78690CL-    CL-48505   5.328   4.923  13.337
78691CL-    CL-48506  36.394  25.485   3.375
78692CL-    CL-48507  44.896   2.321  12.912
78693CL-    CL-48508   0.486  29.605  11.432
78694CL-    CL-48509   7.692  18.179   1.387
78695CL-    CL-48510   9.161  29.581   2.234
78696CL-    CL-48511  12.777  30.029  14.421
78697CL-    CL-48512   4.348  10.249  11.570
78698CL-    CL-48513  43.426  11.777   0.406
78699CL-    CL-48514  10.662  24.599  11.004
78700CL-    CL-48515  36.029  43.491   0.897
78701CL-    CL-48516  22.080  41.986   2.821
78702CL-    CL-48517  34.378  20.037   3.234
78703CL-    CL-48518   3.908   2.948  11.556
78704CL-    CL-48519  38.952  13.184  12.049
78705CL-    CL-48520  13.730   8.771  12.079
78706CL-    CL-48521  13.733  39.901   3.681
78707CL-    CL-48522  44.005  18.596   3.154
78708CL-    CL-48523  37.435  20.757   4.252
78709CL-    CL-48524  36.512  22.062  10.934
78710CL-    CL-48525  31.432   0.747   3.855
78711CL-    CL-48526  35.369  18.656   0.324
78712CL-    CL-48527  43.777  10.239  13.856
78713CL-    CL-48528   3.792  16.599  13.469
78714CL-    CL-48529  16.096  32.143   4.337
78715CL-    CL-48530  16.099  34.031  11.896
78716CL-    CL-48531  36.882  40.324  11.038
78717CL-    CL-48532  15.121  44.779   1.298
78718CL-    CL-48533  29.063  33.039  13.867
78719CL-    CL-48534  43.359  20.116   0.350
78720CL-    CL-48535  18.153   6.317  14.389
78721CL-    CL-48536  30.973  30.417  10.623
78722CL-    CL-48537  15.669  17.596   4.241
78723CL-    CL-48538  38.982  15.800  13.919
78724CL-    CL-48539  44.500  11.627   2.733
78725CL-    CL-48540  44.894  10.257  13.400
78726CL-    CL-48541  16.614   7.246  11.581
78727CL-    CL-48542  15.227   5.783  11.969
78728CL-    CL-48543   2.301  24.590   4.192
78729CL-    CL-48544   8.773  35.383   1.279
78730CL-    CL-48545   0.378  38.051  14.948
78731CL-    CL-48546  15.307  22.645   0.770
78732CL-    CL-48547  35.578   8.807   2.244
78733CL-    CL-48548  38.423  13.664   4.829
78734CL-    CL-48549  28.097  12.659   0.777
78735CL-    CL-48550  10.769   7.407  12.883
78736CL-    CL-48551  13.815  14.680  13.457
78737CL-    CL-48552   0.423  31.566   1.749
78738CL-    CL-48553  17.643  21.564   1.885
78739CL-    CL-48554  18.263   7.802   1.909
78740CL-    CL-48555  44.964   6.813   4.254
78741CL-    CL-48556  29.432  26.171   3.165
78742CL-    CL-48557  25.984   8.844  10.564
78743CL-    CL-48558   1.843  42.308  13.393
78744CL-    CL-48559  38.557  18.768  13.063
78745CL-    CL-48560  23.660  35.955   3.303
78746CL-    CL-48561   5.415  16.192   2.312
78747CL-    CL-48562  19.087  10.852  11.959
78748CL-    CL-48563  19.611   3.394  12.471
78749CL-    CL-48564  13.730  34.048   1.888
78750CL-    CL-48565   2.447  37.358   4.748
78751CL-    CL-48566   8.705  19.602  10.982
78752CL-    CL-48567   4.837  24.580  14.278
78753CL-    CL-48568  25.627  40.837  10.927
78754CL-    CL-48569  19.719   8.837  13.830
78755CL-    CL-48570  35.926  33.008  10.981
78756CL-    CL-48571  39.865  37.424   3.279
78757CL-    CL-48572   2.415  34.945  13.877
78758CL-    CL-48573  28.087  20.143  12.876
78759CL-    CL-48574   6.822   9.189  14.432
78760CL-    CL-48575  36.897  39.865   2.316
78761CL-    CL-48576   9.880  21.114  13.884
78762CL-    CL-48577  23.231  16.723  10.947
78763CL-    CL-48578  35.061  30.051  14.325
78764CL-    CL-48579   2.722  36.577   1.712
78765CL-    CL-48580  38.373  15.749   4.294
78766CL-    CL-48581   9.170  13.195   2.388
78767CL-    CL-48582  15.728  38.554  12.438
78768CL-    CL-48583  39.323  20.068   0.332
78769CL-    CL-48584  35.470   1.308  14.861
78770CL-    CL-48585  41.875  16.185   5.235
78771CL-    CL-48586  25.616  24.175  14.476
78772CL-    CL-48587  25.470   6.835   2.881
78773CL-    CL-48588  15.667  43.975  14.829
78774CL-    CL-48589   7.751  37.495   1.442
78775CL-    CL-48590  43.799  25.709   0.848
78776CL-    CL-48591  19.774  38.822   3.787
78777CL-    CL-48592  43.324  40.445   1.893
78778CL-    CL-48593  36.886  31.402  14.886
78779CL-    CL-48594  12.347  33.959   4.604
78780CL-    CL-48595  38.444  14.310   1.788
78781CL-    CL-48596  19.167   3.854  14.910
78782CL-    CL-48597  41.475  29.486  10.587
78783CL-    CL-48598   2.399  13.650   4.737
78784CL-    CL-48599  36.559  36.529  14.344
78785CL-    CL-48600  14.697  38.901   3.674
78786CL-    CL-48601  33.016  24.632  13.945
78787CL-    CL-48602  36.879  37.002   2.406
78788CL-    CL-48603  28.618  37.504  12.390
78789CL-    CL-48604   6.722   0.802  14.999
78790CL-    CL-48605  12.760  21.063  13.433
78791CL-    CL-48606  33.452  12.636   3.820
78792CL-    CL-48607  20.608   3.285   2.223
78793CL-    CL-48608  40.999  25.002  14.338
78794CL-    CL-48609  36.092  17.581  14.399
78795CL-    CL-48610  32.536  39.538  13.970
78796CL-    CL-48611  37.879   1.341   4.202
78797CL-    CL-48612  32.577   2.737  14.796
78798CL-    CL-48613  34.414  10.372   1.372
78799CL-    CL-48614  39.405  40.035  12.981
78800CL-    CL-48615   9.820  34.092   1.375
78801CL-    CL-48616   5.781  23.599   3.777
78802CL-    CL-48617  44.827   4.287   0.410
78803CL-    CL-48618  33.944  13.162  14.323
78804CL-    CL-48619   6.414  41.455  12.401
78805CL-    CL-48620  10.657   1.776   4.334
78806CL-    CL-48621  31.421  39.986   1.253
78807CL-    CL-48622  36.583   0.942  14.400
78808CL-    CL-48623  16.165  10.329  13.408
78809CL-    CL-48624  25.037  34.898  10.985
78810CL-    CL-48625  11.798  42.969  13.941
78811CL-    CL-48626  32.427  10.713   4.127
78812CL-    CL-48627  17.128  39.039  12.482
78813CL-    CL-48628  10.141  22.662  12.981
78814CL-    CL-48629  11.176  31.404  10.428
78815CL-    CL-48630  30.501  20.126  10.553
78816CL-    CL-48631  23.718  23.695  11.865
78817CL-    CL-48632  12.712   3.934  12.540
78818CL-    CL-48633  23.170  40.886   3.178
78819CL-    CL-48634  19.573  32.922  11.051
78820CL-    CL-48635  14.127   0.332   1.296
78821CL-    CL-48636   7.233  12.213   0.292
78822CL-    CL-48637  38.351  14.715   2.784
78823CL-    CL-48638  20.569  13.344  13.848
78824CL-    CL-48639  13.351  29.952   0.380
78825CL-    CL-48640  15.781  40.528   0.929
78826CL-    CL-48641  33.435  44.792  10.627
78827CL-    CL-48642  14.189  33.479   2.281
78828CL-    CL-48643  36.352  43.846   0.946
78829CL-    CL-48644  44.809  25.018   0.938
78830CL-    CL-48645  19.178  41.905  13.365
78831CL-    CL-48646   5.897   4.420   1.858
78832CL-    CL-48647  31.925  16.761  13.386
78833CL-    CL-48648  21.151  41.500   9.937
78834CL-    CL-48649  12.832  10.207  13.913
78835CL-    CL-48650  14.292  22.124   4.642
78836CL-    CL-48651  31.618  17.762  11.869
78837CL-    CL-48652  43.971  14.262   2.287
78838CL-    CL-48653  44.918  14.758   0.835
78839CL-    CL-48654  27.078  27.593  12.430
78840CL-    CL-48655  42.998  35.928   2.226
78841CL-    CL-48656   8.866  35.485   0.770
78842CL-    CL-48657  43.422  13.629  14.988
78843CL-    CL-48658  44.466  29.581  14.276
78844CL-    CL-48659  19.726  16.175  11.381
78845CL-    CL-48660  12.262  34.902  11.556
78846CL-    CL-48661   6.901  23.701  11.372
78847CL-    CL-48662  40.915   9.676  14.808
78848CL-    CL-48663   1.824  31.517   1.895
78849CL-    CL-48664  38.526  12.652   1.893
78850CL-    CL-48665   3.339   1.354   4.797
78851CL-    CL-48666   4.840  19.658  12.905
78852CL-    CL-48667  32.444   6.731  12.912
78853CL-    CL-48668  19.254   3.822  11.595
78854CL-    CL-48669   5.917   6.354  14.837
78855CL-    CL-48670  17.065  15.709   3.359
78856CL-    CL-48671  26.650  44.981  14.487
78857CL-    CL-48672  29.107   0.466  13.323
78858CL-    CL-48673   0.800  42.005   2.377
78859CL-    CL-48674   3.330  36.022   1.903
78860CL-    CL-48675  17.186  41.334  14.975
78861CL-    CL-48676  10.160   1.790   0.851
78862CL-    CL-48677  22.163  26.641  11.451
78863CL-    CL-48678  29.548  44.303   5.140
78864CL-    CL-48679   5.756  28.040  10.892
78865CL-    CL-48680  16.698  30.591  10.588
78866CL-    CL-48681  41.349  29.013   2.688
78867CL-    CL-48682  36.424  34.120   0.731
78868CL-    CL-48683  13.247  18.686  11.559
78869CL-    CL-48684  43.892  24.118  11.122
78870CL-    CL-48685  11.185   9.228   0.762
78871CL-    CL-48686  18.222  30.616  11.024
78872CL-    CL-48687  42.919  12.304  12.400
78873CL-    CL-48688  39.999  18.240  13.482
78874CL-    CL-48689  38.961  12.820   3.709
78875CL-    CL-48690  10.305  21.039  10.938
78876CL-    CL-48691  12.733   8.659  12.002
78877CL-    CL-48692   0.465  34.962   1.257
78878CL-    CL-48693  40.340   6.361   9.990
78879CL-    CL-48694  11.276  28.519  10.640
78880CL-    CL-48695  33.102  23.029   3.153
78881CL-    CL-48696  36.504  29.485  12.421
78882CL-    CL-48697  27.982  42.910  11.432
78883CL-    CL-48698  42.382  24.108   3.629
78884CL-    CL-48699  20.120   7.800   1.413
78885CL-    CL-48700  43.869   9.232   4.229
78886CL-    CL-48701  28.152  17.107  11.574
78887CL-    CL-48702   3.380  38.861  11.407
78888CL-    CL-48703  21.751   8.185  13.502
78889CL-    CL-48704  18.639  43.810  14.482
78890CL-    CL-48705   9.340  20.073   3.233
78891CL-    CL-48706  30.051  44.879  11.579
78892CL-    CL-48707  40.002  15.633   5.582
78893CL-    CL-48708  34.892  25.093  10.553
78894CL-    CL-48709   1.445  26.687  13.385
78895CL-    CL-48710  26.171   6.866   1.848
78896CL-    CL-48711  11.344  32.948   4.291
78897CL-    CL-48712  37.347  25.054   1.314
78898CL-    CL-48713  12.646   9.866   4.115
78899CL-    CL-48714  28.546  10.868   0.475
78900CL-    CL-48715  29.939  17.078  10.924
78901CL-    CL-48716   2.265  12.347  13.534
78902CL-    CL-48717  39.816   2.774   0.842
78903CL-    CL-48718  26.968   7.309   3.808
78904CL-    CL-48719  37.363  22.606   4.286
78905CL-    CL-48720  27.662  13.612   0.829
78906CL-    CL-48721  17.067  31.412   2.685
78907CL-    CL-48722  38.943  20.126  11.035
78908CL-    CL-48723  43.880  28.067  14.346
78909CL-    CL-48724  37.568  11.262   2.803
78910CL-    CL-48725  28.472   3.318   4.648
78911CL-    CL-48726  21.536  43.840  10.991
78912CL-    CL-48727  17.236  35.921   4.194
78913CL-    CL-48728  31.463   6.400   2.415
78914CL-    CL-48729   3.769  27.656  11.088
78915CL-    CL-48730  15.106  11.279  13.816
78916CL-    CL-48731  16.737  12.784  14.353
78917CL-    CL-48732  19.707  23.214   3.341
78918CL-    CL-48733   9.726   4.402  12.070
78919CL-    CL-48734  38.002  37.553   3.193
78920CL-    CL-48735   7.411  18.107   0.480
78921CL-    CL-48736  26.634  44.835  14.934
78922CL-    CL-48737  11.665  39.918  14.988
78923CL-    CL-48738  35.357  28.443   1.802
78924CL-    CL-48739  19.712  22.700  12.530
78925CL-    CL-48740   0.871  22.526   3.346
78926CL-    CL-48741  40.919  40.426  11.486
78927CL-    CL-48742  33.064  10.202  10.448
78928CL-    CL-48743  18.072   0.912  14.355
78929CL-    CL-48744  37.439  44.305   0.960
78930CL-    CL-48745  34.004  32.581   1.234
78931CL-    CL-48746  24.718  25.540  10.591
78932CL-    CL-48747  13.602  12.244  10.642
78933CL-    CL-48748  21.115  18.677  11.577
78934CL-    CL-48749   9.674  30.511   2.849
78935CL-    CL-48750   7.243   5.278  12.850
78936CL-    CL-48751   9.253  11.756  12.892
78937CL-    CL-48752   2.953   4.701  11.483
78938CL-    CL-48753   1.812  22.706   3.346
78939CL-    CL-48754   9.691   4.886  11.486
78940CL-    CL-48755  17.102  38.897   2.194
78941CL-    CL-48756  34.486  26.512   3.185
78942CL-    CL-48757  12.358  14.778   2.866
78943CL-    CL-48758  18.236  27.649   0.312
78944CL-    CL-48759   7.870  15.252  11.549
78945CL-    CL-48760  30.580   9.236  14.374
78946CL-    CL-48761  37.058  41.950   1.751
78947CL-    CL-48762  16.289   3.867   0.383
78948CL-    CL-48763   3.721  16.288   4.602
78949CL-    CL-48764  21.143  31.613   1.707
78950CL-    CL-48765  16.217   7.766   3.702
78951CL-    CL-48766  27.470  35.035  11.059
78952CL-    CL-48767   8.354   7.748  14.779
78953CL-    CL-48768   5.741  23.542  11.525
78954CL-    CL-48769  31.120  20.237  13.364
78955CL-    CL-48770   1.338   5.245  14.995
78956CL-    CL-48771  22.668  27.947  10.404
78957CL-    CL-48772   1.395  41.310  13.869
78958CL-    CL-48773  31.141  27.019   2.271
78959CL-    CL-48774  22.026  37.469   1.301
78960CL-    CL-48775  17.285  42.932  12.892
78961CL-    CL-48776  23.696   7.686   0.400
78962CL-    CL-48777   8.163   9.186  13.541
78963CL-    CL-48778  16.276   2.882  14.955
78964CL-    CL-48779  39.820  14.258  10.940
78965CL-    CL-48780   9.819   1.855  12.004
78966CL-    CL-48781  14.629   8.855  13.450
78967CL-    CL-48782  40.436  33.098  13.458
78968CL-    CL-48783   3.784  42.330   4.640
78969CL-    CL-48784   8.862  29.533  10.489
78970CL-    CL-48785   5.301  38.019   2.400
78971CL-    CL-48786  18.133  43.286   3.175
78972CL-    CL-48787  37.357   9.157   0.965
78973CL-    CL-48788   0.431  44.432   1.215
78974CL-    CL-48789  44.928  36.478   0.460
78975CL-    CL-48790   0.307   7.804   1.834
78976CL-    CL-48791  11.332  33.556   1.424
78977CL-    CL-48792   7.680  33.599   4.598
78978CL-    CL-48793   8.737  30.940  14.782
78979CL-    CL-48794   6.825  19.170  12.408
78980CL-    CL-48795  43.358   2.857  13.482
78981CL-    CL-48796  10.665  25.698   3.334
78982CL-    CL-48797  19.220  25.676  14.983
78983CL-    CL-48798   9.661  13.698  14.926
78984CL-    CL-48799  38.923   7.373   4.344
78985CL-    CL-48800   1.315  38.426   1.839
78986CL-    CL-48801   7.901  41.959   1.214
78987CL-    CL-48802  28.117  28.983  13.908
78988CL-    CL-48803  39.389  32.572   4.332
78989CL-    CL-48804  22.169  18.084  11.445
78990CL-    CL-48805  42.442  13.638   2.853
78991CL-    CL-48806  39.471  36.071  12.529
78992CL-    CL-48807  18.118  31.441  14.510
78993CL-    CL-48808  13.217  18.114  11.039
78994CL-    CL-48809  14.273  33.947  12.485
78995CL-    CL-48810  36.039  20.611   4.761
78996CL-    CL-48811  42.812  23.187   1.255
78997CL-    CL-48812  39.504   3.225   3.789
78998CL-    CL-48813  26.015  20.097   3.255
78999CL-    CL-48814  26.667   2.754   0.941
79000CL-    CL-48815  26.686   7.816  13.310
79001CL-    CL-48816  14.591  23.530  11.593
79002CL-    CL-48817  26.600   2.266   0.818
79003CL-    CL-48818  41.009  31.981  13.463
79004CL-    CL-48819  42.797  34.384   2.394
79005CL-    CL-48820  29.118  16.812   2.694
79006CL-    CL-48821  20.640  12.285  12.421
79007CL-    CL-48822  19.750   0.802   5.207
79008CL-    CL-48823  39.521  41.404   0.396
79009CL-    CL-48824  20.219  37.013   1.785
79010CL-    CL-48825   1.781   5.910  14.938
79011CL-    CL-48826   2.877  29.552  13.453
79012CL-    CL-48827  24.649  34.560   3.870
79013CL-    CL-48828  30.992   5.745   4.635
79014CL-    CL-48829  32.582  24.723   1.818
79015CL-    CL-48830   5.327   0.386   2.792
79016CL-    CL-48831  28.544   5.391  12.046
79017CL-    CL-48832   7.668  30.932   4.720
79018CL-    CL-48833  23.215  37.970  13.909
79019CL-    CL-48834  27.671  44.952   2.834
79020CL-    CL-48835  26.133  27.192  13.521
79021CL-    CL-48836  44.821  12.344   3.791
79022CL-    CL-48837   5.336  33.461   1.249
79023CL-    CL-48838  43.452  30.423   3.714
79024CL-    CL-48839  36.946   0.754  10.952
79025CL-    CL-48840   7.312   0.849   2.900
79026CL-    CL-48841  11.756  42.911  14.862
79027CL-    CL-48842  16.257   6.353   3.852
79028CL-    CL-48843  26.658  15.596  12.888
79029CL-    CL-48844   4.901  25.546   2.704
79030CL-    CL-48845  18.683  23.018   0.272
79031CL-    CL-48846  10.154  12.259  12.892
79032CL-    CL-48847  34.079  18.166   2.218
79033CL-    CL-48848  24.209  17.297   5.267
79034CL-    CL-48849  21.217   7.392   2.856
79035CL-    CL-48850  43.803  23.135   2.296
79036CL-    CL-48851  29.941  20.152  12.949
79037CL-    CL-48852   2.237  32.976  11.945
79038CL-    CL-48853  35.908   7.221  11.542
79039CL-    CL-48854  15.284   8.239   3.864
79040CL-    CL-48855  24.565   3.215   3.687
79041CL-    CL-48856   9.832  21.234  10.572
79042CL-    CL-48857   2.791  11.353  13.809
79043CL-    CL-48858  41.456  41.959   2.673
79044CL-    CL-48859  29.538   8.299  13.060
79045CL-    CL-48860   5.328   8.290  10.438
79046CL-    CL-48861  23.149  34.971  13.934
79047CL-    CL-48862   0.419   9.299  10.517
79048CL-    CL-48863  41.934   6.284  14.293
79049CL-    CL-48864   9.212  43.316  10.975
79050CL-    CL-48865  27.458  10.273  11.443
79051CL-    CL-48866  14.765  20.634   2.368
79052CL-    CL-48867  25.604  16.284   2.818
79053CL-    CL-48868  28.140  42.812   5.294
79054CL-    CL-48869  18.563  28.583  11.126
79055CL-    CL-48870  30.927  12.141   1.213
79056CL-    CL-48871  32.515  34.482  11.450
79057CL-    CL-48872   2.879  31.462   1.801
79058CL-    CL-48873  39.818  11.159  13.999
79059CL-    CL-48874  44.377   2.235  11.024
79060CL-    CL-48875  35.387   2.367  10.534
79061CL-    CL-48876  17.188  19.078   4.150
79062CL-    CL-48877   3.250  42.330   2.868
79063CL-    CL-48878  18.128   1.854  13.914
79064CL-    CL-48879  20.164  17.631   0.919
79065CL-    CL-48880   2.297  30.588  13.437
79066CL-    CL-48881  31.970  44.895   2.709
79067CL-    CL-48882  38.860  31.401  11.899
79068CL-    CL-48883   9.840  43.935  14.321
79069CL-    CL-48884   8.690  27.007  14.870
79070CL-    CL-48885  38.422   1.306   4.303
79071CL-    CL-48886  17.190   9.185   1.811
79072CL-    CL-48887  13.642  26.176   2.217
79073CL-    CL-48888  35.931  32.017   2.849
79074CL-    CL-48889  37.411  11.219   4.712
79075CL-    CL-48890   0.797  40.320   2.685
79076CL-    CL-48891   6.881  25.699   3.743
79077CL-    CL-48892  36.034   5.879   4.629
79078CL-    CL-48893  28.607  23.577  14.027
79079CL-    CL-48894  34.035  35.863  12.349
79080CL-    CL-48895  20.088   3.426   2.692
79081CL-    CL-48896  25.099  17.286  11.560
79082CL-    CL-48897  35.429   0.877  12.473
79083CL-    CL-48898  26.477  30.607   4.344
79084CL-    CL-48899  14.765  17.168   0.302
79085CL-    CL-48900  19.189  26.511   0.375
79086CL-    CL-48901   9.332   5.876  12.010
79087CL-    CL-48902   0.811  35.521   1.439
79088CL-    CL-48903  31.070  11.258  13.840
79089CL-    CL-48904  29.946   5.706  10.912
79090CL-    CL-48905  39.550  12.266  12.440
79091CL-    CL-48906  40.360   0.465   4.660
79092CL-    CL-48907  32.894  43.879   3.299
79093CL-    CL-48908  37.905  34.058  12.475
79094CL-    CL-48909  14.808  17.199   3.165
79095CL-    CL-48910  37.951  32.620  11.563
79096CL-    CL-48911  43.468   0.942   3.376
79097CL-    CL-48912   2.857  11.808   1.297
79098CL-    CL-48913  18.790  11.319  12.913
79099CL-    CL-48914  25.616  42.906  13.398
79100CL-    CL-48915  35.859   7.327  14.904
79101CL-    CL-48916  44.473  19.777   2.724
79102CL-    CL-48917  20.183  29.930   3.384
79103CL-    CL-48918  15.270   7.320   2.271
79104CL-    CL-48919   2.366  29.056  11.604
79105CL-    CL-48920  30.544  37.872  12.361
79106CL-    CL-48921  26.561  27.559   3.732
79107CL-    CL-48922  34.550  22.094   1.705
79108CL-    CL-48923  42.303  28.031   4.310
79109CL-    CL-48924  43.286  29.554   1.252
79110CL-    CL-48925  37.916   6.211  11.898
79111CL-    CL-48926  42.991  35.873   4.803
79112CL-    CL-48927  24.574  37.049  13.410
79113CL-    CL-48928  32.456  16.312  12.434
79114CL-    CL-48929  41.372  14.643   0.352
79115CL-    CL-48930  34.989  28.035   4.226
79116CL-    CL-48931  31.939   4.744  14.800
79117CL-    CL-48932   2.796  15.323  11.128
79118CL-    CL-48933   7.278   3.243  14.764
79119CL-    CL-48934   4.731  16.724  12.515
79120CL-    CL-48935  20.062  38.467   3.286
79121CL-    CL-48936  43.911  23.071  11.065
79122CL-    CL-48937  24.167  10.662  11.565
79123CL-    CL-48938  23.729  36.496   4.785
79124CL-    CL-48939   8.883  43.505  10.418
79125CL-    CL-48940  31.915  19.541   2.873
79126CL-    CL-48941  41.044  14.788  10.004
79127CL-    CL-48942   5.263  35.492   3.645
79128CL-    CL-48943  25.680  26.987   4.696
79129CL-    CL-48944  23.567  16.107   3.311
79130CL-    CL-48945   9.855  39.424   1.435
79131CL-    CL-48946  36.983  38.944  14.455
79132CL-    CL-48947  27.173  13.691   2.730
79133CL-    CL-48948   4.881   0.401  11.910
79134CL-    CL-48949  17.170  14.172   2.783
79135CL-    CL-48950  42.918  40.394  13.058
79136CL-    CL-48951   8.185   1.953   0.262
79137CL-    CL-48952   0.380  33.007  14.999
79138CL-    CL-48953   3.426   6.256  14.313
79139CL-    CL-48954  36.347  34.459   3.350
79140CL-    CL-48955  24.690  31.005   4.351
79141CL-    CL-48956   4.933  19.646  12.027
79142CL-    CL-48957  32.037  17.785  11.864
79143CL-    CL-48958  29.920  20.624  12.462
79144CL-    CL-48959   8.383   8.212   3.340
79145CL-    CL-48960   0.950  12.323   4.733
79146CL-    CL-48961  36.503  14.310  10.927
79147CL-    CL-48962  30.531  18.060  13.321
79148CL-    CL-48963   8.363  27.588  10.554
79149CL-    CL-48964  18.122  34.452  14.407
79150CL-    CL-48965  10.844  38.980  12.919
79151CL-    CL-48966  14.122  17.652   0.273
79152CL-    CL-48967   8.864  26.200  14.344
79153CL-    CL-48968  16.690  39.888   1.417
79154CL-    CL-48969   9.200   0.355   1.302
79155CL-    CL-48970  37.025  27.032  13.895
79156CL-    CL-48971  13.149  34.111   2.180
79157CL-    CL-48972  38.486  33.451  14.809
79158CL-    CL-48973  35.932   0.314   4.796
79159CL-    CL-48974  40.454   3.725  13.045
79160CL-    CL-48975  42.506  27.129  12.024
79161CL-    CL-48976  42.342  13.601  10.518
79162CL-    CL-48977  26.959  27.657   1.449
79163CL-    CL-48978  26.458  27.946  12.016
79164CL-    CL-48979   6.303  41.795   3.197
79165CL-    CL-48980  18.554   3.226   0.936
79166CL-    CL-48981  16.157  25.544  12.579
79167CL-    CL-48982  41.990  31.472   0.899
79168CL-    CL-48983  14.288  43.906  14.286
79169CL-    CL-48984  30.132  28.149  11.388
79170CL-    CL-48985   9.855  31.625   1.315
79171CL-    CL-48986  19.102  44.813  12.075
79172CL-    CL-48987   7.807  42.494  12.544
79173CL-    CL-48988  42.840  25.583   5.191
79174CL-    CL-48989   7.368  31.040  11.869
79175CL-    CL-48990   9.332  16.765   3.830
79176CL-    CL-48991  13.654  35.861  12.393
79177CL-    CL-48992  25.083  34.006  10.893
79178CL-    CL-48993  36.864  22.744   0.456
79179CL-    CL-48994  23.193   3.904  11.038
79180CL-    CL-48995  19.579   1.769   2.774
79181CL-    CL-48996  24.175  40.843   1.694
79182CL-    CL-48997  16.625  19.097  12.896
79183CL-    CL-48998   2.354  14.126  10.630
79184CL-    CL-48999  14.188  27.502  13.503
79185CL-    CL-49000  22.635  37.373   3.383
79186CL-    CL-49001   3.895  39.974   3.226
79187CL-    CL-49002  40.978  33.466  12.364
79188CL-    CL-49003  41.990  34.973  10.969
79189CL-    CL-49004  14.192  22.564   0.392
79190CL-    CL-49005   7.200  38.828   1.852
79191CL-    CL-49006  24.504  28.074   1.407
79192CL-    CL-49007  39.528  42.459   3.731
79193CL-    CL-49008   8.178  27.117   4.219
79194CL-    CL-49009  39.965  19.661   0.390
79195CL-    CL-49010  39.864   2.935  10.405
79196CL-    CL-49011  13.795  44.978  11.002
79197CL-    CL-49012  26.146  38.886   4.304
79198CL-    CL-49013   2.919  17.719  12.060
79199CL-    CL-49014  23.622  32.536   3.314
79200CL-    CL-49015  41.433  37.484  10.623
79201CL-    CL-49016  26.142  20.137  13.460
79202CL-    CL-49017  28.014  32.012   3.369
79203CL-    CL-49018   3.822   3.956   3.166
79204CL-    CL-49019   5.204  24.527  12.407
79205CL-    CL-49020  35.089  43.788  12.369
79206CL-    CL-49021  32.126   1.262  14.364
79207CL-    CL-49022   3.396  18.115   1.756
79208CL-    CL-49023   7.216  18.113  11.534
79209CL-    CL-49024  38.995  28.488  10.623
79210CL-    CL-49025  10.793  40.920   3.658
79211CL-    CL-49026   1.429   1.459  14.797
79212CL-    CL-49027  44.307  12.685  13.425
79213CL-    CL-49028  12.715  23.117   0.835
79214CL-    CL-49029  32.629  23.218   3.798
79215CL-    CL-49030  17.265  15.628  11.876
  45.00000  45.00000  15.00000   0.00000   0.00000   0.00000   0.00000   0.00000   0.00000

